LAMMPS data file via write_data, version 30 Jul 2016, timestep = 50400000

180 atoms
2 atom types

0.0000000000000000e+00 2.0000000000000000e+01 xlo xhi
0.0000000000000000e+00 2.0000000000000000e+01 ylo yhi
0.0000000000000000e+00 2.0000000000000000e+01 zlo zhi

Masses

1 3.896
2 4.31

Atoms # meso-molecular

91 1 2 1.0282055367698231e+00 -4.8009171183535449e+02 1.0000000000000000e+00 1.0326530286241400e+01 7.0828004999074015e+00 6.0926888812735225e+00 
133 1 2 1.0266769767575123e+00 -5.5235416918568751e+02 1.0000000000000000e+00 1.1794496583971046e+01 8.9848726902015645e+00 5.7786503257157431e+00 
139 1 2 1.0273971755329525e+00 -5.1843907373250909e+02 1.0000000000000000e+00 1.1805464582420532e+01 8.9090603694673991e+00 5.9815920161023524e+00 
175 1 2 1.0276658137108765e+00 -5.5796249201853209e+02 1.0000000000000000e+00 1.1790567681813597e+01 8.9151125693135640e+00 5.9764809985296905e+00 
98 1 2 1.0278889164086396e+00 -5.9295837581569344e+02 1.0000000000000000e+00 1.1820013355849950e+01 9.0410893484732231e+00 5.9878559290296121e+00 
127 1 2 1.0270321855071662e+00 -6.0765226062670411e+02 1.0000000000000000e+00 1.1770487393292282e+01 9.0270811628221690e+00 6.0416084515261828e+00 
97 1 2 1.0282028544901092e+00 -4.6540139523405958e+02 1.0000000000000000e+00 1.0170567559029298e+01 7.0401730611229070e+00 6.3931346227762855e+00 
103 1 2 1.0282042631644110e+00 -5.4088853652789226e+02 1.0000000000000000e+00 1.0175491654015088e+01 7.0697829180149778e+00 6.3965456201538000e+00 
104 1 2 1.0282035708864818e+00 -5.5581668394193878e+02 1.0000000000000000e+00 1.0164534566611444e+01 7.0662355659779381e+00 6.4295290982215318e+00 
169 1 2 1.0290745856537120e+00 -6.4413081160655679e+02 1.0000000000000000e+00 1.1847539678890250e+01 8.3376722712081417e+00 6.2862763309145491e+00 
61 1 2 1.0281964421542193e+00 -5.0684060352299969e+02 1.0000000000000000e+00 1.0124717746023817e+01 6.9674506552480198e+00 6.5077986580819127e+00 
31 1 2 1.0281982154774605e+00 -5.9732735701459717e+02 1.0000000000000000e+00 1.0132031743652885e+01 6.9918534260502687e+00 6.4950812880782935e+00 
67 1 2 1.0281976164891813e+00 -5.2564033908292504e+02 1.0000000000000000e+00 1.0129325137143052e+01 6.9837343060583628e+00 6.5002229713558135e+00 
25 1 2 1.0281959831078953e+00 -5.8768324742573463e+02 1.0000000000000000e+00 1.0121365845027499e+01 6.9634911049143637e+00 6.5190565630231001e+00 
68 1 2 1.0281913063792900e+00 -5.8759290848012915e+02 1.0000000000000000e+00 1.0096459150281403e+01 6.9181048392719546e+00 6.6051481570379780e+00 
15 1 2 1.0278941506602761e+00 -4.9502967379128427e+02 1.0000000000000000e+00 1.0345796180251652e+01 5.4890343416027259e+00 8.7513012677017894e+00 
32 1 2 1.0281918691061329e+00 -6.0655847084220352e+02 1.0000000000000000e+00 1.0096490362730604e+01 6.9301131550818464e+00 6.6153473348547553e+00 
62 1 2 1.0281830110843735e+00 -5.8306832867856838e+02 1.0000000000000000e+00 1.0070491969569886e+01 6.8229157189435119e+00 6.6953708522722959e+00 
55 1 2 1.0278748744551123e+00 -4.8043600030299501e+02 1.0000000000000000e+00 1.0321760536010002e+01 5.5120618919395650e+00 8.7364499520169954e+00 
26 1 2 1.0281813474250214e+00 -7.3564447274890233e+02 1.0000000000000000e+00 1.0064132247474324e+01 6.8118513595004115e+00 6.7371862965883800e+00 
73 1 2 1.0278776947908752e+00 -5.1847312492592471e+02 1.0000000000000000e+00 1.1839478761522933e+01 6.0157541078093679e+00 6.4912948697823731e+00 
2 1 2 1.0278777932526018e+00 -5.2250137815802293e+02 1.0000000000000000e+00 1.1841852033663026e+01 6.0192037022866067e+00 6.4899896709646319e+00 
1 1 2 1.0278777792351690e+00 -7.7646595329358775e+02 1.0000000000000000e+00 1.1841886243832423e+01 6.0191956192371290e+00 6.4901042628293544e+00 
37 1 2 1.0278777739185003e+00 -6.2737324073370837e+02 1.0000000000000000e+00 1.1841920166446815e+01 6.0192196732730965e+00 6.4901441345276236e+00 
38 1 2 1.0278777792727500e+00 -6.9342298545129779e+02 1.0000000000000000e+00 1.1841976491299119e+01 6.0193126107886181e+00 6.4900884160873211e+00 
7 1 2 1.0278777777203774e+00 -7.7633196853548384e+02 1.0000000000000000e+00 1.1842060127148105e+01 6.0194150717223174e+00 6.4900875038332941e+00 
43 1 2 1.0278777752550980e+00 -5.8339889950298789e+02 1.0000000000000000e+00 1.1842025151644863e+01 6.0193605837066180e+00 6.4901146564166385e+00 
79 1 2 1.0278777713773317e+00 -5.3663987019359581e+02 1.0000000000000000e+00 1.1841958310265071e+01 6.0192595602037162e+00 6.4901594357062304e+00 
8 1 2 1.0278777843732163e+00 -6.5096368995010323e+02 1.0000000000000000e+00 1.1842166656389718e+01 6.0195778124483672e+00 6.4900122960074587e+00 
44 1 2 1.0278777814539033e+00 -5.9964498034724443e+02 1.0000000000000000e+00 1.1842244694312676e+01 6.0196678633400174e+00 6.4900243408277225e+00 
49 1 2 1.0278777816883935e+00 -5.4008221645713775e+02 1.0000000000000000e+00 1.1842458403247935e+01 6.0199451324173214e+00 6.4899870899033854e+00 
50 1 2 1.0278777856552284e+00 -5.4332115925379810e+02 1.0000000000000000e+00 1.1842576667990233e+01 6.0201128617433222e+00 6.4899338059897120e+00 
85 1 2 1.0278777782446278e+00 -4.6662771187775388e+02 1.0000000000000000e+00 1.1842394565431897e+01 6.0198497033343275e+00 6.4900271546477679e+00 
86 1 2 1.0278777789964548e+00 -4.6911481667781078e+02 1.0000000000000000e+00 1.1842362575562431e+01 6.0198111470383795e+00 6.4900259465519374e+00 
13 1 2 1.0278777806835622e+00 -6.1279681415441780e+02 1.0000000000000000e+00 1.1842380890108000e+01 6.0198411434359151e+00 6.4900084221700327e+00 
19 1 2 1.0278778225959055e+00 -7.1793164289854701e+02 1.0000000000000000e+00 1.1844834195559450e+01 6.0231604382876727e+00 6.4892959453584202e+00 
14 1 2 1.0278778366000942e+00 -4.7233834063570657e+02 1.0000000000000000e+00 1.1845568970149904e+01 6.0241560543887838e+00 6.4890900775335769e+00 
51 1 2 1.0278778324306819e+00 -4.6369126208717711e+02 1.0000000000000000e+00 1.1845316838960951e+01 6.0238170223874103e+00 6.4891541973877525e+00 
92 1 2 1.0278779926269477e+00 -4.3122063517051021e+02 1.0000000000000000e+00 1.1853263369743502e+01 6.0345031806030267e+00 6.4874136270675571e+00 
33 1 2 1.0281783443665733e+00 -6.5683025561383693e+02 1.0000000000000000e+00 1.0055195278923080e+01 6.7929668325992081e+00 6.8116543746944558e+00 
56 1 2 1.0280428319597308e+00 -5.3155566093583491e+02 1.0000000000000000e+00 1.0147685463836892e+01 6.0112492565256872e+00 8.1103985544266752e+00 
20 1 2 1.0278784959683045e+00 -4.9068392608657530e+02 1.0000000000000000e+00 1.1865392866842420e+01 6.0513951872879899e+00 6.4845973496947646e+00 
63 1 2 1.0281885459084432e+00 -5.5177253157738983e+02 1.0000000000000000e+00 1.0037365003657024e+01 6.6360839860663541e+00 7.0938348337150314e+00 
57 1 2 1.0278743234721428e+00 -4.9705719905296792e+02 1.0000000000000000e+00 1.0401236806331891e+01 5.4112197270521580e+00 8.8446332293034970e+00 
69 1 2 1.0281864042258004e+00 -5.1935479679628520e+02 1.0000000000000000e+00 1.0042877076090001e+01 6.7258755917027813e+00 7.0483028275991213e+00 
21 1 2 1.0278825591555449e+00 -4.7056337540405042e+02 1.0000000000000000e+00 1.0437146407745477e+01 5.3855041049428518e+00 8.8669247859075231e+00 
27 1 2 1.0278799648210324e+00 -6.2484543928900462e+02 1.0000000000000000e+00 1.0426588572763833e+01 5.3922521441579985e+00 8.8613336065211712e+00 
64 1 2 1.0280868033086670e+00 -4.7877394261515127e+02 1.0000000000000000e+00 1.0134008895120859e+01 5.9528168930119501e+00 8.3830409829273993e+00 
140 1 2 1.0278706768414816e+00 -6.0240894170785657e+02 1.0000000000000000e+00 1.1599115205521080e+01 9.3781013844296126e+00 5.6693262198948586e+00 
40 1 2 1.0279890595175329e+00 -6.0366379453643867e+02 1.0000000000000000e+00 9.2532766702046665e+00 4.0917692599990261e+00 1.2019065712457657e+01 
41 1 2 1.0279890595175329e+00 -6.9271282010785637e+02 1.0000000000000000e+00 9.2532766702046665e+00 4.0917692599990261e+00 1.2019065712457657e+01 
46 1 2 1.0279890595175329e+00 -5.7506352735505664e+02 1.0000000000000000e+00 9.2532766702046665e+00 4.0917692599990261e+00 1.2019065712457657e+01 
47 1 2 1.0279890595175329e+00 -6.0190559823485603e+02 1.0000000000000000e+00 9.2532766702046665e+00 4.0917692599990261e+00 1.2019065712457657e+01 
82 1 2 1.0279890595175329e+00 -5.0783847478808678e+02 1.0000000000000000e+00 9.2532766702046665e+00 4.0917692599990261e+00 1.2019065712457657e+01 
83 1 2 1.0279890595175329e+00 -5.8939997362829308e+02 1.0000000000000000e+00 9.2532766702046665e+00 4.0917692599990261e+00 1.2019065712457657e+01 
76 1 2 1.0279890595175329e+00 -5.9540533367731507e+02 1.0000000000000000e+00 9.2532766702046665e+00 4.0917692599990261e+00 1.2019065712457657e+01 
11 1 2 1.0279890595175329e+00 -6.1823891166446890e+02 1.0000000000000000e+00 9.2532766702046665e+00 4.0917692599990261e+00 1.2019065712457657e+01 
4 1 2 1.0279890595175329e+00 -7.6141458385762701e+02 1.0000000000000000e+00 9.2532766702046665e+00 4.0917692599990261e+00 1.2019065712457657e+01 
5 1 2 1.0279890595175329e+00 -8.9233071514402559e+02 1.0000000000000000e+00 9.2532766702046665e+00 4.0917692599990261e+00 1.2019065712457657e+01 
75 1 2 1.0279890595175329e+00 -6.2025847474409943e+02 1.0000000000000000e+00 9.2532766702046665e+00 4.0917692599990261e+00 1.2019065712457657e+01 
34 1 2 1.0279890595175329e+00 -7.3627550637329796e+02 1.0000000000000000e+00 9.2532766702046665e+00 4.0917692599990261e+00 1.2019065712457657e+01 
12 1 2 1.0279890595175329e+00 -5.7590148350541506e+02 1.0000000000000000e+00 9.2532766702046665e+00 4.0917692599990261e+00 1.2019065712457657e+01 
48 1 2 1.0279890595175329e+00 -5.7555020010472322e+02 1.0000000000000000e+00 9.2532766702046665e+00 4.0917692599990261e+00 1.2019065712457657e+01 
6 1 2 1.0279890595175329e+00 -7.3942042934610561e+02 1.0000000000000000e+00 9.2532766702046665e+00 4.0917692599990261e+00 1.2019065712457657e+01 
10 1 2 1.0279890595175329e+00 -5.8433536408024349e+02 1.0000000000000000e+00 9.2532766702046665e+00 4.0917692599990261e+00 1.2019065712457657e+01 
78 1 2 1.0279890595175329e+00 -5.1738590036431765e+02 1.0000000000000000e+00 9.2532766702046665e+00 4.0917692599990261e+00 1.2019065712457657e+01 
70 1 2 1.0279890595175329e+00 -5.0182417580027504e+02 1.0000000000000000e+00 9.2532766702046665e+00 4.0917692599990261e+00 1.2019065712457657e+01 
42 1 2 1.0279890595175329e+00 -5.9932682389423974e+02 1.0000000000000000e+00 9.2532766702046665e+00 4.0917692599990261e+00 1.2019065712457657e+01 
84 1 2 1.0279890595175329e+00 -4.8707912194715476e+02 1.0000000000000000e+00 9.2532766702046665e+00 4.0917692599990261e+00 1.2019065712457657e+01 
106 1 2 1.0279890595175329e+00 -4.4025287947630073e+02 1.0000000000000000e+00 9.2532766702046665e+00 4.0917692599990261e+00 1.2019065712457657e+01 
45 1 2 1.0279890595175329e+00 -5.4693686146959590e+02 1.0000000000000000e+00 9.2532766702046665e+00 4.0917692599990261e+00 1.2019065712457657e+01 
39 1 2 1.0279890595175329e+00 -5.2351475592676138e+02 1.0000000000000000e+00 9.2532766702046665e+00 4.0917692599990261e+00 1.2019065712457657e+01 
3 1 2 1.0279890595175329e+00 -4.6394686585724543e+02 1.0000000000000000e+00 9.2532766702046665e+00 4.0917692599990261e+00 1.2019065712457657e+01 
9 1 2 1.0279890595175329e+00 -5.6206548308154913e+02 1.0000000000000000e+00 9.2532766702046665e+00 4.0917692599990261e+00 1.2019065712457657e+01 
52 1 2 1.0280009957494878e+00 -5.2385083863384762e+02 1.0000000000000000e+00 1.0039845466378427e+01 7.4888950821528910e+00 1.2559322938800966e+01 
53 1 2 1.0280009957494878e+00 -4.9674528461944828e+02 1.0000000000000000e+00 1.0039845466378427e+01 7.4888950821528910e+00 1.2559322938800966e+01 
89 1 2 1.0280009957494878e+00 -4.9386964357852452e+02 1.0000000000000000e+00 1.0039845466378427e+01 7.4888950821528910e+00 1.2559322938800966e+01 
17 1 2 1.0280009957494878e+00 -6.3276732473660354e+02 1.0000000000000000e+00 1.0039845466378427e+01 7.4888950821528910e+00 1.2559322938800966e+01 
23 1 2 1.0280009957494878e+00 -5.8225763427363518e+02 1.0000000000000000e+00 1.0039845466378427e+01 7.4888950821528910e+00 1.2559322938800966e+01 
16 1 2 1.0280009957494878e+00 -6.6670642786360656e+02 1.0000000000000000e+00 1.0039845466378427e+01 7.4888950821528910e+00 1.2559322938800966e+01 
24 1 2 1.0280009957494878e+00 -5.9953924090190912e+02 1.0000000000000000e+00 1.0039845466378427e+01 7.4888950821528910e+00 1.2559322938800966e+01 
54 1 2 1.0280009957494878e+00 -5.1770780123411669e+02 1.0000000000000000e+00 1.0039845466378427e+01 7.4888950821528910e+00 1.2559322938800966e+01 
95 1 2 1.0280009957494878e+00 -4.3543753175655695e+02 1.0000000000000000e+00 1.0039845466378427e+01 7.4888950821528910e+00 1.2559322938800966e+01 
60 1 2 1.0280009957494878e+00 -4.9742326726485175e+02 1.0000000000000000e+00 1.0039845466378427e+01 7.4888950821528910e+00 1.2559322938800966e+01 
18 1 2 1.0280009957494878e+00 -4.9918684950696149e+02 1.0000000000000000e+00 1.0039845466378427e+01 7.4888950821528910e+00 1.2559322938800966e+01 
59 1 2 1.0280009957494878e+00 -5.4324715339839463e+02 1.0000000000000000e+00 1.0039845466378427e+01 7.4888950821528910e+00 1.2559322938800966e+01 
96 1 2 1.0280009957494878e+00 -4.0042964103426226e+02 1.0000000000000000e+00 1.0039845466378427e+01 7.4888950821528910e+00 1.2559322938800966e+01 
29 1 2 1.0280009957494878e+00 -6.5692496189760914e+02 1.0000000000000000e+00 1.0039845466378427e+01 7.4888950821528910e+00 1.2559322938800966e+01 
58 1 2 1.0280009957494878e+00 -5.0275324796059203e+02 1.0000000000000000e+00 1.0039845466378427e+01 7.4888950821528910e+00 1.2559322938800966e+01 
28 1 2 1.0280009957494878e+00 -5.7899867601843710e+02 1.0000000000000000e+00 1.0039845466378427e+01 7.4888950821528910e+00 1.2559322938800966e+01 
65 1 2 1.0280009957494878e+00 -4.4885008149011838e+02 1.0000000000000000e+00 1.0039845466378427e+01 7.4888950821528910e+00 1.2559322938800966e+01 
22 1 2 1.0280009957494878e+00 -5.0171366553269650e+02 1.0000000000000000e+00 1.0039845466378427e+01 7.4888950821528910e+00 1.2559322938800966e+01 
77 1 2 1.0280182829437372e+00 -5.1243834573463926e+02 1.0000000000000000e+00 1.2213814497926052e+01 6.1072804760122619e+00 1.2703856659071109e+01 
162 1 2 1.0280182829437372e+00 -5.4209480610795094e+02 1.0000000000000000e+00 1.2213814497926052e+01 6.1072804760122619e+00 1.2703856659071109e+01 
126 1 2 1.0280182829437372e+00 -4.8013412838009884e+02 1.0000000000000000e+00 1.2213814497926052e+01 6.1072804760122619e+00 1.2703856659071109e+01 
120 1 2 1.0280182829437372e+00 -5.5568878358062307e+02 1.0000000000000000e+00 1.2213814497926052e+01 6.1072804760122619e+00 1.2703856659071109e+01 
90 1 2 1.0280182829437372e+00 -4.4131042070157793e+02 1.0000000000000000e+00 1.2213814497926052e+01 6.1072804760122619e+00 1.2703856659071109e+01 
156 1 2 1.0280182829437372e+00 -6.1526065290900590e+02 1.0000000000000000e+00 1.2213814497926052e+01 6.1072804760122619e+00 1.2703856659071109e+01 
168 1 2 1.0280182829437372e+00 -6.4482104829683999e+02 1.0000000000000000e+00 1.2213814497926052e+01 6.1072804760122619e+00 1.2703856659071109e+01 
132 1 2 1.0280182829437372e+00 -5.1442828574682562e+02 1.0000000000000000e+00 1.2213814497926052e+01 6.1072804760122619e+00 1.2703856659071109e+01 
167 1 2 1.0280182829437372e+00 -5.0482914029032304e+02 1.0000000000000000e+00 1.2213814497926052e+01 6.1072804760122619e+00 1.2703856659071109e+01 
131 1 2 1.0280182829437372e+00 -4.6383174739843059e+02 1.0000000000000000e+00 1.2213814497926052e+01 6.1072804760122619e+00 1.2703856659071109e+01 
161 1 2 1.0280182829437372e+00 -5.3671622200308514e+02 1.0000000000000000e+00 1.2213814497926052e+01 6.1072804760122619e+00 1.2703856659071109e+01 
125 1 2 1.0280182829437372e+00 -5.0148263495995320e+02 1.0000000000000000e+00 1.2213814497926052e+01 6.1072804760122619e+00 1.2703856659071109e+01 
155 1 2 1.0280182829437372e+00 -6.1646604076351525e+02 1.0000000000000000e+00 1.2213814497926052e+01 6.1072804760122619e+00 1.2703856659071109e+01 
148 1 2 1.0280182829437372e+00 -6.8272603309922079e+02 1.0000000000000000e+00 1.2213814497926052e+01 6.1072804760122619e+00 1.2703856659071109e+01 
112 1 2 1.0280182829437372e+00 -5.6018484759603746e+02 1.0000000000000000e+00 1.2213814497926052e+01 6.1072804760122619e+00 1.2703856659071109e+01 
119 1 2 1.0280182829437372e+00 -5.9914321140929303e+02 1.0000000000000000e+00 1.2213814497926052e+01 6.1072804760122619e+00 1.2703856659071109e+01 
114 1 2 1.0280182829437372e+00 -6.0019368893690034e+02 1.0000000000000000e+00 1.2213814497926052e+01 6.1072804760122619e+00 1.2703856659071109e+01 
149 1 2 1.0280182829437372e+00 -7.8490342507988248e+02 1.0000000000000000e+00 1.2213814497926052e+01 6.1072804760122619e+00 1.2703856659071109e+01 
113 1 2 1.0280182829437372e+00 -5.7349804727038997e+02 1.0000000000000000e+00 1.2213814497926052e+01 6.1072804760122619e+00 1.2703856659071109e+01 
150 1 2 1.0280182829437372e+00 -6.3673641021541380e+02 1.0000000000000000e+00 1.2213814497926052e+01 6.1072804760122619e+00 1.2703856659071109e+01 
134 1 2 1.0281087865829182e+00 -6.5334824966107283e+02 1.0000000000000000e+00 1.1528936727585643e+01 1.0500016091461687e+01 4.8253559182202626e+00 
164 1 2 1.0280206689332461e+00 -7.8242813059363232e+02 1.0000000000000000e+00 1.1711008892191790e+01 1.2311568074207162e+01 4.2929734474172427e+00 
170 1 2 1.0280237728729238e+00 -7.0445300169538905e+02 1.0000000000000000e+00 1.1638514306517999e+01 1.2288021674280392e+01 4.3705633909865798e+00 
163 1 2 1.0282306537025099e+00 -7.6199836975753010e+02 1.0000000000000000e+00 1.1573225331220053e+01 1.0139138659854105e+01 5.0280894105662179e+00 
178 1 2 1.0280550865160101e+00 -6.9346290468534153e+02 1.0000000000000000e+00 1.1520577179808472e+01 1.2488175533454919e+01 5.5997315460698927e+00 
128 1 2 1.0280191205974658e+00 -5.6146365676435630e+02 1.0000000000000000e+00 1.2120641462137828e+01 1.3157117489612657e+01 5.2450843246837353e+00 
137 1 2 1.0280562659787891e+00 -4.9504342301774426e+02 1.0000000000000000e+00 1.1510079214081692e+01 1.2456231821264581e+01 5.6196708143095826e+00 
166 1 2 1.0280558658860111e+00 -5.3624178915922141e+02 1.0000000000000000e+00 1.1515395798694215e+01 1.2467222532401694e+01 5.6170007628034027e+00 
173 1 2 1.0280559473516240e+00 -5.5532892388206619e+02 1.0000000000000000e+00 1.1512763450715203e+01 1.2465062229950034e+01 5.6139089647816132e+00 
172 1 2 1.0280555051093594e+00 -6.4127644183147083e+02 1.0000000000000000e+00 1.1517565902308075e+01 1.2477065088839357e+01 5.6084439877054981e+00 
99 1 2 1.0280548783288557e+00 -5.0712171755595881e+02 1.0000000000000000e+00 1.1502286091831458e+01 1.2489420723063112e+01 5.5515698487614946e+00 
100 1 2 1.0280969627493188e+00 -4.4058876619414161e+02 1.0000000000000000e+00 1.1215044705987292e+01 1.1387572769963455e+01 5.5368065930512396e+00 
105 1 2 1.0281107361159054e+00 -5.0437619585854765e+02 1.0000000000000000e+00 1.1207448433107174e+01 1.1145822623475082e+01 5.4566757651503375e+00 
179 1 2 1.0280557428541954e+00 -7.2440440758022612e+02 1.0000000000000000e+00 1.1513898147439974e+01 1.2470652914043519e+01 5.6088475222250471e+00 
176 1 2 1.0280370618538137e+00 -7.5380067510113463e+02 1.0000000000000000e+00 1.1767912248116522e+01 1.2911165415830940e+01 5.2500080008312269e+00 
141 1 2 1.0280533686584234e+00 -6.4676345534113113e+02 1.0000000000000000e+00 1.1536266798192097e+01 1.2531303636484362e+01 5.5721862513724520e+00 
135 1 2 1.0280540017837485e+00 -5.9434544076479369e+02 1.0000000000000000e+00 1.1534895941448804e+01 1.2516181833064699e+01 5.5923366704664987e+00 
93 1 2 1.0280548620803016e+00 -3.8727557244247129e+02 1.0000000000000000e+00 1.1544593767384855e+01 1.2490790922360517e+01 5.6490193649723848e+00 
129 1 2 1.0280545159345567e+00 -3.9496417671160549e+02 1.0000000000000000e+00 1.1557874146635529e+01 1.2495866663321760e+01 5.6691557326457405e+00 
165 1 2 1.0280549548041653e+00 -6.2729567580157175e+02 1.0000000000000000e+00 1.1530758845533009e+01 1.2491314541692853e+01 5.6186744129070485e+00 
136 1 2 1.0280552411989763e+00 -6.3144148952788657e+02 1.0000000000000000e+00 1.1519815264815316e+01 1.2484110627437190e+01 5.6037575088456020e+00 
177 1 2 1.0280541698871639e+00 -6.9484762240801354e+02 1.0000000000000000e+00 1.1530289024170873e+01 1.2511775884108216e+01 5.5880032615617985e+00 
171 1 2 1.0280550705660558e+00 -6.8288840665048656e+02 1.0000000000000000e+00 1.1522110823277075e+01 1.2488626216642427e+01 5.6026884341809851e+00 
94 1 2 1.0280561539846875e+00 -3.8087772766835604e+02 1.0000000000000000e+00 1.1517292292975400e+01 1.2458731089451046e+01 5.6325129030006567e+00 
130 1 2 1.0280556305656439e+00 -4.9429660291935272e+02 1.0000000000000000e+00 1.1521122641199588e+01 1.2473398164753272e+01 5.6215879125685566e+00 
142 1 2 1.0280551987758852e+00 -6.5361046117982949e+02 1.0000000000000000e+00 1.1519618630923736e+01 1.2485222340279229e+01 5.6017114929513792e+00 
66 1 2 4.0602971142307548e-01 -4.6781111556287465e+02 1.0000000000000000e+00 1.1266099258819681e+01 1.5950411179424371e+01 1.5870808883549957e+01 
30 1 2 4.0602971142307548e-01 -6.2735264242819517e+02 1.0000000000000000e+00 1.1266099258819674e+01 1.5950411179424373e+01 1.5870808883550188e+01 
107 1 2 4.0602971142307548e-01 -4.3682283101450219e+02 1.0000000000000000e+00 1.1266099258819692e+01 1.5950411179424355e+01 1.5870808883550174e+01 
102 1 2 4.0602971142307548e-01 -4.5967405073452858e+02 1.0000000000000000e+00 1.1266099258819674e+01 1.5950411179424382e+01 1.5870808883550131e+01 
180 1 2 4.0602971142307548e-01 -5.8264740635326427e+02 1.0000000000000000e+00 1.1266099258819674e+01 1.5950411179424220e+01 1.5870808883550174e+01 
174 1 2 4.0602971142307548e-01 -6.5998397796283189e+02 1.0000000000000000e+00 1.1266099258819674e+01 1.5950411179424391e+01 1.5870808883550174e+01 
143 1 2 4.0602971142307548e-01 -4.9126749723726641e+02 1.0000000000000000e+00 1.1266099258819674e+01 1.5950411179424369e+01 1.5870808883550174e+01 
35 1 2 4.0602971142307548e-01 -7.2120918036525836e+02 1.0000000000000000e+00 1.1266099258819656e+01 1.5950411179424355e+01 1.5870808883550174e+01 
72 1 2 4.0602971142307548e-01 -5.1968105117511777e+02 1.0000000000000000e+00 1.1266099258819667e+01 1.5950411179424355e+01 1.5870808883550174e+01 
138 1 2 4.0602971142307548e-01 -5.0837096131930269e+02 1.0000000000000000e+00 1.1266099258819674e+01 1.5950411179424375e+01 1.5870808883550167e+01 
144 1 2 4.0602971142307548e-01 -4.5836472295201918e+02 1.0000000000000000e+00 1.1266099258819674e+01 1.5950411179424355e+01 1.5870808883550174e+01 
71 1 2 4.0602971142307548e-01 -4.8806406524358033e+02 1.0000000000000000e+00 1.1266099258819697e+01 1.5950411179424355e+01 1.5870808883550174e+01 
101 1 2 4.0602971142307548e-01 -4.4170309960356622e+02 1.0000000000000000e+00 1.1266099258819674e+01 1.5950411179424384e+01 1.5870808883550174e+01 
108 1 2 4.0602971142307548e-01 -4.7208183268825962e+02 1.0000000000000000e+00 1.1266099258819674e+01 1.5950411179424378e+01 1.5870808883550174e+01 
36 1 2 4.0602971142307548e-01 -6.0316024099349829e+02 1.0000000000000000e+00 1.1266099258819683e+01 1.5950411179424355e+01 1.5870808883550175e+01 
74 1 2 1.0279869136472461e+00 -6.1468572093938508e+02 1.0000000000000000e+00 1.4205928109993962e+01 1.1701836828199617e+01 4.0991436706436861e+00 
121 1 2 1.0279860649439954e+00 -5.2085172605453238e+02 1.0000000000000000e+00 1.4214523990648349e+01 1.1721595643087566e+01 4.1037515178736870e+00 
115 1 2 1.0279856787793658e+00 -6.3830415751217242e+02 1.0000000000000000e+00 1.4224199878087710e+01 1.1729222197047317e+01 4.1129573243235651e+00 
157 1 2 1.0279852692785663e+00 -6.6663820460302838e+02 1.0000000000000000e+00 1.4227007801718020e+01 1.1738891773056553e+01 4.1139412162507636e+00 
151 1 2 1.0279842273030591e+00 -8.6095708994738834e+02 1.0000000000000000e+00 1.4251878845846520e+01 1.1759521978025898e+01 4.1390519125042671e+00 
109 1 2 1.0279842916731241e+00 -6.5724635468183010e+02 1.0000000000000000e+00 1.4254021270827135e+01 1.1757204591552773e+01 4.1421891266918420e+00 
80 1 2 1.0279844155108524e+00 -5.0592758168787628e+02 1.0000000000000000e+00 1.4257184448566782e+01 1.1752968732190103e+01 4.1470491681846253e+00 
145 1 2 1.0279833935789271e+00 -7.0772105381480640e+02 1.0000000000000000e+00 1.4271302040884578e+01 1.1774278178930215e+01 4.1604225663087693e+00 
110 1 2 1.0279831064847271e+00 -6.3247875824138214e+02 1.0000000000000000e+00 1.4277871550874579e+01 1.1778738747396027e+01 4.1680675543242645e+00 
116 1 2 1.0279826292753813e+00 -6.4576381180439353e+02 1.0000000000000000e+00 1.4285642496197806e+01 1.1787607085622181e+01 4.1766303666988174e+00 
122 1 2 1.0279825124955775e+00 -4.7773814343553607e+02 1.0000000000000000e+00 1.4288023356140627e+01 1.1789383642894702e+01 4.1794865023975181e+00 
152 1 2 1.0279814951633315e+00 -6.9767277236220116e+02 1.0000000000000000e+00 1.4303998196683338e+01 1.1807913121155527e+01 4.1981079273952107e+00 
146 1 2 1.0279790497684609e+00 -6.6539523197852236e+02 1.0000000000000000e+00 1.4346053801713223e+01 1.1848890502157275e+01 4.2547914339793538e+00 
158 1 2 1.0279773432814046e+00 -8.0760364590975848e+02 1.0000000000000000e+00 1.4375343268207773e+01 1.1883280508366232e+01 4.3002104013645477e+00 
147 1 2 1.0279722699032079e+00 -6.1359456145693093e+02 1.0000000000000000e+00 1.4504375008281299e+01 1.2064907589352183e+01 4.6744540745981640e+00 
117 1 2 1.0279733587596900e+00 -5.9851474350850128e+02 1.0000000000000000e+00 1.4514265153045388e+01 1.2120701201728385e+01 4.8246197180980159e+00 
153 1 2 1.0279736428711019e+00 -6.5107499206037130e+02 1.0000000000000000e+00 1.4514507627356782e+01 1.2121676522809890e+01 4.8332201892857078e+00 
81 1 2 1.0279737646342937e+00 -4.6819337336833826e+02 1.0000000000000000e+00 1.4513387059271816e+01 1.2130963379153632e+01 4.8404515360288745e+00 
111 1 2 1.0279740729534785e+00 -6.1746444715388566e+02 1.0000000000000000e+00 1.4514822298958794e+01 1.2122451241332479e+01 4.8450376759760081e+00 
159 1 2 1.0279759444741274e+00 -7.1747589625573914e+02 1.0000000000000000e+00 1.4512056260580936e+01 1.2143389886979129e+01 4.8988559391859035e+00 
123 1 2 1.0279766749744741e+00 -4.3246329292515668e+02 1.0000000000000000e+00 1.4504122386606785e+01 1.2178236200581386e+01 4.9501034493826825e+00 
87 1 2 1.0279765801838745e+00 -3.6895726875113326e+02 1.0000000000000000e+00 1.4499071525599998e+01 1.2194631516451157e+01 4.9773214442210971e+00 
88 1 2 1.0279770235959764e+00 -3.7368918700765016e+02 1.0000000000000000e+00 1.4487187787864583e+01 1.2216120379599746e+01 5.0463014902675356e+00 
124 1 2 1.0279780322601020e+00 -4.9460078262977436e+02 1.0000000000000000e+00 1.4494702920813745e+01 1.2181383841604699e+01 5.0443101332908178e+00 
160 1 2 1.0279796612846579e+00 -6.8757952837081518e+02 1.0000000000000000e+00 1.4487325576673161e+01 1.2175118504503478e+01 5.0997776258959755e+00 
118 1 2 1.0279799626737984e+00 -5.2895488629686258e+02 1.0000000000000000e+00 1.4489569433673470e+01 1.2163521309565033e+01 5.0992598380684742e+00 
154 1 2 1.0279798295807876e+00 -5.6899316156720113e+02 1.0000000000000000e+00 1.4491288758740531e+01 1.2160873564697862e+01 5.0921078356811655e+00 

Velocities

91 1.3810461015724860e-03 -2.7888800165149380e-06 -2.7961980864796760e-03
133 1.1786508204009261e-03 -1.4155937542415133e-04 2.1061749606345382e-03
139 6.0744060348144569e-03 -9.3599042760776456e-04 4.0561271226281819e-04
175 6.4889287333205706e-03 -1.2307200794549251e-03 4.0184742409255631e-04
98 7.2037554175597342e-03 -2.9234998680995002e-03 5.4413944173922844e-03
127 1.7224622075730153e-03 -2.0275771677176965e-03 -1.2988917463589440e-02
97 4.6459605420607193e-04 1.2828583907425914e-04 -2.0922655948641504e-03
103 4.4132726707301538e-04 2.5172723364137392e-04 -2.0796151368692277e-03
104 3.8353021747377898e-04 2.5800000196945740e-04 -1.9836687900635871e-03
169 8.8435839031794621e-03 -1.5667266356479779e-02 5.8471051342075548e-03
61 3.1609564734671921e-04 -1.0432749010013886e-04 -1.7598995257118064e-03
31 3.2035421402321627e-04 -1.1143111021340423e-05 -1.7954445274084214e-03
67 3.1748349356970114e-04 -4.1717211298073236e-05 -1.7808331861860472e-03
25 3.0316769188839490e-04 -1.1504569162228378e-04 -1.7257732870749013e-03
68 2.3138519070760210e-04 -2.6324924439811873e-04 -1.4641192106716488e-03
15 3.4169681031069243e-03 -5.5154521727027263e-05 9.2472229775620045e-04
32 2.1435545412111170e-04 -2.0978989039276055e-04 -1.4296496846974034e-03
62 2.2561624208313933e-04 -6.0966275888391325e-04 -1.2030717469854050e-03
55 3.3575700631063984e-03 -2.6052049191928453e-04 8.5759669281699374e-04
26 2.0630687072205496e-04 -6.3679669968606909e-04 -1.0782493697859591e-03
73 1.8480352708366643e-03 8.5884183132277912e-04 1.1354428890989114e-03
2 1.8247708317648871e-03 8.2892005596059122e-04 1.1395931728981393e-03
1 1.8242027265006316e-03 8.2888888880173497e-04 1.1386279579791419e-03
37 1.8237684299456454e-03 8.2863508198641926e-04 1.1382373387725179e-03
38 1.8232606439483642e-03 8.2784537460325891e-04 1.1385251688446570e-03
7 1.8223636129475697e-03 8.2691954510156920e-04 1.1383240083401240e-03
43 1.8226918789608741e-03 8.2738761506031026e-04 1.1382025140620417e-03
79 1.8233317637869019e-03 8.2826044935456911e-04 1.1380249152622552e-03
8 1.8213508897634101e-03 8.2551608864097714e-04 1.1386363942005779e-03
44 1.8204916654993052e-03 8.2469054225573651e-04 1.1383494303097285e-03
49 1.8182624874300780e-03 8.2221622135206067e-04 1.1381026102651095e-03
50 1.8170867852447870e-03 8.2074746491813007e-04 1.1382166315673610e-03
85 1.8188775334323898e-03 8.2304299197088484e-04 1.1379541480409760e-03
86 1.8192230837848773e-03 8.2339289825816321e-04 1.1380432127450510e-03
13 1.8190571614757865e-03 8.2313751478530612e-04 1.1381321386184637e-03
19 1.7940810863654689e-03 7.9377363072330822e-04 1.1374364571449084e-03
14 1.7866331235037549e-03 7.8496654738116384e-04 1.1371508865465859e-03
51 1.7891978635811382e-03 7.8797048276499533e-04 1.1372998993103801e-03
92 1.7092252034280901e-03 6.9343936530127232e-04 1.1299466574559468e-03
33 1.7965850634438544e-04 -6.8119333961857162e-04 -8.6074648390094515e-04
56 1.6624085147543482e-04 -2.2565136551351678e-03 1.9324259272856709e-04
20 1.5932864962901173e-03 5.4610073557404719e-04 1.1178447120640063e-03
63 4.2141272969067152e-04 -1.1394435039106554e-03 -1.7310682903795080e-04