LAMMPS data file via write_data, version 30 Jul 2016, timestep = 50000000

180 atoms
2 atom types

0.0000000000000000e+00 2.0000000000000000e+01 xlo xhi
0.0000000000000000e+00 2.0000000000000000e+01 ylo yhi
0.0000000000000000e+00 2.0000000000000000e+01 zlo zhi

Masses

1 3.896
2 4.31

Atoms # meso-molecular

91 1 2 1.0282247802912299e+00 -4.8009157413750881e+02 1.0000000000000000e+00 1.0291500085717516e+01 7.0651715046145895e+00 6.0769152784505662e+00 
133 1 2 1.0280570947038927e+00 -5.5235459108334328e+02 1.0000000000000000e+00 1.1806228383015311e+01 8.9543344225106036e+00 5.8457945903712405e+00 
139 1 2 1.0282505670710071e+00 -5.1843922379378489e+02 1.0000000000000000e+00 1.1692897975865728e+01 8.9011878267211451e+00 6.0457430790286439e+00 
175 1 2 1.0281370946125965e+00 -5.5796259097892789e+02 1.0000000000000000e+00 1.1700624610641640e+01 8.9060644413108161e+00 6.0479744954497443e+00 
98 1 2 1.0285865065368858e+00 -5.9295851404943141e+02 1.0000000000000000e+00 1.1697814635529756e+01 8.9637903050237888e+00 6.0137109877981532e+00 
127 1 2 1.0300799781583339e+00 -6.0765269797585916e+02 1.0000000000000000e+00 1.1717671828072339e+01 9.0911999314935432e+00 5.7962243098297979e+00 
97 1 2 1.0282877701162954e+00 -4.6540123011235858e+02 1.0000000000000000e+00 1.0127603372448426e+01 7.0301060207042481e+00 6.3897011024075558e+00 
103 1 2 1.0282881754885709e+00 -5.4088837017577384e+02 1.0000000000000000e+00 1.0132152622817388e+01 7.0608746387844885e+00 6.3940481897092889e+00 
104 1 2 1.0282920857941920e+00 -5.5581651467038830e+02 1.0000000000000000e+00 1.0120889778362260e+01 7.0584173701374198e+00 6.4289478665918161e+00 
169 1 2 1.0263181669628967e+00 -6.4413267574735733e+02 1.0000000000000000e+00 1.1530588250992892e+01 9.0881562400045901e+00 5.8466833937238478e+00 
61 1 2 1.0282989159294871e+00 -5.0684043107547024e+02 1.0000000000000000e+00 1.0081434015273004e+01 6.9583529234986274e+00 6.5089768520142597e+00 
31 1 2 1.0282981172144963e+00 -5.9732718465110111e+02 1.0000000000000000e+00 1.0088600695365759e+01 6.9834195788497624e+00 6.4962328406089016e+00 
67 1 2 1.0282984753115345e+00 -5.2564016660791401e+02 1.0000000000000000e+00 1.0085937477520645e+01 6.9751171426707135e+00 6.5014331882775798e+00 
25 1 2 1.0282997774773246e+00 -5.8768307420962344e+02 1.0000000000000000e+00 1.0078074582776747e+01 6.9545949528025792e+00 6.5207150639849392e+00 
68 1 2 1.0283051326920316e+00 -5.8759273039853645e+02 1.0000000000000000e+00 1.0053549462484941e+01 6.9100734807113415e+00 6.6095354891402032e+00 
15 1 2 1.0281131355777335e+00 -4.9502953030155390e+02 1.0000000000000000e+00 1.0330986512632963e+01 5.4935511290842314e+00 8.7276872973344410e+00 
32 1 2 1.0283059346212360e+00 -6.0655829140594710e+02 1.0000000000000000e+00 1.0053554882773110e+01 6.9229945758136395e+00 6.6205064523381170e+00 
62 1 2 1.0283084417650794e+00 -5.8306814869604102e+02 1.0000000000000000e+00 1.0028716393605297e+01 6.8133910861010829e+00 6.7002770877158095e+00 
55 1 2 1.0281370976790549e+00 -4.8043585813726611e+02 1.0000000000000000e+00 1.0307769151649982e+01 5.5159602573391382e+00 8.7133036796423777e+00 
26 1 2 1.0283105852252998e+00 -7.3564429044401277e+02 1.0000000000000000e+00 1.0022700759099161e+01 6.8032031341269796e+00 6.7429520248640316e+00 
73 1 2 1.0276791693998395e+00 -5.1847287590898202e+02 1.0000000000000000e+00 1.1779895679531920e+01 6.0382179660676387e+00 6.4956489300345490e+00 
2 1 2 1.0276790387906389e+00 -5.2250112924650170e+02 1.0000000000000000e+00 1.1782582286706027e+01 6.0421195056648660e+00 6.4943534876370999e+00 
1 1 2 1.0276790313867077e+00 -7.7646570437435798e+02 1.0000000000000000e+00 1.1782623816800649e+01 6.0421150956406224e+00 6.4944817638320034e+00 
37 1 2 1.0276790271587277e+00 -6.2737299181191179e+02 1.0000000000000000e+00 1.1782663445381118e+01 6.0421443892921154e+00 6.4945277202922869e+00 
38 1 2 1.0276790252753496e+00 -6.9342273653380630e+02 1.0000000000000000e+00 1.1782726678753638e+01 6.0422486633919448e+00 6.4944697333907682e+00 
7 1 2 1.0276790190507570e+00 -7.7633171961864457e+02 1.0000000000000000e+00 1.1782822292287408e+01 6.0423661935298609e+00 6.4944737578329867e+00 
43 1 2 1.0276790205257442e+00 -5.8339865058398925e+02 1.0000000000000000e+00 1.1782782871368612e+01 6.0423048245845949e+00 6.4945015626735829e+00 
79 1 2 1.0276790236517537e+00 -5.3663962127091338e+02 1.0000000000000000e+00 1.1782707383476083e+01 6.0421908072525392e+00 6.4945468671396753e+00 
8 1 2 1.0276790142619496e+00 -6.5096344103927288e+02 1.0000000000000000e+00 1.1782942515541039e+01 6.0425497350813426e+00 6.4943973252127352e+00 
44 1 2 1.0276790079483149e+00 -5.9964473143610360e+02 1.0000000000000000e+00 1.1783031993810910e+01 6.0426535753504078e+00 6.4944152891756577e+00 
49 1 2 1.0276789936911319e+00 -5.4008196755012591e+02 1.0000000000000000e+00 1.1783275536314163e+01 6.0429701382996432e+00 6.4943871268464539e+00 
50 1 2 1.0276789872222962e+00 -5.4332091035138114e+02 1.0000000000000000e+00 1.1783409609219264e+01 6.0431603230527067e+00 6.4943355618649949e+00 
85 1 2 1.0276789967226891e+00 -4.6662746296747997e+02 1.0000000000000000e+00 1.1783203398589805e+01 6.0428623445830398e+00 6.4944274125554111e+00 
86 1 2 1.0276789991393234e+00 -4.6911456776738157e+02 1.0000000000000000e+00 1.1783166800757243e+01 6.0428180526416249e+00 6.4944241552290718e+00 
13 1 2 1.0276789985204002e+00 -6.1279656524536938e+02 1.0000000000000000e+00 1.1783187370362384e+01 6.0428517264872683e+00 6.4944059551244484e+00 
19 1 2 1.0276788544732280e+00 -7.1793139405933732e+02 1.0000000000000000e+00 1.1785974567373710e+01 6.0466284874582579e+00 6.4937697078409222e+00 
14 1 2 1.0276788139094655e+00 -4.7233809181777883e+02 1.0000000000000000e+00 1.1786808463065075e+01 6.0477609708293851e+00 6.4935877436806120e+00 
51 1 2 1.0276788279499185e+00 -4.6369101326239308e+02 1.0000000000000000e+00 1.1786522240080052e+01 6.0473751184257072e+00 6.4936429850839232e+00 
92 1 2 1.0276784484307593e+00 -4.3122038656334769e+02 1.0000000000000000e+00 1.1795517036051416e+01 6.0595249332100840e+00 6.4922179605939982e+00 
33 1 2 1.0283146614916157e+00 -6.5683006933941681e+02 1.0000000000000000e+00 1.0014516531059767e+01 6.7859459942176352e+00 6.8185065842960304e+00 
56 1 2 1.0283023954660173e+00 -5.3155549491839633e+02 1.0000000000000000e+00 1.0127394358210424e+01 5.9972194586293046e+00 8.0937205748684971e+00 
20 1 2 1.0276781591136193e+00 -4.9068367790481966e+02 1.0000000000000000e+00 1.1809108777829268e+01 6.0786184466959483e+00 6.4898950889877103e+00 
63 1 2 1.0283362533735871e+00 -5.5177233955970610e+02 1.0000000000000000e+00 1.0000030361474547e+01 6.6310213720396627e+00 7.0981849190437609e+00 
57 1 2 1.0279438476318676e+00 -4.9705705989528400e+02 1.0000000000000000e+00 1.0385453637785561e+01 5.4164180915694580e+00 8.8198502495128928e+00 
69 1 2 1.0283377683877755e+00 -5.1935460039589600e+02 1.0000000000000000e+00 1.0005010454647460e+01 6.7235435075937371e+00 7.0552457496925669e+00 
21 1 2 1.0279263531354079e+00 -4.7056323535766779e+02 1.0000000000000000e+00 1.0420822459915776e+01 5.3908399432762275e+00 8.8419710832925258e+00 
27 1 2 1.0279311665226520e+00 -6.2484529955005848e+02 1.0000000000000000e+00 1.0410423880754232e+01 5.3975717276723838e+00 8.8364168969816124e+00 
64 1 2 1.0283463162953370e+00 -4.7877379238873891e+02 1.0000000000000000e+00 1.0116174105407683e+01 5.9412934350056821e+00 8.3671223530878578e+00 
140 1 2 1.0281127101346839e+00 -6.0240931519476851e+02 1.0000000000000000e+00 1.1564947443934710e+01 9.5184661771049015e+00 5.4999150408313939e+00 
40 1 2 1.0279863394649325e+00 -6.0366379791085717e+02 1.0000000000000000e+00 9.2833718460885386e+00 4.0840571356366722e+00 1.2027904634988799e+01 
41 1 2 1.0279863394649325e+00 -6.9271282348227487e+02 1.0000000000000000e+00 9.2833718460885386e+00 4.0840571356366722e+00 1.2027904634988799e+01 
46 1 2 1.0279863394649325e+00 -5.7506353072947513e+02 1.0000000000000000e+00 9.2833718460885386e+00 4.0840571356366722e+00 1.2027904634988799e+01 
47 1 2 1.0279863394649325e+00 -6.0190560160927453e+02 1.0000000000000000e+00 9.2833718460885386e+00 4.0840571356366722e+00 1.2027904634988799e+01 
82 1 2 1.0279863394649325e+00 -5.0783847816241752e+02 1.0000000000000000e+00 9.2833718460885386e+00 4.0840571356366722e+00 1.2027904634988799e+01 
83 1 2 1.0279863394649325e+00 -5.8939997700271158e+02 1.0000000000000000e+00 9.2833718460885386e+00 4.0840571356366722e+00 1.2027904634988799e+01 
76 1 2 1.0279863394649325e+00 -5.9540533705173357e+02 1.0000000000000000e+00 9.2833718460885386e+00 4.0840571356366722e+00 1.2027904634988799e+01 
11 1 2 1.0279863394649325e+00 -6.1823891503888740e+02 1.0000000000000000e+00 9.2833718460885386e+00 4.0840571356366722e+00 1.2027904634988799e+01 
4 1 2 1.0279863394649325e+00 -7.6141458723204551e+02 1.0000000000000000e+00 9.2833718460885386e+00 4.0840571356366722e+00 1.2027904634988799e+01 
5 1 2 1.0279863394649325e+00 -8.9233071851844409e+02 1.0000000000000000e+00 9.2833718460885386e+00 4.0840571356366722e+00 1.2027904634988799e+01 
75 1 2 1.0279863394649325e+00 -6.2025847811851793e+02 1.0000000000000000e+00 9.2833718460885386e+00 4.0840571356366722e+00 1.2027904634988799e+01 
34 1 2 1.0279863394649325e+00 -7.3627550974771646e+02 1.0000000000000000e+00 9.2833718460885386e+00 4.0840571356366722e+00 1.2027904634988799e+01 
12 1 2 1.0279863394649325e+00 -5.7590148687983356e+02 1.0000000000000000e+00 9.2833718460885386e+00 4.0840571356366722e+00 1.2027904634988799e+01 
48 1 2 1.0279863394649325e+00 -5.7555020347914171e+02 1.0000000000000000e+00 9.2833718460885386e+00 4.0840571356366722e+00 1.2027904634988799e+01 
6 1 2 1.0279863394649325e+00 -7.3942043272052410e+02 1.0000000000000000e+00 9.2833718460885386e+00 4.0840571356366722e+00 1.2027904634988799e+01 
10 1 2 1.0279863394649325e+00 -5.8433536745466199e+02 1.0000000000000000e+00 9.2833718460885386e+00 4.0840571356366722e+00 1.2027904634988799e+01 
78 1 2 1.0279863394649325e+00 -5.1738590373873615e+02 1.0000000000000000e+00 9.2833718460885386e+00 4.0840571356366722e+00 1.2027904634988799e+01 
70 1 2 1.0279863394649325e+00 -5.0182417917460577e+02 1.0000000000000000e+00 9.2833718460885386e+00 4.0840571356366722e+00 1.2027904634988799e+01 
42 1 2 1.0279863394649325e+00 -5.9932682726865823e+02 1.0000000000000000e+00 9.2833718460885386e+00 4.0840571356366722e+00 1.2027904634988799e+01 
84 1 2 1.0279863394649325e+00 -4.8707912532148549e+02 1.0000000000000000e+00 9.2833718460885386e+00 4.0840571356366722e+00 1.2027904634988799e+01 
106 1 2 1.0279863394649325e+00 -4.4025288285063147e+02 1.0000000000000000e+00 9.2833718460885386e+00 4.0840571356366722e+00 1.2027904634988799e+01 
45 1 2 1.0279863394649325e+00 -5.4693686484401439e+02 1.0000000000000000e+00 9.2833718460885386e+00 4.0840571356366722e+00 1.2027904634988799e+01 
39 1 2 1.0279863394649325e+00 -5.2351475930117988e+02 1.0000000000000000e+00 9.2833718460885386e+00 4.0840571356366722e+00 1.2027904634988799e+01 
3 1 2 1.0279863394649325e+00 -4.6394686923157616e+02 1.0000000000000000e+00 9.2833718460885386e+00 4.0840571356366722e+00 1.2027904634988799e+01 
9 1 2 1.0279863394649325e+00 -5.6206548645596763e+02 1.0000000000000000e+00 9.2833718460885386e+00 4.0840571356366722e+00 1.2027904634988799e+01 
52 1 2 1.0279803329723758e+00 -5.2385083941325217e+02 1.0000000000000000e+00 1.0069761621376990e+01 7.4837878639067741e+00 1.2552505160010345e+01 
53 1 2 1.0279803329723758e+00 -4.9674528539880760e+02 1.0000000000000000e+00 1.0069761621376990e+01 7.4837878639067741e+00 1.2552505160010345e+01 
89 1 2 1.0279803329723758e+00 -4.9386964435788383e+02 1.0000000000000000e+00 1.0069761621376990e+01 7.4837878639067741e+00 1.2552505160010345e+01 
17 1 2 1.0279803329723758e+00 -6.3276732551600810e+02 1.0000000000000000e+00 1.0069761621376990e+01 7.4837878639067741e+00 1.2552505160010345e+01 
23 1 2 1.0279803329723758e+00 -5.8225763505303973e+02 1.0000000000000000e+00 1.0069761621376990e+01 7.4837878639067741e+00 1.2552505160010345e+01 
16 1 2 1.0279803329723758e+00 -6.6670642864301112e+02 1.0000000000000000e+00 1.0069761621376990e+01 7.4837878639067741e+00 1.2552505160010345e+01 
24 1 2 1.0279803329723758e+00 -5.9953924168131368e+02 1.0000000000000000e+00 1.0069761621376990e+01 7.4837878639067741e+00 1.2552505160010345e+01 
54 1 2 1.0279803329723758e+00 -5.1770780201352125e+02 1.0000000000000000e+00 1.0069761621376990e+01 7.4837878639067741e+00 1.2552505160010345e+01 
95 1 2 1.0279803329723758e+00 -4.3543753253591626e+02 1.0000000000000000e+00 1.0069761621376990e+01 7.4837878639067741e+00 1.2552505160010345e+01 
60 1 2 1.0279803329723758e+00 -4.9742326804421106e+02 1.0000000000000000e+00 1.0069761621376990e+01 7.4837878639067741e+00 1.2552505160010345e+01 
18 1 2 1.0279803329723758e+00 -4.9918685028632081e+02 1.0000000000000000e+00 1.0069761621376990e+01 7.4837878639067741e+00 1.2552505160010345e+01 
59 1 2 1.0279803329723758e+00 -5.4324715417779919e+02 1.0000000000000000e+00 1.0069761621376990e+01 7.4837878639067741e+00 1.2552505160010345e+01 
96 1 2 1.0279803329723758e+00 -4.0042964181362157e+02 1.0000000000000000e+00 1.0069761621376990e+01 7.4837878639067741e+00 1.2552505160010345e+01 
29 1 2 1.0279803329723758e+00 -6.5692496267701370e+02 1.0000000000000000e+00 1.0069761621376990e+01 7.4837878639067741e+00 1.2552505160010345e+01 
58 1 2 1.0279803329723758e+00 -5.0275324873995135e+02 1.0000000000000000e+00 1.0069761621376990e+01 7.4837878639067741e+00 1.2552505160010345e+01 
28 1 2 1.0279803329723758e+00 -5.7899867679784165e+02 1.0000000000000000e+00 1.0069761621376990e+01 7.4837878639067741e+00 1.2552505160010345e+01 
65 1 2 1.0279803329723758e+00 -4.4885008226947770e+02 1.0000000000000000e+00 1.0069761621376990e+01 7.4837878639067741e+00 1.2552505160010345e+01 
22 1 2 1.0279803329723758e+00 -5.0171366631205581e+02 1.0000000000000000e+00 1.0069761621376990e+01 7.4837878639067741e+00 1.2552505160010345e+01 
77 1 2 1.0280227237599024e+00 -5.1243834466912824e+02 1.0000000000000000e+00 1.2241231204402645e+01 6.0994244728610623e+00 1.2697585614648743e+01 
162 1 2 1.0280227237599024e+00 -5.4209480504243993e+02 1.0000000000000000e+00 1.2241231204402645e+01 6.0994244728610623e+00 1.2697585614648743e+01 
126 1 2 1.0280227237599024e+00 -4.8013412731451405e+02 1.0000000000000000e+00 1.2241231204402645e+01 6.0994244728610623e+00 1.2697585614648743e+01 
120 1 2 1.0280227237599024e+00 -5.5568878251511205e+02 1.0000000000000000e+00 1.2241231204402645e+01 6.0994244728610623e+00 1.2697585614648743e+01 
90 1 2 1.0280227237599024e+00 -4.4131041963599313e+02 1.0000000000000000e+00 1.2241231204402645e+01 6.0994244728610623e+00 1.2697585614648743e+01 
156 1 2 1.0280227237599024e+00 -6.1526065184349488e+02 1.0000000000000000e+00 1.2241231204402645e+01 6.0994244728610623e+00 1.2697585614648743e+01 
168 1 2 1.0280227237599024e+00 -6.4482104723132898e+02 1.0000000000000000e+00 1.2241231204402645e+01 6.0994244728610623e+00 1.2697585614648743e+01 
132 1 2 1.0280227237599024e+00 -5.1442828468131461e+02 1.0000000000000000e+00 1.2241231204402645e+01 6.0994244728610623e+00 1.2697585614648743e+01 
167 1 2 1.0280227237599024e+00 -5.0482913922473824e+02 1.0000000000000000e+00 1.2241231204402645e+01 6.0994244728610623e+00 1.2697585614648743e+01 
131 1 2 1.0280227237599024e+00 -4.6383174633284580e+02 1.0000000000000000e+00 1.2241231204402645e+01 6.0994244728610623e+00 1.2697585614648743e+01 
161 1 2 1.0280227237599024e+00 -5.3671622093757412e+02 1.0000000000000000e+00 1.2241231204402645e+01 6.0994244728610623e+00 1.2697585614648743e+01 
125 1 2 1.0280227237599024e+00 -5.0148263389436840e+02 1.0000000000000000e+00 1.2241231204402645e+01 6.0994244728610623e+00 1.2697585614648743e+01 
155 1 2 1.0280227237599024e+00 -6.1646603969800424e+02 1.0000000000000000e+00 1.2241231204402645e+01 6.0994244728610623e+00 1.2697585614648743e+01 
148 1 2 1.0280227237599024e+00 -6.8272603203370977e+02 1.0000000000000000e+00 1.2241231204402645e+01 6.0994244728610623e+00 1.2697585614648743e+01 
112 1 2 1.0280227237599024e+00 -5.6018484653052644e+02 1.0000000000000000e+00 1.2241231204402645e+01 6.0994244728610623e+00 1.2697585614648743e+01 
119 1 2 1.0280227237599024e+00 -5.9914321034378202e+02 1.0000000000000000e+00 1.2241231204402645e+01 6.0994244728610623e+00 1.2697585614648743e+01 
114 1 2 1.0280227237599024e+00 -6.0019368787138933e+02 1.0000000000000000e+00 1.2241231204402645e+01 6.0994244728610623e+00 1.2697585614648743e+01 
149 1 2 1.0280227237599024e+00 -7.8490342401437147e+02 1.0000000000000000e+00 1.2241231204402645e+01 6.0994244728610623e+00 1.2697585614648743e+01 
113 1 2 1.0280227237599024e+00 -5.7349804620487896e+02 1.0000000000000000e+00 1.2241231204402645e+01 6.0994244728610623e+00 1.2697585614648743e+01 
150 1 2 1.0280227237599024e+00 -6.3673640914990278e+02 1.0000000000000000e+00 1.2241231204402645e+01 6.0994244728610623e+00 1.2697585614648743e+01 
134 1 2 1.0279352523185605e+00 -6.5334866072762134e+02 1.0000000000000000e+00 1.1528816157415443e+01 1.0501767772978440e+01 4.7844536314664081e+00 
164 1 2 1.0279502825407150e+00 -7.8242842282476306e+02 1.0000000000000000e+00 1.1739427976338458e+01 1.2312629930559915e+01 4.2693023178460257e+00 
170 1 2 1.0279443537402302e+00 -7.0445329950684686e+02 1.0000000000000000e+00 1.1663482289118528e+01 1.2290413321372272e+01 4.3461893358988029e+00 
163 1 2 1.0279102906752566e+00 -7.6199876939776732e+02 1.0000000000000000e+00 1.1567555623653075e+01 1.0150464448770494e+01 4.9755211808041233e+00 
178 1 2 1.0278752611272981e+00 -6.9346316841405087e+02 1.0000000000000000e+00 1.1530559205857427e+01 1.2503902580414131e+01 5.6178035048898254e+00 
128 1 2 1.0279424404158222e+00 -5.6146385265424635e+02 1.0000000000000000e+00 1.2162251522169800e+01 1.3169249501601374e+01 5.2529142449861936e+00 
137 1 2 1.0278748021454114e+00 -4.9504368929980626e+02 1.0000000000000000e+00 1.1519103940012334e+01 1.2470935694829549e+01 5.6386849841605367e+00 
166 1 2 1.0278750068752092e+00 -5.3624205439303012e+02 1.0000000000000000e+00 1.1524867077102096e+01 1.2482236210951703e+01 5.6359104035104615e+00 
173 1 2 1.0278749030968979e+00 -5.5532918947605629e+02 1.0000000000000000e+00 1.1522035747955208e+01 1.2480054389852040e+01 5.6326511022803079e+00 
172 1 2 1.0278751044631700e+00 -6.4127670638172322e+02 1.0000000000000000e+00 1.1527257424841819e+01 1.2492420933005590e+01 5.6269377457646490e+00 
99 1 2 1.0278748941489539e+00 -5.0712198308312981e+02 1.0000000000000000e+00 1.1511047705750570e+01 1.2505627192801946e+01 5.5670953009463426e+00 
100 1 2 1.0278842903284173e+00 -4.4058912337090720e+02 1.0000000000000000e+00 1.1196841772480370e+01 1.1386513419876827e+01 5.5416161372166011e+00 
105 1 2 1.0278860409281656e+00 -5.0437656853828742e+02 1.0000000000000000e+00 1.1185663089795785e+01 1.1146011064823599e+01 5.4538621329605377e+00 
179 1 2 1.0278749534704594e+00 -7.2440467279498762e+02 1.0000000000000000e+00 1.1523288704348282e+01 1.2485841784853701e+01 5.6273428490059407e+00 
176 1 2 1.0279067842528395e+00 -7.5380090180752438e+02 1.0000000000000000e+00 1.1796337128195066e+01 1.2931866101555020e+01 5.2545100555981703e+00 
141 1 2 1.0278762244984523e+00 -6.4676371554589525e+02 1.0000000000000000e+00 1.1547664982733890e+01 1.2548340124343071e+01 5.5889508205640448e+00 
135 1 2 1.0278759695022202e+00 -5.9434570179784441e+02 1.0000000000000000e+00 1.1546074629678358e+01 1.2532664484587860e+01 5.6101028316488240e+00 
93 1 2 1.0278763399861599e+00 -3.8727583380671092e+02 1.0000000000000000e+00 1.1556258450702195e+01 1.2505996702956415e+01 5.6696022980287051e+00 
129 1 2 1.0278770811653049e+00 -3.9496443665572315e+02 1.0000000000000000e+00 1.1570488524386999e+01 1.2510908261874697e+01 5.6907174361894102e+00 
165 1 2 1.0278756612765332e+00 -6.2729593840756479e+02 1.0000000000000000e+00 1.1541467377471497e+01 1.2506910441102914e+01 5.6377347649408485e+00 
136 1 2 1.0278752125754391e+00 -6.3144175352358263e+02 1.0000000000000000e+00 1.1529714174357531e+01 1.2499693661457524e+01 5.6220276648473311e+00 
177 1 2 1.0278757773093952e+00 -6.9484788408798886e+02 1.0000000000000000e+00 1.1541120250958192e+01 1.2528199818249533e+01 5.6055325083060064e+00 
171 1 2 1.0278753161053793e+00 -6.8288867020903933e+02 1.0000000000000000e+00 1.1532201928354420e+01 1.2504333321189966e+01 5.6209159641794395e+00 
94 1 2 1.0278751086141868e+00 -3.8087799313187304e+02 1.0000000000000000e+00 1.1526841440037186e+01 1.2473354982615939e+01 5.6521974416558702e+00 
130 1 2 1.0278752414792580e+00 -4.9429686730370901e+02 1.0000000000000000e+00 1.1531036635223966e+01 1.2488516995837180e+01 5.6407524978535326e+00 
142 1 2 1.0278752114993004e+00 -6.5361072514177272e+02 1.0000000000000000e+00 1.1529512262461949e+01 1.2500854814405344e+01 5.6198781216678482e+00 
66 1 2 4.0602971142307548e-01 -4.6781111556287465e+02 1.0000000000000000e+00 1.1266099258819681e+01 1.5950411179424371e+01 1.5870808883550293e+01 
30 1 2 4.0602971142307548e-01 -6.2735264242819517e+02 1.0000000000000000e+00 1.1266099258819674e+01 1.5950411179424373e+01 1.5870808883550188e+01 
107 1 2 4.0602971142307548e-01 -4.3682283101450219e+02 1.0000000000000000e+00 1.1266099258819692e+01 1.5950411179424355e+01 1.5870808883550174e+01 
102 1 2 4.0602971142307548e-01 -4.5967405073452858e+02 1.0000000000000000e+00 1.1266099258819674e+01 1.5950411179424382e+01 1.5870808883550287e+01 
180 1 2 4.0602971142307548e-01 -5.8264740635326427e+02 1.0000000000000000e+00 1.1266099258819674e+01 1.5950411179424371e+01 1.5870808883550357e+01 
174 1 2 4.0602971142307548e-01 -6.5998397796283189e+02 1.0000000000000000e+00 1.1266099258819674e+01 1.5950411179424293e+01 1.5870808883550357e+01 
143 1 2 4.0602971142307548e-01 -4.9126749723726641e+02 1.0000000000000000e+00 1.1266099258819674e+01 1.5950411179424369e+01 1.5870808883550174e+01 
35 1 2 4.0602971142307548e-01 -7.2120918036525836e+02 1.0000000000000000e+00 1.1266099258819656e+01 1.5950411179424355e+01 1.5870808883550174e+01 
72 1 2 4.0602971142307548e-01 -5.1968105117511777e+02 1.0000000000000000e+00 1.1266099258819667e+01 1.5950411179424355e+01 1.5870808883550174e+01 
138 1 2 4.0602971142307548e-01 -5.0837096131930269e+02 1.0000000000000000e+00 1.1266099258819674e+01 1.5950411179424375e+01 1.5870808883550167e+01 
144 1 2 4.0602971142307548e-01 -4.5836472295201918e+02 1.0000000000000000e+00 1.1266099258819674e+01 1.5950411179424355e+01 1.5870808883550174e+01 
71 1 2 4.0602971142307548e-01 -4.8806406524358033e+02 1.0000000000000000e+00 1.1266099258819697e+01 1.5950411179424355e+01 1.5870808883550174e+01 
101 1 2 4.0602971142307548e-01 -4.4170309960356622e+02 1.0000000000000000e+00 1.1266099258819674e+01 1.5950411179424384e+01 1.5870808883550174e+01 
108 1 2 4.0602971142307548e-01 -4.7208183268825962e+02 1.0000000000000000e+00 1.1266099258819674e+01 1.5950411179424378e+01 1.5870808883550357e+01 
36 1 2 4.0602971142307548e-01 -6.0316024099349829e+02 1.0000000000000000e+00 1.1266099258819683e+01 1.5950411179424355e+01 1.5870808883550175e+01 
74 1 2 1.0280819564266650e+00 -6.1468588974530610e+02 1.0000000000000000e+00 1.4228518319490991e+01 1.1667202172529700e+01 4.1210849400270497e+00 
121 1 2 1.0280830839795754e+00 -5.2085189367769510e+02 1.0000000000000000e+00 1.4237081572789540e+01 1.1686629820499878e+01 4.1257031115064562e+00 
115 1 2 1.0280839489891362e+00 -6.3830432422885758e+02 1.0000000000000000e+00 1.4246574051605446e+01 1.1694095848647192e+01 4.1349169554182463e+00 
157 1 2 1.0280843938391548e+00 -6.6663837084349836e+02 1.0000000000000000e+00 1.4249404082677101e+01 1.1703611708867378e+01 4.1358997434931037e+00 
151 1 2 1.0280866483338822e+00 -8.6095725384664047e+02 1.0000000000000000e+00 1.4273809822720688e+01 1.1723815811815857e+01 4.1610047639776093e+00 
109 1 2 1.0280867502631603e+00 -6.5724651849538782e+02 1.0000000000000000e+00 1.4275869218573707e+01 1.1721520643537081e+01 4.1641420446775852e+00 
80 1 2 1.0280868818145175e+00 -5.0592774539633842e+02 1.0000000000000000e+00 1.4278900728497870e+01 1.1717329745665527e+01 4.1690014528268113e+00 
145 1 2 1.0280884008360007e+00 -7.0772121593536986e+02 1.0000000000000000e+00 1.4292848810232924e+01 1.1738257515385907e+01 4.1823484748464583e+00 
110 1 2 1.0280889879510096e+00 -6.3247891977679535e+02 1.0000000000000000e+00 1.4299281109650721e+01 1.1742619223605892e+01 4.1899796681718557e+00 
116 1 2 1.0280897526081647e+00 -6.4576397254999688e+02 1.0000000000000000e+00 1.4306927042962077e+01 1.1751318242806619e+01 4.1985204225843162e+00 
122 1 2 1.0280899686313929e+00 -4.7773830396534140e+02 1.0000000000000000e+00 1.4309259313449912e+01 1.1753056414958820e+01 4.2013695995708762e+00 
152 1 2 1.0280915240493294e+00 -6.9767293126728430e+02 1.0000000000000000e+00 1.4324977022536300e+01 1.1771231270254425e+01 4.2199292315030537e+00 
146 1 2 1.0280953154537662e+00 -6.6539538684572904e+02 1.0000000000000000e+00 1.4366248498619605e+01 1.1811383079603955e+01 4.2763583161029812e+00 
158 1 2 1.0280977460792757e+00 -8.0760379782464338e+02 1.0000000000000000e+00 1.4395037806122227e+01 1.1845110823403552e+01 4.3214928909271046e+00 
147 1 2 1.0281005422348608e+00 -6.1359469898097439e+02 1.0000000000000000e+00 1.4521755922043379e+01 1.2023438402567297e+01 4.6919913770438040e+00 
117 1 2 1.0280951814748613e+00 -5.9851487802988720e+02 1.0000000000000000e+00 1.4531695942848559e+01 1.2078518999385677e+01 4.8402781375401105e+00 
153 1 2 1.0280947468361399e+00 -6.5107512647483611e+02 1.0000000000000000e+00 1.4531921825182788e+01 1.2079485181864939e+01 4.8487633521760145e+00 
81 1 2 1.0280942487994118e+00 -4.6819350757153717e+02 1.0000000000000000e+00 1.4530940125066293e+01 1.2088672864188581e+01 4.8559201718627989e+00 
111 1 2 1.0280941351425037e+00 -6.1746458143428003e+02 1.0000000000000000e+00 1.4532206833839858e+01 1.2080254564841809e+01 4.8604200654254965e+00 
159 1 2 1.0280908933374284e+00 -7.1747602974615586e+02 1.0000000000000000e+00 1.4529663276284394e+01 1.2100995787023017e+01 4.9135501670281245e+00 
123 1 2 1.0280876970451827e+00 -4.3246342559020485e+02 1.0000000000000000e+00 1.4522284614901286e+01 1.2135535301704008e+01 4.9642000746511918e+00 
87 1 2 1.0280862199314136e+00 -3.6895740106285564e+02 1.0000000000000000e+00 1.4517518096241599e+01 1.2151806440563753e+01 4.9910992662687663e+00 
88 1 2 1.0280829153438755e+00 -3.7368931881492063e+02 1.0000000000000000e+00 1.4506062439837681e+01 1.2173207510167355e+01 5.0591942265667589e+00 
124 1 2 1.0280831294583495e+00 -4.9460091484867780e+02 1.0000000000000000e+00 1.4512924659790707e+01 1.2138788213013227e+01 5.0570634379631452e+00 
160 1 2 1.0280803157951608e+00 -6.8757966056831469e+02 1.0000000000000000e+00 1.4505541665847399e+01 1.2132700456917046e+01 5.1116802767515868e+00 
118 1 2 1.0280803765960034e+00 -5.2895501863379059e+02 1.0000000000000000e+00 1.4507575088878683e+01 1.2121219018569215e+01 5.1111074280057220e+00 
154 1 2 1.0280807662297005e+00 -5.6899329394340134e+02 1.0000000000000000e+00 1.4509228170742007e+01 1.2118581994992779e+01 5.1040482288490008e+00 

Velocities

91 -1.4744211395880034e-04 1.4761398485525104e-03 6.8503380818382090e-04
133 9.7535990530839209e-03 -4.4050988677161737e-03 -7.8960000073288478e-03
139 4.5507145293511637e-04 3.0865621573420077e-04 -7.8782782081985095e-03
175 1.1206731952425849e-03 7.6796425506573383e-04 -4.9483456177923891e-03
98 3.1701472213097096e-03 4.2207309853627556e-03 -6.0206176530223079e-03
127 -3.7886048900570967e-03 -9.1918284416696099e-04 8.6050759214362140e-04
97 3.5341802062194429e-04 1.1970915164521056e-03 5.3266736032934569e-04
103 3.4546660832782356e-04 1.1708322987892836e-03 4.9602018361339837e-04
104 3.8739160970037542e-04 1.1312409806783867e-03 4.5133492516593519e-04
169 -1.9424127332024930e-03 -2.3477223373505093e-02 1.6564279389839554e-02
61 5.0335578922262511e-04 1.1371240059876023e-03 4.3909042871535673e-04
31 4.8467782207899866e-04 1.1222242941915038e-03 4.3304765203218946e-04
67 4.9196584906370424e-04 1.1257926988362497e-03 4.3376308280394771e-04
25 5.1498369418709225e-04 1.1289994175042966e-03 4.2669317852775352e-04
68 5.9358343378087283e-04 1.0886000809005683e-03 3.5527106933190398e-04
15 2.3763442766099334e-04 9.8244696442741368e-04 1.1290307887239794e-03
32 5.9768365681593823e-04 1.0597365032892724e-03 3.2974830061300382e-04
62 6.6144702698752529e-04 1.1278243060884687e-03 3.4572460329652818e-04
55 3.8943033511256310e-04 1.1954581584023654e-03 1.2056774607438275e-03
26 6.8450326418661946e-04 1.0977421232148527e-03 3.1429628227679237e-04
73 1.5237258508676986e-03 -2.9290283791650657e-04 -1.6423492089369745e-04
2 1.5209434143390172e-03 -2.9954673233395371e-04 -1.6610282016698763e-04
1 1.5207232240971459e-03 -2.9955247505953595e-04 -1.6625581167572571e-04
37 1.5206047036081954e-03 -2.9960850901869740e-04 -1.6633798057639007e-04
38 1.5205729374384929e-03 -2.9978467448355667e-04 -1.6635944346728973e-04
7 1.5204151250164679e-03 -2.9999058919583652e-04 -1.6646854310575622e-04
43 1.5204448704228353e-03 -2.9988622602729955e-04 -1.6644816709137934e-04
79 1.5205114112945772e-03 -2.9969167041330212e-04 -1.6640253840901145e-04
8 1.5203145507769807e-03 -3.0030343365130109e-04 -1.6653772950634080e-04
44 1.5201501161845057e-03 -3.0048693663417412e-04 -1.6665181577392901e-04
49 1.5197956017193425e-03 -3.0103753981896669e-04 -1.6689822151968938e-04
50 1.5196441953917097e-03 -3.0136451651133455e-04 -1.6700392403580749e-04
85 1.5198621868566635e-03 -3.0085334555971768e-04 -1.6685187790344466e-04
86 1.5199244275682334e-03 -3.0077553468798901e-04 -1.6680858774109731e-04
13 1.5199134659188683e-03 -3.0083248156305398e-04 -1.6681618580444648e-04
19 1.5163206466974910e-03 -3.0734233994287035e-04 -1.6940044989417806e-04
14 1.5152703054675328e-03 -3.0928334419060585e-04 -1.7019070776590339e-04
51 1.5156376371222862e-03 -3.0862200283822237e-04 -1.6991297662028858e-04
92 1.5047427922477085e-03 -3.2902125113113345e-04 -1.7913900703635802e-04
33 7.1964723782931529e-04 1.0420512542854427e-03 2.6788338913100119e-04
56 1.0343969100980858e-03 1.4870183602814265e-03 8.3900733379231292e-04
20 1.4927531506358518e-03 -3.5887101269410990e-04 -1.9385171213014883e-04