LAMMPS data file via write_data, version 30 Jul 2016, timestep = 50400000

4620 atoms
8 atom types

0.0000000000000000e+00 1.0000000000000000e+02 xlo xhi
0.0000000000000000e+00 4.0000000000000000e+01 ylo yhi
0.0000000000000000e+00 4.0000000000000000e+01 zlo zhi

Masses

1 3.896
2 5.36
3 20.064
4 8.378
5 8.378
6 8.378
7 8.378
8 8.378

Atoms # meso-molecular

3143 3144 2 1.0279999999999785e+00 -1.1874984104747932e+03 1.0000000000000000e+00 3.2878567224275443e+01 1.9989308435174962e+01 3.9699416019470468e+00 
1631 1632 2 1.0279999999999885e+00 -3.2812639895796053e+02 1.0000000000000000e+00 1.7639051901290085e+01 3.9671648481085969e-01 9.7568250163586203e+00 
672 673 2 1.0279999999999334e+00 -3.4588443767794079e+03 1.0000000000000000e+00 1.9398703224450156e+01 1.7015727342807092e+00 9.2881083255349228e+00 
631 632 2 1.0279999999999576e+00 -3.4548362942785288e+03 1.0000000000000000e+00 1.9379901579998158e+01 1.7117183420516697e+00 9.2926221848344337e+00 
2060 2061 2 1.0280000000000695e+00 4.1634068190529668e+01 1.0000000000000000e+00 2.1902902012252845e+01 3.5372898605780362e-01 9.8775545648510104e+00 
2952 2953 2 1.0279999999999156e+00 6.8471211272367691e+02 1.0000000000000000e+00 2.4884831564537048e+01 5.7022300340099774e-01 9.3437514249447915e+00 
2030 2031 2 1.0279999999998972e+00 -9.7924275674953469e+02 1.0000000000000000e+00 2.5719607713790385e+01 1.8829816408513076e+00 9.6605781825223769e+00 
1628 1629 2 1.0279999999999458e+00 -1.1443167950581133e+03 1.0000000000000000e+00 1.2107020489250241e+01 5.1596254447901693e+00 6.7088361715108658e+00 
1585 1586 2 1.0279999999999530e+00 6.8663543322280077e+02 1.0000000000000000e+00 1.0607343454225061e+01 3.4371163619281369e+00 9.3550530082554868e+00 
3485 3486 2 1.0280000000000353e+00 -1.8844982876197919e+03 1.0000000000000000e+00 1.1905269003880360e+01 3.6043315581463857e+00 9.4539692334020877e+00 
1669 1670 2 1.0280000000000202e+00 6.8660137275686043e+02 1.0000000000000000e+00 1.0623235811125511e+01 3.3818742522262379e+00 9.6017077165676810e+00 
3594 3595 2 1.0280000000000049e+00 2.6535475040512501e+03 1.0000000000000000e+00 1.2233533487027655e+01 5.1605472698514649e+00 8.1163655780608490e+00 
129 130 2 1.0279999999999991e+00 -5.0896424648149787e+03 1.0000000000000000e+00 1.2405796193166017e+01 3.5490889538068386e+00 6.7625858906371805e+00 
166 167 2 1.0279999999999823e+00 -5.0452358359369846e+03 1.0000000000000000e+00 1.2418965594918786e+01 3.5478622506677140e+00 6.7632853048019106e+00 
949 950 2 1.0280000000000289e+00 3.5635325193248082e+03 1.0000000000000000e+00 1.3581885310578238e+01 4.8832566972880418e+00 7.9203926923880577e+00 
3023 3024 2 1.0279999999999139e+00 4.3435870062911101e+02 1.0000000000000000e+00 1.3179823699571660e+01 4.0081780325433174e+00 9.3938054295091593e+00 
4018 4019 2 1.0280000000000946e+00 -1.0081065497003674e+03 1.0000000000000000e+00 1.3227584688856302e+01 5.6249915832369810e+00 7.1711900307205658e+00 
1633 1634 2 1.0280000000001195e+00 4.5934884400391929e+03 1.0000000000000000e+00 1.4026199947659800e+01 3.6205479335274289e+00 9.7737924747672569e+00 
1602 1603 2 1.0280000000000322e+00 4.6396273908220101e+03 1.0000000000000000e+00 1.5486160953734011e+01 4.3600277212247898e+00 9.5267150591563006e+00 
2522 2523 2 1.0280000000000280e+00 2.9900280275218421e+01 1.0000000000000000e+00 1.6727525221433144e+01 4.6784574206953504e+00 9.9902878092446290e+00 
2603 2604 2 1.0280000000000236e+00 2.6946186008192371e+03 1.0000000000000000e+00 2.1764673582306589e+01 4.8784075391035389e+00 9.2660138525889320e+00 
2141 2142 2 1.0280000000001412e+00 2.6952610286815579e+03 1.0000000000000000e+00 2.1784956174638324e+01 4.9845007068816880e+00 9.2801440823236803e+00 
2777 2778 2 1.0279999999999145e+00 -9.7142069898447494e+02 1.0000000000000000e+00 2.3406205313160591e+01 4.4308325169872766e+00 9.2038701675855599e+00 
1391 1392 2 1.0279999999999643e+00 -9.7196236235128799e+02 1.0000000000000000e+00 2.3707765565776800e+01 6.1687860337054596e+00 9.4891110442493964e+00 
508 509 2 1.0279999999998752e+00 -4.8941731139000197e+01 1.0000000000000000e+00 2.4363016854895875e+01 6.4147654366663698e+00 9.6284919751644722e+00 
3742 3743 2 1.0279999999999943e+00 -4.9360663482407801e+01 1.0000000000000000e+00 2.4580024270507369e+01 4.7228141840809243e+00 9.5385394119170002e+00 
2492 2493 2 1.0279999999999938e+00 -9.9345864457400126e+02 1.0000000000000000e+00 2.6749545188634762e+01 1.6672042087880254e+01 9.3951578820445487e+00 
3446 3447 2 1.0279999999999363e+00 -1.8609175812169667e+03 1.0000000000000000e+00 2.6559543083458703e+01 1.7915438408045350e+01 9.5898801285936131e+00 
3379 3380 2 1.0280000000000100e+00 7.0057197877480053e+02 1.0000000000000000e+00 2.7065361913635915e+01 1.9979963306054831e+01 8.9402714891142558e+00 
1566 1567 2 1.0279999999999929e+00 6.8209030027439508e+02 1.0000000000000000e+00 2.9657330546342635e+01 1.8055289530269420e+01 8.2449698171028842e+00 
1650 1651 2 1.0280000000000908e+00 6.8247954292941552e+02 1.0000000000000000e+00 2.9223456659695689e+01 1.8143065400890713e+01 9.2687390348333096e+00 
2062 2063 2 1.0279999999999747e+00 3.5476058146443620e+02 1.0000000000000000e+00 3.0103322724552726e+01 1.8484752898272440e+01 8.5064978787338603e+00 
568 569 2 1.0280000000000535e+00 2.4263871070580140e+03 1.0000000000000000e+00 2.7905168060928798e+01 1.9762900143519083e+01 8.3293911428932876e+00 
756 757 2 1.0280000000000673e+00 -3.4580727868640306e+03 1.0000000000000000e+00 1.9958720975337112e+01 1.7426441379493143e+00 1.1745069330420620e+01 
715 716 2 1.0280000000000142e+00 -3.4539981588099272e+03 1.0000000000000000e+00 1.9942900531409133e+01 1.7512205796778904e+00 1.1743982305557992e+01 
3479 3480 2 1.0280000000001488e+00 1.0177999860895932e+04 1.0000000000000000e+00 2.1050227250903511e+01 2.8131613364604311e+00 1.0176744409065765e+01 
2552 2553 2 1.0280000000000926e+00 -1.0573809770720786e+03 1.0000000000000000e+00 1.9735705703534325e+01 2.9155744639666046e+00 1.0515345558312045e+01 
2983 2984 2 1.0280000000000247e+00 -2.5880992292075589e+03 1.0000000000000000e+00 2.1453073147529889e+01 2.0184880505026803e+00 1.0629234231466011e+01 
1604 1605 2 1.0280000000001428e+00 -3.3653523069391065e+02 1.0000000000000000e+00 2.1901255545716115e+01 3.3754274488236480e-01 1.0002820083218285e+01 
3036 3037 2 1.0280000000000653e+00 6.8456933234885298e+02 1.0000000000000000e+00 2.4914900488310707e+01 6.6352369880979778e-01 1.0566747081273647e+01 
2114 2115 2 1.0279999999999958e+00 -9.7979409375581577e+02 1.0000000000000000e+00 2.5648852338671645e+01 1.9164788126605634e+00 1.0562883391658355e+01 
2992 2993 2 1.0279999999999720e+00 -3.9472531061938571e+03 1.0000000000000000e+00 2.7082953993671577e+01 2.5329012562046960e+00 1.0276106304650531e+01 
2993 2994 2 1.0280000000001248e+00 -1.1746249883497981e+03 1.0000000000000000e+00 2.8060103672463203e+01 2.8447680130944657e+00 1.0375810884379176e+01 
2990 2991 2 1.0279999999999931e+00 -3.3951525622135932e+02 1.0000000000000000e+00 1.5213581944472551e+01 3.7897699278716392e+00 1.0156206816192164e+01 
1597 1598 2 1.0279999999998892e+00 -2.5672554899872393e+03 1.0000000000000000e+00 1.7473871716420781e+01 4.4659773766716544e+00 1.0382302508132748e+01 
2090 2091 2 1.0280000000002867e+00 -1.0548131018438658e+03 1.0000000000000000e+00 1.8537486021017433e+01 4.5610147969053063e+00 1.0638606449560022e+01 
1169 1170 2 1.0279999999997458e+00 1.0173667295234754e+04 1.0000000000000000e+00 1.9403349470424754e+01 5.2913724561300075e+00 1.0634247223668533e+01 
2066 2067 2 1.0280000000001441e+00 -7.7056420196796068e+01 1.0000000000000000e+00 2.0250030542613210e+01 5.5601002868992158e+00 1.0827449301723178e+01 
2100 2101 2 1.0279999999998208e+00 -2.4680700902954768e+03 1.0000000000000000e+00 2.1287149308381498e+01 5.4008881725875062e+00 1.1240539009658182e+01 
2562 2563 2 1.0279999999998821e+00 -2.4677025883355700e+03 1.0000000000000000e+00 2.2406543497392800e+01 3.7249544075258600e+00 1.1025482437876164e+01 
3448 3449 2 1.0279999999999601e+00 -1.6622593213018563e+03 1.0000000000000000e+00 2.2697377340919932e+01 4.5472332572772514e+00 1.2256946181170084e+01 
2528 2529 2 1.0280000000001421e+00 -7.5980023300766987e+01 1.0000000000000000e+00 2.3565815239174373e+01 3.9156660976465814e+00 1.0728998040598521e+01 
1138 1139 2 1.0279999999999800e+00 -1.6633775977569831e+03 1.0000000000000000e+00 2.2338407282246109e+01 5.2924667272291401e+00 1.2064366159939382e+01 
673 674 2 1.0280000000000358e+00 -1.6593232206971129e+03 1.0000000000000000e+00 2.3993892641383344e+01 6.6240333056496654e+00 1.1273519834697675e+01 
1173 1174 2 1.0280000000001028e+00 -1.6626913889692541e+03 1.0000000000000000e+00 2.4436712971185671e+01 6.3036158206030333e+00 1.2162102898949515e+01 
3483 3484 2 1.0280000000000022e+00 -1.6612303194768333e+03 1.0000000000000000e+00 2.4575275574679861e+01 5.1238548665764680e+00 1.2101621298043632e+01 
3907 3908 2 1.0279999999999399e+00 -1.6589928988151819e+03 1.0000000000000000e+00 2.5056785182433899e+01 4.6993042404767635e+00 1.0980756827257842e+01 
2531 2532 2 1.0279999999999938e+00 -1.0632256460315493e+03 1.0000000000000000e+00 2.6234461392824429e+01 5.8196917338915704e+00 1.0888871980806687e+01 
3486 3487 2 1.0280000000005953e+00 -1.7614499500870502e+03 1.0000000000000000e+00 2.6635221921600063e+01 6.3461521788220514e+00 1.1017824900917473e+01 
3453 3454 2 1.0279999999998426e+00 4.6745434539788675e+03 1.0000000000000000e+00 2.8201300479717670e+01 3.6055191865037934e+00 1.0457377236312160e+01 
2098 2099 2 1.0279999999996636e+00 3.8491410071328573e+03 1.0000000000000000e+00 2.8214272381366559e+01 5.0709401766577518e+00 1.0743786080413186e+01 
3016 3017 2 1.0280000000005616e+00 -2.7060031588738602e+03 1.0000000000000000e+00 2.8805390304450047e+01 5.7175759102670876e+00 1.0713757706454412e+01 
3452 3453 2 1.0279999999999618e+00 1.0138536334692970e+04 1.0000000000000000e+00 3.2092199208751360e+01 6.3191227183788916e+00 1.0501785765146547e+01 
2061 2062 2 1.0280000000001919e+00 3.8107313717234983e+03 1.0000000000000000e+00 3.1087843967402897e+01 6.3186350447627850e+00 1.0428045160464450e+01 
2069 2070 2 1.0279999999998941e+00 -1.0647203424069539e+03 1.0000000000000000e+00 2.4875877349399349e+01 8.0356643736404401e+00 1.0720950406447569e+01 
1176 1177 2 1.0280000000001164e+00 -1.7622428674495302e+03 1.0000000000000000e+00 2.5816822438364646e+01 8.8050558760692237e+00 1.0797684684642245e+01 
1135 1136 2 1.0280000000000244e+00 -1.7665252554072424e+03 1.0000000000000000e+00 2.5189694103625936e+01 9.0431154399438984e+00 1.0788092823656752e+01 
3445 3446 2 1.0279999999995291e+00 -1.7647542268527404e+03 1.0000000000000000e+00 2.7855244972323447e+01 6.7549723479814059e+00 1.0555239851496856e+01 
3946 3947 2 1.0279999999999077e+00 4.8914656488128994e+03 1.0000000000000000e+00 2.7904253861928570e+01 8.3493428756623231e+00 1.0988674660547382e+01 
3447 3448 2 1.0279999999998950e+00 -2.0777966891886472e+03 1.0000000000000000e+00 2.8004085268112103e+01 8.9535055414813147e+00 1.1147497334787554e+01 
2529 2530 2 1.0279999999999179e+00 1.8343447978849172e+03 1.0000000000000000e+00 3.0077183927973895e+01 6.7559963758453119e+00 1.0608301961119153e+01 
716 717 2 1.0280000000001142e+00 7.1082746987970813e+02 1.0000000000000000e+00 2.9824733767014777e+01 8.2774305992817041e+00 1.0499925993432065e+01 
632 633 2 1.0280000000000167e+00 7.1085847523864709e+02 1.0000000000000000e+00 2.9899411805878792e+01 8.2968045316936063e+00 1.1404088001972672e+01 
2991 2992 2 1.0279999999999980e+00 -2.7129963745448022e+03 1.0000000000000000e+00 3.2671515132680739e+01 7.0935361212962382e+00 1.0584647492208459e+01 
2987 2988 2 1.0279999999998688e+00 -1.5406090562387844e+03 1.0000000000000000e+00 3.0924019581840522e+01 9.5254203756856359e+00 1.1182955473748784e+01 
3451 3452 2 1.0279999999997471e+00 4.5137274719739444e+03 1.0000000000000000e+00 2.8783730154660716e+01 1.0139192828069536e+01 1.1586935902881727e+01 
3521 3522 2 1.0280000000001537e+00 1.5105111224439208e+03 1.0000000000000000e+00 3.0157570326903254e+01 1.0509653022381277e+01 1.2123285331251360e+01 
3437 3438 2 1.0280000000000398e+00 1.5108846881054283e+03 1.0000000000000000e+00 3.0173145203873339e+01 1.0548758621934013e+01 1.0615605844760363e+01 
4409 4410 2 1.0279999999999738e+00 -1.1993065202358343e+03 1.0000000000000000e+00 2.8499734840039501e+01 1.1593394546175679e+01 1.1544618162449092e+01 
251 252 2 1.0279999999998124e+00 -1.1981055246705801e+03 1.0000000000000000e+00 2.8345410382268593e+01 1.2177199468340357e+01 1.1592104443497794e+01 
4376 4377 2 1.0279999999998413e+00 -1.0522558968337726e+03 1.0000000000000000e+00 3.0717642405956575e+01 1.1765010017737033e+01 1.1405118030541319e+01 
3450 3451 2 1.0279999999999405e+00 -3.2859700215008013e+02 1.0000000000000000e+00 3.3028179109287954e+01 1.0614080626601721e+01 1.1244003684025573e+01 
217 218 2 1.0280000000001515e+00 -9.8891840189456275e+01 1.0000000000000000e+00 3.1903466390640258e+01 1.0866899492558597e+01 1.1308139789932417e+01 
218 219 2 1.0279999999998390e+00 -1.0515120815993973e+03 1.0000000000000000e+00 3.1049620130895775e+01 1.3117465780251353e+01 1.1496972631558180e+01 
2560 2561 2 1.0279999999998726e+00 3.8482289347635888e+03 1.0000000000000000e+00 2.7556468920487973e+01 1.5538832880463994e+01 1.0388812930365967e+01 
712 713 2 1.0280000000000122e+00 4.8905025162342363e+03 1.0000000000000000e+00 2.7958560369804491e+01 1.4061905336847806e+01 1.1735155273709282e+01 
1141 1142 2 1.0279999999999589e+00 4.5174638784554745e+03 1.0000000000000000e+00 2.8569340917767402e+01 1.3654596257560605e+01 1.2487633720844729e+01 
1137 1138 2 1.0280000000000902e+00 -2.0745644160873226e+03 1.0000000000000000e+00 2.8580614126920864e+01 1.3771694282797057e+01 1.0668486822899267e+01 
1127 1128 2 1.0280000000000220e+00 1.5103991072302467e+03 1.0000000000000000e+00 2.9954038315618494e+01 1.3983605046213695e+01 1.0563718011677929e+01 
1211 1212 2 1.0280000000000702e+00 1.5099998379067924e+03 1.0000000000000000e+00 3.0014344939949396e+01 1.4136045348668793e+01 1.2403389442181544e+01 
3950 3951 2 1.0279999999998610e+00 7.1167441416017994e+02 1.0000000000000000e+00 2.9824046130113988e+01 1.5266948013469294e+01 1.0408336931591425e+01 
3866 3867 2 1.0279999999999938e+00 7.1174741844607615e+02 1.0000000000000000e+00 2.9664177150918757e+01 1.5263591803254721e+01 1.2211174721598290e+01 
1630 1631 2 1.0280000000000542e+00 -2.7077179069219346e+03 1.0000000000000000e+00 2.8127788243933832e+01 1.6167570456569891e+01 1.0293390468358337e+01 
2067 2068 2 1.0280000000000540e+00 1.8324781215635730e+03 1.0000000000000000e+00 2.9849803726230775e+01 1.6387519186883772e+01 1.1252335132952355e+01 
4375 4376 2 1.0280000000001972e+00 -1.0134440365114466e+02 1.0000000000000000e+00 3.1846535985077704e+01 1.3907683301618114e+01 1.1428015954440527e+01 
1140 1141 2 1.0279999999998393e+00 -3.3066259828395368e+02 1.0000000000000000e+00 3.2034993443881078e+01 1.5204988759690925e+01 1.1506867114327017e+01 
1601 1602 2 1.0280000000000615e+00 -1.5408948971005279e+03 1.0000000000000000e+00 3.1321401274380570e+01 1.5751455428852605e+01 1.1587625104484694e+01 
2576 2577 2 1.0280000000000475e+00 -9.9330937887183904e+02 1.0000000000000000e+00 2.6543059522252346e+01 1.6714938988113939e+01 1.0512667785079497e+01 
297 298 2 1.0280000000000513e+00 -5.0896742369261428e+03 1.0000000000000000e+00 2.6529623933946141e+01 1.9013421071334907e+01 1.0675163307433969e+01 
334 335 2 1.0280000000000040e+00 -5.0452487890522752e+03 1.0000000000000000e+00 2.6535202483346147e+01 1.9015320927861534e+01 1.0674861249439141e+01 
2523 2524 2 1.0279999999999534e+00 3.8078338281304677e+03 1.0000000000000000e+00 3.0152093959155387e+01 1.7612948739443247e+01 1.0478081551239649e+01 
172 173 2 1.0279999999998533e+00 5.7261640829921384e+02 1.0000000000000000e+00 3.2700652116124054e+01 1.7556841608604358e+01 1.2002155834880929e+01 
1605 1606 2 1.0280000000000806e+00 -2.7146265700857912e+03 1.0000000000000000e+00 3.1601087584523725e+01 1.8485710490517572e+01 1.0617302374024767e+01 
1142 1143 2 1.0279999999999789e+00 1.0137464212721501e+04 1.0000000000000000e+00 3.0849657333245116e+01 1.8595246473020694e+01 1.0637565323480127e+01 
674 675 2 1.0280000000000222e+00 1.5280388253837627e+03 1.0000000000000000e+00 3.2894626442534879e+01 1.9406267345848363e+01 1.0630838268170276e+01 
3528 3529 2 1.0280000000000249e+00 9.4545005438538874e+02 1.0000000000000000e+00 2.3863595229343108e+01 5.9038685127487396e+00 1.4308518523677122e+01 
505 506 2 1.0280000000000467e+00 1.2261960376456609e+03 1.0000000000000000e+00 2.3457763617665460e+01 6.0832551515960054e+00 1.5711355354226452e+01 
546 547 2 1.0279999999999758e+00 1.2244728436156201e+03 1.0000000000000000e+00 2.3468696802540773e+01 6.0833388923939671e+00 1.5717272241933189e+01 
3487 3488 2 1.0279999999999874e+00 9.4477200146812675e+02 1.0000000000000000e+00 2.5210700889553667e+01 6.3868779925613035e+00 1.4133823607025253e+01 
3329 3330 2 1.0279999999999738e+00 2.0229868433712595e+03 1.0000000000000000e+00 2.5159091370074147e+01 6.5549999983901852e+00 1.4453399909275941e+01 
3028 3029 2 1.0280000000000158e+00 -2.8229483154412328e+03 1.0000000000000000e+00 3.3283992848456109e+01 1.5216201962055054e+01 1.5874106491282198e+01 
1683 1684 2 1.0279999999999887e+00 -3.0462376601474371e+03 1.0000000000000000e+00 3.2667970040330665e+01 1.6423744787388706e+01 1.6209391331539592e+01 
1766 1767 2 1.0279999999999818e+00 -3.0085517529732924e+03 1.0000000000000000e+00 3.2667979393705764e+01 1.6423777679942749e+01 1.6209331471726166e+01 
928 929 2 1.0280000000000924e+00 4.2886138588794756e+03 1.0000000000000000e+00 3.2856744084660697e+01 1.7624543378946104e+01 1.3385031495620307e+01 
302 303 2 1.0280000000001268e+00 -1.5076850845783238e+03 1.0000000000000000e+00 3.2818555831730990e+01 1.7670415168296966e+01 1.3376925728987313e+01 
1300 1301 2 1.0279999999999976e+00 -7.1527493943914760e+02 1.0000000000000000e+00 2.9504514420935585e+01 1.9966739050964073e+01 3.1651746058099697e+01 
425 426 2 1.0279999999999960e+00 -3.2356164048511037e+03 1.0000000000000000e+00 3.0195562141821316e+01 1.8797935138423178e+01 3.2644401654293411e+01 
3532 3533 2 1.0279999999999856e+00 3.0371371674357497e+03 1.0000000000000000e+00 3.0240504836578616e+01 1.8797916009226295e+01 3.2682701058687364e+01 
2768 2769 2 1.0279999999999982e+00 -1.8801193432469636e+03 1.0000000000000000e+00 3.2052221050805933e+01 1.9781395863555634e+01 3.3269467641744406e+01 
4451 4452 2 1.0279999999999945e+00 7.5364298695388482e+02 1.0000000000000000e+00 3.2955505099268677e+01 1.9648935529309703e+01 3.3055019943632665e+01 
969 970 2 1.0280000000000042e+00 4.4893311908910691e+03 1.0000000000000000e+00 3.0953255148667992e+01 1.9617188981655477e+01 3.4726341096817734e+01 
377 378 2 1.0279999999999836e+00 -1.3441047279207687e+03 1.0000000000000000e+00 3.1029762475925441e+01 1.9471356822936034e+01 3.4870683707492290e+01 
1716 1717 2 1.0280000000000082e+00 -1.7823446051532801e+03 1.0000000000000000e+00 3.2879683327370792e+01 1.9524968062373741e+01 3.5428357516311038e+01 
2184 2185 2 1.0279999999999980e+00 -3.8588285853733105e+03 1.0000000000000000e+00 3.2734785365899555e+01 1.9421441506427396e+01 3.5794861987664341e+01 
2447 2448 2 1.0280000000000065e+00 3.8785748793342725e+02 1.0000000000000000e+00 3.2282393547661968e+01 2.4161292711492571e+01 1.5258104477291723e+00 
479 480 2 1.0280000000000022e+00 8.6576526878727520e+02 1.0000000000000000e+00 3.1726414199717212e+01 2.5377780040450798e+01 4.4249032462394694e-01 
2870 2871 2 1.0280000000000029e+00 -2.9058434456544501e+03 1.0000000000000000e+00 3.2677639049622051e+01 2.4803034026033369e+01 2.0584784715618065e+00 
4215 4216 2 1.0279999999999923e+00 -5.6954142137219151e+03 1.0000000000000000e+00 3.3312455176049966e+01 2.3962038279950910e+01 2.3474908167479849e+00 
3651 3652 2 1.0279999999999376e+00 -1.1028135799189542e+01 1.0000000000000000e+00 3.2991820958708246e+01 2.0276315770750482e+01 3.9461361053792099e+00 
1359 1360 2 1.0279999999999965e+00 5.9436478267367158e+02 1.0000000000000000e+00 3.3030892247933629e+01 3.2305155958281297e+01 5.8962887073916042e+00 
3384 3385 2 1.0279999999999820e+00 5.1668422094134939e+02 1.0000000000000000e+00 2.8040703276833057e+01 2.0240800052324882e+01 8.9087542524359176e+00 
1282 1283 2 1.0279999999999916e+00 6.8889988757618312e+03 1.0000000000000000e+00 3.2845264658472452e+01 3.1500610671773941e+01 9.4264811906682286e+00 
655 656 2 1.0280000000000220e+00 -1.1017497983226058e+03 1.0000000000000000e+00 3.3032482510832367e+01 3.1591488721531125e+01 9.9590174184692088e+00 
2971 2972 2 1.0280000000000058e+00 6.8601175619029254e+02 1.0000000000000000e+00 1.7809607249769613e+01 3.8842637274834395e+01 8.8253001586654438e+00 
2045 2046 2 1.0279999999999483e+00 -9.8701702316959882e+02 1.0000000000000000e+00 1.7471843241882684e+01 3.9493468782870636e+01 8.6620477259125241e+00 
3019 3020 2 1.0279999999999372e+00 4.5953755510584160e+03 1.0000000000000000e+00 1.9743212870662294e+01 3.8919104225062419e+01 9.7376072220949332e+00 
2988 2989 2 1.0280000000000644e+00 4.6300299468426792e+03 1.0000000000000000e+00 2.0591117363457297e+01 3.8728148593111982e+01 9.8245841309973123e+00 
2099 2100 2 1.0280000000000040e+00 -1.6982489110784471e+01 1.0000000000000000e+00 1.9282146806566566e+01 3.9853185359900294e+01 9.9582201608667305e+00 
4324 4325 2 1.0279999999999923e+00 -5.0468234661053484e+03 1.0000000000000000e+00 2.2129739704815080e+01 3.8271615514394348e+01 9.0806824687128067e+00 
4287 4288 2 1.0280000000000229e+00 -5.0898385071350949e+03 1.0000000000000000e+00 2.2129779077845502e+01 3.8272097527175383e+01 9.0799964621375633e+00 
1136 1137 2 1.0279999999999787e+00 -1.8735916445056330e+03 1.0000000000000000e+00 2.3528941482943949e+01 3.9332303468913729e+01 9.6859918635079048e+00 
2524 2525 2 1.0279999999999765e+00 3.6345422045422191e+02 1.0000000000000000e+00 2.4422137885616287e+01 3.9422533155209948e+01 9.8642671352543623e+00 
3878 3879 2 1.0279999999999716e+00 2.5507606357316786e+02 1.0000000000000000e+00 3.3150042995414822e+01 2.2091750685347940e+01 1.2961252329201802e+01 
3055 3056 2 1.0279999999999783e+00 6.8588592665960437e+02 1.0000000000000000e+00 1.7567665215539236e+01 3.8779919956398999e+01 1.0426695899421130e+01 
2129 2130 2 1.0280000000000158e+00 -9.8708458863388159e+02 1.0000000000000000e+00 1.7188425125336238e+01 3.9486504588673093e+01 1.0601425070598399e+01 
1823 1824 2 1.0280000000000165e+00 1.4428907945868459e+03 1.0000000000000000e+00 3.3290606813655891e+01 2.6986669850240105e+01 1.8944694813884166e+01 
3082 3083 2 1.0280000000000076e+00 1.4190392707420860e+03 1.0000000000000000e+00 3.1956860082336764e+01 2.5627000331874818e+01 2.3243888936506753e+01 
4550 4551 2 1.0280000000000109e+00 -3.3627186921933644e+03 1.0000000000000000e+00 3.2614937021502925e+01 2.6088984344249816e+01 2.2455554603920838e+01 
305 306 2 1.0279999999999927e+00 -4.8559387152886885e+01 1.0000000000000000e+00 3.3146655428480692e+01 2.6241902571485934e+01 2.1564899018047193e+01 
1343 1344 2 1.0280000000000007e+00 -6.9322091982203233e+02 1.0000000000000000e+00 2.6734287161194278e+01 2.2695658820072147e+01 2.6088654971061420e+01 
1215 1216 2 1.0279999999999971e+00 -9.1903748775923282e+02 1.0000000000000000e+00 2.7157891371273884e+01 2.2105228310618170e+01 2.5548689056621978e+01 
1304 1305 2 1.0279999999999969e+00 -6.3271078381350981e+02 1.0000000000000000e+00 2.7754697498497741e+01 2.2724088931588373e+01 2.5776974633585372e+01 
2154 2155 2 1.0279999999999667e+00 3.0150909319112689e+03 1.0000000000000000e+00 3.3224149227263815e+01 2.3523044269627889e+01 2.4347920264205854e+01 
728 729 2 1.0280000000000109e+00 3.1280501178637678e+02 1.0000000000000000e+00 3.0389849194211941e+01 2.4345810219061754e+01 2.5792546013346193e+01 
3121 3122 2 1.0280000000000058e+00 -2.1185259728410165e+03 1.0000000000000000e+00 3.0908216219525997e+01 2.5091586023038246e+01 2.5164783100664049e+01 
357 358 2 1.0280000000000036e+00 1.7899457846822302e+03 1.0000000000000000e+00 3.1819829059120512e+01 2.4996758030093240e+01 2.3746800082500915e+01 
4039 4040 2 1.0279999999999914e+00 2.1476025523372550e+03 1.0000000000000000e+00 3.2218076959060191e+01 2.5209259181972566e+01 2.5508386026418140e+01 
3625 3626 2 1.0280000000000025e+00 -1.8145968488769572e+03 1.0000000000000000e+00 3.3052346094594164e+01 2.5346627904486581e+01 2.6544491087979424e+01 
1315 1316 2 1.0280000000000160e+00 -1.8490655942715080e+03 1.0000000000000000e+00 3.3278156158339137e+01 2.3760611120732900e+01 2.4449868607497617e+01 
4534 4535 2 1.0279999999999956e+00 7.5570425571159808e+02 1.0000000000000000e+00 2.7413411179513641e+01 2.2502943271038717e+01 2.7827145857200982e+01 
833 834 2 1.0279999999999996e+00 -2.4215558495131554e+03 1.0000000000000000e+00 2.7520001078692964e+01 2.2207585217671422e+01 2.8662636552531762e+01 
2308 2309 2 1.0280000000000107e+00 1.2871146798137529e+03 1.0000000000000000e+00 2.8862958719204126e+01 2.1747391879122919e+01 2.7481494193909125e+01 
1798 1799 2 1.0279999999999938e+00 8.8353913508416031e+02 1.0000000000000000e+00 2.8958500954075806e+01 2.2134243732594108e+01 2.9762255230239809e+01 
2220 2221 2 1.0280000000000160e+00 2.3096890323352163e+03 1.0000000000000000e+00 2.9069331096114119e+01 2.2012934230864872e+01 2.7577948863787785e+01 
2720 2721 2 1.0280000000000087e+00 2.1387003981839148e+03 1.0000000000000000e+00 2.8035587208015979e+01 2.1299531512175907e+01 2.9934757312252671e+01 
4075 4076 2 1.0279999999999925e+00 1.2226995338027882e+03 1.0000000000000000e+00 2.8879404723700723e+01 2.4230568504964396e+01 2.7816659752054790e+01 
4116 4117 2 1.0280000000000085e+00 1.2229241945760477e+03 1.0000000000000000e+00 2.9037189882043176e+01 2.4343872288705963e+01 2.7734897834012191e+01 
1134 1135 2 1.0279999999999889e+00 9.3970342435544103e+02 1.0000000000000000e+00 2.8830013127555944e+01 2.4388452530131826e+01 2.9537923650300236e+01 
1736 1737 2 1.0279999999999967e+00 -2.9491489574145044e+03 1.0000000000000000e+00 3.0990307348312442e+01 2.3650211506121416e+01 2.9337609815062788e+01 
393 394 2 1.0280000000000102e+00 -5.6666007707404551e+03 1.0000000000000000e+00 3.0766537506401988e+01 2.4007853550328949e+01 2.6948261403834895e+01 
4037 4038 2 1.0279999999999772e+00 2.0566084940442015e+03 1.0000000000000000e+00 3.2721758669135617e+01 2.4665274405909560e+01 2.9505869821456390e+01 
644 645 2 1.0279999999999891e+00 3.0198323069162092e+02 1.0000000000000000e+00 3.1023429817902805e+01 2.4820210105672167e+01 2.9201482530884864e+01 
439 440 2 1.0279999999999905e+00 -2.3071078363733841e+03 1.0000000000000000e+00 3.1075583536122597e+01 2.4949331427336059e+01 2.7085445813972516e+01 
2738 2739 2 1.0279999999999927e+00 -1.0361728206683542e+03 1.0000000000000000e+00 3.2586076139664925e+01 2.4872099844605575e+01 2.8414409786518060e+01 
4494 4495 2 1.0280000000000151e+00 -4.5374098367015140e+03 1.0000000000000000e+00 2.8235413253744731e+01 2.1733590047230681e+01 3.1464432791488232e+01 
420 421 2 1.0280000000000018e+00 -2.8281654788982833e+03 1.0000000000000000e+00 2.8356512487858783e+01 2.2818930058238728e+01 3.0723994168953034e+01 
1385 1386 2 1.0280000000000042e+00 -9.2758593516738415e+02 1.0000000000000000e+00 2.8565212662666543e+01 2.0609776542633224e+01 3.1346805947500329e+01 
2180 2181 2 1.0279999999999987e+00 6.2307368990402974e+03 1.0000000000000000e+00 3.0522261600986088e+01 2.3314644347252575e+01 3.2109015830572638e+01 
3857 3858 2 1.0279999999999871e+00 4.5001658621439346e+03 1.0000000000000000e+00 3.0627801671921976e+01 2.1907670001180577e+01 3.1680948215798328e+01 
2685 2686 2 1.0279999999999903e+00 -3.0483442905207985e+03 1.0000000000000000e+00 3.1753204923979435e+01 2.1434415641082047e+01 3.2560477104877016e+01 
1799 1800 2 1.0279999999999958e+00 2.2429698251435400e+02 1.0000000000000000e+00 3.0370748665961703e+01 2.0745044029420754e+01 3.2412005905121752e+01 
1093 1094 2 1.0280000000000109e+00 9.4142929616741503e+02 1.0000000000000000e+00 2.9229290179507682e+01 2.4356777903125977e+01 3.0007882538355720e+01 
1717 1718 2 1.0280000000000207e+00 -6.8929324633443031e+01 1.0000000000000000e+00 3.0203927139516388e+01 2.3397147573149319e+01 3.1273353395390281e+01 
3654 3655 2 1.0279999999999874e+00 -7.1304592580306871e+02 1.0000000000000000e+00 3.2282313623791048e+01 2.3795848169499294e+01 3.2413122101418097e+01 
57 58 2 1.0280000000000187e+00 -5.6620595292869111e+03 1.0000000000000000e+00 3.1795796057421136e+01 2.3833267139837389e+01 3.0110750076357942e+01 
1344 1345 2 1.0280000000000060e+00 -7.1321039535324599e+02 1.0000000000000000e+00 3.2679528333954075e+01 2.5281194065001280e+01 3.2989110098923433e+01 
3613 3614 2 1.0279999999999958e+00 -7.1312784018851676e+02 1.0000000000000000e+00 3.3263620417047363e+01 2.3755624310789276e+01 3.2669896911630197e+01 
1303 1304 2 1.0279999999999803e+00 -7.1313926376620407e+02 1.0000000000000000e+00 3.3328921703402493e+01 2.5339941680262086e+01 3.3086707961551696e+01 
1675 1676 2 1.0279999999999925e+00 -1.2499621981889231e+03 1.0000000000000000e+00 3.1429248208963436e+01 2.2811999373496359e+01 3.3532443475883348e+01 
923 924 2 1.0279999999999836e+00 -4.7823400415640435e+01 1.0000000000000000e+00 3.1676811308720929e+01 2.1987675485816919e+01 3.5451559337008540e+01 
924 925 2 1.0279999999999900e+00 -4.3412619259057246e+03 1.0000000000000000e+00 3.1804290872703380e+01 2.1609388510173723e+01 3.4493440994859817e+01 
2307 2308 2 1.0280000000000025e+00 3.0653029404498830e+02 1.0000000000000000e+00 3.1844052409260915e+01 2.0912376243931636e+01 3.6625201797915302e+01 
3149 3150 2 1.0280000000000065e+00 2.3580029562791033e+03 1.0000000000000000e+00 3.1802327664158604e+01 2.3667123024287545e+01 3.4612070354373429e+01 
1763 1764 2 1.0279999999999958e+00 2.3579559848152176e+03 1.0000000000000000e+00 3.1994393809804340e+01 2.4636825554004897e+01 3.5037753019692154e+01 
3061 3062 2 1.0279999999999794e+00 -1.2503425025408187e+03 1.0000000000000000e+00 3.2460773950025242e+01 2.6087111579059226e+01 3.4958421117999784e+01 
4158 4159 2 1.0279999999999994e+00 -4.3413199842637569e+03 1.0000000000000000e+00 3.2552663646588819e+01 2.6193690677693628e+01 3.6124653907022235e+01 