LAMMPS data file via write_data, version 30 Jul 2016, timestep = 50000000

4620 atoms
8 atom types

0.0000000000000000e+00 1.0000000000000000e+02 xlo xhi
0.0000000000000000e+00 4.0000000000000000e+01 ylo yhi
0.0000000000000000e+00 4.0000000000000000e+01 zlo zhi

Masses

1 3.896
2 5.36
3 20.064
4 8.378
5 8.378
6 8.378
7 8.378
8 8.378

Atoms # meso-molecular

3143 3144 2 1.0279999999999683e+00 -1.1874984104747932e+03 1.0000000000000000e+00 3.2878567228305123e+01 1.9989308439336696e+01 3.9699416222194328e+00 
1631 1632 2 1.0280000000000278e+00 -3.2812639895796053e+02 1.0000000000000000e+00 1.7639051637513205e+01 3.9671678148652922e-01 9.7568257169677093e+00 
672 673 2 1.0279999999998990e+00 -3.4588443767794079e+03 1.0000000000000000e+00 1.9398702967715895e+01 1.7015730272046541e+00 9.2881090121546013e+00 
631 632 2 1.0279999999999541e+00 -3.4548362942785288e+03 1.0000000000000000e+00 1.9379901323093648e+01 1.7117186350976956e+00 9.2926228716302628e+00 
2060 2061 2 1.0280000000000611e+00 4.1634068190529668e+01 1.0000000000000000e+00 2.1902901750180057e+01 3.5372926727246662e-01 9.8775552423049522e+00 
2952 2953 2 1.0279999999999145e+00 6.8471211272367691e+02 1.0000000000000000e+00 2.4884831317329091e+01 5.7022325621167114e-01 9.3437520540617225e+00 
2030 2031 2 1.0279999999999181e+00 -9.7924275674953469e+02 1.0000000000000000e+00 2.5719607479456783e+01 1.8829818859263554e+00 9.6605787892862391e+00 
1628 1629 2 1.0280000000000431e+00 -1.1443167950581133e+03 1.0000000000000000e+00 1.2107020200519797e+01 5.1596258158564048e+00 6.7088370145329526e+00 
1585 1586 2 1.0279999999999478e+00 6.8663543322280077e+02 1.0000000000000000e+00 1.0607343173205395e+01 3.4371167292216982e+00 9.3550538476954799e+00 
3485 3486 2 1.0280000000001219e+00 -1.8844982876197919e+03 1.0000000000000000e+00 1.1905268723260614e+01 3.6043319231625679e+00 9.4539700691249795e+00 
1669 1670 2 1.0280000000000316e+00 6.8660137275686043e+02 1.0000000000000000e+00 1.0623235530910463e+01 3.3818746194773852e+00 9.6017085567722837e+00 
3594 3595 2 1.0279999999999965e+00 2.6535475040512501e+03 1.0000000000000000e+00 1.2233533199575861e+01 5.1605476391008054e+00 8.1163664185685942e+00 
129 130 2 1.0279999999999805e+00 -5.0896424648149787e+03 1.0000000000000000e+00 1.2405795903468766e+01 3.5490893235672258e+00 6.7625867339334151e+00 
166 167 2 1.0279999999999863e+00 -5.0452358359369846e+03 1.0000000000000000e+00 1.2418965305252883e+01 3.5478626204110784e+00 6.7632861480852133e+00 
949 950 2 1.0279999999999399e+00 3.5635325193248082e+03 1.0000000000000000e+00 1.3581885027397766e+01 4.8832570658088086e+00 7.9203935311632758e+00 
3023 3024 2 1.0279999999999792e+00 4.3435870062911101e+02 1.0000000000000000e+00 1.3179823420680172e+01 4.0081783903422714e+00 9.3938062569496932e+00 
4018 4019 2 1.0280000000000646e+00 -1.0081065497003674e+03 1.0000000000000000e+00 1.3227584400258261e+01 5.6249919537607322e+00 7.1711908722233462e+00 
1633 1634 2 1.0279999999999743e+00 4.5934884400391929e+03 1.0000000000000000e+00 1.4026199674546255e+01 3.6205482848594763e+00 9.7737932883446277e+00 
1602 1603 2 1.0279999999999956e+00 4.6396273908220101e+03 1.0000000000000000e+00 1.5486160686695635e+01 4.3600280594273331e+00 9.5267158480184779e+00 
2522 2523 2 1.0280000000001273e+00 2.9900280275218421e+01 1.0000000000000000e+00 1.6727524964545037e+01 4.6784577427209237e+00 9.9902885721829726e+00 
2603 2604 2 1.0280000000001159e+00 2.6946186008192371e+03 1.0000000000000000e+00 2.1764673357363510e+01 4.8784078079989834e+00 9.2660145039804380e+00 
2141 2142 2 1.0280000000001468e+00 2.6952610286815579e+03 1.0000000000000000e+00 2.1784955949698251e+01 4.9845009730899239e+00 9.2801447336653258e+00 
2777 2778 2 1.0279999999998823e+00 -9.7142069898447494e+02 1.0000000000000000e+00 2.3406205085352980e+01 4.4308327742158049e+00 9.2038707885239326e+00 
1391 1392 2 1.0279999999999767e+00 -9.7196236235128799e+02 1.0000000000000000e+00 2.3707765344391678e+01 6.1687862870721144e+00 9.4891116454081512e+00 
508 509 2 1.0279999999997989e+00 -4.8941731139000197e+01 1.0000000000000000e+00 2.4363016646317515e+01 6.4147656921396417e+00 9.6284925641723884e+00 
3742 3743 2 1.0280000000000047e+00 -4.9360663482407801e+01 1.0000000000000000e+00 2.4580024052433394e+01 4.7228144344067440e+00 9.5385400164730658e+00 
2492 2493 2 1.0280000000000322e+00 -9.9345864457400126e+02 1.0000000000000000e+00 2.6749545127807998e+01 1.6672042229760063e+01 9.3951580797960670e+00 
3446 3447 2 1.0279999999999327e+00 -1.8609175812169667e+03 1.0000000000000000e+00 2.6559543023780702e+01 1.7915438550922062e+01 9.5898803234756098e+00 
3379 3380 2 1.0280000000000102e+00 7.0057197877480053e+02 1.0000000000000000e+00 2.7065361860245737e+01 1.9979963440459191e+01 8.9402716802186735e+00 
1566 1567 2 1.0279999999999998e+00 6.8209030027439508e+02 1.0000000000000000e+00 2.9657330493696030e+01 1.8055289650868303e+01 8.2449699847963682e+00 
1650 1651 2 1.0280000000000107e+00 6.8247954292941552e+02 1.0000000000000000e+00 2.9223456610646672e+01 1.8143065522301690e+01 9.2687392012279091e+00 
2062 2063 2 1.0279999999999814e+00 3.5476058146443620e+02 1.0000000000000000e+00 3.0103322674955937e+01 1.8484753020076070e+01 8.5064980441771763e+00 
568 569 2 1.0280000000000555e+00 2.4263871070580140e+03 1.0000000000000000e+00 2.7905168007718579e+01 1.9762900275802643e+01 8.3293913346870188e+00 
756 757 2 1.0279999999999825e+00 -3.4580727868640306e+03 1.0000000000000000e+00 1.9958720722181567e+01 1.7426444299374966e+00 1.1745070013137159e+01 
715 716 2 1.0279999999999623e+00 -3.4539981588099272e+03 1.0000000000000000e+00 1.9942900278208999e+01 1.7512208716913544e+00 1.1743982988314521e+01 
3479 3480 2 1.0280000000001102e+00 1.0177999860895932e+04 1.0000000000000000e+00 2.1050227000225895e+01 2.8131616213130521e+00 1.0176745083970760e+01 
2552 2553 2 1.0280000000000715e+00 -1.0573809770720786e+03 1.0000000000000000e+00 1.9735705453781687e+01 2.9155747550533428e+00 1.0515346244486002e+01 
2983 2984 2 1.0280000000000009e+00 -2.5880992292075589e+03 1.0000000000000000e+00 2.1453072894388139e+01 2.0184883335568555e+00 1.0629234905400109e+01 
1604 1605 2 1.0280000000001095e+00 -3.3653523069391065e+02 1.0000000000000000e+00 2.1901255283592512e+01 3.3754302585097956e-01 1.0002820758988156e+01 
3036 3037 2 1.0279999999999314e+00 6.8456933234885298e+02 1.0000000000000000e+00 2.4914900243441377e+01 6.6352395092506444e-01 1.0566747715450436e+01 
2114 2115 2 1.0280000000000689e+00 -9.7979409375581577e+02 1.0000000000000000e+00 2.5648852104923421e+01 1.9164790527807809e+00 1.0562884001156375e+01 
2992 2993 2 1.0279999999999705e+00 -3.9472531061938571e+03 1.0000000000000000e+00 2.7082953776344670e+01 2.5329014697084804e+00 1.0276106877453302e+01 
2993 2994 2 1.0280000000001415e+00 -1.1746249883497981e+03 1.0000000000000000e+00 2.8060103460046690e+01 2.8447682130851062e+00 1.0375811435490878e+01 
2990 2991 2 1.0280000000000762e+00 -3.3951525622135932e+02 1.0000000000000000e+00 1.5213581675280070e+01 3.7897702698418225e+00 1.0156207608835089e+01 
1597 1598 2 1.0279999999998817e+00 -2.5672554899872393e+03 1.0000000000000000e+00 1.7473871467762347e+01 4.4659776893295131e+00 1.0382303254214145e+01 
2090 2091 2 1.0280000000002154e+00 -1.0548131018438658e+03 1.0000000000000000e+00 1.8537485778829971e+01 4.5610150995089223e+00 1.0638607164038778e+01 
1169 1170 2 1.0279999999998610e+00 1.0173667295234754e+04 1.0000000000000000e+00 1.9403349234801780e+01 5.2913727517121378e+00 1.0634247913170539e+01 
2066 2067 2 1.0280000000001628e+00 -7.7056420196796068e+01 1.0000000000000000e+00 2.0250030316626347e+01 5.5601005668591030e+00 1.0827449971658194e+01 
2100 2101 2 1.0279999999999458e+00 -2.4680700902954768e+03 1.0000000000000000e+00 2.1287149082982403e+01 5.4008884537005475e+00 1.1240539660102828e+01 
2562 2563 2 1.0279999999999336e+00 -2.4677025883355700e+03 1.0000000000000000e+00 2.2406543274844907e+01 3.7249546772931361e+00 1.1025483076611849e+01 
3448 3449 2 1.0279999999999776e+00 -1.6622593213018563e+03 1.0000000000000000e+00 2.2697377127902463e+01 4.5472335294154300e+00 1.2256946810934332e+01 
2528 2529 2 1.0280000000002190e+00 -7.5980023300766987e+01 1.0000000000000000e+00 2.3565815018243690e+01 3.9156663680668728e+00 1.0728998660839567e+01 
1138 1139 2 1.0280000000000284e+00 -1.6633775977569831e+03 1.0000000000000000e+00 2.2338407068991792e+01 5.2924669995790294e+00 1.2064366793082543e+01 
673 674 2 1.0280000000000686e+00 -1.6593232206971129e+03 1.0000000000000000e+00 2.3993892439112120e+01 6.6240335512370132e+00 1.1273520430438353e+01 
1173 1174 2 1.0280000000001261e+00 -1.6626913889692541e+03 1.0000000000000000e+00 2.4436712767015848e+01 6.3036160693982985e+00 1.2162103486862835e+01 
3483 3484 2 1.0279999999999696e+00 -1.6612303194768333e+03 1.0000000000000000e+00 2.4575275365712251e+01 5.1238551252242424e+00 1.2101621895847320e+01 
3907 3908 2 1.0279999999999154e+00 -1.6589928988151819e+03 1.0000000000000000e+00 2.5056784978914123e+01 4.6993044886572299e+00 1.0980757419624187e+01 
2531 2532 2 1.0279999999999443e+00 -1.0632256460315493e+03 1.0000000000000000e+00 2.6234461199448603e+01 5.8196919696262706e+00 1.0888872521684563e+01 
3486 3487 2 1.0280000000006762e+00 -1.7614499500870502e+03 1.0000000000000000e+00 2.6635221724785684e+01 6.3461523799163091e+00 1.1017825408260299e+01 
3453 3454 2 1.0279999999997778e+00 4.6745434539788675e+03 1.0000000000000000e+00 2.8201300283005779e+01 3.6055193866653488e+00 1.0457377773311634e+01 
2098 2099 2 1.0279999999996881e+00 3.8491410071328573e+03 1.0000000000000000e+00 2.8214272200216165e+01 5.0709403838775806e+00 1.0743786577925761e+01 
3016 3017 2 1.0280000000006166e+00 -2.7060031588738602e+03 1.0000000000000000e+00 2.8805390115838044e+01 5.7175761094126845e+00 1.0713758170403166e+01 
3452 3453 2 1.0279999999999800e+00 1.0138536334692970e+04 1.0000000000000000e+00 3.2092199050294226e+01 6.3191228537113000e+00 1.0501786085313011e+01 
2061 2062 2 1.0280000000001956e+00 3.8107313717234983e+03 1.0000000000000000e+00 3.1087843807585273e+01 6.3186351980303828e+00 1.0428045508309852e+01 
2069 2070 2 1.0279999999997724e+00 -1.0647203424069539e+03 1.0000000000000000e+00 2.4875877168396645e+01 8.0356646101945373e+00 1.0720950958153734e+01 
1176 1177 2 1.0280000000001335e+00 -1.7622428674495302e+03 1.0000000000000000e+00 2.5816822262936142e+01 8.8050561039362858e+00 1.0797685206951869e+01 
1135 1136 2 1.0280000000000022e+00 -1.7665252554072424e+03 1.0000000000000000e+00 2.5189693932496471e+01 9.0431156754202604e+00 1.0788093358947878e+01 
3445 3446 2 1.0279999999994072e+00 -1.7647542268527404e+03 1.0000000000000000e+00 2.7855244781379071e+01 6.7549725444424107e+00 1.0555240306373628e+01 
3946 3947 2 1.0279999999998635e+00 4.8914656488128994e+03 1.0000000000000000e+00 2.7904253700070004e+01 8.3493430583294401e+00 1.0988675060194957e+01 
3447 3448 2 1.0279999999999030e+00 -2.0777966891886472e+03 1.0000000000000000e+00 2.8004085114892757e+01 8.9535057215963665e+00 1.1147497717403652e+01 
2529 2530 2 1.0279999999999396e+00 1.8343447978849172e+03 1.0000000000000000e+00 3.0077183771448137e+01 6.7559965307657812e+00 1.0608302336447377e+01 
716 717 2 1.0280000000002263e+00 7.1082746987970813e+02 1.0000000000000000e+00 2.9824733635576006e+01 8.2774307547810366e+00 1.0499926353673487e+01 
632 633 2 1.0280000000000686e+00 7.1085847523864709e+02 1.0000000000000000e+00 2.9899411678472742e+01 8.2968046854894659e+00 1.1404088344624126e+01 
2991 2992 2 1.0279999999999196e+00 -2.7129963745448022e+03 1.0000000000000000e+00 3.2671514986461176e+01 7.0935362498144903e+00 1.0584647787970480e+01 
2987 2988 2 1.0279999999998390e+00 -1.5406090562387844e+03 1.0000000000000000e+00 3.0924019486556269e+01 9.5254205150709712e+00 1.1182955766897193e+01 
3451 3452 2 1.0279999999997427e+00 4.5137274719739444e+03 1.0000000000000000e+00 2.8783730039016159e+01 1.0139192985847634e+01 1.1586936221898585e+01 
3521 3522 2 1.0280000000001346e+00 1.5105111224439208e+03 1.0000000000000000e+00 3.0157570238357625e+01 1.0509653168321311e+01 1.2123285605301493e+01 
3437 3438 2 1.0280000000000244e+00 1.5108846881054283e+03 1.0000000000000000e+00 3.0173145113412154e+01 1.0548758765312753e+01 1.0615606128498342e+01 
4409 4410 2 1.0280000000000147e+00 -1.1993065202358343e+03 1.0000000000000000e+00 2.8499734747405924e+01 1.1593394700048746e+01 1.1544618429306416e+01 
251 252 2 1.0279999999997289e+00 -1.1981055246705801e+03 1.0000000000000000e+00 2.8345410289056989e+01 1.2177199623216300e+01 1.1592104695801064e+01 
4376 4377 2 1.0279999999998664e+00 -1.0522558968337726e+03 1.0000000000000000e+00 3.0717642329322075e+01 1.1765010154853655e+01 1.1405118282744374e+01 
3450 3451 2 1.0279999999998786e+00 -3.2859700215008013e+02 1.0000000000000000e+00 3.3028179020666158e+01 1.0614080753991901e+01 1.1244003894682503e+01 
217 218 2 1.0280000000001168e+00 -9.8891840189456275e+01 1.0000000000000000e+00 3.1903466304155753e+01 1.0866899624869749e+01 1.1308140032547730e+01 
218 219 2 1.0279999999997600e+00 -1.0515120815993973e+03 1.0000000000000000e+00 3.1049620075455579e+01 1.3117465919194453e+01 1.1496972841960135e+01 
2560 2561 2 1.0279999999999165e+00 3.8482289347635888e+03 1.0000000000000000e+00 2.7556468856329499e+01 1.5538833020671985e+01 1.0388813131465353e+01 
712 713 2 1.0279999999999523e+00 4.8905025162342363e+03 1.0000000000000000e+00 2.7958560299724557e+01 1.4061905490813835e+01 1.1735155492212858e+01 
1141 1142 2 1.0279999999999425e+00 4.5174638784554745e+03 1.0000000000000000e+00 2.8569340847718408e+01 1.3654596412974433e+01 1.2487633946991629e+01 
1137 1138 2 1.0280000000001139e+00 -2.0745644160873226e+03 1.0000000000000000e+00 2.8580614060551259e+01 1.3771694434887277e+01 1.0668487045832073e+01 
1127 1128 2 1.0280000000000202e+00 1.5103991072302467e+03 1.0000000000000000e+00 2.9954038249618396e+01 1.3983605186745471e+01 1.0563718219023027e+01 
1211 1212 2 1.0280000000000726e+00 1.5099998379067924e+03 1.0000000000000000e+00 3.0014344876599171e+01 1.4136045493905975e+01 1.2403389644607904e+01 
3950 3951 2 1.0279999999998348e+00 7.1167441416017994e+02 1.0000000000000000e+00 2.9824046069316484e+01 1.5266948149557653e+01 1.0408337119116958e+01 
3866 3867 2 1.0279999999999994e+00 7.1174741844607615e+02 1.0000000000000000e+00 2.9664177089554549e+01 1.5263591941673935e+01 1.2211174922628995e+01 
1630 1631 2 1.0280000000000873e+00 -2.7077179069219346e+03 1.0000000000000000e+00 2.8127788180126569e+01 1.6167570598294795e+01 1.0293390665569934e+01 
2067 2068 2 1.0280000000000389e+00 1.8324781215635730e+03 1.0000000000000000e+00 2.9849803668857756e+01 1.6387519316903369e+01 1.1252335320612930e+01 
4375 4376 2 1.0280000000002543e+00 -1.0134440365114466e+02 1.0000000000000000e+00 3.1846535925992761e+01 1.3907683429026333e+01 1.1428016137967735e+01 
1140 1141 2 1.0279999999998322e+00 -3.3066259828395368e+02 1.0000000000000000e+00 3.2034993395743854e+01 1.5204988873326327e+01 1.1506867283149754e+01 
1601 1602 2 1.0280000000000715e+00 -1.5408948971005279e+03 1.0000000000000000e+00 3.1321401215901556e+01 1.5751455548086815e+01 1.1587625284599220e+01 
2576 2577 2 1.0279999999999998e+00 -9.9330937887183904e+02 1.0000000000000000e+00 2.6543059461222054e+01 1.6714939130953674e+01 1.0512667983315653e+01 
297 298 2 1.0280000000000185e+00 -5.0896742369261428e+03 1.0000000000000000e+00 2.6529623875994751e+01 1.9013421213134961e+01 1.0675163502830848e+01 
334 335 2 1.0280000000000225e+00 -5.0452487890522752e+03 1.0000000000000000e+00 2.6535202425363597e+01 1.9015321069635082e+01 1.0674861444833423e+01 
2523 2524 2 1.0279999999999427e+00 3.8078338281304677e+03 1.0000000000000000e+00 3.0152093911869564e+01 1.7612948854746346e+01 1.0478081716016675e+01 
172 173 2 1.0279999999998204e+00 5.7261640829921384e+02 1.0000000000000000e+00 3.2700652090305631e+01 1.7556841690565133e+01 1.2002155960723940e+01 
1605 1606 2 1.0280000000000760e+00 -2.7146265700857912e+03 1.0000000000000000e+00 3.1601087553858594e+01 1.8485710586973923e+01 1.0617302512755769e+01 
1142 1143 2 1.0279999999999363e+00 1.0137464212721501e+04 1.0000000000000000e+00 3.0849657297109022e+01 1.8595246580929118e+01 1.0637565474030962e+01 
674 675 2 1.0280000000000238e+00 1.5280388253837627e+03 1.0000000000000000e+00 3.2894626418752509e+01 1.9406267409902085e+01 1.0630838379072339e+01 
3528 3529 2 1.0280000000000498e+00 9.4545005438538874e+02 1.0000000000000000e+00 2.3863595012301172e+01 5.9038687768737477e+00 1.4308519119562746e+01 
505 506 2 1.0279999999999623e+00 1.2261960376456609e+03 1.0000000000000000e+00 2.3457763400756914e+01 6.0832554169784441e+00 1.5711355950086888e+01 
546 547 2 1.0279999999999965e+00 1.2244728436156201e+03 1.0000000000000000e+00 2.3468696585584389e+01 6.0833391577759688e+00 1.5717272837765007e+01 
3487 3488 2 1.0279999999999865e+00 9.4477200146812675e+02 1.0000000000000000e+00 2.5210700671843178e+01 6.3868782555303918e+00 1.4133824201083369e+01 
3329 3330 2 1.0279999999999496e+00 2.0229868433712595e+03 1.0000000000000000e+00 2.5159091152437437e+01 6.5550002619334933e+00 1.4453400504153564e+01 
3028 3029 2 1.0279999999999720e+00 -2.8229483154412328e+03 1.0000000000000000e+00 3.3283992821507091e+01 1.5216202063289161e+01 1.5874106618127836e+01 
1683 1684 2 1.0280000000000056e+00 -3.0462376601474371e+03 1.0000000000000000e+00 3.2667970012880780e+01 1.6423744889225119e+01 1.6209391457916027e+01 
1766 1767 2 1.0279999999999969e+00 -3.0085517529732924e+03 1.0000000000000000e+00 3.2667979366256390e+01 1.6423777781780132e+01 1.6209331598101222e+01 
928 929 2 1.0280000000000822e+00 4.2886138588794756e+03 1.0000000000000000e+00 3.2856744062886996e+01 1.7624543459302529e+01 1.3385031622192086e+01 
302 303 2 1.0280000000001444e+00 -1.5076850845783238e+03 1.0000000000000000e+00 3.2818555810451954e+01 1.7670415247639941e+01 1.3376925855037680e+01 
1300 1301 2 1.0279999999999903e+00 -7.1527493943914760e+02 1.0000000000000000e+00 2.9504514428041013e+01 1.9966739045858233e+01 3.1651746050991353e+01 
425 426 2 1.0280000000000191e+00 -3.2356164048511037e+03 1.0000000000000000e+00 3.0195562149104127e+01 1.8797935133283996e+01 3.2644401648292217e+01 
3532 3533 2 1.0279999999999776e+00 3.0371371674357497e+03 1.0000000000000000e+00 3.0240504843684043e+01 1.8797916003909023e+01 3.2682701050814970e+01 
2768 2769 2 1.0280000000000116e+00 -1.8801193432469636e+03 1.0000000000000000e+00 3.2052221057427772e+01 1.9781395857871292e+01 3.3269467635772386e+01 
4451 4452 2 1.0280000000000089e+00 7.5364298695388482e+02 1.0000000000000000e+00 3.2955505105955346e+01 1.9648935523738757e+01 3.3055019937422735e+01 
969 970 2 1.0280000000000076e+00 4.4893311908910691e+03 1.0000000000000000e+00 3.0953255155764960e+01 1.9617188975971136e+01 3.4726341090351625e+01 
377 378 2 1.0280000000000140e+00 -1.3441047279207687e+03 1.0000000000000000e+00 3.1029762483026431e+01 1.9471356817251692e+01 3.4870683700936731e+01 
1716 1717 2 1.0280000000000047e+00 -1.7823446051532801e+03 1.0000000000000000e+00 3.2879683334524437e+01 1.9524968056689399e+01 3.5428357510626697e+01 
2184 2185 2 1.0279999999999898e+00 -3.8588285853733105e+03 1.0000000000000000e+00 3.2734785373168386e+01 1.9421441500749417e+01 3.5794861981288477e+01 
2447 2448 2 1.0279999999999920e+00 3.8785748793342725e+02 1.0000000000000000e+00 3.2282393553346310e+01 2.4161292707580163e+01 1.5258104425433481e+00 
479 480 2 1.0279999999999991e+00 8.6576526878727520e+02 1.0000000000000000e+00 3.1726414205785140e+01 2.5377780036033748e+01 4.4249031915375042e-01 
2870 2871 2 1.0280000000000105e+00 -2.9058434456544501e+03 1.0000000000000000e+00 3.2677639055306393e+01 2.4803034021822359e+01 2.0584784664236855e+00 
4215 4216 2 1.0279999999999891e+00 -5.6954142137219151e+03 1.0000000000000000e+00 3.3312455181734308e+01 2.3962038275860369e+01 2.3474908123986666e+00 
3651 3652 2 1.0279999999999276e+00 -1.1028135799189542e+01 1.0000000000000000e+00 3.2991820964320766e+01 2.0276315777851856e+01 3.9461361254989047e+00 
1359 1360 2 1.0280000000000058e+00 5.9436478267367158e+02 1.0000000000000000e+00 3.3030892252915471e+01 3.2305155957329028e+01 5.8962886963502186e+00 
3384 3385 2 1.0279999999999330e+00 5.1668422094134939e+02 1.0000000000000000e+00 2.8040703224246290e+01 2.0240800184166265e+01 8.9087544418900801e+00 
1282 1283 2 1.0279999999999982e+00 6.8889988757618312e+03 1.0000000000000000e+00 3.2845264662921025e+01 3.1500610670741079e+01 9.4264811796473182e+00 
655 656 2 1.0280000000000109e+00 -1.1017497983226058e+03 1.0000000000000000e+00 3.3032482515370596e+01 3.1591488721032224e+01 9.9590174074519844e+00 
2971 2972 2 1.0279999999999878e+00 6.8601175619029254e+02 1.0000000000000000e+00 1.7809606984767914e+01 3.8842637572354420e+01 8.8253008590354725e+00 
2045 2046 2 1.0279999999999199e+00 -9.8701702316959882e+02 1.0000000000000000e+00 1.7471842976643597e+01 3.9493469081915997e+01 8.6620484264680115e+00 
3019 3020 2 1.0280000000001026e+00 4.5953755510584160e+03 1.0000000000000000e+00 1.9743212608208488e+01 3.8919104519303062e+01 9.7376079148924202e+00 
2988 2989 2 1.0280000000001577e+00 4.6300299468426792e+03 1.0000000000000000e+00 2.0591117100477149e+01 3.8728148888431683e+01 9.8245848182611759e+00 
2099 2100 2 1.0280000000001193e+00 -1.6982489110784471e+01 1.0000000000000000e+00 1.9282146542962948e+01 3.9853185653802385e+01 9.9582208546566218e+00 
4324 4325 2 1.0279999999999885e+00 -5.0468234661053484e+03 1.0000000000000000e+00 2.2129739440653012e+01 3.8271615795733481e+01 9.0806831446393854e+00 
4287 4288 2 1.0279999999999356e+00 -5.0898385071350949e+03 1.0000000000000000e+00 2.2129778813686716e+01 3.8272097808516705e+01 9.0799971380551074e+00 
1136 1137 2 1.0279999999999563e+00 -1.8735916445056330e+03 1.0000000000000000e+00 2.3528941223737863e+01 3.9332303738894744e+01 9.6859925222254546e+00 
2524 2525 2 1.0279999999999718e+00 3.6345422045422191e+02 1.0000000000000000e+00 2.4422137631856629e+01 3.9422533412993573e+01 9.8642677819488469e+00 
3878 3879 2 1.0279999999999883e+00 2.5507606357316786e+02 1.0000000000000000e+00 3.3150042992578186e+01 2.2091750698494653e+01 1.2961252346113699e+01 
3055 3056 2 1.0280000000000677e+00 6.8588592665960437e+02 1.0000000000000000e+00 1.7567664951042790e+01 3.8779920255579867e+01 1.0426696600864320e+01 
2129 2130 2 1.0279999999999851e+00 -9.8708458863388159e+02 1.0000000000000000e+00 1.7188424861537495e+01 3.9486504887295865e+01 1.0601425772129067e+01 
1823 1824 2 1.0280000000000094e+00 1.4428907945868459e+03 1.0000000000000000e+00 3.3290606818537832e+01 2.6986669850240105e+01 1.8944694806690070e+01 
3082 3083 2 1.0280000000000080e+00 1.4190392707420860e+03 1.0000000000000000e+00 3.1956860088279122e+01 2.5627000329554612e+01 2.3243888928691852e+01 
4550 4551 2 1.0279999999999812e+00 -3.3627186921933644e+03 1.0000000000000000e+00 3.2614937027187267e+01 2.6088984342796284e+01 2.2455554596258931e+01 
305 306 2 1.0280000000000138e+00 -4.8559387152886885e+01 1.0000000000000000e+00 3.3146655434105874e+01 2.6241902570064848e+01 2.1564899010508281e+01 
1343 1344 2 1.0279999999999905e+00 -6.9322091982203233e+02 1.0000000000000000e+00 2.6734287168747560e+01 2.2695658815769413e+01 2.6088654963463473e+01 
1215 1216 2 1.0279999999999974e+00 -9.1903748775923282e+02 1.0000000000000000e+00 2.7157891378789980e+01 2.2105228306302998e+01 2.5548689049046711e+01 
1304 1305 2 1.0280000000000060e+00 -6.3271078381350981e+02 1.0000000000000000e+00 2.7754697506017393e+01 2.2724088927287831e+01 2.5776974626005032e+01 
2154 2155 2 1.0280000000000056e+00 3.0150909319112689e+03 1.0000000000000000e+00 3.3224149232964308e+01 2.3523044266522213e+01 2.4347920255791294e+01 
728 729 2 1.0280000000000087e+00 3.1280501178637678e+02 1.0000000000000000e+00 3.0389849200676284e+01 2.4345810215499252e+01 2.5792546005159387e+01 
3121 3122 2 1.0279999999999927e+00 -2.1185259728410165e+03 1.0000000000000000e+00 3.0908216225584482e+01 2.5091586019756516e+01 2.5164783092252524e+01 
357 358 2 1.0280000000000111e+00 1.7899457846822302e+03 1.0000000000000000e+00 3.1819829065059032e+01 2.4996758027325967e+01 2.3746800074272812e+01 
4039 4040 2 1.0279999999999885e+00 2.1476025523372550e+03 1.0000000000000000e+00 3.2218076964747418e+01 2.5209259179130395e+01 2.5508386018281989e+01 
3625 3626 2 1.0280000000000136e+00 -1.8145968488769572e+03 1.0000000000000000e+00 3.3052346100686620e+01 2.5346627901017889e+01 2.6544491080216158e+01 
1315 1316 2 1.0279999999999865e+00 -1.8490655942715080e+03 1.0000000000000000e+00 3.3278156164023478e+01 2.3760611117822236e+01 2.4449868599036822e+01 
4534 4535 2 1.0280000000000000e+00 7.5570425571159808e+02 1.0000000000000000e+00 2.7413411186981712e+01 2.2502943266633544e+01 2.7827145849731117e+01 
833 834 2 1.0279999999999856e+00 -2.4215558495131554e+03 1.0000000000000000e+00 2.7520001086194739e+01 2.2207585213167970e+01 2.8662636545125743e+01 
2308 2309 2 1.0279999999999951e+00 1.2871146798137529e+03 1.0000000000000000e+00 2.8862958726557117e+01 2.1747391874763863e+01 2.7481494186344968e+01 
1798 1799 2 1.0279999999999945e+00 8.8353913508416031e+02 1.0000000000000000e+00 2.8958500961264413e+01 2.2134243728005305e+01 2.9762255222993019e+01 
2220 2221 2 1.0279999999999829e+00 2.3096890323352163e+03 1.0000000000000000e+00 2.9069331103463025e+01 2.2012934226579425e+01 2.7577948856257599e+01 
2720 2721 2 1.0280000000000078e+00 2.1387003981839148e+03 1.0000000000000000e+00 2.8035587215168512e+01 2.1299531507589499e+01 2.9934757305070324e+01 
4075 4076 2 1.0280000000000129e+00 1.2226995338027882e+03 1.0000000000000000e+00 2.8879404730721472e+01 2.4230568500701139e+01 2.7816659744628673e+01 
4116 4117 2 1.0279999999999865e+00 1.2229241945760477e+03 1.0000000000000000e+00 2.9037189889073211e+01 2.4343872284442707e+01 2.7734897826659854e+01 
1134 1135 2 1.0280000000000071e+00 9.3970342435544103e+02 1.0000000000000000e+00 2.8830013134654163e+01 2.4388452525384988e+01 2.9537923642937081e+01 
1736 1737 2 1.0279999999999989e+00 -2.9491489574145044e+03 1.0000000000000000e+00 3.0990307355417162e+01 2.3650211501763117e+01 2.9337609807790486e+01 
393 394 2 1.0280000000000005e+00 -5.6666007707404551e+03 1.0000000000000000e+00 3.0766537512810693e+01 2.4007853546548837e+01 2.6948261395386343e+01 
4037 4038 2 1.0280000000000189e+00 2.0566084940442015e+03 1.0000000000000000e+00 3.2721758675916298e+01 2.4665274401646304e+01 2.9505869814069893e+01 
644 645 2 1.0280000000000054e+00 3.0198323069162092e+02 1.0000000000000000e+00 3.1023429824852460e+01 2.4820210101390209e+01 2.9201482523594745e+01 
439 440 2 1.0280000000000076e+00 -2.3071078363733841e+03 1.0000000000000000e+00 3.1075583543148976e+01 2.4949331423283120e+01 2.7085445805947664e+01 
2738 2739 2 1.0279999999999818e+00 -1.0361728206683542e+03 1.0000000000000000e+00 3.2586076145733067e+01 2.4872099840342319e+01 2.8414409778827096e+01 
4494 4495 2 1.0280000000000011e+00 -4.5374098367015140e+03 1.0000000000000000e+00 2.8235413260868604e+01 2.1733590042117719e+01 3.1464432784262677e+01 
420 421 2 1.0279999999999985e+00 -2.8281654788982833e+03 1.0000000000000000e+00 2.8356512495069754e+01 2.2818930053457660e+01 3.0723994161753051e+01 
1385 1386 2 1.0280000000000244e+00 -9.2758593516738415e+02 1.0000000000000000e+00 2.8565212669771970e+01 2.0609776537706942e+01 3.1346805940287464e+01 
2180 2181 2 1.0279999999999927e+00 6.2307368990402974e+03 1.0000000000000000e+00 3.0522261607954107e+01 2.3314644342324627e+01 3.2109015823680153e+01 
3857 3858 2 1.0280000000000087e+00 4.5001658621439346e+03 1.0000000000000000e+00 3.0627801679076672e+01 2.1907669996334640e+01 3.1680948208691532e+01 
2685 2686 2 1.0279999999999976e+00 -3.0483442905207985e+03 1.0000000000000000e+00 3.1753204931086664e+01 2.1434415636365824e+01 3.2560477098132729e+01 
1799 1800 2 1.0279999999999776e+00 2.2429698251435400e+02 1.0000000000000000e+00 3.0370748673067130e+01 2.0745044024033604e+01 3.2412005897239837e+01 
1093 1094 2 1.0279999999999969e+00 9.4142929616741503e+02 1.0000000000000000e+00 2.9229290186612456e+01 2.4356777898296034e+01 3.0007882531017721e+01 
1717 1718 2 1.0280000000000011e+00 -6.8929324633443031e+01 1.0000000000000000e+00 3.0203927146621815e+01 2.3397147567927941e+01 3.1273353388098599e+01 
3654 3655 2 1.0279999999999974e+00 -7.1304592580306871e+02 1.0000000000000000e+00 3.2282313629714452e+01 2.3795848163814952e+01 3.2413122093938220e+01 
57 58 2 1.0280000000000107e+00 -5.6620595292869111e+03 1.0000000000000000e+00 3.1795796064524129e+01 2.3833267135574133e+01 3.0110750069106118e+01 
1344 1345 2 1.0279999999999863e+00 -7.1321039535324599e+02 1.0000000000000000e+00 3.2679528340970130e+01 2.5281194059316938e+01 3.2989110093170162e+01 
3613 3614 2 1.0279999999999685e+00 -7.1312784018851676e+02 1.0000000000000000e+00 3.3263620422749874e+01 2.3755624305144622e+01 3.2669896905095605e+01 
1303 1304 2 1.0280000000000042e+00 -7.1313926376620407e+02 1.0000000000000000e+00 3.3328921709956632e+01 2.5339941674642780e+01 3.3086707955751457e+01 
1675 1676 2 1.0280000000000165e+00 -1.2499621981889231e+03 1.0000000000000000e+00 3.1429248216285874e+01 2.2811999367812017e+01 3.3532443469275279e+01 
923 924 2 1.0280000000000080e+00 -4.7823400415640435e+01 1.0000000000000000e+00 3.1676811315699769e+01 2.1987675480381437e+01 3.5451559331263276e+01 
924 925 2 1.0280000000000107e+00 -4.3412619259057246e+03 1.0000000000000000e+00 3.1804290879805077e+01 2.1609388504554008e+01 3.4493440989145753e+01 
2307 2308 2 1.0279999999999958e+00 3.0653029404498830e+02 1.0000000000000000e+00 3.1844052416366342e+01 2.0912376238247294e+01 3.6625201792093662e+01 
3149 3150 2 1.0279999999999958e+00 2.3580029562791033e+03 1.0000000000000000e+00 3.1802327671087042e+01 2.3667123018603203e+01 3.4612070347876788e+01 
1763 1764 2 1.0279999999999907e+00 2.3579559848152176e+03 1.0000000000000000e+00 3.1994393816717732e+01 2.4636825548407728e+01 3.5037753014007812e+01 
3061 3062 2 1.0279999999999863e+00 -1.2503425025408187e+03 1.0000000000000000e+00 3.2460773956597365e+01 2.6087111573387258e+01 3.4958421112313523e+01 
4158 4159 2 1.0280000000000031e+00 -4.3413199842637569e+03 1.0000000000000000e+00 3.2552663652778122e+01 2.6193690672018533e+01 3.6124653901337894e+01 