LAMMPS data file via write_data, version 30 Jul 2016, timestep = 50000000

4620 atoms
8 atom types

0.0000000000000000e+00 1.0000000000000000e+02 xlo xhi
0.0000000000000000e+00 4.0000000000000000e+01 ylo yhi
0.0000000000000000e+00 4.0000000000000000e+01 zlo zhi

Masses

1 3.896
2 5.36
3 20.064
4 8.378
5 8.378
6 8.378
7 8.378
8 8.378

Atoms # meso-molecular

2646 2647 2 1.0843766386169473e+00 -2.0177435659272520e+00 1.0000000000000000e+00 2.6028550686960457e+01 1.1586081048450665e+00 7.0304705193453010e-01 
2195 2196 2 1.0843766386169473e+00 1.8025675100417080e+00 1.0000000000000000e+00 2.8048454193256752e+01 3.5069928318404192e-01 9.9902873750679499e-01 
3057 3058 2 1.0843766380276505e+00 2.2583650205807402e+00 1.0000000000000000e+00 3.2403657124681970e+01 1.4404748477274543e-01 5.0475982150648808e-02 
3418 3419 2 1.0843801260931079e+00 -9.5485450010043174e+00 1.0000000000000000e+00 1.4767496969728510e+01 1.7610059162338292e+00 9.7540584787065576e-01 
3045 3046 2 1.0843766380276505e+00 -1.0626895519045323e+01 1.0000000000000000e+00 3.4351824363295895e+00 3.2522642621419262e+00 6.1791140612180639e-01 
621 622 2 1.0843766406458022e+00 -2.1247272468433835e+00 1.0000000000000000e+00 1.3630820776426843e+01 4.1730999050588933e+00 1.3730432642285548e+00 
4219 4220 2 1.0843766380276505e+00 -2.3239732405040775e-01 1.0000000000000000e+00 2.7955220479958026e+01 4.5783019393895996e+00 8.5062140089954985e-01 
1241 1242 2 1.0843766380276505e+00 -5.2192742959896563e+00 1.0000000000000000e+00 3.0860615366271162e+01 5.4483481942347991e+00 3.6922729714788671e-01 
4608 4609 2 1.0843766380276505e+00 1.3911784585141266e+01 1.0000000000000000e+00 1.2029794536426342e+01 6.3653630491058122e+00 3.3858657814673959e-01 
4478 4479 2 1.0843766380276505e+00 5.4484633608984669e+00 1.0000000000000000e+00 1.9805198383952440e+01 7.2630372322740300e+00 1.1068812275681814e+00 
2631 2632 2 1.0843766380276505e+00 1.7337160752084300e+00 1.0000000000000000e+00 2.8977246308068409e+01 7.1417885962561218e+00 1.3951684674810074e+00 
2553 2554 2 1.0843766380276505e+00 2.1493711047529956e+01 1.0000000000000000e+00 3.0313863869359327e+01 8.8531083341256025e+00 9.6127694467232572e-01 
3590 3591 2 1.0843766380276505e+00 5.5413608636397527e-01 1.0000000000000000e+00 3.4486848684257239e+00 9.7503732413648869e+00 6.7495953880817738e-01 
2370 2371 2 1.0843766380276505e+00 -4.3909670588339829e+00 1.0000000000000000e+00 7.0566215921628004e+00 1.0062878717900144e+01 1.2462481493998757e-01 
2757 2758 2 1.0843766380276505e+00 7.8629191523685726e-01 1.0000000000000000e+00 1.0976999510777533e+01 1.1130712828135028e+01 1.3754922703807999e+00 
2226 2227 2 1.0843766380276505e+00 2.6689194626956176e+00 1.0000000000000000e+00 1.3173202475683311e+01 1.2049356194318987e+01 1.0531323888000201e+00 
1807 1808 2 1.0843766380276505e+00 1.0814211340216470e+01 1.0000000000000000e+00 1.9092385852303419e+01 1.1782870799148233e+01 1.3504478157674857e+00 
22 23 2 1.0843766380276505e+00 1.7642052933411712e+01 1.0000000000000000e+00 2.4745538483341061e+01 1.1114236995207813e+01 4.4784638702945695e-01 
2678 2679 2 1.0843766380276505e+00 -1.3301799479120341e+01 1.0000000000000000e+00 6.9426573681595061e+00 1.2655532550005203e+01 5.6061709691376660e-01 
913 914 2 1.0843766380276505e+00 3.1912268050292996e+00 1.0000000000000000e+00 1.0068880049362251e+01 1.3315926891620791e+01 1.2883478364673844e+00 
1857 1858 2 1.0843766380276505e+00 5.8175724192201042e+00 1.0000000000000000e+00 1.7239491997877309e+01 1.2899369611575608e+01 8.9891194935716068e-01 
2056 2057 2 1.0843766380276505e+00 -4.9703797769490521e-01 1.0000000000000000e+00 2.3902075471096044e+01 1.3300835798041168e+01 1.1478529828514754e+00 
3210 3211 2 1.0843766380276505e+00 8.5029452896668012e-01 1.0000000000000000e+00 2.6714815740771240e+01 1.2764583971622280e+01 2.5072796248322138e-01 
377 378 2 1.0843766380276505e+00 6.1802566399687269e+00 1.0000000000000000e+00 1.1161981748563507e+01 1.5243674031689732e+01 2.0016345278615627e-01 
2197 2198 2 1.0843766380276505e+00 -8.7852881714689381e+00 1.0000000000000000e+00 1.5908901120564307e+01 1.4659368172777429e+01 1.2215255333704078e+00 
741 742 2 1.0843766380276505e+00 3.1336297770711221e+00 1.0000000000000000e+00 3.0622865983095473e+01 1.5107330891286509e+01 8.5849446912355309e-01 
2650 2651 2 1.0843766380276505e+00 2.5690435150538562e+00 1.0000000000000000e+00 2.5215083313143129e+01 1.5507350101460675e+01 5.1701344455855969e-01 
3586 3587 2 1.0843766380276505e+00 -3.4236367912746610e+00 1.0000000000000000e+00 5.2788451983476026e-01 1.7961188151754154e+01 1.4569156122004645e+00 
3836 3837 2 1.0843766380276505e+00 5.8287645309489928e+00 1.0000000000000000e+00 1.2334718314286869e+01 1.7439789572190797e+01 1.4539498308867227e-01 
698 699 2 1.0843766380276505e+00 1.9593391262639237e+01 1.0000000000000000e+00 2.3251558563049347e+01 1.7286867417276230e+01 3.7021680502467635e-01 
4616 4617 2 1.0843766380276505e+00 3.0565007632060883e+00 1.0000000000000000e+00 3.0987609392833111e+00 1.9765032572540463e+01 9.7240931499602035e-01 
2274 2275 2 1.0843766380276505e+00 -1.9838717914892241e-02 1.0000000000000000e+00 2.1770126172931697e+01 1.9418686798811500e+01 1.1979069893048688e+00 
4598 4599 2 1.0843766380276505e+00 1.3512060084206734e+01 1.0000000000000000e+00 2.6899242114302030e+01 1.8558821434252884e+01 7.1412998628650004e-01 
3492 3493 2 1.0843766380276505e+00 -8.8154753610390957e-01 1.0000000000000000e+00 6.8009513259855163e+00 2.8058587934933126e+00 2.6989472704868294e+00 
3832 3833 2 1.0843766380276505e+00 -1.0535866506387915e+01 1.0000000000000000e+00 1.1888925767094589e+01 2.6363130938612080e+00 2.5729225159615856e+00 
693 694 2 1.0843766380276505e+00 -4.2475922901782850e+00 1.0000000000000000e+00 2.6191329255360209e+01 2.3122643255750948e+00 2.6234640390120245e+00 
1898 1899 2 1.0843766380276505e+00 -3.1598322687859337e+00 1.0000000000000000e+00 2.8617666932794037e+01 3.0046409321062111e+00 2.5730972272190860e+00 
711 712 2 1.0843766380276505e+00 4.5085843186492625e+00 1.0000000000000000e+00 1.9924053822940424e-01 3.4029506517502393e+00 2.1282056485809209e+00 
1932 1933 2 1.0843766380276505e+00 1.0879056238035478e+01 1.0000000000000000e+00 2.3159774479034756e+01 3.6405235579409996e+00 2.6317573836256920e+00 
122 123 2 1.0843766380276505e+00 4.5579440548979022e+00 1.0000000000000000e+00 1.0127570382035588e+01 5.0327597191515423e+00 2.3781990038082506e+00 
1404 1405 2 1.0843766380276505e+00 1.0356208592213449e+00 1.0000000000000000e+00 2.7175834006474734e+01 5.3931096464213573e+00 2.8395132737170505e+00 
3022 3023 2 1.0843766380276505e+00 1.6157722999433162e+01 1.0000000000000000e+00 3.6809968074171642e+00 7.1903583307996692e+00 2.4704458293295559e+00 
1098 1099 2 1.0843766380276505e+00 -8.4210323964234117e+00 1.0000000000000000e+00 5.9034890990878264e+00 6.8685534354793658e+00 1.8176381046395065e+00 
505 506 2 1.0843766380276505e+00 2.4598993902606630e+00 1.0000000000000000e+00 1.7567556609296890e+01 7.3476003324425179e+00 1.8373990341068867e+00 
454 455 2 1.0843766380276505e+00 2.1910007890745490e+01 1.0000000000000000e+00 1.1091004104310489e+01 8.5194040134474882e+00 2.1090297896464514e+00 
539 540 2 1.0843766380276505e+00 9.8150903492926767e-01 1.0000000000000000e+00 1.5462171643890509e+01 8.7086633092182737e+00 1.7407898418826264e+00 
1503 1504 2 1.0843766380276505e+00 5.3851313393721743e+00 1.0000000000000000e+00 2.2907848210001720e+01 9.1152621577811122e+00 2.8548156133417271e+00 
2423 2424 2 1.0843766380276505e+00 -1.0990472910808847e+01 1.0000000000000000e+00 6.9423080245601136e+00 9.7692413019927073e+00 2.9060613533941053e+00 
3407 3408 2 1.0843766379111783e+00 -2.2070721437329355e+00 1.0000000000000000e+00 1.2611871413646307e+01 1.0540310932276494e+01 3.0414087803153307e+00 
510 511 2 1.0843766380276505e+00 -8.0103617400254663e+00 1.0000000000000000e+00 2.1397082782701116e+01 1.1618797295667894e+01 3.0370195300087133e+00 
928 929 2 1.0843766380276505e+00 3.3980996886680783e+00 1.0000000000000000e+00 2.2820691760017930e+00 1.4210701562171085e+01 2.5628272110562671e+00 
3530 3531 2 1.0843766380276505e+00 8.0032112951099910e-02 1.0000000000000000e+00 2.2917173381386867e+01 1.5011719764734423e+01 2.6625772525096476e+00 
2918 2919 2 1.0843766380276505e+00 -5.9540512072471987e+00 1.0000000000000000e+00 5.1316184913320049e+00 1.6910982842892945e+01 2.9070892243503903e+00 
3849 3850 2 1.0843766380276505e+00 -3.9858417556920802e+00 1.0000000000000000e+00 1.1913816264509908e+01 1.5718060256105288e+01 2.4427658885675054e+00 
1615 1616 2 1.0843766380276505e+00 3.1679922799076454e-01 1.0000000000000000e+00 9.6219591614867639e+00 1.8234608265887541e+01 2.1333097544404422e+00 
2235 2236 2 1.0843766380276505e+00 -1.2036907929022352e+01 1.0000000000000000e+00 1.5232441520337717e+01 1.8022324860535690e+01 2.0286379764385831e+00 
105 106 2 1.0843766380276505e+00 1.7115451811838844e+00 1.0000000000000000e+00 3.1280765049795438e+01 1.7460278668061594e+01 1.8140341630919579e+00 
2307 2308 2 1.0843766380276505e+00 6.7258595517014257e+00 1.0000000000000000e+00 1.6732421354622861e+01 1.9503063485071397e+01 2.8405774466625688e+00 
3020 3021 2 1.0843766380276505e+00 3.0574821143236068e+00 1.0000000000000000e+00 1.9930961221107147e+01 1.8604915377673837e+01 2.5438389615476598e+00 
3932 3933 2 1.0843766380276505e+00 2.1319424799541878e+01 1.0000000000000000e+00 3.8667641954890817e+00 2.0654814317496689e-01 3.3577773186917006e+00 
721 722 2 1.0843766380276505e+00 4.2882136855840365e+00 1.0000000000000000e+00 8.3054330641925631e+00 1.1406402481350844e+00 3.2535270392878588e+00 
418 419 2 1.0843766380276505e+00 -1.1734118274888494e+00 1.0000000000000000e+00 3.1961356738951526e+01 9.9148715011111888e-01 3.8724374518456384e+00 
1311 1312 2 1.0843766380276505e+00 2.4156908985698573e+00 1.0000000000000000e+00 1.8559031924217965e+01 2.3605063805893760e+00 3.8195905165340522e+00 
1379 1380 2 1.0843766380276505e+00 8.4587672457721652e+00 1.0000000000000000e+00 2.1724999791362471e+01 1.8419661832128591e+00 4.0169359353764280e+00 
1934 1935 2 1.0843766380276505e+00 7.7687393275950001e-01 1.0000000000000000e+00 4.2316925600949000e+00 5.7885034450152313e+00 4.1194245988159466e+00 
856 857 2 1.0843766380276505e+00 1.2504127573498467e+00 1.0000000000000000e+00 1.6162466830227725e+01 5.4460339639348581e+00 3.2011970243067323e+00 
2373 2374 2 1.0843766380276505e+00 1.5052533650844877e+00 1.0000000000000000e+00 1.8526783447797531e+01 5.9366287698541349e+00 3.2700515425592100e+00 
2132 2133 2 1.0843766380276505e+00 -1.2375303197779239e+01 1.0000000000000000e+00 2.3262000166643421e+01 5.7114702822568342e+00 4.4471389366520588e+00 
2693 2694 2 1.0843766380276505e+00 -6.9183760706373150e+00 1.0000000000000000e+00 3.0565921103829339e+01 6.5301866225069833e+00 3.5014895567755282e+00 
4158 4159 2 1.0843766380276505e+00 9.0993376642717649e+00 1.0000000000000000e+00 3.0549799364781105e+00 1.0499667262978631e+01 3.9566704236147023e+00 
3481 3482 2 1.0843766380276505e+00 -4.3686169646863711e+00 1.0000000000000000e+00 3.0408742059954761e+01 9.9935862834853264e+00 3.6735196697925239e+00 
2749 2750 2 1.0843766380276505e+00 7.4158157013257107e+00 1.0000000000000000e+00 1.0022914776963393e+01 1.3384685693454330e+01 4.2678908393097004e+00 
2408 2409 2 1.0843766379111783e+00 -8.2395377896283080e+00 1.0000000000000000e+00 1.2366121374267255e+01 1.2716045021650210e+01 3.2192456664909384e+00 
1806 1807 2 1.0843766380276505e+00 1.5630108354397638e+00 1.0000000000000000e+00 2.8125893028996583e+01 1.4137882353615197e+01 3.6637152439055876e+00 
2179 2180 2 1.0843766380276505e+00 -7.9627504942783283e+00 1.0000000000000000e+00 1.9574378113125039e+00 1.6462095137169662e+01 3.4953129581902993e+00 
140 141 2 1.0843766380276505e+00 -1.2026201093425164e+00 1.0000000000000000e+00 1.0120348505732514e+01 1.6395437820296184e+01 3.7404843684318450e+00 
978 979 2 1.0843766380276505e+00 -9.8089428416627378e+00 1.0000000000000000e+00 1.4131940469100424e+01 1.5605889127425407e+01 4.0177518584638161e+00 
4414 4415 2 1.0843766380276505e+00 1.5133775754059267e+00 1.0000000000000000e+00 2.0431862792947857e+01 1.5998420048489852e+01 4.5228694095157227e+00 
2065 2066 2 1.0843766380276505e+00 4.1871913539408908e+01 1.0000000000000000e+00 3.0977038138727963e+01 1.6891419504139982e+01 3.9887111802860526e+00 
2758 2759 2 1.0843766380276505e+00 1.8363823658028422e+00 1.0000000000000000e+00 5.4534834779687449e+00 1.9198945493516593e+01 4.6003603674267914e+00 
3945 3946 2 1.0843766380276505e+00 7.5484703407660234e+00 1.0000000000000000e+00 1.1834354867488321e+01 3.8392143050114502e-01 5.6319435818946584e+00 
4285 4286 2 1.0843786851407435e+00 1.2831029459255156e+01 1.0000000000000000e+00 1.6257012245882834e+01 1.0521623417475301e+00 5.1347447132106785e+00 
2664 2665 2 1.0843766380276505e+00 6.0886756741489889e-01 1.0000000000000000e+00 2.3417927792040373e+01 1.1691116611786185e+00 5.3159122396355327e+00 
4518 4519 2 1.0843766380276505e+00 4.8880496080377043e+00 1.0000000000000000e+00 2.7773693623183753e+01 6.4418991716018459e-01 5.1764795267845773e+00 
2739 2740 2 1.0843786851407435e+00 7.6604095510369739e+00 1.0000000000000000e+00 1.4299501099055975e+01 1.9625306379496223e+00 5.1421992024923577e+00 
3807 3808 2 1.0843766380276505e+00 9.9127239014421917e+00 1.0000000000000000e+00 2.5949506817287716e+01 2.1984807876748711e+00 5.9286460573584741e+00 
31 32 2 1.0843766380276505e+00 1.4481448090018365e+01 1.0000000000000000e+00 1.0546124364009554e+01 4.0234618991419042e+00 4.9157639008343263e+00 
1691 1692 2 1.0843766380276505e+00 -7.2151967632815968e+00 1.0000000000000000e+00 1.8600043427942563e+01 4.6032919811143929e+00 5.3191825506712087e+00 
3065 3066 2 1.0843766380276505e+00 -6.5307630506673569e+00 1.0000000000000000e+00 8.1764525500780767e+00 6.4400236571796867e+00 5.8977235286558152e+00 
4241 4242 2 1.0843766380276505e+00 8.5779236720090566e+00 1.0000000000000000e+00 3.0552217259992687e+00 7.9008564534221160e+00 5.0609683974221111e+00 
3693 3694 2 1.0843766380276505e+00 -2.4873801300166285e+00 1.0000000000000000e+00 5.6571246057649800e+00 8.1486841071590632e+00 5.6314541978974679e+00 
1880 1881 2 1.0843766380276505e+00 1.2317198681113346e+01 1.0000000000000000e+00 9.4182154332301025e+00 8.7562695238693635e+00 5.6152014387531182e+00 
4257 4258 2 1.0843766380276505e+00 -2.3951312920110857e+00 1.0000000000000000e+00 1.5038502039773155e+01 7.9685232228046061e+00 5.6129182423254020e+00 
55 56 2 1.0843766380276505e+00 -7.9950009966802629e+00 1.0000000000000000e+00 1.6887318743937666e+01 1.0336226514573251e+01 5.7850566591722963e+00 
1053 1054 2 1.0843766380276505e+00 -1.3473362202347413e+01 1.0000000000000000e+00 2.3059326250729530e+01 9.6684467616673224e+00 5.0010393589115054e+00 
4345 4346 2 1.0843766380276505e+00 -3.5735895887199332e-01 1.0000000000000000e+00 1.8985153465934406e+01 1.1185855642127551e+01 4.6442326346631004e+00 
2661 2662 2 1.0843766380276505e+00 -8.6083546175625116e+00 1.0000000000000000e+00 2.6942696260246940e+01 1.2206417025693108e+01 5.0583308754077878e+00 
1582 1583 2 1.0843766380276505e+00 -1.2232238450154625e+01 1.0000000000000000e+00 1.1927274625849411e+00 1.3476776513571744e+01 6.1230090900011493e+00 
1785 1786 2 1.0843766380276505e+00 -1.9663170174255193e+00 1.0000000000000000e+00 6.3357328542974010e+00 1.3328250121394685e+01 5.2724258463688063e+00 
3960 3961 2 1.0843766380276505e+00 -3.8221214217405137e+00 1.0000000000000000e+00 1.7020817815915411e+01 1.3520871761289985e+01 5.6134713886486090e+00 
2062 2063 2 1.0843766381558777e+00 2.2395345288908107e+01 1.0000000000000000e+00 2.0321063940160581e+01 1.3515283528330871e+01 6.0195282269316674e+00 
3819 3820 2 1.0843766380276505e+00 -3.5977209526263332e+00 1.0000000000000000e+00 1.9416322112677664e+00 1.6381731960210800e+01 5.6968044560047746e+00 
3499 3500 2 1.0843766380276505e+00 -1.0961869905498032e+00 1.0000000000000000e+00 2.4894527651968485e+01 1.6375919812333553e+01 4.8160101037611875e+00 
800 801 2 1.0843766380276505e+00 -1.5225374205051029e+01 1.0000000000000000e+00 8.0164126133909814e+00 1.8237663539132395e+01 5.5478798133427496e+00 
4507 4508 2 1.0843766380276505e+00 1.0101240759283291e-01 1.0000000000000000e+00 2.2723433543792414e+01 1.7532252635437079e+01 6.0842529839911093e+00 
1246 1247 2 1.0843766380276505e+00 -7.6167844325398217e+00 1.0000000000000000e+00 2.7724604204677942e+01 1.7100515208738699e+01 5.0853178637416825e+00 
269 270 2 1.0843766380276505e+00 -5.5495852990538683e+00 1.0000000000000000e+00 2.1315777852362610e+00 1.9353077584192881e+01 5.9356815417528193e+00 
605 606 2 1.0843766380276505e+00 -1.4102716960892828e+01 1.0000000000000000e+00 1.3998562769131585e+01 1.8532332106895954e+01 4.7640357182695636e+00 
2114 2115 2 1.0843766380276505e+00 -1.5738020345225681e+00 1.0000000000000000e+00 8.2548171694452233e+00 1.1292556956922390e+00 7.4309504623176617e+00 
3430 3431 2 1.0843766380276505e+00 -1.0684935245543350e+01 1.0000000000000000e+00 1.8804343792455192e+01 1.4538344593187142e+00 7.1132860039757668e+00 
4005 4006 2 1.0843766380276505e+00 -2.1407090389048213e+00 1.0000000000000000e+00 4.0541243295006009e+00 2.4481713459048136e+00 6.1628326095193531e+00 
2679 2680 2 1.0843766380276505e+00 -3.7564585389369354e+00 1.0000000000000000e+00 1.6694034534438046e+01 2.4542371799763329e+00 6.8140102815672083e+00 
4069 4070 2 1.0843766380276505e+00 -6.0742431189932020e+00 1.0000000000000000e+00 2.4037712332037518e+01 3.6729503627770912e+00 7.2548091185599253e+00 
3068 3069 2 1.0843766380276505e+00 -2.7245810127227594e+00 1.0000000000000000e+00 2.7044033427130795e+01 4.0915330289461584e+00 6.9011823636112855e+00 
1262 1263 2 1.0843766380276505e+00 -3.6877880435607393e+00 1.0000000000000000e+00 1.3934850231439372e+01 4.9455390874562806e+00 6.1540212617618639e+00 
2710 2711 2 1.0843766380276505e+00 -4.6146468763910926e+00 1.0000000000000000e+00 3.2530662879868395e+01 5.1979896112932575e+00 7.0837525894924731e+00 
3130 3131 2 1.0843766380276505e+00 1.1102441637583795e+00 1.0000000000000000e+00 1.2186387697954423e+01 7.1491089671599175e+00 7.6613240680230863e+00 
3666 3667 2 1.0843766380276505e+00 -1.4153481641165176e-02 1.0000000000000000e+00 2.4835979999446376e+01 7.3414652003485541e+00 7.1064857128672134e+00 
2833 2834 2 1.0843766380276505e+00 -8.6580717209122304e-01 1.0000000000000000e+00 2.9003018185900416e+01 7.1675157644618945e+00 6.2954287143123233e+00 
3822 3823 2 1.0843766380276505e+00 2.4489640567151714e+00 1.0000000000000000e+00 1.8716784048326154e+01 9.0898134961688868e+00 7.2570432059861565e+00 
652 653 2 1.0843766380276505e+00 -1.6376784637941304e+00 1.0000000000000000e+00 1.3578036458285835e+01 1.0057712946191137e+01 7.0129870587527838e+00 
4566 4567 2 1.0843766406188569e+00 5.0685824013587482e+00 1.0000000000000000e+00 2.4146779176170618e+01 1.0532578253972506e+01 6.8166339399457554e+00 
3141 3142 2 1.0843766380276505e+00 9.9651342255336717e-01 1.0000000000000000e+00 3.1790539328418383e+01 9.4494054739299607e+00 7.0514269608641165e+00 
1550 1551 2 1.0843766380276505e+00 5.6254060219753690e+00 1.0000000000000000e+00 5.5492153781025577e-01 1.1334532685121779e+01 6.2968501678314324e+00 
3887 3888 2 1.0843766380276505e+00 2.3511665877606340e+00 1.0000000000000000e+00 1.5278044059902305e+01 1.1564257169821310e+01 7.4244862604143051e+00 
809 810 2 1.0843766381558777e+00 -1.1117920938568632e+01 1.0000000000000000e+00 2.1721459528536730e+01 1.1878420369479313e+01 6.4453228307017225e+00 
4020 4021 2 1.0843766380276505e+00 -3.4750600559301370e+00 1.0000000000000000e+00 2.8967026585460108e+01 1.1013675890393770e+01 6.3714193774286967e+00 
2230 2231 2 1.0843766380276505e+00 -4.4485764297442518e+00 1.0000000000000000e+00 2.5396701699885366e+01 1.3266684229503216e+01 7.3352919864472552e+00 
1554 1555 2 1.0843771725905946e+00 1.5892370957573785e+01 1.0000000000000000e+00 3.1817441421268772e+01 1.3602135620006983e+01 6.4570488499701231e+00 
4489 4490 2 1.0843766380276505e+00 -2.0518133465731427e+00 1.0000000000000000e+00 4.8621387440724995e+00 1.4115161698385254e+01 7.3920242886497389e+00 
3598 3599 2 1.0843766380276505e+00 7.3775188550918944e+00 1.0000000000000000e+00 1.4070560950236079e+01 1.3972846812032568e+01 7.0756244600335307e+00 
63 64 2 1.0843766380276505e+00 6.4487428873028794e+00 1.0000000000000000e+00 1.2330678426336986e+01 1.6620991164133084e+01 6.5406738173761054e+00 
4178 4179 2 1.0843766380276505e+00 3.1856924629540259e+01 1.0000000000000000e+00 1.6246525823235476e+01 1.6374095915907315e+01 6.9616483152198096e+00 
747 748 2 1.0843766380276505e+00 2.4100319333931139e+00 1.0000000000000000e+00 2.6284589658349958e+01 1.6449223700522406e+01 7.5019243988458726e+00 
142 143 2 1.0843766380276505e+00 -5.4647878037714626e-01 1.0000000000000000e+00 4.3483692181488829e+00 1.9508530807573077e+01 6.9183685711683296e+00 
3018 3019 2 1.0843766380276505e+00 -1.1314982390762921e+01 1.0000000000000000e+00 1.2702645561085946e+01 1.8974272941135165e+01 7.3001783104678601e+00 
2035 2036 2 1.0843766380276505e+00 -7.6237060601363034e+00 1.0000000000000000e+00 1.7899102399534772e+01 1.8482500639110306e+01 6.2362435700505650e+00 
3060 3061 2 1.0843766380276505e+00 -7.2765440269218118e+00 1.0000000000000000e+00 2.0812393663143247e+01 1.8464067072277320e+01 7.2110986871702583e+00 
1168 1169 2 1.0843766380276505e+00 8.6997922321500489e+00 1.0000000000000000e+00 6.3364813780117446e+00 1.3756648385306625e+00 9.2203782198109856e+00 
1662 1663 2 1.0843766380276505e+00 -6.4490640841639131e+00 1.0000000000000000e+00 3.0299649345626300e+01 7.2534336009004075e-01 7.9981772955507227e+00 
4296 4297 2 1.0843766380276505e+00 -6.5764684611485480e-01 1.0000000000000000e+00 1.5363593513541177e+01 2.3390567328528258e+00 9.0064074262540945e+00 
3147 3148 2 1.0843766380276505e+00 1.3745376371008380e+00 1.0000000000000000e+00 1.9302780759493037e+00 3.2421864508908511e+00 8.0102776466366326e+00 
3939 3940 2 1.0843766380276505e+00 1.5261943587510750e+01 1.0000000000000000e+00 1.8296624479392179e+01 3.1164679533557256e+00 9.1943232891028330e+00 
2826 2827 2 1.0843766380276505e+00 -5.8616543369501297e+00 1.0000000000000000e+00 2.9860676818088095e+01 3.8016565106214051e+00 8.5333978763886353e+00 
586 587 2 1.0843766380276505e+00 -1.3909981759086897e+01 1.0000000000000000e+00 5.2351485328968266e-02 6.1269451116777791e+00 9.1905057937219556e+00 
3289 3290 2 1.0843766380276505e+00 -9.6324010158276288e+00 1.0000000000000000e+00 1.2875715851135578e+01 4.9286226636141359e+00 8.2061417670400445e+00 
2880 2881 2 1.0843766380276505e+00 -4.3329147378600279e+00 1.0000000000000000e+00 1.4637763900498433e+01 6.4317917367143052e+00 9.0245295053776502e+00 
363 364 2 1.0843766380276505e+00 -4.7623619714845287e+00 1.0000000000000000e+00 2.1703633529151389e+01 6.2817139673064597e+00 9.0256877119384420e+00 
1462 1463 2 1.0843766591326927e+00 3.2806265877128049e+00 1.0000000000000000e+00 3.0744289462010428e+01 6.7276163480528286e+00 7.9542418813312814e+00 
1622 1623 2 1.0843766380276505e+00 9.6307521422053917e+00 1.0000000000000000e+00 1.5371081437595557e+00 8.6086125889083185e+00 7.8568007287755544e+00 
4142 4143 2 1.0843766380276505e+00 8.3086860376687461e+00 1.0000000000000000e+00 8.6052295519306554e+00 7.7476781770295986e+00 7.7552197224709705e+00 
2545 2546 2 1.0843766591326927e+00 1.0097812998797050e+01 1.0000000000000000e+00 3.2658430334954048e+01 7.7468367380068210e+00 8.2322659711625779e+00 
3465 3466 2 1.0843766380276505e+00 5.8664651968295942e+00 1.0000000000000000e+00 4.0511409052794480e+00 9.7314289183644540e+00 7.7972237381740888e+00 
2902 2903 2 1.0843766380276505e+00 3.4836448367203072e+00 1.0000000000000000e+00 3.0043023898842243e+01 9.3406992614575799e+00 9.0333354777387544e+00 
295 296 2 1.0843766380276505e+00 1.4587582507342880e+01 1.0000000000000000e+00 7.4107286372921877e+00 1.0790254943757166e+01 7.7303525797161177e+00 
692 693 2 1.0843766380276505e+00 1.6450840472577198e+01 1.0000000000000000e+00 1.0228070089974418e+01 1.1273308194419956e+01 8.7249439753726659e+00 
4606 4607 2 1.0843766406188569e+00 1.6294157256172934e+01 1.0000000000000000e+00 2.5571583576320712e+01 1.1238151086380743e+01 8.3264376582389286e+00 
1117 1118 2 1.0843766380276505e+00 -4.9920258724491257e-01 1.0000000000000000e+00 3.0207901615166839e+00 1.2713384933140153e+01 8.4351766986903431e+00 
4461 4462 2 1.0843766380276505e+00 1.9600297844435261e+01 1.0000000000000000e+00 1.9507143368748107e+01 1.3663473073790041e+01 8.4734151598118110e+00 
1692 1693 2 1.0843771725905946e+00 -5.1742278488717428e+00 1.0000000000000000e+00 3.0910295568816586e+01 1.2646298820782491e+01 8.1819966568363380e+00 
3417 3418 2 1.0843766380276505e+00 -7.3553866036355728e+00 1.0000000000000000e+00 7.7548880253094782e-02 1.4499765825980877e+01 7.7551564417282979e+00 
3400 3401 2 1.0843766380276505e+00 -1.0244525924639436e+01 1.0000000000000000e+00 2.6642796088660443e+00 1.5205264266525514e+01 7.8545525430920398e+00 
2271 2272 2 1.0843766380276505e+00 -1.8094962783959621e+00 1.0000000000000000e+00 1.7179085547533397e+01 1.4487451746905220e+01 8.7369615629583155e+00 
445 446 2 1.0843766380276505e+00 1.1547885786686578e+01 1.0000000000000000e+00 5.9972308591464039e+00 1.5898104473286317e+01 9.1125214292803633e+00 
388 389 2 1.0843766380276505e+00 -5.1936418718973947e+00 1.0000000000000000e+00 9.5288149558347843e+00 1.6639063722676106e+01 8.2629737012477040e+00 
1603 1604 2 1.0843766380276505e+00 -3.9306156040178379e+00 1.0000000000000000e+00 1.2795510030495729e+01 1.5974749187303507e+01 8.9081092926425125e+00 
2549 2550 2 1.0843766380276505e+00 1.8616370562978098e+01 1.0000000000000000e+00 2.0456228665311937e+01 1.5607811465821795e+01 9.0685218822198195e+00 
1733 1734 2 1.0843766380276505e+00 -1.1311401824491991e+00 1.0000000000000000e+00 2.2622082347657898e+01 1.6098413340317951e+01 8.0849131580451949e+00 
2210 2211 2 1.0843766380276505e+00 -3.1777055782024748e+00 1.0000000000000000e+00 6.6613275286330422e+00 1.7725682336989671e+01 7.8726778692514117e+00 
2240 2241 2 1.0843766380276505e+00 1.1752997390061632e+00 1.0000000000000000e+00 3.2955983273837013e+01 1.7264425025719220e+01 8.7617834317177117e+00 
406 407 2 1.0843766380276505e+00 2.1435018563414218e+01 1.0000000000000000e+00 2.7090752581923954e+00 1.9488580988059143e+00 9.8049628124043480e+00 
4496 4497 2 1.0843766380276505e+00 -1.4919899035267419e+00 1.0000000000000000e+00 2.5234230191445480e+01 2.8860842669459252e+00 1.0200368812786015e+01 
1747 1748 2 1.0843766380276505e+00 4.3984277587741420e+00 1.0000000000000000e+00 2.7791300927707510e+01 2.0104618561947709e+00 9.6859118206787702e+00 
405 406 2 1.0843766380276505e+00 -3.4710017130694890e+00 1.0000000000000000e+00 5.5927840378636802e+00 3.9144204508447316e+00 1.0103932246458781e+01 
264 265 2 1.0843766380276505e+00 1.1953392035238132e+01 1.0000000000000000e+00 2.9551891289536325e+01 4.4539300106147017e+00 1.0645841520107082e+01 
3342 3343 2 1.0843766380276505e+00 -5.9751646041090289e+00 1.0000000000000000e+00 2.9200673830915007e+00 5.2002710633697093e+00 9.8185584118358413e+00 
3758 3759 2 1.0843766380276505e+00 -4.3555527236454701e+00 1.0000000000000000e+00 1.7802375471084677e+01 5.7547751945378742e+00 9.6704156175121465e+00 
3959 3960 2 1.0843766380276505e+00 -3.0895011911425856e+00 1.0000000000000000e+00 3.1851359513829266e+01 5.0990150365372084e+00 1.0158023882933962e+01 
650 651 2 1.0843766380276505e+00 -7.4324368814007364e+00 1.0000000000000000e+00 7.7754476347684252e+00 6.6017377458618771e+00 9.8477648796103967e+00 
934 935 2 1.0843766380276505e+00 4.2926556856836040e+00 1.0000000000000000e+00 1.0842459427324398e+01 7.2468401255070241e+00 9.7065707782286381e+00 
1335 1336 2 1.0843767661760211e+00 -9.7808719017297694e+00 1.0000000000000000e+00 4.6681101379815022e+00 8.5794901009292861e+00 9.6444892466910499e+00 
2964 2965 2 1.0843766380276505e+00 -9.9838482571622933e+00 1.0000000000000000e+00 2.1708507735591020e+01 8.8115366594671656e+00 1.0617052019429371e+01 
194 195 2 1.0843766380276505e+00 5.3122485941379622e+00 1.0000000000000000e+00 2.4561438776949512e+01 1.2036806541996478e+01 1.0261001651891187e+01 
417 418 2 1.0843766380276505e+00 -4.6496205271801561e+00 1.0000000000000000e+00 7.7176245237104117e+00 1.2551412864539071e+01 1.0395540199317677e+01 
1702 1703 2 1.0843766380276505e+00 -8.3609621410782999e+00 1.0000000000000000e+00 1.4782049547466311e+01 1.3470998107803116e+01 9.8590453317103997e+00 
2211 2212 2 1.0843766380276505e+00 -1.0797235333665096e+01 1.0000000000000000e+00 2.1249489566056990e+01 1.3771165593111313e+01 1.0280840273726021e+01 
2289 2290 2 1.0843766380276505e+00 6.9467184137992994e+00 1.0000000000000000e+00 2.8797164292728787e+01 1.2911184402341473e+01 9.2916032674234330e+00 
4321 4322 2 1.0843770519749341e+00 -2.1606499208457666e+00 1.0000000000000000e+00 2.6007017629671072e+01 1.4493637838943901e+01 1.0017294596079168e+01 
2512 2513 2 1.0843766380276505e+00 1.2707149708836354e+01 1.0000000000000000e+00 1.6115092160507768e+01 1.5988403338573434e+01 1.0258084508159394e+01 
3878 3879 2 1.0843766380276505e+00 1.8119971334336344e+00 1.0000000000000000e+00 5.0660554780717346e+00 1.8336270476719491e+01 1.0475617016909194e+01 
3449 3450 2 1.0843766380276505e+00 8.4155273895050797e+00 1.0000000000000000e+00 1.5751218764171011e+00 1.9012266666599494e+01 1.0686737319512115e+01 
3047 3048 2 1.0843766380276505e+00 -1.0867722457505000e+01 1.0000000000000000e+00 2.3909355868743507e+01 1.8789558123659205e+01 9.6483755546584611e+00 
611 612 2 1.0843766380276505e+00 -5.1674376389968106e+00 1.0000000000000000e+00 2.0663479346944914e+01 1.0367793471965368e-01 1.2086357705714184e+01 
3172 3173 2 1.0843766380276505e+00 -1.0510879391703121e+01 1.0000000000000000e+00 4.0508385052969649e+00 1.8280241008542684e+00 1.1773797657219090e+01 
2871 2872 2 1.0843766374380623e+00 -8.7912881157298806e+00 1.0000000000000000e+00 1.3297768103238589e+01 1.8067159290373709e+00 1.1224996762253568e+01 
2263 2264 2 1.0843766380276505e+00 -7.9013997089590138e+00 1.0000000000000000e+00 1.8574833966141583e+01 2.0100748483968589e+00 1.1459878984472065e+01 