LAMMPS data file via write_data, version 30 Jul 2016, timestep = 50400000

4620 atoms
8 atom types

0.0000000000000000e+00 1.0000000000000000e+02 xlo xhi
0.0000000000000000e+00 4.0000000000000000e+01 ylo yhi
0.0000000000000000e+00 4.0000000000000000e+01 zlo zhi

Masses

1 3.896
2 5.36
3 20.064
4 8.378
5 8.378
6 8.378
7 8.378
8 8.378

Atoms # meso-molecular

999 1000 2 1.0843766380276505e+00 -5.8023052561633737e+00 1.0000000000000000e+00 1.3170984522131897e+00 2.1230713565899326e+00 1.1579050406768190e-01 
641 642 2 1.0843766380276505e+00 -4.2450654963898673e+00 1.0000000000000000e+00 1.4340450875462459e+01 2.7583156917139084e+00 4.8198825501409787e-01 
1669 1670 2 1.0843766380276505e+00 -5.4998838266183849e+00 1.0000000000000000e+00 1.8600728979586311e+01 2.8431715016515064e+00 3.6576128427149884e-01 
2195 2196 2 1.0843766380276505e+00 1.8036630308248587e+00 1.0000000000000000e+00 2.5394010379322491e+01 2.3847937726965407e+00 1.1784006544372225e+00 
1622 1623 2 1.0843766380276505e+00 9.6347721310294148e+00 1.0000000000000000e+00 6.5702852207827322e-01 4.3773505134075901e+00 5.0546850024635392e-01 
3864 3865 2 1.0843766380276505e+00 6.5681187824150520e+00 1.0000000000000000e+00 2.8012019277284111e+01 4.1315824294148698e+00 2.0059039335636877e-01 
1595 1596 2 1.0843766380276505e+00 7.5356208738809141e+00 1.0000000000000000e+00 3.3216728257696644e+01 4.1801609673563496e+00 2.3210803284812490e-01 
2370 2371 2 1.0843766380276505e+00 -4.3889797072652321e+00 1.0000000000000000e+00 5.0950953589760202e+00 6.0058572584263663e+00 1.3158247474124654e+00 
723 724 2 1.0843769245524479e+00 -4.7762283946151207e+00 1.0000000000000000e+00 1.0555090308043434e+01 6.0923545480117092e+00 5.6838377927888506e-01 
856 857 2 1.0843766380276505e+00 1.2520073411185972e+00 1.0000000000000000e+00 1.2980295315907002e+01 4.8283331046621853e+00 6.5798036825472839e-01 
2132 2133 2 1.0843766380276505e+00 -1.2372328755864572e+01 1.0000000000000000e+00 2.0236756267730637e+01 5.2413820133236637e+00 1.0939222473939920e-01 
505 506 2 1.0843769449664571e+00 2.4809028577683310e+00 1.0000000000000000e+00 1.7136814590001222e+01 7.3414261894920481e+00 7.9654657048653177e-01 
2664 2665 2 1.0843766380276505e+00 6.1050908060527997e-01 1.0000000000000000e+00 2.2149641957099291e+01 6.6675392156007840e+00 8.1114976415768836e-01 
4117 4118 2 1.0843766380276505e+00 4.3541391195628165e+00 1.0000000000000000e+00 2.9759931730312044e+01 7.4426093519939682e+00 1.8406370713914832e-01 
2649 2650 2 1.0843766380276505e+00 -2.1179344256349992e+00 1.0000000000000000e+00 1.5176277513450511e+01 8.5737015699525223e+00 1.3756496049655451e+00 
3279 3280 2 1.0843766380764952e+00 -1.6016544935166110e+00 1.0000000000000000e+00 3.2338386031953895e+01 8.1241815468867618e+00 9.6383023076190150e-02 
3669 3670 2 1.0843766380276505e+00 -4.0393376931981138e+00 1.0000000000000000e+00 7.9291942026026003e+00 9.2369718911483822e+00 8.7249570578066771e-01 
510 511 2 1.0843776501619666e+00 -7.9589262996205701e+00 1.0000000000000000e+00 1.2487120300185637e+01 1.0240097832294031e+01 1.1551124425088424e+00 
1691 1692 2 1.0843766380276505e+00 -7.2136053535564173e+00 1.0000000000000000e+00 1.7085205168456039e+01 1.0621048274830642e+01 1.4553869444294902e+00 
1955 1956 2 1.0843766380276505e+00 -1.3497163477274807e+01 1.0000000000000000e+00 2.4961873893789416e+01 1.0063457204134787e+01 3.5034185098799596e-02 
3481 3482 2 1.0843766380276505e+00 -4.3669821791752117e+00 1.0000000000000000e+00 2.7496404224153448e+01 1.1194489935812095e+01 1.0984506844950184e+00 
1503 1504 2 1.0843766380276505e+00 5.3874153813703334e+00 1.0000000000000000e+00 1.8274235336174474e+01 1.3372805157099442e+01 1.2133286295657570e+00 
928 929 2 1.0843766380276505e+00 3.4007042060248773e+00 1.0000000000000000e+00 2.9601250371288264e+00 1.4191017404092758e+01 9.4223815520510967e-01 
1102 1103 2 1.0843766380276505e+00 -1.2028606742646001e+01 1.0000000000000000e+00 1.9620204555552110e+01 1.4843319435385515e+01 2.4349674599544285e-01 
401 402 2 1.0843766380276505e+00 9.6217388412219655e+00 1.0000000000000000e+00 1.2077780592502879e+01 1.5704307819439942e+01 1.2565681837500617e+00 
2274 2275 2 1.0843766380276505e+00 -1.5662358292493420e-02 1.0000000000000000e+00 2.7962146255744990e+01 1.6645722965208421e+01 1.0785780785328762e+00 
377 378 2 1.0843766380276505e+00 6.1826135996541698e+00 1.0000000000000000e+00 1.0733757161780296e+01 1.9303690263728736e+01 1.2523593688511494e+00 
4608 4609 2 1.0843766380276505e+00 1.3915036980496701e+01 1.0000000000000000e+00 1.1324491723686132e+01 1.1732085173030504e+00 2.4078348264916181e+00 
3284 3285 2 1.0843766380276505e+00 -7.8519153893758258e+00 1.0000000000000000e+00 2.3960969130053655e+00 2.5874699215419632e+00 2.3752489497150386e+00 
1262 1263 2 1.0843766380276505e+00 -3.6869217520659427e+00 1.0000000000000000e+00 2.3242546541858413e+01 2.7119294520015522e+00 1.6200624034008571e+00 
2969 2970 2 1.0843766380276505e+00 -1.4065890778638448e+01 1.0000000000000000e+00 9.5621932240108691e+00 4.4231147350445363e+00 1.7863013674270503e+00 
3065 3066 2 1.0843766380276505e+00 -6.5285798969347937e+00 1.0000000000000000e+00 7.2951834210305675e+00 4.6545359316500248e+00 2.4631315679307484e+00 
2693 2694 2 1.0843766380276505e+00 -6.9153934914838082e+00 1.0000000000000000e+00 2.8759556667694000e+01 5.9996331311693050e+00 2.2853637871164274e+00 
10 11 2 1.0843766380276505e+00 3.5964180633954079e+00 1.0000000000000000e+00 3.7777157473589729e-01 6.6806830212054846e+00 1.8399301527217018e+00 
721 722 2 1.0843766380276505e+00 4.2901456166923317e+00 1.0000000000000000e+00 2.4755563156082925e+00 7.3410952052449545e+00 2.0984968404717392e+00 
1834 1835 2 1.0843766380276505e+00 4.4363527471766258e+00 1.0000000000000000e+00 1.2822060737803371e+01 6.4028993606319835e+00 2.9374211523979126e+00 
1251 1252 2 1.0843766380276505e+00 -6.6525745457084025e+00 1.0000000000000000e+00 1.5187401403250274e+01 6.2076349916446070e+00 1.6486195142953295e+00 
539 540 2 1.0843769449664571e+00 1.0054857141199958e+00 1.0000000000000000e+00 1.8897343572131131e+01 7.2726824144179441e+00 2.0710326138855795e+00 
1480 1481 2 1.0843766380276505e+00 3.1558256164282152e+00 1.0000000000000000e+00 3.1673718610512530e+01 6.6201019211581489e+00 2.7387855367781175e+00 
4241 4242 2 1.0843766380276505e+00 8.5816718966109313e+00 1.0000000000000000e+00 2.2650636296513658e+00 1.0505234103624392e+01 2.1754751946567867e+00 
1806 1807 2 1.0843766380276505e+00 1.5700704540647483e+00 1.0000000000000000e+00 2.3134432671001129e+01 9.8926857523460310e+00 2.2893293437681135e+00 
3530 3531 2 1.0843766380276505e+00 8.6581834311433389e-02 1.0000000000000000e+00 1.9121210402159939e+01 1.1504728945673495e+01 2.0394825781718504e+00 
389 390 2 1.0843766380276505e+00 -1.9127103839742361e+00 1.0000000000000000e+00 3.1512610278509296e+01 1.1056125756392818e+01 1.9818339485313194e+00 
3872 3873 2 1.0843766380276505e+00 -2.6453824739381542e+00 1.0000000000000000e+00 7.3235633995621274e-01 1.2843301471681141e+01 1.6715490721314021e+00 
2461 2462 2 1.0843766380276505e+00 -5.7799201886333407e+00 1.0000000000000000e+00 2.5108596528851475e+01 1.2947858935086698e+01 2.1094909065849650e+00 
2553 2554 2 1.0843766380276505e+00 2.1495322480271149e+01 1.0000000000000000e+00 2.9910433865929935e+01 1.3829970984982420e+01 2.2175670753092454e+00 
655 656 2 1.0843766380276505e+00 -1.1419324923927345e+01 1.0000000000000000e+00 1.6727899146880471e+01 1.5084018945187735e+01 2.2758119900397373e+00 
2030 2031 2 1.0843766380276505e+00 -8.3100506731156685e+00 1.0000000000000000e+00 8.8896678416173103e+00 1.6586938354413853e+01 2.5125640571604579e+00 
1440 1441 2 1.0843766380276505e+00 7.1884895050757414e-01 1.0000000000000000e+00 3.3076940366706445e+01 1.5709686474413953e+01 1.5659949632686889e+00 
2179 2180 2 1.0843766380276505e+00 -7.9602756833060955e+00 1.0000000000000000e+00 3.0581570032692738e+00 1.7725322037052948e+01 2.3492183552246444e+00 
3020 3021 2 1.0843766380276505e+00 3.0578431730844473e+00 1.0000000000000000e+00 2.3714311394282046e+01 1.7924113073419505e+01 1.8411079355706146e+00 
4598 4599 2 1.0843766380276505e+00 1.3512864135917528e+01 1.0000000000000000e+00 2.5948123057807056e+01 1.8141918746735524e+01 2.3141903685361074e+00 
699 700 2 1.0843766380276505e+00 5.1855764149305710e+00 1.0000000000000000e+00 3.2398446023019972e+01 1.8385429504394978e+01 2.0243692511181304e+00 
1803 1804 2 1.0843766380276505e+00 -6.7134452462772298e+00 1.0000000000000000e+00 5.0855464879366785e+00 1.9484374486132904e+01 1.7134456302415999e+00 
3015 3016 2 1.0843805563419104e+00 2.2248520165172767e+00 1.0000000000000000e+00 1.7571093082471318e+01 1.9445032647953742e+01 2.0466462001384218e+00 
2922 2923 2 1.0843805563419104e+00 -1.4943288296403686e+01 1.0000000000000000e+00 1.9605057698261827e+01 1.8765805163564341e+01 2.2215381895647139e+00 
2114 2115 2 1.0843766380276505e+00 -1.5708873481416528e+00 1.0000000000000000e+00 8.6284286375161112e-01 1.3254189324928578e+00 3.7313404264082335e+00 
3900 3901 2 1.0843766380276505e+00 1.0386045777618902e+00 1.0000000000000000e+00 8.0201132626795637e+00 3.5599218438128227e-01 4.0832358392780046e+00 
1687 1688 2 1.0843766380276505e+00 -2.9687163805591750e+00 1.0000000000000000e+00 1.3965580157657561e+01 4.3164518807113694e-01 3.4877077996404848e+00 
2119 2120 2 1.0843766380276505e+00 8.9228032733658880e-01 1.0000000000000000e+00 2.6597493472340979e+01 5.5841951789505073e-01 3.9359657719251726e+00 
3888 3889 2 1.0843766380276505e+00 -1.2176903857907280e+00 1.0000000000000000e+00 4.5711610862570495e+00 2.1824698312623152e+00 3.7179666982886892e+00 
1417 1418 2 1.0843766380276505e+00 6.7059082152473870e+00 1.0000000000000000e+00 8.9650985634386569e+00 2.5955093868449124e+00 4.4346584668946241e+00 
1880 1881 2 1.0843766380276505e+00 1.2319734511500766e+01 1.0000000000000000e+00 1.3520493553064579e+01 2.5939542200353207e+00 4.4813731729338402e+00 
3652 3653 2 1.0843766380276505e+00 -4.0477646522493593e+00 1.0000000000000000e+00 2.1993398128840887e+01 2.4541980592525707e+00 4.0934671973541059e+00 
4605 4606 2 1.0843766380276505e+00 2.2039038332307740e+01 1.0000000000000000e+00 3.2812803847444698e+01 2.9364632851682488e+00 3.8863995224836501e+00 
1774 1775 2 1.0843766380276505e+00 -1.4479575662617745e+00 1.0000000000000000e+00 1.9070479527372260e+01 4.0422139966388650e+00 3.4974116608210357e+00 
2739 2740 2 1.0843766380276505e+00 7.5788744925951930e+00 1.0000000000000000e+00 8.2545787368048344e+00 5.7088807873688312e+00 4.5911615517995088e+00 
621 622 2 1.0843766380276505e+00 -2.1246967432470263e+00 1.0000000000000000e+00 1.7644630341617326e+01 5.6259813803083301e+00 4.2561387035195271e+00 
2691 2692 2 1.0843766380276505e+00 -1.6347234592143003e+01 1.0000000000000000e+00 2.2185649285175309e+01 5.5416005825877761e+00 3.4960178692178903e+00 
3068 3069 2 1.0843766380276505e+00 -2.7235388321315410e+00 1.0000000000000000e+00 2.7089420130238572e+01 6.4569480461024931e+00 3.7164391348373642e+00 
4219 4220 2 1.0843766380276505e+00 -2.3156787155645714e-01 1.0000000000000000e+00 2.9550772742954955e+01 6.4903302926303210e+00 4.3572221422636428e+00 
2811 2812 2 1.0843766380276505e+00 4.6186526930325780e+00 1.0000000000000000e+00 1.7069261606679163e+01 8.8185542863456305e+00 4.6064730845934534e+00 
2056 2057 2 1.0843766380276505e+00 -4.9614699117789152e-01 1.0000000000000000e+00 2.0368480869005573e+01 8.1347673171184596e+00 4.1132784449727922e+00 
454 455 2 1.0843766380276505e+00 2.1912270180169578e+01 1.0000000000000000e+00 1.0869199151851518e+01 1.0116507088866195e+01 3.9247790922738184e+00 
1702 1703 2 1.0843766380276505e+00 -8.3606846393024732e+00 1.0000000000000000e+00 1.3964053724170933e+01 9.4629368617196938e+00 4.0860576677828355e+00 
4020 4021 2 1.0843766380276505e+00 -3.4742907759772104e+00 1.0000000000000000e+00 2.8889812851507838e+01 1.0628226670156581e+01 3.2784098664394974e+00 
3695 3696 2 1.0843766380276505e+00 7.5613748798076159e+00 1.0000000000000000e+00 3.2866621562715835e+01 9.6114918256059525e+00 4.5687484131773850e+00 
1373 1374 2 1.0843766380276505e+00 -1.0339500497257855e+01 1.0000000000000000e+00 4.1580341756689618e+00 1.2229137476006661e+01 3.5668247724534901e+00 
3598 3599 2 1.0843766380276505e+00 7.3787071522974195e+00 1.0000000000000000e+00 2.0398186547301854e+01 1.1461261787059303e+01 4.3782031447760303e+00 
4606 4607 2 1.0843766380276505e+00 1.6296693296183228e+01 1.0000000000000000e+00 2.3245011769723433e+01 1.1743516841254710e+01 4.2214288992618583e+00 
747 748 2 1.0843766380276505e+00 2.4103017236067306e+00 1.0000000000000000e+00 2.6478543640114026e+01 1.1429460825345277e+01 3.8712850208400349e+00 
4489 4490 2 1.0843766380276505e+00 -2.0506591520777198e+00 1.0000000000000000e+00 1.0868275274288031e+00 1.2572802708288483e+01 3.8495842456789373e+00 
4147 4148 2 1.0843766380276505e+00 3.3887652555120376e+00 1.0000000000000000e+00 6.6705775990146741e+00 1.2954724801967695e+01 3.1640553172858907e+00 
2678 2679 2 1.0843766380276505e+00 -1.3298654090933319e+01 1.0000000000000000e+00 1.1310428896047696e+01 1.2637622826923002e+01 3.6159044880461675e+00 
3903 3904 2 1.0843766380276505e+00 -7.1479260313013331e+00 1.0000000000000000e+00 2.6046355760972354e+01 1.4880878819326391e+01 3.9894248549869062e+00 
2831 2832 2 1.0843766380276505e+00 2.3498136653651631e+00 1.0000000000000000e+00 2.2256025160454119e+01 1.6691015821608243e+01 3.4293181867178464e+00 
3499 3500 2 1.0843766380276505e+00 -1.0940524719369924e+00 1.0000000000000000e+00 2.8846857837523874e+01 1.5959247108808539e+01 4.1535547743846815e+00 
2710 2711 2 1.0843766380276505e+00 -4.6125337082654925e+00 1.0000000000000000e+00 3.0933995346516593e+01 1.6829184103228418e+01 3.3814073504960751e+00 
519 520 2 1.0843766380276505e+00 -7.9595995209372923e+00 1.0000000000000000e+00 5.1245127315521732e-01 1.7905607339125929e+01 4.5817598396821744e+00 
3586 3587 2 1.0843766380276505e+00 -3.4220769333424919e+00 1.0000000000000000e+00 5.7275606471355598e+00 1.7624539362686050e+01 4.2058567622411589e+00 
1615 1616 2 1.0843766380276505e+00 3.2015730503704598e-01 1.0000000000000000e+00 7.2182145510129159e+00 1.9960775898113116e+01 3.8059826886014139e+00 
2035 2036 2 1.0843766380276505e+00 -7.6222206640821675e+00 1.0000000000000000e+00 2.3393094300388828e+01 1.8781115285818494e+01 4.4926286865552720e+00 
122 123 2 1.0843766380276505e+00 4.5606956612321650e+00 1.0000000000000000e+00 5.8822720647778093e+00 8.1270983231533289e-01 5.9111286500087328e+00 
2357 2358 2 1.0843766380276505e+00 -1.1586869738814535e+01 1.0000000000000000e+00 1.1300721918651611e+01 1.2764549129547584e+00 5.3802118476026521e+00 
4577 4578 2 1.0843766380276505e+00 1.1690228927975834e+01 1.0000000000000000e+00 3.2365428108597555e+01 5.3858913182779877e-01 5.2297423224288986e+00 
363 364 2 1.0843766380276505e+00 -4.7613678527176511e+00 1.0000000000000000e+00 1.6670949788734600e+01 3.0203711852243331e+00 5.7917188242059190e+00 
1036 1037 2 1.0843766380276505e+00 -1.3737334587761724e+01 1.0000000000000000e+00 1.8650055797563731e+01 1.9272606443070381e+00 5.4537615788546923e+00 
4518 4519 2 1.0843766380276505e+00 4.8901830684993843e+00 1.0000000000000000e+00 2.9872597096708816e+01 2.5278274095200839e+00 5.0005391399687840e+00 
3003 3004 2 1.0843766380276505e+00 8.2475394612894810e+00 1.0000000000000000e+00 1.2014744601785839e+01 4.3131794367866458e+00 4.6405878046206581e+00 
1662 1663 2 1.0843766420687193e+00 -6.4449214094219309e+00 1.0000000000000000e+00 3.2786239619972854e+01 4.6100228999141866e+00 5.4930379972782628e+00 
586 587 2 1.0843786333298309e+00 -1.3827364191506495e+01 1.0000000000000000e+00 1.6824811819973600e+00 4.9812401996980098e+00 5.2695082639213888e+00 
1098 1099 2 1.0843766380276505e+00 -8.4199283023412033e+00 1.0000000000000000e+00 3.9008799894031467e+00 5.9779695565033162e+00 5.2357650059254626e+00 
2408 2409 2 1.0843766380276505e+00 -8.2370588328481364e+00 1.0000000000000000e+00 6.4654581114828016e+00 8.6746371610988202e+00 5.3157485436358787e+00 
2423 2424 2 1.0843766386516549e+00 -1.0988559595943993e+01 1.0000000000000000e+00 9.5017601703018317e-01 1.0342312047936415e+01 5.3315874543054509e+00 
63 64 2 1.0843766380276505e+00 6.4494017302843698e+00 1.0000000000000000e+00 1.9219284606171460e+01 9.3439406390224029e+00 6.0131098381945707e+00 
2065 2066 2 1.0843766380276505e+00 4.1873654840398046e+01 1.0000000000000000e+00 2.7615356625256776e+01 1.0174359020758253e+01 5.7852033547765966e+00 
1785 1786 2 1.0843766380276505e+00 -1.9631014005860949e+00 1.0000000000000000e+00 3.7535198541539940e+00 1.2053495261282416e+01 5.8452073493063201e+00 
1603 1604 2 1.0843766380276505e+00 -3.9287472703523605e+00 1.0000000000000000e+00 5.9817214566107850e+00 1.3272488335261277e+01 5.4464467064124396e+00 
1857 1858 2 1.0843766380276505e+00 5.8204971208110052e+00 1.0000000000000000e+00 1.1434430515649167e+01 1.4474314142244260e+01 5.1231522455364225e+00 
978 979 2 1.0843766380276505e+00 -9.8071805283960458e+00 1.0000000000000000e+00 1.5629823363359630e+01 1.5310980866205915e+01 4.7687039951725678e+00 
3836 3837 2 1.0843766380276505e+00 5.8338363530583539e+00 1.0000000000000000e+00 2.0124427120091038e+01 1.4180710253254851e+01 4.9195048852044296e+00 
4030 4031 2 1.0843766380276505e+00 6.6225518708749984e+00 1.0000000000000000e+00 2.2707956845096799e+01 1.3940249760722720e+01 4.9030898853929035e+00 
618 619 2 1.0843766380276505e+00 9.2595313066312479e-01 1.0000000000000000e+00 3.6837781956325988e+00 1.6907738756440938e+01 4.9282570217862105e+00 
2918 2919 2 1.0843766380276505e+00 -5.9513822701898693e+00 1.0000000000000000e+00 6.1324873018698121e+00 1.5487994031115166e+01 5.4603409625388872e+00 
4377 4378 2 1.0843766380276505e+00 1.3740111412420770e+01 1.0000000000000000e+00 8.4751197321401381e+00 1.6445331656688055e+01 4.9767890599807600e+00 
3410 3411 2 1.0843766380276505e+00 2.0072587565274782e+00 1.0000000000000000e+00 3.2289292889523594e+01 1.5687229761143399e+01 5.8967642565156098e+00 
3878 3879 2 1.0843766380276505e+00 1.8133493726309864e+00 1.0000000000000000e+00 1.4821034166810122e+01 1.8443736765079304e+01 4.7677642077838227e+00 
2758 2759 2 1.0843766380276505e+00 1.8390430298433351e+00 1.0000000000000000e+00 9.2726556859348115e+00 1.8764931533949781e+01 5.6612704010623567e+00 
823 824 2 1.0843766380276505e+00 -1.0989359617116598e+01 1.0000000000000000e+00 2.6933360641693213e+01 1.9295880168094644e+01 5.3381822516820225e+00 
768 769 2 1.0843766380276505e+00 -3.9387136874287094e+00 1.0000000000000000e+00 3.0027966582309809e+01 1.8520301455406255e+01 4.9467809657928630e+00 
1693 1694 2 1.0843766380276505e+00 -1.7051566188646028e+01 1.0000000000000000e+00 9.3225579339654399e+00 6.9822715612116293e-01 7.1520120838043928e+00 
3939 3940 2 1.0843766380276505e+00 1.5263634237615364e+01 1.0000000000000000e+00 1.7206471193711039e+01 6.6331843466181473e-01 6.5622813170697967e+00 
4069 4070 2 1.0843766380276505e+00 -6.0728248149362543e+00 1.0000000000000000e+00 2.6097957328120941e+01 1.6849429404010294e+00 7.1541662338047773e+00 
3272 3273 2 1.0843766380276505e+00 3.8310155184776682e+00 1.0000000000000000e+00 8.0539081482627743e+00 3.8228543800833275e+00 6.6652953874453305e+00 
652 653 2 1.0843766380276505e+00 -1.6349688884986087e+00 1.0000000000000000e+00 1.0681992655742597e+01 4.0555390257276729e+00 7.4940466569066135e+00 
2826 2827 2 1.0843766656293989e+00 -5.8568511465314552e+00 1.0000000000000000e+00 2.7593398515527308e+01 3.3680914183224169e+00 7.1601982076694259e+00 
662 663 2 1.0843786333298309e+00 -8.5880311494364268e+00 1.0000000000000000e+00 2.1032020278125558e+00 5.7366313913283102e+00 7.2480291579337068e+00 
3666 3667 2 1.0843766380276505e+00 -1.2198459199251563e-02 1.0000000000000000e+00 2.4862987870995465e+01 5.4172394210400414e+00 6.4487291246155021e+00 
3590 3591 2 1.0843766380276505e+00 5.5567761954409689e-01 1.0000000000000000e+00 3.9566866185250378e+00 7.5704182041873684e+00 7.5234818826418346e+00 
406 407 2 1.0843766380276505e+00 2.1437006447819272e+01 1.0000000000000000e+00 8.5546559953651791e+00 6.5511453458884681e+00 6.8292115687002362e+00 
2848 2849 2 1.0843766380276505e+00 -1.3858218574049186e+00 1.0000000000000000e+00 1.8806414241165097e+01 6.1767489496228505e+00 6.6497986235972579e+00 
2833 2834 2 1.0843766380276505e+00 -8.6509310119360516e-01 1.0000000000000000e+00 2.7370726917961505e+01 6.5469131835217542e+00 6.8709525520805288e+00 
4496 4497 2 1.0843766380276505e+00 -1.4907724524711610e+00 1.0000000000000000e+00 3.1199476305279880e+01 8.0398942775530475e+00 6.8465813025239113e+00 
3130 3131 2 1.0843766380276505e+00 1.1150930892363835e+00 1.0000000000000000e+00 4.0830090025271550e+00 9.6629286956913099e+00 6.3011495085534834e+00 
3693 3694 2 1.0843766380276505e+00 -2.4842042806329241e+00 1.0000000000000000e+00 7.6721690053851290e+00 9.4350378762312594e+00 7.1484541644017341e+00 
3407 3408 2 1.0843766380276505e+00 -2.2052732592438602e+00 1.0000000000000000e+00 1.1995757240668210e+01 9.3132668013823316e+00 6.4372566996094953e+00 
55 56 2 1.0843766380276505e+00 -7.9943957934334122e+00 1.0000000000000000e+00 2.1735842148237278e+01 1.0253150932628097e+01 7.1005750683171227e+00 
4036 4037 2 1.0843766380276505e+00 -1.0805542078381730e+01 1.0000000000000000e+00 1.9564088083152686e+01 1.1326226207597184e+01 6.9380840673225217e+00 
3807 3808 2 1.0843766380276505e+00 9.9153153783346397e+00 1.0000000000000000e+00 2.9452814846219340e+01 1.1871657555315165e+01 7.3499894137907633e+00 
1117 1118 2 1.0843766380276505e+00 -4.9693264506115187e-01 1.0000000000000000e+00 3.0832217758320396e-01 1.4345201227655236e+01 6.8006229084020324e+00 
3047 3048 2 1.0843766380276505e+00 -1.0865603868079067e+01 1.0000000000000000e+00 8.3937905379169191e+00 1.4518298233925339e+01 6.6256508861351318e+00 
2513 2514 2 1.0843766380276505e+00 -2.2935369695790353e+00 1.0000000000000000e+00 1.0403911968670055e+01 1.5311992654182999e+01 7.1913074401900872e+00 
2839 2840 2 1.0843766380276505e+00 1.0285406792747805e-01 1.0000000000000000e+00 1.7698945726585887e+01 1.4925733355637851e+01 7.2912463867225927e+00 
1454 1455 2 1.0843766380276505e+00 1.1513314469411171e+01 1.0000000000000000e+00 3.0040364766348635e+01 1.3966670150579612e+01 6.9324671301198642e+00 
3849 3850 2 1.0843766380276505e+00 -3.9842922324809624e+00 1.0000000000000000e+00 1.3877287358941231e+01 1.6476091694539345e+01 6.2482396328681542e+00 
1246 1247 2 1.0843766380276505e+00 -7.6122342611771376e+00 1.0000000000000000e+00 2.0343049854104365e+01 1.5888898604223169e+01 7.6068024158331049e+00 
3624 3625 2 1.0843766380276505e+00 -7.7734545605105314e+00 1.0000000000000000e+00 2.8462281608799682e+01 1.6099293965847831e+01 6.5259732448254386e+00 
2210 2211 2 1.0843766380276505e+00 -3.1763389231571750e+00 1.0000000000000000e+00 6.5404848389862789e+00 1.7700562541296875e+01 6.8365947631509014e+00 
4005 4006 2 1.0843766380276505e+00 -2.1388744695389081e+00 1.0000000000000000e+00 1.9235678245082068e+00 5.4889257172009120e-01 9.2290133982936062e+00 
17 18 2 1.0843766380276505e+00 1.2330790367318858e+01 1.0000000000000000e+00 4.4642046620568916e+00 9.2864622511405570e-01 7.7165752675397448e+00 
3430 3431 2 1.0843766380276505e+00 -1.0684701376315559e+01 1.0000000000000000e+00 1.1968579471986985e+01 1.5031260148783288e+00 8.7042472023957895e+00 
2964 2965 2 1.0843766380276505e+00 -9.9810043039851912e+00 1.0000000000000000e+00 2.7572647925922357e+01 1.4229258402596054e+00 8.8979387714415754e+00 
2069 2070 2 1.0843766380276505e+00 1.6939033857819965e+01 1.0000000000000000e+00 7.2052310828124675e+00 2.8281405935524528e+00 8.5984434412850170e+00 
3710 3711 2 1.0843766380276505e+00 2.0347008848134223e+01 1.0000000000000000e+00 1.6240009215290506e+01 2.0212044958208994e+00 8.3288235129883628e+00 
3342 3343 2 1.0843766380276505e+00 -5.9728168267182120e+00 1.0000000000000000e+00 4.2233410669684979e+00 3.1868759003175997e+00 7.9300143861948467e+00 
4296 4297 2 1.0843766380276505e+00 -6.5627872605561455e-01 1.0000000000000000e+00 1.7012735606505139e+01 4.5913514037183383e+00 9.1115748924951649e+00 
1404 1405 2 1.0843766380276505e+00 1.0370080742631185e+00 1.0000000000000000e+00 1.9801775730660385e+01 3.8660606839944380e+00 8.0773805916340216e+00 
1241 1242 2 1.0843766656293989e+00 -5.2134535994922500e+00 1.0000000000000000e+00 2.7052121852101461e+01 4.9962486518562530e+00 8.5150470945683168e+00 
3622 3623 2 1.0843766380276505e+00 -1.4816514308375499e+01 1.0000000000000000e+00 3.0371129439254823e+01 6.1175977103594876e+00 8.1210296882474466e+00 
1318 1319 2 1.0843766380276505e+00 -5.2046614407343448e+00 1.0000000000000000e+00 3.1649059049348582e-01 7.4752874121671020e+00 8.9847226991225764e+00 
4257 4258 2 1.0843766380276505e+00 -2.3939668911335295e+00 1.0000000000000000e+00 1.5352148290334194e+01 6.6342543431895864e+00 8.5826918581084684e+00 
2373 2374 2 1.0843766380276505e+00 1.5067211521791801e+00 1.0000000000000000e+00 2.0793625812876822e+01 6.6797294817814832e+00 7.9508156668312591e+00 
650 651 2 1.0843766380276505e+00 -7.4295049374131281e+00 1.0000000000000000e+00 7.6928271752014297e+00 7.7317353197862131e+00 8.8310667594788193e+00 
3784 3785 2 1.0843766380276505e+00 -1.4341834437994994e+01 1.0000000000000000e+00 1.3889752112628663e+01 8.9674781019428629e+00 8.0541475341469173e+00 
194 195 2 1.0843766380276505e+00 5.3130816799808347e+00 1.0000000000000000e+00 2.4871730600509274e+01 8.1663160789705742e+00 7.9545276472194164e+00 
1462 1463 2 1.0843766380276505e+00 3.2804709510449137e+00 1.0000000000000000e+00 2.8567514213647559e+01 8.1839830312470010e+00 7.7859921353896073e+00 
2083 2084 2 1.0843766380276505e+00 9.7454215275791292e+00 1.0000000000000000e+00 4.5711384787221379e+00 9.7507132307160003e+00 9.1969264624750675e+00 
4566 4567 2 1.0843766380276505e+00 5.0690465644708471e+00 1.0000000000000000e+00 2.3679246351257781e+01 1.0363200254209005e+01 8.1676739043768549e+00 
295 296 2 1.0843766380276505e+00 1.4589674391371297e+01 1.0000000000000000e+00 5.4882233427613052e+00 1.1378601847207456e+01 7.9141050976085978e+00 
741 742 2 1.0843766380276505e+00 3.1351835510442587e+00 1.0000000000000000e+00 3.1268414004921325e+01 1.1891166794367388e+01 9.0487522431194094e+00 
388 389 2 1.0843766380276505e+00 -5.1906675922012830e+00 1.0000000000000000e+00 7.6564863363946403e+00 1.3275724263508465e+01 8.8720042690240444e+00 
2749 2750 2 1.0843766380276505e+00 7.4189820864038705e+00 1.0000000000000000e+00 1.0435578693366093e+01 1.2656392054572027e+01 9.1183513258064899e+00 
2230 2231 2 1.0843766380276505e+00 -4.4469270869062054e+00 1.0000000000000000e+00 2.5113836617716661e+01 1.3063642577154575e+01 8.3546352744241386e+00 
800 801 2 1.0843766380276505e+00 -1.5220837119778995e+01 1.0000000000000000e+00 1.6024347041242599e+01 1.4016190155879469e+01 8.8472033438701061e+00 
4321 4322 2 1.0843766380276505e+00 -2.1824928080685702e+00 1.0000000000000000e+00 2.1474205930633634e+01 1.7434460558646656e+01 8.9649066750405506e+00 
4542 4543 2 1.0843766380276505e+00 1.2552837155601900e+01 1.0000000000000000e+00 2.3754799241759276e+01 1.7354527473404382e+01 8.1968757739654645e+00 
445 446 2 1.0843766380276505e+00 1.1550167107322892e+01 1.0000000000000000e+00 8.7746823301448416e+00 1.8511121695783544e+01 7.8569328436277566e+00 
142 143 2 1.0843766380276505e+00 -5.3862068692462839e-01 1.0000000000000000e+00 1.3747139608065782e+01 1.9575316581534135e+01 8.4189162803521143e+00 
1692 1693 2 1.0843766380276505e+00 -5.2025927868934305e+00 1.0000000000000000e+00 3.1378562361733252e+01 1.8652964266020842e+01 8.5010652987694169e+00 
2987 2988 2 1.0843766380276505e+00 9.6877851084812194e-01 1.0000000000000000e+00 1.4200161189557084e+01 2.9702551629086340e+00 1.0207022653677129e+01 
1165 1166 2 1.0843766380276505e+00 4.2301650861746953e+00 1.0000000000000000e+00 2.4360627100807800e+01 2.0564774741027265e+00 9.9170037595228226e+00 
751 752 2 1.0843766380276505e+00 -6.4189593584987303e+00 1.0000000000000000e+00 1.1880209103854960e+00 4.5991376927087932e+00 9.5974516931043325e+00 
2411 2412 2 1.0843766380276505e+00 7.6873021545508422e+00 1.0000000000000000e+00 2.3098492207724320e+01 4.4362857620200256e+00 9.5528023461559730e+00 
4331 4332 2 1.0843766380276505e+00 5.7098292465036824e+00 1.0000000000000000e+00 5.0931433299509346e+00 5.4787281712000766e+00 9.7541885066164422e+00 
2880 2881 2 1.0843766380276505e+00 -4.3327478623367739e+00 1.0000000000000000e+00 1.8684525269932330e+01 5.8945921525260623e+00 1.0457677442759048e+01 
1168 1169 2 1.0843766380276505e+00 8.7006488879990478e+00 1.0000000000000000e+00 9.3745273343303879e+00 6.1690701196780653e+00 1.0040533833209205e+01 
1053 1054 2 1.0843766380276505e+00 -1.3469803868596255e+01 1.0000000000000000e+00 2.3270262704265672e+01 7.3497993589641206e+00 9.6700856947071898e+00 
1362 1363 2 1.0843766380276505e+00 9.7033952406187112e+00 1.0000000000000000e+00 3.2786617439420738e+01 7.6423124622209917e+00 9.3592680242659068e+00 
3385 3386 2 1.0843766380276505e+00 -6.7024654987815406e+00 1.0000000000000000e+00 2.1177151729251023e+01 9.0644634528715535e+00 1.0021254960304724e+01 
2289 2290 2 1.0843766380276505e+00 6.9504716739588535e+00 1.0000000000000000e+00 3.0316510978273612e+01 8.4396132969062467e+00 9.7772797854317677e+00 
2995 2996 2 1.0843766380276505e+00 1.9580423693277787e+01 1.0000000000000000e+00 5.1111793419917984e-01 1.0393979687841385e+01 9.6778010742331571e+00 
4142 4143 2 1.0843766380276505e+00 8.3150854121144953e+00 1.0000000000000000e+00 1.0061059151287326e+01 1.0084587688985442e+01 9.3680886649704078e+00 
4128 4129 2 1.0843766380276505e+00 1.0667653653972128e+01 1.0000000000000000e+00 1.3533054843623617e+01 1.0431706709828230e+01 9.8025387896907361e+00 
4461 4462 2 1.0843796644147006e+00 1.9714389247472962e+01 1.0000000000000000e+00 1.7994993451299337e+01 1.0761715007363032e+01 1.0262643179944826e+01 
4062 4063 2 1.0843766380276505e+00 -8.9809790709653861e+00 1.0000000000000000e+00 2.7190825738223101e+01 9.2860154546120413e+00 1.0265197867214249e+01 
2211 2212 2 1.0843766380276505e+00 -1.0795088004872678e+01 1.0000000000000000e+00 2.4161035767720463e+01 1.2281455684392901e+01 1.0292302840373742e+01 