LAMMPS data file via write_data, version 30 Jul 2016, timestep = 1000000

2080 atoms
8 atom types

0.0000000000000000e+00 4.0000000000000000e+01 xlo xhi
0.0000000000000000e+00 4.0000000000000000e+01 ylo yhi
0.0000000000000000e+00 1.0000000000000000e+02 zlo zhi

Masses

1 3.896
2 16.08
3 1058.08
4 8.378
5 8.378
6 8.378
7 8.378
8 8.378

Atoms # meso-molecular

1 2 4 2.2559723595316457e+00 9.3786525861112979e-01 4.2000000000000000e+03 0.0000000000000000e+00 0.0000000000000000e+00 2.5000000000000000e+00 
2 2 4 2.2559723595316457e+00 4.4276966379596883e-01 4.2000000000000000e+03 0.0000000000000000e+00 2.0000000000000000e+00 2.5000000000000000e+00 
3 2 4 2.2559723595316457e+00 -8.0897104397172437e-01 4.2000000000000000e+03 0.0000000000000000e+00 4.0000000000000000e+00 2.5000000000000000e+00 
4 2 4 2.2559723595316457e+00 -2.0926838249484687e+00 4.2000000000000000e+03 0.0000000000000000e+00 6.0000000000000000e+00 2.5000000000000000e+00 
21 2 4 2.2559723595316457e+00 1.0741220183961451e+00 4.2000000000000000e+03 2.0000000000000000e+00 0.0000000000000000e+00 2.5000000000000000e+00 
22 2 4 2.2559723595316457e+00 3.9508191443431617e-01 4.2000000000000000e+03 2.0000000000000000e+00 2.0000000000000000e+00 2.5000000000000000e+00 
23 2 4 2.2559723595316457e+00 1.9266309764083067e-01 4.2000000000000000e+03 2.0000000000000000e+00 4.0000000000000000e+00 2.5000000000000000e+00 
24 2 4 2.2559723595316457e+00 8.6564164984660441e-01 4.2000000000000000e+03 2.0000000000000000e+00 6.0000000000000000e+00 2.5000000000000000e+00 
41 2 4 2.2559723595316457e+00 1.5718365041501803e+00 4.2000000000000000e+03 4.0000000000000000e+00 0.0000000000000000e+00 2.5000000000000000e+00 
42 2 4 2.2559723595316457e+00 6.7502517689376607e-01 4.2000000000000000e+03 4.0000000000000000e+00 2.0000000000000000e+00 2.5000000000000000e+00 
43 2 4 2.2559723595316457e+00 9.0749043754307168e-01 4.2000000000000000e+03 4.0000000000000000e+00 4.0000000000000000e+00 2.5000000000000000e+00 
44 2 4 2.2559723595316457e+00 2.2387109934509857e+00 4.2000000000000000e+03 4.0000000000000000e+00 6.0000000000000000e+00 2.5000000000000000e+00 
61 2 4 2.2559723595316457e+00 1.4527270793570133e+00 4.2000000000000000e+03 6.0000000000000000e+00 0.0000000000000000e+00 2.5000000000000000e+00 
62 2 4 2.2559723595316457e+00 9.8898391636966210e-01 4.2000000000000000e+03 6.0000000000000000e+00 2.0000000000000000e+00 2.5000000000000000e+00 
63 2 4 2.2559723595316457e+00 9.4369077643335153e-01 4.2000000000000000e+03 6.0000000000000000e+00 4.0000000000000000e+00 2.5000000000000000e+00 
64 2 4 2.2559723595316457e+00 1.4177096811907797e+00 4.2000000000000000e+03 6.0000000000000000e+00 6.0000000000000000e+00 2.5000000000000000e+00 
81 2 4 2.2559723595316457e+00 1.0429985430578581e+00 4.2000000000000000e+03 8.0000000000000000e+00 0.0000000000000000e+00 2.5000000000000000e+00 
82 2 4 2.2559723595316457e+00 1.0037518200262778e+00 4.2000000000000000e+03 8.0000000000000000e+00 2.0000000000000000e+00 2.5000000000000000e+00 
83 2 4 2.2559723595316457e+00 1.0167556823441166e+00 4.2000000000000000e+03 8.0000000000000000e+00 4.0000000000000000e+00 2.5000000000000000e+00 
84 2 4 2.2559723595316457e+00 1.2220053396625588e+00 4.2000000000000000e+03 8.0000000000000000e+00 6.0000000000000000e+00 2.5000000000000000e+00 
101 2 4 2.2559723595316457e+00 1.0000000000000000e+00 4.2000000000000000e+03 1.0000000000000000e+01 0.0000000000000000e+00 2.5000000000000000e+00 
102 2 4 2.2559723595316457e+00 1.0000025234431007e+00 4.2000000000000000e+03 1.0000000000000000e+01 2.0000000000000000e+00 2.5000000000000000e+00 
103 2 4 2.2559723595316457e+00 -1.2444644970049250e+00 4.2000000000000000e+03 1.0000000000000000e+01 4.0000000000000000e+00 2.5000000000000000e+00 
104 2 4 2.2559723595316457e+00 -1.1541770875895386e+02 4.2000000000000000e+03 1.0000000000000000e+01 6.0000000000000000e+00 2.5000000000000000e+00 
121 2 4 2.2559723595316457e+00 1.0000000000000000e+00 4.2000000000000000e+03 1.2000000000000000e+01 0.0000000000000000e+00 2.5000000000000000e+00 
122 2 4 2.2559723595316457e+00 9.9926007370728231e-01 4.2000000000000000e+03 1.2000000000000000e+01 2.0000000000000000e+00 2.5000000000000000e+00 
123 2 4 2.2559723595316457e+00 -1.1551872234828082e+02 4.2000000000000000e+03 1.2000000000000000e+01 4.0000000000000000e+00 2.5000000000000000e+00 
124 2 4 2.2559723595316457e+00 -9.7011670935433960e+02 4.2000000000000000e+03 1.2000000000000000e+01 6.0000000000000000e+00 2.5000000000000000e+00 
141 2 4 2.2559723595316457e+00 1.0006257526129896e+00 4.2000000000000000e+03 1.4000000000000000e+01 0.0000000000000000e+00 2.5000000000000000e+00 
142 2 4 2.2559723595316457e+00 -6.9808922356209191e+00 4.2000000000000000e+03 1.4000000000000000e+01 2.0000000000000000e+00 2.5000000000000000e+00 
143 2 4 2.2559723595316457e+00 -5.0927563106680600e+02 4.2000000000000000e+03 1.4000000000000000e+01 4.0000000000000000e+00 2.5000000000000000e+00 
144 2 4 2.2559723595316457e+00 -3.0715542094000211e+03 4.2000000000000000e+03 1.4000000000000000e+01 6.0000000000000000e+00 2.5000000000000000e+00 
161 2 4 2.2559723595316457e+00 9.9915140203713992e-01 4.2000000000000000e+03 1.6000000000000000e+01 0.0000000000000000e+00 2.5000000000000000e+00 
162 2 4 2.2559723595316457e+00 -2.6745627139007375e+01 4.2000000000000000e+03 1.6000000000000000e+01 2.0000000000000000e+00 2.5000000000000000e+00 
163 2 4 2.2559723595316457e+00 -1.0762193484963202e+03 4.2000000000000000e+03 1.6000000000000000e+01 4.0000000000000000e+00 2.5000000000000000e+00 
164 2 4 2.2559723595316457e+00 -5.8742549648328550e+03 4.2000000000000000e+03 1.6000000000000000e+01 6.0000000000000000e+00 2.5000000000000000e+00 
181 2 4 2.2559723595316457e+00 9.9904352347852332e-01 4.2000000000000000e+03 1.8000000000000000e+01 0.0000000000000000e+00 2.5000000000000000e+00 
182 2 4 2.2559723595316457e+00 -3.5191037161408161e+01 4.2000000000000000e+03 1.8000000000000000e+01 2.0000000000000000e+00 2.5000000000000000e+00 
183 2 4 2.2559723595316457e+00 -1.4784055359009128e+03 4.2000000000000000e+03 1.8000000000000000e+01 4.0000000000000000e+00 2.5000000000000000e+00 
184 2 4 2.2559723595316457e+00 -7.9455705436027192e+03 4.2000000000000000e+03 1.8000000000000000e+01 6.0000000000000000e+00 2.5000000000000000e+00 
5 2 4 2.2559723595316457e+00 -6.5734788714073367e-01 4.2000000000000000e+03 0.0000000000000000e+00 8.0000000000000000e+00 2.5000000000000000e+00 
6 2 4 2.2559723595316457e+00 2.4504719054735391e+00 4.2000000000000000e+03 0.0000000000000000e+00 1.0000000000000000e+01 2.5000000000000000e+00 
7 2 4 2.2559723595316457e+00 2.8136226912150462e+00 4.2000000000000000e+03 0.0000000000000000e+00 1.2000000000000000e+01 2.5000000000000000e+00 
25 2 4 2.2559723595316457e+00 1.7589591013697636e+00 4.2000000000000000e+03 2.0000000000000000e+00 8.0000000000000000e+00 2.5000000000000000e+00 
26 2 4 2.2559723595316457e+00 2.0384430296348190e+00 4.2000000000000000e+03 2.0000000000000000e+00 1.0000000000000000e+01 2.5000000000000000e+00 
27 2 4 2.2559723595316457e+00 1.5626442080576224e+00 4.2000000000000000e+03 2.0000000000000000e+00 1.2000000000000000e+01 2.5000000000000000e+00 
45 2 4 2.2559723595316457e+00 2.4627874584612783e+00 4.2000000000000000e+03 4.0000000000000000e+00 8.0000000000000000e+00 2.5000000000000000e+00 
46 2 4 2.2559723595316457e+00 1.1451314212983901e+00 4.2000000000000000e+03 4.0000000000000000e+00 1.0000000000000000e+01 2.5000000000000000e+00 
47 2 4 2.2559723595316457e+00 9.3164966714638409e-01 4.2000000000000000e+03 4.0000000000000000e+00 1.2000000000000000e+01 2.5000000000000000e+00 
65 2 4 2.2559723595316457e+00 1.1803423358995744e+00 4.2000000000000000e+03 6.0000000000000000e+00 8.0000000000000000e+00 2.5000000000000000e+00 
66 2 4 2.2559723595316457e+00 5.2496594971903077e-01 4.2000000000000000e+03 6.0000000000000000e+00 1.0000000000000000e+01 2.5000000000000000e+00 
67 2 4 2.2559723595316457e+00 1.0194407040487325e+00 4.2000000000000000e+03 6.0000000000000000e+00 1.2000000000000000e+01 2.5000000000000000e+00 
85 2 4 2.2559723595316457e+00 -6.6230255854524440e+00 4.2000000000000000e+03 8.0000000000000000e+00 8.0000000000000000e+00 2.5000000000000000e+00 
86 2 4 2.2559723595316457e+00 -2.6356576197497922e+01 4.2000000000000000e+03 8.0000000000000000e+00 1.0000000000000000e+01 2.5000000000000000e+00 
87 2 4 2.2559723595316457e+00 -3.5332481151523204e+01 4.2000000000000000e+03 8.0000000000000000e+00 1.2000000000000000e+01 2.5000000000000000e+00 
105 2 4 2.2559723595316457e+00 -5.0935403864941645e+02 4.2000000000000000e+03 1.0000000000000000e+01 8.0000000000000000e+00 2.5000000000000000e+00 
106 2 4 2.2559723595316457e+00 -1.0776887674672930e+03 4.2000000000000000e+03 1.0000000000000000e+01 1.0000000000000000e+01 2.5000000000000000e+00 
107 2 4 2.2559723595316457e+00 -1.4877432614311701e+03 4.2000000000000000e+03 1.0000000000000000e+01 1.2000000000000000e+01 2.5000000000000000e+00 
125 2 4 2.2559723595316457e+00 -3.0729802845417380e+03 4.2000000000000000e+03 1.2000000000000000e+01 8.0000000000000000e+00 2.5000000000000000e+00 
126 2 4 2.2559723595316457e+00 -5.8815985887512797e+03 4.2000000000000000e+03 1.2000000000000000e+01 1.0000000000000000e+01 2.5000000000000000e+00 
127 2 4 2.2559723595316457e+00 -8.0965913485675101e+03 4.2000000000000000e+03 1.2000000000000000e+01 1.2000000000000000e+01 2.5000000000000000e+00 
145 2 4 2.2559723595316457e+00 -8.7659320341513812e+03 4.2000000000000000e+03 1.4000000000000000e+01 8.0000000000000000e+00 2.5000000000000000e+00 
146 2 4 2.2559723595316457e+00 -1.6327395550287081e+04 4.2000000000000000e+03 1.4000000000000000e+01 1.0000000000000000e+01 2.5000000000000000e+00 
147 2 4 2.2559723595316457e+00 -2.2622439928487052e+04 4.2000000000000000e+03 1.4000000000000000e+01 1.2000000000000000e+01 2.5000000000000000e+00 
165 2 4 2.2559723595316457e+00 -1.6307910131826246e+04 4.2000000000000000e+03 1.6000000000000000e+01 8.0000000000000000e+00 2.5000000000000000e+00 
166 2 4 2.2559723595316457e+00 -3.0450245886832159e+04 4.2000000000000000e+03 1.6000000000000000e+01 1.0000000000000000e+01 2.5000000000000000e+00 
167 2 4 2.2559723595316457e+00 -4.2744592781353684e+04 4.2000000000000000e+03 1.6000000000000000e+01 1.2000000000000000e+01 2.5000000000000000e+00 
185 2 4 2.2559723595316457e+00 -2.1977609995571511e+04 4.2000000000000000e+03 1.8000000000000000e+01 8.0000000000000000e+00 2.5000000000000000e+00 
186 2 4 2.2559723595316457e+00 -4.1327147574921983e+04 4.2000000000000000e+03 1.8000000000000000e+01 1.0000000000000000e+01 2.5000000000000000e+00 
187 2 4 2.2559723595316457e+00 -5.8603197817282133e+04 4.2000000000000000e+03 1.8000000000000000e+01 1.2000000000000000e+01 2.5000000000000000e+00 
8 2 4 2.2559723595316457e+00 1.5244516387061822e+00 4.2000000000000000e+03 0.0000000000000000e+00 1.4000000000000000e+01 2.5000000000000000e+00 
9 2 4 2.2559723595316457e+00 3.2290706815723202e-01 4.2000000000000000e+03 0.0000000000000000e+00 1.6000000000000000e+01 2.5000000000000000e+00 
10 2 4 2.2559723595316457e+00 7.3550167332515937e-01 4.2000000000000000e+03 0.0000000000000000e+00 1.8000000000000000e+01 2.5000000000000000e+00 
28 2 4 2.2559723595316457e+00 9.3493828974679449e-01 4.2000000000000000e+03 2.0000000000000000e+00 1.4000000000000000e+01 2.5000000000000000e+00 
29 2 4 2.2559723595316457e+00 7.4383440503380505e-01 4.2000000000000000e+03 2.0000000000000000e+00 1.6000000000000000e+01 2.5000000000000000e+00 
30 2 4 2.2559723595316457e+00 1.5049648046131523e+00 4.2000000000000000e+03 2.0000000000000000e+00 1.8000000000000000e+01 2.5000000000000000e+00 
48 2 4 2.2559723595316457e+00 1.5226271880604534e+00 4.2000000000000000e+03 4.0000000000000000e+00 1.4000000000000000e+01 2.5000000000000000e+00 
49 2 4 2.2559723595316457e+00 2.0400911097207315e+00 4.2000000000000000e+03 4.0000000000000000e+00 1.6000000000000000e+01 2.5000000000000000e+00 
50 2 4 2.2559723595316457e+00 1.7172778720868922e+00 4.2000000000000000e+03 4.0000000000000000e+00 1.8000000000000000e+01 2.5000000000000000e+00 
68 2 4 2.2559723595316457e+00 1.1554084277325516e+00 4.2000000000000000e+03 6.0000000000000000e+00 1.4000000000000000e+01 2.5000000000000000e+00 
69 2 4 2.2559723595316457e+00 1.3399452383504342e+00 4.2000000000000000e+03 6.0000000000000000e+00 1.6000000000000000e+01 2.5000000000000000e+00 
70 2 4 2.2559723595316457e+00 5.1318707819156684e-01 4.2000000000000000e+03 6.0000000000000000e+00 1.8000000000000000e+01 2.5000000000000000e+00 
88 2 4 2.2559723595316457e+00 -3.6736098017420417e+01 4.2000000000000000e+03 8.0000000000000000e+00 1.4000000000000000e+01 2.5000000000000000e+00 
89 2 4 2.2559723595316457e+00 -3.7178782091753497e+01 4.2000000000000000e+03 8.0000000000000000e+00 1.6000000000000000e+01 2.5000000000000000e+00 
90 2 4 2.2559723595316457e+00 -3.7159896092802647e+01 4.2000000000000000e+03 8.0000000000000000e+00 1.8000000000000000e+01 2.5000000000000000e+00 
108 2 4 2.2559723595316457e+00 -1.6166480801077414e+03 4.2000000000000000e+03 1.0000000000000000e+01 1.4000000000000000e+01 2.5000000000000000e+00 
109 2 4 2.2559723595316457e+00 -1.6238684150119220e+03 4.2000000000000000e+03 1.0000000000000000e+01 1.6000000000000000e+01 2.5000000000000000e+00 
110 2 4 2.2559723595316457e+00 -1.6251216014765835e+03 4.2000000000000000e+03 1.0000000000000000e+01 1.8000000000000000e+01 2.5000000000000000e+00 
128 2 4 2.2559723595316457e+00 -9.0444200861211975e+03 4.2000000000000000e+03 1.2000000000000000e+01 1.4000000000000000e+01 2.5000000000000000e+00 
129 2 4 2.2559723595316457e+00 -9.1915216948051548e+03 4.2000000000000000e+03 1.2000000000000000e+01 1.6000000000000000e+01 2.5000000000000000e+00 
130 2 4 2.2559723595316457e+00 -9.1932244212796013e+03 4.2000000000000000e+03 1.2000000000000000e+01 1.8000000000000000e+01 2.5000000000000000e+00 
148 2 4 2.2559723595316457e+00 -2.5672300971743916e+04 4.2000000000000000e+03 1.4000000000000000e+01 1.4000000000000000e+01 2.5000000000000000e+00 
149 2 4 2.2559723595316457e+00 -2.6314591683383871e+04 4.2000000000000000e+03 1.4000000000000000e+01 1.6000000000000000e+01 2.5000000000000000e+00 
150 2 4 2.2559723595316457e+00 -2.6325176720203737e+04 4.2000000000000000e+03 1.4000000000000000e+01 1.8000000000000000e+01 2.5000000000000000e+00 
168 2 4 2.2559723595316457e+00 -4.9073285858199859e+04 4.2000000000000000e+03 1.6000000000000000e+01 1.4000000000000000e+01 2.5000000000000000e+00 
169 2 4 2.2559723595316457e+00 -5.0572345015179286e+04 4.2000000000000000e+03 1.6000000000000000e+01 1.6000000000000000e+01 2.5000000000000000e+00 
170 2 4 2.2559723595316457e+00 -5.0624455281430215e+04 4.2000000000000000e+03 1.6000000000000000e+01 1.8000000000000000e+01 2.5000000000000000e+00 
188 2 4 2.2559723595316457e+00 -6.7758126612678752e+04 4.2000000000000000e+03 1.8000000000000000e+01 1.4000000000000000e+01 2.5000000000000000e+00 
189 2 4 2.2559723595316457e+00 -6.9995452064898651e+04 4.2000000000000000e+03 1.8000000000000000e+01 1.6000000000000000e+01 2.5000000000000000e+00 
190 2 4 2.2559723595316457e+00 -7.0086056504155844e+04 4.2000000000000000e+03 1.8000000000000000e+01 1.8000000000000000e+01 2.5000000000000000e+00 
917 519 2 1.0279946001046341e+00 1.7591215816778677e+04 4.2000000000000000e+03 6.8520609072186112e+00 9.0553788164396160e-02 3.9875340348615140e+01 
2016 1618 2 1.0279942681698997e+00 6.2621304315810139e+03 4.2000000000000000e+03 6.9636022271167635e+00 1.7578447921032858e-01 3.9896279046458780e+01 
689 291 2 1.0279934376255866e+00 5.1427184033870653e+03 4.2000000000000000e+03 7.3535587579220483e+00 5.9731585483642257e-03 3.9898068787850818e+01 
1600 1202 2 1.0279932651287504e+00 3.0881865472946115e+03 4.2000000000000000e+03 7.3201392521292981e+00 1.5573433744494342e-01 3.9929878230287606e+01 
487 89 2 1.0279932537800434e+00 1.5360892383618158e+04 4.2000000000000000e+03 7.1332478931665486e+00 3.5782913791288068e-01 3.9976535516165896e+01 
1494 1096 2 1.0279919034940028e+00 1.1069986739144363e+03 4.2000000000000000e+03 6.5473531786353112e+00 7.5479189907494826e-01 4.0279225479080871e+01 
1835 1437 2 1.0279967634764753e+00 -1.2559467906415232e+03 4.2000000000000000e+03 4.8865949971827876e+00 4.8383615388525383e-02 4.1229887127887366e+01 
418 20 2 1.0280110906653255e+00 1.6779580229561820e+04 4.2000000000000000e+03 1.1461583120739549e+00 5.6833353131975806e-01 4.5707018706364046e+01 
1801 1403 2 1.0280107207101541e+00 4.6941916363172131e+03 4.2000000000000000e+03 1.0739043161469357e+00 8.8652855672392694e-01 4.5897703946598568e+01 
1481 1083 2 1.0280113810509492e+00 1.9654524155763083e+03 4.2000000000000000e+03 1.5572012274459242e+00 1.3602556438143352e+00 4.6138819020623679e+01 
1160 762 2 1.0280086114334743e+00 -8.8050906049305377e+03 4.2000000000000000e+03 7.7124160105128448e-01 1.8834147008809798e+00 4.6560432308797594e+01 
540 142 2 1.0279931889335010e+00 7.9451366567681152e+03 4.2000000000000000e+03 7.0379250565334788e+00 4.4415799946681184e-01 4.0011905002057482e+01 
2032 1634 2 1.0279924626503347e+00 1.5464044643126645e+04 4.2000000000000000e+03 6.9830767792104433e+00 6.2028774840366230e-01 4.0116508152751514e+01 
831 433 2 1.0279978483914152e+00 -1.2593583336205222e+04 4.2000000000000000e+03 6.6799058080410445e+00 1.9835431055241179e+00 4.3245236253140348e+01 
1124 726 2 1.0280013077735823e+00 -8.3624859351198884e+03 4.2000000000000000e+03 7.4198070195028150e+00 1.8899720198526027e+00 4.3877033993531427e+01 
1032 634 2 1.0280005677918567e+00 -8.9868278591722519e+03 4.2000000000000000e+03 7.6076462446665181e+00 1.8173787263476364e+00 4.3931478729129410e+01 
880 482 2 1.0279997611633171e+00 2.0605881947898368e+04 4.2000000000000000e+03 7.7569791486034507e+00 1.7453517888756560e+00 4.3935559776658764e+01 
1856 1458 2 1.0280029085695190e+00 -9.0605971310397672e+03 4.2000000000000000e+03 7.7637383050719890e+00 1.7742313371761198e+00 4.4423860996030299e+01 
613 215 2 1.0280030731107819e+00 1.0979001081615093e+04 4.2000000000000000e+03 7.8838741753465467e+00 1.7210802251575090e+00 4.4621222850523033e+01 
1934 1536 2 1.0280043296762138e+00 1.1556122207774984e+04 4.2000000000000000e+03 7.6043434814568895e+00 1.8739676710781110e+00 4.4653244597221097e+01 
610 212 2 1.0280013722775188e+00 4.4907994113420073e+03 4.2000000000000000e+03 8.5770790017610175e+00 1.1620832355426196e+00 4.4813744817506553e+01 
1417 1019 2 1.0280066638974041e+00 1.0276216442304234e+04 4.2000000000000000e+03 7.2507009311014556e+00 2.1001848008752968e+00 4.5302784991442557e+01 
1053 655 2 1.0280038636395992e+00 5.5859715290903689e+04 4.2000000000000000e+03 7.9974359707756317e+00 1.7358854428993284e+00 4.5376875205825911e+01 
1795 1397 2 1.0280034167467702e+00 -2.3244159624463995e+02 4.2000000000000000e+03 8.1057087098603127e+00 1.6687260926319634e+00 4.5430883620953594e+01 
1797 1399 2 1.0279952020447047e+00 9.1666635204120212e+03 4.2000000000000000e+03 1.7822103572944560e+01 1.8639295169219277e+01 4.5248935902498616e+01 
1800 1402 2 1.0279953844021918e+00 9.1706298414523644e+03 4.2000000000000000e+03 1.7741095167177953e+01 1.8478272265076932e+01 4.5276804811083139e+01 
773 375 2 1.0279950183643238e+00 4.4845227538642857e+03 4.2000000000000000e+03 1.8310559969819611e+01 1.9569696670113053e+01 4.5415079225086366e+01 
1673 1275 2 1.0279966523620760e+00 -4.8363521891184573e+03 4.2000000000000000e+03 1.7348935235825625e+01 1.7949258705611044e+01 4.5554946865623371e+01 
637 239 2 1.0279990964508900e+00 9.7219885298925362e+02 4.2000000000000000e+03 1.7410207994269694e+01 1.6928722697423186e+01 4.6552327081692439e+01 
1202 804 2 1.0279986301340689e+00 -2.0712315884956715e+04 4.2000000000000000e+03 1.8244347226220956e+01 1.6737408749600338e+01 4.6599007046110579e+01 
1045 647 2 1.0280120914701394e+00 1.9353553571548546e+04 4.2000000000000000e+03 3.7147480695527149e+00 2.4615595235962764e+00 4.6709638341193546e+01 
1171 773 2 1.0280118118607720e+00 -7.4209101480439367e+03 4.2000000000000000e+03 4.3359727708097564e+00 2.6144262748517479e+00 4.6757918456189493e+01 
996 598 2 1.0280085982666831e+00 -1.5492338591510346e+04 4.2000000000000000e+03 1.8375424344694793e+00 2.6778660730818831e+00 4.7175573644073765e+01 
1850 1452 2 1.0280073742566682e+00 -1.3516951700116369e+04 4.2000000000000000e+03 1.8144034344618372e+00 3.0313369715704814e+00 4.7429302407721735e+01 
1401 1003 2 1.0280083425953248e+00 -2.9128275727278946e+04 4.2000000000000000e+03 2.3118189850358144e+00 3.0418834140825908e+00 4.7484994467697568e+01 
426 28 2 1.0280030889699485e+00 1.4965734224234651e+04 4.2000000000000000e+03 2.3335092463145971e-01 3.3045358436685497e+00 4.7638652867391990e+01 
1227 829 2 1.0280072942826912e+00 8.0844916850422123e+03 4.2000000000000000e+03 2.3837631937808701e+00 3.3354400456698037e+00 4.7697081665366355e+01 
1953 1555 2 1.0280070989794157e+00 1.9790429197284422e+04 4.2000000000000000e+03 9.4409547471872524e-01 2.2353024467154565e+00 4.7770955903835379e+01 
1634 1236 2 1.0280067746741661e+00 -5.0899735199444767e+03 4.2000000000000000e+03 2.5247130101966464e+00 3.5094083651626602e+00 4.7835885326859518e+01 
1484 1086 2 1.0280067303499596e+00 1.9194957880405857e+03 4.2000000000000000e+03 2.9576948314530913e+00 3.7640129514016629e+00 4.8095362408016229e+01 
912 514 2 1.0280057987691937e+00 5.9181900682893192e+03 4.2000000000000000e+03 6.2794550615026132e+00 3.9395007268607354e+00 4.8199638628025085e+01 
1212 814 2 1.0280039829507435e+00 -1.7815996151091393e+04 4.2000000000000000e+03 3.4716490185493294e+00 4.3894834730995873e+00 4.8657004838204202e+01 
874 476 2 1.0280044057719520e+00 -1.7807523985112921e+03 4.2000000000000000e+03 5.2508441937347419e+00 4.7885297588137554e+00 4.8997750406633898e+01 
2065 1667 2 1.0280040193006810e+00 1.0496723927772193e+04 4.2000000000000000e+03 5.8744364525671093e+00 4.7822220118768932e+00 4.9016061467612495e+01 
2023 1625 2 1.0280023961477331e+00 1.8302928024417939e+04 4.2000000000000000e+03 3.4720568003032279e+00 4.9838773655745925e+00 4.9055996684984407e+01 
1880 1482 2 1.0280065972746901e+00 1.8869795986939000e+04 4.2000000000000000e+03 4.0739674564001813e+00 4.5735414097858840e+00 4.9114608283096928e+01 
1751 1353 2 1.0279954461148566e+00 -1.3744535806983522e+04 4.2000000000000000e+03 1.7095883348174021e-01 5.9519346740326533e+00 4.9341763084688857e+01 
1293 895 2 1.0280007038039094e+00 -6.8259757213509893e+03 4.2000000000000000e+03 2.9298532206990493e+00 5.7234273537294538e+00 4.9382849181986948e+01 
1177 779 2 1.0280015854539948e+00 -1.2744673049024328e+04 4.2000000000000000e+03 3.7903943964043068e+00 5.6423999815940737e+00 4.9543710287654001e+01 
1217 819 2 1.0280014409410203e+00 2.4424793910409036e+02 4.2000000000000000e+03 6.3884843708452781e+00 5.4106826803675974e+00 4.9961391233316888e+01 
865 467 2 1.0279969356948675e+00 1.0374796776912350e+04 4.2000000000000000e+03 8.0205578409439393e-01 5.5286371596418977e+00 5.0312187275036834e+01 
1580 1182 2 1.0280000698763392e+00 -7.5666906074298868e+03 4.2000000000000000e+03 5.9773546623431599e+00 6.4132648680638731e+00 5.0705779827656201e+01 
999 601 2 1.0280014105849367e+00 -1.1922145739862279e+04 4.2000000000000000e+03 8.0892202533996915e+00 3.0475983494690850e+00 4.7902441224603116e+01 
1876 1478 2 1.0279983313689423e+00 2.7623705814378114e+04 4.2000000000000000e+03 8.8040258324371603e+00 3.4705971523817962e+00 4.8694618230932704e+01 
1747 1349 2 1.0280045463738308e+00 2.8966146941773393e+04 4.2000000000000000e+03 6.9632694396951198e+00 3.1249611311349543e+00 4.8853833848644641e+01 
1214 816 2 1.0279900715859021e+00 -2.2541888839496802e+04 4.2000000000000000e+03 1.0793354938000629e+01 2.6668566273538339e+00 4.9032927376600689e+01 
1685 1287 2 1.0279934758096201e+00 2.9393617398162783e+03 4.2000000000000000e+03 9.9903075891751172e+00 3.1434806109391635e+00 4.9061251153730737e+01 
1653 1255 2 1.0279933149245120e+00 8.6037251463971570e+03 4.2000000000000000e+03 1.0041044996373623e+01 3.3715433799214662e+00 4.9358266052938866e+01 
1201 803 2 1.0279854860881086e+00 -2.5759091081707640e+04 4.2000000000000000e+03 1.2902308368240673e+01 2.1753913905841169e+00 4.9668544894010786e+01 
730 332 2 1.0279907313772183e+00 7.1659878220755418e+03 4.2000000000000000e+03 1.0860514579827541e+01 3.3056851243116108e+00 4.9673931328813552e+01 
605 207 2 1.0279921207723246e+00 1.9334413354995035e+04 4.2000000000000000e+03 9.7459603730605338e+00 3.9047836700008993e+00 5.0142614551170048e+01 
1683 1285 2 1.0279922053802861e+00 -5.6301380945196670e+03 4.2000000000000000e+03 1.0201805876230273e+01 4.0186640581552320e+00 5.0347597124372747e+01 
708 310 2 1.0279922366328627e+00 9.0060006339611937e+03 4.2000000000000000e+03 1.0066625127181503e+01 4.0416843511788842e+00 5.0394208592331978e+01 
472 74 2 1.0279955686584530e+00 1.5084762626127167e+04 4.2000000000000000e+03 9.8921802190950903e+00 3.9464493398183609e+00 5.0427425233053050e+01 
480 82 2 1.0279903964891908e+00 1.4904107122754045e+04 4.2000000000000000e+03 1.1722994157871193e+01 4.0013628479147139e+00 5.0556547975502632e+01 
1096 698 2 1.0279928167223504e+00 2.2055344797209968e+03 4.2000000000000000e+03 1.0088814924819120e+01 4.2368832872441846e+00 5.0635965466416337e+01 
1966 1568 2 1.0279851431666061e+00 1.0855781883236843e+04 4.2000000000000000e+03 1.1938325548070258e+01 1.9315263674440444e+00 5.0707796907397075e+01 
1610 1212 2 1.0279916928390103e+00 -1.6680042746340383e+04 4.2000000000000000e+03 9.9654760036592727e+00 4.3237665050797407e+00 5.0855207633261280e+01 
572 174 2 1.0279992172714281e+00 2.4238035198965451e+02 4.2000000000000000e+03 7.2296745857762499e+00 5.8634503223222207e+00 5.0933755098522425e+01 
810 412 2 1.0279998648730742e+00 -1.5548056060278088e+04 4.2000000000000000e+03 7.5405388896748899e+00 5.7249247862165040e+00 5.1049113224569787e+01 
1254 856 2 1.0279986977310145e+00 -1.7327537855566134e+04 4.2000000000000000e+03 6.9655839565936235e+00 6.5782497315407698e+00 5.1211318268027618e+01 
552 154 2 1.0279985817379345e+00 1.7276267019012892e+04 4.2000000000000000e+03 8.7009123657341298e+00 5.4019091959750956e+00 5.1264830398718281e+01 
427 29 2 1.0279968081872994e+00 1.4771212785067573e+04 4.2000000000000000e+03 9.8218691488822447e+00 4.5516775192614407e+00 5.1305868181805835e+01 
1516 1118 2 1.0279993774436167e+00 -1.0119025638378793e+04 4.2000000000000000e+03 7.0451569952973578e+00 5.8500922974672385e+00 5.1708910368041870e+01 
1842 1444 2 1.0279882926582913e+00 -1.6794720500433094e+04 4.2000000000000000e+03 1.4838603075923187e+01 1.4216457475276485e+00 5.0082919483755461e+01 
1407 1009 2 1.0279978568483406e+00 -3.8443462220488245e+03 4.2000000000000000e+03 1.9228457227735010e+01 2.1689528063285715e+00 5.0891149965604022e+01 
2079 1681 2 1.0279961368351191e+00 -1.9615935619211227e+03 4.2000000000000000e+03 1.6700894126681451e+01 2.6194871031719233e+00 5.0919193800395583e+01 
1771 1373 2 1.0279917746332210e+00 -4.4150262923211176e+03 4.2000000000000000e+03 1.4184042347742281e+01 3.6157240678120219e+00 5.1009270688368872e+01 
477 79 2 1.0280017965023258e+00 1.4914589300317712e+04 4.2000000000000000e+03 1.8598951294177464e+01 4.4093797616507588e+00 5.1571647164211967e+01 
1406 1008 2 1.0279960654732587e+00 -3.9501568529585516e+03 4.2000000000000000e+03 1.5121122437632602e+01 4.7565079863144391e+00 5.1633070749040485e+01 
898 500 2 1.0279962081683616e+00 8.1045798407064319e+02 4.2000000000000000e+03 1.5198803478278119e+01 4.7240905438562883e+00 5.1634963866928416e+01 
2058 1660 2 1.0280013633657534e+00 1.0410844924700021e+04 4.2000000000000000e+03 1.7852641459754469e+01 4.5973161465180468e+00 5.1658633820405875e+01 
1434 1036 2 1.0279949259649463e+00 -9.4618491284000665e+03 4.2000000000000000e+03 1.9794744579712948e+01 1.9299664212654375e+00 5.1682316626599352e+01 
848 450 2 1.0279900329182565e+00 3.0686718600173126e+03 4.2000000000000000e+03 1.6858901026873443e+01 3.2534052570124108e+00 5.1699538312652635e+01 
1426 1028 2 1.0280003095147734e+00 -1.6207816493113311e+04 4.2000000000000000e+03 1.8855535642359982e+01 5.9895286976771782e+00 5.1823001676984390e+01 
660 262 2 1.0279964245233850e+00 1.7193619434317704e+03 4.2000000000000000e+03 1.9893303528440001e+01 2.9670697982057073e+00 5.1854918721035226e+01 
1358 960 2 1.0279967163934356e+00 -3.1013941386524286e+04 4.2000000000000000e+03 1.4832548432490080e+01 5.8147270031777190e+00 5.1916022418758956e+01 
2059 1661 2 1.0279976470013799e+00 1.0365778018414945e+04 4.2000000000000000e+03 1.9238249022866192e+01 3.7014586770762752e+00 5.2055909157939304e+01 
841 443 2 1.0279952885429267e+00 9.0314444924511445e+03 4.2000000000000000e+03 1.5708787402157666e+01 4.0455669509674212e+00 5.2061318263385203e+01 
1832 1434 2 1.0279955855079304e+00 -1.4125742263387235e+03 4.2000000000000000e+03 1.5750416772455948e+01 4.1217448399182084e+00 5.2110191239549629e+01 
1526 1128 2 1.0279951347303491e+00 -1.2253305348368254e+04 4.2000000000000000e+03 1.5584693586403077e+01 4.0983860397982799e+00 5.2124520699673958e+01 
1102 704 2 1.0279953918317863e+00 -3.4173097897189895e+04 4.2000000000000000e+03 1.5656218215762371e+01 4.1713698327096260e+00 5.2165651900899526e+01 
852 454 2 1.0279951898223409e+00 8.3508982463777284e+03 4.2000000000000000e+03 1.5489697952064750e+01 4.1366585677990964e+00 5.2172827698175304e+01 
1030 632 2 1.0279954661297066e+00 -2.3040272069328344e+03 4.2000000000000000e+03 1.5544922369595566e+01 4.3104458380807085e+00 5.2295942294840543e+01 
1427 1029 2 1.0279974442695599e+00 -1.6223528559743652e+04 4.2000000000000000e+03 1.9734825128677144e+01 5.9947253816690971e+00 5.2754612384678694e+01 
1591 1193 2 1.0279984964862239e+00 2.3552119816039071e+03 4.2000000000000000e+03 1.5431859358932574e+00 7.5249348670844531e+00 5.0411922347861839e+01 
887 489 2 1.0280012319513641e+00 -1.8667271518948968e+04 4.2000000000000000e+03 3.4493635664646565e+00 7.7131129686053974e+00 5.0695015355879846e+01 
1349 951 2 1.0280013599917204e+00 -9.6079557494865276e+03 4.2000000000000000e+03 3.5655373009774096e+00 7.7694637593844371e+00 5.0750116793419828e+01 
1107 709 2 1.0280161019400074e+00 -6.7585657451805246e+03 4.2000000000000000e+03 3.8035559571993466e-01 1.2190367566210746e+01 5.1378250216281202e+01 