LAMMPS data file via write_data, version 30 Jul 2016, timestep = 50400000

644 atoms
2 atom types

0.0000000000000000e+00 2.0000000000000000e+01 xlo xhi
0.0000000000000000e+00 2.0000000000000000e+01 ylo yhi
0.0000000000000000e+00 2.0000000000000000e+01 zlo zhi

Masses

1 4.31
2 3.896

Atoms # meso-molecular

278 0 1 1.0279999999998877e+00 1.5606595310787856e+01 1.0000000000000000e+00 2.5584002152297791e+00 2.0329843281351141e+00 2.3801266790454507e+00 
150 0 1 1.0279999999999001e+00 3.2395981563094720e+00 1.0000000000000000e+00 2.7828884501224231e+00 2.1097797882229230e+00 1.4355918544009099e+00 
168 0 1 1.0280000000004188e+00 -5.7974169589024935e+00 1.0000000000000000e+00 2.0502362426674900e+00 1.1866087909272478e-01 1.7692517543854558e+00 
273 0 1 1.0279999999998473e+00 -2.4297467323390315e+01 1.0000000000000000e+00 2.4844896396845240e+00 6.1568160836425756e-01 1.1011810603160970e+00 
543 0 1 1.0280000000005385e+00 2.3959568112231255e+00 1.0000000000000000e+00 2.9026761089628872e+00 2.0795153786311071e+00 2.2254534571621312e+00 
203 0 1 1.0280000000001317e+00 -1.6315678707917321e+01 1.0000000000000000e+00 2.9035614784093449e+00 2.1325682362859504e+00 2.0145585740511294e+00 
483 0 1 1.0279999999999874e+00 -2.2251125780606333e+00 1.0000000000000000e+00 2.9160938261966542e+00 2.1294177866732364e+00 1.4552241429316761e+00 
641 0 1 1.0280000000007039e+00 -9.2805433378068471e+00 1.0000000000000000e+00 3.9423629186381866e+00 3.5275866563844888e-01 1.8610255691052746e+00 
398 0 1 1.0279999999997596e+00 7.7626618713677882e+00 1.0000000000000000e+00 5.9359803982765289e+00 2.6930472965490049e-01 2.4327098218328520e+00 
401 0 1 1.0280000000002862e+00 1.0390914465979705e+01 1.0000000000000000e+00 6.0282693377455034e+00 3.2416406579191087e-01 2.5429509559654950e+00 
485 0 1 1.0280000000000775e+00 -1.0812856809332132e+01 1.0000000000000000e+00 6.0908694434707602e+00 3.7292382514475825e-01 2.6299954977785673e+00 
527 0 1 1.0280000000000900e+00 -5.8786067133354001e+00 1.0000000000000000e+00 6.1763531977676465e+00 6.9929882614520966e-01 2.4706779203495768e+00 
354 0 1 1.0280000000002418e+00 3.7904951260509430e+00 1.0000000000000000e+00 6.4065182548980717e+00 6.6308093448883842e-01 2.2729855436570725e+00 
204 0 1 1.0280000000005625e+00 -1.7802117784478522e+01 1.0000000000000000e+00 3.7747961705492936e+00 6.7573823836972102e-01 1.6296607807504204e-01 
514 0 1 1.0279999999995248e+00 -2.4256403152157663e-01 1.0000000000000000e+00 3.4188661799693230e+00 1.3430160337041788e+00 4.5443463934465592e-02 
45 0 1 1.0280000000005054e+00 -9.1219171467472684e+00 1.0000000000000000e+00 5.9393794996135298e+00 4.0314830194286913e+00 1.8273016184806130e+00 
479 0 1 1.0279999999997280e+00 1.0336405739298291e+01 1.0000000000000000e+00 5.7876892864122302e+00 4.3978654962175829e+00 1.3794398607275800e+00 
19 0 1 1.0279999999997789e+00 -1.2441829818328095e+01 1.0000000000000000e+00 5.7891648874670043e+00 4.3628361801608406e+00 1.3176958141505237e+00 
264 0 1 1.0279999999998852e+00 8.5754008898716272e+00 1.0000000000000000e+00 5.7785331006201295e+00 4.4099097867137180e+00 1.2838482038446930e+00 
121 0 1 1.0280000000001914e+00 8.2528411620573543e+00 1.0000000000000000e+00 6.3692357094495451e+00 3.7236636931293212e+00 2.8657935112774173e+00 
262 0 1 1.0279999999999061e+00 2.2480928427797231e+01 1.0000000000000000e+00 6.4214808108202917e+00 3.6429059418791074e+00 2.9849756940763359e+00 
618 0 1 1.0279999999998037e+00 -1.5878587600938559e+01 1.0000000000000000e+00 5.6712809957839827e+00 4.6193097707020474e+00 5.9167814284749576e-01 
165 0 1 1.0279999999999507e+00 1.6955238872123513e+01 1.0000000000000000e+00 6.4398046775246058e+00 3.6433379558303343e+00 3.0252386122436410e+00 
477 0 1 1.0279999999997862e+00 -6.1241700502761311e+00 1.0000000000000000e+00 2.0553137448457823e+00 5.6516661727084749e-01 3.3592112524197635e+00 
595 0 1 1.0279999999999179e+00 -3.8302423088237653e+01 1.0000000000000000e+00 2.1559458762694934e+00 7.3194923661609246e-01 3.3392416335607660e+00 
375 0 1 1.0279999999999045e+00 7.9211411931103264e+00 1.0000000000000000e+00 2.3645216600390291e+00 7.2505253353827259e-01 3.3820898490004851e+00 
143 0 1 1.0280000000002425e+00 4.8740616263871694e-01 1.0000000000000000e+00 1.9997797290406902e+00 2.3295324543432067e-01 3.4829013186144508e+00 
117 0 1 1.0279999999998848e+00 2.5102838136719545e+00 1.0000000000000000e+00 2.8803829127780456e+00 9.7902676553716947e+00 3.8691033105931756e+00 
592 0 1 1.0280000000001850e+00 -8.2956837220691142e+00 1.0000000000000000e+00 2.5939678899918204e+00 9.5838943220327462e+00 4.1238675470307582e+00 
446 0 1 1.0280000000000085e+00 3.6277596921009958e+00 1.0000000000000000e+00 2.4272943010397960e+00 9.7296119515184767e+00 4.4843829368889487e+00 
440 0 1 1.0279999999999156e+00 2.3943403130815932e+00 1.0000000000000000e+00 2.4575173723505332e+00 9.6239469043567070e+00 4.6233433854516068e+00 
367 0 1 1.0280000000000415e+00 1.1850104237689166e+01 1.0000000000000000e+00 2.4785678819232522e+00 9.8194291602544599e+00 4.7033522247807893e+00 
544 0 1 1.0280000000001732e+00 3.2257082193448205e+00 1.0000000000000000e+00 2.5057197142439294e+00 9.6315436995376391e+00 4.7463419707075829e+00 
157 0 1 1.0280000000001233e+00 5.0320727479923943e-01 1.0000000000000000e+00 3.0544301352609518e+00 9.8108385650965477e+00 5.1439289330964515e+00 
240 0 1 1.0280000000001934e+00 7.2948163731252897e+00 1.0000000000000000e+00 4.6832290858835544e+00 9.4233859817661365e+00 3.6620598672881473e+00 
5 0 1 1.0280000000000658e+00 2.2068810351544408e+00 1.0000000000000000e+00 5.5932964335039559e+00 9.6809093417770455e+00 4.3306773837465435e+00 
271 0 1 1.0279999999998020e+00 1.5922328561747406e+01 1.0000000000000000e+00 5.4123623678322792e+00 9.9629862292742040e+00 4.6207464646693905e+00 
161 0 1 1.0280000000003182e+00 -1.3326832705106696e+01 1.0000000000000000e+00 5.2245168833473477e+00 9.7509569616465708e+00 4.7448889978620947e+00 
259 0 1 1.0280000000002916e+00 -1.8467568412999690e+01 1.0000000000000000e+00 5.1973264832078749e+00 9.7806480675572285e+00 4.7748532859054560e+00 
522 0 1 1.0280000000001355e+00 8.8770351513034884e-01 1.0000000000000000e+00 4.4982726593160836e+00 5.1933388889933028e+00 8.9627257863555290e+00 
505 0 1 1.0280000000003497e+00 -6.9729676590720784e+00 1.0000000000000000e+00 5.2653723830260235e+00 5.1610494101736322e+00 9.0103643573035939e+00 
228 0 1 1.0279999999998546e+00 8.6479149735742773e+00 1.0000000000000000e+00 4.7745333862528776e+00 5.4146565385859899e+00 9.0876537258999139e+00 
629 0 1 1.0280000000001350e+00 -7.3188564551786062e+00 1.0000000000000000e+00 4.1367036004453093e+00 5.2378040215995512e+00 9.2095549580042899e+00 
427 0 1 1.0279999999996816e+00 -1.6368137552923072e+00 1.0000000000000000e+00 5.4298054054053022e+00 3.8735999658101368e+00 9.2227124808311078e+00 
530 0 1 1.0280000000000207e+00 8.2869214482159457e+00 1.0000000000000000e+00 4.0601948940719090e+00 5.2331387411345638e+00 9.2753310857190900e+00 
585 0 1 1.0279999999999678e+00 -8.6009354007591163e+00 1.0000000000000000e+00 5.3831461428905456e+00 5.1567798015397113e+00 9.5117803524933908e+00 
327 0 1 1.0279999999999554e+00 1.8998469777963752e+01 1.0000000000000000e+00 6.4315553505193250e+00 3.5734395213750396e+00 8.2867925003976772e+00 
377 0 1 1.0279999999997345e+00 8.1496082429438559e+00 1.0000000000000000e+00 6.5160198828915519e+00 3.4590820485032805e+00 8.1377825331921567e+00 
510 0 1 1.0280000000001701e+00 -1.1832071731829066e+00 1.0000000000000000e+00 5.6914185388438696e+00 9.9646463040730140e+00 9.8524002365726080e+00 
175 0 1 1.0280000000001315e+00 -1.7672994805038094e+01 1.0000000000000000e+00 6.2774698272350538e+00 3.0944535247953509e+00 1.1928857149463770e+01 
290 0 1 1.0279999999995564e+00 1.4899809192482532e+01 1.0000000000000000e+00 6.4217315937045187e+00 3.0196208513037526e+00 1.1925253083818967e+01 
553 0 1 1.0279999999999117e+00 -2.2657833799279402e+01 1.0000000000000000e+00 6.6086332257696307e+00 3.0291976736628810e+00 1.1788990407421236e+01 
481 0 1 1.0279999999997191e+00 8.3244160574401054e+00 1.0000000000000000e+00 6.6294787179195795e+00 2.9963417190770136e+00 1.1648884568894976e+01 
548 0 1 1.0280000000000189e+00 1.4919000502816444e+00 1.0000000000000000e+00 6.6297528233602838e+00 3.0006314806257968e+00 1.1649251291648461e+01 
115 0 1 1.0279999999999934e+00 3.7902763204458081e+00 1.0000000000000000e+00 6.6302179298682482e+00 2.9999348252818678e+00 1.1653423402009333e+01 
127 0 1 1.0280000000002989e+00 -2.2173030282741799e+01 1.0000000000000000e+00 1.2321256026806127e+00 4.1447074904448646e+00 1.2819318176988661e+01 
616 0 1 1.0280000000002121e+00 -1.6405538908912547e+01 1.0000000000000000e+00 1.1568764586670655e+00 4.1496553343513929e+00 1.2809683503830325e+01 
266 0 1 1.0280000000001543e+00 5.9872614491654197e+00 1.0000000000000000e+00 1.1408141353588701e+00 4.1528313694150061e+00 1.2804009414556981e+01 
473 0 1 1.0279999999999010e+00 5.0041578336736539e+00 1.0000000000000000e+00 8.2938401694807096e-01 4.2090035367593215e+00 1.2758797393897988e+01 
353 0 1 1.0279999999999889e+00 1.7295759306181996e+01 1.0000000000000000e+00 1.0648921401391100e+00 5.7897850535049145e+00 1.2733524661533060e+01 
632 0 1 1.0280000000001084e+00 -1.4444126827958146e+00 1.0000000000000000e+00 2.5563002720637997e+00 5.1063526408462705e+00 1.1417149367589468e+01 
526 0 1 1.0280000000003520e+00 -1.6998888731344302e+01 1.0000000000000000e+00 2.8223530224001316e+00 6.0091725728594465e+00 1.2326521766695247e+01 
167 0 1 1.0280000000001850e+00 8.4493573282349370e+00 1.0000000000000000e+00 2.9966074290830749e+00 6.0644390488308924e+00 1.2088458943276663e+01 
370 0 1 1.0280000000000407e+00 7.4897911863910362e+00 1.0000000000000000e+00 5.6956882045730834e+00 3.3559577737466921e+00 1.0795913453539740e+01 
265 0 1 1.0280000000001306e+00 1.3588790930313452e+01 1.0000000000000000e+00 3.4519824700443631e+00 6.0336793388624796e+00 1.2084676245352483e+01 
112 0 1 1.0279999999998328e+00 -2.3419344641590534e+01 1.0000000000000000e+00 3.5172979158734878e+00 6.0226273944585165e+00 1.2066216030363265e+01 
499 0 1 1.0279999999999874e+00 -8.1124313909335051e+00 1.0000000000000000e+00 3.9810405324538052e+00 5.6532050034346675e+00 1.2010203740774724e+01 
10 0 1 1.0280000000000669e+00 7.1234153740147166e-01 1.0000000000000000e+00 3.8334677057152948e+00 4.3936741164443216e+00 1.1448122055850748e+01 
164 0 1 1.0280000000000353e+00 9.3512569803200591e+00 1.0000000000000000e+00 3.8808803670521379e+00 4.3803672569076566e+00 1.1435299830185850e+01 
587 0 1 1.0279999999999323e+00 -9.2755125225093114e+00 1.0000000000000000e+00 4.6073634976183984e+00 4.0399644836858100e+00 1.1177706379581196e+01 
454 0 1 1.0280000000000016e+00 4.0919683910071640e+00 1.0000000000000000e+00 3.6310788477562483e+00 5.7649370982133608e+00 1.0217345981857243e+01 
280 0 1 1.0280000000000149e+00 2.2815764491208892e+00 1.0000000000000000e+00 5.5436970477403680e+00 8.4698581680269793e+00 1.2071288711276022e+01 
601 0 1 1.0279999999999334e+00 -4.7639876812599393e+00 1.0000000000000000e+00 5.4819269805833759e+00 8.4670853695207295e+00 1.1946035275923688e+01 
516 0 1 1.0280000000000982e+00 1.5617605736799098e+00 1.0000000000000000e+00 5.4313729285517693e+00 8.4703976718382954e+00 1.1826990242956498e+01 
180 0 1 1.0279999999999760e+00 9.0629592491248996e+00 1.0000000000000000e+00 5.3222067209458208e+00 8.5547319594676274e+00 1.1805064714896213e+01 
539 0 1 1.0279999999997511e+00 -2.5485967481995218e+01 1.0000000000000000e+00 6.0046510974363745e+00 8.4541417603473636e+00 1.3114789206916580e+01 
319 0 1 1.0280000000001348e+00 8.1383443854927648e+00 1.0000000000000000e+00 5.3356934356932033e+00 8.8805420342532635e+00 1.0695319631775567e+01 
417 0 1 1.0280000000001945e+00 8.2656910047411944e+00 1.0000000000000000e+00 5.3202582619594088e+00 9.3319574453099889e+00 1.0362136678419677e+01 
313 0 1 1.0280000000000877e+00 1.2167485022870043e+01 1.0000000000000000e+00 5.4080720111937364e+00 9.4739672154682477e+00 1.0182669367402482e+01 
314 0 1 1.0279999999997378e+00 -1.4640958470418854e+00 1.0000000000000000e+00 4.8736846779449143e+00 2.6410645342640144e+00 1.5154609696593919e+01 
568 0 1 1.0279999999997689e+00 -4.1646207991572538e+01 1.0000000000000000e+00 4.8738168105048967e+00 2.6411108939912289e+00 1.5154580603121660e+01 
116 0 1 1.0280000000000322e+00 2.2873909667570098e+00 1.0000000000000000e+00 4.8743054302592741e+00 2.6412501686526464e+00 1.5154509363366515e+01 
555 0 1 1.0279999999996992e+00 -4.1873490895050232e+00 1.0000000000000000e+00 4.9063919927899242e+00 2.6355215571489294e+00 1.5168293717891489e+01 
156 0 1 1.0280000000001248e+00 -6.2294355736766294e+00 1.0000000000000000e+00 4.9736951792273825e+00 2.5618454003078361e+00 1.5311881954885802e+01 
528 0 1 1.0280000000002703e+00 7.2929908716700238e+00 1.0000000000000000e+00 5.1439073739857477e+00 2.6261939996402934e+00 1.5736309191727546e+01 
575 0 1 1.0280000000001122e+00 -1.3094555833691825e+01 1.0000000000000000e+00 1.6602482443258573e+00 4.2020897468096212e+00 1.4418052704598269e+01 
472 0 1 1.0279999999997016e+00 1.8106375325007541e+01 1.0000000000000000e+00 1.4393395938485343e+00 5.5463289895579608e+00 1.4594534118447045e+01 
344 0 1 1.0280000000000351e+00 6.3111728723831750e-01 1.0000000000000000e+00 1.4384252895593865e+00 5.5469379476376233e+00 1.4593712741607758e+01 
380 0 1 1.0279999999999325e+00 -3.0995449816912926e+00 1.0000000000000000e+00 1.4373063806296460e+00 5.5477661485755405e+00 1.4592565310035482e+01 
557 0 1 1.0280000000000373e+00 8.9037393738771762e+00 1.0000000000000000e+00 1.7352642073174354e+00 5.2624971453400402e+00 1.4874462249737013e+01 
276 0 1 1.0280000000001426e+00 1.5646039230386632e+01 1.0000000000000000e+00 1.5887503594286576e+00 3.5564318593329927e+00 1.6318616241382635e+01 
124 0 1 1.0280000000000431e+00 8.0703540691540603e+00 1.0000000000000000e+00 9.3774559012516767e-01 4.5103201071289085e+00 1.5838933256087852e+01 
582 0 1 1.0279999999999168e+00 -3.9831894103688768e+01 1.0000000000000000e+00 1.4202450957085733e+00 3.7237840870142032e+00 1.6132316216434251e+01 
334 0 1 1.0280000000001983e+00 1.4450462469217365e+01 1.0000000000000000e+00 4.9640452566974922e+00 4.6182841493894760e+00 1.5141771886174205e+01 
456 0 1 1.0280000000003071e+00 2.1589139828140551e+00 1.0000000000000000e+00 4.8198947056536348e+00 5.3771565195529396e+00 1.5186032663323084e+01 
386 0 1 1.0279999999998419e+00 -2.8447746597724777e+00 1.0000000000000000e+00 4.8357977605359883e+00 5.1068822652306674e+00 1.5184610368640197e+01 
67 0 1 1.0280000000000127e+00 -6.8158132232858915e+00 1.0000000000000000e+00 4.4978211109467807e+00 5.5247801671133896e+00 1.5448243688869130e+01 
99 0 1 1.0279999999997800e+00 -2.6585863980470329e+01 1.0000000000000000e+00 4.4190474353828346e+00 5.5449466814394137e+00 1.5645096975911018e+01 
227 0 1 1.0280000000002603e+00 9.0216834310502172e+00 1.0000000000000000e+00 4.3364220071036312e+00 5.9921282886384590e+00 1.6098861205120883e+01 
519 0 1 1.0279999999999023e+00 -7.2450872091986742e+00 1.0000000000000000e+00 6.0572529687111540e+00 8.2814922931244173e+00 1.3656424959192863e+01 
296 0 1 1.0280000000000789e+00 9.1610439733792042e+00 1.0000000000000000e+00 6.0800012736057685e+00 7.3765667493274831e+00 1.5205612004633613e+01 
480 0 1 1.0280000000000591e+00 8.2458858363308742e+00 1.0000000000000000e+00 6.0778879332360800e+00 7.3797411100476280e+00 1.5205783307373995e+01 
619 0 1 1.0280000000002374e+00 -1.1217248189674289e+00 1.0000000000000000e+00 6.0913415492396998e+00 7.0796918427592210e+00 1.5899074708728879e+01 
235 0 1 1.0280000000003124e+00 6.6258286602035872e+00 1.0000000000000000e+00 6.1150786065757377e+00 7.3159260337820662e+00 1.5377045002305188e+01 
394 0 1 1.0280000000001301e+00 3.4143164883083648e+00 1.0000000000000000e+00 6.2093703204320070e+00 9.4424208739830728e+00 1.4568433939116916e+01 
337 0 1 1.0279999999998786e+00 -1.6913811030964006e+01 1.0000000000000000e+00 6.2122565180149349e+00 7.0680912050627125e+00 1.5342541028235035e+01 
176 0 1 1.0279999999999510e+00 -1.2766275592771571e+01 1.0000000000000000e+00 6.2204346056031410e+00 9.4467499164925304e+00 1.4693496559508354e+01 
462 0 1 1.0280000000001515e+00 -1.7630575247919175e+01 1.0000000000000000e+00 2.5002939052297526e+00 2.9022120581318798e+00 1.8262065047531713e+01 
491 0 1 1.0279999999998968e+00 -1.0369418032884710e+01 1.0000000000000000e+00 3.2294844449754398e+00 2.6297745705299129e+00 1.8597852518392212e+01 
605 0 1 1.0279999999997855e+00 -8.7312746224828004e+00 1.0000000000000000e+00 3.3198637648090239e+00 2.8099777076989469e+00 1.7341531086143394e+01 
95 0 1 1.0279999999995193e+00 8.3495510314184318e-01 1.0000000000000000e+00 4.0353023196488707e+00 2.6643455553787536e+00 1.7357823535546032e+01 
529 0 1 1.0279999999998328e+00 1.4061246645746861e+00 1.0000000000000000e+00 5.2424603935836238e+00 1.6427543265874933e+00 1.8578996468224954e+01 
26 0 1 1.0279999999998402e+00 2.0176532411174017e+00 1.0000000000000000e+00 5.3804905039296509e+00 1.7695695909229614e+00 1.8869077024168533e+01 
642 0 1 1.0279999999999268e+00 -1.5291642889857247e+01 1.0000000000000000e+00 3.4889597673185802e+00 2.4045379531637927e+00 1.8945324216195186e+01 
88 0 1 1.0279999999998830e+00 -2.5009920535436398e+00 1.0000000000000000e+00 4.7786849030250389e+00 2.1379752608327998e+00 1.9049575631866020e+01 
146 0 1 1.0279999999997709e+00 -1.7052433538725631e+00 1.0000000000000000e+00 5.2630355286122796e+00 1.4951808219183911e+00 1.9691721636352622e+01 
521 0 1 1.0280000000000669e+00 1.7994985100864314e+00 1.0000000000000000e+00 6.3707056162045717e-01 3.9605936759781533e+00 1.7133828445567364e+01 
588 0 1 1.0279999999999123e+00 -1.4558999869536857e+01 1.0000000000000000e+00 7.7547858672502190e-01 3.6045940865252040e+00 1.7371604626056801e+01 
43 0 1 1.0280000000001122e+00 -4.1635345253506635e+01 1.0000000000000000e+00 7.8994491643405229e-01 4.1675481618412586e+00 1.7678131449012326e+01 
623 0 1 1.0279999999997960e+00 -3.7435113935320786e+01 1.0000000000000000e+00 1.4892093840188059e+00 4.4801496200775857e+00 1.7958854583491178e+01 
570 0 1 1.0279999999997487e+00 -1.1896993517131058e+01 1.0000000000000000e+00 1.7581474848096996e+00 4.4327927903830213e+00 1.8027296522874966e+01 
453 0 1 1.0279999999995095e+00 1.6103235631161759e+01 1.0000000000000000e+00 1.2304926952618782e+00 4.2253511390645455e+00 1.8083810362339154e+01 
537 0 1 1.0280000000000236e+00 6.1350963009568424e+00 1.0000000000000000e+00 3.1856577408813602e+00 3.7118531869997504e+00 1.8190894136803916e+01 
451 0 1 1.0280000000003886e+00 1.2006797160904192e+01 1.0000000000000000e+00 4.2781328744809235e+00 3.5427284334126141e+00 1.6959565294474327e+01 
611 0 1 1.0280000000000558e+00 -1.2765478948818028e+01 1.0000000000000000e+00 5.2807076587008401e+00 5.7040729769667253e+00 1.8311738090948488e+01 
108 0 1 1.0280000000000418e+00 5.3723698614847963e+00 1.0000000000000000e+00 5.2682618143836528e+00 5.7081133450595942e+00 1.8325112772949851e+01 
388 0 1 1.0280000000001337e+00 7.8991334509545350e+00 1.0000000000000000e+00 5.2494497886586053e+00 5.5446249823006175e+00 1.8638789230845678e+01 
408 0 1 1.0280000000001182e+00 -4.1349038431582610e+00 1.0000000000000000e+00 5.2592307712798378e+00 5.2645274437131118e+00 1.8949141756337628e+01 
50 0 1 1.0279999999996887e+00 -1.2738256690269132e+01 1.0000000000000000e+00 5.3157661109834384e+00 5.0588578217446267e+00 1.9314559777874031e+01 
80 0 1 1.0280000000002600e+00 4.2924372004841098e+00 1.0000000000000000e+00 5.4922194624084097e+00 4.8030719910858011e+00 1.9908199900114450e+01 
177 0 1 1.0279999999998826e+00 -1.6137273154584428e+00 1.0000000000000000e+00 2.9654763697881465e+00 7.9978036033360640e+00 1.7363370239334078e+01 
383 0 1 1.0280000000000651e+00 9.1563103777016153e+00 1.0000000000000000e+00 3.0501641465461007e+00 8.2993307162546106e+00 1.7389260223493547e+01 
140 0 1 1.0280000000001959e+00 -2.0895392316295997e+01 1.0000000000000000e+00 3.0508531542621351e+00 8.2995931010356809e+00 1.7389125932287161e+01 
113 0 1 1.0279999999999037e+00 -3.0121618100523417e+01 1.0000000000000000e+00 2.9968020095508030e+00 8.2912140403869774e+00 1.7410057595864945e+01 
142 0 1 1.0279999999999616e+00 -1.1093277484816188e+01 1.0000000000000000e+00 2.8968998038625955e+00 8.2120479505896693e+00 1.7458386858438626e+01 
85 0 1 1.0279999999998701e+00 -2.6905216492615253e+01 1.0000000000000000e+00 3.9528753297198564e+00 6.7320073190988587e+00 1.7857130234763503e+01 
189 0 1 1.0279999999996545e+00 -2.0197931996799561e+01 1.0000000000000000e+00 3.7206869080792719e+00 7.3351131022492337e+00 1.8000168411598420e+01 
215 0 1 1.0280000000002618e+00 1.3948298220872211e+01 1.0000000000000000e+00 3.7809093928233302e+00 7.1945709315070872e+00 1.7968957067552935e+01 
61 0 1 1.0279999999999352e+00 -7.6534251423714741e+00 1.0000000000000000e+00 2.6520583434361829e+00 1.3222560199272936e+01 2.2490166641170823e+00 
415 0 1 1.0279999999998544e+00 5.1020988031948811e-01 1.0000000000000000e+00 2.6781746039916534e+00 1.2837338043172853e+01 1.8178328943009530e+00 
470 0 1 1.0279999999998406e+00 -1.0806709073590679e+00 1.0000000000000000e+00 2.5281136443246357e+00 1.1907425471565308e+01 6.3603633903096390e-01 
484 0 1 1.0280000000002791e+00 -2.2761420426423996e+01 1.0000000000000000e+00 2.5260783585934710e+00 1.1904152065954120e+01 6.2967569374858146e-01 
533 0 1 1.0280000000000042e+00 -6.1464416916783797e+00 1.0000000000000000e+00 2.5259794403992366e+00 1.1904027574126516e+01 6.2928432796447509e-01 
11 0 1 1.0280000000001144e+00 -5.8393042199542844e+00 1.0000000000000000e+00 6.5330497608643894e+00 1.0247563460590216e+01 2.3706272866332965e+00 
107 0 1 1.0280000000003713e+00 1.8575000777969914e+00 1.0000000000000000e+00 6.6326061740788687e+00 1.0277060792120622e+01 2.1584723418684910e+00 
475 0 1 1.0280000000005012e+00 -2.3387477410304465e+00 1.0000000000000000e+00 6.1146828988558566e+00 1.0001605332795510e+01 2.4554241673195483e+00 
141 0 1 1.0279999999999456e+00 -2.4421563296097624e+01 1.0000000000000000e+00 2.5652653588911147e+00 1.3376140476341593e+01 2.4799361398759130e+00 
12 0 1 1.0280000000000111e+00 7.7260138330203953e-01 1.0000000000000000e+00 2.4395630885854378e+00 1.3446433488641951e+01 2.4726325700708505e+00 
132 0 1 1.0280000000000231e+00 1.2169984812099153e+00 1.0000000000000000e+00 2.4921660320322796e+00 1.3450590684418216e+01 2.4401650403560784e+00 
325 0 1 1.0280000000001830e+00 1.3385272618514568e+01 1.0000000000000000e+00 2.4702553317438012e+00 1.3455077385437011e+01 2.5059835420789955e+00 
223 0 1 1.0280000000000995e+00 5.0467692307836192e+00 1.0000000000000000e+00 6.1664229533892385e+00 1.5301566074679293e+01 1.4871971374572284e+00 
414 0 1 1.0280000000002985e+00 -1.1029639557853992e+00 1.0000000000000000e+00 6.3992361369746273e+00 1.5168693998126125e+01 2.0430877328445827e+00 
400 0 1 1.0279999999997376e+00 -9.3135788031287137e-01 1.0000000000000000e+00 6.4669628352918727e+00 1.4974225944097869e+01 2.1133911798675604e+00 
1 0 1 1.0279999999999692e+00 -3.4599936156673110e+01 1.0000000000000000e+00 6.6354958715568912e+00 1.5205706348791693e+01 2.0545874392196062e+00 
279 0 1 1.0279999999998031e+00 8.5233154220481619e+00 1.0000000000000000e+00 6.6664782980311443e+00 1.5099812350994702e+01 2.1009177672575481e+00 
387 0 1 1.0279999999999598e+00 8.7117385472070641e+00 1.0000000000000000e+00 1.2164951166920361e+00 1.7448895085157012e+01 3.0553254035529163e+00 
291 0 1 1.0279999999997089e+00 1.6489321034333468e+01 1.0000000000000000e+00 2.2351430679801916e+00 1.8056622707378143e+01 2.8377456322805559e+00 
410 0 1 1.0280000000003560e+00 8.0553065765082827e+00 1.0000000000000000e+00 6.5483003986346611e-01 1.7177289244067669e+01 2.7259314210918921e+00 
423 0 1 1.0279999999999911e+00 1.1396578139720097e+01 1.0000000000000000e+00 2.0125306870900355e+00 1.7581707185494562e+01 2.4274925990750433e+00 
561 0 1 1.0280000000000795e+00 -5.7353098426127378e+00 1.0000000000000000e+00 5.8880645929085457e-02 1.7543221981519814e+01 2.3872968256186171e+00 
216 0 1 1.0279999999999592e+00 2.5149949083813730e+00 1.0000000000000000e+00 4.4866010470500407e-03 1.7150325142392752e+01 2.1676313954268389e+00 
441 0 1 1.0279999999999041e+00 -4.2037314831772798e+00 1.0000000000000000e+00 2.2287269006475943e+00 1.7762119681077937e+01 1.7176906617525340e+00 
201 0 1 1.0279999999999481e+00 1.5371048718764140e+01 1.0000000000000000e+00 2.0900899084362927e+00 1.7664198650300680e+01 6.2735687894682635e-01 
18 0 1 1.0279999999998686e+00 -5.9268582744113321e+00 1.0000000000000000e+00 3.1765338210400760e+00 1.8305659091102502e+01 1.1224161590421233e+00 
418 0 1 1.0280000000003318e+00 1.0121822771029603e+01 1.0000000000000000e+00 5.9978827628865874e+00 1.9588261385844330e+01 1.4949349436156301e+00 
569 0 1 1.0279999999995924e+00 -2.1789501600663549e+01 1.0000000000000000e+00 6.1642331551953111e+00 1.9783665382757423e+01 1.7099001971932715e+00 
63 0 1 1.0280000000002916e+00 -1.2454342576613950e+01 1.0000000000000000e+00 4.7882094702129869e+00 1.8095478510701220e+01 7.0855916735769053e-01 
53 0 1 1.0280000000003153e+00 -6.7363598779039009e+00 1.0000000000000000e+00 4.7887347991274307e+00 1.8022597167761678e+01 6.3808331289404174e-01 
586 0 1 1.0280000000003038e+00 -5.2988118240424189e+00 1.0000000000000000e+00 3.6599657110906731e+00 1.9929939906762964e+01 2.4933168850697054e-01 
551 0 1 1.0279999999994978e+00 -1.0908079803152382e+00 1.0000000000000000e+00 5.3528057028676157e+00 1.8241261842447742e+01 1.4069006951129143e-01 
405 0 1 1.0280000000001088e+00 9.1698680996481272e+00 1.0000000000000000e+00 5.3751355145749553e+00 1.0471578799429897e+01 4.0462525189741418e+00 
434 0 1 1.0279999999998117e+00 -1.8896024655111518e+01 1.0000000000000000e+00 4.8123301955592090e+00 1.0601361275342304e+01 4.2200848820124461e+00 
243 0 1 1.0279999999999647e+00 9.7143052488617592e+00 1.0000000000000000e+00 2.0885124840848994e+00 1.4704678550592341e+01 4.3751053492279803e+00 
573 0 1 1.0279999999998468e+00 -1.4803868008596529e+01 1.0000000000000000e+00 2.0884888502036456e+00 1.4704703408700887e+01 4.3751449932041444e+00 
637 0 1 1.0279999999998937e+00 -4.2661740269599036e+01 1.0000000000000000e+00 2.0921504115009633e+00 1.4700733259799900e+01 4.3691013724061714e+00 
131 0 1 1.0280000000000264e+00 7.6616571950966215e+00 1.0000000000000000e+00 2.0925865162340354e+00 1.4700260789909899e+01 4.3683876328350593e+00 
188 0 1 1.0279999999999501e+00 -4.0907368672455995e+00 1.0000000000000000e+00 2.6550923258544596e+00 1.5307638869452724e+01 6.1175537477443571e+00 
565 0 1 1.0279999999998810e+00 7.1867274267663950e+00 1.0000000000000000e+00 2.6651455668474218e+00 1.5302920622059110e+01 6.1163762123311756e+00 
283 0 1 1.0280000000002116e+00 1.6449439546421996e+01 1.0000000000000000e+00 2.7181524752475874e+00 1.5647828262591917e+01 6.0938412464507516e+00 
239 0 1 1.0280000000000988e+00 -4.3603014400982190e+00 1.0000000000000000e+00 2.8140618822082661e+00 1.5485317194322299e+01 6.0948660932012464e+00 
144 0 1 1.0280000000001552e+00 -3.4123432597463137e+00 1.0000000000000000e+00 2.8498694227911194e+00 1.5648957030855884e+01 6.0592735944512235e+00 
403 0 1 1.0280000000001022e+00 1.0161095896337621e+01 1.0000000000000000e+00 3.1193047588431306e+00 1.5399510489619340e+01 5.0367515994499277e+00 
13 0 1 1.0280000000001490e+00 -1.7804734889656757e+01 1.0000000000000000e+00 1.3356540386565747e+00 1.8870249331989154e+01 3.3749280626741109e+00 
185 0 1 1.0279999999998974e+00 1.3737754917768534e+01 1.0000000000000000e+00 1.3743210784229665e+00 1.8929586401903769e+01 3.4102930471586510e+00 
639 0 1 1.0280000000002216e+00 -2.0894322428315675e+01 1.0000000000000000e+00 2.7794834805653066e+00 1.8288402890633275e+01 5.6775753205122408e+00 
419 0 1 1.0280000000001726e+00 2.9764582140834270e+00 1.0000000000000000e+00 2.8183397531366756e+00 1.8313935146683875e+01 5.7009255747223593e+00 
635 0 1 1.0280000000000009e+00 -4.9582969800803607e+00 1.0000000000000000e+00 2.9596507851107967e+00 1.8409242308652942e+01 5.7371114778479084e+00 
604 0 1 1.0280000000001046e+00 -8.3932362692108171e+00 1.0000000000000000e+00 3.0478245349305415e+00 1.8886680082623091e+01 5.5906471294688176e+00 
36 0 1 1.0280000000000538e+00 -1.5913231008590117e+01 1.0000000000000000e+00 3.2122710038265407e+00 1.8882311483899851e+01 5.4316945000931627e+00 
339 0 1 1.0279999999999252e+00 1.6109042492487973e+01 1.0000000000000000e+00 3.2484669453450632e+00 1.8845899291751824e+01 5.3867401201002227e+00 
172 0 1 1.0280000000001455e+00 9.1398129864357145e+00 1.0000000000000000e+00 3.2916424203769612e+00 1.8754711603620969e+01 5.3060411679587549e+00 
596 0 1 1.0279999999997986e+00 -4.1494501723940076e+01 1.0000000000000000e+00 6.4165739660347034e+00 1.0606927583421351e+01 9.8022688416438868e+00 
463 0 1 1.0280000000000646e+00 -1.6472777246315012e+01 1.0000000000000000e+00 6.4977148909033815e+00 1.0183448777381512e+01 1.1763000040324702e+01 
248 0 1 1.0280000000003546e+00 1.2800635047028571e+01 1.0000000000000000e+00 2.3573341375153953e+00 1.1524073051003063e+01 1.9914091874257505e+01 
147 0 1 1.0280000000001257e+00 -5.5273304298845378e+00 1.0000000000000000e+00 2.6691539989081559e+00 1.0159513604196574e+01 1.9233404802946133e+01 
57 0 1 1.0280000000001930e+00 -3.9747276461114666e+01 1.0000000000000000e+00 2.6701173608820707e+00 1.0157478547557433e+01 1.9235215494046955e+01 
14 0 1 1.0280000000000467e+00 -3.8440960348485206e+01 1.0000000000000000e+00 2.6695723931567907e+00 1.0153584959194053e+01 1.9244377075756319e+01 
562 0 1 1.0279999999999725e+00 2.1966512073176609e+00 1.0000000000000000e+00 2.6768242835822220e+00 1.0136747127809809e+01 1.9267563604464971e+01 
589 0 1 1.0280000000001137e+00 -1.5987237757060527e+01 1.0000000000000000e+00 2.6823237974485297e+00 1.0124437324514343e+01 1.9292477062183373e+01 
29 0 1 1.0279999999999057e+00 -3.8400702507479053e+01 1.0000000000000000e+00 5.0310948840338146e+00 1.1415817599170461e+01 1.9993422002086096e+01 
478 0 1 1.0280000000000076e+00 -2.4048642404475662e+00 1.0000000000000000e+00 5.0311425618349244e+00 1.1415655689915937e+01 1.9993311699611994e+01 