LAMMPS data file via write_data, version 30 Jul 2016, timestep = 50000000

644 atoms
2 atom types

0.0000000000000000e+00 2.0000000000000000e+01 xlo xhi
0.0000000000000000e+00 2.0000000000000000e+01 ylo yhi
0.0000000000000000e+00 2.0000000000000000e+01 zlo zhi

Masses

1 4.31
2 3.896

Atoms # meso-molecular

521 0 1 1.0280000000003273e+00 1.7994985100864314e+00 1.0000000000000000e+00 6.2452996381910939e+00 2.5153209566854016e+00 3.1073140300953996e+00 
124 0 1 1.0279999999997955e+00 8.0703540691540603e+00 1.0000000000000000e+00 6.5459746669780303e+00 3.0650473878883111e+00 1.8124188406766755e+00 
588 0 1 1.0280000000001455e+00 -1.4558999869536857e+01 1.0000000000000000e+00 6.3837076632457137e+00 2.1593213671875016e+00 3.3450902105832783e+00 
43 0 1 1.0279999999998735e+00 -4.1635345253506635e+01 1.0000000000000000e+00 6.3981739929739794e+00 2.7222754425275664e+00 3.6516170335431202e+00 
79 0 1 1.0279999999996619e+00 -2.3713612822161467e+00 1.0000000000000000e+00 2.7418650634003688e-01 4.7525260954679505e+00 1.4314888950473646e+01 
94 0 1 1.0279999999997971e+00 4.7363519753445660e+00 1.0000000000000000e+00 4.2674661394154356e-01 4.7027086467764807e+00 1.4334703818760914e+01 
351 0 1 1.0279999999995586e+00 -1.1297272778394959e+01 1.0000000000000000e+00 2.8676086060600703e-01 4.7422787838352685e+00 1.4315455828490260e+01 
501 0 1 1.0279999999999521e+00 3.0398033805093032e+00 1.0000000000000000e+00 2.7370065287147133e-01 4.7487388878415766e+00 1.4315418709458250e+01 
466 0 1 1.0279999999998868e+00 8.9910746383805531e+00 1.0000000000000000e+00 2.8063370478469524e-01 4.7462572293145646e+00 1.4315229653405460e+01 
376 0 1 1.0280000000004577e+00 1.5780207433210556e+01 1.0000000000000000e+00 1.1357077460749780e+00 4.4725924724130097e+00 1.5266153004411791e+01 
432 0 1 1.0280000000003557e+00 6.0683072590017417e+00 1.0000000000000000e+00 1.1496543189882256e+00 4.4879802453142572e+00 1.5263970540264994e+01 
222 0 1 1.0280000000000631e+00 8.6116830471826713e+00 1.0000000000000000e+00 1.4595226373977190e+00 4.7450043763791268e+00 1.6221877144810669e+01 
473 0 1 1.0280000000000429e+00 5.0041578336736539e+00 1.0000000000000000e+00 6.4376130941017315e+00 2.7637308177550493e+00 1.8732282978325607e+01 
312 0 1 1.0279999999999010e+00 1.4068041188356807e+01 1.0000000000000000e+00 1.2324673935445121e+00 5.1854844905840869e+00 1.6720703541014867e+01 
241 0 1 1.0280000000000633e+00 1.3612732773656290e+01 1.0000000000000000e+00 1.2220570339146255e+00 5.0726014956939780e+00 1.7081290406043124e+01 
111 0 1 1.0279999999998468e+00 -3.3020930604118157e+00 1.0000000000000000e+00 1.3782280748413955e+00 5.1937994538310797e+00 1.7546487626828711e+01 
250 0 1 1.0280000000001790e+00 7.9399886845367682e+00 1.0000000000000000e+00 1.8352011388032212e+00 5.4429576698090489e+00 1.7921156219606225e+01 
244 0 1 1.0279999999996696e+00 -1.4370622551280352e+00 1.0000000000000000e+00 1.8969351262032204e+00 5.2211481516655596e+00 1.8151459468253034e+01 
225 0 1 1.0279999999998040e+00 1.3147954019528796e+00 1.0000000000000000e+00 2.2977849338516059e+00 5.3805819573756644e+00 1.8176047314069475e+01 
270 0 1 1.0279999999998650e+00 6.4994337028684575e+00 1.0000000000000000e+00 2.4390532413347437e+00 4.9931985786352202e+00 1.8427342450346512e+01 
566 0 1 1.0279999999998353e+00 8.9629410604145066e-01 1.0000000000000000e+00 3.6504424203867649e+00 4.3291229379463028e+00 1.7867394405801853e+01 
579 0 1 1.0279999999995100e+00 -7.6088275559516330e+00 1.0000000000000000e+00 4.0056629493419287e+00 4.2411935695680398e+00 1.8097919602143580e+01 
152 0 1 1.0279999999995075e+00 2.9849210077017960e+00 1.0000000000000000e+00 4.0098731903849734e+00 4.2402103845316015e+00 1.8100488245126851e+01 
329 0 1 1.0279999999998846e+00 1.0855338466991591e+00 1.0000000000000000e+00 4.3671148545385430e+00 4.2095627107128202e+00 1.8284839416894620e+01 
360 0 1 1.0279999999999470e+00 2.1095391760545965e+01 1.0000000000000000e+00 4.3764226856533952e+00 4.2119922360874131e+00 1.8290075781495236e+01 
282 0 1 1.0279999999999447e+00 1.2131815016159155e+01 1.0000000000000000e+00 5.0927196814103297e+00 3.8752803370026130e+00 1.9182055394970003e+01 
531 0 1 1.0280000000000571e+00 9.3358214549159584e+00 1.0000000000000000e+00 5.2417433351933189e+00 3.6599312693633643e+00 1.9364978183945986e+01 
181 0 1 1.0279999999998839e+00 5.5972845286207358e+00 1.0000000000000000e+00 1.3740801231946513e+00 1.3178665119450319e+01 3.3072984126833687e+00 
433 0 1 1.0280000000002159e+00 8.7936478989361744e-01 1.0000000000000000e+00 2.2030303756146479e+00 1.2597768475859670e+01 2.6201212554152575e+00 
638 0 1 1.0279999999997327e+00 -3.6839428353249403e+01 1.0000000000000000e+00 2.3214046016486130e+00 1.2791326593017526e+01 2.9993812607354031e+00 
102 0 1 1.0279999999996150e+00 1.0387535626656981e+00 1.0000000000000000e+00 2.3653757737260594e+00 1.2967656330550223e+01 3.3235842221763643e+00 
356 0 1 1.0279999999995100e+00 6.2229368196323183e+00 1.0000000000000000e+00 1.9698738035986145e+00 1.2542092059686167e+01 2.2335253605378260e+00 
532 0 1 1.0279999999999669e+00 -1.3663992097744320e+01 1.0000000000000000e+00 9.8989194289709159e-01 1.1498821500147242e+01 2.1691390544247495e+00 
86 0 1 1.0280000000002800e+00 -1.0978588285542894e+01 1.0000000000000000e+00 1.0839423649026609e+00 1.2487423467726645e+01 1.4256366047658724e+00 
200 0 1 1.0279999999998988e+00 1.9145829800788068e+01 1.0000000000000000e+00 9.3654001497692241e-01 1.2466406326457012e+01 1.3159620153895206e+00 
48 0 1 1.0279999999997464e+00 -8.2926183390876780e+00 1.0000000000000000e+00 6.3516037743157472e-01 1.2445705867875457e+01 1.1100609506537393e+00 
379 0 1 1.0279999999998219e+00 -1.8657970417186487e+01 1.0000000000000000e+00 1.1984637237653679e+00 1.1544973613738321e+01 4.0212121831738523e+00 
253 0 1 1.0279999999994680e+00 -5.4399725254935181e+00 1.0000000000000000e+00 2.0002197289813273e+00 1.1759326521820936e+01 4.3734496009969552e+00 
633 0 1 1.0280000000000371e+00 -4.3930952688987572e+00 1.0000000000000000e+00 1.3878961076020240e+00 1.3039567536698243e+01 4.6957323862563172e+00 
252 0 1 1.0280000000001117e+00 -2.1717413437429203e+00 1.0000000000000000e+00 1.8573187723956042e+00 1.1556852113647446e+01 5.5320039190276846e+00 
287 0 1 1.0280000000002012e+00 -1.7519947524013610e+01 1.0000000000000000e+00 2.7137885262850490e+00 1.1302759719359916e+01 6.4349727340831215e+00 
620 0 1 1.0280000000002880e+00 -9.0327437681128941e+00 1.0000000000000000e+00 2.7296884469957905e+00 1.1309333907391558e+01 6.4539312002676121e+00 
355 0 1 1.0280000000001306e+00 7.7282463491829354e+00 1.0000000000000000e+00 2.7316424242378292e+00 1.1310188486862589e+01 6.4562324282309742e+00 
69 0 1 1.0280000000002738e+00 -1.7140645560590229e+01 1.0000000000000000e+00 2.7312110214746075e+00 1.1309997477612995e+01 6.4557042055205018e+00 
468 0 1 1.0279999999999587e+00 2.4127406723399303e+00 1.0000000000000000e+00 2.8148384710964156e+00 1.3148523350093241e+01 5.0597901767748423e+00 
207 0 1 1.0280000000002070e+00 1.4936965614347521e+01 1.0000000000000000e+00 5.4838791789941013e+00 1.1600921956917869e+01 4.5764664720982502e+00 
580 0 1 1.0280000000002190e+00 -1.2609415621568237e+01 1.0000000000000000e+00 5.4838890877826607e+00 1.1600908051382719e+01 4.5764755603690759e+00 
192 0 1 1.0280000000001916e+00 9.5729208959959795e+00 1.0000000000000000e+00 5.4838522523681625e+00 1.1600879575811481e+01 4.5764408537192383e+00 
154 0 1 1.0280000000001919e+00 -1.6163389621467701e+01 1.0000000000000000e+00 5.4839504581012903e+00 1.1600930847820109e+01 4.5765332130316310e+00 
236 0 1 1.0280000000002079e+00 1.5556644824046469e+01 1.0000000000000000e+00 5.4839440236067460e+00 1.1600927220331526e+01 4.5765271469047244e+00 
359 0 1 1.0280000000002141e+00 9.3983374713012786e+00 1.0000000000000000e+00 5.4839097000033004e+00 1.1600954195660247e+01 4.5764953827767059e+00 
173 0 1 1.0280000000002123e+00 1.6485934043544930e+01 1.0000000000000000e+00 5.4838993982405171e+00 1.1600885575672152e+01 4.5764849319310095e+00 
564 0 1 1.0279999999997378e+00 2.7142101479151006e+00 1.0000000000000000e+00 1.0503482872147893e-01 1.5434546559668201e+01 4.8344761594860195e+00 
488 0 1 1.0280000000000098e+00 6.4758770676703659e+00 1.0000000000000000e+00 9.5205737069333371e-02 1.5474464827384811e+01 4.8255079259544766e+00 
190 0 1 1.0279999999998573e+00 -1.4643107610851256e+01 1.0000000000000000e+00 1.3118848680818018e-01 1.5484244566441438e+01 4.8876276990436205e+00 
134 0 1 1.0279999999999050e+00 -8.8222809275405680e+00 1.0000000000000000e+00 7.2053253210841695e-01 1.3498958215224947e+01 6.5904931207796746e+00 
205 0 1 1.0279999999996468e+00 -3.2662844304529886e+00 1.0000000000000000e+00 2.2048175210171750e+00 1.4069884631490284e+01 5.3477714998193537e+00 
324 0 1 1.0279999999996372e+00 1.3664263224952051e+00 1.0000000000000000e+00 2.3564975034405755e+00 1.4165301356119205e+01 5.5755778597674546e+00 
286 0 1 1.0280000000001801e+00 -4.4521298526998196e-02 1.0000000000000000e+00 4.0001199434563421e+00 1.5090728138904673e+01 4.0874706709065531e+00 
511 0 1 1.0279999999998344e+00 -2.5414290523199696e+01 1.0000000000000000e+00 3.8075893342229934e+00 1.5812590343609410e+01 4.1266106389467252e+00 
361 0 1 1.0280000000000618e+00 1.0345766496846984e+01 1.0000000000000000e+00 3.6000973338355098e+00 1.5553383073608199e+01 4.1894420009523747e+00 
396 0 1 1.0280000000002190e+00 7.2597802565670815e+00 1.0000000000000000e+00 3.9069688025657099e+00 1.6074624812480007e+01 4.2594939852647133e+00 
40 0 1 1.0279999999999205e+00 -7.1911031212928576e+00 1.0000000000000000e+00 3.5867322083450563e+00 1.5676727590056830e+01 4.2451280038358181e+00 
70 0 1 1.0280000000000566e+00 -4.0345489992432164e+01 1.0000000000000000e+00 6.0150132739920998e+00 1.5263118424666962e+01 4.3652241871336948e+00 
340 0 1 1.0279999999997962e+00 8.7074933769076388e+00 1.0000000000000000e+00 6.0349055525206508e+00 1.5301537586236005e+01 4.3527902790135142e+00 
219 0 1 1.0280000000000131e+00 -2.9148097433856495e+00 1.0000000000000000e+00 6.0722987472296941e+00 1.5239596202705140e+01 4.4287305721590506e+00 
577 0 1 1.0279999999999456e+00 -1.1193516137647627e+01 1.0000000000000000e+00 4.0899000057757036e+00 1.6369567778651319e+01 4.8225359693725709e+00 
122 0 1 1.0279999999998530e+00 3.6311448819645742e+00 1.0000000000000000e+00 5.6792965587140891e+00 1.6457845985898228e+01 5.3513843303286341e+00 
93 0 1 1.0280000000001421e+00 -5.9724458477744715e+00 1.0000000000000000e+00 3.5258372344478284e+00 1.4964322020437489e+01 6.5266953728121262e+00 
346 0 1 1.0280000000000216e+00 2.2973799339159328e+01 1.0000000000000000e+00 3.5050472805387045e+00 1.4953679492041982e+01 6.5291854914373779e+00 
602 0 1 1.0280000000000100e+00 -1.9705134299655278e+01 1.0000000000000000e+00 5.9593691072635888e+00 1.6405520085895969e+01 5.4795719649128003e+00 
310 0 1 1.0279999999999423e+00 1.5730479916225937e+01 1.0000000000000000e+00 6.4775497365042360e+00 1.5302761523523527e+01 4.7965712686035431e+00 
64 0 1 1.0280000000001719e+00 -1.6848774815125950e+01 1.0000000000000000e+00 7.8658991136666123e-01 1.3247865243702591e+01 7.4479204745387220e+00 
194 0 1 1.0279999999999334e+00 8.6039899632647359e+00 1.0000000000000000e+00 8.5822452246255154e-01 1.3245469220488047e+01 7.4707601186476893e+00 
307 0 1 1.0279999999997347e+00 1.2270920649160788e+01 1.0000000000000000e+00 2.6447072366603455e+00 1.2431131111828281e+01 7.5672748355270887e+00 
572 0 1 1.0280000000000724e+00 -1.3654645641932028e+01 1.0000000000000000e+00 2.6602699975135944e+00 1.2425915070175256e+01 7.5588484370566711e+00 
628 0 1 1.0279999999999447e+00 -8.0284659368900080e+00 1.0000000000000000e+00 2.6194778687514946e+00 1.2435145505098388e+01 7.5801563490286004e+00 
294 0 1 1.0280000000004292e+00 5.7262096821954280e+00 1.0000000000000000e+00 8.5408112077495635e-01 1.5161446765611444e+01 6.8121468390721063e+00 
104 0 1 1.0280000000000573e+00 -2.0361719502988449e+00 1.0000000000000000e+00 3.0203654175831831e+00 1.6417033934770490e+01 7.2982002330362477e+00 
392 0 1 1.0280000000000915e+00 -1.7787473107836135e+01 1.0000000000000000e+00 1.8589684038525380e+00 1.3403254376698797e+01 7.6462755119240038e+00 
439 0 1 1.0279999999999767e+00 6.7373049943056662e+00 1.0000000000000000e+00 2.7262876589296843e+00 1.6527479814435708e+01 7.6222751828130217e+00 
554 0 1 1.0279999999997498e+00 -2.4259437987743318e+01 1.0000000000000000e+00 2.3190788093587549e+00 1.6071516391539337e+01 8.4911564692784083e+00 
321 0 1 1.0280000000001888e+00 6.7716401702881477e+00 1.0000000000000000e+00 2.2396598662966576e+00 1.6042651737387541e+01 8.4634661395988946e+00 
193 0 1 1.0279999999999063e+00 7.5906902376549610e+00 1.0000000000000000e+00 2.2630039418480483e+00 1.6049075010065618e+01 8.4729554735666177e+00 
224 0 1 1.0279999999997851e+00 -2.9263426152406935e-01 1.0000000000000000e+00 2.2733623947924069e+00 1.6039304782729644e+01 8.4802026605250145e+00 
593 0 1 1.0280000000001310e+00 -1.0272535367991413e+01 1.0000000000000000e+00 2.3364118610809115e+00 1.6120518038584116e+01 8.4823035993351112e+00 
404 0 1 1.0279999999999130e+00 1.5250928866781226e+01 1.0000000000000000e+00 5.5793863727511379e+00 1.5700489669078369e+01 8.0982685202414366e+00 
288 0 1 1.0280000000000915e+00 -1.7862858852604621e+01 1.0000000000000000e+00 4.5103497453135795e+00 1.5484828242226500e+01 7.1519061707263383e+00 
216 0 1 1.0279999999996696e+00 2.5149949083813730e+00 1.0000000000000000e+00 5.6127156765224759e+00 1.5705052422403492e+01 8.1411169793479630e+00 
202 0 1 1.0280000000000546e+00 -5.3895297130867146e+00 1.0000000000000000e+00 4.6593120186322867e+00 1.5613776726040182e+01 7.4660289610652377e+00 
410 0 1 1.0279999999999916e+00 8.0553065765082827e+00 1.0000000000000000e+00 6.2630591153324016e+00 1.5732016524104443e+01 8.6994170049970876e+00 
561 0 1 1.0279999999999967e+00 -5.7353098426127378e+00 1.0000000000000000e+00 5.6671097214060966e+00 1.6097949261528861e+01 8.3607824095209100e+00 
605 0 1 1.0279999999997895e+00 -8.7312746224828004e+00 1.0000000000000000e+00 8.9280928412153404e+00 1.3647049880367177e+00 3.3150166705647259e+00 
276 0 1 1.0280000000000546e+00 1.5646039230386632e+01 1.0000000000000000e+00 7.1969794359599630e+00 2.1111591400049079e+00 2.2921018258777313e+00 
582 0 1 1.0280000000002931e+00 -3.9831894103688768e+01 1.0000000000000000e+00 7.0284741723258390e+00 2.2785113677357947e+00 2.1058018009707542e+00 
95 0 1 1.0280000000002167e+00 8.3495510314184318e-01 1.0000000000000000e+00 9.6435313959246649e+00 1.2190728356507856e+00 3.3313091198957365e+00 
575 0 1 1.0279999999999452e+00 -1.3094555833691825e+01 1.0000000000000000e+00 7.2684773212427798e+00 2.7568170277130162e+00 3.9153828913014443e-01 
451 0 1 1.0279999999996330e+00 1.2006797160904192e+01 1.0000000000000000e+00 9.8863619507596656e+00 2.0974557135991665e+00 2.9330508788134586e+00 
528 0 1 1.0280000000001508e+00 7.2929908716700238e+00 1.0000000000000000e+00 1.0752136450448154e+01 1.1809212798047712e+00 1.7097947762034214e+00 
156 0 1 1.0280000000000389e+00 -6.2294355736766294e+00 1.0000000000000000e+00 1.0581924255683214e+01 1.1165726804475606e+00 1.2853675393525699e+00 
555 0 1 1.0280000000003258e+00 -4.1873490895050232e+00 1.0000000000000000e+00 1.0514621069233659e+01 1.1902488372967894e+00 1.1417793023486340e+00 
314 0 1 1.0280000000002387e+00 -1.4640958470418854e+00 1.0000000000000000e+00 1.0481913754386753e+01 1.1957918144195647e+00 1.1280952810423877e+00 
568 0 1 1.0280000000001122e+00 -4.1646207991572538e+01 1.0000000000000000e+00 1.0482045886970889e+01 1.1958381741486184e+00 1.1280661875713336e+00 
116 0 1 1.0280000000001204e+00 2.2873909667570098e+00 1.0000000000000000e+00 1.0482534506726971e+01 1.1959774488144270e+00 1.1279949478101801e+00 
334 0 1 1.0279999999995462e+00 1.4450462469217365e+01 1.0000000000000000e+00 1.0572274333200681e+01 3.1730114294617171e+00 1.1152574706535943e+00 
557 0 1 1.0279999999998450e+00 8.9037393738771762e+00 1.0000000000000000e+00 7.3434932842302469e+00 3.8172244262479311e+00 8.4794783435531773e-01 
472 0 1 1.0280000000001175e+00 1.8106375325007541e+01 1.0000000000000000e+00 7.0475686708205654e+00 4.1010562704167555e+00 5.6801970301956106e-01 
344 0 1 1.0279999999999458e+00 6.3111728723831750e-01 1.0000000000000000e+00 7.0466543665277594e+00 4.1016652284958992e+00 5.6719832618460186e-01 
380 0 1 1.0279999999995499e+00 -3.0995449816912926e+00 1.0000000000000000e+00 7.0455354576089793e+00 4.1024934294323625e+00 5.6605089461390556e-01 
227 0 1 1.0280000000003398e+00 9.0216834310502172e+00 1.0000000000000000e+00 9.9446510836257911e+00 4.5468555689535517e+00 2.0723467896741923e+00 
619 0 1 1.0279999999997291e+00 -1.1217248189674289e+00 1.0000000000000000e+00 1.1699570625755033e+01 5.6344191227718401e+00 1.8725602929695107e+00 
99 0 1 1.0280000000004483e+00 -2.6585863980470329e+01 1.0000000000000000e+00 1.0027276511789916e+01 4.0996739617966362e+00 1.6185825603815407e+00 
67 0 1 1.0280000000000247e+00 -6.8158132232858915e+00 1.0000000000000000e+00 1.0106050187379715e+01 4.0795074474519772e+00 1.4217292732069973e+00 
235 0 1 1.0279999999996996e+00 6.6258286602035872e+00 1.0000000000000000e+00 1.1723307683029180e+01 5.8706533138128032e+00 1.3505305866530393e+00 
337 0 1 1.0279999999995693e+00 -1.6913811030964006e+01 1.0000000000000000e+00 1.1820485594482713e+01 5.6228184850782075e+00 1.3160266126206417e+00 
480 0 1 1.0279999999998417e+00 8.2458858363308742e+00 1.0000000000000000e+00 1.1686117009713762e+01 5.9344683901482922e+00 1.1792688914685496e+00 
296 0 1 1.0279999999998113e+00 9.1610439733792042e+00 1.0000000000000000e+00 1.1688230350085892e+01 5.9312940294176455e+00 1.1790975887272768e+00 
456 0 1 1.0279999999996425e+00 2.1589139828140551e+00 1.0000000000000000e+00 1.0428123782239496e+01 3.9318837997373031e+00 1.1595182476531929e+00 
386 0 1 1.0279999999997305e+00 -2.8447746597724777e+00 1.0000000000000000e+00 1.0444026837192784e+01 3.6616095452984796e+00 1.1580959530476005e+00 
199 0 1 1.0279999999998637e+00 1.1761327481626648e+01 1.0000000000000000e+00 1.3282117600855516e+01 4.4850743054747939e+00 3.0176067307944909e+00 
110 0 1 1.0279999999997658e+00 -1.6244868967595707e+00 1.0000000000000000e+00 1.2910477686047892e+01 9.3002846214634420e+00 2.3308606229523647e+00 
17 0 1 1.0279999999996952e+00 -2.7082174651305317e+00 1.0000000000000000e+00 1.2543810298306335e+01 8.4701019070820234e+00 1.8734355122686142e+00 
128 0 1 1.0280000000001797e+00 -8.2309238229114676e+00 1.0000000000000000e+00 1.2863685147084285e+01 9.2354048693046398e+00 2.2699087955401276e+00 
326 0 1 1.0280000000002689e+00 7.0700828076718150e+00 1.0000000000000000e+00 1.2893401188016941e+01 9.2768316495775913e+00 2.3029011325000126e+00 
74 0 1 1.0280000000003058e+00 -4.8806242223363761e+00 1.0000000000000000e+00 1.2930888741682661e+01 9.3294033520063433e+00 2.3744290877899497e+00 
176 0 1 1.0279999999992859e+00 -1.2766275592771571e+01 1.0000000000000000e+00 1.1828663681745580e+01 8.0014771965015772e+00 6.6698214361326169e-01 
394 0 1 1.0279999999999558e+00 3.4143164883083648e+00 1.0000000000000000e+00 1.1817599396580139e+01 7.9971481539921188e+00 5.4191952315096192e-01 
623 0 1 1.0279999999999143e+00 -3.7435113935320786e+01 1.0000000000000000e+00 7.0974384605276155e+00 3.0348769007096315e+00 3.9323401680281687e+00 
570 0 1 1.0280000000002176e+00 -1.1896993517131058e+01 1.0000000000000000e+00 7.3663765613155308e+00 2.9875200710016085e+00 4.0007821074097079e+00 
453 0 1 1.0280000000001241e+00 1.6103235631161759e+01 1.0000000000000000e+00 6.8387217717705520e+00 2.7800784197044073e+00 4.0572959468679768e+00 
537 0 1 1.0279999999997660e+00 6.1350963009568424e+00 1.0000000000000000e+00 8.7938868173482483e+00 2.2665804674070431e+00 4.1643797213271654e+00 
462 0 1 1.0280000000003036e+00 -1.7630575247919175e+01 1.0000000000000000e+00 8.1085229816034694e+00 1.4569393385144915e+00 4.2355506320802512e+00 
491 0 1 1.0280000000002669e+00 -1.0369418032884710e+01 1.0000000000000000e+00 8.8377135211577791e+00 1.1845018508083194e+00 4.5713381028883964e+00 
642 0 1 1.0279999999999612e+00 -1.5291642889857247e+01 1.0000000000000000e+00 9.0971888434829360e+00 9.5926523340499570e-01 4.9188098006758398e+00 
529 0 1 1.0279999999995728e+00 1.4061246645746861e+00 1.0000000000000000e+00 1.0850689469677919e+01 1.9748160666677664e-01 4.5524820523441809e+00 
26 0 1 1.0279999999999616e+00 2.0176532411174017e+00 1.0000000000000000e+00 1.0988719580058387e+01 3.2429687104074706e-01 4.8425626084785200e+00 
88 0 1 1.0279999999998397e+00 -2.5009920535436398e+00 1.0000000000000000e+00 1.0386913979131949e+01 6.9270254088444239e-01 5.0230612162399098e+00 
618 0 1 1.0280000000001623e+00 -1.5878587600938559e+01 1.0000000000000000e+00 1.1279510072221075e+01 3.1740370509037286e+00 6.5651637271925019e+00 
146 0 1 1.0280000000000573e+00 -1.7052433538725631e+00 1.0000000000000000e+00 1.0871264604642022e+01 4.9908101880521492e-02 5.6652072207613102e+00 
177 0 1 1.0279999999998797e+00 -1.6137273154584428e+00 1.0000000000000000e+00 8.5737054462518554e+00 6.5525308835091849e+00 3.3368558238944241e+00 
85 0 1 1.0280000000001632e+00 -2.6905216492615253e+01 1.0000000000000000e+00 9.5611044061702835e+00 5.2867345993857571e+00 3.8306158193092510e+00 
215 0 1 1.0279999999998697e+00 1.3948298220872211e+01 1.0000000000000000e+00 9.3891384693410487e+00 5.7492982117743541e+00 3.9424426521301630e+00 
189 0 1 1.0279999999998193e+00 -2.0197931996799561e+01 1.0000000000000000e+00 9.3289159846149392e+00 5.8898403825410872e+00 3.9736539961716679e+00 
80 0 1 1.0280000000002931e+00 4.2924372004841098e+00 1.0000000000000000e+00 1.1100448538891735e+01 3.3577992712036373e+00 5.8816854846177833e+00 
600 0 1 1.0280000000000442e+00 -3.6636532763183522e+00 1.0000000000000000e+00 1.2573560275964747e+01 4.9223243107031980e+00 3.9627744476983309e+00 
108 0 1 1.0279999999998961e+00 5.3723698614847963e+00 1.0000000000000000e+00 1.0876490890982540e+01 4.2628406252847650e+00 4.2985983573457869e+00 
611 0 1 1.0279999999998590e+00 -1.2765478948818028e+01 1.0000000000000000e+00 1.0888936735306990e+01 4.2588002571592067e+00 4.2852236753325323e+00 
388 0 1 1.0279999999997960e+00 7.8991334509545350e+00 1.0000000000000000e+00 1.0857678865018286e+01 4.0993522626438290e+00 4.6122748153815261e+00 
408 0 1 1.0279999999998084e+00 -4.1349038431582610e+00 1.0000000000000000e+00 1.0867459847671123e+01 3.8192547238504031e+00 4.9226273407403953e+00 
50 0 1 1.0279999999998537e+00 -1.2738256690269132e+01 1.0000000000000000e+00 1.0923995187417802e+01 3.6135851018437837e+00 5.2880453622972006e+00 
383 0 1 1.0279999999999543e+00 9.1563103777016153e+00 1.0000000000000000e+00 8.6583932230267511e+00 6.8540579964816564e+00 3.3627458080658119e+00 
140 0 1 1.0279999999996690e+00 -2.0895392316295997e+01 1.0000000000000000e+00 8.6590822307408146e+00 6.8543203812619824e+00 3.3626115168576769e+00 
113 0 1 1.0279999999997640e+00 -3.0121618100523417e+01 1.0000000000000000e+00 8.6050310860122625e+00 6.8459413206156796e+00 3.3835431804434388e+00 
142 0 1 1.0279999999998204e+00 -1.1093277484816188e+01 1.0000000000000000e+00 8.5051288803202532e+00 6.7667752307883671e+00 3.4318724430058509e+00 
147 0 1 1.0280000000000520e+00 -5.5273304298845378e+00 1.0000000000000000e+00 8.2773830751285278e+00 8.7142408843663492e+00 5.2068903875947914e+00 
14 0 1 1.0279999999999867e+00 -3.8440960348485206e+01 1.0000000000000000e+00 8.2778014693912549e+00 8.7083122393467924e+00 5.2178626604064018e+00 
57 0 1 1.0279999999999381e+00 -3.9747276461114666e+01 1.0000000000000000e+00 8.2783464371149691e+00 8.7122058277137704e+00 5.2087010786907397e+00 
562 0 1 1.0279999999998959e+00 2.1966512073176609e+00 1.0000000000000000e+00 8.2850533598382956e+00 8.6914744079370703e+00 5.2410491891202557e+00 
589 0 1 1.0280000000001188e+00 -1.5987237757060527e+01 1.0000000000000000e+00 8.2905528737297782e+00 8.6791646046159485e+00 5.2659626468542236e+00 
29 0 1 1.0279999999998652e+00 -3.8400702507479053e+01 1.0000000000000000e+00 1.0639323960253291e+01 9.9705448791795082e+00 5.9669075867355099e+00 
374 0 1 1.0280000000000800e+00 1.2921055285658028e+01 1.0000000000000000e+00 1.0639389948830988e+01 9.9702924035960034e+00 5.9667077009160643e+00 
59 0 1 1.0279999999998395e+00 -5.5376607000060840e+00 1.0000000000000000e+00 1.0639376557261107e+01 9.9703575683889962e+00 5.9667714163463090e+00 
478 0 1 1.0280000000001230e+00 -2.4048642404475662e+00 1.0000000000000000e+00 1.0639371638056367e+01 9.9703829699249837e+00 5.9667972842713244e+00 
487 0 1 1.0279999999998932e+00 -3.5463773942841952e+00 1.0000000000000000e+00 1.0639366042269105e+01 9.9703860923827374e+00 5.9667837093119456e+00 
406 0 1 1.0279999999998115e+00 -2.1410309515439064e+01 1.0000000000000000e+00 1.0639504829550715e+01 9.9698439385571955e+00 5.9663472504492621e+00 
150 0 1 1.0280000000000997e+00 3.2395981563094720e+00 1.0000000000000000e+00 8.3911175259389328e+00 6.6450706829406148e-01 7.4090774385722655e+00 
483 0 1 1.0279999999999598e+00 -2.2251125780606333e+00 1.0000000000000000e+00 8.5243229020354221e+00 6.8414506673946784e-01 7.4287097271092453e+00 
203 0 1 1.0280000000001570e+00 -1.6315678707917321e+01 1.0000000000000000e+00 8.5117905541962386e+00 6.8729551632024621e-01 7.9880441582369581e+00 
543 0 1 1.0279999999999025e+00 2.3959568112231255e+00 1.0000000000000000e+00 8.5109051847463473e+00 6.3424265865203477e-01 8.1989390413641612e+00 
278 0 1 1.0279999999998237e+00 1.5606595310787856e+01 1.0000000000000000e+00 8.1666292910172604e+00 5.8771160815472434e-01 8.3536122632633010e+00 
264 0 1 1.0279999999998368e+00 8.5754008898716272e+00 1.0000000000000000e+00 1.1386762177059509e+01 2.9646370669386659e+00 7.2573337881734323e+00 
19 0 1 1.0280000000000076e+00 -1.2441829818328095e+01 1.0000000000000000e+00 1.1397393963903685e+01 2.9175634603727327e+00 7.2911813984646177e+00 
479 0 1 1.0279999999999652e+00 1.0336405739298291e+01 1.0000000000000000e+00 1.1395918362871585e+01 2.9525927764477480e+00 7.3529254451349439e+00 
45 0 1 1.0280000000001792e+00 -9.1219171467472684e+00 1.0000000000000000e+00 1.1547608576089232e+01 2.5862102996275831e+00 7.8007872026900156e+00 
121 0 1 1.0280000000000065e+00 8.2528411620573543e+00 1.0000000000000000e+00 1.1977464786082717e+01 2.2783909733038898e+00 8.8392790957215102e+00 
262 0 1 1.0280000000002472e+00 2.2480928427797231e+01 1.0000000000000000e+00 1.2029709887046931e+01 2.1976332221301149e+00 8.9584612783021811e+00 
165 0 1 1.0280000000004321e+00 1.6955238872123513e+01 1.0000000000000000e+00 1.2048033753830016e+01 2.1980652360362405e+00 8.9987241965937841e+00 
281 0 1 1.0279999999998051e+00 -2.5708831943381929e+00 1.0000000000000000e+00 1.2331868952744124e+01 2.0128583268030158e+00 9.9655765723936973e+00 
269 0 1 1.0280000000003744e+00 8.1534770013362241e+00 1.0000000000000000e+00 1.3205171595929828e+01 4.9815608811327348e+00 8.8123673175802182e+00 
25 0 1 1.0279999999996958e+00 -1.0967948399331519e+01 1.0000000000000000e+00 1.3255094649712149e+01 5.1160135423629693e+00 9.7267875568789002e+00 
117 0 1 1.0279999999998868e+00 2.5102838136719545e+00 1.0000000000000000e+00 8.4886119903281063e+00 8.3449949360912843e+00 9.8425888956384942e+00 
630 0 1 1.0280000000000491e+00 -1.9775777104860865e+01 1.0000000000000000e+00 1.2699894228769455e+01 6.8959873528182003e+00 7.9290749474298803e+00 
27 0 1 1.0280000000001019e+00 -1.8406972809730910e+01 1.0000000000000000e+00 1.2698529737058507e+01 6.8974112061691333e+00 7.9309560887871084e+00 
73 0 1 1.0280000000000997e+00 -5.6046854797787047e+00 1.0000000000000000e+00 1.2699341277398862e+01 6.8964927124500361e+00 7.9299490678464224e+00 
304 0 1 1.0279999999996594e+00 1.3019739830658001e+01 1.0000000000000000e+00 1.2421036263520589e+01 8.5993920529436796e+00 7.2467675127257474e+00 
107 0 1 1.0279999999998459e+00 1.8575000777969914e+00 1.0000000000000000e+00 1.2240835250880501e+01 8.8317880724076936e+00 8.1319579264909958e+00 
11 0 1 1.0280000000001754e+00 -5.8393042199542844e+00 1.0000000000000000e+00 1.2141278837712289e+01 8.8022907409511326e+00 8.3441128712586625e+00 
475 0 1 1.0280000000003258e+00 -2.3387477410304465e+00 1.0000000000000000e+00 1.1722911975718985e+01 8.5563326131070490e+00 8.4289097519654597e+00 
240 0 1 1.0279999999999057e+00 7.2948163731252897e+00 1.0000000000000000e+00 1.0291458163318921e+01 7.9781132622960236e+00 9.6355454521619919e+00 
183 0 1 1.0280000000000071e+00 2.1175818637537009e+00 1.0000000000000000e+00 1.3189553774383958e+01 9.0303012973820369e+00 7.2796000174523847e+00 
198 0 1 1.0279999999999769e+00 7.4096626193245374e+00 1.0000000000000000e+00 1.2335145449808193e+01 1.8835884112173999e+00 1.3039518969280104e+01 
233 0 1 1.0280000000000373e+00 -1.0852836155928686e-01 1.0000000000000000e+00 1.2335232316847762e+01 1.8836194137941809e+00 1.3039555394071352e+01 
126 0 1 1.0280000000000185e+00 -2.0310311995349970e+01 1.0000000000000000e+00 1.2335248444721746e+01 1.8836251587742292e+00 1.3039562169160330e+01 
465 0 1 1.0279999999998051e+00 8.3881132459073910e+00 1.0000000000000000e+00 1.2445381521046791e+01 1.8913842943105008e+00 1.3220790786216307e+01 
342 0 1 1.0279999999996310e+00 6.3852026867200449e+00 1.0000000000000000e+00 1.2525703433014563e+01 1.6442537519452267e+00 1.1138024653370492e+01 
591 0 1 1.0279999999998062e+00 -6.8703716688539824e+00 1.0000000000000000e+00 1.2410669723490333e+01 1.7698362773859455e+00 1.0735692652927673e+01 
421 0 1 1.0279999999999916e+00 -1.8116998775614743e+01 1.0000000000000000e+00 1.2309234305461652e+01 1.9801688243364270e+00 1.0025444636882666e+01 
157 0 1 1.0280000000001563e+00 5.0320727479923943e-01 1.0000000000000000e+00 8.6626592128782267e+00 8.3655658458161373e+00 1.1117414518222750e+01 
544 0 1 1.0280000000001219e+00 3.2257082193448205e+00 1.0000000000000000e+00 8.1139487918169468e+00 8.1862709802572287e+00 1.0719827555852516e+01 
367 0 1 1.0279999999999248e+00 1.1850104237689166e+01 1.0000000000000000e+00 8.0867969594931566e+00 8.3741564409740494e+00 1.0676837809919373e+01 
440 0 1 1.0280000000000458e+00 2.3943403130815932e+00 1.0000000000000000e+00 8.0657464499069302e+00 8.1786741850762965e+00 1.0596828970576961e+01 