LAMMPS data file via write_data, version 30 Jul 2016, timestep = 50000000

4620 atoms
8 atom types

0.0000000000000000e+00 1.0000000000000000e+02 xlo xhi
0.0000000000000000e+00 4.0000000000000000e+01 ylo yhi
0.0000000000000000e+00 4.0000000000000000e+01 zlo zhi

Masses

1 3.896
2 5.36
3 20.064
4 8.378
5 8.378
6 8.378
7 8.378
8 8.378

Atoms # meso-molecular

3346 3347 2 1.0279999999785272e+00 -7.4723802815690378e+03 1.0000000000000000e+00 8.4705091681441740e+00 4.6182672873077873e-01 3.6952704776611972e-01 
3393 3394 2 1.0280000000310809e+00 2.1146589412034273e+03 1.0000000000000000e+00 8.0976071559112324e+00 1.3408768449530890e+00 2.9268610802160722e-01 
3220 3221 2 1.0280000000093659e+00 -2.1238666830026204e+03 1.0000000000000000e+00 7.8777985171146563e+00 9.1302305705313413e-01 1.7546117968268260e-01 
3854 3855 2 1.0279999999459442e+00 4.0375386478090107e+01 1.0000000000000000e+00 8.8337454040472050e+00 2.8042955821740617e-01 5.0833183996839774e-02 
4337 4338 2 1.0280000006827887e+00 -6.4139053758919340e+02 1.0000000000000000e+00 1.1597369280474748e+01 4.9340950012140858e+00 1.9860863459337441e+00 
644 645 2 1.0280000006873231e+00 -1.3808650413528158e+03 1.0000000000000000e+00 1.1606992431432152e+01 4.9077897521154537e+00 2.0062142630695772e+00 
3791 3792 2 1.0279999996672331e+00 1.2955630210966870e+03 1.0000000000000000e+00 1.1815046602003058e+01 4.9622425141493895e+00 2.2971485811979746e+00 
3833 3834 2 1.0279999999839970e+00 3.8248026073256163e+01 1.0000000000000000e+00 1.4163400589339158e+01 2.7895373789969518e+00 4.8069094572301008e-01 
3333 3334 2 1.0279999999828158e+00 -7.4713474277717887e+03 1.0000000000000000e+00 1.4530589558148112e+01 3.1062546565532330e+00 6.4394115797056539e-01 
3370 3371 2 1.0279999999199747e+00 2.1197105355478025e+03 1.0000000000000000e+00 1.4600594535597212e+01 3.9715144447192756e+00 3.0983291357394732e-01 
3207 3208 2 1.0279999999384419e+00 -2.1211202631145852e+03 1.0000000000000000e+00 1.4948615269564881e+01 3.5346537761518744e+00 3.0206697398143323e-01 
3812 3813 2 1.0280000013042052e+00 1.2925339254156920e+03 1.0000000000000000e+00 8.2284713636728579e+00 5.6029970436041889e+00 2.0215655360487665e+00 
659 660 2 1.0280000007683761e+00 -1.3807009977334055e+03 1.0000000000000000e+00 8.4068829596822248e+00 5.6570905684267867e+00 1.6711543609456025e+00 
4358 4359 2 1.0280000006323127e+00 -6.4248046517212117e+02 1.0000000000000000e+00 8.4268569858055660e+00 5.6894727257444897e+00 1.6345224615786991e+00 
3726 3727 2 1.0279999982540291e+00 1.9675664470180527e+03 1.0000000000000000e+00 8.8084446528114206e+00 6.3890938009558091e+00 1.8011847480079000e+00 
1644 1645 2 1.0279999997243714e+00 2.9831739056011793e+03 1.0000000000000000e+00 1.1401359407354297e+01 7.7518497797829182e+00 2.3384790282176837e+00 
1675 1676 2 1.0280000004742944e+00 2.9792827453065188e+03 1.0000000000000000e+00 1.0239993912940390e+01 7.9287387154265536e+00 1.5254097865708995e+00 
3061 3062 2 1.0280000020088140e+00 2.9792836948111681e+03 1.0000000000000000e+00 1.0275817829778017e+01 8.4997594292720677e+00 1.5557951301232344e+00 
3030 3031 2 1.0280000000084160e+00 2.9831167937104165e+03 1.0000000000000000e+00 1.1374170331471502e+01 8.6416005898490589e+00 2.3318798988197891e+00 
492 493 2 1.0279999996162132e+00 1.9673969162657454e+03 1.0000000000000000e+00 8.7996287026579090e+00 1.0008901870708902e+01 1.8682685449237979e+00 
578 579 2 1.0280000003393843e+00 1.2924269124468103e+03 1.0000000000000000e+00 8.1785221774131109e+00 1.0863299299899589e+01 2.1008534264831562e+00 
200 201 2 1.0280000000329739e+00 -6.4241620590835555e+02 1.0000000000000000e+00 8.4119350401613602e+00 1.0736109119635111e+01 1.6921156213048372e+00 
3893 3894 2 1.0280000000939509e+00 -1.3806798325337631e+03 1.0000000000000000e+00 8.3890644749328889e+00 1.0774608631538889e+01 1.7286147922403203e+00 
179 180 2 1.0279999997251021e+00 -6.4134858223713297e+02 1.0000000000000000e+00 1.1573491426200601e+01 1.1564832938477039e+01 1.9569931162098881e+00 
3878 3879 2 1.0279999997412506e+00 -1.3808690554426048e+03 1.0000000000000000e+00 1.1585404155483932e+01 1.1594279927699466e+01 1.9783789875260265e+00 
557 558 2 1.0280000007378325e+00 1.2955154287991727e+03 1.0000000000000000e+00 1.1786627412109006e+01 1.1522511142845717e+01 2.2872454576168630e+00 
1060 1061 2 1.0280000000099623e+00 2.1198918166678600e+03 1.0000000000000000e+00 1.4529685917174351e+01 1.2328656844606378e+01 3.0487991331324582e-01 
1083 1084 2 1.0280000000011813e+00 2.1149424449890048e+03 1.0000000000000000e+00 7.8623250555899391e+00 1.4843351167926516e+01 2.4413732888463829e-01 
599 600 2 1.0280000000318359e+00 3.8240915805151872e+01 1.0000000000000000e+00 1.4061339399085524e+01 1.3465828434511272e+01 4.0948084793612866e-01 
1023 1024 2 1.0279999999981437e+00 -7.4711725109744966e+03 1.0000000000000000e+00 1.4434006708981563e+01 1.3190317258622047e+01 5.9077477038074533e-01 
1821 1822 2 1.0279999999547167e+00 -2.1208262562907821e+03 1.0000000000000000e+00 1.4869906693645230e+01 1.2777757179384002e+01 2.7707768829994195e-01 
1036 1037 2 1.0279999999497100e+00 -7.4722937575689321e+03 1.0000000000000000e+00 8.2225138626507075e+00 1.5708011432460253e+01 3.1901905092591049e-01 
1834 1835 2 1.0280000000040610e+00 -2.1237466976608694e+03 1.0000000000000000e+00 7.6404277225395321e+00 1.5262494118117550e+01 1.2753693935192481e-01 
2255 2256 2 1.0279999999239151e+00 -1.5134560605254865e+03 1.0000000000000000e+00 7.8483108571211364e+00 7.1138661251613300e+00 3.8900942662976514e+00 
1880 1881 2 1.0279999997224794e+00 -2.7498083817374927e+03 1.0000000000000000e+00 7.9170476891256181e+00 7.3191884131959926e+00 3.9639945199564646e+00 
3769 3770 2 1.0280000003026755e+00 9.1768684755222534e+02 1.0000000000000000e+00 8.3207205820874037e+00 6.0576751629420178e+00 4.5223262572807403e+00 
2725 2726 2 1.0280000003040299e+00 -4.2447204670121537e+03 1.0000000000000000e+00 8.3909744301794724e+00 6.0434815419640984e+00 4.5529879738947292e+00 
3709 3710 2 1.0279999999287548e+00 1.9695246501178599e+03 1.0000000000000000e+00 1.1357078081466742e+01 5.3540638198072630e+00 2.5334702825240085e+00 
916 917 2 1.0280000000712834e+00 3.1377698142246327e+03 1.0000000000000000e+00 1.0081688884409266e+01 7.2199978696841267e+00 3.4604292656999420e+00 
4152 4153 2 1.0279999983195416e+00 1.4095475870850049e+02 1.0000000000000000e+00 1.0408932302369413e+01 7.2081537577486889e+00 4.5742369143092079e+00 
4123 4124 2 1.0280000000870140e+00 1.4099152427709669e+02 1.0000000000000000e+00 1.1685905179166875e+01 7.1381966092251670e+00 4.7683641087569901e+00 
891 892 2 1.0280000012800994e+00 3.1388557367461026e+03 1.0000000000000000e+00 1.1796164799067073e+01 7.2923915015521086e+00 3.8489451218736552e+00 
2240 2241 2 1.0279999999114786e+00 -1.5176571342984162e+03 1.0000000000000000e+00 1.3347380337605996e+01 6.1487590876846205e+00 4.8590831594938306e+00 
2717 2718 2 1.0279999999182199e+00 -1.5133611824091936e+03 1.0000000000000000e+00 7.8108347392339139e+00 9.3738441492634799e+00 3.8774691332815414e+00 
2342 2343 2 1.0279999999313192e+00 -2.7495458816483169e+03 1.0000000000000000e+00 7.8958930612550802e+00 9.1857121565112330e+00 3.9487228408500750e+00 
4150 4151 2 1.0279999997311411e+00 3.1377341825387675e+03 1.0000000000000000e+00 1.0091438976234906e+01 9.3120974905228007e+00 3.4369352258453594e+00 
918 919 2 1.0279999987834647e+00 1.4096455293817974e+02 1.0000000000000000e+00 1.0387669994187855e+01 9.4192269039021692e+00 4.5381006888750832e+00 
889 890 2 1.0280000010434227e+00 1.4100151926128410e+02 1.0000000000000000e+00 1.1598915858967501e+01 9.5896985375088271e+00 4.7242996782247415e+00 
4125 4126 2 1.0280000009138894e+00 3.1387064499765474e+03 1.0000000000000000e+00 1.1795835239378805e+01 9.3470299660265823e+00 3.9592015926860649e+00 
535 536 2 1.0280000001837355e+00 9.1775382742792476e+02 1.0000000000000000e+00 8.2433389367477368e+00 1.0484328917312098e+01 4.5419879825141454e+00 
2263 2264 2 1.0280000001938863e+00 -4.2446469366483916e+03 1.0000000000000000e+00 8.3151523045055669e+00 1.0500447697261007e+01 4.5793844298579396e+00 
475 476 2 1.0279999989414128e+00 1.9692384273062289e+03 1.0000000000000000e+00 1.1332678182470996e+01 1.1138275418830478e+01 2.5529782401433625e+00 
2702 2703 2 1.0279999999578586e+00 -1.5176209431237862e+03 1.0000000000000000e+00 1.3335443177829781e+01 1.0509853093873481e+01 4.7926666151894244e+00 
1855 1856 2 1.0280000001214056e+00 -2.8212759765797296e+03 1.0000000000000000e+00 3.2272636504156544e+01 1.6355740504301050e+01 3.7150772596518804e+00 
2229 2230 2 1.0279999999208622e+00 -4.1277439023988302e+02 1.0000000000000000e+00 3.2677723630828950e+01 1.6441972392896098e+01 3.2504179356347520e+00 
2372 2373 2 1.0280000000544269e+00 -7.4100095087520799e+02 1.0000000000000000e+00 3.1407122995017552e+01 1.6355651663533322e+01 4.7082400391546475e+00 
2023 2024 2 1.0279999999318141e+00 2.4310280678067770e+03 1.0000000000000000e+00 3.2814222705962521e+01 1.6410430822897016e+01 3.1250604239898472e+00 
1899 1900 2 1.0280000000595191e+00 -1.3256047722134113e+03 1.0000000000000000e+00 3.1929245615956820e+01 1.7925762294424729e+01 4.6017781324552836e+00 
3350 3351 2 1.0280000014532960e+00 -9.6681424303533240e+03 1.0000000000000000e+00 9.1978092424142819e+00 6.5752860380551263e+00 5.5585322218711823e+00 
1507 1508 2 1.0279999999909464e+00 -5.8019733590319147e+03 1.0000000000000000e+00 9.3256911906804145e+00 7.1814674062958082e+00 7.3536843101901059e+00 
1501 1502 2 1.0280000013800146e+00 -2.6654553076732177e+03 1.0000000000000000e+00 9.3438232346388883e+00 7.3978657595069084e+00 6.2785685594173239e+00 
2390 2391 2 1.0280000006484897e+00 2.2614600638964089e+03 1.0000000000000000e+00 1.0366267581030511e+01 7.0369385651395815e+00 7.1838112166958084e+00 
1859 1860 2 1.0280000000330769e+00 -2.7524963175839221e+03 1.0000000000000000e+00 1.3515601159115535e+01 6.8411789641245777e+00 5.2448557463759560e+00 
2694 2695 2 1.0280000000520508e+00 -4.2434111696048258e+03 1.0000000000000000e+00 1.2767350191309440e+01 5.6358226230480550e+00 5.4728515663923201e+00 
3750 3751 2 1.0280000000494045e+00 9.1901469408454000e+02 1.0000000000000000e+00 1.2798016049039253e+01 5.6312441990419311e+00 5.4826180476877857e+00 
1482 1483 2 1.0280000000257337e+00 -2.6631900311319223e+03 1.0000000000000000e+00 1.3089723212415016e+01 7.3604435222611233e+00 6.8782465023163857e+00 
3329 3330 2 1.0280000008615309e+00 -9.6674686171208887e+03 1.0000000000000000e+00 1.3116891788714877e+01 7.0969602780560770e+00 6.9265036120960417e+00 
1305 1306 2 1.0279999998737381e+00 -2.4250644051300378e+03 1.0000000000000000e+00 1.5921603808280620e+01 7.4072023956184925e+00 6.5675137785875934e+00 
2887 2888 2 1.0279999986519808e+00 -2.6652917514917035e+03 1.0000000000000000e+00 9.3142915595137268e+00 9.2696860419326761e+00 6.3117384045155243e+00 
2893 2894 2 1.0279999997937233e+00 -5.8018320047917296e+03 1.0000000000000000e+00 9.3194927122168618e+00 9.5934983983421969e+00 7.3853971649465215e+00 
1928 1929 2 1.0280000014678128e+00 2.2614240165906599e+03 1.0000000000000000e+00 1.0360167947334368e+01 9.7194769294469108e+00 7.2350167946554835e+00 
1895 1896 2 1.0279999994449172e+00 2.2612181341051196e+03 1.0000000000000000e+00 1.2174613813511641e+01 9.8698915431875367e+00 7.4902865695227900e+00 
2321 2322 2 1.0279999999904827e+00 -2.7523202122274542e+03 1.0000000000000000e+00 1.3492006606917860e+01 9.8389174355115703e+00 5.2160420048230103e+00 
2868 2869 2 1.0279999996108091e+00 -2.6630000105843028e+03 1.0000000000000000e+00 1.3089417578122934e+01 9.4085024796474492e+00 6.8410762830540417e+00 
1019 1020 2 1.0280000002121461e+00 -9.6673092358525500e+03 1.0000000000000000e+00 1.3126672577293137e+01 9.6801025726896182e+00 6.8887204768703079e+00 
2238 2239 2 1.0280000001480392e+00 -1.7360861618268536e+03 1.0000000000000000e+00 1.6385699278978471e+01 7.5700075154507562e+00 6.4027355545011835e+00 
2700 2701 2 1.0280000001109302e+00 -1.7360493687575267e+03 1.0000000000000000e+00 1.6384151602079445e+01 7.6728355793485603e+00 6.4034971661268472e+00 
3615 3616 2 1.0279999997060811e+00 -2.4249776384778033e+03 1.0000000000000000e+00 1.5920971934320635e+01 7.8203901803809508e+00 6.5644354402862364e+00 
1040 1041 2 1.0280000016947730e+00 -9.6679495801551329e+03 1.0000000000000000e+00 9.1538863663810961e+00 1.0062804077319267e+01 5.4984791667269697e+00 
2232 2233 2 1.0279999999081875e+00 -4.2433674936658845e+03 1.0000000000000000e+00 1.2765892474492221e+01 1.1077223595642479e+01 5.4175389532725475e+00 
516 517 2 1.0279999998980793e+00 9.1906517582341553e+02 1.0000000000000000e+00 1.2796668207307425e+01 1.1081652865972162e+01 5.4259057579440855e+00 
604 605 2 1.0280000001730198e+00 -2.9721970704314645e+03 1.0000000000000000e+00 3.0407515322869461e+01 1.4870983969639886e+01 6.8681435507253026e+00 
1021 1022 2 1.0279999998863936e+00 -6.1905935605031318e+03 1.0000000000000000e+00 3.2384228035005741e+01 1.4192520558983730e+01 6.8174240066171832e+00 
1434 1435 2 1.0279999997932570e+00 2.7450236936153192e+03 1.0000000000000000e+00 3.2532387535063705e+01 1.4326285274360954e+01 6.3095041277245150e+00 
1431 1432 2 1.0279999999683083e+00 -1.3767404703329355e+03 1.0000000000000000e+00 2.0588957211373657e+01 1.6917551559301021e+01 7.1336534938436698e+00 
4259 4260 2 1.0279999999408624e+00 4.7544816474582349e+03 1.0000000000000000e+00 2.1256866017699288e+01 1.6839333487766435e+01 7.2894663992144828e+00 
3746 3747 2 1.0279999999712488e+00 -5.7577531800246454e+01 1.0000000000000000e+00 2.2912644711799537e+01 1.7108377307409448e+01 6.9025793940542339e+00 
4431 4432 2 1.0279999998914120e+00 -1.9494578955529564e+03 1.0000000000000000e+00 2.3769620294209126e+01 1.7235098417636685e+01 7.0821042859292573e+00 
1435 1436 2 1.0279999998131448e+00 2.1102739879778587e+03 1.0000000000000000e+00 2.4163670806273373e+01 1.7152701548538751e+01 7.2174590713021640e+00 
3796 3797 2 1.0279999998601974e+00 2.6369310770323691e+03 1.0000000000000000e+00 2.8269463368730015e+01 1.6398223011821461e+01 7.2367681299953110e+00 
2361 2362 2 1.0279999999793592e+00 -1.3205905500721453e+03 1.0000000000000000e+00 2.9146919166781750e+01 1.6175280369192741e+01 5.9983308264469333e+00 
731 732 2 1.0279999999077716e+00 -2.8789881462557096e+03 1.0000000000000000e+00 2.9306691786067145e+01 1.6594663698925419e+01 6.1791371672888475e+00 
2025 2026 2 1.0280000000167191e+00 -4.4974240637851290e+03 1.0000000000000000e+00 3.0207387181579545e+01 1.5652899925792175e+01 5.4344044088706704e+00 
2030 2031 2 1.0279999998831111e+00 -5.9797686284967986e+03 1.0000000000000000e+00 3.0697703199074343e+01 1.5001522158843004e+01 6.0626650840633989e+00 
3795 3796 2 1.0279999999170766e+00 4.2378068220188140e+02 1.0000000000000000e+00 3.2632667867394701e+01 1.6838505879133081e+01 6.3934873752361909e+00 
607 608 2 1.0280000002882106e+00 -1.9386507036220852e+00 1.0000000000000000e+00 3.3004411288882352e+01 1.6023917771807017e+01 6.5025989852912334e+00 
2817 2818 2 1.0279999999781011e+00 -1.3811167398006155e+03 1.0000000000000000e+00 2.0457707815224481e+01 1.8276936952256129e+01 7.2547431407300156e+00 
512 513 2 1.0280000000332508e+00 -6.7249327121576158e+01 1.0000000000000000e+00 2.2435855282172049e+01 1.8113826156060089e+01 6.4857317737419464e+00 
273 274 2 1.0279999999926326e+00 -2.0033899246898277e+03 1.0000000000000000e+00 2.1648618016158206e+01 1.9142506842397143e+01 7.0379473774714238e+00 
101 102 2 1.0279999999868732e+00 4.7467546973438511e+03 1.0000000000000000e+00 2.1709554221644833e+01 1.9290945935072589e+01 7.2592036946951888e+00 
2821 2822 2 1.0279999998756226e+00 2.1048282558561382e+03 1.0000000000000000e+00 3.0995718218386912e+01 1.7562923410946912e+01 5.2841248896298385e+00 
2443 2444 2 1.0279999999577911e+00 -1.6488011894419724e+03 1.0000000000000000e+00 3.1249977247396380e+01 1.7642946097596514e+01 6.7569116101105458e+00 
2487 2488 2 1.0280000000125442e+00 -4.4910046334981307e+03 1.0000000000000000e+00 3.1405256237687269e+01 1.9251626578573109e+01 5.6323112035381806e+00 
3841 3842 2 1.0280000001776728e+00 -8.3270098862951727e+00 1.0000000000000000e+00 3.2302316757964405e+01 1.8516160983104264e+01 6.9687095589230843e+00 
2492 2493 2 1.0279999999575482e+00 -5.9795889489265428e+03 1.0000000000000000e+00 3.2173449096310065e+01 1.9691255753631278e+01 5.5622138718872502e+00 
3838 3839 2 1.0279999999554017e+00 -2.9719874369513700e+03 1.0000000000000000e+00 3.2171727659378412e+01 1.9726743511803612e+01 5.7422263150706989e+00 
2473 2474 2 1.0279999996954030e+00 -3.7459908945678312e+03 1.0000000000000000e+00 1.1131691011738775e+01 7.0942715215840888e+00 8.0799229711149270e+00 
2442 2443 2 1.0280000020932274e+00 -3.7505923222306965e+03 1.0000000000000000e+00 1.1168981396930549e+01 7.3823787543655781e+00 9.0348703901960903e+00 
2357 2358 2 1.0279999987825379e+00 2.2612624232046232e+03 1.0000000000000000e+00 1.2146601943174101e+01 6.9560882442689964e+00 7.5053175806616919e+00 
2804 2805 2 1.0280000000228999e+00 -1.6834074133691074e+03 1.0000000000000000e+00 8.8531493750064403e+00 8.1898387107690169e+00 8.3838880112276701e+00 
1418 1419 2 1.0279999999827236e+00 -1.6833932122703723e+03 1.0000000000000000e+00 8.8395383442450655e+00 8.6330108933761753e+00 8.3952364489148437e+00 
2011 2012 2 1.0279999999880767e+00 -3.7457757055926359e+03 1.0000000000000000e+00 1.1134798211716353e+01 9.7533258348931486e+00 8.0814136237780936e+00 
1980 1981 2 1.0279999986686552e+00 -3.7505743826933935e+03 1.0000000000000000e+00 1.1183084757029299e+01 9.4801813241854394e+00 8.9791594241687385e+00 
597 598 2 1.0280000019129845e+00 2.2217388866651777e+03 1.0000000000000000e+00 1.3000076831857999e+01 7.5177067451629656e+00 9.3588917729624423e+00 
3831 3832 2 1.0280000010270887e+00 2.2215347405811031e+03 1.0000000000000000e+00 1.3015807031817177e+01 9.4410641051449620e+00 9.3663113831646907e+00 
3580 3581 2 1.0279999996519080e+00 -6.4521733507104800e+03 1.0000000000000000e+00 1.3517526426514973e+01 9.4412530949046154e+00 9.9574341682194909e+00 
1476 1477 2 1.0279999996102549e+00 -5.8026951658123671e+03 1.0000000000000000e+00 1.4638683285128975e+01 8.1626296902611184e+00 9.0543555092826669e+00 
2862 2863 2 1.0279999994768816e+00 -5.8025973893164210e+03 1.0000000000000000e+00 1.4643881504877225e+01 8.7532171907076801e+00 9.0509247624320963e+00 
1056 1057 2 1.0280000000104594e+00 2.8077705243518908e+03 1.0000000000000000e+00 2.0397392532641533e+01 1.2228951467829496e+01 9.7409271977225611e+00 
1224 1225 2 1.0280000000102625e+00 2.8084175827527238e+03 1.0000000000000000e+00 2.0399113292118585e+01 1.2228994284620708e+01 9.7404977698537092e+00 
3455 3456 2 1.0280000000208884e+00 1.9566623564585507e+03 1.0000000000000000e+00 2.0287227427967771e+01 1.2233540051094769e+01 9.7352022718794693e+00 
221 222 2 1.0280000000267042e+00 -7.7089041357814394e+03 1.0000000000000000e+00 1.9003770335389831e+01 1.3506906667934333e+01 9.8391306997001085e+00 
2066 2067 2 1.0279999999305085e+00 8.8771694071263591e+03 1.0000000000000000e+00 1.9992076242114056e+01 1.4213413146827468e+01 9.3560529848065652e+00 
4551 4552 2 1.0279999999809710e+00 6.9102912367845178e+01 1.0000000000000000e+00 2.2229892411582213e+01 1.3687915712516038e+01 9.5870762987683005e+00 
4215 4216 2 1.0279999998586833e+00 6.7484024287831275e+01 1.0000000000000000e+00 2.1799241641546065e+01 1.3523256467316244e+01 9.6931169730135629e+00 
1144 1145 2 1.0279999998203948e+00 4.3804371005090707e+03 1.0000000000000000e+00 2.3305699848725016e+01 1.4442345620375731e+01 9.5098965440744987e+00 
1607 1608 2 1.0279999997873677e+00 6.5714088674969998e+03 1.0000000000000000e+00 2.3342961635803633e+01 1.4484165496449856e+01 9.4852615806794898e+00 
1941 1942 2 1.0279999999633440e+00 -4.9619976218406064e+03 1.0000000000000000e+00 2.8195184163778766e+01 1.4893494384595423e+01 9.9675104237044678e+00 
972 973 2 1.0279999998188640e+00 2.3303075337647653e+02 1.0000000000000000e+00 2.8728759758159182e+01 1.4555590393317525e+01 9.5279261239959716e+00 
144 145 2 1.0280000000106364e+00 9.5468721837976682e+02 1.0000000000000000e+00 3.0419360582551739e+01 1.3909254478723188e+01 8.8062000067429231e+00 
3123 3124 2 1.0280000001089964e+00 -2.2472023761105938e+03 1.0000000000000000e+00 3.1041560428573902e+01 1.3424579601976827e+01 9.1596027550449399e+00 
1986 1987 2 1.0279999998046843e+00 3.2020077527960029e+03 1.0000000000000000e+00 3.1584972193188797e+01 1.3559205708363583e+01 9.3509091260009569e+00 
524 525 2 1.0279999999825558e+00 1.2212911882347485e+03 1.0000000000000000e+00 3.2462662207313855e+01 1.4379628100730288e+01 8.7250816112009701e+00 
3452 3453 2 1.0279999999874134e+00 6.1395498722962850e+02 1.0000000000000000e+00 1.3308720326290095e+01 1.7249602507733744e+01 9.7513318854639373e+00 
423 424 2 1.0280000000049354e+00 -9.1590560829270294e+02 1.0000000000000000e+00 1.4261021284897739e+01 1.7182014151767060e+01 8.9657535947293372e+00 
463 464 2 1.0279999999689422e+00 -3.2512235726489408e+01 1.0000000000000000e+00 1.5439770808153259e+01 1.6305356192354783e+01 9.2705987286821667e+00 
2064 2065 2 1.0279999999823661e+00 -1.3331751195953102e+03 1.0000000000000000e+00 1.5523352080903068e+01 1.5717856133494896e+01 9.7001470571938366e+00 
3369 3370 2 1.0279999999820995e+00 2.3661960342767502e+03 1.0000000000000000e+00 1.7015702208164861e+01 1.6333806046604671e+01 8.6204663281497478e+00 
641 642 2 1.0280000000053351e+00 8.0568226680686234e+02 1.0000000000000000e+00 1.7656913312374527e+01 1.5962856653241909e+01 8.2793533594796198e+00 
1402 1403 2 1.0280000000209606e+00 -1.4230400649868175e+03 1.0000000000000000e+00 1.8580063909178950e+01 1.5099416375537409e+01 8.8164601157137898e+00 
2952 2953 2 1.0279999999978382e+00 8.3454387935438172e+03 1.0000000000000000e+00 1.8872436219168829e+01 1.6078034472071653e+01 7.5620886468908273e+00 
142 143 2 1.0279999999385410e+00 1.9629008035897155e+03 1.0000000000000000e+00 1.9423556925661892e+01 1.6000018198578669e+01 7.7336627154214383e+00 
3867 3868 2 1.0279999999787377e+00 -3.4598329831881056e+03 1.0000000000000000e+00 2.0874534553029299e+01 1.7055452645455787e+01 8.9882679689620453e+00 
680 681 2 1.0280000000951335e+00 -4.9138693663746071e+03 1.0000000000000000e+00 2.1565346444531372e+01 1.5147023431812844e+01 8.9116582097041608e+00 
717 718 2 1.0280000002528842e+00 -3.4649902236341113e+03 1.0000000000000000e+00 2.2708894781544139e+01 1.5599946905904124e+01 8.6569832279881496e+00 
633 634 2 1.0279999998453642e+00 -3.4542241821833300e+03 1.0000000000000000e+00 2.3335080253388949e+01 1.6764675359606390e+01 9.6115630505420917e+00 
1317 1318 2 1.0279999998607214e+00 -2.9412141161772888e+02 1.0000000000000000e+00 2.5201500674194520e+01 1.5639868552895974e+01 8.9342314372928673e+00 
139 140 2 1.0279999999884930e+00 4.4950658671900756e+03 1.0000000000000000e+00 2.5333806093821273e+01 1.5747993455927164e+01 8.6278812855193348e+00 
2192 2193 2 1.0279999999906719e+00 -2.1646248332905207e+03 1.0000000000000000e+00 2.5923788882682402e+01 1.6240770063241335e+01 9.5794611765107955e+00 
3965 3966 2 1.0279999998727440e+00 -2.8979575439508544e+03 1.0000000000000000e+00 2.6067718687357512e+01 1.6805675183881263e+01 7.5716969889158552e+00 
4343 4344 2 1.0279999999012608e+00 4.0448194974723515e+03 1.0000000000000000e+00 2.6151848058613673e+01 1.7090080917061147e+01 7.6550213014314616e+00 
2746 2747 2 1.0279999999031488e+00 -3.9886903320290694e+03 1.0000000000000000e+00 2.7834326788487026e+01 1.6459403570725659e+01 8.4788925511429802e+00 
1981 1982 2 1.0280000001137841e+00 -1.6476109021506154e+03 1.0000000000000000e+00 2.8244283110196982e+01 1.6041905230354335e+01 7.6224732881353185e+00 
1900 1901 2 1.0279999999627643e+00 -1.7261259343214069e+03 1.0000000000000000e+00 2.9828024273026461e+01 1.5095968042647030e+01 8.3301297938941659e+00 
2035 2036 2 1.0279999998665277e+00 -4.3792164849040582e+03 1.0000000000000000e+00 3.1035615518942009e+01 1.6226491848188832e+01 7.8336186284508358e+00 
108 109 2 1.0279999998062190e+00 6.4594413687789370e+02 1.0000000000000000e+00 3.1306576655034018e+01 1.5887926483329210e+01 9.1702528063428783e+00 
2497 2498 2 1.0280000001800884e+00 -4.3482868950187494e+03 1.0000000000000000e+00 3.2268246289495636e+01 1.7003136583508759e+01 8.1321718706166735e+00 
2039 2040 2 1.0280000004166669e+00 -4.4815820308276652e+03 1.0000000000000000e+00 3.1986744136211279e+01 1.7160259849611908e+01 9.4017183827783679e+00 
1142 1143 2 1.0279999999926557e+00 6.1356854116854061e+02 1.0000000000000000e+00 1.3192524722978005e+01 1.8197850556370611e+01 9.7438797246260851e+00 
4581 4582 2 1.0280000000012897e+00 -9.1422278309576245e+02 1.0000000000000000e+00 1.3962280127833949e+01 1.8472590846115587e+01 8.9604570753810648e+00 
3697 3698 2 1.0279999999819882e+00 -3.2322968025993390e+01 1.0000000000000000e+00 1.5344712849333082e+01 1.9479092760771106e+01 9.4021856140710778e+00 
2526 2527 2 1.0279999999660061e+00 -1.3336550327617256e+03 1.0000000000000000e+00 1.5410565496302182e+01 1.9723344267531889e+01 9.6407059607858479e+00 
3875 3876 2 1.0279999999776657e+00 8.0034581510343662e+02 1.0000000000000000e+00 1.7342811719971895e+01 1.7868686987778183e+01 8.5067219703618804e+00 
1059 1060 2 1.0280000000549840e+00 2.3627435085059765e+03 1.0000000000000000e+00 1.7064179346073217e+01 1.8108296835640907e+01 9.3332469226316164e+00 
4300 4301 2 1.0279999999839162e+00 1.9579192583248528e+03 1.0000000000000000e+00 1.8506127573544408e+01 1.8271300586840134e+01 7.9680487655655794e+00 
1566 1567 2 1.0280000000095846e+00 8.3531613772364708e+03 1.0000000000000000e+00 1.8608757757666922e+01 1.7888513620682996e+01 7.5013769002399204e+00 
2788 2789 2 1.0280000000362672e+00 -1.4538611623725096e+03 1.0000000000000000e+00 1.9258322006843393e+01 1.7939534271171269e+01 8.8460201838056101e+00 
1227 1228 2 1.0280000000669087e+00 2.3645409959423059e+03 1.0000000000000000e+00 2.0065395857590236e+01 1.9006700915002764e+01 9.8795692388788297e+00 
3951 3952 2 1.0280000001166254e+00 -3.4738107554206335e+03 1.0000000000000000e+00 2.2672787683749817e+01 1.8585642395754657e+01 8.8253501377250636e+00 
3914 3915 2 1.0279999999063785e+00 -4.9230344600847566e+03 1.0000000000000000e+00 2.2306095511918230e+01 1.9360814581753885e+01 8.7878536932212263e+00 
2284 2285 2 1.0279999999509464e+00 -3.9694986915166264e+03 1.0000000000000000e+00 2.3364336425279248e+01 1.9235337001108853e+01 7.9342243971802953e+00 
185 186 2 1.0280000001919078e+00 4.0375558420363104e+03 1.0000000000000000e+00 2.5148190039746215e+01 1.8031121021183285e+01 8.2776843093538304e+00 
4297 4298 2 1.0279999998005551e+00 4.5025113167482696e+03 1.0000000000000000e+00 2.5489857198739738e+01 1.9230229077411074e+01 8.8260555670872627e+00 
3627 3628 2 1.0279999998138762e+00 -2.9130697527279824e+02 1.0000000000000000e+00 2.6340260439772067e+01 1.9340053609601842e+01 8.6834744061883740e+00 
1315 1316 2 1.0279999999763840e+00 -9.8396697294807723e+02 1.0000000000000000e+00 2.8104338573247112e+01 1.8135388033720847e+01 9.1758754873334496e+00 
2654 2655 2 1.0279999998030167e+00 -2.1628873112980918e+03 1.0000000000000000e+00 2.6572860168154570e+01 1.9747493357882988e+01 9.0115862701297065e+00 
3282 3283 2 1.0279999996999283e+00 2.3395314624798135e+02 1.0000000000000000e+00 2.8331353147758705e+01 1.9923482585672925e+01 8.8501729400584725e+00 
2362 2363 2 1.0280000000065830e+00 -1.7249573268641298e+03 1.0000000000000000e+00 2.9585622677316007e+01 1.9326381264349958e+01 7.9536509150378993e+00 
3625 3626 2 1.0280000001776084e+00 -9.9735648037848478e+02 1.0000000000000000e+00 2.8660997303427671e+01 1.7595982010055735e+01 9.5213807349865967e+00 
2403 2404 2 1.0280000001983893e+00 -4.9629594933733251e+03 1.0000000000000000e+00 2.9410068488782549e+01 1.9362800816972761e+01 9.7912397506815214e+00 
4266 4267 2 1.0279999999035188e+00 6.5856097308949427e+02 1.0000000000000000e+00 3.1283197220814692e+01 1.9429449139012522e+01 8.6817780378320215e+00 
3956 3957 2 1.0279999998217189e+00 -8.0297520102910175e+02 1.0000000000000000e+00 3.2482648764302866e+01 1.9562651999666770e+01 9.5219783800767566e+00 
1480 1481 2 1.0280000002292777e+00 -2.7306758423380224e+03 1.0000000000000000e+00 1.1692687806922670e+01 4.5594286909417345e+00 1.1687044113441258e+01 
622 623 2 1.0279999997484961e+00 2.2207520667810973e+03 1.0000000000000000e+00 9.3789248497216064e+00 7.4333296118206436e+00 1.0064969173286942e+01 
3766 3767 2 1.0280000003011920e+00 2.9268502930442096e+03 1.0000000000000000e+00 8.4656010365231520e+00 6.8897734707422540e+00 1.2345146888792252e+01 
2848 2849 2 1.0279999999658322e+00 4.0504625467978667e+03 1.0000000000000000e+00 1.0747372987689463e+01 5.2853572754373239e+00 1.1127041346671449e+01 
3355 3356 2 1.0279999990356881e+00 -4.3248674692430250e+03 1.0000000000000000e+00 1.0136754263114863e+01 7.1001311680963779e+00 1.0329515956306015e+01 
2802 2803 2 1.0279999995433406e+00 -3.4608028031235071e+03 1.0000000000000000e+00 1.0529136885815863e+01 5.7340400320900820e+00 1.2293132814851630e+01 
1503 1504 2 1.0279999997791986e+00 -2.7287316329350733e+03 1.0000000000000000e+00 1.1131588372415962e+01 5.7171313542198261e+00 1.0724490924742923e+01 
2823 2824 2 1.0280000000827392e+00 4.0478372083319227e+03 1.0000000000000000e+00 1.2327866041904830e+01 5.0013559931913010e+00 1.1723955302379954e+01 
2785 2786 2 1.0279999999459266e+00 -3.4625619279457778e+03 1.0000000000000000e+00 1.2418292447257919e+01 5.2692150746451336e+00 1.2072154049196383e+01 
3753 3754 2 1.0280000003585577e+00 2.9266419248394113e+03 1.0000000000000000e+00 1.5872049201683774e+01 6.8517112234753386e+00 1.1727473604227056e+01 
1897 1898 2 1.0279999999781366e+00 3.9631941350710031e+02 1.0000000000000000e+00 1.5955859238302272e+01 6.3402364399908029e+00 1.2143850601131204e+01 
4131 4132 2 1.0280000001335448e+00 6.5021899521373075e+02 1.0000000000000000e+00 1.5964084821101414e+01 6.6693034182800730e+00 1.1834340421259276e+01 
3856 3857 2 1.0280000006173777e+00 2.2206816008738074e+03 1.0000000000000000e+00 9.3762886175394122e+00 9.6070634261827355e+00 1.0072192706008794e+01 
1293 1294 2 1.0279999999576852e+00 -6.4539731996316750e+03 1.0000000000000000e+00 8.8654648312263316e+00 8.0827142955420594e+00 1.0587732079777656e+01 