LAMMPS data file via write_data, version 30 Jul 2016, timestep = 50400000

384 atoms
2 atom types

0.0000000000000000e+00 2.0000000000000000e+01 xlo xhi
0.0000000000000000e+00 2.0000000000000000e+01 ylo yhi
0.0000000000000000e+00 2.0000000000000000e+01 zlo zhi

Masses

1 3.89
2 6.28

Atoms # meso-molecular

116 1 2 1.4999999999999598e+00 3.6220886578573070e+00 1.0000000000000000e+00 4.4042355689071805e-01 9.4154960809973876e+00 1.5885233233757399e+00 
152 1 2 1.4999999999999958e+00 2.7998979524678106e+01 1.0000000000000000e+00 1.0479132681692084e-01 9.0884820961385540e+00 1.4761299209233387e+00 
295 1 2 1.4999999999999936e+00 -1.1227457059516291e+02 1.0000000000000000e+00 1.3790103967008921e-01 9.0599752302941656e+00 1.4495444932587769e+00 
233 1 2 1.4999999999998637e+00 -2.8923233356918267e+01 1.0000000000000000e+00 3.0149946495381048e+00 7.7825123987293621e+00 2.1430409318490873e+00 
286 1 2 1.4999999999999902e+00 4.5769651860726384e+01 1.0000000000000000e+00 9.6333390714632716e-01 7.5753387648953803e+00 2.7822252401234571e+00 
82 1 2 1.4999999999999889e+00 -8.5078231138422467e+01 1.0000000000000000e+00 9.2674398632958588e-01 7.5632550980623661e+00 2.8094650273793760e+00 
69 1 2 1.4999999999999862e+00 -2.6606590676664545e+01 1.0000000000000000e+00 1.6303896418860588e+00 7.2400351347540735e+00 2.8142564513131947e+00 
88 1 2 1.5000000000000184e+00 1.1018183274295592e+02 1.0000000000000000e+00 1.8782081116376692e+00 7.1336119411962606e+00 2.8564810284136035e+00 
218 1 2 1.5000000000000213e+00 -4.6962367557838292e+01 1.0000000000000000e+00 2.3468306897841642e+00 7.0724495879717235e+00 2.8498581651854442e+00 
185 1 2 1.5000000000000207e+00 -1.8141477525025373e+00 1.0000000000000000e+00 1.8380611401586302e+00 6.9893970274995363e+00 3.0409567191053992e+00 
275 1 2 1.4999999999999774e+00 1.1435963101651555e+02 1.0000000000000000e+00 5.5212775419120130e-01 7.3870278571479631e+00 3.1561440750621417e+00 
346 1 2 1.5000000000000191e+00 -1.9581981468749251e+02 1.0000000000000000e+00 4.2913613758650317e+00 7.5341900501860719e+00 2.1231725637024339e+00 
289 1 2 1.4999999999999603e+00 1.6583924413523308e+00 1.0000000000000000e+00 4.2418027154199605e+00 9.6163928566277423e+00 2.6794519358295166e-01 
95 1 2 1.5000000000000457e+00 6.5478489937907952e+01 1.0000000000000000e+00 4.6351409593207595e+00 7.3455097230222739e+00 2.4171987641975949e+00 
341 1 2 1.5000000000000553e+00 1.0204301302078457e+02 1.0000000000000000e+00 3.6657393220803396e+00 7.4414246552782224e+00 2.4546017944125782e+00 
12 1 2 1.5000000000000826e+00 -1.9126401333969717e+01 1.0000000000000000e+00 3.9818474175187908e+00 7.4220241498380179e+00 2.4794254020882058e+00 
66 1 2 1.5000000000000520e+00 1.9131950422704740e+01 1.0000000000000000e+00 3.5323175323648117e+00 7.4306664317698115e+00 2.4743737914910615e+00 
107 1 2 1.5000000000000417e+00 6.2464309457522177e+01 1.0000000000000000e+00 6.3938197138117374e+00 8.6677872114745380e+00 1.1736362463293002e+00 
301 1 2 1.5000000000000033e+00 -2.3578187721326401e+01 1.0000000000000000e+00 6.4840183085629093e+00 7.8128054369027033e+00 1.6132560300517629e+00 
55 1 2 1.4999999999999178e+00 -9.2829980463888091e+01 1.0000000000000000e+00 3.8331019746577004e+00 7.5098437746737066e+00 2.7611955470924405e+00 
62 1 2 1.4999999999999498e+00 -9.3146064423730792e+01 1.0000000000000000e+00 4.3125466258375758e+00 7.4574326628992083e+00 2.7424612910756609e+00 
239 1 2 1.4999999999999500e+00 7.5384391416107860e+01 1.0000000000000000e+00 5.0551917282791399e+00 7.1870922349069346e+00 2.9785707054533450e+00 
210 1 2 1.5000000000000009e+00 2.7593659845088617e+01 1.0000000000000000e+00 6.6573371797742711e+00 8.7092099476442755e+00 9.8422434618310561e-01 
217 1 2 1.4999999999999951e+00 1.2963426088369371e+01 1.0000000000000000e+00 5.1129383308960650e+00 7.2775006419812662e+00 3.1508808639874970e+00 
360 1 2 1.5000000000000193e+00 1.9475173510686412e+02 1.0000000000000000e+00 1.6580136291073866e+00 6.3863256196290035e+00 5.6511297747697409e+00 
321 1 2 1.4999999999999951e+00 -1.1260710858271354e+02 1.0000000000000000e+00 3.0496993332643281e+00 5.8570460344934823e+00 6.3909252417656166e+00 
145 1 2 1.4999999999999845e+00 -1.0227108234620270e+00 1.0000000000000000e+00 1.4628517555948441e+00 6.4804531266038881e+00 5.5560981009512886e+00 
93 1 2 1.4999999999999847e+00 -2.8784000095057332e+00 1.0000000000000000e+00 3.1613085237568210e+00 5.8123222753085226e+00 6.4853484778330479e+00 
169 1 2 1.4999999999999936e+00 -6.1827360269327286e+01 1.0000000000000000e+00 3.1705692962865073e+00 5.8075787413512625e+00 6.4898323761510364e+00 
75 1 2 1.4999999999999813e+00 3.2352539438732926e+01 1.0000000000000000e+00 2.9924554529840033e+00 6.1604270942635342e+00 6.5740753539872623e+00 
232 1 2 1.5000000000000098e+00 -8.2448048163269249e+01 1.0000000000000000e+00 3.0955450621984730e+00 6.0131229445446754e+00 6.6475813440381994e+00 
380 1 2 1.4999999999999787e+00 -1.4082128450013721e+02 1.0000000000000000e+00 3.1762087138942201e+00 5.8787540330776702e+00 6.6486734151300260e+00 
177 1 2 1.5000000000000131e+00 -1.1184926044715937e+02 1.0000000000000000e+00 6.5836582823590195e+00 6.3197865082284519e+00 4.7828231142224356e+00 
77 1 2 1.5000000000000207e+00 -3.0883280281778617e+01 1.0000000000000000e+00 6.6165389177560332e+00 6.2920051950575262e+00 4.8387948419040230e+00 
73 1 2 1.5000000000000169e+00 -1.6095927907609905e+01 1.0000000000000000e+00 6.6534784655509140e+00 6.2736249632430372e+00 4.8727185321323505e+00 
144 1 2 1.4999999999999978e+00 1.2492107232719628e+02 1.0000000000000000e+00 3.4078754931403168e+00 5.6861495786030147e+00 6.6469396954590998e+00 
326 1 2 1.5000000000000626e+00 4.0554578422842056e+01 1.0000000000000000e+00 2.4715544854875224e+00 7.0132268778451472e+00 5.8018900814204448e+00 
99 1 2 1.4999999999999936e+00 -8.6367189439720619e+01 1.0000000000000000e+00 1.4669564590318780e+00 7.4270341063239771e+00 5.5176358813183262e+00 
235 1 2 1.5000000000000200e+00 -1.1727543475828639e+02 1.0000000000000000e+00 8.6744340656271357e-01 8.1468854599134737e+00 4.8081567232410114e+00 
87 1 2 1.4999999999999616e+00 -3.7928840712733480e+00 1.0000000000000000e+00 6.1351446906524121e-01 6.7970390393535105e+00 5.1227505552221428e+00 
216 1 2 1.4999999999999611e+00 1.1324884473322867e+00 1.0000000000000000e+00 2.2689324482616607e-01 6.8923702135023355e+00 4.9872613116060940e+00 
261 1 2 1.5000000000000073e+00 -5.6441902593396563e+01 1.0000000000000000e+00 2.4432011396222229e+00 6.7873182030202592e+00 6.0555408958760299e+00 
378 1 2 1.4999999999999558e+00 -5.5240159115408417e+01 1.0000000000000000e+00 8.9738138682485188e-02 6.9172656057351798e+00 4.9509128842588215e+00 
158 1 2 1.5000000000000744e+00 -2.4317376268600889e+01 1.0000000000000000e+00 3.0135827121430259e-03 8.5138185368041306e+00 4.6287274905935316e+00 
136 1 2 1.5000000000000175e+00 -2.4766305766795988e+01 1.0000000000000000e+00 5.3050489369703202e+00 7.2234359190298765e+00 3.3417947489269975e+00 
347 1 2 1.5000000000000007e+00 -3.2281287150985975e+01 1.0000000000000000e+00 5.2876601465063873e+00 5.1425639281892401e+00 6.6946185858192289e+00 
25 1 2 1.5000000000000224e+00 1.3160155088785035e+02 1.0000000000000000e+00 5.2465022420728342e+00 5.1155506094440089e+00 7.8999623600409690e+00 
313 1 2 1.5000000000000180e+00 7.2054406691428852e+01 1.0000000000000000e+00 4.7984071382416262e+00 5.2783508143803495e+00 7.8829443347852832e+00 
180 1 2 1.5000000000000218e+00 7.5808822335003200e+01 1.0000000000000000e+00 3.7048283261692525e+00 5.5239216741758961e+00 6.8043952784433479e+00 
100 1 2 1.4999999999999829e+00 -2.3140701597451120e+01 1.0000000000000000e+00 3.5502975756467858e+00 5.6065277500664257e+00 6.7105999603417450e+00 
296 1 2 1.4999999999999993e+00 -2.4809108749198323e+01 1.0000000000000000e+00 6.2925121897562093e+00 5.6916323048984472e+00 8.5993792985269799e+00 
18 1 2 1.5000000000000073e+00 -7.2757395649348155e+01 1.0000000000000000e+00 6.2980203105075452e+00 5.7181821475438177e+00 8.6072247971860971e+00 
105 1 2 1.5000000000000171e+00 -1.6090464669752205e+01 1.0000000000000000e+00 6.2755421572182284e+00 5.7370857787586420e+00 8.6136962778829353e+00 
32 1 2 1.4999999999999831e+00 -1.5102691129802338e+02 1.0000000000000000e+00 6.3013259369715859e+00 5.7620359802369041e+00 8.6178242168270422e+00 
118 1 2 1.4999999999999860e+00 2.4943807599266647e+00 1.0000000000000000e+00 6.3308006836939246e+00 5.7725418268731996e+00 8.6180427117511940e+00 
110 1 2 1.4999999999999725e+00 1.4257405109644790e+00 1.0000000000000000e+00 6.2886088552394037e+00 5.8106836954299705e+00 8.6261777592574944e+00 
271 1 2 1.4999999999999720e+00 -9.9464842628777347e+01 1.0000000000000000e+00 6.3135213418747949e+00 5.8140570566008112e+00 8.6255668190199284e+00 
45 1 2 1.4999999999999631e+00 -8.8197683419570225e+01 1.0000000000000000e+00 6.2885957739693543e+00 5.8337354785746323e+00 8.6283122107169596e+00 
76 1 2 1.4999999999999696e+00 -1.5933753073746661e+00 1.0000000000000000e+00 6.2552672404938052e+00 5.8856579962086535e+00 8.6297297793984171e+00 
113 1 2 1.5000000000000282e+00 4.2290859316204731e+01 1.0000000000000000e+00 6.1690702649424649e+00 6.0336643235360974e+00 8.6006344922013991e+00 
229 1 2 1.5000000000000144e+00 4.4019497722614844e+01 1.0000000000000000e+00 5.6511910609796630e+00 6.7847204366492102e+00 6.6927781362714915e+00 
269 1 2 1.5000000000000377e+00 -3.9299930836329864e+01 1.0000000000000000e+00 1.4593457646803749e+00 9.9233645693839065e+00 1.9328230682200005e+01 
285 1 2 1.5000000000000122e+00 1.5254648162084496e+02 1.0000000000000000e+00 1.9428088481814034e+00 9.4568248081213948e+00 1.9423624092798626e+01 
11 1 2 1.5000000000000027e+00 -8.0980365592502778e+01 1.0000000000000000e+00 1.7184226810825143e+00 9.3984779270835173e+00 1.9520776486133176e+01 
349 1 2 1.5000000000000442e+00 1.4084991847816974e+02 1.0000000000000000e+00 1.0929523606279103e+00 9.4579883746890445e+00 1.9671998402377284e+01 
23 1 2 1.5000000000000511e+00 -3.1958365892315864e+01 1.0000000000000000e+00 1.0770167598470513e+00 9.3332227448876619e+00 1.9770536619164719e+01 
150 1 2 1.5000000000000049e+00 -5.4757396305339270e+01 1.0000000000000000e+00 3.3052370085857703e+00 9.9663792056402887e+00 1.9169052956625649e+01 
115 1 2 1.5000000000000158e+00 2.4603000420817653e+00 1.0000000000000000e+00 2.9627523229670802e+00 9.1050998801039320e+00 1.9817860063657779e+01 
41 1 2 1.5000000000000064e+00 -7.7334514289644886e+01 1.0000000000000000e+00 3.6442995005791907e+00 9.5718191575715732e+00 1.9586461310660919e+01 
309 1 2 1.5000000000000064e+00 4.6289607819694050e+00 1.0000000000000000e+00 3.8044503032070778e+00 9.6163829475763603e+00 1.9658022291391916e+01 
265 1 2 1.5000000000000040e+00 1.4616424756202659e-02 1.0000000000000000e+00 4.0197695669690852e+00 9.7095286915227828e+00 1.9763735343515055e+01 
256 1 2 1.5000000000000138e+00 7.7046741360023674e+01 1.0000000000000000e+00 1.9578813246035558e+00 1.1854180885508953e+01 1.5548899849866804e-01 
384 1 2 1.4999999999999818e+00 -1.4920415845106322e+02 1.0000000000000000e+00 1.9150515904112475e+00 1.1823875351833989e+01 1.1622174669364761e-01 
122 1 2 1.4999999999999705e+00 6.8388744231997860e+00 1.0000000000000000e+00 2.3927619034470209e+00 1.2153499581887312e+01 1.0187908104115923e-01 
272 1 2 1.4999999999999898e+00 8.2860084812792678e+00 1.0000000000000000e+00 1.2501154507264574e+00 1.1300446689696393e+01 9.0190936917603510e-03 
310 1 2 1.4999999999999898e+00 6.8778664426433792e+01 1.0000000000000000e+00 2.7968200252694269e+00 1.2334510871108725e+01 4.1126563098462288e-01 
366 1 2 1.4999999999999916e+00 -7.7563835159244888e+01 1.0000000000000000e+00 4.8462199272236767e-01 1.0701222824768033e+01 1.0609559233391512e-01 
211 1 2 1.4999999999999889e+00 5.9976002851141715e+01 1.0000000000000000e+00 3.0846832128734132e+00 1.2310991954003185e+01 6.3525212765101446e-01 
193 1 2 1.4999999999999742e+00 4.8398759606559068e+01 1.0000000000000000e+00 6.4815270382871926e-01 1.0498019471035947e+01 1.1685579803759425e+00 
351 1 2 1.4999999999999931e+00 -5.9554404019250022e+01 1.0000000000000000e+00 3.2344551029692394e+00 1.2388188739545487e+01 6.4300269866356619e-01 
315 1 2 1.5000000000000022e+00 -2.6158767050064441e+01 1.0000000000000000e+00 4.1242898612812082e+00 1.2835649872894578e+01 7.6803835577320778e-01 
173 1 2 1.5000000000000131e+00 -1.6219099326936771e+01 1.0000000000000000e+00 4.4997310486545539e+00 1.0197174428008179e+01 2.3929648691150368e-01 
14 1 2 1.5000000000000127e+00 -4.0301693352821360e+01 1.0000000000000000e+00 4.4902409746435001e+00 1.0154194700920900e+01 1.4578479466034980e-01 
51 1 2 1.5000000000000011e+00 -1.5266844940731383e+01 1.0000000000000000e+00 4.4690156977753714e+00 1.0108091519312179e+01 1.3161364996616745e-01 
106 1 2 1.5000000000000107e+00 4.9519467181754990e+01 1.0000000000000000e+00 5.2919669172612185e+00 1.3543703580979495e+01 1.3334239215165822e+00 
255 1 2 1.5000000000000104e+00 1.5368326791366901e+01 1.0000000000000000e+00 5.6538334784349145e+00 1.3595141554112397e+01 1.5435252716123442e+00 
290 1 2 1.5000000000000067e+00 -8.5083002977718024e+01 1.0000000000000000e+00 6.2180939750336099e+00 1.3799116409513427e+01 1.7949071411480220e+00 
117 1 2 1.5000000000000306e+00 -2.4042560419390050e+01 1.0000000000000000e+00 1.6630560998777874e-01 1.2904732268277463e+01 3.9650388813604880e+00 
357 1 2 1.5000000000000313e+00 2.4979475451238208e+01 1.0000000000000000e+00 1.4159190067906169e-01 1.2579386412057337e+01 4.0409434711446153e+00 
124 1 2 1.5000000000000437e+00 9.2071456274868495e+01 1.0000000000000000e+00 1.6148510444525081e-02 1.3364951066492232e+01 5.0283585222688725e+00 
359 1 2 1.5000000000000333e+00 -1.9060001357890093e+02 1.0000000000000000e+00 2.5795784367926222e+00 1.2266916114298201e+01 1.9933902510353089e+01 
236 1 2 1.5000000000000568e+00 6.2013515226793508e+01 1.0000000000000000e+00 3.3497599903733448e+00 1.2577149308683151e+01 1.9566225827585662e+01 
382 1 2 1.4999999999999349e+00 -3.6434894336274766e+01 1.0000000000000000e+00 6.3056973097356206e+00 1.3115179585511845e+01 1.8755823543462917e+01 
245 1 2 1.5000000000000362e+00 2.4915723027652305e+01 1.0000000000000000e+00 3.4984500615120102e+00 1.2807045316791138e+01 1.9726244166541512e+01 
38 1 2 1.5000000000000293e+00 6.0667539447909391e+01 1.0000000000000000e+00 4.3809956107670915e+00 1.0197086185996387e+01 1.9772233358623190e+01 
123 1 2 1.5000000000000173e+00 1.3320883065510213e+02 1.0000000000000000e+00 4.4954591730070330e+00 1.3687793190000210e+01 1.9810014315307985e+01 
156 1 2 1.4999999999999709e+00 9.4439459411729970e+01 1.0000000000000000e+00 5.3943121429538117e+00 1.3713495141257106e+01 1.9184059790565186e+01 
247 1 2 1.4999999999999929e+00 7.4082085764090067e+01 1.0000000000000000e+00 4.9573171780420688e+00 1.3960730762844143e+01 1.9629901449010006e+01 
298 1 2 1.4999999999999869e+00 1.3029368933664401e+02 1.0000000000000000e+00 5.0404258126965331e+00 1.4059175571573446e+01 1.9675497745686101e+01 
230 1 2 1.4999999999999727e+00 -4.7703049005722320e+01 1.0000000000000000e+00 5.4907245684586528e+00 1.4126218643884000e+01 1.9425798386328811e+01 
34 1 2 1.4999999999999873e+00 3.8216966662590693e+01 1.0000000000000000e+00 5.3411320070655961e+00 1.4287124467693065e+01 1.9720845470995332e+01 
278 1 2 1.4999999999999485e+00 1.0379430961650712e+01 1.0000000000000000e+00 6.1410891856730316e+00 1.4432011040337882e+01 1.9529404082241200e+01 
214 1 2 1.4999999999999969e+00 -4.7486466820472089e+01 1.0000000000000000e+00 6.8934017789143818e+00 7.6123980833989471e+00 1.8440552457305128e+00 
308 1 2 1.4999999999999987e+00 -1.2581754993533053e+02 1.0000000000000000e+00 7.5095616763296693e+00 8.3448209999561467e+00 9.3548808712848008e-01 
21 1 2 1.5000000000000020e+00 -1.5380305827692985e+02 1.0000000000000000e+00 7.9276183790760388e+00 8.3623226037723697e+00 9.2353421911107525e-01 
172 1 2 1.5000000000000164e+00 1.3402989692332321e+02 1.0000000000000000e+00 8.5362976902583014e+00 8.3187191068221598e+00 1.2793882371334633e+00 
125 1 2 1.4999999999999947e+00 5.2482188146204173e+01 1.0000000000000000e+00 8.4596861993158221e+00 8.9772279991528805e+00 5.4117501423571379e-01 
284 1 2 1.4999999999999947e+00 -3.6443078527563543e+01 1.0000000000000000e+00 8.4725023508360202e+00 8.5680679537338786e+00 8.6508541420014828e-01 
127 1 2 1.5000000000000018e+00 -2.1039164541832776e+00 1.0000000000000000e+00 8.9628912380628964e+00 8.6735345809768489e+00 1.0706262023358104e+00 
50 1 2 1.4999999999999991e+00 -2.4224654811241422e+01 1.0000000000000000e+00 9.0104844535514257e+00 8.7620347566193271e+00 1.7889214036138992e+00 
196 1 2 1.5000000000000639e+00 -1.2439469587379024e+02 1.0000000000000000e+00 9.4010803434149164e+00 8.9323288559646077e+00 1.6632565304400233e+00 
328 1 2 1.4999999999999625e+00 7.1232090081449329e-01 1.0000000000000000e+00 7.6651316632564663e+00 8.2959563275871808e+00 2.3215025154569746e+00 
181 1 2 1.4999999999999618e+00 5.2729013135693492e+01 1.0000000000000000e+00 7.5804950014452501e+00 7.8280335306503881e+00 2.7405191115230574e+00 
74 1 2 1.5000000000000335e+00 8.1322081257987250e+01 1.0000000000000000e+00 7.3418495542577169e+00 7.2623471947808520e+00 2.7573089991664519e+00 
254 1 2 1.4999999999999341e+00 -4.0421914690438982e+01 1.0000000000000000e+00 7.4771372520651918e+00 7.3112634897649365e+00 3.0642143427808297e+00 
277 1 2 1.5000000000000246e+00 -8.2823485045546441e+00 1.0000000000000000e+00 1.1043662963010069e+01 7.8559839117436860e+00 2.4645939517492303e+00 
179 1 2 1.5000000000000251e+00 1.7010597909952145e+02 1.0000000000000000e+00 1.1608230540334352e+01 9.1858108522147930e+00 1.2321551877177310e+00 
17 1 2 1.5000000000000120e+00 -1.1135340588451211e+02 1.0000000000000000e+00 1.1323558379067956e+01 8.1622797192515435e+00 1.9998549781973511e+00 
147 1 2 1.4999999999999987e+00 4.7432988998655517e+01 1.0000000000000000e+00 1.1571797079122561e+01 7.5381526321171028e+00 2.6182757496477418e+00 
129 1 2 1.5000000000000600e+00 5.3946867214550053e+01 1.0000000000000000e+00 1.2461338815184904e+01 9.3292006990821594e+00 1.3583432970533198e+00 
244 1 2 1.5000000000000215e+00 -1.9639936390491229e+01 1.0000000000000000e+00 1.2341064743427253e+01 7.3421660085579674e+00 2.7482166286436867e+00 
267 1 2 1.5000000000000131e+00 -1.1298219554441246e+01 1.0000000000000000e+00 1.2579075596651712e+01 7.1663620410978455e+00 3.0016778147858565e+00 
322 1 2 1.4999999999999809e+00 -1.0093879313859640e+02 1.0000000000000000e+00 1.2931896456033831e+01 7.1550406181775106e+00 3.1506548359384485e+00 
9 1 2 1.5000000000000642e+00 1.5699524121664146e+01 1.0000000000000000e+00 1.2496614005992113e+01 9.9508801192143430e+00 8.4870077544177358e-01 
142 1 2 1.5000000000000058e+00 1.8195383264062983e+01 1.0000000000000000e+00 7.1169952633689961e+00 6.2252016614262953e+00 5.1022363232652630e+00 
48 1 2 1.5000000000000153e+00 3.9312773388464052e+01 1.0000000000000000e+00 7.1174928843781933e+00 6.2321201435725264e+00 5.0885893910178179e+00 
345 1 2 1.5000000000000075e+00 -9.5971090714595171e+00 1.0000000000000000e+00 7.3823549679267897e+00 6.2851798965677901e+00 5.1953770881379757e+00 
293 1 2 1.4999999999999705e+00 4.0529110693014843e+01 1.0000000000000000e+00 7.4916761991859282e+00 6.3264521729204715e+00 5.2338499604468236e+00 
22 1 2 1.4999999999999705e+00 -1.4040543788141616e+02 1.0000000000000000e+00 7.5152151193258812e+00 6.3374012330399374e+00 5.2415429831384976e+00 
111 1 2 1.4999999999999816e+00 -1.2019846976200583e+01 1.0000000000000000e+00 7.5621398517588245e+00 6.3557746412520855e+00 5.2652710995029093e+00 
249 1 2 1.4999999999999689e+00 -3.0494425546570962e+01 1.0000000000000000e+00 8.1023002392547969e+00 6.4359153446444388e+00 5.7708397636498692e+00 
340 1 2 1.5000000000000082e+00 9.6243148512599561e+01 1.0000000000000000e+00 7.5249343671573499e+00 6.7109414546648409e+00 5.4251768631013331e+00 
231 1 2 1.5000000000000113e+00 -6.3616552201284286e+01 1.0000000000000000e+00 1.0531661709567866e+01 7.7111587468491303e+00 3.4573121285011776e+00 
112 1 2 1.5000000000000207e+00 6.6790781969500202e+01 1.0000000000000000e+00 1.0481031540714119e+01 8.3569105683447180e+00 3.7212195773287799e+00 
279 1 2 1.5000000000000193e+00 -1.2166580519145364e+02 1.0000000000000000e+00 1.1245516459941685e+01 6.8527083729659575e+00 4.3067921896334473e+00 
162 1 2 1.4999999999999813e+00 -2.1816957626422713e+01 1.0000000000000000e+00 1.1027063309445987e+01 9.4058738329155567e+00 3.6410580464650013e+00 
222 1 2 1.5000000000001315e+00 -2.8602001030221391e+00 1.0000000000000000e+00 1.0396879349582896e+01 7.5922599355054992e+00 4.8128271570538637e+00 
323 1 2 1.5000000000000111e+00 -2.2271132591119948e+02 1.0000000000000000e+00 1.2116015276975293e+01 7.7246972338804003e+00 5.2449965604489428e+00 
312 1 2 1.4999999999999962e+00 1.3638172138175594e+02 1.0000000000000000e+00 1.1264267063434485e+01 9.5596341545264032e+00 3.7872966830299259e+00 
64 1 2 1.5000000000000211e+00 1.2548328245791132e+02 1.0000000000000000e+00 1.2696618098750433e+01 7.3933035319658744e+00 4.9038512023125120e+00 
356 1 2 1.5000000000000311e+00 -1.2749603571921142e+00 1.0000000000000000e+00 1.1776029699641350e+01 9.6110573238980717e+00 4.1254187384852781e+00 
63 1 2 1.4999999999999398e+00 2.2797851923053123e+01 1.0000000000000000e+00 1.0889387373685182e+01 6.8727397832678863e+00 5.7799284342103929e+00 
364 1 2 1.5000000000000133e+00 3.6186149156982603e+00 1.0000000000000000e+00 1.0749981607255089e+01 6.8060393646248238e+00 5.8086703018187276e+00 
362 1 2 1.5000000000000124e+00 -8.1915131065995865e+01 1.0000000000000000e+00 1.0789341476458926e+01 6.8311889485342761e+00 5.8588565013659624e+00 
297 1 2 1.4999999999999698e+00 -5.3152793537352409e+01 1.0000000000000000e+00 1.0705699720097192e+01 6.8185210449399030e+00 6.1608197797283477e+00 
381 1 2 1.4999999999999782e+00 -1.1916454795335295e+02 1.0000000000000000e+00 1.0697920961134580e+01 6.8361034539006713e+00 6.2662326808136850e+00 
43 1 2 1.4999999999999785e+00 -2.0260947360868393e+01 1.0000000000000000e+00 9.0144093244939079e+00 6.2825709968547665e+00 7.8637739802973696e+00 
97 1 2 1.4999999999999873e+00 -3.2914610944536584e+01 1.0000000000000000e+00 9.1200658684270692e+00 6.4713367546844278e+00 8.9099015439411779e+00 
139 1 2 1.4999999999999820e+00 -1.4342559011606653e+01 1.0000000000000000e+00 9.1375003642542580e+00 6.5881162036322047e+00 9.2127935021776448e+00 
221 1 2 1.4999999999999669e+00 5.3616742878012190e+01 1.0000000000000000e+00 9.2375120455431290e+00 6.9384885229319648e+00 9.7904518784244363e+00 
281 1 2 1.4999999999999800e+00 -7.6886958986097767e+01 1.0000000000000000e+00 9.2959380758614270e+00 6.9108302650872018e+00 9.7994845548127945e+00 
58 1 2 1.5000000000000882e+00 -3.0169190382937522e+01 1.0000000000000000e+00 1.0299574036866623e+01 7.0132480364272292e+00 8.1147333632694600e+00 
203 1 2 1.4999999999999707e+00 5.6835136260564383e+00 1.0000000000000000e+00 1.0179840164366672e+01 7.1628345173828629e+00 8.9592277676090077e+00 
224 1 2 1.5000000000000810e+00 -3.7546438341181698e+01 1.0000000000000000e+00 1.0325529991181490e+01 6.9769801104739138e+00 7.9800431550747772e+00 
200 1 2 1.4999999999999749e+00 9.1529671510194234e+01 1.0000000000000000e+00 1.0091470035665195e+01 7.3228657217177933e+00 9.4811256414123175e+00 
186 1 2 1.5000000000000258e+00 -1.5900111751432053e+01 1.0000000000000000e+00 1.0394433729976665e+01 6.9076223313162499e+00 7.6359346833940993e+00 
335 1 2 1.5000000000001650e+00 -2.1135418153407579e+02 1.0000000000000000e+00 1.0386148730085619e+01 6.9273937988103658e+00 7.6745494076082839e+00 
373 1 2 1.5000000000000357e+00 -1.5658437728728518e+02 1.0000000000000000e+00 1.0578972156203404e+01 6.8175337697207432e+00 6.7658678846322022e+00 
126 1 2 1.5000000000000007e+00 -1.0432884394929152e+02 1.0000000000000000e+00 1.0521652012897505e+01 6.7099473255202495e+00 6.7347481785706806e+00 
184 1 2 1.4999999999999489e+00 6.2837410479716119e+01 1.0000000000000000e+00 9.4314818040943038e+00 7.4670878713375366e+00 1.0332133134511198e+01 
339 1 2 1.5000000000000626e+00 -4.0491962398053829e+01 1.0000000000000000e+00 9.3607852337894339e+00 8.6454529176696244e+00 1.2189886616926367e+01 
89 1 2 1.5000000000000253e+00 9.9103229477957683e+01 1.0000000000000000e+00 9.6236107428611550e+00 8.6918731025882234e+00 1.1986494006975088e+01 
80 1 2 1.5000000000003406e+00 -7.2744389302482759e+01 1.0000000000000000e+00 9.6850842434205777e+00 7.7814562384696027e+00 1.0950188191701239e+01 
160 1 2 1.5000000000000937e+00 2.5708828726135657e+01 1.0000000000000000e+00 9.7286400676298186e+00 7.9062034372320236e+00 1.1075113631336949e+01 
78 1 2 1.4999999999999054e+00 1.6804390595774072e+02 1.0000000000000000e+00 9.7599885750667479e+00 7.9704758523956611e+00 1.1149376233109667e+01 
306 1 2 1.4999999999998990e+00 2.0464965473281325e+01 1.0000000000000000e+00 9.7635899711862866e+00 7.9808035835620172e+00 1.1161682347052558e+01 
376 1 2 1.5000000000001177e+00 1.0187836913340037e+02 1.0000000000000000e+00 9.8683288363653823e+00 7.6312302836646273e+00 1.0421576478511291e+01 
155 1 2 1.4999999999998102e+00 -6.8232007009996973e+00 1.0000000000000000e+00 9.9349903038142156e+00 7.9843991111619665e+00 1.1307210041269014e+01 
37 1 2 1.5000000000000271e+00 -5.7517580776999495e+01 1.0000000000000000e+00 1.0794004269135858e+01 8.4399551896082414e+00 1.2839430514490186e+01 
24 1 2 1.5000000000000115e+00 -1.7058443910939610e+02 1.0000000000000000e+00 1.0699154925553168e+01 7.9189303812073257e+00 1.3223414072271217e+01 
330 1 2 1.5000000000000093e+00 4.6163703206171085e+01 1.0000000000000000e+00 1.0100537542229469e+01 7.6777798958555055e+00 1.3252924788482954e+01 
138 1 2 1.5000000000000366e+00 8.6379537254907941e+00 1.0000000000000000e+00 9.0848177289219514e+00 9.5904218642991168e+00 1.3625210140657318e+01 
46 1 2 1.5000000000000242e+00 -1.1068156761957047e+02 1.0000000000000000e+00 9.0208833155008623e+00 9.7920304544191570e+00 1.4027500496909228e+01 
176 1 2 1.5000000000000491e+00 1.5132519291258512e+02 1.0000000000000000e+00 9.1009743607620628e+00 9.3699355220893068e+00 1.3336515310021063e+01 
372 1 2 1.5000000000000362e+00 -2.6716926207652229e+01 1.0000000000000000e+00 8.9438180480861149e+00 9.0758708858135648e+00 1.3572298341634207e+01 
10 1 2 1.4999999999999780e+00 -6.9803903735888667e+01 1.0000000000000000e+00 8.9351528075441884e+00 8.8101832449498509e+00 1.3823773625451119e+01 
361 1 2 1.4999999999999638e+00 -2.0783283091263223e+02 1.0000000000000000e+00 9.8928886298024228e+00 8.4343974603567151e+00 1.5523560741580360e+01 
252 1 2 1.5000000000000477e+00 6.8842712346222950e+00 1.0000000000000000e+00 1.0975080568863527e+01 9.8689990296761287e+00 1.6405199018950800e+01 
67 1 2 1.4999999999999800e+00 -6.7274302123999146e+00 1.0000000000000000e+00 1.0965661650662575e+01 8.0026832099175245e+00 1.4269564443707038e+01 
188 1 2 1.4999999999999731e+00 -8.6838309360047901e+01 1.0000000000000000e+00 1.0996294000346744e+01 8.0372329984444466e+00 1.4023630039015542e+01 
151 1 2 1.4999999999999702e+00 -5.2295320184605139e+01 1.0000000000000000e+00 1.0995883046099241e+01 8.3293630301365464e+00 1.5286841957664919e+01 
304 1 2 1.4999999999999702e+00 -5.6236085498615282e+01 1.0000000000000000e+00 1.1065211797772070e+01 8.5638298064953915e+00 1.5528883510423167e+01 
342 1 2 1.4999999999999736e+00 -8.1963446311720645e+01 1.0000000000000000e+00 1.1186145862461073e+01 8.2392570618895533e+00 1.4291850589892881e+01 
154 1 2 1.4999999999999636e+00 6.6018358656055440e+00 1.0000000000000000e+00 1.1120535280011408e+01 8.4481379532282386e+00 1.5306552549055001e+01 
92 1 2 1.4999999999999638e+00 4.1782660135837240e+01 1.0000000000000000e+00 1.1204823421437366e+01 8.4187005257704008e+00 1.5093669115366774e+01 
1 1 2 1.4999999999999465e+00 5.6415375360577258e+01 1.0000000000000000e+00 1.1353925604000469e+01 8.8149812124588607e+00 1.5312208647317524e+01 
5 1 2 1.4999999999999973e+00 -8.3520408207299113e+01 1.0000000000000000e+00 7.0873847791576825e+00 1.1642295527776062e+01 6.0506268913161321e-01 
324 1 2 1.4999999999999789e+00 -8.2534401265539771e+01 1.0000000000000000e+00 8.4181105596681949e+00 1.0641733410379345e+01 4.0719921218568253e-05 
243 1 2 1.5000000000000477e+00 -2.7949028611324515e+01 1.0000000000000000e+00 1.1572624837081637e+01 1.0222304657532346e+01 7.3759876441505712e-01 
307 1 2 1.5000000000000269e+00 1.6942675284019273e+01 1.0000000000000000e+00 1.1537059528401901e+01 1.0206925774040119e+01 7.8160128359695102e-01 
61 1 2 1.4999999999999949e+00 -5.3486350121992331e+01 1.0000000000000000e+00 1.1649862988047602e+01 1.0456682436069810e+01 2.3804386391885898e-01 
283 1 2 1.5000000000000135e+00 -2.1114246071938787e+00 1.0000000000000000e+00 1.2406923861173246e+01 1.0150645257926051e+01 3.7469798426334577e-01 
352 1 2 1.4999999999999900e+00 9.5910893332234963e+01 1.0000000000000000e+00 1.1496780625760833e+01 1.0628519789742034e+01 6.1237860228084813e-02 
375 1 2 1.4999999999999929e+00 -6.2751033531029393e+01 1.0000000000000000e+00 1.1492942537564479e+01 1.0635410712769470e+01 8.4957098573497924e-03 
149 1 2 1.4999999999999831e+00 2.9211611635827268e+01 1.0000000000000000e+00 1.2952740911824348e+01 1.0185163341601349e+01 1.7196631143882660e-02 
175 1 2 1.5000000000000000e+00 9.0185132399798519e+01 1.0000000000000000e+00 7.2711798356665769e+00 1.3984813768095025e+01 1.8084890719495523e+00 
195 1 2 1.5000000000000004e+00 -2.2254987885153490e+01 1.0000000000000000e+00 7.1825753797334668e+00 1.3997142523600951e+01 1.8356030385340329e+00 
226 1 2 1.5000000000000051e+00 2.5314799180600790e+01 1.0000000000000000e+00 7.8018148491049022e+00 1.3926569277496590e+01 1.4081532486875625e+00 
8 1 2 1.5000000000000053e+00 -1.2453860076622294e+02 1.0000000000000000e+00 7.7985334193375087e+00 1.3926920592321908e+01 1.4128747168829587e+00 
379 1 2 1.5000000000000053e+00 -1.7096028378499204e+02 1.0000000000000000e+00 7.8271285934257371e+00 1.3923384021765052e+01 1.3699647773826711e+00 
2 1 2 1.5000000000000007e+00 9.1851255037626473e+01 1.0000000000000000e+00 7.4405097254449659e+00 1.3985392778169816e+01 1.7278289990226980e+00 