LAMMPS data file via write_data, version 30 Jul 2016, timestep = 50000000

128 atoms
2 atom types

0.0000000000000000e+00 2.0000000000000000e+01 xlo xhi
0.0000000000000000e+00 2.0000000000000000e+01 ylo yhi
0.0000000000000000e+00 2.0000000000000000e+01 zlo zhi

Masses

1 3.896
2 5

Atoms # meso-molecular

22 1 1 3.1083460829833076e-01 1.0270017133941260e+05 1.0000000000000000e+00 2.8486147072044594e+00 8.4058419670345366e+00 6.0723241071106748e-01 
62 1 1 3.6623135920362815e-01 4.7720650899536004e+03 1.0000000000000000e+00 5.1352994336609390e+00 8.8985433238439171e+00 2.4730637204263886e+00 
64 1 1 3.1083543850267659e-01 -7.9631026787640541e+04 1.0000000000000000e+00 2.1324684898419668e+00 3.7556028685652856e+00 5.0774442599951373e+00 
80 1 1 3.1106862709803362e-01 -5.8861680013964055e+04 1.0000000000000000e+00 1.3731435012638802e+00 2.5790499225841512e+00 7.6419155288316931e+00 
16 1 1 3.1084120890640538e-01 -1.1281477494380047e+05 1.0000000000000000e+00 4.5125346393613688e+00 2.5895812589424461e+00 7.9936503958398077e+00 
37 1 1 3.1084120890640538e-01 3.7285588258104457e+04 1.0000000000000000e+00 6.3073280925667774e+00 5.2286397984758715e+00 6.4565274501097392e+00 
120 1 1 4.1135339250578895e-01 -6.8846160043042022e+04 1.0000000000000000e+00 6.5321746393439284e+00 6.8206573826360444e+00 1.1592771641850717e+01 
33 1 1 3.1084120890640538e-01 8.9224960127443512e+04 1.0000000000000000e+00 5.8039605672950723e+00 9.9286782069303339e+00 1.0257999888253146e+01 
40 1 1 4.1135339250578895e-01 -5.8480716261951120e+03 1.0000000000000000e+00 6.4016327723364013e+00 6.1842884851168467e+00 1.2931275608489546e+01 
86 1 1 3.7766639634237292e-01 -3.0803964012704168e+03 1.0000000000000000e+00 1.0637730043681859e+00 8.8113158767631070e+00 1.3294647993825594e+01 
52 1 1 3.1084120890640538e-01 5.5491210339525904e+04 1.0000000000000000e+00 5.6223656068845900e+00 2.0941788435787450e+00 1.4367936476322647e+01 
88 1 1 5.0216301287139598e-01 9.3244602786675707e+04 1.0000000000000000e+00 3.2579472384463108e+00 7.5848519248201294e+00 1.4106830700673703e+01 
97 1 1 5.5342220960986266e-01 -9.5981059638124338e+04 1.0000000000000000e+00 4.0268511283519430e+00 7.0656286995351349e+00 1.5917484116005319e+01 
118 1 1 5.7081146268595495e-01 7.9449170334715687e+04 1.0000000000000000e+00 3.0958012038309328e+00 6.0798302218843094e+00 1.4975286524826867e+01 
18 1 1 5.7663923401654105e-01 -1.2560032420315139e+05 1.0000000000000000e+00 4.4513496253745419e+00 6.0816183479621531e+00 1.5212627035743136e+01 
110 1 1 4.2338641755537781e-01 1.3861186121451526e+05 1.0000000000000000e+00 2.4286459018977831e+00 8.5566441950875713e+00 1.5031579117350240e+01 
50 1 1 4.0294972216949193e-01 -4.8616415428229273e+04 1.0000000000000000e+00 9.8801495812083884e-01 2.0037626806263651e+00 1.9947196982320584e+01 
89 1 1 4.0388792677158536e-01 -1.1077721376836373e+05 1.0000000000000000e+00 2.3205515869044199e-01 3.2550865672204825e+00 1.9572789715036727e+01 
122 1 1 3.1084120890640538e-01 -3.6602042110140930e+04 1.0000000000000000e+00 4.5055961478839173e+00 4.9982331030075375e+00 1.8851175877581355e+01 
74 1 1 4.0302773684086346e-01 3.6426323168243216e+04 1.0000000000000000e+00 6.2306168875203349e+00 7.4403027119934775e+00 1.8162825809779360e+01 
128 1 1 4.0302092921422983e-01 -3.3082528394485387e+04 1.0000000000000000e+00 5.0023123107853760e+00 8.2226258353982935e+00 1.8590533114906027e+01 
13 1 1 3.7520529768115146e-01 -7.3380181149948830e+03 1.0000000000000000e+00 4.7942073637651870e+00 1.0509890361543079e+01 1.8043865510526718e+00 
124 1 1 3.1989296678413759e-01 6.1400757574067036e+04 1.0000000000000000e+00 3.2942892338270924e+00 1.6635626262895887e+01 4.6430207924560291e-01 
79 1 1 3.8748155686009089e-01 -3.7732339380570571e+04 1.0000000000000000e+00 3.8633828754832549e+00 1.1417915477417401e+01 3.7738750481438124e+00 
61 1 1 5.1698226363682143e-01 5.9980900872127881e+04 1.0000000000000000e+00 6.3853013898423754e+00 1.1241233043455432e+01 3.5673925454933757e+00 
109 1 1 3.4584575832314285e-01 1.2734571026551019e+05 1.0000000000000000e+00 5.8908585279301855e+00 1.6893623445146471e+01 3.4353125591412139e+00 
10 1 1 3.9706435968329318e-01 -7.2406012414710058e+03 1.0000000000000000e+00 4.7749598721604576e+00 1.0312916047067908e+01 4.6435282111716782e+00 
53 1 1 3.8438763869329490e-01 4.2024930148637060e+04 1.0000000000000000e+00 4.2323718963929009e+00 1.6087994293944593e+01 4.0468354446447226e+00 
102 1 1 3.4939737398834747e-01 5.2396479290361232e+04 1.0000000000000000e+00 4.5551659597859899e+00 1.6056742567373927e+01 5.9207614778815536e+00 
56 1 1 3.3636001591045739e-01 1.1893864748437495e+05 1.0000000000000000e+00 1.9004822705054982e+00 1.1245388099170619e+01 6.1496981706744975e+00 
47 1 1 3.4624846755001648e-01 1.0889238245434192e+05 1.0000000000000000e+00 1.7950975904555644e-01 1.1150384865936461e+01 7.2925936582457016e+00 
83 1 1 3.1087167838007107e-01 -1.6953456318551785e+03 1.0000000000000000e+00 3.4119244885923061e+00 1.8671452227144417e+01 6.4207628931951595e+00 
91 1 1 3.3542987738890978e-01 -2.2256577085066670e+04 1.0000000000000000e+00 1.4012329349500957e-01 1.2515813097067339e+01 9.1040916633715163e+00 
57 1 1 3.1919932336086848e-01 4.7592926886665227e+04 1.0000000000000000e+00 5.3101785555973513e-01 1.9608884265104916e+01 9.2317285437662910e+00 
106 1 1 3.5018285574046504e-01 4.0745853091903780e+04 1.0000000000000000e+00 2.5708080695600666e+00 1.3823029661797865e+01 1.1827439789499792e+01 
65 1 1 4.3100793152531408e-01 -1.3404682936951074e+04 1.0000000000000000e+00 9.5483315091885868e-01 1.4499845865857395e+01 1.1099912417974259e+01 
60 1 1 3.3912201363023808e-01 -2.0482490344327722e+04 1.0000000000000000e+00 2.6794439867067812e+00 1.6201636287711260e+01 1.0872027481153710e+01 
85 1 1 4.9377674717112430e-01 -7.4878511256193946e+04 1.0000000000000000e+00 4.9518972849244509e+00 1.6247061352075896e+01 1.1261758103018987e+01 
92 1 1 5.0075983959130643e-01 -5.6029480900355004e+04 1.0000000000000000e+00 4.4999400325067134e+00 1.7260716056325002e+01 1.1326119668653048e+01 
59 1 1 5.7914445677523352e-01 5.0140964498549831e+04 1.0000000000000000e+00 4.9035884971921462e-02 1.0185602400415876e+01 1.2748973511045403e+01 
45 1 1 3.1366159835390972e-01 4.0378400788934036e+04 1.0000000000000000e+00 2.9354729773604009e+00 1.0910720768304037e+01 1.5543895368736658e+01 
24 1 1 3.1084175063263270e-01 -1.2331144943418523e+04 1.0000000000000000e+00 4.9968167381826722e+00 1.6956754231460028e+01 1.4247965317378700e+01 
93 1 1 3.1179828204643839e-01 1.9043191503204733e+04 1.0000000000000000e+00 6.5495499804204522e+00 1.1298405986883935e+01 1.6184308147215503e+01 
46 1 1 4.9854780931142684e-01 -1.8648286065763521e+04 1.0000000000000000e+00 5.3211779827335279e+00 1.3123362141640278e+01 1.7653203065047059e+01 
75 1 1 3.4080272479312368e-01 -1.2804388917220135e+03 1.0000000000000000e+00 1.6765644643144630e+00 1.4691182138800865e+01 1.6740597588508482e+01 
31 1 1 3.1460091231983733e-01 5.6812624734381199e+04 1.0000000000000000e+00 6.9243619110345345e-01 1.6858230541313453e+01 1.7485405601631651e+01 
101 1 1 4.9759073617139382e-01 4.9015216346975110e+04 1.0000000000000000e+00 5.7066304698977408e+00 1.3187804553038051e+01 1.8575330620854803e+01 
84 1 1 3.5659330964697650e-01 -9.8210944478303019e+04 1.0000000000000000e+00 5.0453256970395255e-01 1.4411927898921059e+01 1.8361789528830688e+01 
67 1 1 3.3491256312546330e-01 -1.3776300714354342e+05 1.0000000000000000e+00 2.2623919731962228e+00 1.4775393416079957e+01 1.9551675679237562e+01 
114 1 1 3.1084120890640538e-01 -6.1301777260770075e+04 1.0000000000000000e+00 1.2620453528979009e+01 4.4525406144082487e+00 1.2095004681001640e+00 
41 1 1 4.0950052722887353e-01 -1.1005874929657086e+03 1.0000000000000000e+00 8.6073276448300646e+00 7.1301068548687283e+00 1.3068455076506384e+00 
44 1 1 3.7462259105467260e-01 -5.0139806907967191e+04 1.0000000000000000e+00 8.2463151471708382e+00 5.8133471809770327e+00 2.3603136258555750e+00 
8 1 1 3.6124213999799404e-01 4.0530923157633057e+04 1.0000000000000000e+00 9.6378072521224656e+00 7.5610894229098209e+00 2.8427537212535379e+00 
94 1 1 3.6001282553250941e-01 6.4780478872648768e+04 1.0000000000000000e+00 7.8577871842879459e+00 4.1398881764554635e-01 4.0288566874444030e+00 
34 1 1 3.4835743743380537e-01 5.2328272379762429e+03 1.0000000000000000e+00 8.6003784015556057e+00 9.6542160027050166e+00 4.8177383645462619e+00 
49 1 1 3.1186157060470848e-01 -1.5800192094508058e+05 1.0000000000000000e+00 1.2189437840620382e+01 8.7843194375323392e+00 6.8267223730848681e+00 
32 1 1 3.1084120890640538e-01 1.1699707489845372e+04 1.0000000000000000e+00 7.1019431610063197e+00 2.8427905264748698e-01 9.8927466400826045e+00 
73 1 1 3.1084271528426016e-01 -3.0423883288404664e+04 1.0000000000000000e+00 1.0304915375945798e+01 7.4613141909413683e-01 1.0554718086336354e+01 
51 1 1 3.1084120890640538e-01 7.4320613903961668e+04 1.0000000000000000e+00 1.0292909234363007e+01 4.0087657795402416e+00 1.2232503531731858e+01 
9 1 1 3.2356502377118307e-01 2.7878137280820942e+04 1.0000000000000000e+00 1.1971527686793676e+01 3.1721285788739619e+00 1.5270572735534465e+01 
100 1 1 3.2308904459802745e-01 2.6031445487789100e+04 1.0000000000000000e+00 1.1374964833876723e+01 1.5633609940929238e+00 1.6677604558039732e+01 
107 1 1 3.1129802026062220e-01 -1.1378255998171591e+05 1.0000000000000000e+00 1.2202998257600028e+01 5.0630737486610169e+00 1.7227710908660452e+01 
78 1 1 3.1083933638584654e-01 -9.9800948881093762e+04 1.0000000000000000e+00 8.4402040019199429e+00 6.0105395002069573e+00 1.6164782027705446e+01 
81 1 1 3.1083933638584654e-01 -2.2221874360715432e+04 1.0000000000000000e+00 9.1319170374869820e+00 8.3358577345947307e+00 1.7837638674335377e+01 
6 1 1 4.6895339789255031e-01 1.5261875551068864e+04 1.0000000000000000e+00 9.9457443300618440e+00 1.2219045859338781e+01 1.2740179713518256e+00 
82 1 1 3.1084057065047882e-01 -1.4544330657071903e+05 1.0000000000000000e+00 7.8252511487119110e+00 1.4670530240332967e+01 1.0315415861041191e+00 
36 1 1 3.7043098113595363e-01 -1.7217460284138044e+04 1.0000000000000000e+00 1.1437966520156133e+01 1.6529448112957521e+01 2.9864132245969233e-01 
72 1 1 4.5848094891638985e-01 -1.2604281632458433e+05 1.0000000000000000e+00 7.7970735499047290e+00 1.1999877327581286e+01 2.3884279345468546e+00 
27 1 1 5.6803874928223785e-01 9.3664815840097639e+04 1.0000000000000000e+00 9.2404859480754258e+00 1.2053336854516401e+01 2.2404196100842828e+00 
63 1 1 3.1084120890640538e-01 -5.0942004416171563e+04 1.0000000000000000e+00 9.8115574548916378e+00 1.7102802906133363e+01 3.7408551251818336e+00 
90 1 1 3.1084120890640538e-01 -1.0476985186256198e+05 1.0000000000000000e+00 1.3285452950614340e+01 1.9189753988037335e+01 2.4624260634436905e+00 
87 1 1 5.3888283850868401e-01 4.4575102315751603e+04 1.0000000000000000e+00 7.2523279987189122e+00 1.0989220266418345e+01 4.4203239823758036e+00 
58 1 1 3.4140106351921362e-01 1.9149717761212258e+04 1.0000000000000000e+00 7.3464159882201807e+00 1.2224655870208885e+01 5.9936463606937966e+00 
4 1 1 3.1083862713093741e-01 3.0213720528803620e+04 1.0000000000000000e+00 9.9330330037593111e+00 1.3892872961895298e+01 4.6686796645429487e+00 
1 1 1 3.6001282553250946e-01 7.4426421466736399e+04 1.0000000000000000e+00 7.6643451827441380e+00 1.9200857732467419e+01 5.3460620011531272e+00 
55 1 1 3.1346205312364189e-01 1.9152762591360373e+04 1.0000000000000000e+00 8.9375289424721949e+00 1.1971308758687025e+01 7.9620960689448044e+00 
126 1 1 3.1083862713093741e-01 -1.2612331440173284e+04 1.0000000000000000e+00 1.2403744576626396e+01 1.3035842459499550e+01 6.0965737104752131e+00 
11 1 1 3.1084120890640538e-01 -1.5754610269167541e+04 1.0000000000000000e+00 1.0974347981325758e+01 1.0087699847840819e+01 1.1153196922692345e+01 
17 1 1 3.1084271528426016e-01 3.0000373841723733e+04 1.0000000000000000e+00 1.1830926525471353e+01 1.8187142306260366e+01 1.0434947518301286e+01 
112 1 1 3.1783100627860866e-01 -8.0345022154388367e+04 1.0000000000000000e+00 1.1901653406377495e+01 1.3139921277096335e+01 1.4171893215257885e+01 
111 1 1 3.1644871881889247e-01 5.1209738643997705e+04 1.0000000000000000e+00 1.3122914917930457e+01 1.5151850308368404e+01 1.6382151751574479e+01 
125 1 1 3.7043018800999078e-01 -1.3299082868725936e+04 1.0000000000000000e+00 9.8944377312262706e+00 1.6054274864269100e+01 1.9566571353748060e+01 
127 1 1 3.1084120890640538e-01 1.1237074714783488e+04 1.0000000000000000e+00 1.0111925816374855e+01 1.9451211013245612e+01 1.9626189371921985e+01 
2 1 1 3.1084120890640538e-01 -8.9039361204498535e+04 1.0000000000000000e+00 1.6066892206029053e+01 3.8651800572963524e-01 2.8164029436307186e-01 
30 1 1 3.3464501521101953e-01 -3.5216173634254767e+04 1.0000000000000000e+00 1.8319185254690293e+01 1.9606053268870502e+00 1.7509514244603146e+00 
38 1 1 3.3464501521101953e-01 1.2192839941800239e+04 1.0000000000000000e+00 1.8644188793732472e+01 2.7465165919323771e+00 3.6956826334828601e+00 
66 1 1 5.9978557737321136e-01 -1.0332577190955760e+05 1.0000000000000000e+00 1.7391564415503463e+01 5.8310690972482790e+00 4.2165596985346685e+00 
15 1 1 5.9978557737321136e-01 2.4147850632735801e+04 1.0000000000000000e+00 1.7126698369951804e+01 5.5152612910456877e+00 4.1225842362175600e+00 
42 1 1 3.1573287011531032e-01 -9.5565881304825216e+03 1.0000000000000000e+00 1.4923214191169833e+01 3.2547673750741524e-01 7.4546390782862471e+00 
39 1 1 5.2491891916313738e-01 7.0486562517397600e+04 1.0000000000000000e+00 1.8865763952927473e+01 3.8562922929052945e-01 7.2267652398768316e+00 
104 1 1 3.1084120890640538e-01 1.3822255507170135e+05 1.0000000000000000e+00 1.7804243004466581e+01 6.5042787601103580e+00 7.4102827141772067e+00 
68 1 1 3.1186157060470848e-01 -4.2431540891667515e+04 1.0000000000000000e+00 1.4659822726389569e+01 8.8572795901909416e+00 7.7356046623874750e+00 
3 1 1 5.9781238902083189e-01 -7.1618884772514837e+04 1.0000000000000000e+00 1.8284536404048119e+01 6.8986152265774559e-01 8.0540257018558670e+00 
103 1 1 3.1573287011531032e-01 4.8782380425604992e+04 1.0000000000000000e+00 1.4850062825458357e+01 2.0667609926621484e+00 9.1460142102000415e+00 
28 1 1 3.7666409240940696e-01 1.1121785267262133e+05 1.0000000000000000e+00 1.9161008302618590e+01 3.6987471273256229e+00 8.5649113719142278e+00 
26 1 1 5.0036030021391709e-01 -2.9022139014952925e+04 1.0000000000000000e+00 1.8767353094652883e+01 2.0750937446776456e+00 8.4608524310107374e+00 
20 1 1 3.2836731529719754e-01 -7.1491870411214666e+04 1.0000000000000000e+00 1.5791749396790106e+01 5.5189944548596239e+00 1.1949500779620541e+01 
7 1 1 5.0848607124821188e-01 -7.5184802699486434e+04 1.0000000000000000e+00 1.6280092296687350e+01 7.6662886602548390e+00 1.1602112759656316e+01 
54 1 1 4.9439226661581576e-01 -1.4181921620472738e+04 1.0000000000000000e+00 1.6335317943739128e+01 8.6539448594618484e+00 1.1231372298149854e+01 
14 1 1 3.1427351066480147e-01 3.1980353210727539e+04 1.0000000000000000e+00 1.5988931155066616e+01 3.1378328406470395e+00 1.2238332048141570e+01 
43 1 1 3.1082319280196868e-01 -9.0495388431218205e+04 1.0000000000000000e+00 1.3812077539424045e+01 8.3715217377380269e-01 1.5302320000673552e+01 
71 1 1 3.1084120890640538e-01 -1.0307840500991215e+05 1.0000000000000000e+00 1.7659892054505839e+01 7.2534218793983571e+00 1.4825042308871023e+01 
117 1 1 3.5096925592537775e-01 3.9743626207344096e+04 1.0000000000000000e+00 1.7415927924769445e+01 3.5642600786200922e+00 1.6325559075486488e+01 
119 1 1 3.5190746052747118e-01 3.0455973778110183e+03 1.0000000000000000e+00 1.8885073966108248e+01 2.9394957787175509e+00 1.7271124299886360e+01 
35 1 1 3.1084120890640538e-01 2.5197731542636677e+04 1.0000000000000000e+00 1.6406634814748678e+01 9.9226790572560386e+00 1.6272148772154537e+01 
29 1 1 3.1084120890640538e-01 6.8812942541083001e+04 1.0000000000000000e+00 1.4942220671319566e+01 7.3582563096828615e+00 1.8668094478163152e+01 
121 1 1 3.1154681346898166e-01 1.8157509455674481e+04 1.0000000000000000e+00 1.4534053893419184e+01 1.0952519349689263e+01 1.6856815151809328e+00 
113 1 1 3.1084120890640538e-01 -1.5066826020737208e+05 1.0000000000000000e+00 1.6902965652152371e+01 1.5148500233569047e+01 2.8969941776446158e+00 
21 1 1 3.2553804242961165e-01 -1.5490916723560416e+04 1.0000000000000000e+00 1.9421277864256741e+01 1.3990905706804710e+01 7.6255031508786653e+00 
12 1 1 3.1084120890640538e-01 6.0168665178899188e+04 1.0000000000000000e+00 1.3854977172696179e+01 1.6164584258613601e+01 6.3527583484417693e+00 
98 1 1 3.1084120890640538e-01 7.6240693395826675e+03 1.0000000000000000e+00 1.6508327704085509e+01 1.6355819102946363e+01 7.7496485409769296e+00 
23 1 1 3.1915003084850491e-01 8.0750075719103450e+04 1.0000000000000000e+00 1.8972473139006667e+01 1.7993092371922582e+01 8.7843917934425715e+00 
115 1 1 3.1084120890640538e-01 9.2074710634614661e+04 1.0000000000000000e+00 1.3943035317593500e+01 1.2081493236904800e+01 1.0897416757702210e+01 
48 1 1 3.1147297174493588e-01 -3.8958444845031096e+04 1.0000000000000000e+00 1.7607623523951784e+01 1.2156786847111064e+01 1.1366079809474320e+01 
95 1 1 3.9030058429944325e-01 4.1679706276660791e+03 1.0000000000000000e+00 1.9400360046082380e+01 1.4191454496165447e+01 1.1514376369486358e+01 
123 1 1 5.2678526411105531e-01 6.0202793468332035e+04 1.0000000000000000e+00 1.9529444719000630e+01 1.0885188983823271e+01 1.2851879854281968e+01 
108 1 1 3.1706682420788002e-01 -1.5395988080923888e+04 1.0000000000000000e+00 1.4137313205703384e+01 1.4083742652019550e+01 1.3721298612381460e+01 
19 1 1 3.1084120890640538e-01 -2.6047884670525928e+04 1.0000000000000000e+00 1.7098361731838658e+01 1.6947042239983748e+01 1.3459523995514493e+01 
25 1 1 3.1422209220923114e-01 -4.0943299134019930e+04 1.0000000000000000e+00 1.3811274153037232e+01 1.2209957362735718e+01 1.5484819292797802e+01 
70 1 1 3.1083125711454102e-01 5.7203052396876185e+04 1.0000000000000000e+00 1.7093349999625666e+01 1.2234837346868957e+01 1.4280099171217886e+01 
76 1 1 4.3716262414293661e-01 1.7103338288830043e+05 1.0000000000000000e+00 1.8961700405437629e+01 1.8107959281787327e+01 1.5642872875158805e+01 
105 1 1 4.3695079211823029e-01 -5.0295254627614784e+04 1.0000000000000000e+00 1.9738821204498862e+01 1.8492607251407275e+01 1.4560997905277411e+01 
5 1 1 3.6663762243688847e-01 9.1799452408092373e+04 1.0000000000000000e+00 1.5879791336615341e+01 1.5949931542362041e+01 1.7710995232976899e+01 
99 1 1 3.1345028931066893e-01 2.5828713957192067e+04 1.0000000000000000e+00 1.8484228203676821e+01 1.4591502477413901e+01 1.6810247102740586e+01 
77 1 1 5.2092942198206571e-01 2.0046865380538551e+04 1.0000000000000000e+00 1.4023181876158338e+01 1.7344203850304709e+01 1.6706476007775237e+01 
69 1 1 5.6253808926888904e-01 -5.0414260915737657e+04 1.0000000000000000e+00 1.4601880193995221e+01 1.7256784061709901e+01 1.7491611343875086e+01 
96 1 1 3.1154681346898166e-01 -2.0589218060306470e+04 1.0000000000000000e+00 1.4250805594642083e+01 1.0868655363175485e+01 1.9124084096461019e+01 
116 1 1 3.1318186807533804e-01 7.7840238184863665e+03 1.0000000000000000e+00 1.7686664352549851e+01 1.7647114434323264e+01 1.8337994215055740e+01 

Velocities

22 -1.7454554613628169e+01 3.6491113880760068e+01 -3.6505417448408656e-01
62 -3.9042920290550960e+01 -3.3665189172539307e+01 -3.6091826340794142e+01
64 3.8089836735087834e+00 5.4503335978720393e+01 -3.1184918617386867e+01
80 1.7572286127280115e+01 1.5979914639064120e+01 -2.2064163691298681e+01
16 -4.7273285797486764e+01 -7.0041146975988198e+01 5.7528278472097114e+01
37 1.0642223356272444e+01 6.4405994306293749e+01 8.2971386016990806e+01
120 -7.0560177855146664e+00 1.9834865797502466e+01 -1.5131576419403521e+01
33 2.6572290739847944e+01 4.0354525533796046e+00 3.0117983262368632e+01
40 6.1231272004657214e+01 3.7146392897578124e+01 -5.5413606097844326e-01
86 4.5567689729780652e+00 -1.5287742540143368e+01 -8.1197034195244640e+01
52 -6.9969020277125953e+00 1.4471882715864883e+01 1.1461641625731860e+00
88 1.5254943729485881e+01 1.8662485843658317e+01 1.1360454754746701e+01
97 -4.3966488087230900e+01 3.4773467505076098e+01 1.5534204953681385e+01
118 -1.6608399669968733e+01 6.9944578401264621e+01 -4.8616304757128582e+01
18 -1.8985421733227387e+01 -4.5057568056856191e+01 4.1682924309358896e+01
110 -4.2471836863012925e+01 -6.3232312947467470e+01 -3.3012735986141029e+00
50 2.1710890444483119e-01 -7.2335987753756413e+01 3.3808914690990079e+01
89 2.6396281706518806e+01 -1.2323244324307202e+01 -6.8859137501564902e+01
122 -1.1342432934400488e+01 -1.8308966235681485e+01 -7.8363566291482428e+01
74 4.0904099072613221e+01 -8.0537918517690329e+01 -3.9503837259734873e+01
128 5.2690826275807474e+01 -1.7499233253810549e+00 -3.2956752859474090e+00
13 -1.6775941342019987e+01 3.7659712352008290e+00 1.4259010747764831e+01
124 -1.8465198082433247e+01 1.5975665465441955e+00 -4.1869070544026323e+00
79 -6.3289837361466503e+00 -6.5568783012401877e+00 -6.4256212129371875e+01
61 6.4871229167719264e+01 7.0366953220779550e+01 4.5937133014019935e+01
109 3.3873519049678563e+01 -1.3633430083245219e+01 -1.4224904134984744e+01
10 2.2984673195334651e+01 -2.0855731906421276e+01 -3.9528507592447610e+01
53 2.8558788770946450e+01 -1.8690918470256143e+01 -1.3210914284975848e+01
102 -1.0266982922174519e+01 1.0852381481278426e+01 1.8805842432552382e+01
56 4.1830951615029344e+00 4.6409336314180784e+01 2.8454919025618510e+00
47 1.8798336128459635e+01 3.1645757362056257e-02 -6.6749684773839050e+01
83 4.4062990783247173e+01 -2.9195555888894771e+00 1.1088322354582564e+01
91 -3.4442413938911372e+01 -3.4394654127517661e+01 -1.6650813255824790e+01
57 4.0413508202659393e+01 -1.4695542500516600e+01 1.4259709587719849e+01
106 3.5645639899236883e+01 3.6655470781098039e+01 2.3432993418301496e+01
65 -4.8931476429165770e+01 -2.9818888655888827e+01 -1.5350218767250615e+01
60 -1.2286300789129907e+01 -1.2903889765661898e+01 5.7871740787927166e+01
85 4.3354273341297485e+01 3.0176944162620053e+01 -2.0422246567486315e+01
92 6.7258359164628686e+01 -2.4652725671146589e+00 5.2752914077741522e+01
59 3.0160839156420302e+01 2.0911527289397782e+01 1.6094605188624063e+00
45 1.8196835779355435e+01 -3.1475272253175536e+01 6.4954111476964176e+00
24 -7.8419773751115670e+01 5.2450373069375658e+01 6.4187723581312568e+01
93 1.4255187188804490e+01 1.2154640620276432e+01 3.2590835852713425e+01
46 -2.1702734205907163e+01 8.3823900110623430e+00 -3.9900408285905861e+01
75 -4.5598013156311730e+01 -1.8720592291835633e+01 -7.8487789092174900e+00
31 -1.4569528267266447e+01 1.8092892222151900e+01 -4.1883607208465477e+01
101 -9.5249178276745567e+00 3.2048035543684826e+01 3.8611039004014920e+01
84 -4.4742565457118047e+01 6.2160410739147132e+00 1.1276967879961790e+01
67 4.5668138852789902e+01 5.8204021380309188e+00 -1.0235547685000730e+01
114 2.4926035400639762e+01 -1.8050574620981428e+00 1.9229165720604918e+01
41 1.1705211598507024e+01 5.2290092140090238e+01 2.6206613794622989e+01
44 -2.8960425856047657e+01 -6.7413939187602551e+01 3.1290814701151707e+01
8 5.6288840870014837e+01 -2.0197579256994548e+01 -4.4786178872184195e+01
94 3.0653004854627877e+01 4.7793392022247305e-02 -2.9320238768724106e+01
34 -2.0146665227600813e+01 5.0364378386155487e+01 -4.1603399299575649e+01
49 4.8734335571913455e+01 6.8703775688558778e+01 2.6158402736724366e+01
32 6.0561876762761386e+01 -8.2329572683394147e+01 -2.4044566691233598e+01
73 -1.1476477693956797e+01 -2.2204286026887708e+01 3.2921992633207033e+01
51 3.7780113331955661e+01 -1.8704629032439819e+01 4.4680573284614795e+01
9 6.4380729376608500e+01 1.9812462033091919e+01 1.2664039732724273e+00
100 4.5125005773175481e+01 3.9694282322976065e+01 5.8301125705791542e+01
107 -8.3275142675470946e+01 -5.3724974259617987e+01 2.9542029646432095e+01
78 -3.4099612241404991e+00 -4.3499128323805884e+01 3.1633519385702438e+00
81 4.4423904824458923e+01 -1.9454587064299417e+01 -2.7800565040820171e+01
6 -1.1264071526929955e+01 -1.1086557666922872e+00 -6.2958710496805708e+00
82 -7.0684115855193539e+01 -3.4130007221994255e+01 6.8010342243495899e+01
36 -2.4076243906727335e+01 2.0828002341499076e+01 -6.7207951856968293e+01
72 -5.9472863234061428e+01 6.1320068617469502e+01 -2.2516166356461845e+01
27 -4.0503888356576594e+00 -5.1384549102206769e+01 -2.5064918658809230e+01
63 8.2229853224658136e+00 -3.6271900599901130e+01 -7.1401816701295061e+01
90 3.6037452448246547e+01 2.4912698378429827e+01 -8.9264092630663640e+01
87 1.8148040061041133e+01 3.9673651603701067e+01 -3.4687025076984085e+01
58 -2.0070925814415688e+01 3.2676054140186579e+01 2.1920029352315087e+01
4 5.9554850106740282e+00 -3.8981439528443667e+00 -3.9816736494753666e+00
1 -4.7628153342757402e+00 -5.3478294134255968e+00 2.7449178608732851e+01
55 -4.8965356191037607e+01 2.1995701525835134e+01 -3.0621842876103020e+01
126 5.8894385726522891e+01 -9.8480784196994833e+01 4.2347539302108842e+01
11 3.1048851484240183e+00 -3.8237401848135804e+01 3.0375142691232661e+01
17 -1.7216297769677055e+01 5.4089784862611900e+01 3.3830788810137435e+01
112 -6.8963522053882160e+00 4.5018029160979701e+01 -1.7302600227526604e+01
111 -9.8229362308189199e+00 3.2629943728087167e+00 -1.3603672591695695e+01
125 -4.2883561177426877e+01 1.7553206326074545e+01 1.3240454945219881e+02
127 -6.2656500635669499e+00 -3.9413579257485523e+01 -5.4956900933512685e+01
2 -1.5757504753154050e+01 -7.1154162994035879e+00 -2.4379618276991792e+01
30 -3.6853700777697462e+01 4.6673684430125725e+01 8.3850411648176234e+01
38 -6.3362504444890575e+01 2.8298938652368772e+01 -3.7957742570714117e+01
66 -2.3731203479335331e+01 -2.0094741050748745e+01 -1.5471218576711280e+01
15 -3.5123893482267036e+01 7.4390124831774624e+00 7.2452529929096741e+01
42 -1.6243676788214913e+01 -3.8463704159458807e+01 1.9047792028772104e+01
39 -4.8557637278407697e+01 8.1740979356657860e+01 3.7701685288625264e+01
104 -7.0244389498885283e+01 2.3759938444962259e+01 -2.9559138650797117e+01
68 3.3422374398322226e+01 2.5643717528216374e+01 1.3496184044781447e+01
3 -1.7098927844843697e+01 2.6828108311009547e+01 1.9045700113502959e+00
103 4.6490726511446475e+01 -2.3300722609393937e+01 -3.4900445309717810e+01
28 -4.2654289257378437e+01 3.3370786379783297e+01 2.8823435463621054e+00
26 -9.0718916047333416e+00 -4.5218822172582883e+01 3.5313512889787816e+01
20 4.5937755098924534e+01 4.8638696657791513e+01 5.2166204489947539e+01
7 -7.0290621674589193e+00 4.4038213309166032e+00 5.1292365002526118e+01
54 8.1467157067454721e+01 -2.3748038492346723e+01 5.5654389389987768e+00
14 2.3605189215384559e+01 -4.0018384417952447e+01 3.4582446537535468e+01
43 -3.3090846573380022e+00 -1.9793179343180960e+01 -6.9200098249201716e+01
71 7.2002932247772890e+01 2.6727242991502806e+00 -2.9250226892742567e+01
117 2.4597334188972089e+00 6.4273896114798362e+01 -9.6068448008677720e+01
119 -5.0293986906549506e+00 -2.3699491439798109e+01 4.0303834052960838e+01
35 -2.2441443275383239e+01 1.7383406489616398e+01 2.3829676252975943e+01
29 5.8750248623875745e+00 1.4279889272982826e+01 -7.4918575250604405e+01
121 -6.4251522592257345e+01 6.2226170593548829e+01 2.0093096998196568e+01
113 -7.6650746256210084e+01 7.5908858298999633e+01 2.9849841059563477e+01
21 -1.2410163982901736e+01 -1.0916054770457677e+01 4.6013669165750265e+01
12 3.7113197510233910e+01 -7.7089919689836123e+01 1.4868158911481644e+00
98 3.9986357426369942e+01 6.4114664182898579e+01 -8.8553294665132540e+00
23 6.5514598630085047e+01 -6.5467203210403852e+01 -9.7658136339394972e+01
115 -8.9358376680529261e+00 -7.3126894745969963e+01 -4.3943918073338111e+01
48 4.6964411075648897e+01 -4.5562188631634342e+01 -2.8277533502694116e+01
95 2.5338510808426260e+01 3.5952643400867863e+01 8.1420048674026077e+01
123 -1.0649510644244071e+02 -4.3532550438921575e+01 1.7276855206824859e+01
108 -8.8495400694336212e+01 2.8371504041557745e+00 2.7105942449674568e+01
19 -4.1350523890455250e+01 -1.4244932852691580e+01 -5.6171949452074855e+01
25 6.2500061552561208e+00 -2.6072710807655657e+01 7.0414488028772269e+00
70 -3.8750196301331314e+01 3.7916164298356811e+01 5.1812358922436175e+01
76 3.6151551093702174e+01 1.2726308420624946e+01 2.2876509490492232e+01
105 -4.5778921532682503e+01 -1.1033763025912904e+01 7.0429233598276795e+01
5 -5.3542602195892055e+00 4.4861788971972629e+00 -2.2127856848975153e+01
99 5.7020700549950355e+01 2.9269079308035773e+00 -2.7127967268605242e+00
77 4.8330116796497585e+01 -3.2535786408892889e+01 2.5079281679861246e+01
69 6.8808919730212864e+01 -1.0428586623643264e+01 -3.3542505447487756e+01
96 -5.3363505845703074e+01 -4.1501978171786071e+01 -5.0750524779852462e+01
116 -2.4515919127702542e+01 -5.2685377076247349e+01 -3.0964249578373369e+01
