LAMMPS data file via write_data, version 30 Jul 2016, timestep = 50400000

128 atoms
2 atom types

0.0000000000000000e+00 2.0000000000000000e+01 xlo xhi
0.0000000000000000e+00 2.0000000000000000e+01 ylo yhi
0.0000000000000000e+00 2.0000000000000000e+01 zlo zhi

Masses

1 3.896
2 5

Atoms # meso-molecular

106 1 1 4.1086556087467807e-01 3.5663152304225143e+04 1.0000000000000000e+00 6.2194757427529812e-01 1.2505932613871038e+00 1.0863467911489062e+00 
77 1 1 4.0709475191824773e-01 9.6947341901008640e+03 1.0000000000000000e+00 2.0032526491964453e+00 1.6506775988277858e+00 5.6656215468903770e-01 
39 1 1 3.2536339189031710e-01 6.4181748299353458e+04 1.0000000000000000e+00 5.4318192636080100e+00 4.6645845585893109e-01 6.4137969853656607e-01 
57 1 1 3.1136976983480363e-01 5.8991909188342914e+04 1.0000000000000000e+00 2.1643360106320988e+00 9.7541030706972673e+00 1.9871377042965801e+00 
53 1 1 3.4606754669518447e-01 3.9927878864810402e+04 1.0000000000000000e+00 5.6264387332533090e+00 8.6240059812225400e+00 1.9497612504300221e+00 
31 1 1 3.2636422159007472e-01 5.0700487608156080e+04 1.0000000000000000e+00 4.1084312534192273e+00 4.3348881211883006e-01 2.3766967067961553e+00 
21 1 1 3.5414166821178206e-01 -2.1790398342126475e+04 1.0000000000000000e+00 2.9857388188985432e+00 7.6238665087935056e+00 3.4789005561427335e+00 
1 1 1 3.7096770514902205e-01 9.2609477331377813e+04 1.0000000000000000e+00 5.5517162585226725e+00 9.1581957454337068e+00 3.8173931671286794e+00 
102 1 1 3.9189062867888391e-01 3.9629323281395562e+04 1.0000000000000000e+00 5.6430947622067889e+00 1.5915966337748369e-01 4.4001257218636924e+00 
59 1 1 3.5360688592277545e-01 4.2506952146975425e+04 1.0000000000000000e+00 1.9216144677380100e+00 8.2171891964364310e+00 4.9757713276808291e+00 
54 1 1 3.1084120890640538e-01 -2.7976444950456251e+04 1.0000000000000000e+00 1.9161162578854849e+00 1.4444964247046657e+00 7.2044323897238520e+00 
75 1 1 3.2416588324417678e-01 -1.2588727421982405e+04 1.0000000000000000e+00 6.1548430669921448e+00 6.8436977986695768e-01 7.5068439221938439e+00 
64 1 1 3.3636669370923755e-01 -8.1708279867731559e+04 1.0000000000000000e+00 5.9773349264390232e+00 3.0100421299005227e+00 7.4158988593337059e+00 
122 1 1 5.1389316292423803e-01 -3.4867393084862335e+04 1.0000000000000000e+00 3.0102236188908691e+00 4.8801182416179154e+00 9.0869067337177256e+00 
8 1 1 5.5211170837843326e-01 3.4668742674951121e+04 1.0000000000000000e+00 3.7045243123096299e+00 5.6085387429231535e+00 9.1037472836414040e+00 
60 1 1 3.9613311776378779e-01 -2.1880353843404286e+04 1.0000000000000000e+00 5.1150135322442889e+00 4.6497886187982242e+00 8.5022358511375220e+00 
90 1 1 4.9863390386538209e-01 -1.1308956600870853e+05 1.0000000000000000e+00 7.8949830107182539e-01 3.4402512465661244e+00 1.0797366237348047e+01 
96 1 1 4.9863390386538209e-01 -1.9303723093046410e+04 1.0000000000000000e+00 9.3320746845418223e-01 2.8107682033458761e+00 1.0032737756350151e+01 
87 1 1 3.1084290825648447e-01 4.4274251076407818e+04 1.0000000000000000e+00 6.1255072296276616e+00 2.7350933836263613e+00 1.0461129335668369e+01 
16 1 1 4.4194644614827705e-01 -1.2332681672201508e+05 1.0000000000000000e+00 4.0436154524571384e+00 8.2577447626894394e+00 1.3126742132395377e+01 
127 1 1 5.2531859112816515e-01 5.0372994471674374e+03 1.0000000000000000e+00 5.3255400304964562e+00 8.4425965650575776e+00 1.3658976538404852e+01 
49 1 1 3.1084120890640538e-01 -1.4620381127352838e+05 1.0000000000000000e+00 3.4633536586517893e-01 3.7155107574880466e+00 1.5313853953579700e+01 
34 1 1 4.3839220475707907e-01 1.4338315523826124e+04 1.0000000000000000e+00 5.4187586468398141e+00 7.1494438535366802e+00 1.4314576697903375e+01 
98 1 1 3.1083966861952639e-01 1.3572191993265627e+04 1.0000000000000000e+00 6.3772826529813207e+00 2.6144325821022516e+00 1.6218681745817641e+01 
45 1 1 3.1983117481946544e-01 4.9857525714737516e+04 1.0000000000000000e+00 6.2224051601085124e+00 6.1230482638326063e+00 1.6255009002860533e+01 
119 1 1 3.1086416725335420e-01 8.4125721657527538e+03 1.0000000000000000e+00 6.5495054856112418e+00 7.9515423120110107e+00 1.8647904440122119e+01 
50 1 1 4.2465004616235097e-01 -4.8809511140196737e+04 1.0000000000000000e+00 3.9536478807035280e+00 1.1737581753655142e+01 1.4312743035903852e-01 
13 1 1 3.2058883992076187e-01 -7.8112069687120766e+03 1.0000000000000000e+00 1.9743863595674227e+00 1.3975734999502995e+01 3.4843699299285058e-01 
112 1 1 3.6029618538780334e-01 -7.0787416566364744e+04 1.0000000000000000e+00 2.8327493545963689e+00 1.5031301733400133e+01 2.1906487739917404e+00 
80 1 1 3.5068836381215468e-01 -5.7287275162868420e+04 1.0000000000000000e+00 4.4724612366139915e+00 1.4045345780881490e+01 2.3220616819989024e+00 
43 1 1 3.2021817002714009e-01 -9.3809733363384221e+04 1.0000000000000000e+00 2.7022854924199975e+00 1.7806962036836115e+01 2.0625298423216725e+00 
99 1 1 3.1287055880844011e-01 2.8131807291177513e+04 1.0000000000000000e+00 5.0231198202929850e+00 1.6802322432695838e+01 2.3438024400719346e+00 
46 1 1 3.2197923795131095e-01 -1.5880726960757742e+04 1.0000000000000000e+00 6.7871832749056482e-01 1.9076762822508556e+01 2.0134515103755124e+00 
94 1 1 5.8050384912740982e-01 6.0711547615024378e+04 1.0000000000000000e+00 4.4400725087864155e+00 1.0917772952502204e+01 4.2438591778960397e+00 
51 1 1 5.6923942468136968e-01 7.1219830297603490e+04 1.0000000000000000e+00 3.7689698522410766e+00 1.0571187548615550e+01 4.3368961689549943e+00 
84 1 1 3.9088975598669073e-01 -1.0466439396704783e+05 1.0000000000000000e+00 6.0374074414507497e+00 1.8594167864553750e+01 4.5703678422536145e+00 
123 1 1 3.1156512928109875e-01 5.8584820931590577e+04 1.0000000000000000e+00 7.5596685212565995e-01 1.3492061479726642e+01 8.6602552312081187e+00 
7 1 1 3.1156512928109875e-01 -7.8990037780635816e+04 1.0000000000000000e+00 2.7642017103637708e+00 1.5080464099043290e+01 8.0033580697999440e+00 
92 1 1 3.1084120890640538e-01 -6.1401023821522773e+04 1.0000000000000000e+00 2.8591927862836002e+00 1.9987708560292841e+01 9.7066834068952623e+00 
19 1 1 3.4363641159264791e-01 -2.3588835083039092e+04 1.0000000000000000e+00 5.2927506016204138e+00 1.2717254791616142e+01 1.5751743040744744e+01 
104 1 1 3.3479123895179491e-01 1.3503360293342444e+05 1.0000000000000000e+00 3.4313150362982001e+00 1.2768995866183877e+01 1.6562963140066827e+01 
126 1 1 4.2465001001175118e-01 -2.3808522400649239e+04 1.0000000000000000e+00 4.5562295152266099e+00 1.0704436042910324e+01 1.9484872575576130e+01 
15 1 1 3.2523240345570414e-01 2.9772386888407480e+04 1.0000000000000000e+00 6.0963836498039381e+00 1.7490171692626920e+01 1.8251547774723861e+01 
30 1 1 3.2401557922514740e-01 -3.3919013188040146e+04 1.0000000000000000e+00 1.2145567569850954e+01 3.5904857564081927e-01 1.6014118261598613e+00 
27 1 1 4.6803478751128713e-01 9.4985899144657058e+04 1.0000000000000000e+00 9.4142942983783335e+00 1.4335258097657173e+00 2.9395271528491937e+00 
70 1 1 5.2008022736310178e-01 6.5102818404547950e+04 1.0000000000000000e+00 9.9538655278057409e+00 3.4564263949654519e+00 3.8073104330683023e+00 
29 1 1 6.4035848233255466e-01 5.0735365016735850e+04 1.0000000000000000e+00 9.6699349550490687e+00 2.6069730164280513e+00 3.1718007703613194e+00 
117 1 1 3.1084120890640538e-01 4.0131925514923423e+04 1.0000000000000000e+00 9.5289766748063656e+00 9.3727925309545945e+00 3.4934083771465607e+00 
11 1 1 4.4241540220087872e-01 -1.8313372782254715e+04 1.0000000000000000e+00 8.2732200816606554e+00 3.0248785714135593e+00 4.9930070689068264e+00 
128 1 1 3.1088579802014116e-01 -3.1092720735029052e+04 1.0000000000000000e+00 1.0333180811387379e+01 6.9018286527168149e-01 6.5389305010825511e+00 
35 1 1 4.1691992307274212e-01 4.8166367664810597e+04 1.0000000000000000e+00 8.5056278950048085e+00 3.5075353246015095e+00 6.4049691822175099e+00 
37 1 1 3.1435703035776086e-01 3.0101436409929527e+04 1.0000000000000000e+00 9.4544298454280469e+00 5.5298876468264542e+00 7.3124584830532315e+00 
68 1 1 3.1569804969280452e-01 -3.6997976853742184e+04 1.0000000000000000e+00 8.2019092448357327e+00 1.0596697763863994e+00 8.7420111683966297e+00 
115 1 1 3.1084120890640538e-01 8.6029640075505740e+04 1.0000000000000000e+00 8.1157932085124411e+00 5.6885501975352737e+00 1.0955848018741186e+01 
110 1 1 3.1690317750981412e-01 1.4244286020313000e+05 1.0000000000000000e+00 1.2359877700776604e+01 8.3945646487771430e+00 1.0474668327772417e+01 
36 1 1 3.1084120890640538e-01 -2.7961218338767976e+04 1.0000000000000000e+00 9.6271323625063410e+00 3.6718366699120724e+00 1.5867410915816620e+01 
76 1 1 3.1084120890640538e-01 1.7660040324078163e+05 1.0000000000000000e+00 1.1745076921102822e+01 6.2720649751620083e+00 1.5153737221804050e+01 
23 1 1 3.1084732574130491e-01 8.2419591996840900e+04 1.0000000000000000e+00 1.0811338792789565e+01 8.8457328813509462e-01 1.6863773236551570e+01 
88 1 1 3.1080468410347190e-01 9.1216099753109200e+04 1.0000000000000000e+00 7.6047518501201647e+00 2.5472334261910405e+00 1.8893072287868179e+01 
125 1 1 4.2223766873802182e-01 -8.4162927301254022e+03 1.0000000000000000e+00 7.8649020398690599e+00 5.3658864291354655e+00 1.8485025040213884e+01 
86 1 1 4.2222259445755783e-01 7.5459390124086440e+02 1.0000000000000000e+00 9.0468020993043599e+00 6.0708999718055772e+00 1.8850677906589564e+01 
107 1 1 4.2203672142253829e-01 -1.1518984556758813e+05 1.0000000000000000e+00 1.2447875488974441e+01 6.4121307257434488e+00 1.9071474366744997e+01 
38 1 1 4.2137072799339392e-01 1.8129643967217689e+04 1.0000000000000000e+00 1.2750418029684907e+01 7.6712497852284152e+00 1.9799954159645690e+01 
6 1 1 3.1428512705689815e-01 3.4609291722609196e+04 1.0000000000000000e+00 7.7303656130266010e+00 1.4519839553076235e+01 1.9328130884049819e+00 
78 1 1 3.1084120890640538e-01 -9.6729995330346195e+04 1.0000000000000000e+00 1.0401627608187667e+01 1.2640177403039623e+01 2.8766172693725229e+00 
65 1 1 3.2401557922514734e-01 -1.6752408578906274e+04 1.0000000000000000e+00 1.1222613837756978e+01 1.8413243945815928e+01 2.1486809145607828e+00 
85 1 1 3.1428512705689815e-01 -6.5784032651985224e+04 1.0000000000000000e+00 7.1429617387876574e+00 1.3393099489356269e+01 4.0071882899981919e+00 
71 1 1 3.1084120890640538e-01 -1.0947359810166294e+05 1.0000000000000000e+00 1.0276864674740768e+01 1.5689850787635109e+01 4.0440861612940466e+00 
3 1 1 3.2646466250948419e-01 -5.9632726551297426e+04 1.0000000000000000e+00 9.4030453154349072e+00 1.8272461022712417e+01 7.8439059539989007e+00 
63 1 1 3.1356180820868601e-01 -5.2881560126375698e+04 1.0000000000000000e+00 1.2938111538174731e+01 1.1072877467693282e+01 9.5426127601596580e+00 
61 1 1 3.2582100582499951e-01 4.7993333327275104e+04 1.0000000000000000e+00 9.2919040193494595e+00 1.4688064307295990e+01 9.4956304128233580e+00 
83 1 1 3.1114770041096607e-01 8.2889292129596902e+02 1.0000000000000000e+00 1.2680958310960690e+01 1.4058320798206321e+01 8.2833083947652426e+00 
22 1 1 3.2663316470982945e-01 9.9758610679510108e+04 1.0000000000000000e+00 8.8141305092620410e+00 1.8601743974152715e+01 9.9851436345510187e+00 
52 1 1 3.2139812717024258e-01 3.7968748915998687e+04 1.0000000000000000e+00 9.8006889763901714e+00 1.1907863405241313e+01 1.0074046756830819e+01 
91 1 1 3.2285762459077749e-01 -3.0061427297416394e+04 1.0000000000000000e+00 1.1134806575936702e+01 1.0322522960956134e+01 1.1225830673492313e+01 
56 1 1 3.1531504673174071e-01 1.2070862657325715e+05 1.0000000000000000e+00 8.2414030137313343e+00 1.3057980523986251e+01 1.1584855680428578e+01 
26 1 1 3.1112769627672415e-01 -3.1134198666757133e+04 1.0000000000000000e+00 1.3304419657462274e+01 1.5019908784048900e+01 1.0817677804511268e+01 
44 1 1 3.2578239266746606e-01 -5.4228025537714064e+04 1.0000000000000000e+00 7.8225844153794597e+00 1.6127739037609842e+01 1.0291380649336155e+01 
121 1 1 3.7250375871161812e-01 1.4497118363450702e+04 1.0000000000000000e+00 1.2811734862140836e+01 1.3375844341382789e+01 1.3036629136559840e+01 
103 1 1 3.1968638154725837e-01 6.0629496732360232e+04 1.0000000000000000e+00 6.6860214916161027e+00 1.1436370496299812e+01 1.4312024111993654e+01 
4 1 1 3.1505205425059452e-01 3.8964964076408563e+04 1.0000000000000000e+00 9.1498318983290794e+00 1.8510419051003414e+01 1.7498620745100443e+01 
41 1 1 3.2943713196499369e-01 6.2399199395666692e+03 1.0000000000000000e+00 7.9996278636989961e+00 1.7517356532107737e+01 1.9375900497815163e+01 
74 1 1 3.2619330403058627e-01 4.3652594018752745e+04 1.0000000000000000e+00 1.4387458640030538e+01 3.4668528747025915e+00 1.7532987011791783e+00 
14 1 1 3.2619330403058627e-01 3.3864686009876117e+04 1.0000000000000000e+00 1.4674102261369208e+01 1.8470736433595474e+00 3.1840006928868951e+00 
40 1 1 3.1084120890640538e-01 -2.4935289332849088e+03 1.0000000000000000e+00 1.7074851757680747e+01 5.3050772079948860e+00 4.2537110020811157e+00 
9 1 1 3.1084120890640538e-01 2.7477516560820302e+04 1.0000000000000000e+00 1.8959369857134828e+01 7.6272793654172819e+00 5.8478301866742362e+00 
100 1 1 5.0327762140642218e-01 2.9320035058624435e+04 1.0000000000000000e+00 1.5755415901927515e+01 9.3539235741128994e+00 4.3156982925175829e+00 
109 1 1 6.1946290331213194e-01 1.2193009962553390e+05 1.0000000000000000e+00 1.6712062573241916e+01 9.6189746349153804e+00 4.5781281258276225e+00 
97 1 1 4.7137308148508600e-01 -8.8574172876222670e+04 1.0000000000000000e+00 1.7649946092436799e+01 3.6506347134828849e+00 6.8468034281272949e+00 
124 1 1 5.0307911906577063e-01 5.9094533965348171e+04 1.0000000000000000e+00 1.9423081714388211e+01 3.9571240769479989e+00 6.1569947561160880e+00 
101 1 1 5.9104217023182570e-01 5.4988276841053586e+04 1.0000000000000000e+00 1.8604334437455019e+01 3.0983175739887590e+00 6.0867456520530050e+00 
10 1 1 3.1084272361036502e-01 -8.2662212792240553e+03 1.0000000000000000e+00 1.9060736313671981e+01 3.7390264058917372e-01 1.1113465940287663e+01 
28 1 1 3.1594288214059552e-01 1.0729877278298547e+05 1.0000000000000000e+00 1.6590258656114745e+01 4.6603440970595980e+00 1.1628656953104898e+01 
79 1 1 3.6185314149614844e-01 -4.3649660057030793e+04 1.0000000000000000e+00 1.4786026075917819e+01 3.5492618257949431e+00 1.2863742852268667e+01 
5 1 1 3.1083056697630224e-01 1.0371957597094246e+05 1.0000000000000000e+00 1.8039050268923180e+01 2.4576322405975035e+00 1.2892375467424914e+01 
66 1 1 3.1084120890640538e-01 -1.0421024936644410e+05 1.0000000000000000e+00 1.7876726182689083e+01 7.7300903655615008e+00 1.2584285652303416e+01 
118 1 1 3.9365756645741573e-01 7.7121577104159573e+04 1.0000000000000000e+00 1.5159497278956819e+01 1.8339242340165478e+00 1.4420840625423562e+01 
93 1 1 4.2826378291578082e-01 3.3253851383950547e+04 1.0000000000000000e+00 1.4884741437777736e+01 3.4125648685851044e+00 1.4753990907839125e+01 
114 1 1 3.1098375903134728e-01 -6.1188561551466082e+04 1.0000000000000000e+00 1.7265051102453945e+01 2.9187057686517606e+00 1.5940727718284048e+01 
89 1 1 3.8711124661874274e-01 -1.0371621199973059e+05 1.0000000000000000e+00 1.4839972423801616e+01 7.1769691822057968e+00 1.5471640854623285e+01 
20 1 1 3.1084120890640538e-01 -6.8901033873010543e+04 1.0000000000000000e+00 1.9601769679363649e+01 9.6645876807610005e+00 1.5026199875542043e+01 
18 1 1 3.2202850295199770e-01 -1.2139739707268648e+05 1.0000000000000000e+00 1.4111063477073449e+01 4.7380131999660202e+00 1.7853219815774946e+01 
81 1 1 3.2020859283365749e-01 -1.5168888928414412e+04 1.0000000000000000e+00 1.7639359588820135e+01 6.9833184886080453e+00 1.6506439556796380e+01 
32 1 1 4.0103779850163368e-01 2.2276155806027524e+04 1.0000000000000000e+00 1.5688033101784010e+01 8.2568186393847931e+00 1.6342609799544125e+01 
47 1 1 3.2703037004042829e-01 8.8944512446951849e+04 1.0000000000000000e+00 1.5159982304591059e+01 6.7758843218307039e+00 1.8135112342153327e+01 
72 1 1 3.1084120890640538e-01 -1.2989757900659431e+05 1.0000000000000000e+00 1.5195208844673125e+01 9.6698082250724902e+00 1.9180771381467615e+01 
111 1 1 3.5297458474215165e-01 5.4103001598183044e+04 1.0000000000000000e+00 1.9883951354442292e+01 9.5454365504336938e+00 1.9933592457425661e+01 
12 1 1 3.6578466683380906e-01 6.6885749624509554e+04 1.0000000000000000e+00 1.9721413726647242e+01 9.9404620906045960e+00 1.8162948727900165e+01 
62 1 1 3.1084120890640538e-01 -5.3787585364002587e+02 1.0000000000000000e+00 1.3388533835144351e+01 1.1717192467027560e+01 1.9054441420451405e+00 
69 1 1 3.1098330144786823e-01 -5.4907428818401910e+04 1.0000000000000000e+00 1.7116609859934034e+01 1.0347315405540924e+01 1.5991581384419362e+00 
55 1 1 3.1082281810599732e-01 9.1547913273139857e+03 1.0000000000000000e+00 1.9535312076890502e+01 1.2373073426311670e+01 1.8354359052107405e+00 
73 1 1 3.1161443236613945e-01 -3.0972565631064947e+04 1.0000000000000000e+00 1.8206974602640173e+01 1.9277261101334830e+01 7.3297087222184321e-01 
33 1 1 3.1096491064746018e-01 9.4740199140586687e+04 1.0000000000000000e+00 1.6965188071500005e+01 1.2625563870557876e+01 3.1919409777312620e+00 
42 1 1 3.1398759660825831e-01 2.5573743850263018e+01 1.0000000000000000e+00 1.7108153460482264e+01 1.7489040036609435e+01 3.7208140140417245e+00 
95 1 1 4.4563959265405045e-01 6.1095509114073548e+03 1.0000000000000000e+00 1.7395962527055147e+01 1.0366322011396718e+01 5.4427887957080223e+00 
25 1 1 3.1398759660825831e-01 -3.6238538589582320e+04 1.0000000000000000e+00 1.6071128969762050e+01 1.8519830719309969e+01 5.7397562362112993e+00 
67 1 1 3.1092696594453356e-01 -1.4418352134109716e+05 1.0000000000000000e+00 1.5399194439233279e+01 1.1902933889906995e+01 7.6587692905483067e+00 
24 1 1 3.1092696594453356e-01 -1.6487266731866657e+04 1.0000000000000000e+00 1.7725559864905684e+01 1.2721737146876201e+01 8.9652520153177946e+00 
120 1 1 3.1084120890640538e-01 -6.9376654819824325e+04 1.0000000000000000e+00 1.6565665946933109e+01 1.8859577476004688e+01 9.7925516120124172e+00 
105 1 1 3.1339904159267734e-01 -5.1312580961655214e+04 1.0000000000000000e+00 1.3897937737926798e+01 1.0132810243939142e+01 1.1674429379268405e+01 
2 1 1 3.7252376284586008e-01 -8.6934982623238757e+04 1.0000000000000000e+00 1.3660631566823723e+01 1.4492860646102121e+01 1.3954672913121088e+01 
48 1 1 3.1078315654014294e-01 -4.0196739482086254e+04 1.0000000000000000e+00 1.4793765657483855e+01 1.9283981932434244e+01 1.3126300546321856e+01 
113 1 1 3.1084120890640538e-01 -1.5790810025330051e+05 1.0000000000000000e+00 1.6504419673681543e+01 1.2355581300032473e+01 1.6300012085331698e+01 
116 1 1 3.1084120890640538e-01 6.0029856698498788e+03 1.0000000000000000e+00 1.9594540908211975e+01 1.8874853597596069e+01 1.7507010405956990e+01 
82 1 1 3.2365129099806278e-01 -1.4352447720070541e+05 1.0000000000000000e+00 1.9535696531391114e+01 1.2169984711565142e+01 1.8058807371832277e+01 
108 1 1 3.1100365403108549e-01 -6.0867522849523857e+03 1.0000000000000000e+00 1.7434181052844270e+01 1.5904604233064809e+01 1.9582459399394786e+01 
17 1 1 3.1100365403108549e-01 3.5331688681702610e+04 1.0000000000000000e+00 1.9978111020209305e+01 1.5831046023424436e+01 1.8515377008695680e+01 
58 1 1 3.1180236118824822e-01 2.4830074777356102e+04 1.0000000000000000e+00 1.6342325697758078e+01 1.9900100898436882e+01 1.8911069956638890e+01 

Velocities

106 2.0882150700312472e+01 5.7087253554070656e+01 -8.1769071695483788e+00
77 -1.2140395079785428e+01 3.6565759883637355e+01 5.5815406231059272e+00
39 6.2054134779454870e+01 -5.1095327822789457e+01 -3.1783817513807588e+01
57 1.0998651273202645e+01 -4.7568788193553168e+01 5.7213489221577749e+00
53 3.3485340366335357e+01 7.6386283792506915e-01 -6.6428611090575856e+01
31 3.6590306739907696e+01 2.6409039243317231e+01 -2.1314345937087044e+01
21 -1.5642275546253609e+01 6.0743934303177085e+01 7.3037574264615188e+01
1 3.5409315287503524e+01 1.4271310337657357e+00 -6.7036167180915740e+01
102 1.4446254152730823e+01 -3.0287740428542332e+01 7.4481675999948138e+01
59 9.8806898831771832e+00 -9.4302260088757328e-01 -4.3401424014324867e+01
54 -3.3540869128060265e+01 -6.8629447233463168e+01 -2.2220412909785345e+01
75 3.5431398393056021e+01 1.3567226778764034e+01 -1.8587918013257358e+01
64 9.7560037754607535e+01 -2.2136736777844138e+01 3.1436292767123700e+01
122 -9.2393312118256254e+00 -5.3882225279024070e+01 7.2065260842033529e-01
8 3.0124898176986367e+01 -1.5396347083341844e+01 -8.6437338889560280e+00
60 -3.5707187260131796e+01 -3.3280991534338796e+01 -1.3306060237554094e+01
90 -5.2607882037025135e+01 9.4721957871610385e+01 5.8733001279901991e+01
96 4.4897550329197486e+01 -3.7455431826994982e+01 9.6307313680292040e+01
87 -5.4810932386280262e+00 -4.8819415802457566e+00 1.4256104735704018e+00
16 1.3045388929062424e+01 -1.2059407006466687e+00 -1.6712687357188607e+01
127 6.5030044375071938e+01 -1.4853570437665828e+01 -4.4268488238820737e+01
49 -7.1673392525187055e+01 -1.9609209444409192e+01 6.8869032896556078e+01
34 -3.7835126216220907e+01 -5.3501667034900308e+01 5.8022838224305438e+01
98 1.5236790310421764e+01 -3.8661875182421952e+01 -1.1200668007168365e+02
45 2.9930973909578711e+01 5.7636923075483956e+01 6.5735207865805636e+00
119 4.0461994798245371e+01 3.9279010126357136e+01 6.6729582545615898e+01
50 -5.9516327922052582e+01 5.1726494619434682e-01 2.7578619171214321e+01
13 -1.3785043039627645e+01 1.3597713355361538e+01 3.2191780855111702e+01
112 -2.0754651245709194e+01 -2.6926676061780043e+01 4.2926081107170951e+01
80 -1.5343106248299732e+01 4.6162268675391616e+01 3.4092725497280128e+01
43 -4.5326487789067450e+01 1.8879381370017914e+01 6.6974710933987055e+01
99 -3.0659970087197038e+01 8.3710602969512156e+00 -2.2449843274258278e+01
46 1.9579810550304106e+01 -6.9359656292439624e+01 1.1753458304888879e+01
94 -2.8466140654941817e+01 -7.4835922791980671e+00 -4.4275880442593483e+01
51 9.1029370416444934e+01 1.1015307508471321e+02 -2.6463890697400906e+01
84 7.0438080131624972e+00 -7.6276705926026169e+00 -8.3606103760210857e+00
123 1.5321625658399880e+01 -3.5960752991502289e+01 -1.0298043739392700e+01
7 -3.5382884972344328e+01 5.1079902484727015e+01 1.6643227014333959e+01
92 -4.3864385720292972e+01 -1.4857693067425386e+01 5.9415319849122206e+00
19 5.7352595487911600e+01 -1.2525444462437619e+02 1.1399322827191165e+01
104 -5.5305374285042774e+01 1.1038674793976973e-01 -9.0702130023695588e+01
126 2.6829282803812347e+01 -7.0662339155802613e+01 -1.2264808358809175e+01
15 5.2226687297242478e+01 4.3094972666251181e+01 3.2660392981041099e+01
30 -1.1509225734655667e+01 -2.5474350353127626e+01 6.6044673780996973e+01
27 1.5369801278429565e+01 5.5967499419212912e+00 -2.0676561584426100e+01
70 -5.5157893497306340e+01 9.8150908031478057e+00 4.0535573393149313e+01
29 5.4693701962821208e+01 3.6033476488191823e+01 -1.7898693383266195e+01
117 -9.6927518046123353e+00 6.4411201991808625e+01 -1.4944166903441014e+01
11 -4.3312916665317381e+01 2.3627115606231673e+01 -2.7015407983357505e+01
128 -3.6009021293159833e+01 -4.7957063284664194e+01 1.8062948808346501e+01
35 2.5184415993597231e+01 -5.0168860101760636e+01 -9.5119045651032337e+01
37 9.9158465769997832e+00 8.6778274625966869e+00 -1.5567002646538784e+01
68 1.7819329207058445e+01 4.8370491323552463e+00 -7.0970955024714950e+00
115 2.8902005818634176e+01 1.4245570337312577e+01 2.3025874203878097e+01
110 3.8197760767400823e+01 1.9580753189700165e+01 1.5128311567193013e+01
36 -2.7098670589991173e+01 -5.0176848121621269e+01 -8.2582207040076270e+01
76 1.2283447190359144e+01 6.6490562513592863e+01 5.5424408101684733e+01
23 -9.7354544162949797e+00 -5.6208506517947248e+00 5.3223557623841614e+01
88 1.4709759571872064e+01 -2.8625052954773373e+01 -1.0028921449043564e+02
125 -3.1558232407401054e+01 4.0536400763494676e+01 3.1984073865016569e+01
86 9.4605384358582434e+00 -2.0557420827852322e+01 4.6054649792975191e+01
107 -4.3638198389595138e+00 6.6072716835119436e+01 1.1215973509803454e+00
38 -9.6888277500363849e+00 -4.9889963285848431e+01 -5.5864266180469848e+01
6 2.1678966930586254e+00 -2.1991551265281743e+01 1.7409208569686779e+01
78 -2.4180787066840349e+01 7.0656617734197420e+00 -2.5178240796962402e+01
65 -2.4234289043882498e+01 -4.1563648953516882e+01 -4.9131873858375315e+01
85 2.3139854942305714e+01 -6.6496924006286335e+01 5.5049133862056173e+01
71 -9.1725371785465164e+00 -1.0684258768266680e+01 -5.7666331539393269e+01
3 -4.3383742219580853e+01 2.9295646564062739e+01 2.0529599872437604e+01
63 3.5233567536436574e+01 6.1271882604787020e+00 -5.0772226285926507e+00
61 -5.5231514223795777e+01 -1.3827421219034724e+01 -9.0578714227707664e+00
83 1.5774347234386701e+00 5.5732983199481589e+00 2.5662577183585025e+01
22 1.9362401330676871e+01 -4.5135096655541084e+01 -9.5032347727886929e+01
52 3.5986308003330358e+01 5.4531477530784016e+01 -2.9331145003550827e+01
91 -6.0509834727415182e+01 -3.0246525093573734e+01 -3.3573442422333748e+01
56 -1.5676176469155065e+01 -7.5899951474173815e+00 -1.0269704635510327e+02
26 -1.7550270475730365e+01 -5.8726588818524952e-02 -3.6205254460031092e+01
44 -2.9455206268884968e+01 -6.6990711148892672e+01 5.2690707839666111e+01
121 -1.9916806775332851e+01 -3.8251666100817403e+01 -1.3183950738589768e+01
103 4.6724704140870529e+01 4.5962822039063603e+01 8.2934249560318648e+01
4 1.8191637120358408e+01 7.1777083552966573e+01 3.5487191208097862e+01
41 9.7008823562706805e+00 3.7681970390953950e+01 5.1289639596494084e+01
74 -1.2047924952647353e+01 1.8751496908044651e+00 -2.0424542066248520e+01
14 -3.8772727845520386e+01 2.9823672827044199e+00 -1.0798460141940836e+01
40 5.0410946867307818e+00 1.3693069908844262e+01 -5.5056165415087918e+01
9 -1.1136456878242051e+01 9.4910177139739638e+00 -6.2090350504900407e+00
100 -7.9372049098283128e+01 1.5610939232149800e+01 -6.3467833622789819e+01
109 -2.3810581276213822e+00 -5.8675616452079197e+01 -1.8730187089487320e+01
97 -2.4675730010083019e+01 -5.1107844173462089e+00 -2.4085501432534691e+01
124 1.4453912051642410e+01 -3.1712772226774181e+01 2.4572472135077533e+01
101 -2.3979313573965304e+00 -2.5567016810735876e+01 -5.6578454446038137e+01
10 -4.1145886022504094e+01 -4.1952718301156198e+00 -1.3626858217366172e+01
28 -2.9554636073101360e+01 -3.7579801544319395e+01 2.1053871896901473e+01
79 -4.6566540266037153e+00 6.9729019523401149e+01 -9.8789616245976823e+00
5 4.0166537080637738e+01 -2.1492447493599393e+01 5.5181692474403924e+01
66 -6.7208582807174821e-01 -1.1516292399039585e+01 3.6904450310887697e+01
118 2.2193040524032490e+01 5.3013630541835157e+00 9.0665474628581821e-01
93 -2.5544574856594666e+00 -1.8257086274665337e+01 -1.4550487467851857e+01
114 3.3811820383650065e+01 2.1120851960650537e+01 3.0600897596739234e+01
89 -3.1460139917840920e+01 5.7258137303330239e+00 3.6162672542962603e+01
20 1.8870988067436361e+01 6.8014602214703416e+01 2.0387116543281827e+01
18 8.6688655303800077e-01 1.2497207970857801e+01 7.4437238484336405e+01
81 -3.6621086183029966e+01 6.0086658965304252e+01 -1.3100874377243459e+01
32 2.8846010129345302e+01 1.2585129716586772e+01 1.2582324878469496e+01
47 4.2005045044786620e+00 -6.6559103061457265e+01 -1.9412837641103305e+01
72 -1.1904940210396129e+00 3.3259806366605687e+01 3.5299163484575530e+01
111 1.4656310831658665e+00 4.6804984898737461e+00 7.8538553444346988e+01
12 1.7739619204231769e+01 2.2907573252041196e+01 -5.1142190203745990e+01
62 -9.2190681862391592e+00 4.8723061991800137e+01 2.5566485393923656e+01
69 -5.2681366527219687e+01 4.8566488960655626e+01 -9.4624926645199388e+00
55 2.8666466939098154e+01 4.2068449028531980e+01 -2.5573499415767749e+01
73 -7.1137665778830126e+01 -3.8437703936366695e+01 -4.0241224948846458e+01
33 -1.7960226769573243e+01 4.1703167584312084e+01 -1.2330418448872772e+01
42 -3.3737500658974589e+01 -6.8268541063018702e+01 -1.3857099113548813e+01
95 5.9403947997838458e+01 -3.0847464878074082e+00 -4.7033814792547020e+01
25 3.1187120554401751e+01 2.5066066904785451e+01 -5.3389987331774201e+01
67 2.0369897633819456e+01 -1.2978838149063319e+00 -6.0514722985273075e+01
24 -8.8312105085718589e+00 -2.6198725148457665e+01 1.9662679222259069e+01
120 1.2027290078539187e+01 1.5675314777284989e+01 3.2397114239835034e+01
105 4.1580444724518983e+01 2.7167543404257842e+01 4.4698345220797798e+01
2 4.7325505367763832e+00 7.7311272449832373e+01 4.1289121874415372e+01
48 -3.9112813990541348e+01 -8.0194031121668758e+01 1.2983871648206380e+01
113 2.7528699462526866e+01 3.1817116972470458e+01 5.9752267980104932e+01
116 3.4930889606234075e+01 3.5101947144142883e+01 -1.9932449230141358e+01
82 1.3409480473808312e+01 -9.4257278626635550e+00 -8.3789678660222052e+01
108 -1.4975180102225083e+01 1.0752921061507264e+01 5.6675113409977847e+01
17 -3.6749752919622427e+00 -3.0890524489721045e+01 7.8090040588910696e+01
58 -1.5283998015758621e+01 -5.0328107995276788e+01 5.8766651964705652e+00
