LAMMPS data file via write_data, version 30 Jul 2016, timestep = 50000000

4620 atoms
8 atom types

0.0000000000000000e+00 1.0000000000000000e+02 xlo xhi
0.0000000000000000e+00 4.0000000000000000e+01 ylo yhi
0.0000000000000000e+00 4.0000000000000000e+01 zlo zhi

Masses

1 3.896
2 5.36
3 20.064
4 8.378
5 8.378
6 8.378
7 8.378
8 8.378

Atoms # meso-molecular

2753 2754 2 1.0280000000000000e+00 -2.1903095898651461e+02 1.0000000000000000e+00 6.6812342328961769e+00 1.6529468204197904e+00 1.0961160178757212e+00 
2863 2864 2 1.0280000004927596e+00 7.0210358915843938e+02 1.0000000000000000e+00 1.6103556070352809e+01 4.8417858545088843e-01 1.2444236253069756e+00 
3382 3383 2 1.0280000162923415e+00 8.1872526550972725e+02 1.0000000000000000e+00 2.1361910499449070e+01 2.9308387941545561e-01 1.6178699020697704e+00 
445 446 2 1.0280000000000000e+00 2.0395351329560272e+03 1.0000000000000000e+00 7.3239623810659999e+00 1.8358979335742676e+00 1.6832162513319790e-01 
2128 2129 2 1.0279999948215734e+00 -1.2240954951519807e+03 1.0000000000000000e+00 2.1270739353807436e+01 2.5656259485474568e+00 2.2171951262815351e-01 
1378 1379 2 1.0279999982447405e+00 -7.6768886906466355e+02 1.0000000000000000e+00 1.4731051343367046e+01 4.0265131208587173e+00 1.5513992855820016e+00 
2845 2846 2 1.0280000052973259e+00 6.8103453237229189e+02 1.0000000000000000e+00 2.0924343332785984e+01 4.7730203860257570e+00 3.5750964303786631e-02 
4353 4354 2 1.0280000000000000e+00 1.3122891014743814e+03 1.0000000000000000e+00 5.2885393794022373e-01 5.8424623710782617e+00 8.7908237101851194e-01 
2645 2646 2 1.0279999985231056e+00 2.0935994876636639e+02 1.0000000000000000e+00 1.0149274377724108e+01 8.3046901053925755e+00 3.1110776572127669e-01 
2606 2607 2 1.0280000015397484e+00 5.6610463510595594e+02 1.0000000000000000e+00 1.0551856650360479e+01 7.4971639697152650e+00 1.0238091505793836e+00 
2710 2711 2 1.0280000106581597e+00 -1.5777368098516285e+03 1.0000000000000000e+00 1.4393176661920554e+01 7.3497811185985524e+00 1.0414743940856939e+00 
3317 3318 2 1.0279999962897033e+00 -1.4277212033571811e+03 1.0000000000000000e+00 1.5734864729664984e+01 7.3013734628792690e+00 1.4678276746542707e+00 
1217 1218 2 1.0279999947493548e+00 3.6692543938373734e+02 1.0000000000000000e+00 1.8321409247320620e+01 6.9259851963591403e+00 1.5984085969466180e+00 
1743 1744 2 1.0280000000000000e+00 -6.1885085299969683e+02 1.0000000000000000e+00 2.7722588727752675e+00 8.4454197483435944e+00 1.4134626667541170e+00 
1900 1901 2 1.0280000000000000e+00 -2.5145040969202482e+03 1.0000000000000000e+00 2.9001975970054046e+00 8.6955629689280478e+00 3.0511566806790114e-01 
837 838 2 1.0279999986575437e+00 -3.4882458281739139e+02 1.0000000000000000e+00 1.6095393283517769e+01 8.6118249404107363e+00 2.1764893151997577e-01 
2394 2395 2 1.0280000019841995e+00 8.2484536799829152e+02 1.0000000000000000e+00 1.6649352422898183e+01 9.2937744177187955e+00 1.3414521575876823e+00 
2411 2412 2 1.0280000000000000e+00 -2.0591427671135216e+02 1.0000000000000000e+00 4.9669249668934157e+00 1.0903659293248255e+01 1.4597681898449848e+00 
434 435 2 1.0280000000000000e+00 1.9044935258235464e+03 1.0000000000000000e+00 5.6551756506231037e+00 1.0714556104849049e+01 5.6650227314290269e-01 
92 93 2 1.0279999995720015e+00 -2.8265376012369429e+03 1.0000000000000000e+00 1.1233537080680771e+01 1.0559048257022129e+01 3.6663598762900579e-01 
830 831 2 1.0279999953738250e+00 -2.5409114539206075e+02 1.0000000000000000e+00 1.5040230171318610e+01 1.1511894339183552e+01 3.1309072108490299e-01 
3671 3672 2 1.0280000006761696e+00 -5.7841764572641193e+02 1.0000000000000000e+00 1.7761475135701620e+01 1.0538970331878142e+01 1.4368048136727194e+00 
2246 2247 2 1.0279995532539179e+00 -7.0233183915735481e+02 1.0000000000000000e+00 2.8513578534940581e+01 1.0713991995653867e+01 8.0074270534944281e-01 
3024 3025 2 1.0279999987031672e+00 -6.8842249005979393e+03 1.0000000000000000e+00 1.1502608618017902e+01 1.3011813356327623e+01 4.7919877221389984e-01 
1505 1506 2 1.0280000071226985e+00 -4.1007828031198365e+01 1.0000000000000000e+00 1.2368870402241310e+01 1.1828485778929526e+01 6.9838891312689000e-01 
4434 4435 2 1.0280000009348309e+00 -4.0378445061353937e+03 1.0000000000000000e+00 1.3949918795665853e+01 1.2402903817123766e+01 1.3893999207138950e+00 
11 12 2 1.0280000024301166e+00 1.9029527216760757e+03 1.0000000000000000e+00 1.7422670450123029e+01 1.2045149199261390e+01 1.5970896912855043e-01 
713 714 2 1.0280000033409056e+00 -8.9334045172146921e+02 1.0000000000000000e+00 1.6875448974921994e+01 1.3210349982179000e+01 1.6385974296250114e+00 
2816 2817 2 1.0280000117697634e+00 -9.7734865837070947e+02 1.0000000000000000e+00 2.3199348062241437e+01 1.1970693918932957e+01 5.0788300182893653e-01 
4166 4167 2 1.0279999880506938e+00 6.1387279963266974e+02 1.0000000000000000e+00 2.2453126862875731e+01 1.2695558825559619e+01 1.1051342757834237e+00 
2063 2064 2 1.0280000012783588e+00 -2.4816037038535496e+03 1.0000000000000000e+00 1.2627239797209485e+01 1.4056499237541935e+01 1.2366253969226180e+00 
1846 1847 2 1.0279999975934582e+00 -1.0133037261266921e+02 1.0000000000000000e+00 1.5948114310417598e+01 1.4414718765253903e+01 5.7836476066101916e-01 
2012 2013 2 1.0280000040274289e+00 1.0736839121262647e+03 1.0000000000000000e+00 2.2184853260046982e+01 1.4384001345713232e+01 3.2513548804822384e-01 
4420 4421 2 1.0279999904382853e+00 -6.9311900849944527e+02 1.0000000000000000e+00 2.6756929458111493e+01 1.4171023368338620e+01 1.1022582323834669e+00 
3307 3308 2 1.0279999983615615e+00 5.3316084669966233e+02 1.0000000000000000e+00 1.1268998194315497e+01 1.5060429139852539e+01 1.1244547397324123e+00 
3459 3460 2 1.0280000077207931e+00 -3.3200225749089818e+03 1.0000000000000000e+00 1.6746179741881299e+01 1.5589914307781514e+01 8.6681076698861415e-01 
3711 3712 2 1.0279999939383342e+00 4.3355998212481518e+02 1.0000000000000000e+00 1.8740036485797322e+01 1.5421066366777104e+01 9.7658402297390234e-01 
2258 2259 2 1.0280000160263214e+00 1.0954476292115521e+03 1.0000000000000000e+00 2.0986768566242002e+01 1.5020914558600680e+01 1.2534165103517925e+00 
408 409 2 1.0279999882713173e+00 3.3983308740424229e+02 1.0000000000000000e+00 2.1666207113223610e+01 1.6382852497886109e+01 8.7415188368235730e-01 
1659 1660 2 1.0279999897023104e+00 9.5140043518962398e+02 1.0000000000000000e+00 2.4540302298659931e+01 1.6457521833999920e+01 4.4133907478300854e-01 
3751 3752 2 1.0279999969143940e+00 9.0675324417469665e+02 1.0000000000000000e+00 2.7529383012482985e+01 1.5229563143155465e+01 7.4365322886467122e-01 
3173 3174 2 1.0279999987244106e+00 1.3565956964180862e+03 1.0000000000000000e+00 7.2678982116992534e+00 1.8291385101828435e+01 4.3636414070827523e-01 
3780 3781 2 1.0279999985782136e+00 -2.3946956571735316e+02 1.0000000000000000e+00 8.8671461311123920e+00 1.6716436444850530e+01 6.2258470905110996e-02 
77 78 2 1.0279999825803765e+00 7.7162701925892691e+02 1.0000000000000000e+00 1.5981394576591605e+01 1.7976359287810954e+01 3.3127815676563649e-01 
4379 4380 2 1.0280000143029189e+00 6.6769764178525575e+03 1.0000000000000000e+00 1.5209876280389107e+01 1.8149940533158954e+01 1.5887925345852676e+00 
4445 4446 2 1.0280000060763741e+00 6.4050414686293961e+03 1.0000000000000000e+00 1.7010555011172599e+01 1.7927084292510589e+01 1.3067079263682699e+00 
3851 3852 2 1.0280000180195084e+00 1.3414404154323283e+03 1.0000000000000000e+00 1.9713479729051890e+01 1.8011481981420779e+01 9.3409989491552070e-01 
1917 1918 2 1.0279999956487011e+00 -3.2031820934669673e+02 1.0000000000000000e+00 1.8533374756305783e+01 1.7508422611244193e+01 1.4402392809820650e+00 
516 517 2 1.0280000094331294e+00 4.7117941149920063e+02 1.0000000000000000e+00 2.3142494561172462e+01 1.7126346897881035e+01 8.6376512293837837e-01 
3994 3995 2 1.0279999956986914e+00 -3.1806306886604893e+03 1.0000000000000000e+00 2.1721073911400996e+01 1.8168864932717909e+01 1.5492912897732052e+00 
3006 3007 2 1.0279999989515030e+00 -3.4550181087918236e+02 1.0000000000000000e+00 2.4467110590161440e+01 1.8249723191340099e+01 7.4402768826329069e-01 
1681 1682 2 1.0280000009464225e+00 -5.6511132094238690e+02 1.0000000000000000e+00 7.8912067888331929e+00 1.8810076636196566e+01 1.5353591767061499e+00 
274 275 2 1.0280000006755972e+00 4.2274907378134476e+03 1.0000000000000000e+00 8.7797552274845518e+00 1.8620707740502056e+01 1.3786848199368801e-01 
4497 4498 2 1.0280000038221038e+00 -1.1397015952003721e+03 1.0000000000000000e+00 1.7881072011048918e+01 1.9552895308469786e+01 1.2378129126718083e-01 
4560 4561 2 1.0279999940033848e+00 -6.9949633836703401e+02 1.0000000000000000e+00 2.1070668764287070e+01 1.8749917735768769e+01 3.1111630552791847e-01 
3088 3089 2 1.0280000000000000e+00 -1.6945071869424407e+02 1.0000000000000000e+00 1.1453810790654385e+01 1.2241990671916395e-01 3.1932885602689369e+00 
2217 2218 2 1.0280000058242278e+00 -5.3654890696730502e+02 1.0000000000000000e+00 1.7926157675017944e+01 7.5809293813911849e-01 2.2391616458074601e+00 
929 930 2 1.0280000066876325e+00 -7.8719001224668057e+02 1.0000000000000000e+00 1.7063434899902184e+01 1.0612828602418687e+00 3.1924694806273752e+00 
1176 1177 2 1.0280000052689409e+00 -9.4762355831952817e+01 1.0000000000000000e+00 1.9547360699124347e+01 8.1434053823280672e-01 2.2382302867144883e+00 
3099 3100 2 1.0280000076782903e+00 1.6146052948008742e+02 1.0000000000000000e+00 2.0653784997466953e+01 1.5252828456165082e+00 3.2170890651860113e+00 
979 980 2 1.0279999933052850e+00 6.6767860360071711e+02 1.0000000000000000e+00 2.2121912338888556e+01 1.3127029072591530e+00 2.6377492594103278e+00 
4392 4393 2 1.0279999900945451e+00 1.3714824571675057e+04 1.0000000000000000e+00 1.5865896033059743e+01 1.9587940972800351e+00 2.4245993893254831e+00 
3991 3992 2 1.0279999995466773e+00 -8.8856456627435193e+02 1.0000000000000000e+00 2.1339755393586000e+01 2.4209264586293187e+00 1.7309497348002456e+00 
1689 1690 2 1.0279999912021187e+00 -2.5072109902120169e+03 1.0000000000000000e+00 2.1889779826939023e+01 3.0149125951593905e+00 3.2399755678217455e+00 
1248 1249 2 1.0280000012162271e+00 3.7009095118886233e+02 1.0000000000000000e+00 1.3685143359580849e+01 4.1151933887025445e+00 2.0531190440705140e+00 
3876 3877 2 1.0279999970411990e+00 4.5813329555743775e+02 1.0000000000000000e+00 1.7029348610844718e+01 4.1325655626246798e+00 2.7578707592389828e+00 
2821 2822 2 1.0280000142399377e+00 7.4826892345420777e+02 1.0000000000000000e+00 1.8515153220319991e+01 4.5706072860213771e+00 2.1133196899155475e+00 
1648 1649 2 1.0279999908530999e+00 -7.0734883351624251e+02 1.0000000000000000e+00 2.2593160389234964e+01 4.9171068780791432e+00 3.3080698385035485e+00 
1078 1079 2 1.0280000000000000e+00 2.8033647205452098e+02 1.0000000000000000e+00 1.3631871860714651e-01 6.1509614393623551e+00 1.9077307287723750e+00 
1881 1882 2 1.0280000030688583e+00 -2.1146379020995464e+03 1.0000000000000000e+00 1.0885338336165718e+01 5.2073928678665471e+00 2.3993369883630438e+00 
1498 1499 2 1.0279999980337982e+00 -1.2029275815733192e+03 1.0000000000000000e+00 1.1798044720734932e+01 6.1677118414154251e+00 2.1631198847777195e+00 
313 314 2 1.0279999952910295e+00 -1.6887155522863545e+03 1.0000000000000000e+00 1.4781435008289542e+01 6.2588499950155780e+00 2.3766781958446388e+00 
3023 3024 2 1.0280000192970189e+00 3.1681983675232470e+02 1.0000000000000000e+00 1.5984562089592668e+01 6.4033901237862505e+00 3.0969200765739804e+00 
2285 2286 2 1.0280000106397349e+00 -4.7664050532257539e+02 1.0000000000000000e+00 1.7118880215831702e+01 5.5033976854878652e+00 2.2271275249821310e+00 
4567 4568 2 1.0279999866888148e+00 7.3346000097574984e+02 1.0000000000000000e+00 2.0603865024893672e+01 5.0168825113998254e+00 1.8700669489229860e+00 
804 805 2 1.0280000072217175e+00 -2.4785161719491907e+03 1.0000000000000000e+00 2.1324322148084423e+01 6.0272567365052456e+00 2.1888741578321871e+00 
649 650 2 1.0280000023463651e+00 -1.6535357658529151e+03 1.0000000000000000e+00 2.2979096327078924e+01 5.2209491733005642e+00 1.9211752274215155e+00 
1484 1485 2 1.0279999999507421e+00 -1.8201497506919923e+03 1.0000000000000000e+00 2.2984856002400750e+01 6.2962869158549486e+00 2.9639823791336473e+00 
2218 2219 2 1.0280000003264216e+00 -1.7861472478717924e+03 1.0000000000000000e+00 1.7722922909231922e+01 8.2538119171327189e+00 2.2930443584952602e+00 
4449 4450 2 1.0280000029792646e+00 2.9864119456720059e+03 1.0000000000000000e+00 1.9518721036569882e+01 7.4736482126937478e+00 1.8798433874598124e+00 
3205 3206 2 1.0280000000000014e+00 -8.5064615709742566e+02 1.0000000000000000e+00 2.7978631395164630e+01 8.1499896161051097e+00 1.8782821329041668e+00 
2869 2870 2 1.0280000000000014e+00 -7.7131546188216305e+01 1.0000000000000000e+00 2.8088944494517531e+01 7.1073314841449564e+00 2.3344269097319366e+00 
3220 3221 2 1.0279999999628737e+00 -6.5151651728700097e+02 1.0000000000000000e+00 1.6452222449873382e+01 8.4984331092268910e+00 3.2049444154638369e+00 
4087 4088 2 1.0280000010475296e+00 7.2116153121059529e+02 1.0000000000000000e+00 1.7212370639256278e+01 9.7184894484383690e+00 3.2390549029947633e+00 
2399 2400 2 1.0279999996506151e+00 4.0737003545496634e+02 1.0000000000000000e+00 1.9639835169866551e+01 8.4389736624447416e+00 3.1542468868678424e+00 
2 3 2 1.0280000004782841e+00 1.7339318042946288e+03 1.0000000000000000e+00 6.7362905199351308e+00 1.1468707120016763e+01 3.1780340012668615e+00 
2518 2519 2 1.0279999969204006e+00 -7.2683879853777921e+02 1.0000000000000000e+00 1.0648891867376417e+01 1.0243048275146533e+01 1.6848314717210378e+00 
4361 4362 2 1.0279999963588156e+00 5.8300280442638268e+03 1.0000000000000000e+00 1.0233211779899687e+01 1.1526071019909779e+01 2.5661661344036917e+00 
683 684 2 1.0280000015838806e+00 3.9917754550295967e+03 1.0000000000000000e+00 1.0929456319912770e+01 1.0046698029933481e+01 3.3186555412736469e+00 
2397 2398 2 1.0279999946661771e+00 4.9972313234471193e+02 1.0000000000000000e+00 1.5821643233109727e+01 1.1280642585683815e+01 3.2106713194516860e+00 
2317 2318 2 1.0280000019339830e+00 4.3482264948815941e+02 1.0000000000000000e+00 1.8675372449178557e+01 1.0050876245396232e+01 2.5144209545368308e+00 
4355 4356 2 1.0280000015420636e+00 3.4894866410911072e+03 1.0000000000000000e+00 2.0186754326491588e+01 1.0716895578020139e+01 2.8944742808985988e+00 
406 407 2 1.0279999777227413e+00 -9.0687353791560008e+02 1.0000000000000000e+00 2.6108055289482760e+01 1.1186604180337941e+01 2.3326904383778047e+00 
1327 1328 2 1.0280004472076483e+00 -9.8538415076281433e+02 1.0000000000000000e+00 2.8540603184695204e+01 1.1067828820587577e+01 1.8876852507378963e+00 
1467 1468 2 1.0280000029375600e+00 1.3098005623858504e+02 1.0000000000000000e+00 6.8353013499750963e+00 1.2504482672981929e+01 2.4912995206524280e+00 
1912 1913 2 1.0279999985294681e+00 -1.2544472801587299e+03 1.0000000000000000e+00 8.7795790011518076e+00 1.2730519406758333e+01 2.7052267839650641e+00 
533 534 2 1.0279999996707334e+00 -4.9543274104053711e+02 1.0000000000000000e+00 1.5320710201488229e+01 1.2564998992637301e+01 1.6955256991102985e+00 
4517 4518 2 1.0279999956185653e+00 -1.6578058017781173e+03 1.0000000000000000e+00 1.7600038833565623e+01 1.2087142638841291e+01 1.9976209817778763e+00 
1586 1587 2 1.0280000140343120e+00 1.1372959596504227e+03 1.0000000000000000e+00 2.6483383100233397e+01 1.2414627581335614e+01 1.8335742106895359e+00 
1670 1671 2 1.0279999969187463e+00 8.8792963979431727e+02 1.0000000000000000e+00 1.4042952920370395e+01 1.4434008923980123e+01 1.9303625722842059e+00 
1853 1854 2 1.0279999938078732e+00 -1.2697192219664937e+03 1.0000000000000000e+00 1.8600950800894850e+01 1.4408527444679642e+01 2.1676042823140507e+00 
135 136 2 1.0280000114712742e+00 -2.0351036378504725e+02 1.0000000000000000e+00 2.0436837115994791e+01 1.4258596184504762e+01 2.8096443977026464e+00 
1241 1242 2 1.0279999773904023e+00 1.3024138239787405e+03 1.0000000000000000e+00 2.6853261314653146e+01 1.3789570438083956e+01 2.6659311791511504e+00 
3057 3058 2 1.0280000035052113e+00 -9.8025558397555221e+02 1.0000000000000000e+00 1.4401474285976061e+01 1.5385049021018249e+01 2.8306527280063558e+00 
2986 2987 2 1.0280000060245922e+00 3.4372728949082757e+03 1.0000000000000000e+00 1.8493986019068743e+01 1.5677106508835161e+01 2.7900598243260450e+00 
2095 2096 2 1.0279999976111427e+00 -6.0870767941852898e+02 1.0000000000000000e+00 2.0256304769080511e+01 1.5753714614441021e+01 2.5697170324561336e+00 
3899 3900 2 1.0279999998379050e+00 -5.5508024834014554e+02 1.0000000000000000e+00 2.1817830427572058e+01 1.6585032523326792e+01 2.7404719877323567e+00 
1775 1776 2 1.0279999972110192e+00 2.1808383570800315e+03 1.0000000000000000e+00 1.3871277925514455e+01 1.7043852734732734e+01 2.8458999030016918e+00 
4180 4181 2 1.0280000008259713e+00 1.2832750680786410e+03 1.0000000000000000e+00 1.8014211336503575e+01 1.8250116985842233e+01 3.1936420926707716e+00 
2141 2142 2 1.0279999831029358e+00 -2.7838718742414329e+02 1.0000000000000000e+00 2.0181643536491571e+01 1.8273234942628410e+01 2.7709985474728720e+00 
3714 3715 2 1.0279999979487073e+00 3.7642525414089562e+02 1.0000000000000000e+00 2.6513818478231329e+01 1.7378888742401298e+01 2.4656714967602422e+00 
3999 4000 2 1.0280000064024011e+00 -7.0112546598402071e+02 1.0000000000000000e+00 2.5289972115666323e+01 1.6960109325221811e+01 2.7203709037141786e+00 
42 43 2 1.0279999955854551e+00 -2.3427350886732538e+03 1.0000000000000000e+00 1.3876658136807395e+01 1.9942090559329959e+01 2.1121504814972831e+00 
2233 2234 2 1.0280000034505086e+00 -2.0675837990898071e+03 1.0000000000000000e+00 1.3460309309008549e+01 1.8471710572749647e+01 2.4474801206170356e+00 
999 1000 2 1.0279999865637304e+00 3.7110658419030557e+02 1.0000000000000000e+00 1.5034728994285651e+01 1.8949541641609954e+01 2.9032513535118256e+00 
2268 2269 2 1.0280000096548922e+00 8.9533403516256817e+02 1.0000000000000000e+00 1.9415834413177933e+01 1.9219983495087252e+01 2.5784597747636857e+00 
1630 1631 2 1.0280000053942666e+00 1.2609437615976983e+03 1.0000000000000000e+00 2.3242528733328104e+01 1.8597070802067861e+01 1.8280899350134576e+00 
930 931 2 1.0279999896697174e+00 1.4071833757227071e+03 1.0000000000000000e+00 2.4432207874626528e+01 1.9859712130491200e+01 2.1491833069793698e+00 
3605 3606 2 1.0279999936461035e+00 6.8502314237735004e+02 1.0000000000000000e+00 2.5933192777268726e+01 1.8870526339523423e+01 2.5799810881395939e+00 
566 567 2 1.0280000000000000e+00 1.5284126371904831e+03 1.0000000000000000e+00 1.0863666347122255e+01 5.9806434296304320e-02 4.1706227437998544e+00 
526 527 2 1.0280000072953566e+00 2.8471244832086632e+02 1.0000000000000000e+00 1.5418973639024399e+01 1.7592861893987102e+00 3.8765281000819796e+00 
1359 1360 2 1.0280000002871543e+00 -3.1943638392516573e+03 1.0000000000000000e+00 1.6025929394932731e+01 3.0775510840610272e+00 3.5683967785426471e+00 
3823 3824 2 1.0279999995914069e+00 -9.6782604319413247e+02 1.0000000000000000e+00 2.0793540912270178e+01 3.1598395711617702e+00 4.0935451790410857e+00 
2490 2491 2 1.0280005079415355e+00 -1.3855910254683361e+03 1.0000000000000000e+00 2.4315284805554683e+01 2.7952438999878906e+00 3.5634649779149727e+00 
1059 1060 2 1.0279994919848703e+00 -1.2795116975381684e+03 1.0000000000000000e+00 2.5080169521273863e+01 2.0486581728244269e+00 3.9695884973404318e+00 
3916 3917 2 1.0280000000000153e+00 8.1409740562937247e+02 1.0000000000000000e+00 2.7865293175842108e+01 2.6877937463289157e+00 4.0117757093916326e+00 
3465 3466 2 1.0280000068402166e+00 -5.8831983199660328e+02 1.0000000000000000e+00 9.5816266153752352e+00 4.5203228749128153e+00 3.9471734674942027e+00 
1611 1612 2 1.0279999961459236e+00 2.0525680132978214e+03 1.0000000000000000e+00 9.0305236296743185e+00 3.6033623781583795e+00 4.3873509295170612e+00 
3147 3148 2 1.0279999909057089e+00 1.7293950128847648e+01 1.0000000000000000e+00 1.2569231563665427e+01 4.8206910009920509e+00 3.6855543325463889e+00 
4439 4440 2 1.0280000084278613e+00 1.8205534381517941e+03 1.0000000000000000e+00 1.9834661215710987e+01 4.3314007251567173e+00 3.3412546074677958e+00 
3709 3710 2 1.0279999954006394e+00 -8.8973549635163238e+02 1.0000000000000000e+00 1.8581633593218218e+01 4.9983963296485490e+00 3.5729904447216243e+00 
654 655 2 1.0280000000000007e+00 -1.5255124477207764e+03 1.0000000000000000e+00 3.0305563631342206e+01 4.9501239553318195e+00 3.5646758105902818e+00 
1997 1998 2 1.0280000000000007e+00 1.2951650449512749e+02 1.0000000000000000e+00 3.0699575449698528e+01 4.9438223552302674e+00 4.6380294309272339e+00 
4140 4141 2 1.0280000001753817e+00 -4.5631232640374139e+02 1.0000000000000000e+00 1.1157709039688179e+01 6.1638404834596825e+00 3.6362304060860358e+00 
611 612 2 1.0280000119416495e+00 7.6580297484994537e+02 1.0000000000000000e+00 1.2843655840325342e+01 5.6508077991383576e+00 4.5052843531317848e+00 
2456 2457 2 1.0279999883903359e+00 1.3033265693884394e+02 1.0000000000000000e+00 1.5586062442275622e+01 5.4319301608105039e+00 4.7332339746734942e+00 
620 621 2 1.0280000007653605e+00 -3.4299441961559029e+02 1.0000000000000000e+00 1.1890822546487776e+01 7.6471865304650208e+00 3.6105201408036058e+00 
2615 2616 2 1.0280000051183964e+00 4.7112722574470166e+02 1.0000000000000000e+00 1.3570281070805763e+01 7.5796473268295887e+00 3.6552263282115525e+00 
1515 1516 2 1.0280000015462663e+00 -4.2367666569532929e+02 1.0000000000000000e+00 1.4457855241138491e+01 6.8392775403921524e+00 4.2446177643434950e+00 
3930 3931 2 1.0279999989731103e+00 1.4481741881694807e+03 1.0000000000000000e+00 2.1285195449903441e+01 8.2301494692995814e+00 4.0951885694479673e+00 
1201 1202 2 1.0280000000000000e+00 -8.0150235661638862e+02 1.0000000000000000e+00 3.3231088536644151e+01 7.5716360078990448e+00 3.7947954676983469e+00 
1125 1126 2 1.0280000007831052e+00 5.0427275206449121e+02 1.0000000000000000e+00 9.9392530779599557e+00 9.4305872353082538e+00 4.9880645633717444e+00 
4203 4204 2 1.0279999983637071e+00 2.0089017972537195e+03 1.0000000000000000e+00 1.2198759154026323e+01 9.1730200478812627e+00 3.6190263640878864e+00 
3431 3432 2 1.0280000005558358e+00 -1.4188342464960854e+03 1.0000000000000000e+00 1.5710742802263043e+01 8.6000528192256649e+00 4.9668528576999780e+00 
949 950 2 1.0280000009441133e+00 1.9713259299045287e+03 1.0000000000000000e+00 1.9766893923994118e+01 9.0415945434532077e+00 4.4351770172750387e+00 
3367 3368 2 1.0279999882823803e+00 4.0666618326478726e+02 1.0000000000000000e+00 2.4463655003055134e+01 9.4630946305527566e+00 3.5138672430612456e+00 
2812 2813 2 1.0279999971624456e+00 9.6421975957822941e+00 1.0000000000000000e+00 8.7916911199204240e+00 1.0246920965520497e+01 4.9061991726163834e+00 
1770 1771 2 1.0279999986124329e+00 9.8194262176256052e+02 1.0000000000000000e+00 1.0834530887266618e+01 1.1124348140588941e+01 4.6869403095190023e+00 
1537 1538 2 1.0279999995969680e+00 -2.4327043020556339e+03 1.0000000000000000e+00 1.2290428450712565e+01 1.1003980685659041e+01 4.3037757699655383e+00 
625 626 2 1.0279999980887911e+00 1.5482640611140976e+03 1.0000000000000000e+00 1.9623439865109223e+01 1.1326776506399140e+01 3.8510863349111175e+00 
2463 2464 2 1.0280000123425577e+00 -4.2019123854208732e+02 1.0000000000000000e+00 2.4019007414802456e+01 1.0522906069605988e+01 3.6401040584294604e+00 
1473 1474 2 1.0279999971429079e+00 1.6509255458818600e+03 1.0000000000000000e+00 7.1722496757494731e+00 1.3273692868270647e+01 4.0927219523906340e+00 
3724 3725 2 1.0280000005932211e+00 6.8165996544496954e+02 1.0000000000000000e+00 7.0116065234885960e+00 1.1903817225278946e+01 4.8684196519104743e+00 
4441 4442 2 1.0280000019010787e+00 1.0623285733139110e+03 1.0000000000000000e+00 9.5379955665132385e+00 1.1866533276769491e+01 3.8101634035667842e+00 
662 663 2 1.0280000009282921e+00 -4.1973922342986867e+01 1.0000000000000000e+00 1.2121603946589921e+01 1.2471258318645386e+01 4.2154002565206348e+00 
2467 2468 2 1.0280000008388124e+00 1.1789953670786883e+03 1.0000000000000000e+00 1.4336207845091673e+01 1.1918319115670675e+01 3.9853947171359527e+00 
2133 2134 2 1.0279999957956663e+00 -1.1235843541635370e+03 1.0000000000000000e+00 1.4940370707725890e+01 1.3113150663773935e+01 4.8110878379112814e+00 
3481 3482 2 1.0280000086714158e+00 -1.3715698874667380e+03 1.0000000000000000e+00 1.6407607322569106e+01 1.2406325113833121e+01 3.5975551090943747e+00 
1819 1820 2 1.0279999957114736e+00 -8.2216405252340064e+02 1.0000000000000000e+00 1.8112857873754241e+01 1.2501487888573093e+01 4.1127028265489853e+00 
876 877 2 1.0280000179881441e+00 7.9896565335816729e+02 1.0000000000000000e+00 1.9525481920341203e+01 1.3261015598188873e+01 3.6416582368507417e+00 
2048 2049 2 1.0280000246910501e+00 -1.2976505446342808e+03 1.0000000000000000e+00 2.5881748309133819e+01 1.1976040726991528e+01 3.6162160384828463e+00 
3629 3630 2 1.0279999822051846e+00 7.4554208728019532e+01 1.0000000000000000e+00 2.5460948515681640e+01 1.2798755594997974e+01 4.7012351007311777e+00 
637 638 2 1.0280000013564174e+00 -2.4608621202347314e+02 1.0000000000000000e+00 8.6912550474062105e+00 1.3994675403390993e+01 3.3460548433038872e+00 
3392 3393 2 1.0279999986886026e+00 -3.8776608329828429e+02 1.0000000000000000e+00 1.0858310703936603e+01 1.4868313221979182e+01 4.5895111896302883e+00 
380 381 2 1.0279999981681329e+00 -3.2069536797645105e+02 1.0000000000000000e+00 1.2084840027571923e+01 1.4380899927897028e+01 4.1520722790658589e+00 
3263 3264 2 1.0280000032319090e+00 -8.4182408305053389e+02 1.0000000000000000e+00 1.3391363478048213e+01 1.3487854244037159e+01 3.5147694180209541e+00 
2211 2212 2 1.0279999982468324e+00 3.1870174020617100e+02 1.0000000000000000e+00 1.4253526707664436e+01 1.4387676706348469e+01 4.3091525952648277e+00 
1625 1626 2 1.0279999862946145e+00 2.7192011957882573e+03 1.0000000000000000e+00 1.9286320869936247e+01 1.4945172572833593e+01 4.1336321238268177e+00 
2311 2312 2 1.0279999877331247e+00 1.0051888461697597e+03 1.0000000000000000e+00 2.2531141071457352e+01 1.4287138470184646e+01 4.6052757237208191e+00 
2593 2594 2 1.0280000043981610e+00 -1.2437434111081873e+03 1.0000000000000000e+00 2.6147937705885084e+01 1.4649784322316602e+01 4.6656464715287118e+00 
2373 2374 2 1.0280000043240145e+00 -1.7482994533920057e+03 1.0000000000000000e+00 2.7732058280371238e+01 1.4274905070737834e+01 3.7709704344418302e+00 
3793 3794 2 1.0280000027523237e+00 2.0310626140111456e+03 1.0000000000000000e+00 8.1185926210315440e+00 1.5490577702198586e+01 3.7985131417481726e+00 
3632 3633 2 1.0279999984843120e+00 -3.2232557212162226e+02 1.0000000000000000e+00 9.7966229592393272e+00 1.5466687555165841e+01 3.6002022262697215e+00 
2521 2522 2 1.0279999972907778e+00 1.1871768715563394e+03 1.0000000000000000e+00 1.6489080159403596e+01 1.6634198843186798e+01 4.5462677809064056e+00 
884 885 2 1.0280000009322918e+00 5.7826079555692466e+01 1.0000000000000000e+00 2.1694082303025564e+01 1.5487153397474861e+01 4.2519934931993051e+00 
3478 3479 2 1.0279999976028211e+00 -7.2539569847184896e+02 1.0000000000000000e+00 2.6555630900894883e+01 1.6042730653003964e+01 4.8804222463660114e+00 
1649 1650 2 1.0280000102091593e+00 2.1453916783646323e+03 1.0000000000000000e+00 2.8501109987201144e+01 1.5580605105629955e+01 3.9354713610664107e+00 
1388 1389 2 1.0279999988814215e+00 4.4303667006362559e+02 1.0000000000000000e+00 8.8014854767883897e+00 1.6750163502868318e+01 4.0612250488347783e+00 
2890 2891 2 1.0280000065569623e+00 -4.3932543043389228e+02 1.0000000000000000e+00 1.0609164007422930e+01 1.6940820222654235e+01 4.6427487782116730e+00 
467 468 2 1.0280000046899169e+00 -1.8314167682285529e+02 1.0000000000000000e+00 1.0899086368948176e+01 1.8159958774337781e+01 4.8677614935233011e+00 
1718 1719 2 1.0279999975816956e+00 1.3238472185645597e+02 1.0000000000000000e+00 1.2561433777911788e+01 1.8312579853431494e+01 4.4066464516179051e+00 
3509 3510 2 1.0280000085062364e+00 -3.6258508889160504e+02 1.0000000000000000e+00 1.4329920034519342e+01 1.8043575770000768e+01 4.8675778313193216e+00 
4474 4475 2 1.0279999974322593e+00 9.9875959083786597e+01 1.0000000000000000e+00 1.5011905907857566e+01 1.7013947047111504e+01 3.8290060759157964e+00 
721 722 2 1.0280000024223428e+00 -3.2714196815253888e+02 1.0000000000000000e+00 1.6880931324533059e+01 1.8287280557298320e+01 3.7513301981891223e+00 
3399 3400 2 1.0279999921289422e+00 -2.1651100065500059e+03 1.0000000000000000e+00 2.1727394373259980e+01 1.7389179084075682e+01 3.8461609233296095e+00 
3891 3892 2 1.0279999971561342e+00 -4.6244903619239517e+02 1.0000000000000000e+00 2.4592065510981573e+01 1.7430632325318157e+01 4.1286361220448873e+00 
185 186 2 1.0280000109972209e+00 3.6323193996396770e+02 1.0000000000000000e+00 2.3570904359305878e+01 1.8292747843571291e+01 4.8408196561777599e+00 
4221 4222 2 1.0279999935063870e+00 -1.5751189607063862e+01 1.0000000000000000e+00 2.8719028073004537e+01 1.7046815646768668e+01 4.6810717424805004e+00 
3630 3631 2 1.0280000023773763e+00 -1.6281577963238902e+02 1.0000000000000000e+00 1.1776771601379187e+01 1.9929031545415491e+01 4.5397170773911233e+00 
4216 4217 2 1.0280000021103410e+00 -4.7121255954779713e+02 1.0000000000000000e+00 1.5533047793765892e+01 1.9209222632072862e+01 4.6291267685290522e+00 
1218 1219 2 1.0279999932146098e+00 -4.8729516884013623e+02 1.0000000000000000e+00 1.8703255920712738e+01 1.9938564582421229e+01 4.6770641171821961e+00 
4330 4331 2 1.0280000994848535e+00 4.4053709523594916e+03 1.0000000000000000e+00 1.8009419719136151e+01 6.6805891620218527e-01 5.4401795596985432e+00 
3409 3410 2 1.0279999005188656e+00 -5.1413778643320825e+02 1.0000000000000000e+00 1.7138668619463552e+01 9.9513657126635491e-01 6.1051504787602164e+00 
2036 2037 2 1.0280000090165575e+00 -1.5154576939151793e+03 1.0000000000000000e+00 2.1515045792839516e+01 1.0408266187968040e+00 6.1342636290959689e+00 
3170 3171 2 1.0279999999053420e+00 1.2037637926804355e+03 1.0000000000000000e+00 1.1866084801912409e+01 2.8760185890328724e+00 5.3474352820386457e+00 
508 509 2 1.0280000015787956e+00 -4.9057412191653810e+02 1.0000000000000000e+00 1.2530936223132315e+01 1.9322798025856818e+00 6.4198572807875971e+00 