LAMMPS data file via write_data, version 30 Jul 2016, timestep = 50400000

4620 atoms
8 atom types

0.0000000000000000e+00 1.0000000000000000e+02 xlo xhi
0.0000000000000000e+00 4.0000000000000000e+01 ylo yhi
0.0000000000000000e+00 4.0000000000000000e+01 zlo zhi

Masses

1 3.896
2 5.36
3 20.064
4 8.378
5 8.378
6 8.378
7 8.378
8 8.378

Atoms # meso-molecular

2863 2864 2 1.0279999980526928e+00 7.0210358955420986e+02 1.0000000000000000e+00 1.6094446947136873e+01 5.3297795050357422e-01 8.1835074564912003e-01 
3382 3383 2 1.0280000026184446e+00 8.1872526656241371e+02 1.0000000000000000e+00 2.1347209296192766e+01 3.3839224429566456e-01 1.1919660452214711e+00 
2753 2754 2 1.0279998944968316e+00 -2.1903095898651461e+02 1.0000000000000000e+00 6.9217822289965847e+00 1.6927370370743229e+00 8.2908867758008198e-01 
3991 3992 2 1.0280000027074339e+00 -8.8856456599055105e+02 1.0000000000000000e+00 2.1319552806894741e+01 2.4696765333624628e+00 1.3076430949203950e+00 
1378 1379 2 1.0279999970326350e+00 -7.6768886906466355e+02 1.0000000000000000e+00 1.4741256682275960e+01 4.0888335677686767e+00 1.1533363617024495e+00 
1248 1249 2 1.0280000025949583e+00 3.7009095123433707e+02 1.0000000000000000e+00 1.3695419208475723e+01 4.1774540176000343e+00 1.6552195631672555e+00 
4353 4354 2 1.0280000000000000e+00 1.3122891014743814e+03 1.0000000000000000e+00 5.0256597302422956e-01 6.4151928517195875e+00 7.0839722811013817e-01 
4567 4568 2 1.0279999996717442e+00 7.3346000181973318e+02 1.0000000000000000e+00 2.0584689944513322e+01 5.0701742138908745e+00 1.4469976446355075e+00 
649 650 2 1.0280000004171572e+00 -1.6535357658529151e+03 1.0000000000000000e+00 2.2958849058882738e+01 5.2752764124656997e+00 1.4960431114909090e+00 
2606 2607 2 1.0280000001584939e+00 5.6610463515305264e+02 1.0000000000000000e+00 1.0564377563327980e+01 7.5600119718218579e+00 6.3028778330104773e-01 
2710 2711 2 1.0280000005042857e+00 -1.5777368096484040e+03 1.0000000000000000e+00 1.4397032008248686e+01 7.4090179536122021e+00 6.4323815205056301e-01 
3317 3318 2 1.0280000014382538e+00 -1.4277212030433959e+03 1.0000000000000000e+00 1.5738822622136363e+01 7.3605389954161318e+00 1.0688433469466896e+00 
1217 1218 2 1.0279999984812087e+00 3.6692544090355761e+02 1.0000000000000000e+00 1.8322832035618358e+01 6.9816220876998134e+00 1.1986090856271916e+00 
4449 4450 2 1.0280000012202801e+00 2.9864119465031499e+03 1.0000000000000000e+00 1.9520584839411224e+01 7.5277990579702179e+00 1.4805387393461724e+00 
3205 3206 2 1.0280000000000014e+00 -8.5064615709742566e+02 1.0000000000000000e+00 2.7830024107622339e+01 8.0674593074735199e+00 1.5165492917121584e+00 
1743 1744 2 1.0279999999999996e+00 -6.1885085299969683e+02 1.0000000000000000e+00 2.6163674498048120e+00 8.3759252617338387e+00 1.6118944555767349e+00 
1900 1901 2 1.0279999999999996e+00 -2.5145040969202482e+03 1.0000000000000000e+00 2.7443061740349490e+00 8.6260684823182920e+00 5.0354745689051839e-01 
2394 2395 2 1.0280000014449540e+00 8.2484536836208940e+02 1.0000000000000000e+00 1.6654896267458497e+01 9.3504813478264808e+00 9.4535714603486687e-01 
2411 2412 2 1.0280000000000000e+00 -2.0591427671135216e+02 1.0000000000000000e+00 4.8763234700995639e+00 1.1144850684374250e+01 1.0860963387833549e+00 
434 435 2 1.0280000000000000e+00 1.9044935258235464e+03 1.0000000000000000e+00 5.5645741538292519e+00 1.0955747495975043e+01 1.9283042208127277e-01 
2518 2519 2 1.0279999978752961e+00 -7.2683879842915121e+02 1.0000000000000000e+00 1.0658244948229129e+01 1.0305245712939518e+01 1.2930360674609658e+00 
3671 3672 2 1.0280000003668024e+00 -5.7841764545356352e+02 1.0000000000000000e+00 1.7767959782029937e+01 1.0594278854730808e+01 1.0437838569278686e+00 
2246 2247 2 1.0279993888810766e+00 -7.0233182206810397e+02 1.0000000000000000e+00 2.8550498761782169e+01 1.0918382816989169e+01 3.8524553947669443e-01 
1327 1328 2 1.0280006110619546e+00 -9.8538413118722235e+02 1.0000000000000000e+00 2.8593581235098632e+01 1.1264189699030361e+01 1.4742529457762767e+00 
3024 3025 2 1.0279999996096836e+00 -6.8842249005979393e+03 1.0000000000000000e+00 1.1511273904125613e+01 1.3071705790289963e+01 8.5122526213768701e-02 
1505 1506 2 1.0280000042471413e+00 -4.1007827906075825e+01 1.0000000000000000e+00 1.2377459830168760e+01 1.1887138446800112e+01 3.0505309750417697e-01 
4434 4435 2 1.0280000004448089e+00 -4.0378445060579379e+03 1.0000000000000000e+00 1.3958424542214505e+01 1.2460008543592826e+01 9.9677332289521858e-01 
533 534 2 1.0279999995144640e+00 -4.9543274089559657e+02 1.0000000000000000e+00 1.5328628367737606e+01 1.2620662641922848e+01 1.3034819215503368e+00 
713 714 2 1.0280000030568837e+00 -8.9334045153957027e+02 1.0000000000000000e+00 1.6883736986838745e+01 1.3265282947929567e+01 1.2479565018855223e+00 
4517 4518 2 1.0279999963658313e+00 -1.6578058015356066e+03 1.0000000000000000e+00 1.7607716716573719e+01 1.2141345626165320e+01 1.6061821004824037e+00 
2816 2817 2 1.0280000089183363e+00 -9.7734865827417559e+02 1.0000000000000000e+00 2.3200123842056747e+01 1.2004019770450972e+01 1.3397968137429125e-01 
4166 4167 2 1.0279999908675266e+00 6.1387279975273270e+02 1.0000000000000000e+00 2.2454426211895694e+01 1.2730152865474448e+01 7.2997347549573610e-01 
1586 1587 2 1.0280000142201433e+00 1.1372959945438527e+03 1.0000000000000000e+00 2.6445580847313149e+01 1.2452424487148482e+01 1.4815647489762476e+00 
2063 2064 2 1.0280000006749084e+00 -2.4816037038535496e+03 1.0000000000000000e+00 1.2636377256869482e+01 1.4115397821728410e+01 8.4281083049325600e-01 
1670 1671 2 1.0279999982523866e+00 8.8792963988526674e+02 1.0000000000000000e+00 1.4052034817451100e+01 1.4491643372413600e+01 1.5370850514125094e+00 
1846 1847 2 1.0279999996526250e+00 -1.0133037210279626e+02 1.0000000000000000e+00 1.5955364282085290e+01 1.4469629589500752e+01 1.8876981599496515e-01 
4420 4421 2 1.0279999972670200e+00 -6.9311899868149078e+02 1.0000000000000000e+00 2.6746008471061497e+01 1.4201160025630092e+01 7.5687708218334382e-01 
3307 3308 2 1.0279999990838686e+00 5.3316084669966233e+02 1.0000000000000000e+00 1.1278185567691095e+01 1.5119773192152488e+01 7.3018903270833924e-01 
3459 3460 2 1.0280000053256428e+00 -3.3200225745451839e+03 1.0000000000000000e+00 1.6754333433694352e+01 1.5643395283097023e+01 4.8048320640234460e-01 
3711 3712 2 1.0279999945407974e+00 4.3355998258252743e+02 1.0000000000000000e+00 1.8746928238015940e+01 1.5470590597603781e+01 5.9271182889587382e-01 
2258 2259 2 1.0280000119895720e+00 1.0954476304017126e+03 1.0000000000000000e+00 2.0991215233897453e+01 1.5063243898784689e+01 8.7380403073106649e-01 
408 409 2 1.0279999909502691e+00 3.3983308879006756e+02 1.0000000000000000e+00 2.1670255133800350e+01 1.6424496944665407e+01 4.9610543746491420e-01 
1659 1660 2 1.0279999924317960e+00 9.5140043583695240e+02 1.0000000000000000e+00 2.4544844241107715e+01 1.6492784605981690e+01 6.9665277634585909e-02 
3751 3752 2 1.0279999954182995e+00 9.0675324768386213e+02 1.0000000000000000e+00 2.7521741847407295e+01 1.5257469972573405e+01 3.9160990959756803e-01 
4379 4380 2 1.0280000121271979e+00 6.6769764178554378e+03 1.0000000000000000e+00 1.5217498290869422e+01 1.8205765268027225e+01 1.1918346549230501e+00 
4445 4446 2 1.0280000047573183e+00 6.4050414702220969e+03 1.0000000000000000e+00 1.7018045863380387e+01 1.7978820896254653e+01 9.1207813517902070e-01 
3851 3852 2 1.0280000149564328e+00 1.3414404163193999e+03 1.0000000000000000e+00 1.9720835373862119e+01 1.8055713573815318e+01 5.4962487848560149e-01 
1917 1918 2 1.0279999967530196e+00 -3.2031820778376925e+02 1.0000000000000000e+00 1.8538699888419298e+01 1.7554058293093945e+01 1.0538008543315716e+00 
516 517 2 1.0280000076772076e+00 4.7117941225282522e+02 1.0000000000000000e+00 2.3146669447772517e+01 1.7161654070108611e+01 4.8915334484813805e-01 
3994 3995 2 1.0279999963304429e+00 -3.1806306878036357e+03 1.0000000000000000e+00 2.1726017443104009e+01 1.8208719608724142e+01 1.1716716770431943e+00 
3006 3007 2 1.0279999987790598e+00 -3.4550181070129003e+02 1.0000000000000000e+00 2.4473143268489711e+01 1.8285447965154290e+01 3.7252009862873853e-01 
3173 3174 2 1.0279999989268438e+00 1.3565956964776233e+03 1.0000000000000000e+00 7.2812165988035256e+00 1.8383858603011049e+01 7.0818401230509009e-03 
1681 1682 2 1.0280000007659011e+00 -5.6511132091510012e+02 1.0000000000000000e+00 7.9041634650009494e+00 1.8902452383947111e+01 1.1062103650933583e+00 
1630 1631 2 1.0280000045905207e+00 1.2609437620609224e+03 1.0000000000000000e+00 2.3248397056098362e+01 1.8634053578592258e+01 1.4549472006660038e+00 
3088 3089 2 1.0280000000000000e+00 -1.6945071869424407e+02 1.0000000000000000e+00 1.1412742586528081e+01 1.5154105161566980e-01 2.7169757872233307e+00 
2217 2218 2 1.0279999987838306e+00 -5.3654890673113960e+02 1.0000000000000000e+00 1.7912311557822392e+01 8.0537432296999967e-01 1.8127331722299813e+00 
929 930 2 1.0280000040133344e+00 -7.8719001190288225e+02 1.0000000000000000e+00 1.7050123729070265e+01 1.1097661755410484e+00 2.7683702739805160e+00 
1176 1177 2 1.0280000008316277e+00 -9.4762355122147682e+01 1.0000000000000000e+00 1.9531755498334523e+01 8.6045019803455214e-01 1.8122335404274739e+00 
3099 3100 2 1.0280000020159745e+00 1.6146053034427626e+02 1.0000000000000000e+00 2.0634381737112438e+01 1.5726344600160804e+00 2.7942571920288919e+00 
979 980 2 1.0279999970632221e+00 6.6767860440202378e+02 1.0000000000000000e+00 2.2101585958403039e+01 1.3616377831693933e+00 2.2142382982686604e+00 
4392 4393 2 1.0279999931048491e+00 1.3714824571848481e+04 1.0000000000000000e+00 1.5855013630636636e+01 2.0082766737824169e+00 2.0029100121081962e+00 
1359 1360 2 1.0280000010395607e+00 -3.1943638387718670e+03 1.0000000000000000e+00 1.6014814336120772e+01 3.1283578597547579e+00 3.1466315434221985e+00 
1689 1690 2 1.0279999973298586e+00 -2.5072109894560335e+03 1.0000000000000000e+00 2.1867255980988077e+01 3.0633514481078410e+00 2.8171169649427368e+00 
2490 2491 2 1.0280000000000000e+00 -1.3855910254335363e+03 1.0000000000000000e+00 2.4431273140331434e+01 2.6788236439044049e+00 3.1825182935009928e+00 
3147 3148 2 1.0279999947083205e+00 1.7293950188201563e+01 1.0000000000000000e+00 1.2577781504209156e+01 4.8798364035921811e+00 3.2869094693312526e+00 
3876 3877 2 1.0280000022266345e+00 4.5813329649708635e+02 1.0000000000000000e+00 1.7016311666891962e+01 4.1858916470957404e+00 2.3408400572404680e+00 
2821 2822 2 1.0280000060496270e+00 7.4826892482540177e+02 1.0000000000000000e+00 1.8501896444685322e+01 4.6243360360561443e+00 1.6932167842950547e+00 
4439 4440 2 1.0280000024219720e+00 1.8205534391768476e+03 1.0000000000000000e+00 1.9817558437080393e+01 4.3844036006877367e+00 2.9217125822847345e+00 
1648 1649 2 1.0279999979242440e+00 -7.0734883303623894e+02 1.0000000000000000e+00 2.2572587368537242e+01 4.9718535783095232e+00 2.8821915198563950e+00 
1881 1882 2 1.0280000014461714e+00 -2.1146379020995464e+03 1.0000000000000000e+00 1.0895748142199013e+01 5.2664523873921381e+00 2.0014496236961814e+00 
4140 4141 2 1.0280000000710743e+00 -4.5631232626518943e+02 1.0000000000000000e+00 1.1167387183317803e+01 6.2232643499992770e+00 3.2389776159438308e+00 
1498 1499 2 1.0279999990362225e+00 -1.2029275814840948e+03 1.0000000000000000e+00 1.1808385108679618e+01 6.2271853629310332e+00 1.7663085467331634e+00 
313 314 2 1.0280000003143439e+00 -1.6887155518816155e+03 1.0000000000000000e+00 1.4783321370052009e+01 6.3175305105015482e+00 1.9771318068877863e+00 
3023 3024 2 1.0280000031206233e+00 3.1681984004953199e+02 1.0000000000000000e+00 1.5985860513467426e+01 6.4616307700615510e+00 2.6971231697492906e+00 
2285 2286 2 1.0279999992115776e+00 -4.7664049979450556e+02 1.0000000000000000e+00 1.7109724129619362e+01 5.5591679118381485e+00 1.8138961484049154e+00 
3709 3710 2 1.0279999989515067e+00 -8.8973549592146264e+02 1.0000000000000000e+00 1.8565736489633540e+01 5.0528167451394994e+00 3.1551341141470406e+00 
804 805 2 1.0280000043672282e+00 -2.4785161712215950e+03 1.0000000000000000e+00 2.1303479894164635e+01 6.0821004316020755e+00 1.7648157861359959e+00 
1484 1485 2 1.0280000004164818e+00 -1.8201497506919923e+03 1.0000000000000000e+00 2.2964536335360727e+01 6.3508098627716798e+00 2.5391639596305922e+00 
1078 1079 2 1.0280000000000000e+00 2.8033647205452098e+02 1.0000000000000000e+00 1.1003075369105406e-01 6.7236919200036809e+00 1.7370455858639640e+00 
620 621 2 1.0279999998283973e+00 -3.4299441936386523e+02 1.0000000000000000e+00 1.1899089405955445e+01 7.7072860817150319e+00 3.2156000523630324e+00 
2615 2616 2 1.0280000020784703e+00 4.7112722593358615e+02 1.0000000000000000e+00 1.3577584042307972e+01 7.6396080649743316e+00 3.2588909122426251e+00 
2218 2219 2 1.0279999977328691e+00 -1.7861472473704662e+03 1.0000000000000000e+00 1.7727331214903721e+01 8.3084985785438903e+00 1.8963184125200530e+00 
2869 2870 2 1.0280000000000014e+00 -7.7131546188216305e+01 1.0000000000000000e+00 2.7940337206975240e+01 7.0248011755133666e+00 1.9726940685399281e+00 
1792 1793 2 1.0280000000000000e+00 1.8725958681541301e+03 1.0000000000000000e+00 3.3324527034436286e+01 7.5807185803512898e+00 3.3306237274520329e+00 
4203 4204 2 1.0279999989470732e+00 2.0089017974252370e+03 1.0000000000000000e+00 1.2207359788269713e+01 9.2331567799746743e+00 3.2261708518561218e+00 
3220 3221 2 1.0280000015834614e+00 -6.5151651702842241e+02 1.0000000000000000e+00 1.6457371524089986e+01 8.5537943791512507e+00 2.8096564587012440e+00 
4087 4088 2 1.0280000001650975e+00 7.2116153174372062e+02 1.0000000000000000e+00 1.7217829795919325e+01 9.7730003679651194e+00 2.8455728706917029e+00 
2399 2400 2 1.0280000000398479e+00 4.0737003581317538e+02 1.0000000000000000e+00 1.9643625747509166e+01 8.4910512732707968e+00 2.7575555594041052e+00 
3367 3368 2 1.0279999799767527e+00 4.0666618325098148e+02 1.0000000000000000e+00 2.4465353651651117e+01 9.5122830063429227e+00 3.1179882018458409e+00 
2 3 2 1.0280000006427015e+00 1.7339318042946288e+03 1.0000000000000000e+00 6.7473694209551294e+00 1.1535999614215145e+01 2.7927329775915841e+00 
4361 4362 2 1.0280000002355500e+00 5.8300280442638268e+03 1.0000000000000000e+00 1.0243423871008869e+01 1.1587830829198619e+01 2.1751708930222775e+00 
683 684 2 1.0279999997305238e+00 3.9917754550295967e+03 1.0000000000000000e+00 1.0938903308952284e+01 1.0107883902965989e+01 2.9266035477857040e+00 
2397 2398 2 1.0279999950600756e+00 4.9972313243816166e+02 1.0000000000000000e+00 1.5828722794464710e+01 1.1334923005019688e+01 2.8207020653049488e+00 
2317 2318 2 1.0280000018870048e+00 4.3482265024616731e+02 1.0000000000000000e+00 1.8681465679171204e+01 1.0103737406893506e+01 2.1220922110172054e+00 
4355 4356 2 1.0280000007348187e+00 3.4894866415882993e+03 1.0000000000000000e+00 2.0193138578362689e+01 1.0765838242370114e+01 2.5060481607582306e+00 
2463 2464 2 1.0280000211552782e+00 -4.2019123632747448e+02 1.0000000000000000e+00 2.4020988493250165e+01 1.0572543064953120e+01 3.2432289132016128e+00 
406 407 2 1.0279999767016288e+00 -9.0687353240100822e+02 1.0000000000000000e+00 2.6078034607478685e+01 1.1220531285643805e+01 1.9802300336371221e+00 
1467 1468 2 1.0280000007480814e+00 1.3098005638708059e+02 1.0000000000000000e+00 6.8465701382968680e+00 1.2572176626210881e+01 2.1053125656407068e+00 
1912 1913 2 1.0279999988604638e+00 -1.2544472798687427e+03 1.0000000000000000e+00 8.7909024709464045e+00 1.2794106506092584e+01 2.3155908140415380e+00 
3481 3482 2 1.0280000076257023e+00 -1.3715698866641083e+03 1.0000000000000000e+00 1.6415332551745752e+01 1.2460354969765998e+01 3.2082750537466405e+00 
876 877 2 1.0280000144586106e+00 7.9896565375383227e+02 1.0000000000000000e+00 1.9531952105542423e+01 1.3305907929128816e+01 3.2589445441327292e+00 
2048 2049 2 1.0280000310455764e+00 -1.2976505305105409e+03 1.0000000000000000e+00 2.5862633436730952e+01 1.1998663224720366e+01 3.2707785493291812e+00 
637 638 2 1.0280000006310117e+00 -2.4608621171577843e+02 1.0000000000000000e+00 8.7024036793405823e+00 1.4058795305916368e+01 2.9553783446292838e+00 
3263 3264 2 1.0280000022033748e+00 -8.4182408276645947e+02 1.0000000000000000e+00 1.3401049018731003e+01 1.3546287216930377e+01 3.1233605786098684e+00 
1853 1854 2 1.0279999955213335e+00 -1.2697192214336324e+03 1.0000000000000000e+00 1.8607784389977017e+01 1.4458351956897738e+01 1.7839161111926642e+00 
135 136 2 1.0280000084913465e+00 -2.0351036282198615e+02 1.0000000000000000e+00 2.0445101208010897e+01 1.4303935610542977e+01 2.4296726985650303e+00 
1241 1242 2 1.0279999746038850e+00 1.3024138419131809e+03 1.0000000000000000e+00 2.6840619473844306e+01 1.3815926631872511e+01 2.3191197634724778e+00 
3632 3633 2 1.0279999981576577e+00 -3.2232557187398959e+02 1.0000000000000000e+00 9.8073653507658420e+00 1.5530438280351721e+01 3.2067359563450553e+00 
3057 3058 2 1.0280000024490881e+00 -9.8025558388460274e+02 1.0000000000000000e+00 1.4410846864852143e+01 1.5442331239388791e+01 2.4373870711621879e+00 
2986 2987 2 1.0280000046950302e+00 3.4372728953745050e+03 1.0000000000000000e+00 1.8500572673226518e+01 1.5724663938534206e+01 2.4088533989836165e+00 
2095 2096 2 1.0279999987076240e+00 -6.0870767859687328e+02 1.0000000000000000e+00 2.0262043082642332e+01 1.5799637187388155e+01 2.1919694162503243e+00 
3899 3900 2 1.0280000004757583e+00 -5.5508024698304462e+02 1.0000000000000000e+00 2.1824218732178220e+01 1.6624439625520278e+01 2.3659366282007221e+00 
1775 1776 2 1.0279999967883158e+00 2.1808383570800315e+03 1.0000000000000000e+00 1.3880751411375963e+01 1.7100616380014408e+01 2.4516473122818114e+00 
4180 4181 2 1.0280000009317680e+00 1.2832750688882561e+03 1.0000000000000000e+00 1.8021855003896906e+01 1.8296695033845420e+01 2.8045282096741220e+00 
2141 2142 2 1.0279999869560958e+00 -2.7838718640748425e+02 1.0000000000000000e+00 2.0191790017540804e+01 1.8317355528551204e+01 2.3883101242856557e+00 
3714 3715 2 1.0279999988426876e+00 3.7642525420649395e+02 1.0000000000000000e+00 2.6519306112644252e+01 1.7406215993314458e+01 2.1032442215284028e+00 
3999 4000 2 1.0280000039939312e+00 -7.0112546579173761e+02 1.0000000000000000e+00 2.5295440468616359e+01 1.6985646377995753e+01 2.3581831505236224e+00 
42 43 2 1.0279999949041412e+00 -2.3427350879456581e+03 1.0000000000000000e+00 1.3886786607713981e+01 1.9999906697184251e+01 1.7137773564798864e+00 
2233 2234 2 1.0280000029638467e+00 -2.0675837990898071e+03 1.0000000000000000e+00 1.3469269882995938e+01 1.8530002592965761e+01 2.0516346741388318e+00 
999 1000 2 1.0279999887965703e+00 3.7110658499687668e+02 1.0000000000000000e+00 1.5041104764322743e+01 1.9007246366870167e+01 2.5058821333721495e+00 
2268 2269 2 1.0280000072866704e+00 8.9533403562789294e+02 1.0000000000000000e+00 1.9427285778350353e+01 1.9264826954172285e+01 2.1955090540617483e+00 
930 931 2 1.0279999922949312e+00 1.4071833771968857e+03 1.0000000000000000e+00 2.4438907844942129e+01 1.9892950579468980e+01 1.7777798720411784e+00 
3605 3606 2 1.0279999952880499e+00 6.8502314361824313e+02 1.0000000000000000e+00 2.5937012551836965e+01 1.8896224962591884e+01 2.2167970007747426e+00 
566 567 2 1.0280000000000000e+00 1.5284126371904831e+03 1.0000000000000000e+00 1.0822598142995950e+01 8.8927579192822917e-02 3.6943099707542482e+00 
3170 3171 2 1.0280000008122641e+00 1.2037637930442334e+03 1.0000000000000000e+00 1.1871142185558275e+01 2.9300687488624293e+00 4.9363876261819826e+00 
526 527 2 1.0280000037433070e+00 2.8471244946124426e+02 1.0000000000000000e+00 1.5408537631781911e+01 1.8089336629309529e+00 3.4546463482765617e+00 
3823 3824 2 1.0280000000022274e+00 -9.6782604252827707e+02 1.0000000000000000e+00 2.0772542698283285e+01 3.2078977715402028e+00 3.6717712571066170e+00 
140 141 2 1.0279999935917763e+00 2.7404747611618950e+03 1.0000000000000000e+00 2.1098094006030987e+01 1.7174661367529069e+00 4.7270659908287760e+00 
1059 1060 2 1.0280000000000000e+00 -1.2795116975381684e+03 1.0000000000000000e+00 2.5196141499310322e+01 1.9322236698425841e+00 3.5886437539471125e+00 
3916 3917 2 1.0280000000000000e+00 8.1409740562937247e+02 1.0000000000000000e+00 2.8058640810348688e+01 2.8862088104643555e+00 3.6442787803402759e+00 
2624 2625 2 1.0280000000000000e+00 -1.4916088231249870e+02 1.0000000000000000e+00 2.8088338248886870e+01 2.3424255368567013e+00 4.6496597185659585e+00 
3465 3466 2 1.0280000041407145e+00 -5.8831983175345499e+02 1.0000000000000000e+00 9.5915844433193111e+00 4.5776409276966978e+00 3.5430159381892246e+00 
1611 1612 2 1.0279999975761136e+00 2.0525680132978214e+03 1.0000000000000000e+00 9.0402368073956723e+00 3.6601245342036801e+00 3.9832494247559755e+00 
611 612 2 1.0280000074157718e+00 7.6580297516124438e+02 1.0000000000000000e+00 1.2852525328610319e+01 5.7093901342471796e+00 4.1078071391926176e+00 
2456 2457 2 1.0279999951004908e+00 1.3033265711026630e+02 1.0000000000000000e+00 1.5589959812197755e+01 5.4893621912581576e+00 4.3369705329616330e+00 
654 655 2 1.0280000000000014e+00 -1.5255124477207764e+03 1.0000000000000000e+00 3.0109710416096473e+01 5.0837249682511905e+00 3.9917407223808685e+00 
1515 1516 2 1.0279999994069040e+00 -4.2367666513225140e+02 1.0000000000000000e+00 1.4464548535971428e+01 6.8978009737134611e+00 3.8484408514031858e+00 
1908 1909 2 1.0280000000149458e+00 -7.9255291917978934e+02 1.0000000000000000e+00 1.6913622034644479e+01 8.1406395855565172e+00 4.7473220474842552e+00 
2441 2442 2 1.0279999995114848e+00 8.8676395788036211e+02 1.0000000000000000e+00 1.9944850889999824e+01 7.6211791456329028e+00 4.6952280181629407e+00 
3930 3931 2 1.0279999991006432e+00 1.4481741881694807e+03 1.0000000000000000e+00 2.1288612742395898e+01 8.2799818945837114e+00 3.6985525668175043e+00 
2368 2369 2 1.0280000012802375e+00 5.2378387664489253e+02 1.0000000000000000e+00 2.2191995667689291e+01 8.0333309204204308e+00 4.6979921041242880e+00 
1201 1202 2 1.0280000000000000e+00 -8.0150235661638862e+02 1.0000000000000000e+00 3.2559189733382468e+01 7.3057514675587782e+00 4.1343804816736984e+00 
1125 1126 2 1.0280000012713022e+00 5.0427275215530432e+02 1.0000000000000000e+00 9.9474950329315330e+00 9.4905608627774996e+00 4.5969376054159330e+00 
4332 4333 2 1.0279999981646100e+00 1.4927459847678080e+02 1.0000000000000000e+00 1.1960034275365448e+01 8.6142964126256985e+00 4.7816135143520118e+00 
3431 3432 2 1.0279999998276086e+00 -1.4188342464960854e+03 1.0000000000000000e+00 1.5717106308176136e+01 8.6560163853463994e+00 4.5720208424492785e+00 
949 950 2 1.0280000005040848e+00 1.9713259300864277e+03 1.0000000000000000e+00 1.9770853778099791e+01 9.0924933107230750e+00 4.0387806281920851e+00 
991 992 2 1.0280000048422280e+00 -7.0328405564353216e+02 1.0000000000000000e+00 2.3188050830193205e+01 9.4074062124856130e+00 4.7495921980409825e+00 
2812 2813 2 1.0279999971526899e+00 9.6421976875091104e+00 1.0000000000000000e+00 8.8002739137840145e+00 1.0306675917421257e+01 4.5163331814361056e+00 
1770 1771 2 1.0279999988649902e+00 9.8194262183617934e+02 1.0000000000000000e+00 1.0844214016061320e+01 1.1185162688509436e+01 4.2954483666187180e+00 
1537 1538 2 1.0280000001361249e+00 -2.4327043020556339e+03 1.0000000000000000e+00 1.2299826119898867e+01 1.1064381688220909e+01 3.9124809302234529e+00 
4493 4494 2 1.0280000014576109e+00 -1.1254528279456672e+02 1.0000000000000000e+00 1.5639874919627388e+01 1.1430929137559231e+01 4.6281348214203657e+00 
2944 2945 2 1.0279999910392590e+00 1.6224991415247476e+02 1.0000000000000000e+00 1.7960510373877128e+01 1.0264773672375256e+01 4.6817936053762494e+00 
625 626 2 1.0279999987225552e+00 1.5482640618051453e+03 1.0000000000000000e+00 1.9629367033819115e+01 1.1373455254925547e+01 3.4642417652242021e+00 
3724 3725 2 1.0280000001915686e+00 6.8165996546450174e+02 1.0000000000000000e+00 7.0214647870802880e+00 1.1970813823352639e+01 4.4819785808890868e+00 
1408 1409 2 1.0280000028811982e+00 -5.6028766353316894e+02 1.0000000000000000e+00 7.9546881702329024e+00 1.2954731885532178e+01 4.9677222342816885e+00 
4441 4442 2 1.0279999985367720e+00 1.0623285734294966e+03 1.0000000000000000e+00 9.5486478671431740e+00 1.1928526746898322e+01 3.4194725810402131e+00 
662 663 2 1.0280000007089649e+00 -4.1973922215220995e+01 1.0000000000000000e+00 1.2131315324066227e+01 1.2531910829678605e+01 3.8244065583018148e+00 
2467 2468 2 1.0280000004083312e+00 1.1789953672600668e+03 1.0000000000000000e+00 1.4344589800165274e+01 1.1974100751932003e+01 3.5949151380770648e+00 
2133 2134 2 1.0279999962059847e+00 -1.1235843539816381e+03 1.0000000000000000e+00 1.4948148129399764e+01 1.3168990405745641e+01 4.4203665576237032e+00 
1819 1820 2 1.0279999965585658e+00 -8.2216405146369448e+02 1.0000000000000000e+00 1.8118601916696377e+01 1.2547210640586593e+01 3.7286571914165298e+00 
3428 3429 2 1.0280000013878801e+00 4.9517326898840061e+01 1.0000000000000000e+00 1.9059163155029047e+01 1.2666259445358055e+01 4.7858200198885967e+00 
3629 3630 2 1.0279999872680323e+00 7.4554214996384445e+01 1.0000000000000000e+00 2.5450849940226217e+01 1.2822073475443359e+01 4.3591077216232978e+00 
1473 1474 2 1.0279999990120350e+00 1.6509255461277489e+03 1.0000000000000000e+00 7.1827061976233448e+00 1.3340579020637620e+01 3.7055876027010441e+00 
3392 3393 2 1.0279999991431212e+00 -3.8776608311443420e+02 1.0000000000000000e+00 1.0868909776114791e+01 1.4930766982068238e+01 4.1967812478786071e+00 
380 381 2 1.0279999985601795e+00 -3.2069536782357085e+02 1.0000000000000000e+00 1.2094802040973459e+01 1.4442046652101784e+01 3.7608164201311776e+00 
2211 2212 2 1.0279999979677363e+00 3.1870174037904468e+02 1.0000000000000000e+00 1.4263122880051974e+01 1.4444111319730595e+01 3.9182993370670580e+00 
1625 1626 2 1.0279999890378915e+00 2.7192011961520552e+03 1.0000000000000000e+00 1.9292931492013572e+01 1.4990357938738436e+01 3.7524780395903226e+00 
2311 2312 2 1.0279999892777816e+00 1.0051888474621002e+03 1.0000000000000000e+00 2.2537032630369573e+01 1.4321355352606085e+01 4.2363641815882849e+00 
2593 2594 2 1.0280000017868602e+00 -1.2437434076782604e+03 1.0000000000000000e+00 2.6151183355045323e+01 1.4669791338151224e+01 4.3134268484084481e+00 
2373 2374 2 1.0280000037119046e+00 -1.7482994387419615e+03 1.0000000000000000e+00 2.7724223361766260e+01 1.4286045391156872e+01 3.4287472404681076e+00 
3793 3794 2 1.0280000013805206e+00 2.0310626141930445e+03 1.0000000000000000e+00 8.1288034283133470e+00 1.5555105532540450e+01 3.4049165408803006e+00 
3810 3811 2 1.0280000095853654e+00 2.2444902299665755e+03 1.0000000000000000e+00 2.0272902031715681e+01 1.5701233200090931e+01 4.6360692660596010e+00 
884 885 2 1.0280000022123237e+00 5.7826081296804006e+01 1.0000000000000000e+00 2.1703697736682422e+01 1.5523187885911993e+01 3.8790729086815996e+00 
3478 3479 2 1.0280000063394930e+00 -7.2539569293750515e+02 1.0000000000000000e+00 2.6560192054756712e+01 1.6060074775089394e+01 4.5304608050045463e+00 
1649 1650 2 1.0280000046410702e+00 2.1453916852082061e+03 1.0000000000000000e+00 2.8500068773981024e+01 1.5585128913660817e+01 3.6070199424264069e+00 
1838 1839 2 1.0280000043199768e+00 -1.1357204258683864e+03 1.0000000000000000e+00 2.9927726956528655e+01 1.6172390939998493e+01 4.7353056306959278e+00 
1388 1389 2 1.0279999995376419e+00 4.4303667018639180e+02 1.0000000000000000e+00 8.8118974803317602e+00 1.6814733281039633e+01 3.6663025668772327e+00 
2890 2891 2 1.0280000030862806e+00 -4.3932543005052065e+02 1.0000000000000000e+00 1.0619355958422155e+01 1.7003884870453028e+01 4.2449873685505688e+00 
467 468 2 1.0280000032226182e+00 -1.8314167643931017e+02 1.0000000000000000e+00 1.0908748248379892e+01 1.8224475187862744e+01 4.4696583908968082e+00 
3981 3982 2 1.0279999992348985e+00 -5.8427491208121990e+02 1.0000000000000000e+00 1.3010520713505635e+01 1.7333768570951236e+01 4.8489078814780813e+00 
3509 3510 2 1.0280000064360206e+00 -3.6258508845286150e+02 1.0000000000000000e+00 1.4336768319807378e+01 1.8100159007633557e+01 4.4708851446302100e+00 
2521 2522 2 1.0279999969817535e+00 1.1871768721151077e+03 1.0000000000000000e+00 1.6496196459777114e+01 1.6684466288166842e+01 4.1558100063832946e+00 
4474 4475 2 1.0279999987203874e+00 9.9875959826719182e+01 1.0000000000000000e+00 1.5020273150541879e+01 1.7068844864488540e+01 3.4337879520119774e+00 
3399 3400 2 1.0279999920075400e+00 -2.1651100046901702e+03 1.0000000000000000e+00 2.1734961082918694e+01 1.7423197993763491e+01 3.4735768329117680e+00 
367 368 2 1.0279999922034142e+00 -4.0090002358469042e+03 1.0000000000000000e+00 2.2241071490578477e+01 1.6896864439632967e+01 4.9185956478101458e+00 
3891 3892 2 1.0279999964949802e+00 -4.6244903548205968e+02 1.0000000000000000e+00 2.4600369767679002e+01 1.7454608550313125e+01 3.7672580948853245e+00 
185 186 2 1.0280000109251937e+00 3.6323194084749548e+02 1.0000000000000000e+00 2.3578321723252131e+01 1.8318431245243683e+01 4.4760913783100236e+00 
895 896 2 1.0280000111868786e+00 -1.1022359991748162e+03 1.0000000000000000e+00 2.7072196925571909e+01 1.7627205597972239e+01 4.8692403448961787e+00 
4221 4222 2 1.0279999978099721e+00 -1.5751181782909313e+01 1.0000000000000000e+00 2.8720767232680142e+01 1.7046826336942061e+01 4.3535708727819813e+00 
1718 1719 2 1.0279999966941622e+00 1.3238472267484951e+02 1.0000000000000000e+00 1.2568813042372410e+01 1.8372461196538833e+01 4.0080517631193295e+00 
3630 3631 2 1.0280000010799031e+00 -1.6281577893698397e+02 1.0000000000000000e+00 1.1786042447996861e+01 1.9992338332773247e+01 4.1349945265330366e+00 
4216 4217 2 1.0280000013908854e+00 -4.7121255872279175e+02 1.0000000000000000e+00 1.5540259898762510e+01 1.9263198626691803e+01 4.2326911279990984e+00 
721 722 2 1.0280000020511253e+00 -3.2714196725584458e+02 1.0000000000000000e+00 1.6887519702526024e+01 1.8336239563184204e+01 3.3602946526131228e+00 
1218 1219 2 1.0279999936808961e+00 -4.8729516850148013e+02 1.0000000000000000e+00 1.8708040659290528e+01 1.9981161975329044e+01 4.2919822316892997e+00 
3608 3609 2 1.0280000089296109e+00 2.5094146123219993e+01 1.0000000000000000e+00 1.8921765053640375e+01 1.8821258645559336e+01 4.6495049296046664e+00 
461 462 2 1.0279999935872131e+00 -1.0110785345609864e+03 1.0000000000000000e+00 2.4753945537502631e+01 1.9149782515773385e+01 4.8922213979444100e+00 