LAMMPS data file via write_data, version 30 Jul 2016, timestep = 50000000

1520 atoms
8 atom types

0.0000000000000000e+00 4.0000000000000000e+01 xlo xhi
0.0000000000000000e+00 4.0000000000000000e+01 ylo yhi
0.0000000000000000e+00 1.0000000000000000e+02 zlo zhi

Masses

1 3.896
2 5.36
3 20.064
4 8.378
5 8.378
6 8.378
7 8.378
8 8.378

Atoms # meso-molecular

72 73 2 1.0279999999999889e+00 3.2556868317363906e+03 1.0000000000000000e+00 1.7984679222551389e+01 1.7572502336151885e+00 4.8051809726450678e-01 
522 523 2 1.0279999999999736e+00 2.6552506452457192e+03 1.0000000000000000e+00 1.7993679777046950e+01 1.7161506148702679e+00 5.6828270315486284e-01 
526 527 2 1.0279999999999714e+00 3.4926801043535179e+03 1.0000000000000000e+00 1.8022634168610619e+01 1.6351458151529381e+00 7.2375441759494641e-01 
1109 1110 2 1.0279999999999541e+00 5.3525186107154207e+02 1.0000000000000000e+00 1.9263541868749243e+01 1.3024670444804445e-01 2.1154272766563298e+00 
1112 1113 2 1.0279999999999554e+00 5.3525177043946576e+02 1.0000000000000000e+00 1.9342435859095968e+01 1.3024615342709442e-01 2.1154352523054638e+00 
800 801 2 1.0279999999999960e+00 -1.4595750349714649e+03 1.0000000000000000e+00 1.9297443622616090e+01 1.7031899319777470e+01 2.7773994087040150e+00 
797 798 2 1.0279999999999960e+00 -1.4595748376618567e+03 1.0000000000000000e+00 1.9296842213730010e+01 1.7031866950325760e+01 2.7774321861983946e+00 
928 929 2 1.0280000000000515e+00 3.5174989328093798e+03 1.0000000000000000e+00 1.9293849299285778e+01 1.7421379879100666e+01 9.6795830662804769e-02 
925 926 2 1.0280000000000478e+00 3.5174989371843531e+03 1.0000000000000000e+00 1.9300396030825070e+01 1.7421380508042407e+01 9.6794923249635026e-02 
53 54 2 1.0279999999999543e+00 2.2463602747439604e+03 1.0000000000000000e+00 1.9417285302092303e+01 1.7298993753813260e+01 2.8803170270978767e-01 
56 57 2 1.0279999999999538e+00 2.2463603395411328e+03 1.0000000000000000e+00 1.9176966155140793e+01 1.7298996018645347e+01 2.8803489609690902e-01 
215 216 2 1.0280000000000076e+00 9.9507273634956675e+02 1.0000000000000000e+00 1.9155196091214890e+01 1.7452719795736080e+01 1.7874688282462985e+00 
214 215 2 1.0280000000000065e+00 9.9507265198471828e+02 1.0000000000000000e+00 1.9439070402038048e+01 1.7452717774620535e+01 1.7874740962505313e+00 
48 49 2 1.0280000000000071e+00 4.8788467111073453e+02 1.0000000000000000e+00 1.7137211749985010e+01 1.1044418072070197e+00 4.3494617347714506e+00 
333 334 2 1.0280000000000002e+00 -1.1260298440026058e+02 1.0000000000000000e+00 1.6561814117071833e+01 1.1257775378438375e+00 4.4177727115870820e+00 
330 331 2 1.0280000000000049e+00 1.3749741954624278e+03 1.0000000000000000e+00 1.7004901308152544e+01 1.5055652868224836e+00 5.0422226466048485e+00 
1400 1401 2 1.0280000000000167e+00 -1.0541492896531469e+02 1.0000000000000000e+00 1.5894840052005613e+01 1.1181092082150397e+00 5.3768587196263322e+00 
202 203 2 1.0280000000000962e+00 4.3902633170420086e+02 1.0000000000000000e+00 1.8820414550421798e+01 4.4845842046459156e-01 4.7267395760909263e+00 
203 204 2 1.0280000000001039e+00 4.3902624132466747e+02 1.0000000000000000e+00 1.9782808571043009e+01 4.4851362568243508e-01 4.7267794853475777e+00 
38 39 2 1.0280000000000098e+00 4.2434902224300038e+02 1.0000000000000000e+00 1.7193588680157362e+01 1.4411252648720352e+00 4.9005570862857164e+00 
882 883 2 1.0280000000000022e+00 3.1105717540612832e+03 1.0000000000000000e+00 1.9297848348432243e+01 1.6555373619402932e+01 4.2868439760347004e+00 
883 884 2 1.0280000000000049e+00 3.1105717554175694e+03 1.0000000000000000e+00 1.9296451240015671e+01 1.6555374426836227e+01 4.2868489862002797e+00 
803 804 2 1.0280000000000096e+00 2.5223350213429768e+02 1.0000000000000000e+00 1.9392287668017467e+01 1.6678512552741925e+01 4.7137933804287151e+00 
802 803 2 1.0280000000000136e+00 2.5223350195880229e+02 1.0000000000000000e+00 1.9202018180100897e+01 1.6678522472841237e+01 4.7138189620977347e+00 
754 755 2 1.0279999999999998e+00 -5.7884601020486007e+03 1.0000000000000000e+00 1.6860889818900215e+01 1.9831005346338369e+01 4.5792816150307649e+00 
1160 1161 2 1.0279999999999951e+00 -1.2113409333554735e+03 1.0000000000000000e+00 1.6528513496259695e+01 1.9298594495978609e+01 5.4519505480883508e+00 
1125 1126 2 1.0279999999999831e+00 -4.3136467671335504e+02 1.0000000000000000e+00 1.8496452722948749e+01 1.8961715638606481e+01 4.7980971234391143e+00 
1312 1313 2 1.0279999999999991e+00 1.1374893148056537e+03 1.0000000000000000e+00 1.7357252724451548e+01 1.8816415605499852e+01 5.0183743700237615e+00 
1108 1109 2 1.0280000000000051e+00 -6.1331023843106527e+02 1.0000000000000000e+00 1.6504510196475188e+01 1.0591575672245583e+00 7.2236959057767844e+00 
1144 1145 2 1.0279999999999767e+00 -9.9213960045843362e+02 1.0000000000000000e+00 1.8277351719495115e+01 5.5676342137977852e-01 6.8600134223621909e+00 
80 81 2 1.0279999999999894e+00 3.2696851071484384e+03 1.0000000000000000e+00 1.7257062416221984e+01 1.1439358648770268e+00 7.5932609779290852e+00 
34 35 2 1.0280000000000022e+00 -6.9829272002524999e+02 1.0000000000000000e+00 1.8509267342093224e+01 1.0419025764032197e+00 8.2128993942179260e+00 
871 872 2 1.0280000000000138e+00 2.5220665924595596e+02 1.0000000000000000e+00 1.9383853102798842e+01 1.6648954569006158e+01 8.1500062289837292e+00 
870 871 2 1.0280000000000109e+00 2.5220650939638182e+02 1.0000000000000000e+00 1.9210463580880862e+01 1.6648944353572752e+01 8.1500307895790911e+00 
1124 1125 2 1.0279999999999920e+00 -1.2113666349116897e+03 1.0000000000000000e+00 1.6526079533636540e+01 1.9292370240781505e+01 7.3958629284635977e+00 
614 615 2 1.0279999999999998e+00 -5.7881875591297721e+03 1.0000000000000000e+00 1.6845049095129909e+01 1.9830885699343408e+01 8.2688455398550431e+00 
374 375 2 1.0279999999999918e+00 6.2839401728290568e+02 1.0000000000000000e+00 1.8288679017350557e+01 1.8053410177762917e+01 6.0317004702791257e+00 
386 387 2 1.0279999999999963e+00 6.2839565117302050e+02 1.0000000000000000e+00 1.8275158338472583e+01 1.8035637056090405e+01 6.9041784183430197e+00 
1276 1277 2 1.0280000000000022e+00 1.1374970551998160e+03 1.0000000000000000e+00 1.7367183266663933e+01 1.8811582339175768e+01 7.8585753793536179e+00 
1153 1154 2 1.0280000000000034e+00 -4.3144293717600630e+02 1.0000000000000000e+00 1.8512042817081220e+01 1.8974752788850228e+01 8.0589939568228157e+00 
1237 1238 2 1.0280000000000129e+00 4.9488045105933397e+03 1.0000000000000000e+00 1.3452157848481868e+01 6.6874047855895125e-02 1.0150581516735505e+01 
914 915 2 1.0280000000000005e+00 -2.5579282666253721e+03 1.0000000000000000e+00 1.3803832920057582e+01 5.5599928705976442e-01 1.0660754918721471e+01 
493 494 2 1.0280000000000220e+00 -5.5768536833070084e+03 1.0000000000000000e+00 1.5609594492421229e+01 7.9391210949420288e-01 8.7922380071460076e+00 
1286 1287 2 1.0280000000000069e+00 -1.4758339786121355e+03 1.0000000000000000e+00 1.7049760815920354e+01 1.6147299855515604e+00 9.0639525421020082e+00 
1271 1272 2 1.0280000000000116e+00 -8.6834149938381202e+01 1.0000000000000000e+00 1.6581849605030143e+01 1.2703263753159730e+00 9.3373850638658187e+00 
1280 1281 2 1.0279999999999876e+00 8.6317505779352018e+01 1.0000000000000000e+00 1.6778881867835462e+01 1.6184250234441810e+00 1.0987996248757728e+01 
1262 1263 2 1.0280000000000005e+00 -7.1232027890620589e+02 1.0000000000000000e+00 1.7981621377078106e+01 2.0535276347624590e-03 9.4732347794891094e+00 
506 507 2 1.0280000000000071e+00 4.3867841412914458e+03 1.0000000000000000e+00 1.8765791704294294e+01 2.8530322826896732e+00 9.9681800633694859e+00 
507 508 2 1.0280000000000076e+00 4.3867842639735645e+03 1.0000000000000000e+00 1.9837475417936396e+01 2.8530260828926295e+00 9.9682275883471636e+00 
297 298 2 1.0280000000000233e+00 -3.0908225428190212e+02 1.0000000000000000e+00 1.7328666270585668e+01 2.3779612439965008e+00 1.0183851016881219e+01 
1120 1121 2 1.0280000000000005e+00 -1.5453340936950049e+03 1.0000000000000000e+00 1.9087633374527417e+01 3.4355945408250967e+00 1.0295610601087724e+01 
1117 1118 2 1.0279999999999949e+00 -1.5453339459563408e+03 1.0000000000000000e+00 1.9515606150719083e+01 3.4355905518345864e+00 1.0295624554471726e+01 
790 791 2 1.0279999999999831e+00 3.1105195195288516e+03 1.0000000000000000e+00 1.9297950038243314e+01 1.6510788070784198e+01 8.5712895697180027e+00 
791 792 2 1.0279999999999834e+00 3.1105193937972867e+03 1.0000000000000000e+00 1.9296368974994753e+01 1.6510786877381680e+01 8.5712951166809930e+00 
876 877 2 1.0279999999999929e+00 -1.4596239228231311e+03 1.0000000000000000e+00 1.9297489700387526e+01 1.6894340772911434e+01 1.0143409145662320e+01 
873 874 2 1.0279999999999927e+00 -1.4596242777367775e+03 1.0000000000000000e+00 1.9296826580486048e+01 1.6894367140586148e+01 1.0143439095380334e+01 
243 244 2 1.0280000000000069e+00 9.9509837279753629e+02 1.0000000000000000e+00 1.9193584498951672e+01 1.7237586876859709e+01 1.1049554793355282e+01 
242 243 2 1.0280000000000069e+00 9.9509846679079226e+02 1.0000000000000000e+00 1.9400734475559890e+01 1.7237586366084948e+01 1.1049555094145843e+01 
653 654 2 1.0280000000000002e+00 -8.4708655391740785e+02 1.0000000000000000e+00 1.5275739522411873e+01 7.9863615175092872e-01 1.1847471913732816e+01 
616 617 2 1.0279999999999625e+00 -5.2301007552440533e+03 1.0000000000000000e+00 1.6308248162946509e+01 1.5145128128586445e+00 1.1975870127692055e+01 
240 241 2 1.0280000000000304e+00 4.9170181565679263e+02 1.0000000000000000e+00 1.5711884991078938e+01 6.3671064441989500e-01 1.2377993710361960e+01 
295 296 2 1.0280000000000327e+00 1.0001086432127449e+03 1.0000000000000000e+00 1.6338035903122655e+01 1.4184429411754331e+00 1.2855045142598920e+01 
78 79 2 1.0280000000000100e+00 7.6525160127832100e+02 1.0000000000000000e+00 1.7958398390308705e+01 1.2401633932247373e+00 1.3749965084209906e+01 
1283 1284 2 1.0280000000000016e+00 -5.7213036985730128e+02 1.0000000000000000e+00 1.7774631551105696e+01 1.1794880526225189e+00 1.3767736892398769e+01 
311 312 2 1.0279999999999998e+00 9.1893325337680835e+01 1.0000000000000000e+00 1.7788224549243928e+01 3.4071584414844582e+00 1.1539746551451572e+01 
690 691 2 1.0280000000000036e+00 2.6027756853980770e+02 1.0000000000000000e+00 1.7691518477885502e+01 3.3525211487085489e+00 1.1677630313372232e+01 
1366 1367 2 1.0280000000000020e+00 -1.6876226635599937e+03 1.0000000000000000e+00 1.7660650515563280e+01 3.3081785914094484e+00 1.2093431869823803e+01 
161 162 2 1.0279999999999931e+00 6.0486610189940966e+03 1.0000000000000000e+00 1.7607607238397414e+01 2.9896898556364491e+00 1.3382156416853569e+01 
701 702 2 1.0279999999999971e+00 -2.1000053100113164e+03 1.0000000000000000e+00 1.9492892978628447e+01 3.3521626736904153e+00 1.3725226696833769e+01 
704 705 2 1.0279999999999940e+00 -2.1000054660952510e+03 1.0000000000000000e+00 1.9110326915214053e+01 3.3521054105830035e+00 1.3725368453728359e+01 
97 98 2 1.0280000000000118e+00 2.2463724759975835e+03 1.0000000000000000e+00 1.9391907672220889e+01 1.7086278571604019e+01 1.2570607040356016e+01 
100 101 2 1.0280000000000120e+00 2.2463724281398286e+03 1.0000000000000000e+00 1.9202411675613561e+01 1.7086277292080201e+01 1.2570610456036873e+01 
1049 1050 2 1.0279999999999807e+00 3.5174752386188793e+03 1.0000000000000000e+00 1.9303346214185531e+01 1.7214911475832334e+01 1.2892070782500678e+01 
1052 1053 2 1.0279999999999787e+00 3.5174750660720729e+03 1.0000000000000000e+00 1.9290973614806724e+01 1.7214911210065512e+01 1.2892070903030278e+01 
1136 1137 2 1.0280000000000120e+00 -7.5796834809583402e+02 1.0000000000000000e+00 1.3605295714628616e+01 4.4783681129971226e-01 1.5914142841662562e+01 
497 498 2 1.0280000000000020e+00 -3.9342042370790023e+03 1.0000000000000000e+00 1.3427479784998740e+01 1.1601177113793730e+00 1.6337581960302771e+01 
490 491 2 1.0280000000000000e+00 -1.9446950737124439e+02 1.0000000000000000e+00 1.4837549298351489e+01 1.5611173661815489e+00 1.5154419192749423e+01 
13 14 2 1.0279999999999874e+00 4.2854864981248857e+03 1.0000000000000000e+00 1.6531437152819922e+01 8.0841224687163638e-01 1.5156798683548708e+01 
829 830 2 1.0280000000000002e+00 -2.1972123699341546e+03 1.0000000000000000e+00 1.5307808910087104e+01 1.5111067533423062e+00 1.5188614122378437e+01 
40 41 2 1.0279999999999967e+00 -1.0528745954134070e+03 1.0000000000000000e+00 1.4540190509675991e+01 1.8092488842330392e+00 1.5424964119240180e+01 
231 232 2 1.0279999999999982e+00 -7.3598590708623647e+02 1.0000000000000000e+00 1.4869925968141510e+01 2.0190946430011931e+00 1.6066187962018191e+01 
66 67 2 1.0280000000000062e+00 -2.5536080709477358e+02 1.0000000000000000e+00 1.5378010581362616e+01 5.6713952580236937e-01 1.6551297774677685e+01 
1513 1514 2 1.0279999999999969e+00 2.2180186339414486e+03 1.0000000000000000e+00 1.8139259452806261e+01 2.6407340213817587e+00 1.4319481505730137e+01 
806 807 2 1.0279999999999856e+00 4.8714771056636891e+02 1.0000000000000000e+00 1.8311761623694455e+01 1.7665516214356030e+00 1.4821710671797980e+01 
530 531 2 1.0279999999999834e+00 3.3522039787881690e+03 1.0000000000000000e+00 1.8254625153671245e+01 4.8355471309278103e-01 1.6249999779119495e+01 
246 247 2 1.0279999999999971e+00 -1.7016565650415509e+03 1.0000000000000000e+00 1.6800238947577704e+01 1.9695896267037906e+01 1.5568534372792268e+01 
1317 1318 2 1.0279999999999911e+00 1.9512549081383690e+03 1.0000000000000000e+00 1.8434896745648981e+01 1.8711422429619144e+01 1.4603192775832243e+01 
1150 1151 2 1.0280000000000011e+00 2.0455498401516618e+02 1.0000000000000000e+00 1.8361644493816083e+01 1.8455128060214239e+01 1.4759819538727930e+01 
1001 1002 2 1.0280000000000014e+00 -6.2262852435217719e+03 1.0000000000000000e+00 1.7148110408400303e+01 1.9547667214422390e+01 1.5051723542349610e+01 
554 555 2 1.0280000000000125e+00 3.9063484570208066e+03 1.0000000000000000e+00 1.9266051130006360e+01 1.7331775038007390e+01 1.5509046560371383e+01 
555 556 2 1.0280000000000102e+00 3.9063484780441704e+03 1.0000000000000000e+00 1.9328270587360134e+01 1.7331774832045333e+01 1.5509047610422252e+01 
1220 1221 2 1.0279999999999985e+00 -1.9151094461342808e+02 1.0000000000000000e+00 1.1344149023045782e+01 2.1249216758284750e+00 1.8783981142578597e+01 
463 464 2 1.0279999999999991e+00 3.8641185217241031e+02 1.0000000000000000e+00 1.1264432786184607e+01 2.4308512562009197e+00 1.9175948502070892e+01 
25 26 2 1.0280000000000078e+00 -1.7911287449874969e+01 1.0000000000000000e+00 1.3510014839620887e+01 1.9105699154017006e+00 1.7169805785556690e+01 
165 166 2 1.0280000000000060e+00 3.7779142116645762e+03 1.0000000000000000e+00 1.2457205553530628e+01 1.8605870330792684e+00 1.8161267625464031e+01 
796 797 2 1.0279999999999887e+00 -3.2755136715839453e+03 1.0000000000000000e+00 1.3747913215155855e+01 1.9325331715289054e+00 1.8260961308114684e+01 
840 841 2 1.0280000000000009e+00 -1.2495758257633461e+03 1.0000000000000000e+00 1.2559269017431818e+01 2.2515994954290424e+00 1.8303591910695523e+01 
15 16 2 1.0280000000000051e+00 -4.2352977564424382e+03 1.0000000000000000e+00 1.4753413887020740e+01 2.2190878455684095e+00 1.8660338947630770e+01 
608 609 2 1.0280000000000062e+00 4.6160395488689737e+03 1.0000000000000000e+00 1.5698546964710939e+01 2.1227645440235468e+00 1.8805662059364661e+01 
779 780 2 1.0280000000000007e+00 -3.1955598097908623e+03 1.0000000000000000e+00 1.5411266873849824e+01 2.6485109393670832e+00 1.9167350240513688e+01 
519 520 2 1.0280000000000118e+00 4.1091041763303838e+03 1.0000000000000000e+00 1.6933536828546245e+01 1.4071880551470302e+00 1.9290848258367415e+01 
64 65 2 1.0280000000000193e+00 3.2591810729128110e+03 1.0000000000000000e+00 1.8762829382764838e+01 9.1979154134670238e-01 1.8702502553222470e+01 
61 62 2 1.0280000000000209e+00 3.2591810356974956e+03 1.0000000000000000e+00 1.9840315655269130e+01 9.1983485772511719e-01 1.8702570080761287e+01 
1456 1457 2 1.0279999999999974e+00 2.7372244406675627e+03 1.0000000000000000e+00 1.9208486725438739e+01 1.4022293253962143e+01 1.7023283202666455e+01 
1453 1454 2 1.0279999999999987e+00 2.7372245190111316e+03 1.0000000000000000e+00 1.9385908534929605e+01 1.4022289319176721e+01 1.7023294734802779e+01 
91 92 2 1.0279999999999916e+00 1.8702937251659591e+02 1.0000000000000000e+00 1.9300558463864249e+01 1.4111467801938572e+01 1.7430727790519587e+01 
90 91 2 1.0279999999999951e+00 1.8702917285349631e+02 1.0000000000000000e+00 1.9293834008961753e+01 1.4111467698290499e+01 1.7430727677088534e+01 
96 97 2 1.0280000000000169e+00 4.7561347470530354e+03 1.0000000000000000e+00 1.9726159636264640e+01 1.4690254203460954e+01 1.6984193600252507e+01 
93 94 2 1.0280000000000176e+00 4.7561348479714743e+03 1.0000000000000000e+00 1.8868229899266819e+01 1.4690256470091313e+01 1.6984200798869463e+01 
1324 1325 2 1.0279999999999836e+00 4.6418031368752354e+03 1.0000000000000000e+00 1.8420525284472610e+01 1.6802084270898433e+01 1.7233083725664713e+01 
562 563 2 1.0279999999999934e+00 3.9372430035589095e+03 1.0000000000000000e+00 1.7893296968461087e+01 1.7681394242615522e+01 1.7278529710767934e+01 
58 59 2 1.0280000000000018e+00 1.1301052881237726e+02 1.0000000000000000e+00 1.7246138484616456e+01 1.9779768262226348e+01 1.7385180263732771e+01 
809 810 2 1.0280000000000045e+00 -2.9897697449924280e+01 1.0000000000000000e+00 1.7779814747822094e+01 1.9138224504247656e+01 1.7588150899196325e+01 
112 113 2 1.0280000000000011e+00 1.7305271468155634e+03 1.0000000000000000e+00 1.8015504554978559e+01 1.7747829738690527e+01 1.7612134508436657e+01 
553 554 2 1.0280000000000029e+00 -3.3633669950186763e+03 1.0000000000000000e+00 1.8458540471338033e+01 1.7716349972295038e+01 1.7962221213703508e+01 
389 390 2 1.0279999999999940e+00 -5.7939870964029728e+02 1.0000000000000000e+00 1.1411776297979126e+01 8.7228673384402644e-01 1.9568907055287806e+01 
369 370 2 1.0279999999999905e+00 -5.7939629556490866e+02 1.0000000000000000e+00 1.1412031924290249e+01 8.7260328144098531e-01 1.9805830115153341e+01 
603 604 2 1.0280000000000051e+00 3.8641122593851128e+02 1.0000000000000000e+00 1.1265966321970923e+01 2.4308591252013385e+00 2.0198782807364122e+01 
1368 1369 2 1.0280000000000011e+00 -1.9151359190953468e+02 1.0000000000000000e+00 1.1346974584553625e+01 2.1253080477981636e+00 2.0590127532237492e+01 
836 837 2 1.0280000000000025e+00 -1.2495782651318023e+03 1.0000000000000000e+00 1.2563280646424635e+01 2.2520278437636909e+00 2.1067819656242087e+01 
880 881 2 1.0279999999999836e+00 -3.2755128921335390e+03 1.0000000000000000e+00 1.3752246357295819e+01 1.9364958143177036e+00 2.1111664822362261e+01 
289 290 2 1.0280000000000056e+00 3.7779102083167609e+03 1.0000000000000000e+00 1.2461506684968469e+01 1.8634847018011929e+00 2.1208709506690361e+01 
125 126 2 1.0280000000000051e+00 -1.7910916069304605e+01 1.0000000000000000e+00 1.3518608383974142e+01 1.9122529213046624e+00 2.2203986686115943e+01 
547 548 2 1.0279999999999831e+00 4.1091062096277074e+03 1.0000000000000000e+00 1.6896485141343792e+01 1.4191942773928090e+00 2.0064427482288462e+01 
895 896 2 1.0280000000000011e+00 -3.1955626986157172e+03 1.0000000000000000e+00 1.5405801318430093e+01 2.6504872465229203e+00 2.0193198442783395e+01 
460 461 2 1.0280000000000009e+00 4.6160395906333915e+03 1.0000000000000000e+00 1.5690667899589284e+01 2.1243727913839803e+00 2.0556126810748527e+01 
139 140 2 1.0280000000000087e+00 -4.2352922919151315e+03 1.0000000000000000e+00 1.4750025020125570e+01 2.2115847898240264e+00 2.0711249493741214e+01 
312 313 2 1.0280000000000069e+00 8.0804387322406274e+03 1.0000000000000000e+00 1.7963976803867524e+01 1.6654769280899355e+00 1.9575814279119779e+01 
452 453 2 1.0279999999999940e+00 8.0804375808351906e+03 1.0000000000000000e+00 1.7963261469336970e+01 1.6604885754639707e+00 1.9776671668457524e+01 
92 93 2 1.0279999999999909e+00 3.2591911614945157e+03 1.0000000000000000e+00 1.8779205814205454e+01 9.1585216151639304e-01 2.0587536748492198e+01 
89 90 2 1.0279999999999940e+00 3.2591911309193101e+03 1.0000000000000000e+00 1.9824011159523113e+01 9.1584585139696073e-01 2.0587549598687140e+01 
769 770 2 1.0279999999999920e+00 -3.1362974409752096e+03 1.0000000000000000e+00 8.8691063209234799e-01 1.9503222482526127e+01 2.1472913671917418e+01 
1081 1082 2 1.0279999999999907e+00 -2.0292011287070118e+03 1.0000000000000000e+00 1.0989306964873051e+00 1.9951823529358325e+01 2.1800270557928979e+01 
321 322 2 1.0279999999999925e+00 -2.0292011286141292e+03 1.0000000000000000e+00 1.0989307002032127e+00 1.9848288576301670e+01 2.1800270555534023e+01 
193 194 2 1.0279999999999954e+00 1.7294416381095980e+03 1.0000000000000000e+00 1.9703281420636578e+00 1.1001043705980258e+00 2.3330603341586947e+01 
499 500 2 1.0279999999999976e+00 4.3712008352115154e+03 1.0000000000000000e+00 1.1610476257841782e+00 1.5566927847525074e+00 2.3376103552823061e+01 
1116 1117 2 1.0279999999999918e+00 1.1388329287036180e+02 1.0000000000000000e+00 2.2896944241793502e+00 6.2698822849480818e-01 2.3461618495240561e+01 
1099 1100 2 1.0280000000000002e+00 -3.6648317795073194e+02 1.0000000000000000e+00 7.9733929575340423e-01 1.4917473466601712e+00 2.3730330818361356e+01 
1252 1253 2 1.0279999999999960e+00 1.7920653816341498e+03 1.0000000000000000e+00 1.8792159624798082e+00 1.2388020269234838e+00 2.3736197693814749e+01 
1253 1254 2 1.0279999999999958e+00 3.4920584160972630e+03 1.0000000000000000e+00 7.3317178231173830e-01 4.4901463134301411e-01 2.4612774735586122e+01 
565 566 2 1.0280000000000020e+00 -3.9342025468406855e+03 1.0000000000000000e+00 1.3433072542085505e+01 1.1656313879044555e+00 2.3042121466652922e+01 
1148 1149 2 1.0279999999999967e+00 -7.5797189973247987e+02 1.0000000000000000e+00 1.3610298092728689e+01 4.5091712772372861e-01 2.3468437837669615e+01 
86 87 2 1.0279999999999965e+00 -2.5535403020808212e+02 1.0000000000000000e+00 1.5373062044574372e+01 5.6912953238392772e-01 2.2817440079662404e+01 
227 228 2 1.0279999999999918e+00 -7.3598372160418216e+02 1.0000000000000000e+00 1.4866525323481056e+01 2.0204984290304058e+00 2.3312002122597661e+01 
116 117 2 1.0279999999999960e+00 -1.0528733864413571e+03 1.0000000000000000e+00 1.4544547290680228e+01 1.8085121095037313e+00 2.3955012959069514e+01 
137 138 2 1.0280000000000113e+00 4.2854859143410467e+03 1.0000000000000000e+00 1.6545920110229858e+01 8.0105822226743406e-01 2.4188071090678090e+01 
841 842 2 1.0280000000000002e+00 -2.1972175638559829e+03 1.0000000000000000e+00 1.5298920847442158e+01 1.5074608230507864e+00 2.4190933043113805e+01 
574 575 2 1.0279999999999951e+00 -1.9447061804527783e+02 1.0000000000000000e+00 1.4839314882886651e+01 1.5575618143511858e+00 2.4223677824996624e+01 
534 535 2 1.0280000000000200e+00 3.3521862183147859e+03 1.0000000000000000e+00 1.8255261665433316e+01 4.6691014824271576e-01 2.3101460315498308e+01 
866 867 2 1.0280000000000022e+00 4.8715263289033442e+02 1.0000000000000000e+00 1.8303794580940149e+01 1.7626015704941658e+00 2.4557481399412573e+01 
935 936 2 1.0280000000000067e+00 -1.1469099683939667e+03 1.0000000000000000e+00 1.5708260704523749e+00 1.7003801666941744e+01 2.4980668479022704e+01 
316 317 2 1.0279999999999991e+00 1.6121785820790353e+03 1.0000000000000000e+00 3.5876679104631632e+00 1.5209186660227743e+01 2.4317796316310204e+01 
1231 1232 2 1.0279999999999994e+00 -8.1259069543341298e+02 1.0000000000000000e+00 3.1607266510312231e+00 1.6329254615861480e+01 2.4470859358205374e+01 
1517 1518 2 1.0279999999999971e+00 -1.3317475310980653e+03 1.0000000000000000e+00 4.1928682557675483e+00 1.5650570092670380e+01 2.4637406941627219e+01 
159 160 2 1.0279999999999965e+00 -1.4051712640855993e+02 1.0000000000000000e+00 7.0583253034367044e-01 1.8534673843039020e+01 2.4703625620470426e+01 
306 307 2 1.0280000000000085e+00 -2.4171492777925887e+03 1.0000000000000000e+00 2.9505547193749075e+00 1.9166957612810876e+01 2.4684579159957867e+01 
1347 1348 2 1.0280000000000005e+00 6.6316910601174659e+03 1.0000000000000000e+00 4.2018779757975677e+00 1.9456683173283231e+01 2.4987870548338037e+01 
1329 1330 2 1.0280000000000011e+00 3.4920741931031380e+03 1.0000000000000000e+00 7.3177655456639501e-01 4.4871402192946375e-01 2.6638458550456882e+01 
1336 1337 2 1.0280000000000014e+00 1.7920630331664133e+03 1.0000000000000000e+00 1.8768537227019919e+00 1.2395158831547273e+00 2.7515163479366457e+01 
1183 1184 2 1.0280000000000014e+00 -3.6648405744485410e+02 1.0000000000000000e+00 7.9569847443022079e-01 1.4923157849277038e+00 2.7520750364892997e+01 
163 164 2 1.0279999999999874e+00 1.0001118612156718e+03 1.0000000000000000e+00 1.6346387318030011e+01 1.4103388572036650e+00 2.6528352554588267e+01 
220 221 2 1.0279999999999716e+00 4.9168850247451996e+02 1.0000000000000000e+00 1.5719629826611536e+01 6.3700954544528499e-01 2.6999817675731308e+01 
756 757 2 1.0280000000000176e+00 -5.2300934179353899e+03 1.0000000000000000e+00 1.6311316183350073e+01 1.5118331360871262e+00 2.7404492166173043e+01 
713 714 2 1.0280000000000045e+00 -8.4709782024566186e+02 1.0000000000000000e+00 1.5287986568087064e+01 8.0185513251131846e-01 2.7519743888983005e+01 
1373 1374 2 1.0280000000000007e+00 2.2180470151631248e+03 1.0000000000000000e+00 1.8135769634920596e+01 2.6393832443313969e+00 2.5060872852238415e+01 
1303 1304 2 1.0279999999999994e+00 -5.7212587812507263e+02 1.0000000000000000e+00 1.7773532438748159e+01 1.1814095360917227e+00 2.5601618906345443e+01 
74 75 2 1.0280000000000002e+00 7.6524649711271957e+02 1.0000000000000000e+00 1.7962712191741986e+01 1.2371560335847995e+00 2.5607633509053478e+01 
665 666 2 1.0280000000000000e+00 -2.0999998954300918e+03 1.0000000000000000e+00 1.9496298440389641e+01 3.3487443677778690e+00 2.5650765878975903e+01 
668 669 2 1.0280000000000029e+00 -2.0999999618053489e+03 1.0000000000000000e+00 1.9106820056403667e+01 3.3487146155673586e+00 2.5650678486543679e+01 
293 294 2 1.0279999999999994e+00 6.0486632874626684e+03 1.0000000000000000e+00 1.7608209843068355e+01 2.9877772392809114e+00 2.5996443630040609e+01 
1218 1219 2 1.0280000000000051e+00 -1.6876138925587006e+03 1.0000000000000000e+00 1.7661085042049908e+01 3.3032315391449547e+00 2.7282773937296842e+01 
678 679 2 1.0279999999999925e+00 2.6028680796953535e+02 1.0000000000000000e+00 1.7692489814710900e+01 3.3487620815394230e+00 2.7699122232174147e+01 
1043 1044 2 1.0280000000000058e+00 -1.1469096843409284e+03 1.0000000000000000e+00 1.5708577976718028e+00 1.7003805280240083e+01 2.5216588044100515e+01 
604 605 2 1.0280000000000040e+00 3.3613168489799473e+03 1.0000000000000000e+00 3.4677061920643260e+00 1.4653534844557417e+01 2.5066452455065043e+01 
464 465 2 1.0280000000000060e+00 3.3613172138366563e+03 1.0000000000000000e+00 3.4677058582745852e+00 1.4653534385587363e+01 2.5130795190758594e+01 
1369 1370 2 1.0279999999999963e+00 -1.3317471764001880e+03 1.0000000000000000e+00 4.1928800613402109e+00 1.5650537039381206e+01 2.5559849928880798e+01 
1355 1356 2 1.0279999999999991e+00 -8.1259098639472882e+02 1.0000000000000000e+00 3.1607282211043275e+00 1.6329233883928957e+01 2.5726410958300125e+01 
448 449 2 1.0280000000000009e+00 1.6121790322150528e+03 1.0000000000000000e+00 3.5876755215503371e+00 1.5209206996873460e+01 2.5879471639299968e+01 
24 25 2 1.0279999999999883e+00 1.6176344138779345e+03 1.0000000000000000e+00 6.0316498099194471e-01 1.7193953533656696e+01 2.5093990788331382e+01 
132 133 2 1.0279999999999878e+00 1.6176345926971071e+03 1.0000000000000000e+00 6.0315992977286847e-01 1.7193954930912604e+01 2.5103242109879822e+01 
299 300 2 1.0279999999999947e+00 -1.4051717393659305e+02 1.0000000000000000e+00 7.0582692249187695e-01 1.8534678167674166e+01 2.5493581568706112e+01 
1239 1240 2 1.0280000000000014e+00 6.6316918785279540e+03 1.0000000000000000e+00 4.2018755583224401e+00 1.9456682098819456e+01 2.5209375552965358e+01 
454 455 2 1.0280000000000080e+00 -2.4171501579983642e+03 1.0000000000000000e+00 2.9505561149176356e+00 1.9166949374622625e+01 2.5512647183351891e+01 
1168 1169 2 1.0280000000000116e+00 1.1388667500112064e+02 1.0000000000000000e+00 2.2878643878381837e+00 6.2689172688035710e-01 2.7789872245115578e+01 
567 568 2 1.0280000000000027e+00 4.3712003934452923e+03 1.0000000000000000e+00 1.1597589607889693e+00 1.5573449033634434e+00 2.7875400810144729e+01 
261 262 2 1.0280000000000040e+00 1.7294416497341831e+03 1.0000000000000000e+00 1.9689745488615138e+00 1.0997695165367185e+00 2.7921250827449864e+01 
1062 1063 2 1.0279999999999951e+00 -2.5579265528911728e+03 1.0000000000000000e+00 1.3818240048588470e+01 5.5302443882806518e-01 2.8713708706992350e+01 
1345 1346 2 1.0279999999999987e+00 4.9488027463750286e+03 1.0000000000000000e+00 1.3472469468232326e+01 6.0498403124673875e-02 2.9220390808078985e+01 
1308 1309 2 1.0280000000000076e+00 8.6320778673719602e+01 1.0000000000000000e+00 1.6784153061737992e+01 1.6201101886726508e+00 2.8395283060447536e+01 
1315 1316 2 1.0279999999999920e+00 -8.6838593218070770e+01 1.0000000000000000e+00 1.6599500134142556e+01 1.2795351502732959e+00 3.0038929782858482e+01 
1298 1299 2 1.0279999999999982e+00 -1.4758425171028912e+03 1.0000000000000000e+00 1.7058994382694827e+01 1.6171223474704421e+00 3.0308396472286415e+01 
157 158 2 1.0279999999999925e+00 -3.0909925230916724e+02 1.0000000000000000e+00 1.7325407145290853e+01 2.3788438469752116e+00 2.9206301665015239e+01 
559 560 2 1.0279999999999969e+00 4.3867473890481506e+03 1.0000000000000000e+00 1.9835292192944266e+01 2.8481209316602780e+00 2.9410947698096056e+01 
558 559 2 1.0279999999999967e+00 4.3867474465407577e+03 1.0000000000000000e+00 1.8767814559641238e+01 2.8480832383710166e+00 2.9410944914961661e+01 
1322 1323 2 1.0279999999999969e+00 -7.1234753911194434e+02 1.0000000000000000e+00 1.8005961865336310e+01 1.9218689041477100e-03 2.9935957798884449e+01 
451 452 2 1.0279999999999994e+00 9.1906749973418997e+01 1.0000000000000000e+00 1.7789394668983014e+01 3.4037961366822644e+00 2.7838673914977914e+01 
1164 1165 2 1.0280000000000022e+00 -1.5452670744312481e+03 1.0000000000000000e+00 1.9084819174108624e+01 3.4304331259860463e+00 2.9083428473488215e+01 