LAMMPS data file via write_data, version 30 Jul 2016, timestep = 50400000

1520 atoms
8 atom types

0.0000000000000000e+00 4.0000000000000000e+01 xlo xhi
0.0000000000000000e+00 4.0000000000000000e+01 ylo yhi
0.0000000000000000e+00 1.0000000000000000e+02 zlo zhi

Masses

1 3.896
2 5.36
3 20.064
4 8.378
5 8.378
6 8.378
7 8.378
8 8.378

Atoms # meso-molecular

48 49 2 1.0280000000000076e+00 4.8788467111073453e+02 1.0000000000000000e+00 1.7137234859570647e+01 1.1045016528335057e+00 2.3870654692917950e+00 
333 334 2 1.0279999999999998e+00 -1.1260298440026058e+02 1.0000000000000000e+00 1.6561837226565604e+01 1.1258373829251971e+00 2.4553764462981880e+00 
1109 1110 2 1.0279999999999618e+00 5.3525186107154207e+02 1.0000000000000000e+00 1.9263564979862267e+01 1.3030656501988383e-01 1.5303101065092173e-01 
1112 1113 2 1.0279999999999632e+00 5.3525177043946576e+02 1.0000000000000000e+00 1.9342458969170043e+01 1.3030601399531852e-01 1.5303898629001958e-01 
202 203 2 1.0280000000000833e+00 4.3902633170420086e+02 1.0000000000000000e+00 1.8820437660618705e+01 4.4851826812111589e-01 2.7643433106799540e+00 
203 204 2 1.0280000000000853e+00 4.3902624132466747e+02 1.0000000000000000e+00 1.9782831680734947e+01 4.4857347334611630e-01 2.7643832199846656e+00 
800 801 2 1.0280000000000111e+00 -1.4595750349714649e+03 1.0000000000000000e+00 1.9297401493116201e+01 1.7031930474794546e+01 7.9127030962382094e-01 
797 798 2 1.0280000000000113e+00 -1.4595748376618567e+03 1.0000000000000000e+00 1.9296800084230121e+01 1.7031898105342830e+01 7.9130308711823494e-01 
882 883 2 1.0279999999999816e+00 3.1105717540612832e+03 1.0000000000000000e+00 1.9297806218932354e+01 1.6555404775342737e+01 2.3007148771846540e+00 
883 884 2 1.0279999999999907e+00 3.1105717554175694e+03 1.0000000000000000e+00 1.9296409110515782e+01 1.6555405582776050e+01 2.3007198873501977e+00 
803 804 2 1.0279999999999900e+00 2.5223350213429768e+02 1.0000000000000000e+00 1.9392245538517578e+01 1.6678543708868254e+01 2.7276642814659589e+00 
802 803 2 1.0279999999999883e+00 2.5223350195880229e+02 1.0000000000000000e+00 1.9201976050601008e+01 1.6678553628967592e+01 2.7276898631350508e+00 
754 755 2 1.0279999999999998e+00 -5.7884601020486007e+03 1.0000000000000000e+00 1.6860847689400327e+01 1.9831036502825832e+01 2.5931525156606887e+00 
330 331 2 1.0280000000000000e+00 1.3749741954624278e+03 1.0000000000000000e+00 1.7004924416532727e+01 1.5056251320206324e+00 3.0798263815817513e+00 
1400 1401 2 1.0279999999999943e+00 -1.0541492896531469e+02 1.0000000000000000e+00 1.5894863161319243e+01 1.1181690526676966e+00 3.4144624546001889e+00 
1108 1109 2 1.0279999999999876e+00 -6.1331023843106527e+02 1.0000000000000000e+00 1.6504533306167126e+01 1.0592174098275260e+00 5.2612996404903871e+00 
38 39 2 1.0280000000000027e+00 4.2434902224300038e+02 1.0000000000000000e+00 1.7193611788784342e+01 1.4411851103015803e+00 2.9381608211628292e+00 
1144 1145 2 1.0279999999999918e+00 -9.9213960045843362e+02 1.0000000000000000e+00 1.8277374829187053e+01 5.5682326431604290e-01 4.8976171573829950e+00 
1160 1161 2 1.0280000000000158e+00 -1.2113409333554735e+03 1.0000000000000000e+00 1.6528471366759266e+01 1.9298625652538576e+01 3.4658214486871910e+00 
1124 1125 2 1.0279999999999874e+00 -1.2113666349116897e+03 1.0000000000000000e+00 1.6526037404136233e+01 1.9292401397680909e+01 5.4097338290934447e+00 
1125 1126 2 1.0279999999999934e+00 -4.3136467671335504e+02 1.0000000000000000e+00 1.8496410593448861e+01 1.8961746794724601e+01 2.8119680244316854e+00 
1312 1313 2 1.0280000000000016e+00 1.1374893148056537e+03 1.0000000000000000e+00 1.7357210594951660e+01 1.8816446762002659e+01 3.0322452707326417e+00 
374 375 2 1.0280000000000067e+00 6.2839401728290568e+02 1.0000000000000000e+00 1.8288636887850338e+01 1.8053441334343116e+01 4.0455713708869290e+00 
386 387 2 1.0279999999999989e+00 6.2839565117302050e+02 1.0000000000000000e+00 1.8275116208972694e+01 1.8035668212920662e+01 4.9180493191077987e+00 
1237 1238 2 1.0280000000000107e+00 4.9488045105933397e+03 1.0000000000000000e+00 1.3452180958355154e+01 6.6933888338758851e-02 8.1881852515857361e+00 
493 494 2 1.0279999999999914e+00 -5.5768536833070084e+03 1.0000000000000000e+00 1.5609617602040377e+01 7.9397195118969854e-01 6.8298417418346133e+00 
1286 1287 2 1.0280000000000127e+00 -1.4758339786121355e+03 1.0000000000000000e+00 1.7049783925612292e+01 1.6147898270669099e+00 7.1015562768907046e+00 
1271 1272 2 1.0280000000000036e+00 -8.6834149938381202e+01 1.0000000000000000e+00 1.6581872714722081e+01 1.2703862167672562e+00 7.3749887988588867e+00 
80 81 2 1.0279999999999914e+00 3.2696851071484384e+03 1.0000000000000000e+00 1.7257085525913922e+01 1.1439957069614124e+00 5.6308647126186493e+00 
34 35 2 1.0280000000000111e+00 -6.9829272002524999e+02 1.0000000000000000e+00 1.8509290451785162e+01 1.0419624183794429e+00 6.2505031287690320e+00 
1262 1263 2 1.0279999999999954e+00 -7.1232027890620589e+02 1.0000000000000000e+00 1.7981644486770044e+01 2.1133687539057751e-03 7.5108385142762089e+00 
506 507 2 1.0280000000000156e+00 4.3867841412914458e+03 1.0000000000000000e+00 1.8765814813986232e+01 2.8530921236803666e+00 8.0057837985928515e+00 
507 508 2 1.0280000000000074e+00 4.3867842639735645e+03 1.0000000000000000e+00 1.9837498527628334e+01 2.8530859238576798e+00 8.0058313235954657e+00 
297 298 2 1.0280000000000333e+00 -3.0908225428190212e+02 1.0000000000000000e+00 1.7328689380269502e+01 2.3780210850765986e+00 8.2214547520968573e+00 
1120 1121 2 1.0279999999999956e+00 -1.5453340936950049e+03 1.0000000000000000e+00 1.9087656484219355e+01 3.4356543815739284e+00 8.3332143366723646e+00 
1117 1118 2 1.0279999999999967e+00 -1.5453339459563408e+03 1.0000000000000000e+00 1.9515629260411021e+01 3.4356503925670929e+00 8.3332282900563897e+00 
871 872 2 1.0279999999999943e+00 2.5220665924595596e+02 1.0000000000000000e+00 1.9383810973298953e+01 1.6648985726156557e+01 6.1638771300129154e+00 
870 871 2 1.0279999999999938e+00 2.5220650939638182e+02 1.0000000000000000e+00 1.9210421451380974e+01 1.6648975510723172e+01 6.1639016906082746e+00 
790 791 2 1.0279999999999865e+00 3.1105195195288516e+03 1.0000000000000000e+00 1.9297907908743426e+01 1.6510819228106836e+01 6.5851604707605800e+00 
791 792 2 1.0279999999999878e+00 3.1105193937972867e+03 1.0000000000000000e+00 1.9296326845494864e+01 1.6510818034704336e+01 6.5851660177235214e+00 
876 877 2 1.0280000000000082e+00 -1.4596239228231311e+03 1.0000000000000000e+00 1.9297447570887638e+01 1.6894371931161643e+01 8.1572800465576520e+00 
873 874 2 1.0280000000000078e+00 -1.4596242777367775e+03 1.0000000000000000e+00 1.9296784450986159e+01 1.6894398298836489e+01 8.1573099962757389e+00 
614 615 2 1.0279999999999989e+00 -5.7881875591297721e+03 1.0000000000000000e+00 1.6845006965630020e+01 1.9830916856285398e+01 6.2827164404825613e+00 
1276 1277 2 1.0279999999999947e+00 1.1374970551998160e+03 1.0000000000000000e+00 1.7367141137164044e+01 1.8811613496159321e+01 5.8724462800691350e+00 
1153 1154 2 1.0280000000000087e+00 -4.3144293717600630e+02 1.0000000000000000e+00 1.8512000687581331e+01 1.8974783946081185e+01 6.0728648576095230e+00 
914 915 2 1.0280000000000113e+00 -2.5579282666253721e+03 1.0000000000000000e+00 1.3803856029940791e+01 5.5605912741984653e-01 8.6983586535735036e+00 
1280 1281 2 1.0279999999999454e+00 8.6317505779352018e+01 1.0000000000000000e+00 1.6778904977527972e+01 1.6184848637322728e+00 9.0255999841654901e+00 
653 654 2 1.0280000000000169e+00 -8.4708655391740785e+02 1.0000000000000000e+00 1.5275762632103811e+01 7.9869599168360772e-01 9.8850756485240812e+00 
616 617 2 1.0280000000000020e+00 -5.2301007552440533e+03 1.0000000000000000e+00 1.6308271272757178e+01 1.5145726523334639e+00 1.0013473862662975e+01 
240 241 2 1.0280000000000364e+00 4.9170181565679263e+02 1.0000000000000000e+00 1.5711908100773547e+01 6.3677048405041348e-01 1.0415597445326227e+01 
295 296 2 1.0280000000000153e+00 1.0001086432127449e+03 1.0000000000000000e+00 1.6338059012814593e+01 1.4185027806478872e+00 1.0892648877594221e+01 
311 312 2 1.0280000000000060e+00 9.1893325337680835e+01 1.0000000000000000e+00 1.7788247658935866e+01 3.4072182815478378e+00 9.5773502870932052e+00 
690 691 2 1.0280000000000018e+00 2.6027756853980770e+02 1.0000000000000000e+00 1.7691541587577440e+01 3.3525809886775431e+00 9.7152340489910696e+00 
1366 1367 2 1.0280000000000047e+00 -1.6876226635599937e+03 1.0000000000000000e+00 1.7660673625255217e+01 3.3082384311237600e+00 1.0131035605366455e+01 
97 98 2 1.0279999999999967e+00 2.2463724759975835e+03 1.0000000000000000e+00 1.9391865542721000e+01 1.7086309730899274e+01 1.0584477941251407e+01 
100 101 2 1.0279999999999945e+00 2.2463724281398286e+03 1.0000000000000000e+00 1.9202369546113673e+01 1.7086308451375430e+01 1.0584481356932354e+01 
243 244 2 1.0279999999999985e+00 9.9509837279753629e+02 1.0000000000000000e+00 1.9193542369451784e+01 1.7237618035280892e+01 9.0634256942141160e+00 
242 243 2 1.0279999999999985e+00 9.9509846679079226e+02 1.0000000000000000e+00 1.9400692346060001e+01 1.7237617524506128e+01 9.0634259950046623e+00 
1049 1050 2 1.0279999999999991e+00 3.5174752386188793e+03 1.0000000000000000e+00 1.9303304084685642e+01 1.7214942635238533e+01 1.0905941683319440e+01 
1052 1053 2 1.0280000000000056e+00 3.5174750660720729e+03 1.0000000000000000e+00 1.9290931485306835e+01 1.7214942369471771e+01 1.0905941803848989e+01 
490 491 2 1.0280000000000007e+00 -1.9446950737124439e+02 1.0000000000000000e+00 1.4837572407971583e+01 1.5611772032460176e+00 1.3192022927754659e+01 
13 14 2 1.0280000000000045e+00 4.2854864981248857e+03 1.0000000000000000e+00 1.6531460262511860e+01 8.0847208456045772e-01 1.3194402418537985e+01 
829 830 2 1.0280000000000089e+00 -2.1972123699341546e+03 1.0000000000000000e+00 1.5307832019838610e+01 1.5111665906006200e+00 1.3226217857421501e+01 
40 41 2 1.0280000000000005e+00 -1.0528745954134070e+03 1.0000000000000000e+00 1.4540213619287778e+01 1.8093087210585757e+00 1.3462567854268569e+01 
78 79 2 1.0279999999999907e+00 7.6525160127832100e+02 1.0000000000000000e+00 1.7958421500001773e+01 1.2402232319513036e+00 1.1787568819397727e+01 
1283 1284 2 1.0279999999999687e+00 -5.7213036985730128e+02 1.0000000000000000e+00 1.7774654660807911e+01 1.1795478913661028e+00 1.1805340627568908e+01 
1513 1514 2 1.0280000000000067e+00 2.2180186339414486e+03 1.0000000000000000e+00 1.8139282562513724e+01 2.6407938598920464e+00 1.2357085240975763e+01 
806 807 2 1.0279999999999954e+00 4.8714771056636891e+02 1.0000000000000000e+00 1.8311784733389171e+01 1.7666114597011453e+00 1.2859314406588986e+01 
161 162 2 1.0280000000000034e+00 6.0486610189940966e+03 1.0000000000000000e+00 1.7607630348118338e+01 2.9897496946496789e+00 1.1419760152191218e+01 
701 702 2 1.0280000000000036e+00 -2.1000053100113164e+03 1.0000000000000000e+00 1.9492916088320385e+01 3.3522225124936660e+00 1.1762830432298021e+01 
704 705 2 1.0280000000000078e+00 -2.1000054660952510e+03 1.0000000000000000e+00 1.9110350024905991e+01 3.3521652493942571e+00 1.1762972189197081e+01 
246 247 2 1.0280000000000087e+00 -1.7016565650415509e+03 1.0000000000000000e+00 1.6800196818077815e+01 1.9695927426829858e+01 1.3582405273426799e+01 
1317 1318 2 1.0279999999999967e+00 1.9512549081383690e+03 1.0000000000000000e+00 1.8434854616149092e+01 1.8711453589302877e+01 1.2617063676558995e+01 
1150 1151 2 1.0279999999999969e+00 2.0455498401516618e+02 1.0000000000000000e+00 1.8361602364316195e+01 1.8455159219986122e+01 1.2773690439382849e+01 
1001 1002 2 1.0280000000000000e+00 -6.2262852435217719e+03 1.0000000000000000e+00 1.7148068278900414e+01 1.9547698374131599e+01 1.3065594443012596e+01 
554 555 2 1.0280000000000080e+00 3.9063484570208066e+03 1.0000000000000000e+00 1.9266009000506472e+01 1.7331806197756549e+01 1.3522917461034988e+01 
555 556 2 1.0280000000000082e+00 3.9063484780441704e+03 1.0000000000000000e+00 1.9328228457860245e+01 1.7331805991794461e+01 1.3522918511085946e+01 
1136 1137 2 1.0279999999999883e+00 -7.5796834809583402e+02 1.0000000000000000e+00 1.3605318824404087e+01 4.4789664783517880e-01 1.3951746576558048e+01 
497 498 2 1.0279999999999936e+00 -3.9342042370790023e+03 1.0000000000000000e+00 1.3427502894729153e+01 1.1601775477108314e+00 1.4375185695247007e+01 
25 26 2 1.0280000000000129e+00 -1.7911287449874969e+01 1.0000000000000000e+00 1.3510037949298633e+01 1.9106297516270285e+00 1.5207409520575554e+01 
165 166 2 1.0279999999999998e+00 3.7779142116645762e+03 1.0000000000000000e+00 1.2457228663215314e+01 1.8606468686734663e+00 1.6198871360622661e+01 
796 797 2 1.0280000000000067e+00 -3.2755136715839453e+03 1.0000000000000000e+00 1.3747936324847792e+01 1.9325930072514985e+00 1.6298565043305604e+01 
840 841 2 1.0279999999999996e+00 -1.2495758257633461e+03 1.0000000000000000e+00 1.2559292127123756e+01 2.2516593309999013e+00 1.6341195645876184e+01 
231 232 2 1.0280000000000040e+00 -7.3598590708623647e+02 1.0000000000000000e+00 1.4869949077833448e+01 2.0191544797225074e+00 1.4103791697044803e+01 
66 67 2 1.0280000000000182e+00 -2.5536080709477358e+02 1.0000000000000000e+00 1.5378033691109115e+01 5.6719936251436121e-01 1.4588901509626004e+01 
530 531 2 1.0280000000000162e+00 3.3522039787881690e+03 1.0000000000000000e+00 1.8254648263367617e+01 4.8361455077349630e-01 1.4287603513635904e+01 
1456 1457 2 1.0279999999999971e+00 2.7372244406675627e+03 1.0000000000000000e+00 1.9208444595938850e+01 1.4022324414014884e+01 1.5037154103542060e+01 
1453 1454 2 1.0280000000000002e+00 2.7372245190111316e+03 1.0000000000000000e+00 1.9385866405429717e+01 1.4022320479229393e+01 1.5037165635678530e+01 
91 92 2 1.0279999999999994e+00 1.8702937251659591e+02 1.0000000000000000e+00 1.9300516334364360e+01 1.4111498962012988e+01 1.5444598691364602e+01 
90 91 2 1.0279999999999998e+00 1.8702917285349631e+02 1.0000000000000000e+00 1.9293791879461864e+01 1.4111498858364737e+01 1.5444598577933395e+01 
96 97 2 1.0280000000000051e+00 4.7561347470530354e+03 1.0000000000000000e+00 1.9726117506766698e+01 1.4690285363520648e+01 1.4998064501069926e+01 
93 94 2 1.0280000000000049e+00 4.7561348479714743e+03 1.0000000000000000e+00 1.8868187769766873e+01 1.4690287630135961e+01 1.4998071699682976e+01 
1324 1325 2 1.0279999999999967e+00 4.6418031368752354e+03 1.0000000000000000e+00 1.8420483154973908e+01 1.6802115430999727e+01 1.5246954626445845e+01 
562 563 2 1.0279999999999914e+00 3.9372430035589095e+03 1.0000000000000000e+00 1.7893254838961589e+01 1.7681425402688724e+01 1.5292400611499605e+01 
58 59 2 1.0279999999999945e+00 1.1301052881237726e+02 1.0000000000000000e+00 1.7246096355116567e+01 1.9779799422313946e+01 1.5399051164379276e+01 
809 810 2 1.0279999999999991e+00 -2.9897697449924280e+01 1.0000000000000000e+00 1.7779772618322205e+01 1.9138255664361530e+01 1.5602021799879919e+01 
112 113 2 1.0280000000000005e+00 1.7305271468155634e+03 1.0000000000000000e+00 1.8015462425478670e+01 1.7747860898800173e+01 1.5626005409143632e+01 
553 554 2 1.0280000000000025e+00 -3.3633669950186763e+03 1.0000000000000000e+00 1.8458498341838144e+01 1.7716381132453318e+01 1.5976092114409752e+01 
1220 1221 2 1.0280000000000029e+00 -1.9151094461342808e+02 1.0000000000000000e+00 1.1344172132694373e+01 2.1249815112065686e+00 1.6821584877745124e+01 
463 464 2 1.0280000000000027e+00 3.8641185217241031e+02 1.0000000000000000e+00 1.1264455895826057e+01 2.4309110915205498e+00 1.7213552237243057e+01 
389 390 2 1.0279999999999907e+00 -5.7939870964029728e+02 1.0000000000000000e+00 1.1411799407671063e+01 8.7234656908483221e-01 1.7606510790321671e+01 
369 370 2 1.0279999999999929e+00 -5.7939629556490866e+02 1.0000000000000000e+00 1.1412055033982186e+01 8.7266311666504648e-01 1.7843433850222841e+01 
603 604 2 1.0280000000000040e+00 3.8641122593851128e+02 1.0000000000000000e+00 1.1265989431618648e+01 2.4309189604079111e+00 1.8236386542488933e+01 
1368 1369 2 1.0280000000000011e+00 -1.9151359190953468e+02 1.0000000000000000e+00 1.1346997694217078e+01 2.1253678829831011e+00 1.8627731267348715e+01 
836 837 2 1.0279999999999994e+00 -1.2495782651318023e+03 1.0000000000000000e+00 1.2563303756116573e+01 2.2520876787745818e+00 1.9105423391378718e+01 
880 881 2 1.0279999999999936e+00 -3.2755128921335390e+03 1.0000000000000000e+00 1.3752269466987757e+01 1.9365556492187239e+00 1.9149268557527741e+01 
289 290 2 1.0280000000000005e+00 3.7779102083167609e+03 1.0000000000000000e+00 1.2461529794660407e+01 1.8635445368078161e+00 1.9246313241792720e+01 
15 16 2 1.0279999999999987e+00 -4.2352977564424382e+03 1.0000000000000000e+00 1.4753436996712677e+01 2.2191476811573834e+00 1.6697942682921479e+01 
608 609 2 1.0280000000000029e+00 4.6160395488689737e+03 1.0000000000000000e+00 1.5698570074385044e+01 2.1228243795736303e+00 1.6843265794671314e+01 
779 780 2 1.0280000000000002e+00 -3.1955598097908623e+03 1.0000000000000000e+00 1.5411289983541762e+01 2.6485707747834684e+00 1.7204953975803782e+01 
519 520 2 1.0280000000000038e+00 4.1091041763303838e+03 1.0000000000000000e+00 1.6933559938238183e+01 1.4072478905017112e+00 1.7328451993559437e+01 
547 548 2 1.0279999999999929e+00 4.1091062096277074e+03 1.0000000000000000e+00 1.6896508251035730e+01 1.4192541128157119e+00 1.8102031217581420e+01 
895 896 2 1.0279999999999989e+00 -3.1955626986157172e+03 1.0000000000000000e+00 1.5405824428122031e+01 2.6505470818518102e+00 1.8230802178062238e+01 
460 461 2 1.0280000000000031e+00 4.6160395906333915e+03 1.0000000000000000e+00 1.5690691009281222e+01 2.1244326265830753e+00 1.8593730546065956e+01 
139 140 2 1.0280000000000094e+00 -4.2352922919151315e+03 1.0000000000000000e+00 1.4750048129817507e+01 2.2116446249587822e+00 1.8748853229053871e+01 
64 65 2 1.0280000000000260e+00 3.2591810729128110e+03 1.0000000000000000e+00 1.8762852492456776e+01 9.1985137739256495e-01 1.6740106287937071e+01 
61 62 2 1.0280000000000273e+00 3.2591810356974956e+03 1.0000000000000000e+00 1.9840338764961068e+01 9.1989469376403132e-01 1.6740173815485846e+01 
312 313 2 1.0280000000000011e+00 8.0804387322406274e+03 1.0000000000000000e+00 1.7963999913559462e+01 1.6655367636476084e+00 1.7613418014663324e+01 
452 453 2 1.0279999999999920e+00 8.0804375808351906e+03 1.0000000000000000e+00 1.7963284579028908e+01 1.6605484108002537e+00 1.7814275404000728e+01 
92 93 2 1.0279999999999880e+00 3.2591911614945157e+03 1.0000000000000000e+00 1.8779228923897392e+01 9.1591199653505129e-01 1.8625140483335599e+01 
89 90 2 1.0279999999999847e+00 3.2591911309193101e+03 1.0000000000000000e+00 1.9824034269215051e+01 9.1590568641494163e-01 1.8625153333545164e+01 
193 194 2 1.0279999999999927e+00 1.7294416381095980e+03 1.0000000000000000e+00 1.9703544802841513e+00 1.1001262194146837e+00 2.1365472921093144e+01 
499 500 2 1.0280000000000007e+00 4.3712008352115154e+03 1.0000000000000000e+00 1.1610739641823073e+00 1.5567146335861559e+00 2.1410973132282301e+01 
1116 1117 2 1.0279999999999960e+00 1.1388329287036180e+02 1.0000000000000000e+00 2.2897207623137255e+00 6.2701007737307035e-01 2.1496488074732820e+01 
1099 1100 2 1.0279999999999994e+00 -3.6648317795073194e+02 1.0000000000000000e+00 7.9736563415153483e-01 1.4917691954958847e+00 2.1765200397819644e+01 
1252 1253 2 1.0280000000000007e+00 1.7920653816341498e+03 1.0000000000000000e+00 1.8792423007703261e+00 1.2388238756685193e+00 2.1771067273236305e+01 
125 126 2 1.0280000000000040e+00 -1.7910916069304605e+01 1.0000000000000000e+00 1.3518631493665460e+01 1.9123127558559800e+00 2.0241590421161710e+01 
565 566 2 1.0279999999999991e+00 -3.9342025468406855e+03 1.0000000000000000e+00 1.3433095651773828e+01 1.1656912222095681e+00 2.1079725201547621e+01 
1148 1149 2 1.0280000000000187e+00 -7.5797189973247987e+02 1.0000000000000000e+00 1.3610321202392388e+01 4.5097696194855885e-01 2.1506041572473819e+01 
86 87 2 1.0280000000000127e+00 -2.5535403020808212e+02 1.0000000000000000e+00 1.5373085154201139e+01 5.6918936649890273e-01 2.0855043814704196e+01 
227 228 2 1.0279999999999982e+00 -7.3598372160418216e+02 1.0000000000000000e+00 1.4866548433169275e+01 2.0205582632091992e+00 2.1349605857565400e+01 
116 117 2 1.0279999999999976e+00 -1.0528733864413571e+03 1.0000000000000000e+00 1.4544570400360275e+01 1.8085719435712189e+00 2.1992616694057801e+01 
534 535 2 1.0280000000000180e+00 3.3521862183147859e+03 1.0000000000000000e+00 1.8255284775125254e+01 4.6696998198654660e-01 2.1139064050241551e+01 
769 770 2 1.0280000000000098e+00 -3.1362974409752096e+03 1.0000000000000000e+00 8.8691162228905918e-01 1.9503222933010221e+01 1.9503556951196966e+01 
1081 1082 2 1.0279999999999934e+00 -2.0292011287070118e+03 1.0000000000000000e+00 1.0989316865655949e+00 1.9951823979842420e+01 1.9830913837114977e+01 
321 322 2 1.0279999999999976e+00 -2.0292011286141292e+03 1.0000000000000000e+00 1.0989316902840409e+00 1.9848289026785764e+01 1.9830913834720562e+01 
1253 1254 2 1.0279999999999943e+00 3.4920584160972630e+03 1.0000000000000000e+00 7.3319812075427637e-01 4.4903648026581039e-01 2.2647644314897615e+01 
1329 1330 2 1.0279999999999969e+00 3.4920741931031380e+03 1.0000000000000000e+00 7.3180289300893309e-01 4.4873587085221839e-01 2.4673328129389525e+01 
137 138 2 1.0280000000000289e+00 4.2854859143410467e+03 1.0000000000000000e+00 1.6545943219921796e+01 8.0111805580430306e-01 2.2225674825551071e+01 
841 842 2 1.0279999999999965e+00 -2.1972175638559829e+03 1.0000000000000000e+00 1.5298943956981432e+01 1.5075206568940029e+00 2.2228536778096693e+01 
574 575 2 1.0280000000000020e+00 -1.9447061804527783e+02 1.0000000000000000e+00 1.4839337992578589e+01 1.5576216482605665e+00 2.2261281559968218e+01 
163 164 2 1.0279999999999894e+00 1.0001118612156718e+03 1.0000000000000000e+00 1.6346410427721949e+01 1.4103986899977601e+00 2.4565956289514968e+01 
866 867 2 1.0280000000000138e+00 4.8715263289033442e+02 1.0000000000000000e+00 1.8303817690632087e+01 1.7626614038684774e+00 2.2595085134084336e+01 
1373 1374 2 1.0280000000000022e+00 2.2180470151631248e+03 1.0000000000000000e+00 1.8135792744612534e+01 2.6394430775484721e+00 2.3098476587165401e+01 
1303 1304 2 1.0279999999999756e+00 -5.7212587812507263e+02 1.0000000000000000e+00 1.7773555548440097e+01 1.1814693691481799e+00 2.3639222641287557e+01 
74 75 2 1.0279999999999829e+00 7.6524649711271957e+02 1.0000000000000000e+00 1.7962735301433923e+01 1.2372158666630186e+00 2.3645237244000224e+01 
668 669 2 1.0279999999999996e+00 -2.0999999618053489e+03 1.0000000000000000e+00 1.9106843166095604e+01 3.3487744486907394e+00 2.3688282221527171e+01 
665 666 2 1.0280000000000014e+00 -2.0999998954300918e+03 1.0000000000000000e+00 1.9496321550081579e+01 3.3488042009073866e+00 2.3688369613957452e+01 
293 294 2 1.0279999999999978e+00 6.0486632874626684e+03 1.0000000000000000e+00 1.7608232952760293e+01 2.9878370722914500e+00 2.4034047364997537e+01 
935 936 2 1.0280000000000100e+00 -1.1469099683939667e+03 1.0000000000000000e+00 1.5708270603270158e+00 1.7003802117425838e+01 2.3011311757934951e+01 
1043 1044 2 1.0280000000000100e+00 -1.1469096843409284e+03 1.0000000000000000e+00 1.5708587875465048e+00 1.7003805730724178e+01 2.3247231323094727e+01 
316 317 2 1.0279999999999996e+00 1.6121785820790353e+03 1.0000000000000000e+00 3.5876689006044655e+00 1.5209187110711838e+01 2.2348439595287715e+01 
1231 1232 2 1.0280000000000038e+00 -8.1259069543341298e+02 1.0000000000000000e+00 3.1607276410442622e+00 1.6329255066345574e+01 2.2501502637239209e+01 
1517 1518 2 1.0279999999999965e+00 -1.3317475310980653e+03 1.0000000000000000e+00 4.1928692459075760e+00 1.5650570543154474e+01 2.2668050220642183e+01 
604 605 2 1.0280000000000029e+00 3.3613168489799473e+03 1.0000000000000000e+00 3.4677071822033132e+00 1.4653535295041511e+01 2.3097095734007226e+01 
464 465 2 1.0280000000000065e+00 3.3613172138366563e+03 1.0000000000000000e+00 3.4677068484136635e+00 1.4653534836071458e+01 2.3161438469722874e+01 
1369 1370 2 1.0279999999999943e+00 -1.3317471764001880e+03 1.0000000000000000e+00 4.1928810514804518e+00 1.5650537489865300e+01 2.3590493207771761e+01 
1355 1356 2 1.0280000000000022e+00 -8.1259098639472882e+02 1.0000000000000000e+00 3.1607292111175931e+00 1.6329234334413051e+01 2.3757054237172564e+01 
448 449 2 1.0280000000000007e+00 1.6121790322150528e+03 1.0000000000000000e+00 3.5876765116916394e+00 1.5209207447357555e+01 2.3910114918228704e+01 
159 160 2 1.0279999999999896e+00 -1.4051712640855993e+02 1.0000000000000000e+00 7.0583352040818637e-01 1.8534674293523114e+01 2.2734268899603673e+01 
24 25 2 1.0279999999999887e+00 1.6176344138779345e+03 1.0000000000000000e+00 6.0316597108879311e-01 1.7193953984140791e+01 2.3124634067287833e+01 
132 133 2 1.0279999999999880e+00 1.6176345926971071e+03 1.0000000000000000e+00 6.0316091986972087e-01 1.7193955381396698e+01 2.3133885388829864e+01 
299 300 2 1.0279999999999925e+00 -1.4051717393659305e+02 1.0000000000000000e+00 7.0582791255654631e-01 1.8534678618158260e+01 2.3524224847479307e+01 
306 307 2 1.0280000000000062e+00 -2.4171492777925887e+03 1.0000000000000000e+00 2.9505557092924457e+00 1.9166958063294970e+01 2.2715222438843355e+01 
1347 1348 2 1.0279999999999994e+00 6.6316910601174659e+03 1.0000000000000000e+00 4.2018789657191018e+00 1.9456683623767326e+01 2.3018513827304194e+01 
1239 1240 2 1.0279999999999998e+00 6.6316918785279540e+03 1.0000000000000000e+00 4.2018765482439688e+00 1.9456682549303551e+01 2.3240018831905974e+01 
454 455 2 1.0280000000000022e+00 -2.4171501579983642e+03 1.0000000000000000e+00 2.9505571048350485e+00 1.9166949825106720e+01 2.3543290462373083e+01 
1336 1337 2 1.0279999999999974e+00 1.7920630331664133e+03 1.0000000000000000e+00 1.8768800609929992e+00 1.2395377318997844e+00 2.5550033058188852e+01 
1183 1184 2 1.0280000000000042e+00 -3.6648405744485410e+02 1.0000000000000000e+00 7.9572481282837537e-01 1.4923376337634644e+00 2.5555619943678511e+01 
1168 1169 2 1.0280000000000022e+00 1.1388667500112064e+02 1.0000000000000000e+00 2.2878907259728538e+00 6.2691357575861928e-01 2.5824741823866820e+01 
567 568 2 1.0280000000000020e+00 4.3712003934452923e+03 1.0000000000000000e+00 1.1597852991870985e+00 1.5573667521971837e+00 2.5910270388929447e+01 
261 262 2 1.0279999999999958e+00 1.7294416497341831e+03 1.0000000000000000e+00 1.9690008870820130e+00 1.0997913653536453e+00 2.5956120406187463e+01 
1062 1063 2 1.0279999999999903e+00 -2.5579265528911728e+03 1.0000000000000000e+00 1.3818263158152735e+01 5.5308427131828775e-01 2.6751312441747753e+01 
1345 1346 2 1.0279999999999971e+00 4.9488027463750286e+03 1.0000000000000000e+00 1.3472492577780239e+01 6.0558235462003437e-02 2.7257994542888557e+01 
220 221 2 1.0279999999999638e+00 4.9168850247451996e+02 1.0000000000000000e+00 1.5719652936250133e+01 6.3706937813710318e-01 2.5037421410585178e+01 
756 757 2 1.0280000000000169e+00 -5.2300934179353899e+03 1.0000000000000000e+00 1.6311339292994202e+01 1.5118929687769187e+00 2.5442095901003370e+01 
713 714 2 1.0279999999999980e+00 -8.4709782024566186e+02 1.0000000000000000e+00 1.5288009677767901e+01 8.0191496511205151e-01 2.5557347623727537e+01 
1308 1309 2 1.0280000000000047e+00 8.6320778673719602e+01 1.0000000000000000e+00 1.6784176171429930e+01 1.6201700211792098e+00 2.6432886795337811e+01 
157 158 2 1.0279999999999914e+00 -3.0909925230916724e+02 1.0000000000000000e+00 1.7325430254982791e+01 2.3789036793036544e+00 2.7243905399872389e+01 
559 560 2 1.0279999999999967e+00 4.3867473890481506e+03 1.0000000000000000e+00 1.9835315302636204e+01 2.8481807640507797e+00 2.7448551432995391e+01 
558 559 2 1.0280000000000014e+00 4.3867474465407577e+03 1.0000000000000000e+00 1.8767837669333176e+01 2.8481430707496402e+00 2.7448548649853183e+01 
1218 1219 2 1.0280000000000040e+00 -1.6876138925587006e+03 1.0000000000000000e+00 1.7661108151741846e+01 3.3032913719117092e+00 2.5320377672275832e+01 
678 679 2 1.0280000000000018e+00 2.6028680796953535e+02 1.0000000000000000e+00 1.7692512924402838e+01 3.3488219142188971e+00 2.5736725967177925e+01 
451 452 2 1.0279999999999991e+00 9.1906749973418997e+01 1.0000000000000000e+00 1.7789417778674952e+01 3.4038559693324508e+00 2.5876277649989461e+01 
1164 1165 2 1.0280000000000016e+00 -1.5452670744312481e+03 1.0000000000000000e+00 1.9084842283800562e+01 3.4304929584209480e+00 2.7121032208494885e+01 
1161 1162 2 1.0280000000000007e+00 -1.5452669543315278e+03 1.0000000000000000e+00 1.9518302293444695e+01 3.4305003514846399e+00 2.7121030716235019e+01 
437 438 2 1.0279999999999985e+00 -2.0292011244560385e+03 1.0000000000000000e+00 1.0989347038563837e+00 1.9848288593017628e+01 2.6427627614537730e+01 
1197 1198 2 1.0279999999999947e+00 -2.0292011245047620e+03 1.0000000000000000e+00 1.0989347001633818e+00 1.9951824219857791e+01 2.6427627611786402e+01 
901 902 2 1.0280000000000011e+00 -3.1362974239057557e+03 1.0000000000000000e+00 8.8691405519159217e-01 1.9503219982400488e+01 2.6754985471590039e+01 
1315 1316 2 1.0280000000000062e+00 -8.6838593218070770e+01 1.0000000000000000e+00 1.6599523243834494e+01 1.2795949825263957e+00 2.8076533517653871e+01 
1298 1299 2 1.0280000000000018e+00 -1.4758425171028912e+03 1.0000000000000000e+00 1.7059017492386765e+01 1.6171821797261070e+00 2.8346000207040682e+01 
569 570 2 1.0279999999999934e+00 -5.5768770750370250e+03 1.0000000000000000e+00 1.5637487069922182e+01 7.9778614723156926e-01 2.8613626372901631e+01 
1176 1177 2 1.0280000000000011e+00 -6.1331261506703277e+02 1.0000000000000000e+00 1.6534838089120605e+01 1.0646988152029522e+00 3.0178356425437730e+01 
1322 1323 2 1.0279999999999978e+00 -7.1234753911194434e+02 1.0000000000000000e+00 1.8005984975028248e+01 1.9817011590118811e-03 2.7973561533628921e+01 
118 119 2 1.0280000000000036e+00 -6.9829210714344299e+02 1.0000000000000000e+00 1.8512496734762511e+01 1.0240534449359424e+00 2.9239197259562609e+01 
76 77 2 1.0280000000000011e+00 3.2696847052571811e+03 1.0000000000000000e+00 1.7272804788275771e+01 1.1424616807665660e+00 2.9816363066571078e+01 
1492 1493 2 1.0280000000000069e+00 -1.0541329890736034e+02 1.0000000000000000e+00 1.5957429629424837e+01 1.1035867272085695e+00 3.2013226883618096e+01 