LAMMPS data file via write_data, version 30 Jul 2016, timestep = 50400000

180 atoms
2 atom types

0.0000000000000000e+00 2.0000000000000000e+01 xlo xhi
0.0000000000000000e+00 2.0000000000000000e+01 ylo yhi
0.0000000000000000e+00 2.0000000000000000e+01 zlo zhi

Masses

1 3.896
2 4.31

Atoms # meso-molecular

104 1 2 1.0284666621393579e+00 -2.0591306021909364e+02 1.0000000000000000e+00 3.3628252374186562e+00 9.5941049775530001e+00 2.0963288555598405e+00 
110 1 2 1.0284666621393579e+00 -2.0999514849234581e+02 1.0000000000000000e+00 3.3628252374186562e+00 9.5941049775530001e+00 2.0963288555598405e+00 
74 1 2 1.0284666621393579e+00 -2.1308185288198834e+02 1.0000000000000000e+00 3.3628252374186545e+00 9.5941049775530001e+00 2.0963288555598401e+00 
75 1 2 1.0284666621393579e+00 -2.0760909036804506e+02 1.0000000000000000e+00 3.3628252374186562e+00 9.5941049775530001e+00 2.0963288555598405e+00 
177 1 2 1.0284666621393579e+00 -2.7473494120671666e+02 1.0000000000000000e+00 3.3628252374186545e+00 9.5941049775530001e+00 2.0963288555598401e+00 
42 1 2 1.0284666621393579e+00 -2.7751698987227502e+02 1.0000000000000000e+00 3.3628252374186562e+00 9.5941049775530001e+00 2.0963288555598405e+00 
105 1 2 1.0284666621393579e+00 -2.1098412695923335e+02 1.0000000000000000e+00 3.3628252374186562e+00 9.5941049775529965e+00 2.0963288555598378e+00 
5 1 2 1.0323776180944140e+00 -2.6925409317841041e+02 1.0000000000000000e+00 6.0689337843639435e-01 2.6164799425304458e-01 3.9226287083450320e+00 
171 1 2 1.0323776180944140e+00 -1.7931574572818789e+02 1.0000000000000000e+00 6.0689337843639213e-01 2.6164799425304286e-01 3.9226287083450315e+00 
165 1 2 1.0323776180944140e+00 -1.6865192896304899e+02 1.0000000000000000e+00 6.0689337843639213e-01 2.6164799425304286e-01 3.9226287083450315e+00 
166 1 2 1.0323776180944140e+00 -1.9670585637796131e+02 1.0000000000000000e+00 6.0689337843639446e-01 2.6164799425304452e-01 3.9226287083450320e+00 
8 1 2 1.0323776180944140e+00 -8.9817694705105851e+01 1.0000000000000000e+00 6.0689337843639213e-01 2.6164799425304286e-01 3.9226287083450315e+00 
180 1 2 1.0323776180944140e+00 -1.4645225872399357e+02 1.0000000000000000e+00 6.0689337843639446e-01 2.6164799425304452e-01 3.9226287083450320e+00 
174 1 2 1.0323776180944140e+00 -1.6454393010003406e+02 1.0000000000000000e+00 6.0689337843639435e-01 2.6164799425304458e-01 3.9226287083450320e+00 
97 1 2 1.0269945357764061e+00 -2.4210598215844260e+02 1.0000000000000000e+00 5.7543708947026264e+00 6.4303677293138035e+00 1.3417529219905578e+01 
139 1 2 1.0269945357764061e+00 -2.4696865870255860e+02 1.0000000000000000e+00 5.7543708947026229e+00 6.4303677293138044e+00 1.3417529219905578e+01 
144 1 2 1.0269945357764061e+00 -2.1000603313453229e+02 1.0000000000000000e+00 5.7543708947026353e+00 6.4303677293138044e+00 1.3417529219905578e+01 
109 1 2 1.0269945357764061e+00 -2.5728380050959328e+02 1.0000000000000000e+00 5.7543708947026264e+00 6.4303677293138035e+00 1.3417529219905578e+01 
175 1 2 1.0269945357764061e+00 -1.5948027302840421e+02 1.0000000000000000e+00 5.7543708947026229e+00 6.4303677293138053e+00 1.3417529219905575e+01 
21 1 2 1.0269945357764061e+00 -2.0163324680690866e+02 1.0000000000000000e+00 5.7543708947026229e+00 6.4303677293138053e+00 1.3417529219905575e+01 
46 1 2 1.0269945357764061e+00 -2.5315674663158597e+02 1.0000000000000000e+00 5.7543708947026362e+00 6.4303677293138044e+00 1.3417529219905578e+01 
147 1 2 1.0253106701531141e+00 -1.9683288005647799e+02 1.0000000000000000e+00 4.9448430771897103e+00 8.8149620057315872e+00 1.5572020838469193e+01 
151 1 2 1.0253106701531138e+00 -2.4276260634948071e+02 1.0000000000000000e+00 4.9448430771897094e+00 8.8149620057315889e+00 1.5572020838469195e+01 
116 1 2 1.0253106701531138e+00 -2.4210064697297327e+02 1.0000000000000000e+00 4.9448430771897094e+00 8.8149620057315889e+00 1.5572020838469195e+01 
146 1 2 1.0253106701531141e+00 -2.3943431465406539e+02 1.0000000000000000e+00 4.9448430771897094e+00 8.8149620057315872e+00 1.5572020838469195e+01 
9 1 2 1.0253106701531141e+00 -2.6959386183389068e+02 1.0000000000000000e+00 4.9448430771897094e+00 8.8149620057315872e+00 1.5572020838469193e+01 
152 1 2 1.0253106701531141e+00 -2.3188111653908302e+02 1.0000000000000000e+00 4.9448430771897103e+00 8.8149620057315872e+00 1.5572020838469193e+01 
145 1 2 1.0253106701531141e+00 -2.3578129843328574e+02 1.0000000000000000e+00 4.9448430771897103e+00 8.8149620057315872e+00 1.5572020838469193e+01 
60 1 2 1.0320201965269831e+00 -2.6909671852552481e+02 1.0000000000000000e+00 1.7876134252331506e+00 1.2092566251378918e+00 1.6675387346517265e+01 
87 1 2 1.0320201965269822e+00 -2.1262107189174418e+02 1.0000000000000000e+00 1.7876134252331448e+00 1.2092566251378791e+00 1.6675387346517240e+01 
24 1 2 1.0320201965269815e+00 -1.6738945549100487e+02 1.0000000000000000e+00 1.7876134252331446e+00 1.2092566251378902e+00 1.6675387346517244e+01 
59 1 2 1.0320201965269822e+00 -2.3654173804598702e+02 1.0000000000000000e+00 1.7876134252331499e+00 1.2092566251378822e+00 1.6675387346517244e+01 
80 1 2 1.0320201965269831e+00 -2.1794177444800590e+02 1.0000000000000000e+00 1.7876134252331504e+00 1.2092566251378860e+00 1.6675387346517258e+01 
81 1 2 1.0320201965269831e+00 -2.1668842084682501e+02 1.0000000000000000e+00 1.7876134252331519e+00 1.2092566251378856e+00 1.6675387346517258e+01 
30 1 2 1.0320201965269820e+00 -2.4353944879333639e+02 1.0000000000000000e+00 1.7876134252331461e+00 1.2092566251378949e+00 1.6675387346517258e+01 
107 1 2 1.0276441393061146e+00 -2.2512890733662576e+02 1.0000000000000000e+00 5.8568888466449378e+00 1.5508740383901264e+01 4.3271943762369930e-01 
72 1 2 1.0276441393061144e+00 -1.9534922455186572e+02 1.0000000000000000e+00 5.8568888466449271e+00 1.5508740383901264e+01 4.3271943762370202e-01 
125 1 2 1.0276441393061149e+00 -2.1820655619205675e+02 1.0000000000000000e+00 5.8568888466449263e+00 1.5508740383901262e+01 4.3271943762369963e-01 
102 1 2 1.0276441393061144e+00 -1.9496014580519412e+02 1.0000000000000000e+00 5.8568888466449360e+00 1.5508740383901261e+01 4.3271943762370108e-01 
119 1 2 1.0276441393061144e+00 -2.1121298484606481e+02 1.0000000000000000e+00 5.8568888466449298e+00 1.5508740383901261e+01 4.3271943762370041e-01 
108 1 2 1.0276441393061144e+00 -2.3310623537945744e+02 1.0000000000000000e+00 5.8568888466449343e+00 1.5508740383901261e+01 4.3271943762369974e-01 
101 1 2 1.0276441393061144e+00 -2.4212662841438444e+02 1.0000000000000000e+00 5.8568888466449343e+00 1.5508740383901261e+01 4.3271943762369974e-01 
19 1 2 1.0284666621393579e+00 -2.3216693604357019e+02 1.0000000000000000e+00 3.8042609686966662e+00 1.1193956779063777e+01 1.9291534671496919e+01 
25 1 2 1.0284666621393579e+00 -2.2286499709154782e+02 1.0000000000000000e+00 3.8042609686966662e+00 1.1193956779063777e+01 1.9291534671496919e+01 
26 1 2 1.0284666621393579e+00 -1.3298985660246674e+02 1.0000000000000000e+00 3.8042609686966662e+00 1.1193956779063777e+01 1.9291534671496919e+01 
13 1 2 1.0284666621393579e+00 -2.0350967047652372e+02 1.0000000000000000e+00 3.8042609686966662e+00 1.1193956779063777e+01 1.9291534671496919e+01 
99 1 2 1.0284666621393592e+00 -2.2959331032600886e+02 1.0000000000000000e+00 3.8042609686972737e+00 1.1193956779063361e+01 1.9291534671496791e+01 
93 1 2 1.0284666621393579e+00 -2.1997513686273331e+02 1.0000000000000000e+00 3.8042609686955049e+00 1.1193956779064610e+01 1.9291534671497203e+01 
20 1 2 1.0284666621393579e+00 -2.1514206633283916e+02 1.0000000000000000e+00 3.8042609686966662e+00 1.1193956779063777e+01 1.9291534671496919e+01 
64 1 2 1.0291170995406460e+00 -1.8066747164202437e+02 1.0000000000000000e+00 5.4732365904239870e+00 1.5565663911848006e+01 1.7178436584449869e+01 
32 1 2 1.0291170995406460e+00 -2.8278775045136024e+02 1.0000000000000000e+00 5.4732365904239861e+00 1.5565663911848008e+01 1.7178436584449869e+01 
69 1 2 1.0291170995406460e+00 -2.2808544974408264e+02 1.0000000000000000e+00 5.4732365904239870e+00 1.5565663911848006e+01 1.7178436584449869e+01 
141 1 2 1.0291170995406460e+00 -2.5726459838317885e+02 1.0000000000000000e+00 5.4732365904239870e+00 1.5565663911848008e+01 1.7178436584449869e+01 
70 1 2 1.0291170995406460e+00 -1.7781580033233089e+02 1.0000000000000000e+00 5.4732365904239879e+00 1.5565663911848008e+01 1.7178436584449866e+01 
40 1 2 1.0291170995406460e+00 -1.7400514722027950e+02 1.0000000000000000e+00 5.4732365904239879e+00 1.5565663911848008e+01 1.7178436584449866e+01 
28 1 2 1.0291170995406460e+00 -1.8948065595979492e+02 1.0000000000000000e+00 5.4732365904239870e+00 1.5565663911848008e+01 1.7178436584449866e+01 
96 1 2 1.0320201965269822e+00 -2.6936405202905036e+02 1.0000000000000000e+00 2.2420910765599631e+00 1.8506739886501315e+01 1.8341349903625520e+01 
162 1 2 1.0320201965269828e+00 -1.7473671825822944e+02 1.0000000000000000e+00 2.2420910765599618e+00 1.8506739886501325e+01 1.8341349903625524e+01 
127 1 2 1.0320201965269824e+00 -2.5465314912769981e+02 1.0000000000000000e+00 2.2420910765599622e+00 1.8506739886501318e+01 1.8341349903625520e+01 
132 1 2 1.0320201965269828e+00 -2.3619562477828046e+02 1.0000000000000000e+00 2.2420910765599618e+00 1.8506739886501325e+01 1.8341349903625524e+01 
11 1 2 1.0320201965269822e+00 -2.4119946374234485e+02 1.0000000000000000e+00 2.2420910765599631e+00 1.8506739886501315e+01 1.8341349903625520e+01 
138 1 2 1.0320201965269822e+00 -2.6081662644568354e+02 1.0000000000000000e+00 2.2420910765599635e+00 1.8506739886501318e+01 1.8341349903625524e+01 
168 1 2 1.0320201965269822e+00 -1.4881561284118155e+02 1.0000000000000000e+00 2.2420910765599631e+00 1.8506739886501315e+01 1.8341349903625520e+01 
17 1 2 1.0278665134105911e+00 -1.2428735964472807e+02 1.0000000000000000e+00 8.3272412859395430e+00 6.6365960293156316e+00 1.1019778943626138e+01 
73 1 2 1.0278665134105904e+00 -2.5207744720699193e+02 1.0000000000000000e+00 8.3272412859398628e+00 6.6365960293160038e+00 1.1019778943625839e+01 
79 1 2 1.0278665134105907e+00 -2.2140382646627972e+02 1.0000000000000000e+00 8.3272412859394489e+00 6.6365960293154238e+00 1.1019778943626232e+01 
37 1 2 1.0278665134105907e+00 -2.8568178243949200e+02 1.0000000000000000e+00 8.3272412859398202e+00 6.6365960293160819e+00 1.1019778943625868e+01 
106 1 2 1.0281504059911037e+00 -2.2645046974379747e+02 1.0000000000000000e+00 9.2314039633773284e+00 6.5692399551057097e+00 1.2125217106987300e+01 
136 1 2 1.0281504059911037e+00 -2.1172641236533994e+02 1.0000000000000000e+00 9.2314039633773159e+00 6.5692399551057346e+00 1.2125217106987314e+01 
100 1 2 1.0281504059888533e+00 -2.3006122581056061e+02 1.0000000000000000e+00 9.2314039790519438e+00 6.5692399806555084e+00 1.2125217100828772e+01 
130 1 2 1.0281504059911026e+00 -2.6379085112088171e+02 1.0000000000000000e+00 9.2314039633773763e+00 6.5692399551057798e+00 1.2125217106987282e+01 
137 1 2 1.0279432340437997e+00 -2.0964143071762396e+02 1.0000000000000000e+00 9.1082163818158719e+00 7.2364183994539069e+00 1.1380009671670420e+01 
153 1 2 1.0278351723176256e+00 -1.7851721854940828e+02 1.0000000000000000e+00 6.8817736017351558e+00 1.8925570270461925e+01 1.5241622219017865e+00 
154 1 2 1.0278351723175032e+00 -1.9713356149341561e+02 1.0000000000000000e+00 6.8817736017432019e+00 1.8925570270488851e+01 1.5241622219162967e+00 
117 1 2 1.0278351723175032e+00 -2.0035308347723279e+02 1.0000000000000000e+00 6.8817736017431992e+00 1.8925570270488851e+01 1.5241622219162969e+00 
111 1 2 1.0278351723390824e+00 -1.5710085529169746e+02 1.0000000000000000e+00 6.8817736005695727e+00 1.8925570265852670e+01 1.5241622193860171e+00 
172 1 2 1.0278351723465839e+00 -1.9330294119831683e+02 1.0000000000000000e+00 6.8817736002082626e+00 1.8925570264231126e+01 1.5241622184908514e+00 
112 1 2 1.0278351723465839e+00 -1.6401534862096449e+02 1.0000000000000000e+00 6.8817736002082626e+00 1.8925570264231126e+01 1.5241622184908514e+00 
118 1 2 1.0278351723330723e+00 -1.7269273801688405e+02 1.0000000000000000e+00 6.8817736008727648e+00 1.8925570267147375e+01 1.5241622200975626e+00 
161 1 2 1.0278174195867611e+00 -2.4578000159225090e+02 1.0000000000000000e+00 9.9732763829920525e+00 1.0758708734067119e+01 5.8839351193053488e+00 
155 1 2 1.0278174195867713e+00 -2.5113515969074032e+02 1.0000000000000000e+00 9.9732763829833235e+00 1.0758708734001049e+01 5.8839351192803653e+00 
63 1 2 1.0278174195866852e+00 -1.6706677644626870e+02 1.0000000000000000e+00 9.9732763830761737e+00 1.0758708734459811e+01 5.8839351194926586e+00 
6 1 2 1.0278174195867953e+00 -3.0036879628350107e+02 1.0000000000000000e+00 9.9732763829597495e+00 1.0758708733883832e+01 5.8839351192263551e+00 
51 1 2 1.0278174195866852e+00 -2.1598804972751142e+02 1.0000000000000000e+00 9.9732763830761773e+00 1.0758708734459800e+01 5.8839351194926612e+00 
50 1 2 1.0278174195866774e+00 -1.8991237136299353e+02 1.0000000000000000e+00 9.9732763831845261e+00 1.0758708734311393e+01 5.8839351195913903e+00 
160 1 2 1.0278174195867611e+00 -2.2086219032568906e+02 1.0000000000000000e+00 9.9732763829920525e+00 1.0758708734067119e+01 5.8839351193053488e+00 
129 1 2 1.0275429945509851e+00 -2.1531356413445832e+02 1.0000000000000000e+00 7.4527253311968247e+00 1.7276581011071208e+01 4.2944586782507166e+00 
15 1 2 1.0275429945509851e+00 -1.1348025060551528e+02 1.0000000000000000e+00 7.4527253311968300e+00 1.7276581011071208e+01 4.2944586782507157e+00 
58 1 2 1.0275429945509851e+00 -1.2648281045110727e+02 1.0000000000000000e+00 7.4527253311968265e+00 1.7276581011071208e+01 4.2944586782507166e+00 
128 1 2 1.0275429945509851e+00 -2.2418890860097511e+02 1.0000000000000000e+00 7.4527253311968265e+00 1.7276581011071208e+01 4.2944586782507166e+00 
61 1 2 1.0275429945509851e+00 -2.1376565664111155e+02 1.0000000000000000e+00 7.4527253311968300e+00 1.7276581011071208e+01 4.2944586782507157e+00 
14 1 2 1.0275429945509851e+00 -9.8471450581840273e+01 1.0000000000000000e+00 7.4527253311968265e+00 1.7276581011071208e+01 4.2944586782507166e+00 
135 1 2 1.0275429945509851e+00 -2.2056827076384110e+02 1.0000000000000000e+00 7.4527253311968229e+00 1.7276581011071208e+01 4.2944586782507175e+00 
159 1 2 1.0278174195867333e+00 -1.6450825543142000e+02 1.0000000000000000e+00 7.4722187839761203e+00 1.0303365102933400e+01 7.9399625709727157e+00 
4 1 2 1.0278174195867333e+00 -2.7073396246116710e+02 1.0000000000000000e+00 7.4722187839761167e+00 1.0303365102933338e+01 7.9399625709726989e+00 
123 1 2 1.0278174195867333e+00 -1.4470708592643942e+02 1.0000000000000000e+00 7.4722187839761203e+00 1.0303365102933343e+01 7.9399625709727042e+00 
164 1 2 1.0278174195867333e+00 -1.9296626715998681e+02 1.0000000000000000e+00 7.4722187839761203e+00 1.0303365102933343e+01 7.9399625709727042e+00 
115 1 2 1.0278174195867333e+00 -2.0421672007709114e+02 1.0000000000000000e+00 7.4722187839761203e+00 1.0303365102933343e+01 7.9399625709727042e+00 
157 1 2 1.0278174195867333e+00 -1.9197470314301935e+02 1.0000000000000000e+00 7.4722187839761025e+00 1.0303365102933414e+01 7.9399625709726971e+00 
16 1 2 1.0278174195867333e+00 -1.3264711773038877e+02 1.0000000000000000e+00 7.4722187839761203e+00 1.0303365102933343e+01 7.9399625709727042e+00 
133 1 2 1.0280108496623244e+00 -8.2939021389445486e+01 1.0000000000000000e+00 8.2531874593754129e+00 1.6297691578684699e+01 1.1098217701600824e+01 
169 1 2 1.0280108496623275e+00 -8.4039091417747841e+01 1.0000000000000000e+00 8.2531874593754146e+00 1.6297691578684667e+01 1.1098217701600847e+01 
150 1 2 1.0279796628993598e+00 -2.5154665107053063e+02 1.0000000000000000e+00 9.0797223127694640e+00 1.6385475835082548e+01 1.2094256546144424e+01 
140 1 2 1.0279796628993605e+00 -2.6365869382619923e+02 1.0000000000000000e+00 9.0797223127694977e+00 1.6385475835082620e+01 1.2094256546144395e+01 
120 1 2 1.0279796628993612e+00 -2.0150781003403716e+02 1.0000000000000000e+00 9.0797223127694551e+00 1.6385475835082566e+01 1.2094256546144436e+01 
156 1 2 1.0279796628993576e+00 -2.6691086489484462e+02 1.0000000000000000e+00 9.0797223127695261e+00 1.6385475835082655e+01 1.2094256546144381e+01 
7 1 2 1.0280177535671433e+00 -1.7367756052489707e+02 1.0000000000000000e+00 7.8863107215876260e+00 1.6856935477719023e+01 1.1580215991557797e+01 
56 1 2 1.0280177535671446e+00 -1.9765844968769366e+02 1.0000000000000000e+00 7.8863107215876775e+00 1.6856935477719091e+01 1.1580215991557745e+01 
12 1 2 1.0280177535671486e+00 -2.7452784548321080e+02 1.0000000000000000e+00 7.8863107215877113e+00 1.6856935477719112e+01 1.1580215991557692e+01 
113 1 2 1.0296363272080127e+00 -2.8982585507206215e+02 1.0000000000000000e+00 7.2005411909152581e+00 1.2617361995010405e+01 1.6150325964063850e+01 
41 1 2 1.0296363272080127e+00 -2.9179999083036211e+02 1.0000000000000000e+00 7.2005411909152572e+00 1.2617361995010405e+01 1.6150325964063850e+01 
114 1 2 1.0296363272080127e+00 -1.3369168039959283e+02 1.0000000000000000e+00 7.2005411909152581e+00 1.2617361995010405e+01 1.6150325964063850e+01 
77 1 2 1.0296363272080127e+00 -2.8475986819798266e+02 1.0000000000000000e+00 7.2005411909152581e+00 1.2617361995010405e+01 1.6150325964063850e+01 
143 1 2 1.0296363272080127e+00 -2.4467903988079851e+02 1.0000000000000000e+00 7.2005411909152581e+00 1.2617361995010405e+01 1.6150325964063850e+01 
78 1 2 1.0296363272080127e+00 -1.3099945222674825e+02 1.0000000000000000e+00 7.2005411909152581e+00 1.2617361995010405e+01 1.6150325964063850e+01 
76 1 2 1.0296363272080127e+00 -2.3734375697392153e+02 1.0000000000000000e+00 7.2005411909152581e+00 1.2617361995010405e+01 1.6150325964063850e+01 
53 1 2 1.0278711891933294e+00 -2.7126109752475520e+02 1.0000000000000000e+00 9.1944562401537038e+00 1.3281852625492743e+01 1.8653689487939520e+01 
83 1 2 1.0278711891933294e+00 -2.0410935432390201e+02 1.0000000000000000e+00 9.1944562401537038e+00 1.3281852625492743e+01 1.8653689487939520e+01 
47 1 2 1.0278711891933292e+00 -2.2903318054230303e+02 1.0000000000000000e+00 9.1944562401537020e+00 1.3281852625492741e+01 1.8653689487939523e+01 
84 1 2 1.0278711891933294e+00 -2.1685654256052194e+02 1.0000000000000000e+00 9.1944562401537073e+00 1.3281852625492743e+01 1.8653689487939516e+01 
48 1 2 1.0278711891933292e+00 -1.9601332357199507e+02 1.0000000000000000e+00 9.1944562401537020e+00 1.3281852625492741e+01 1.8653689487939523e+01 
54 1 2 1.0278711891933294e+00 -2.1931726782881972e+02 1.0000000000000000e+00 9.1944562401537038e+00 1.3281852625492743e+01 1.8653689487939520e+01 
52 1 2 1.0278711891933292e+00 -2.0675919253124991e+02 1.0000000000000000e+00 9.1944562401537020e+00 1.3281852625492741e+01 1.8653689487939523e+01 
142 1 2 1.0279116433591997e+00 -2.4538952365961757e+02 1.0000000000000000e+00 1.3199171439753027e+01 1.5626215704893196e+01 1.7785358365964967e+01 
86 1 2 1.0279116433591997e+00 -2.0274506175121138e+02 1.0000000000000000e+00 1.3199171439753027e+01 1.5626215704893195e+01 1.7785358365964964e+01 
33 1 2 1.0279116433591997e+00 -2.5164199625650673e+02 1.0000000000000000e+00 1.3199171439753027e+01 1.5626215704893195e+01 1.7785358365964964e+01 
167 1 2 1.0279116433591997e+00 -1.7700271202756238e+02 1.0000000000000000e+00 1.3199171439753027e+01 1.5626215704893195e+01 1.7785358365964964e+01 
23 1 2 1.0279116433591997e+00 -8.5729523122260474e+01 1.0000000000000000e+00 1.3199171439753027e+01 1.5626215704893195e+01 1.7785358365964964e+01 
131 1 2 1.0279116433591997e+00 -2.4220077238502597e+02 1.0000000000000000e+00 1.3199171439753027e+01 1.5626215704893196e+01 1.7785358365964967e+01 
22 1 2 1.0279116433591997e+00 -8.3832052453596646e+01 1.0000000000000000e+00 1.3199171439753027e+01 1.5626215704893195e+01 1.7785358365964964e+01 
66 1 2 1.0323776180945095e+00 -2.5758658567603686e+02 1.0000000000000000e+00 1.9204008863713163e+01 2.7794783246073118e+00 2.5271423241589694e+00 
94 1 2 1.0323776180944162e+00 -2.8083227275238602e+02 1.0000000000000000e+00 1.9204008863711763e+01 2.7794783246073220e+00 2.5271423241575821e+00 
43 1 2 1.0323776180944162e+00 -1.5868624968872717e+02 1.0000000000000000e+00 1.9204008863711763e+01 2.7794783246073220e+00 2.5271423241575821e+00 
49 1 2 1.0323776180944162e+00 -1.7478641445545441e+02 1.0000000000000000e+00 1.9204008863711763e+01 2.7794783246073220e+00 2.5271423241575821e+00 
55 1 2 1.0323776180943012e+00 -2.2218041033219868e+02 1.0000000000000000e+00 1.9204008863708417e+01 2.7794783246072696e+00 2.5271423241573303e+00 
62 1 2 1.0323776180945095e+00 -1.2837509381697521e+02 1.0000000000000000e+00 1.9204008863713163e+01 2.7794783246073118e+00 2.5271423241589694e+00 
1 1 2 1.0323776180943292e+00 -1.4822659815417802e+02 1.0000000000000000e+00 1.9204008863708385e+01 2.7794783246072283e+00 2.5271423241581430e+00 
88 1 2 1.0276784128584449e+00 -2.1595252902021480e+02 1.0000000000000000e+00 1.6711670679109261e+01 5.9950026677462667e+00 2.9073352834167481e+00 
82 1 2 1.0276784128584449e+00 -1.7977520573903610e+02 1.0000000000000000e+00 1.6711670679109265e+01 5.9950026677462676e+00 2.9073352834167476e+00 
67 1 2 1.0276784128584451e+00 -1.9203095882527080e+02 1.0000000000000000e+00 1.6711670679109265e+01 5.9950026677462684e+00 2.9073352834167481e+00 
103 1 2 1.0276784128584449e+00 -1.9810570917113517e+02 1.0000000000000000e+00 1.6711670679109265e+01 5.9950026677462676e+00 2.9073352834167476e+00 
85 1 2 1.0276784128584451e+00 -1.9202911547867188e+02 1.0000000000000000e+00 1.6711670679109268e+01 5.9950026677462684e+00 2.9073352834167476e+00 
124 1 2 1.0276784128584451e+00 -2.0041848389452696e+02 1.0000000000000000e+00 1.6711670679109265e+01 5.9950026677462693e+00 2.9073352834167485e+00 
91 1 2 1.0276784128584449e+00 -1.7019747621054836e+02 1.0000000000000000e+00 1.6711670679109265e+01 5.9950026677462676e+00 2.9073352834167481e+00 
121 1 2 1.0276784128584449e+00 -2.0367591539082980e+02 1.0000000000000000e+00 1.6164327544056469e+01 9.0739510248893716e+00 1.9453554449280273e+00 
68 1 2 1.0276784128584449e+00 -2.9042738233289890e+02 1.0000000000000000e+00 1.6164327544056469e+01 9.0739510248893716e+00 1.9453554449280273e+00 
44 1 2 1.0276784128584449e+00 -1.6134062577748236e+02 1.0000000000000000e+00 1.6164327544056473e+01 9.0739510248893716e+00 1.9453554449280261e+00 
38 1 2 1.0276784128584449e+00 -1.8455144916585868e+02 1.0000000000000000e+00 1.6164327544056469e+01 9.0739510248893716e+00 1.9453554449280273e+00 
31 1 2 1.0276784128584449e+00 -2.6230832745009496e+02 1.0000000000000000e+00 1.6164327544056469e+01 9.0739510248893716e+00 1.9453554449280273e+00 
27 1 2 1.0276784128584449e+00 -2.7891755189879814e+02 1.0000000000000000e+00 1.6164327544056469e+01 9.0739510248893716e+00 1.9453554449280273e+00 
34 1 2 1.0276784128584449e+00 -3.0526240090751617e+02 1.0000000000000000e+00 1.6164327544056469e+01 9.0739510248893716e+00 1.9453554449280273e+00 
98 1 2 1.0280000000078011e+00 -1.9983065376900959e+02 1.0000000000000000e+00 1.7636666009809705e+01 8.7388551043827523e+00 8.3990893318284225e+00 
170 1 2 1.0280000000078013e+00 -2.4739990482936628e+02 1.0000000000000000e+00 1.7636666009809716e+01 8.7388551043827558e+00 8.3990893318284492e+00 
134 1 2 1.0280000000078020e+00 -2.6827954116081617e+02 1.0000000000000000e+00 1.7636666009809698e+01 8.7388551043827345e+00 8.3990893318284581e+00 
122 1 2 1.0279999999939538e+00 -1.7610773065699243e+02 1.0000000000000000e+00 1.8114352994264767e+01 7.9398511152439042e+00 8.5308271501625637e+00 
3 1 2 1.0279999999939511e+00 -2.4882563913548444e+02 1.0000000000000000e+00 1.8114348050437560e+01 7.9398696435493115e+00 8.5308696733853857e+00 
158 1 2 1.0279999999939569e+00 -1.3566864418492213e+02 1.0000000000000000e+00 1.8114403933396609e+01 7.9396633330443720e+00 8.5303949448547165e+00 
163 1 2 1.0279999999984815e+00 -1.7370056216681957e+02 1.0000000000000000e+00 1.8188924568922715e+01 8.4935120578516745e+00 7.9146742409566784e+00 
95 1 2 1.0279999999974854e+00 -2.8424070333092970e+02 1.0000000000000000e+00 1.8256136634177125e+01 8.4233997862971428e+00 7.9425915402052318e+00 
179 1 2 1.0298091367706810e+00 -1.8999602444617310e+02 1.0000000000000000e+00 1.8530010428622862e+01 1.8990640285006645e+01 9.5967616895949117e+00 
89 1 2 1.0298091367706810e+00 -1.6099771061790344e+02 1.0000000000000000e+00 1.8530010428622862e+01 1.8990640285006641e+01 9.5967616895949099e+00 
126 1 2 1.0298091367706810e+00 -1.5024144890253083e+02 1.0000000000000000e+00 1.8530010428622891e+01 1.8990640285006645e+01 9.5967616895949082e+00 
18 1 2 1.0298091367706810e+00 -1.0913855622503894e+02 1.0000000000000000e+00 1.8530010428622891e+01 1.8990640285006641e+01 9.5967616895949064e+00 
173 1 2 1.0298091367706810e+00 -1.9433866570894824e+02 1.0000000000000000e+00 1.8530010428622866e+01 1.8990640285006648e+01 9.5967616895949135e+00 
45 1 2 1.0298091367706810e+00 -1.8374289576966223e+02 1.0000000000000000e+00 1.8530010428622884e+01 1.8990640285006648e+01 9.5967616895949099e+00 
90 1 2 1.0298091367706810e+00 -1.5520103522355797e+02 1.0000000000000000e+00 1.8530010428622866e+01 1.8990640285006648e+01 9.5967616895949117e+00 
29 1 2 1.0298091367706814e+00 -2.3525964938007189e+02 1.0000000000000000e+00 1.8756222649957241e+01 1.7710449777602516e+01 1.2562753652399481e+01 
71 1 2 1.0298091367706814e+00 -2.3763927300588091e+02 1.0000000000000000e+00 1.8756222649957241e+01 1.7710449777602516e+01 1.2562753652399481e+01 
148 1 2 1.0298091367706814e+00 -1.7258407562566600e+02 1.0000000000000000e+00 1.8756222649957241e+01 1.7710449777602516e+01 1.2562753652399481e+01 
35 1 2 1.0298091367706814e+00 -3.4094849151562863e+02 1.0000000000000000e+00 1.8756222649957241e+01 1.7710449777602516e+01 1.2562753652399481e+01 
65 1 2 1.0298091367706814e+00 -2.5253395061021030e+02 1.0000000000000000e+00 1.8756222649957241e+01 1.7710449777602516e+01 1.2562753652399481e+01 
149 1 2 1.0298091367706814e+00 -1.6129617051207225e+02 1.0000000000000000e+00 1.8756222649957241e+01 1.7710449777602516e+01 1.2562753652399481e+01 
36 1 2 1.0298091367706814e+00 -2.5587466390169601e+02 1.0000000000000000e+00 1.8756222649957241e+01 1.7710449777602516e+01 1.2562753652399481e+01 
57 1 2 1.0279116433592002e+00 -2.0919225890658458e+02 1.0000000000000000e+00 1.4529188205012897e+01 1.7480801396474682e+01 1.5446279067668302e+01 
10 1 2 1.0279116433592002e+00 -2.0677859591093286e+02 1.0000000000000000e+00 1.4529188205012897e+01 1.7480801396474682e+01 1.5446279067668302e+01 
176 1 2 1.0279116433592002e+00 -1.5926129388070194e+02 1.0000000000000000e+00 1.4529188205012897e+01 1.7480801396474682e+01 1.5446279067668302e+01 
92 1 2 1.0279116433592002e+00 -2.0864633675248797e+02 1.0000000000000000e+00 1.4529188205012897e+01 1.7480801396474682e+01 1.5446279067668302e+01 
2 1 2 1.0279116433592002e+00 -2.2096419658157151e+02 1.0000000000000000e+00 1.4529188205012897e+01 1.7480801396474682e+01 1.5446279067668302e+01 
178 1 2 1.0279116433592002e+00 -2.0510671440739503e+02 1.0000000000000000e+00 1.4529188205012897e+01 1.7480801396474682e+01 1.5446279067668302e+01 
39 1 2 1.0279116433592002e+00 -2.1753796592428489e+02 1.0000000000000000e+00 1.4529188205012897e+01 1.7480801396474678e+01 1.5446279067668298e+01 

Velocities

104 -3.0851128727595944e-01 1.5635137416348283e-01 1.6986028424844726e-01
110 -3.0851128727595944e-01 1.5635137416348283e-01 1.6986028424844726e-01
74 -3.0851128727595928e-01 1.5635137416348274e-01 1.6986028424844729e-01
75 -3.0851128727595944e-01 1.5635137416348283e-01 1.6986028424844726e-01
177 -3.0851128727595928e-01 1.5635137416348274e-01 1.6986028424844729e-01
42 -3.0851128727595944e-01 1.5635137416348283e-01 1.6986028424844726e-01
105 -3.0851128727595950e-01 1.5635137416348252e-01 1.6986028424844768e-01
5 -2.5683593525378040e-01 1.0318181251289790e-01 9.8813697764361247e-02
171 -2.5683593525378401e-01 1.0318181251289503e-01 9.8813697764361025e-02
165 -2.5683593525378401e-01 1.0318181251289503e-01 9.8813697764361025e-02
166 -2.5683593525378029e-01 1.0318181251289789e-01 9.8813697764361247e-02
8 -2.5683593525378401e-01 1.0318181251289503e-01 9.8813697764361025e-02
180 -2.5683593525378029e-01 1.0318181251289789e-01 9.8813697764361247e-02
174 -2.5683593525378040e-01 1.0318181251289790e-01 9.8813697764361247e-02
97 -2.6845968585912416e-01 1.0860588424650326e-01 1.5025227309807965e-01
139 -2.6845968585912422e-01 1.0860588424650319e-01 1.5025227309807970e-01
144 -2.6845968585912572e-01 1.0860588424650355e-01 1.5025227309807973e-01
109 -2.6845968585912416e-01 1.0860588424650341e-01 1.5025227309807976e-01
175 -2.6845968585912428e-01 1.0860588424650310e-01 1.5025227309807987e-01
21 -2.6845968585912428e-01 1.0860588424650310e-01 1.5025227309807987e-01
46 -2.6845968585912577e-01 1.0860588424650354e-01 1.5025227309807981e-01
147 -2.7699303153562083e-01 9.1629279416060555e-02 1.1491591036260836e-01
151 -2.7699303153562038e-01 9.1629279416060777e-02 1.1491591036260772e-01
116 -2.7699303153562038e-01 9.1629279416060777e-02 1.1491591036260772e-01
146 -2.7699303153561983e-01 9.1629279416060541e-02 1.1491591036260861e-01
9 -2.7699303153562033e-01 9.1629279416060527e-02 1.1491591036260836e-01
152 -2.7699303153562083e-01 9.1629279416060555e-02 1.1491591036260836e-01
145 -2.7699303153562083e-01 9.1629279416060555e-02 1.1491591036260836e-01
60 -2.5578613120987975e-01 4.7987535922903550e-02 3.9218227400061124e-02
87 -2.5578613120986965e-01 4.7987535922897659e-02 3.9218227400071567e-02
24 -2.5578613120989485e-01 4.7987535922892829e-02 3.9218227400043222e-02
59 -2.5578613120987853e-01 4.7987535922898450e-02 3.9218227400066870e-02
80 -2.5578613120987892e-01 4.7987535922900955e-02 3.9218227400063435e-02
81 -2.5578613120987914e-01 4.7987535922900768e-02 3.9218227400063276e-02
30 -2.5578613120989002e-01 4.7987535922896896e-02 3.9218227400037609e-02
107 -2.9144827393275596e-01 1.9839545214630486e-01 1.8271783401417391e-01
72 -2.9144827393274769e-01 1.9839545214630383e-01 1.8271783401417727e-01
125 -2.9144827393274830e-01 1.9839545214630655e-01 1.8271783401417083e-01
102 -2.9144827393275397e-01 1.9839545214630666e-01 1.8271783401417874e-01
119 -2.9144827393275025e-01 1.9839545214630666e-01 1.8271783401417588e-01
108 -2.9144827393275252e-01 1.9839545214630794e-01 1.8271783401417210e-01
101 -2.9144827393275252e-01 1.9839545214630794e-01 1.8271783401417210e-01