LAMMPS data file via write_data, version 30 Jul 2016, timestep = 50000000

180 atoms
2 atom types

0.0000000000000000e+00 2.0000000000000000e+01 xlo xhi
0.0000000000000000e+00 2.0000000000000000e+01 ylo yhi
0.0000000000000000e+00 2.0000000000000000e+01 zlo zhi

Masses

1 3.896
2 4.31

Atoms # meso-molecular

159 1 2 1.0280234474976830e+00 -1.6450891634689978e+02 1.0000000000000000e+00 3.1985443565568583e+00 4.8056101258611479e+00 9.9267107058290249e-01 
157 1 2 1.0280234474976830e+00 -1.9197536405849914e+02 1.0000000000000000e+00 3.1985443565568401e+00 4.8056101258611621e+00 9.9267107058288939e-01 
16 1 2 1.0280234474976830e+00 -1.3264777864586856e+02 1.0000000000000000e+00 3.1985443565568503e+00 4.8056101258610724e+00 9.9267107058290116e-01 
4 1 2 1.0280234474976830e+00 -2.7073462337665876e+02 1.0000000000000000e+00 3.1985443565568472e+00 4.8056101258610688e+00 9.9267107058289883e-01 
123 1 2 1.0280234474976830e+00 -1.4470774684191920e+02 1.0000000000000000e+00 3.1985443565568503e+00 4.8056101258610724e+00 9.9267107058290116e-01 
164 1 2 1.0280234474976830e+00 -1.9296692807546660e+02 1.0000000000000000e+00 3.1985443565568503e+00 4.8056101258610724e+00 9.9267107058290116e-01 
115 1 2 1.0280234474976830e+00 -2.0421738099257092e+02 1.0000000000000000e+00 3.1985443565568503e+00 4.8056101258610724e+00 9.9267107058290116e-01 
113 1 2 1.0272961712303923e+00 -2.8983333190858883e+02 1.0000000000000000e+00 1.5241970999845034e+00 4.8106789286759550e+00 1.2269694094201880e+01 
41 1 2 1.0272961712303923e+00 -2.9180746766688878e+02 1.0000000000000000e+00 1.5241970999845038e+00 4.8106789286759550e+00 1.2269694094201878e+01 
114 1 2 1.0272961712303923e+00 -1.3369915723610379e+02 1.0000000000000000e+00 1.5241970999845034e+00 4.8106789286759550e+00 1.2269694094201880e+01 
77 1 2 1.0272961712303923e+00 -2.8476734503450933e+02 1.0000000000000000e+00 1.5241970999845034e+00 4.8106789286759550e+00 1.2269694094201880e+01 
143 1 2 1.0272961712303923e+00 -2.4468651671730947e+02 1.0000000000000000e+00 1.5241970999845034e+00 4.8106789286759550e+00 1.2269694094201880e+01 
78 1 2 1.0272961712303923e+00 -1.3100692906325921e+02 1.0000000000000000e+00 1.5241970999845034e+00 4.8106789286759550e+00 1.2269694094201880e+01 
76 1 2 1.0272961712303923e+00 -2.3735123381043249e+02 1.0000000000000000e+00 1.5241970999845034e+00 4.8106789286759550e+00 1.2269694094201880e+01 
52 1 2 1.0272961712303923e+00 -2.0677263432898135e+02 1.0000000000000000e+00 1.0402698619777004e+00 4.8342290138843493e+00 1.5511950227700542e+01 
54 1 2 1.0272961712303923e+00 -2.1933070962655117e+02 1.0000000000000000e+00 1.0402698619777013e+00 4.8342290138843493e+00 1.5511950227700542e+01 
48 1 2 1.0272961712303923e+00 -1.9602676536972652e+02 1.0000000000000000e+00 1.0402698619777009e+00 4.8342290138843556e+00 1.5511950227700542e+01 
84 1 2 1.0272961712303923e+00 -2.1686998435825339e+02 1.0000000000000000e+00 1.0402698619777031e+00 4.8342290138843556e+00 1.5511950227700542e+01 
47 1 2 1.0272961712303923e+00 -2.2904662234003447e+02 1.0000000000000000e+00 1.0402698619777009e+00 4.8342290138843556e+00 1.5511950227700542e+01 
83 1 2 1.0272961712303923e+00 -2.0412279612163346e+02 1.0000000000000000e+00 1.0402698619777013e+00 4.8342290138843493e+00 1.5511950227700542e+01 
53 1 2 1.0272961712303923e+00 -2.7127453932247749e+02 1.0000000000000000e+00 1.0402698619777013e+00 4.8342290138843493e+00 1.5511950227700542e+01 
161 1 2 1.0280234474977776e+00 -2.4578066250773063e+02 1.0000000000000000e+00 5.2278293131515037e+00 4.7328238521829240e+00 1.8434444842064327e+01 
155 1 2 1.0280234474978180e+00 -2.5113582060622011e+02 1.0000000000000000e+00 5.2278293131294316e+00 4.7328238521085337e+00 1.8434444842049775e+01 
63 1 2 1.0280234474975087e+00 -1.6706743736174832e+02 1.0000000000000000e+00 5.2278293133271356e+00 4.7328238526252875e+00 1.8434444842185485e+01 
6 1 2 1.0280234474978942e+00 -3.0036945719899262e+02 1.0000000000000000e+00 5.2278293130789875e+00 4.7328238519774004e+00 1.8434444842015075e+01 
51 1 2 1.0280234474975087e+00 -2.1598871064299104e+02 1.0000000000000000e+00 5.2278293133271410e+00 4.7328238526252822e+00 1.8434444842185489e+01 
50 1 2 1.0280234474974979e+00 -1.8991303227847314e+02 1.0000000000000000e+00 5.2278293134527605e+00 4.7328238524608075e+00 1.8434444842289587e+01 
160 1 2 1.0280234474977776e+00 -2.2086285124116878e+02 1.0000000000000000e+00 5.2278293131515037e+00 4.7328238521829240e+00 1.8434444842064327e+01 
167 1 2 1.0248887153727344e+00 -1.7700443594208537e+02 1.0000000000000000e+00 6.4114898151504560e+00 8.6857832494303988e+00 1.8068168167698143e+01 
142 1 2 1.0248887153727344e+00 -2.4539124757414049e+02 1.0000000000000000e+00 6.4114898151504596e+00 8.6857832494304201e+00 1.8068168167698161e+01 
22 1 2 1.0248887153727346e+00 -8.3833776368125172e+01 1.0000000000000000e+00 6.4114898151504578e+00 8.6857832494304184e+00 1.8068168167698158e+01 
131 1 2 1.0248887153727344e+00 -2.4220249629954890e+02 1.0000000000000000e+00 6.4114898151504596e+00 8.6857832494304201e+00 1.8068168167698161e+01 
23 1 2 1.0248887153727344e+00 -8.5731247036789000e+01 1.0000000000000000e+00 6.4114898151504560e+00 8.6857832494303988e+00 1.8068168167698143e+01 
86 1 2 1.0248887153727344e+00 -2.0274678566573436e+02 1.0000000000000000e+00 6.4114898151504560e+00 8.6857832494303988e+00 1.8068168167698143e+01 
33 1 2 1.0248887153727344e+00 -2.5164372017102971e+02 1.0000000000000000e+00 6.4114898151504560e+00 8.6857832494303988e+00 1.8068168167698143e+01 
153 1 2 1.0277676832506566e+00 -1.7851705533616740e+02 1.0000000000000000e+00 3.9356990592732917e+00 1.4237750618131141e+01 2.3895070054804344e+00 
154 1 2 1.0277676832506613e+00 -1.9713339828017484e+02 1.0000000000000000e+00 3.9356990592837611e+00 1.4237750618166467e+01 2.3895070054998353e+00 
117 1 2 1.0277676832506613e+00 -2.0035292026399202e+02 1.0000000000000000e+00 3.9356990592837504e+00 1.4237750618166467e+01 2.3895070054998366e+00 
111 1 2 1.0277676832505074e+00 -1.5710069207843623e+02 1.0000000000000000e+00 3.9356990577141353e+00 1.4237750612010315e+01 2.3895070020800881e+00 
172 1 2 1.0277676832504608e+00 -1.9330277798504866e+02 1.0000000000000000e+00 3.9356990572304724e+00 1.4237750609858860e+01 2.3895070008720509e+00 
112 1 2 1.0277676832504608e+00 -1.6401518540769632e+02 1.0000000000000000e+00 3.9356990572304724e+00 1.4237750609858860e+01 2.3895070008720509e+00 
118 1 2 1.0277676832505509e+00 -1.7269257480362810e+02 1.0000000000000000e+00 3.9356990581193845e+00 1.4237750613729860e+01 2.3895070030419840e+00 
58 1 2 1.0277676832505653e+00 -1.2648297145007345e+02 1.0000000000000000e+00 4.4893484966903765e+00 1.2566848198535716e+01 5.1457378312350741e+00 
128 1 2 1.0277676832505653e+00 -2.2418906959992304e+02 1.0000000000000000e+00 4.4893484966903765e+00 1.2566848198535716e+01 5.1457378312350741e+00 
61 1 2 1.0277676832505653e+00 -2.1376581764005948e+02 1.0000000000000000e+00 4.4893484966903792e+00 1.2566848198535718e+01 5.1457378312350741e+00 
14 1 2 1.0277676832505653e+00 -9.8471611580806453e+01 1.0000000000000000e+00 4.4893484966903756e+00 1.2566848198535714e+01 5.1457378312350723e+00 
135 1 2 1.0277676832505653e+00 -2.2056843176278903e+02 1.0000000000000000e+00 4.4893484966903721e+00 1.2566848198535713e+01 5.1457378312350723e+00 
129 1 2 1.0277676832505653e+00 -2.1531372513340625e+02 1.0000000000000000e+00 4.4893484966903756e+00 1.2566848198535713e+01 5.1457378312350706e+00 
15 1 2 1.0277676832505653e+00 -1.1348041160448146e+02 1.0000000000000000e+00 4.4893484966903792e+00 1.2566848198535718e+01 5.1457378312350741e+00 
88 1 2 1.0271116562457210e+00 -2.1596203529628889e+02 1.0000000000000000e+00 1.1458566089432660e+01 2.5558084043244511e+00 1.6575407044083175e+00 
82 1 2 1.0271116562457210e+00 -1.7978471201511019e+02 1.0000000000000000e+00 1.1458566089432658e+01 2.5558084043244498e+00 1.6575407044083219e+00 
67 1 2 1.0271116562457210e+00 -1.9204046510134489e+02 1.0000000000000000e+00 1.1458566089432658e+01 2.5558084043244520e+00 1.6575407044083232e+00 
103 1 2 1.0271116562457210e+00 -1.9811521544720927e+02 1.0000000000000000e+00 1.1458566089432658e+01 2.5558084043244538e+00 1.6575407044083235e+00 
85 1 2 1.0271116562457210e+00 -1.9203862175474598e+02 1.0000000000000000e+00 1.1458566089432658e+01 2.5558084043244524e+00 1.6575407044083226e+00 
124 1 2 1.0271116562457210e+00 -2.0042799017060105e+02 1.0000000000000000e+00 1.1458566089432660e+01 2.5558084043244502e+00 1.6575407044083197e+00 
91 1 2 1.0271116562457210e+00 -1.7020698248662245e+02 1.0000000000000000e+00 1.1458566089432660e+01 2.5558084043244533e+00 1.6575407044083210e+00 
31 1 2 1.0271116562457205e+00 -2.6231783372616957e+02 1.0000000000000000e+00 8.5129482982426410e+00 3.4694668210914807e+00 5.3674354279160996e-01 
27 1 2 1.0271116562457205e+00 -2.7892705817487274e+02 1.0000000000000000e+00 8.5129482982426410e+00 3.4694668210914807e+00 5.3674354279160996e-01 
34 1 2 1.0271116562457205e+00 -3.0527190718359077e+02 1.0000000000000000e+00 8.5129482982426410e+00 3.4694668210914807e+00 5.3674354279160996e-01 
38 1 2 1.0271116562457205e+00 -1.8456095544193278e+02 1.0000000000000000e+00 8.5129482982426410e+00 3.4694668210914807e+00 5.3674354279160996e-01 
44 1 2 1.0271116562457205e+00 -1.6135013205355645e+02 1.0000000000000000e+00 8.5129482982426374e+00 3.4694668210914799e+00 5.3674354279161374e-01 
68 1 2 1.0271116562457205e+00 -2.9043688860897350e+02 1.0000000000000000e+00 8.5129482982426410e+00 3.4694668210914807e+00 5.3674354279160996e-01 
121 1 2 1.0271116562457205e+00 -2.0368542166690389e+02 1.0000000000000000e+00 8.5129482982426410e+00 3.4694668210914807e+00 5.3674354279160996e-01 
163 1 2 1.0280000003053811e+00 -1.7370056216681957e+02 1.0000000000000000e+00 9.1985284418885449e+00 1.5569684835706032e+00 6.2203924521542779e+00 
95 1 2 1.0279999999598233e+00 -2.8424070333092970e+02 1.0000000000000000e+00 9.2657405095560126e+00 1.4868562130505187e+00 6.2483097473778066e+00 
170 1 2 1.0280000022919891e+00 -2.4739990482936628e+02 1.0000000000000000e+00 8.6462699022590339e+00 1.8023115103758127e+00 6.7048075366071487e+00 
134 1 2 1.0280000022919888e+00 -2.6827954116081617e+02 1.0000000000000000e+00 8.6462699022590215e+00 1.8023115103757998e+00 6.7048075366071647e+00 
98 1 2 1.0280000022919891e+00 -1.9983065376900959e+02 1.0000000000000000e+00 8.6462699022590339e+00 1.8023115103758161e+00 6.7048075366071318e+00 
3 1 2 1.0279999976317988e+00 -2.4882563913548444e+02 1.0000000000000000e+00 9.1239519335295931e+00 1.0033260458440274e+00 6.8365878930810018e+00 
122 1 2 1.0279999976317542e+00 -1.7610773065699243e+02 1.0000000000000000e+00 9.1239568773573136e+00 1.0033075175364796e+00 6.8365453698546901e+00 
158 1 2 1.0279999976313743e+00 -1.3566864418492213e+02 1.0000000000000000e+00 9.1240078164944372e+00 1.0031197353169214e+00 6.8361131645139395e+00 
5 1 2 1.0260411504165390e+00 -2.6925022696470063e+02 1.0000000000000000e+00 9.4059938240082364e+00 1.7867072611795919e+01 1.5457149775971846e+00 
174 1 2 1.0260411504165390e+00 -1.6454006388630995e+02 1.0000000000000000e+00 9.4059938240082168e+00 1.7867072611795944e+01 1.5457149775971863e+00 
180 1 2 1.0260411504165390e+00 -1.4644839251026946e+02 1.0000000000000000e+00 9.4059938240082168e+00 1.7867072611795944e+01 1.5457149775971863e+00 
8 1 2 1.0260411504165390e+00 -8.9813828491368028e+01 1.0000000000000000e+00 9.4059938240082399e+00 1.7867072611795944e+01 1.5457149775971815e+00 
166 1 2 1.0260411504165390e+00 -1.9670199016423720e+02 1.0000000000000000e+00 9.4059938240082168e+00 1.7867072611795944e+01 1.5457149775971863e+00 
165 1 2 1.0260411504165390e+00 -1.6864806274932488e+02 1.0000000000000000e+00 9.4059938240082399e+00 1.7867072611795944e+01 1.5457149775971815e+00 
171 1 2 1.0260411504165390e+00 -1.7931187951446378e+02 1.0000000000000000e+00 9.4059938240082399e+00 1.7867072611795944e+01 1.5457149775971815e+00 
126 1 2 1.0259003055437521e+00 -1.5024433588177635e+02 1.0000000000000000e+00 1.3034271397057436e+01 1.6024002560893123e+01 4.7080327637037200e+00 
18 1 2 1.0259003055437521e+00 -1.0914144320428893e+02 1.0000000000000000e+00 1.3034271397057099e+01 1.6024002560893063e+01 4.7080327637035664e+00 
173 1 2 1.0259003055437506e+00 -1.9434155268819381e+02 1.0000000000000000e+00 1.3034271397073898e+01 1.6024002560894754e+01 4.7080327637098849e+00 
45 1 2 1.0259003055437521e+00 -1.8374578274890769e+02 1.0000000000000000e+00 1.3034271397061097e+01 1.6024002560890871e+01 4.7080327637028825e+00 
90 1 2 1.0259003055437506e+00 -1.5520392220280354e+02 1.0000000000000000e+00 1.3034271397073898e+01 1.6024002560894765e+01 4.7080327637098982e+00 
179 1 2 1.0259003055437474e+00 -1.8999891142541856e+02 1.0000000000000000e+00 1.3034271397077703e+01 1.6024002560900033e+01 4.7080327637153854e+00 
89 1 2 1.0259003055437490e+00 -1.6100059759714890e+02 1.0000000000000000e+00 1.3034271397076450e+01 1.6024002560901273e+01 4.7080327637161066e+00 
36 1 2 1.0259902396220983e+00 -2.5587774929121315e+02 1.0000000000000000e+00 1.2318397271962064e+01 1.3936845079730103e+01 7.1658783745424461e+00 
149 1 2 1.0259902396220983e+00 -1.6129925590158939e+02 1.0000000000000000e+00 1.2318397271962064e+01 1.3936845079730103e+01 7.1658783745424461e+00 
65 1 2 1.0259902396220983e+00 -2.5253703599972744e+02 1.0000000000000000e+00 1.2318397271962064e+01 1.3936845079730103e+01 7.1658783745424461e+00 
35 1 2 1.0259902396220983e+00 -3.4095157690511030e+02 1.0000000000000000e+00 1.2318397271962064e+01 1.3936845079730103e+01 7.1658783745424461e+00 
148 1 2 1.0259902396220983e+00 -1.7258716101518314e+02 1.0000000000000000e+00 1.2318397271962064e+01 1.3936845079730103e+01 7.1658783745424461e+00 
71 1 2 1.0259902396220983e+00 -2.3764235839539805e+02 1.0000000000000000e+00 1.2318397271962064e+01 1.3936845079730103e+01 7.1658783745424461e+00 
29 1 2 1.0259902396220983e+00 -2.3526273476958903e+02 1.0000000000000000e+00 1.2318397271962064e+01 1.3936845079730103e+01 7.1658783745424461e+00 
57 1 2 1.0248887153727344e+00 -2.0919398282110751e+02 1.0000000000000000e+00 7.6195654064410423e+00 1.0536796551199011e+01 1.5587724055037045e+01 
10 1 2 1.0248887153727344e+00 -2.0678031982545579e+02 1.0000000000000000e+00 7.6195654064410459e+00 1.0536796551199016e+01 1.5587724055037052e+01 
176 1 2 1.0248887153727344e+00 -1.5926301779522487e+02 1.0000000000000000e+00 7.6195654064410459e+00 1.0536796551199016e+01 1.5587724055037052e+01 
92 1 2 1.0248887153727344e+00 -2.0864806066701090e+02 1.0000000000000000e+00 7.6195654064410459e+00 1.0536796551199016e+01 1.5587724055037052e+01 
2 1 2 1.0248887153727344e+00 -2.2096592049609444e+02 1.0000000000000000e+00 7.6195654064410459e+00 1.0536796551199016e+01 1.5587724055037052e+01 
178 1 2 1.0248887153727344e+00 -2.0510843832191796e+02 1.0000000000000000e+00 7.6195654064410459e+00 1.0536796551199016e+01 1.5587724055037052e+01 
39 1 2 1.0248887153727344e+00 -2.1753968983880782e+02 1.0000000000000000e+00 7.6195654064410459e+00 1.0536796551199016e+01 1.5587724055037052e+01 
62 1 2 1.0260411504155813e+00 -1.2842800554883996e+02 1.0000000000000000e+00 8.7054756143380718e+00 1.7677277892788446e+01 1.8326108208853515e+01 
55 1 2 1.0260411504176012e+00 -2.2223332206405126e+02 1.0000000000000000e+00 8.7054756154364021e+00 1.7677277893200920e+01 1.8326108208628213e+01 
49 1 2 1.0260411504165650e+00 -1.7483932618731217e+02 1.0000000000000000e+00 8.7054756144954233e+00 1.7677277893198049e+01 1.8326108208813618e+01 
43 1 2 1.0260411504165650e+00 -1.5873916142058494e+02 1.0000000000000000e+00 8.7054756144954233e+00 1.7677277893198049e+01 1.8326108208813618e+01 
94 1 2 1.0260411504165650e+00 -2.8088518448425242e+02 1.0000000000000000e+00 8.7054756144954233e+00 1.7677277893198049e+01 1.8326108208813618e+01 
66 1 2 1.0260411504155813e+00 -2.5763949740791043e+02 1.0000000000000000e+00 8.7054756143380718e+00 1.7677277892788446e+01 1.8326108208853515e+01 
1 1 2 1.0260411504173139e+00 -1.4827950988603220e+02 1.0000000000000000e+00 8.7054756156621185e+00 1.7677277892935908e+01 1.8326108208589336e+01 
79 1 2 1.0279999792183880e+00 -2.2140428973294547e+02 1.0000000000000000e+00 1.8609272667558599e+01 2.0054708469464937e+00 4.4503198791803653e+00 
17 1 2 1.0279999792183883e+00 -1.2428782291157616e+02 1.0000000000000000e+00 1.8609272667558699e+01 2.0054708469466815e+00 4.4503198791802534e+00 
73 1 2 1.0279999792183876e+00 -2.5207791047365774e+02 1.0000000000000000e+00 1.8609272667558951e+01 2.0054708469470315e+00 4.4503198791799790e+00 
37 1 2 1.0279999792183891e+00 -2.8568224570672533e+02 1.0000000000000000e+00 1.8609272667558923e+01 2.0054708469470999e+00 4.4503198791800074e+00 
137 1 2 1.0280001023479344e+00 -2.0964151000435493e+02 1.0000000000000000e+00 1.9380332536814176e+01 2.6010046994919516e+00 4.7788704685811147e+00 
130 1 2 1.0279999981363936e+00 -2.6379096546807642e+02 1.0000000000000000e+00 1.9515282710313723e+01 1.9308975133703925e+00 5.5469088097605042e+00 
106 1 2 1.0279999981363936e+00 -2.2645058409157571e+02 1.0000000000000000e+00 1.9515282710313652e+01 1.9308975133703177e+00 5.5469088097605388e+00 
136 1 2 1.0279999981363932e+00 -2.1172652671311818e+02 1.0000000000000000e+00 1.9515282710313670e+01 1.9308975133703434e+00 5.5469088097605335e+00 
100 1 2 1.0279999981363837e+00 -2.3006134015833112e+02 1.0000000000000000e+00 1.9515282727368472e+01 1.9308975401247748e+00 5.5469088032441469e+00 
133 1 2 1.0277706385376781e+00 -8.2942044559061344e+01 1.0000000000000000e+00 1.9015649564113680e+01 9.8881102050725111e+00 6.0229737455698027e+00 
169 1 2 1.0277706385376775e+00 -8.4042114587363699e+01 1.0000000000000000e+00 1.9015649564113673e+01 9.8881102050725058e+00 6.0229737455698062e+00 
139 1 2 1.0259974529974403e+00 -2.4697354721904736e+02 1.0000000000000000e+00 1.5916703736186081e+01 2.2314503003410500e+00 7.3675738741439956e+00 
97 1 2 1.0259974529974398e+00 -2.4211087067493136e+02 1.0000000000000000e+00 1.5916703736186076e+01 2.2314503003410500e+00 7.3675738741439947e+00 
46 1 2 1.0259974529974398e+00 -2.5316163514807474e+02 1.0000000000000000e+00 1.5916703736186081e+01 2.2314503003410486e+00 7.3675738741439964e+00 
21 1 2 1.0259974529974398e+00 -2.0163813532339742e+02 1.0000000000000000e+00 1.5916703736186076e+01 2.2314503003410509e+00 7.3675738741439947e+00 
175 1 2 1.0259974529974398e+00 -1.5948516154489297e+02 1.0000000000000000e+00 1.5916703736186076e+01 2.2314503003410509e+00 7.3675738741439947e+00 
109 1 2 1.0259974529974398e+00 -2.5728868902608275e+02 1.0000000000000000e+00 1.5916703736186076e+01 2.2314503003410495e+00 7.3675738741439964e+00 
144 1 2 1.0259974529974398e+00 -2.1001092165102105e+02 1.0000000000000000e+00 1.5916703736186079e+01 2.2314503003410495e+00 7.3675738741439956e+00 
147 1 2 1.0259974417270468e+00 -1.9683563773176726e+02 1.0000000000000000e+00 1.6160490569062102e+01 4.6968228167597088e+00 9.5493994376878533e+00 
151 1 2 1.0259974417270465e+00 -2.4276536402476998e+02 1.0000000000000000e+00 1.6160490569062137e+01 4.6968228167597141e+00 9.5493994376878533e+00 
116 1 2 1.0259974417270465e+00 -2.4210340464826254e+02 1.0000000000000000e+00 1.6160490569062137e+01 4.6968228167597141e+00 9.5493994376878533e+00 
146 1 2 1.0259974417270477e+00 -2.3943707232935461e+02 1.0000000000000000e+00 1.6160490569062105e+01 4.6968228167596946e+00 9.5493994376878479e+00 
9 1 2 1.0259974417270461e+00 -2.6959661950920321e+02 1.0000000000000000e+00 1.6160490569062137e+01 4.6968228167597150e+00 9.5493994376878621e+00 
152 1 2 1.0259974417270468e+00 -2.3188387421437230e+02 1.0000000000000000e+00 1.6160490569062102e+01 4.6968228167597088e+00 9.5493994376878533e+00 
145 1 2 1.0259974417270468e+00 -2.3578405610857502e+02 1.0000000000000000e+00 1.6160490569062102e+01 4.6968228167597088e+00 9.5493994376878533e+00 
140 1 2 1.0280540971526688e+00 -2.6366052100342660e+02 1.0000000000000000e+00 1.9924359272553048e+01 9.8630358205649493e+00 6.9404837140762101e+00 
156 1 2 1.0280540971526697e+00 -2.6691269207207199e+02 1.0000000000000000e+00 1.9924359272553136e+01 9.8630358205650417e+00 6.9404837140761027e+00 
120 1 2 1.0280540971526699e+00 -2.0150963721127215e+02 1.0000000000000000e+00 1.9924359272552994e+01 9.8630358205648783e+00 6.9404837140762554e+00 
150 1 2 1.0280540971526695e+00 -2.5154847824776562e+02 1.0000000000000000e+00 1.9924359272552994e+01 9.8630358205648587e+00 6.9404837140762456e+00 
105 1 2 1.0266831854536118e+00 -2.1098645122686000e+02 1.0000000000000000e+00 1.4285458091577990e+01 2.1804297664806858e+00 1.6194953989087402e+01 
104 1 2 1.0266831854536118e+00 -2.0591538448672028e+02 1.0000000000000000e+00 1.4285458091577988e+01 2.1804297664806875e+00 1.6194953989087402e+01 
110 1 2 1.0266831854536118e+00 -2.0999747275997245e+02 1.0000000000000000e+00 1.4285458091577988e+01 2.1804297664806875e+00 1.6194953989087402e+01 
74 1 2 1.0266831854536118e+00 -2.1308417714961499e+02 1.0000000000000000e+00 1.4285458091577986e+01 2.1804297664806871e+00 1.6194953989087399e+01 
75 1 2 1.0266831854536118e+00 -2.0761141463567171e+02 1.0000000000000000e+00 1.4285458091577988e+01 2.1804297664806875e+00 1.6194953989087402e+01 
177 1 2 1.0266831854536118e+00 -2.7473726547435598e+02 1.0000000000000000e+00 1.4285458091577986e+01 2.1804297664806871e+00 1.6194953989087399e+01 
42 1 2 1.0266831854536118e+00 -2.7751931413991434e+02 1.0000000000000000e+00 1.4285458091577988e+01 2.1804297664806875e+00 1.6194953989087402e+01 
25 1 2 1.0266831854536116e+00 -2.2287709536119712e+02 1.0000000000000000e+00 1.6056931901501933e+01 4.0243284773358265e+00 1.4126508454549285e+01 
26 1 2 1.0266831854536116e+00 -1.3300195487211604e+02 1.0000000000000000e+00 1.6056931901501933e+01 4.0243284773358265e+00 1.4126508454549285e+01 
13 1 2 1.0266831854536116e+00 -2.0352176874617302e+02 1.0000000000000000e+00 1.6056931901501933e+01 4.0243284773358265e+00 1.4126508454549285e+01 
99 1 2 1.0266831854536116e+00 -2.2960540859565816e+02 1.0000000000000000e+00 1.6056931901501933e+01 4.0243284773358248e+00 1.4126508454549283e+01 
93 1 2 1.0266831854536116e+00 -2.1998723513238261e+02 1.0000000000000000e+00 1.6056931901501923e+01 4.0243284773358301e+00 1.4126508454549278e+01 
20 1 2 1.0266831854536116e+00 -2.1515416460248846e+02 1.0000000000000000e+00 1.6056931901501933e+01 4.0243284773358265e+00 1.4126508454549285e+01 
19 1 2 1.0266831854536116e+00 -2.3217903431321949e+02 1.0000000000000000e+00 1.6056931901501933e+01 4.0243284773358265e+00 1.4126508454549285e+01 
12 1 2 1.0280242848877039e+00 -2.7453568318468251e+02 1.0000000000000000e+00 1.8736684289900793e+01 1.0465925152436421e+01 6.5583331153041069e+00 
56 1 2 1.0280242848877026e+00 -1.9766628738921668e+02 1.0000000000000000e+00 1.8736684289900776e+01 1.0465925152436405e+01 6.5583331153041620e+00 
7 1 2 1.0280242848877033e+00 -1.7368539822642009e+02 1.0000000000000000e+00 1.8736684289900740e+01 1.0465925152436354e+01 6.5583331153042099e+00 
64 1 2 1.0236344544350573e+00 -1.8067523761092946e+02 1.0000000000000000e+00 1.8364743283915026e+01 1.2995909804322544e+01 9.0165392256740411e+00 
28 1 2 1.0236344544350575e+00 -1.8948842192870001e+02 1.0000000000000000e+00 1.8364743283915029e+01 1.2995909804322539e+01 9.0165392256740375e+00 
40 1 2 1.0236344544350573e+00 -1.7401291318918459e+02 1.0000000000000000e+00 1.8364743283915026e+01 1.2995909804322546e+01 9.0165392256740429e+00 
70 1 2 1.0236344544350573e+00 -1.7782356630123599e+02 1.0000000000000000e+00 1.8364743283915026e+01 1.2995909804322546e+01 9.0165392256740411e+00 
141 1 2 1.0236344544350573e+00 -2.5727236435210108e+02 1.0000000000000000e+00 1.8364743283915018e+01 1.2995909804322547e+01 9.0165392256740411e+00 
69 1 2 1.0236344544350573e+00 -2.2809321571298773e+02 1.0000000000000000e+00 1.8364743283915026e+01 1.2995909804322544e+01 9.0165392256740411e+00 
32 1 2 1.0236344544350573e+00 -2.8279551642028247e+02 1.0000000000000000e+00 1.8364743283915022e+01 1.2995909804322549e+01 9.0165392256740482e+00 
96 1 2 1.0304472220232848e+00 -2.6938194372413506e+02 1.0000000000000000e+00 1.5046311718241391e+01 1.4464863377661789e+01 9.7596105420801287e+00 
162 1 2 1.0304472220232845e+00 -1.7475460995331935e+02 1.0000000000000000e+00 1.5046311718241371e+01 1.4464863377661780e+01 9.7596105420800807e+00 
127 1 2 1.0304472220232841e+00 -2.5467104082278971e+02 1.0000000000000000e+00 1.5046311718241355e+01 1.4464863377661748e+01 9.7596105420799635e+00 
132 1 2 1.0304472220232859e+00 -2.3621351647337036e+02 1.0000000000000000e+00 1.5046311718241306e+01 1.4464863377661873e+01 9.7596105420802211e+00 
11 1 2 1.0304472220232859e+00 -2.4121735543743480e+02 1.0000000000000000e+00 1.5046311718241276e+01 1.4464863377661883e+01 9.7596105420802122e+00 
138 1 2 1.0304472220232848e+00 -2.6083451814076824e+02 1.0000000000000000e+00 1.5046311718241375e+01 1.4464863377661786e+01 9.7596105420801038e+00 
168 1 2 1.0304472220232856e+00 -1.4883350453627151e+02 1.0000000000000000e+00 1.5046311718241268e+01 1.4464863377661867e+01 9.7596105420801500e+00 
30 1 2 1.0299399932901716e+00 -2.4361411759359527e+02 1.0000000000000000e+00 1.6189294036474788e+01 1.7420140240212927e+01 9.1004176617709192e+00 
81 1 2 1.0299399932901656e+00 -2.1676308964708394e+02 1.0000000000000000e+00 1.6189294036474958e+01 1.7420140240212973e+01 9.1004176617710009e+00 
80 1 2 1.0299399932901649e+00 -2.1801644324826484e+02 1.0000000000000000e+00 1.6189294036474951e+01 1.7420140240212980e+01 9.1004176617709653e+00 
59 1 2 1.0299399932901676e+00 -2.3661640684624595e+02 1.0000000000000000e+00 1.6189294036475030e+01 1.7420140240212934e+01 9.1004176617710861e+00 
24 1 2 1.0299399932901805e+00 -1.6746412429126374e+02 1.0000000000000000e+00 1.6189294036474678e+01 1.7420140240212888e+01 9.1004176617712105e+00 
87 1 2 1.0299399932901598e+00 -2.1269574069200311e+02 1.0000000000000000e+00 1.6189294036475115e+01 1.7420140240213009e+01 9.1004176617710097e+00 
60 1 2 1.0299399932901734e+00 -2.6917138732579065e+02 1.0000000000000000e+00 1.6189294036474966e+01 1.7420140240212884e+01 9.1004176617711803e+00 
107 1 2 1.0223106530178299e+00 -2.2513962586192912e+02 1.0000000000000000e+00 1.8046182352300733e+01 1.0402364465967873e+01 1.1159628458792479e+01 
72 1 2 1.0223106530178299e+00 -1.9535994307716908e+02 1.0000000000000000e+00 1.8046182352300828e+01 1.0402364465967874e+01 1.1159628458792502e+01 
125 1 2 1.0223106530178299e+00 -2.1821727471736017e+02 1.0000000000000000e+00 1.8046182352300850e+01 1.0402364465967878e+01 1.1159628458792508e+01 
102 1 2 1.0223106530178299e+00 -1.9497086433049753e+02 1.0000000000000000e+00 1.8046182352300676e+01 1.0402364465967896e+01 1.1159628458792502e+01 
119 1 2 1.0223106530178299e+00 -2.1122370337136823e+02 1.0000000000000000e+00 1.8046182352300828e+01 1.0402364465967885e+01 1.1159628458792511e+01 
108 1 2 1.0223106530178299e+00 -2.3311695390476081e+02 1.0000000000000000e+00 1.8046182352300750e+01 1.0402364465967867e+01 1.1159628458792476e+01 
101 1 2 1.0223106530178299e+00 -2.4213734693968780e+02 1.0000000000000000e+00 1.8046182352300750e+01 1.0402364465967867e+01 1.1159628458792476e+01 

Velocities

159 -3.9391255555606269e-01 1.3200861483792334e-01 1.6733750010063250e-01
157 -3.9391255555606108e-01 1.3200861483792287e-01 1.6733750010063156e-01
16 -3.9391255555606108e-01 1.3200861483792628e-01 1.6733750010063048e-01
4 -3.9391255555606075e-01 1.3200861483792636e-01 1.6733750010063031e-01
123 -3.9391255555606108e-01 1.3200861483792628e-01 1.6733750010063048e-01
164 -3.9391255555606108e-01 1.3200861483792628e-01 1.6733750010063048e-01
115 -3.9391255555606108e-01 1.3200861483792628e-01 1.6733750010063048e-01
113 -3.7098725729177778e-01 1.8774275526410558e-01 8.7096094377399624e-02
41 -3.7098725729177817e-01 1.8774275526410558e-01 8.7096094377400859e-02
114 -3.7098725729177778e-01 1.8774275526410558e-01 8.7096094377399624e-02
77 -3.7098725729177778e-01 1.8774275526410558e-01 8.7096094377399624e-02
143 -3.7098725729177778e-01 1.8774275526410558e-01 8.7096094377399624e-02
78 -3.7098725729177778e-01 1.8774275526410558e-01 8.7096094377399624e-02
76 -3.7098725729177778e-01 1.8774275526410558e-01 8.7096094377399624e-02
52 -3.5453335136360908e-01 1.9938769411702406e-01 6.7201573282852853e-02
54 -3.5453335136360942e-01 1.9938769411702409e-01 6.7201573282853741e-02
48 -3.5453335136360947e-01 1.9938769411702351e-01 6.7201573282853366e-02
84 -3.5453335136360964e-01 1.9938769411702351e-01 6.7201573282854254e-02
47 -3.5453335136360947e-01 1.9938769411702351e-01 6.7201573282853366e-02
83 -3.5453335136360942e-01 1.9938769411702409e-01 6.7201573282853741e-02
53 -3.5453335136360942e-01 1.9938769411702409e-01 6.7201573282853741e-02
161 -3.7558708500309546e-01 1.5421427999636972e-01 1.9024817656760887e-01
155 -3.7558708500184729e-01 1.5421427999905038e-01 1.9024817656756182e-01
63 -3.7558708501241778e-01 1.5421427998045312e-01 1.9024817656709248e-01
6 -3.7558708499917898e-01 1.5421428000377232e-01 1.9024817656772103e-01
51 -3.7558708501241828e-01 1.5421427998045331e-01 1.9024817656709286e-01
50 -3.7558708501722615e-01 1.5421427998646645e-01 1.9024817656359483e-01
160 -3.7558708500309546e-01 1.5421427999636972e-01 1.9024817656760887e-01
167 -3.1437967547464235e-01 1.9495723377539700e-01 -3.8426050001545677e-02
142 -3.1437967547464257e-01 1.9495723377537910e-01 -3.8426050001565980e-02
22 -3.1437967547464152e-01 1.9495723377538049e-01 -3.8426050001563496e-02
131 -3.1437967547464257e-01 1.9495723377537910e-01 -3.8426050001565980e-02
23 -3.1437967547464235e-01 1.9495723377539700e-01 -3.8426050001545677e-02
86 -3.1437967547464235e-01 1.9495723377539700e-01 -3.8426050001545677e-02
33 -3.1437967547464235e-01 1.9495723377539700e-01 -3.8426050001545677e-02
153 -4.2218638313855661e-01 1.1163747179432076e-01 -1.3960324582956813e-02
154 -4.2218638313959533e-01 1.1163747179085932e-01 -1.3960324584887942e-02
117 -4.2218638313959450e-01 1.1163747179085926e-01 -1.3960324584887966e-02
111 -4.2218638298492900e-01 1.1163747239434367e-01 -1.3960324246645606e-02
172 -4.2218638293724836e-01 1.1163747260526015e-01 -1.3960324127197790e-02
112 -4.2218638293724836e-01 1.1163747260526015e-01 -1.3960324127197790e-02
118 -4.2218638302486494e-01 1.1163747222577378e-01 -1.3960324341777750e-02