LAMMPS data file via write_data, version 30 Jul 2016, timestep = 50400000

180 atoms
2 atom types

0.0000000000000000e+00 2.0000000000000000e+01 xlo xhi
0.0000000000000000e+00 2.0000000000000000e+01 ylo yhi
0.0000000000000000e+00 2.0000000000000000e+01 zlo zhi

Masses

1 3.896
2 4.31

Atoms # meso-molecular

9 1 2 1.0279999999999756e+00 -1.3184530554225876e+02 1.0000000000000000e+00 6.6648724974988669e+00 6.7619324481019794e+00 4.2892412124531996e+00 
141 1 2 1.0279999999999909e+00 -3.4399722419741396e-01 1.0000000000000000e+00 6.6398370432412790e+00 6.7405421817407358e+00 4.3188204263632155e+00 
58 1 2 1.0279999999999909e+00 1.4433204852287793e+02 1.0000000000000000e+00 6.6054174392712870e+00 6.8173941903312532e+00 4.3328855382922136e+00 
41 1 2 1.0279999999999809e+00 1.8650822125898563e+02 1.0000000000000000e+00 6.6178831666206346e+00 6.7400908694772701e+00 4.3410217369662485e+00 
27 1 2 1.0279999999999849e+00 8.9152700698014016e+00 1.0000000000000000e+00 6.5877372056028625e+00 6.8940456861882558e+00 4.3413491210274220e+00 
176 1 2 1.0279999999999918e+00 -1.3812222028138257e+02 1.0000000000000000e+00 6.4525749304116840e+00 6.5992396396645683e+00 4.7621741648206779e+00 
47 1 2 1.0279999999999854e+00 1.7171371478144709e+02 1.0000000000000000e+00 6.5430450985557318e+00 6.9470930457310844e+00 4.3935503930632107e+00 
104 1 2 1.0280000000000047e+00 -1.8354769052977827e+02 1.0000000000000000e+00 6.5375324251027243e+00 6.8393536772448877e+00 4.4096620163187126e+00 
82 1 2 1.0279999999999854e+00 -1.7212164748769936e+02 1.0000000000000000e+00 6.6089290845258333e+00 6.5625285660873960e+00 4.4509824877941897e+00 
11 1 2 1.0279999999999963e+00 1.2656582622892375e+02 1.0000000000000000e+00 6.4390673773920328e+00 6.6570135158994175e+00 4.7192215642575901e+00 
54 1 2 1.0279999999999927e+00 6.8069450551362849e+01 1.0000000000000000e+00 6.5381727394732279e+00 6.7251219821810571e+00 4.4452909914820804e+00 
133 1 2 1.0280000000000005e+00 -1.1785889373639874e+02 1.0000000000000000e+00 6.3755242142261324e+00 6.8101531605178360e+00 4.8978262556953798e+00 
162 1 2 1.0279999999999814e+00 -4.1343227513573325e+01 1.0000000000000000e+00 6.6549345478211901e+00 6.4706241110029366e+00 4.4784028197809231e+00 
105 1 2 1.0280000000000096e+00 1.2993820889063343e+02 1.0000000000000000e+00 6.5091719696043961e+00 7.0303035808043655e+00 4.4505956839282179e+00 
60 1 2 1.0279999999999916e+00 -3.1449119672801142e+01 1.0000000000000000e+00 6.5004059417109348e+00 6.9810165205083985e+00 4.4568321921828611e+00 
6 1 2 1.0279999999999871e+00 2.8311168550447928e+01 1.0000000000000000e+00 6.5402890148514308e+00 6.6654607304581672e+00 4.4744388698156063e+00 
32 1 2 1.0279999999999874e+00 -1.6128696567037116e+02 1.0000000000000000e+00 6.4943632194448027e+00 6.8692321748334475e+00 4.4691102630152741e+00 
5 1 2 1.0279999999999836e+00 -4.9981597315531889e+00 1.0000000000000000e+00 6.5601577931319870e+00 6.5948280178840974e+00 4.4948071812636332e+00 
17 1 2 1.0279999999999796e+00 -6.4885700041891567e+01 1.0000000000000000e+00 6.5756348857107563e+00 6.5524641834956467e+00 4.5083515134201759e+00 
71 1 2 1.0279999999999834e+00 5.1968586617592756e+01 1.0000000000000000e+00 6.4696345064790286e+00 7.0300485866722768e+00 4.5182033897999156e+00 
53 1 2 1.0279999999999909e+00 6.8997811016873612e+01 1.0000000000000000e+00 6.5471641079332406e+00 6.5689973811495346e+00 4.5406391855496198e+00 
131 1 2 1.0279999999999867e+00 -1.4576916787657499e+01 1.0000000000000000e+00 6.4738298162104453e+00 6.7540022645439413e+00 4.5423620739176576e+00 
12 1 2 1.0279999999999909e+00 6.1608973758217687e+00 1.0000000000000000e+00 6.4703164366309718e+00 6.6623085123260131e+00 4.6144739317971508e+00 
37 1 2 1.0279999999999869e+00 2.2189201177154922e+02 1.0000000000000000e+00 6.4478535982828156e+00 6.6734814947449230e+00 4.6671098815123031e+00 
177 1 2 1.0279999999999900e+00 -6.7917235298523408e+01 1.0000000000000000e+00 7.7475002112458471e+00 7.8141347488734665e+00 4.4840214740075188e+00 
31 1 2 1.0280000000000127e+00 -1.4414268002748730e+02 1.0000000000000000e+00 8.4468595864011782e+00 7.3482034248220653e+00 4.6143287525444432e+00 
136 1 2 1.0280000000000233e+00 2.5395184286001574e+02 1.0000000000000000e+00 8.3698134491620255e+00 7.7899944367576239e+00 4.7804438969228658e+00 
172 1 2 1.0279999999999840e+00 8.3882470742138636e+01 1.0000000000000000e+00 7.1734270860157920e+00 7.7558353119397117e+00 4.4412287994094823e+00 
107 1 2 1.0279999999999725e+00 -5.1553566543779908e+01 1.0000000000000000e+00 7.1936408337669988e+00 6.0640296215546874e+00 4.7590560891965534e+00 
145 1 2 1.0280000000000065e+00 -1.2222353789405737e+01 1.0000000000000000e+00 7.1092484487892360e+00 7.8746617376942876e+00 4.6438507121514823e+00 
50 1 2 1.0279999999999858e+00 -5.1013713563853536e+00 1.0000000000000000e+00 6.8259636288157202e+00 7.5705467494607044e+00 4.4440663931645332e+00 
59 1 2 1.0279999999999800e+00 5.1523974718941361e+01 1.0000000000000000e+00 6.7441104400966259e+00 6.4474946963958635e+00 4.4044214376191171e+00 
150 1 2 1.0279999999999918e+00 -5.8886243182645352e+01 1.0000000000000000e+00 6.6798003763391733e+00 6.4556744923108162e+00 4.4636798627424890e+00 
171 1 2 1.0280000000000133e+00 5.7386693205637101e+01 1.0000000000000000e+00 9.0673027796599115e+00 7.3930799237740912e+00 6.8988209434303238e+00 
64 1 2 1.0279999999997678e+00 8.8761720732018190e+01 1.0000000000000000e+00 1.0210853916472546e+01 8.1337939047235963e+00 8.8674994462094059e+00 
13 1 2 1.0280000000000342e+00 4.0447551761873910e+01 1.0000000000000000e+00 8.7536358412148392e+00 6.5897178381443151e+00 5.5890269023646768e+00 
16 1 2 1.0279999999998994e+00 -1.9773000765412924e+01 1.0000000000000000e+00 9.7422228764472099e+00 7.9779017941626842e+00 7.4216109103048735e+00 
132 1 2 1.0279999999999654e+00 -4.7729582452563463e+01 1.0000000000000000e+00 8.1911856885233547e+00 6.1832171292951674e+00 5.2730517385552922e+00 
35 1 2 1.0280000000002367e+00 -5.7103539813408997e+00 1.0000000000000000e+00 9.9267453596330615e+00 7.9505761400297201e+00 7.3246510442224153e+00 
138 1 2 1.0280000000001912e+00 -4.1883734830952037e+01 1.0000000000000000e+00 9.4882173771595486e+00 7.8039052776038345e+00 7.0864476923116007e+00 
118 1 2 1.0280000000000831e+00 -7.5212120923844509e+01 1.0000000000000000e+00 1.0460743605551583e+01 8.1755229627886710e+00 9.4809524937892249e+00 
42 1 2 1.0279999999998175e+00 1.0038152449973805e+02 1.0000000000000000e+00 9.9577987514991300e+00 8.9209066195648390e+00 7.3363363558261252e+00 
76 1 2 1.0280000000001037e+00 1.0933014950347962e+02 1.0000000000000000e+00 1.2488282701759728e+01 8.5036941007614715e+00 9.9855502761321073e+00 
48 1 2 1.0279999999998581e+00 1.4942272966516441e+02 1.0000000000000000e+00 9.9922389836730705e+00 9.0906431953134543e+00 7.6024302006162081e+00 
100 1 2 1.0280000000000542e+00 1.2726523707670276e+02 1.0000000000000000e+00 9.0859194698128984e+00 7.0168124200610782e+00 6.2845716415223967e+00 
101 1 2 1.0280000000000271e+00 -8.0667696670898550e+01 1.0000000000000000e+00 1.0152591202178892e+01 7.9671438360320694e+00 8.2298482300288569e+00 
179 1 2 1.0279999999999865e+00 2.7776615817216502e+01 1.0000000000000000e+00 7.5183861868800781e+00 5.9999166117205318e+00 5.1215012106151372e+00 
173 1 2 1.0279999999998402e+00 -5.3050714516950414e+01 1.0000000000000000e+00 9.9629135538048512e+00 8.9845108129300346e+00 7.4440077222141010e+00 
23 1 2 1.0279999999999196e+00 -4.5464079492524618e+01 1.0000000000000000e+00 9.9055595293715371e+00 7.9967647078465074e+00 7.7433298606317509e+00 
123 1 2 1.0280000000000096e+00 -1.8886235437937270e+01 1.0000000000000000e+00 1.3298277827974745e+01 9.7198316209891331e+00 6.2265825293118082e+00 
161 1 2 1.0280000000001366e+00 -1.1780180860210598e+02 1.0000000000000000e+00 1.2451585335082443e+01 8.3262465250169040e+00 8.9784111900490924e+00 
142 1 2 1.0280000000000111e+00 1.2660720204776445e+02 1.0000000000000000e+00 9.8675622254631570e+00 7.9734565804528907e+00 7.5747801233477796e+00 
18 1 2 1.0280000000000620e+00 -6.6616284610348771e+01 1.0000000000000000e+00 9.1203729078377052e+00 7.7056484218495269e+00 5.6088803306000203e+00 
116 1 2 1.0279999999997156e+00 -1.5466610694759009e-02 1.0000000000000000e+00 9.8869515410273880e+00 8.0101241511396442e+00 7.7502374762091577e+00 
43 1 2 1.0280000000001295e+00 1.1172886887425213e+02 1.0000000000000000e+00 1.0365421342977658e+01 7.9060729925937965e+00 8.4946696604943082e+00 
90 1 2 1.0279999999997649e+00 -4.0921490472880251e+00 1.0000000000000000e+00 9.8966664466873961e+00 8.1503172825880892e+00 8.0923492763252938e+00 
178 1 2 1.0279999999999192e+00 1.6501276948237127e+01 1.0000000000000000e+00 9.8909982127465259e+00 7.9890795401515931e+00 7.6846514804385926e+00 
163 1 2 1.0280000000001637e+00 1.3939778655695495e+01 1.0000000000000000e+00 1.0108394953388578e+01 7.9421965738762843e+00 7.9675994290721022e+00 
149 1 2 1.0280000000000309e+00 -3.2206694542640783e+01 1.0000000000000000e+00 8.9021731658207059e+00 6.7704706185701093e+00 5.6041235255733621e+00 
124 1 2 1.0280000000001703e+00 -1.0134672192420049e+02 1.0000000000000000e+00 9.3392755342369789e+00 7.4108639143226416e+00 6.5608822707294969e+00 
144 1 2 1.0280000000002421e+00 -9.8388385932350914e+01 1.0000000000000000e+00 9.4323705817268859e+00 7.6331732067973039e+00 6.8668199570005584e+00 
106 1 2 1.0279999999998490e+00 1.0891065424058169e+02 1.0000000000000000e+00 1.0241074877391078e+01 8.6127519970644038e+00 9.4396070579535323e+00 
24 1 2 1.0280000000000309e+00 -7.7087812705422962e+01 1.0000000000000000e+00 7.9341822912182129e+00 7.0070592449961859e+00 6.6670843772481518e+00 
134 1 2 1.0279999999999030e+00 -6.1357767536445920e+01 1.0000000000000000e+00 9.7729990144086827e+00 7.9882356303323689e+00 7.4871046183627312e+00 
180 1 2 1.0280000000001439e+00 8.0820496046509049e+01 1.0000000000000000e+00 9.3907063518605920e+00 7.4819997905833739e+00 6.4617404198731245e+00 
130 1 2 1.0279999999998541e+00 1.1589986120075451e+02 1.0000000000000000e+00 1.1977911946014208e+01 8.9138640230494506e+00 1.1806951087725118e+01 
2 1 2 1.0279999999998919e+00 -1.7490638857046565e+02 1.0000000000000000e+00 1.1996542930012250e+01 8.9201737496476365e+00 1.1874195851761417e+01 
111 1 2 1.0279999999997946e+00 1.2304506165545685e+02 1.0000000000000000e+00 1.1881967289742930e+01 8.8992283158571794e+00 1.3115425573653850e+01 
61 1 2 1.0280000000001381e+00 6.1491064883579199e+01 1.0000000000000000e+00 1.1359812097327135e+01 8.7655038790228037e+00 1.1034341113459107e+01 
7 1 2 1.0280000000002489e+00 -1.2694680675993669e+02 1.0000000000000000e+00 1.2004695373783356e+01 9.0070521872401681e+00 1.2322735453081506e+01 
93 1 2 1.0280000000002241e+00 9.5746722787412949e+01 1.0000000000000000e+00 1.2009347380005236e+01 9.0405161388383206e+00 1.2376683451652518e+01 
89 1 2 1.0280000000002150e+00 6.9356333483167390e+01 1.0000000000000000e+00 1.2013581534457314e+01 8.9429282718664300e+00 1.1981076456440002e+01 
46 1 2 1.0279999999995644e+00 -8.8841608625157960e+01 1.0000000000000000e+00 1.2398775172489442e+01 8.7294491707143624e+00 1.1972499845840595e+01 
157 1 2 1.0279999999997131e+00 -8.4627072577269118e+00 1.0000000000000000e+00 1.2279012922681154e+01 8.6474159482209068e+00 1.2042991737136468e+01 
14 1 2 1.0279999999999359e+00 -1.3084739417645261e+02 1.0000000000000000e+00 1.1886691061876247e+01 8.8918754261761865e+00 1.1632916965913266e+01 
151 1 2 1.0280000000003009e+00 -2.6051288285548338e+01 1.0000000000000000e+00 1.2018576468054647e+01 8.9821045024552877e+00 1.2152670976084005e+01 
68 1 2 1.0279999999996807e+00 6.6718180437356471e+00 1.0000000000000000e+00 1.1858904711145836e+01 8.8763617220972826e+00 1.1593617814374010e+01 
127 1 2 1.0280000000003899e+00 -5.9735258527976711e+01 1.0000000000000000e+00 1.1856770801141845e+01 8.9290473889357482e+00 1.1585390257891969e+01 
125 1 2 1.0280000000003471e+00 5.9272184989335379e+00 1.0000000000000000e+00 1.1884798092902514e+01 8.9223436991562650e+00 1.1625636323846575e+01 
63 1 2 1.0279999999995697e+00 4.7808629139598921e+01 1.0000000000000000e+00 1.1789120354381151e+01 8.8513041429174404e+00 1.1503247472464754e+01 
28 1 2 1.0280000000001703e+00 -3.4815599986936505e+01 1.0000000000000000e+00 1.1493651237547294e+01 9.3712544892076295e+00 1.0888687609346521e+01 
70 1 2 1.0279999999999982e+00 9.9993762024849389e+01 1.0000000000000000e+00 1.0912138168191881e+01 8.3927877783800877e+00 1.0361666111405771e+01 
94 1 2 1.0280000000001084e+00 1.7144276331272170e+02 1.0000000000000000e+00 1.0874459187168954e+01 8.3980478255105933e+00 1.0324134249055104e+01 
137 1 2 1.0279999999998748e+00 3.3781043625846941e+01 1.0000000000000000e+00 1.2450458053990731e+01 8.3829431031093904e+00 1.2609126170827365e+01 
112 1 2 1.0280000000000762e+00 -9.5964908893816244e+01 1.0000000000000000e+00 1.1781478264175828e+01 8.1651285908204336e+00 1.0450411932361719e+01 
92 1 2 1.0280000000002469e+00 1.1358162804142433e+01 1.0000000000000000e+00 1.2558521430774404e+01 9.1240237720365975e+00 1.0535465053827675e+01 
69 1 2 1.0280000000000238e+00 8.9843151399137767e+01 1.0000000000000000e+00 1.2378558950706577e+01 9.7323002874072913e+00 1.4906924632854853e+01 
165 1 2 1.0280000000002329e+00 2.4712283553070581e+01 1.0000000000000000e+00 1.2583625347233522e+01 9.0678620050387284e+00 1.0470718461341246e+01 
34 1 2 1.0279999999999800e+00 -3.5967923959899380e+01 1.0000000000000000e+00 1.2567026045551316e+01 8.7956032601430820e+00 1.0339803071420532e+01 
103 1 2 1.0280000000001177e+00 -8.4183313982268544e+00 1.0000000000000000e+00 1.2012189541650173e+01 8.1927249300362384e+00 1.0286077673439262e+01 
33 1 2 1.0280000000001233e+00 4.8048883707706420e+02 1.0000000000000000e+00 1.0771109039573057e+01 8.2935917638652317e+00 1.0101837447223277e+01 
98 1 2 1.0279999999998732e+00 -1.1248817620520896e+02 1.0000000000000000e+00 1.2785278004779697e+01 8.6601624485468225e+00 1.2410322697666265e+01 
168 1 2 1.0280000000001115e+00 -6.1353222181427711e+01 1.0000000000000000e+00 1.2778160154620986e+01 9.3133043820764652e+00 1.2572475595087781e+01 
166 1 2 1.0280000000000642e+00 1.3820783065135323e+01 1.0000000000000000e+00 1.2629284486951454e+01 8.7665701335193216e+00 1.0080302646888889e+01 
10 1 2 1.0280000000000551e+00 -1.4370352186697335e+02 1.0000000000000000e+00 1.3292329283990064e+01 7.9904179814194158e+00 1.3985225688261346e+01 
49 1 2 1.0280000000000022e+00 3.4076765274903312e+02 1.0000000000000000e+00 1.2204393963877790e+01 9.4746825323343113e+00 1.5038509578672086e+01 
36 1 2 1.0279999999999256e+00 -6.8046725873272379e+01 1.0000000000000000e+00 1.2104761007440850e+01 8.7328942126972304e+00 1.5109131814929022e+01 
72 1 2 1.0280000000000116e+00 2.4101376595826838e+02 1.0000000000000000e+00 1.2639263036460759e+01 8.9102833443134664e+00 1.5928698850836614e+01 
143 1 2 1.0280000000000540e+00 -2.5986794502549515e+01 1.0000000000000000e+00 1.2937299152767769e+01 9.0985720019612089e+00 1.6098839864469589e+01 
56 1 2 1.0280000000000487e+00 5.2665463956555563e+01 1.0000000000000000e+00 1.2970613548394974e+01 9.3270197699673574e+00 1.6038683423225613e+01 
25 1 2 1.0280000000000653e+00 1.7384169669657179e+01 1.0000000000000000e+00 1.3059750293376245e+01 9.2017939471604766e+00 1.6116232087470628e+01 
126 1 2 1.0280000000000458e+00 -1.0466339192760512e+02 1.0000000000000000e+00 1.3092295729383459e+01 9.3813266222242557e+00 1.6047693788645724e+01 
4 1 2 1.0280000000000906e+00 -8.3906180716352850e+01 1.0000000000000000e+00 1.3196447873677375e+01 9.0979050895838753e+00 1.6165327351872744e+01 
21 1 2 1.0279999999999723e+00 -1.1289245602031775e+02 1.0000000000000000e+00 1.3241772269421016e+01 8.7290937740321564e+00 1.6143994180323602e+01 
155 1 2 1.0280000000000082e+00 -1.2491903429809136e+02 1.0000000000000000e+00 1.2183315294493427e+01 1.1638987530498683e+01 6.7748495452837822e+00 
67 1 2 1.0279999999999381e+00 3.2345366129225721e+02 1.0000000000000000e+00 1.2073243030721677e+01 1.1509853707444261e+01 7.4076485483954579e+00 
66 1 2 1.0280000000000020e+00 8.4681417181964505e+01 1.0000000000000000e+00 1.2971008418799613e+01 1.2185043180465820e+01 6.4749326510972915e+00 
135 1 2 1.0279999999998595e+00 1.5755538481554092e+02 1.0000000000000000e+00 1.0684275148863350e+01 1.0148367709201253e+01 7.9978234107972463e+00 
91 1 2 1.0280000000000413e+00 -5.3125306448915076e+01 1.0000000000000000e+00 1.2955492019030277e+01 1.2093685079352090e+01 6.1329165600165449e+00 
78 1 2 1.0280000000000395e+00 9.7745381191260378e+01 1.0000000000000000e+00 1.2778901054641791e+01 1.2054418380751061e+01 6.3535649614486314e+00 
80 1 2 1.0279999999999057e+00 4.4054658597461824e+01 1.0000000000000000e+00 1.1249134414655225e+01 1.0361872152123141e+01 9.1595224621769979e+00 
110 1 2 1.0279999999998990e+00 6.5762806322831855e+00 1.0000000000000000e+00 1.1556939538925580e+01 1.0706446236041094e+01 8.7609665058758903e+00 
152 1 2 1.0279999999999716e+00 -3.2666104379002281e+00 1.0000000000000000e+00 1.2202352056764090e+01 1.1457250913775999e+01 7.8148619548507616e+00 
121 1 2 1.0279999999999114e+00 1.1956160488028240e+02 1.0000000000000000e+00 1.1769328548344491e+01 1.1223785157779810e+01 7.6559363628685499e+00 
88 1 2 1.0279999999998828e+00 -5.4443797040802551e+01 1.0000000000000000e+00 1.0735743761318558e+01 1.0163978918039268e+01 7.6730133065214705e+00 
81 1 2 1.0279999999999159e+00 -7.6219112925046147e+01 1.0000000000000000e+00 1.1565355315833177e+01 1.1067820663373602e+01 7.4243898833278186e+00 
109 1 2 1.0279999999998586e+00 -3.2780003793075878e+01 1.0000000000000000e+00 1.0699506468282864e+01 1.0159716140316799e+01 8.2832018096150861e+00 
26 1 2 1.0280000000001230e+00 -1.3982534342673495e+02 1.0000000000000000e+00 1.3838855882352592e+01 9.8025435303872950e+00 7.7594834359701084e+00 
119 1 2 1.0280000000000495e+00 1.8283528656537633e+00 1.0000000000000000e+00 1.3956891877736936e+01 9.9104350082924171e+00 7.5921105987179009e+00 
169 1 2 1.0280000000000766e+00 -1.0394360075742478e+02 1.0000000000000000e+00 1.3995427061840136e+01 9.9274715529861872e+00 7.4907088628706981e+00 
167 1 2 1.0280000000000284e+00 -2.1874531424158100e+01 1.0000000000000000e+00 1.4145143994075513e+01 8.9600184679745869e+00 1.4541774077149313e+01 
77 1 2 1.0280000000000213e+00 1.1508574202576355e+02 1.0000000000000000e+00 1.3412415098460203e+01 8.4335194882064108e+00 1.3292114636643904e+01 
97 1 2 1.0280000000000178e+00 -7.0061183681527382e+01 1.0000000000000000e+00 1.4113270709848853e+01 9.1732682681346009e+00 1.4516476203514031e+01 
175 1 2 1.0280000000000231e+00 -1.7300684975231769e+02 1.0000000000000000e+00 1.3643748724449861e+01 9.8537282403755739e+00 1.4675819205777591e+01 
44 1 2 1.0280000000000666e+00 -1.1995908806165035e+02 1.0000000000000000e+00 1.3589378248546994e+01 9.0934124666417695e+00 1.6112254493012781e+01 
122 1 2 1.0279999999999667e+00 1.1676820633143599e+02 1.0000000000000000e+00 1.4179195929252931e+01 8.9448678691572816e+00 1.5295280550845511e+01 
129 1 2 1.0280000000000677e+00 5.8416085166576885e+01 1.0000000000000000e+00 1.3545588097221684e+01 9.0973322778506596e+00 1.6127794095585202e+01 
96 1 2 1.0279999999998692e+00 3.3368920226792582e+01 1.0000000000000000e+00 1.3357306087572793e+01 9.0378280322119267e+00 1.6174574013473524e+01 
22 1 2 1.0279999999999976e+00 1.7377838686669818e+02 1.0000000000000000e+00 1.3675362253057092e+01 8.4186879085345314e+00 1.5845320619764088e+01 
174 1 2 1.0280000000000207e+00 -7.2575898384026786e+01 1.0000000000000000e+00 1.3965842549247085e+01 9.0342474193647231e+00 1.5822538729069535e+01 
8 1 2 1.0279999999999494e+00 -1.3227360885350942e+02 1.0000000000000000e+00 1.3787939574287378e+01 8.7826956018519713e+00 1.5983768259260948e+01 
75 1 2 1.0279999999999205e+00 -7.1031475002311595e+01 1.0000000000000000e+00 1.3810998248047841e+01 8.9733686129566816e+00 1.5991586720791004e+01 
73 1 2 1.0279999999999758e+00 -1.0518529356266285e+02 1.0000000000000000e+00 1.3764980497826807e+01 8.8768934303365281e+00 1.6021044147843700e+01 
87 1 2 1.0279999999999772e+00 -6.3246978901263873e+01 1.0000000000000000e+00 1.3705373157558309e+01 8.8046930841853150e+00 1.6047025550867744e+01 
39 1 2 1.0280000000001972e+00 -1.0361068238814067e+02 1.0000000000000000e+00 1.3451567584184353e+01 8.9646547345948875e+00 1.6164216831806979e+01 
3 1 2 1.0279999999999914e+00 -1.1000293574660392e+02 1.0000000000000000e+00 1.3674263813363581e+01 8.7975405357256768e+00 1.6063296820454628e+01 
45 1 2 1.0279999999998830e+00 -2.0381038498463943e+02 1.0000000000000000e+00 1.3420428259478058e+01 9.0123584894750621e+00 1.6168617956943844e+01 
20 1 2 1.0280000000000040e+00 -4.2305764383104332e+01 1.0000000000000000e+00 1.3729694711018929e+01 9.2315266591516476e+00 1.5997127989065802e+01 
38 1 2 1.0279999999999663e+00 -1.3390028365945074e+02 1.0000000000000000e+00 1.3688435819337876e+01 8.8658471246947261e+00 1.6068628892613859e+01 
160 1 2 1.0279999999999538e+00 -1.7208905111034068e+02 1.0000000000000000e+00 1.3629435372737641e+01 8.8021306040059031e+00 1.6087235104497289e+01 
15 1 2 1.0279999999999705e+00 -8.8933559456739317e+01 1.0000000000000000e+00 1.3685438074979890e+01 8.9141400505076458e+00 1.6075599202208810e+01 
74 1 2 1.0280000000001388e+00 4.5275125251081590e+01 1.0000000000000000e+00 1.3715438307529713e+01 9.0935112807238561e+00 1.6047950797270197e+01 
1 1 2 1.0279999999998888e+00 -1.9871160076704950e+02 1.0000000000000000e+00 1.3398792766045277e+01 8.8551214740386470e+00 1.6165170935160571e+01 
158 1 2 1.0279999999998923e+00 1.4095659803766725e+02 1.0000000000000000e+00 1.3608097670021820e+01 8.8655182324456305e+00 1.6108506454654446e+01 
65 1 2 1.0279999999999694e+00 2.9863904419372055e+01 1.0000000000000000e+00 1.3348695166466916e+01 8.7167125814606425e+00 1.6138542414460989e+01 
140 1 2 1.0279999999999769e+00 -9.0377425022575721e+01 1.0000000000000000e+00 1.3410104642552216e+01 8.7775438290770715e+00 1.6148544746695091e+01 
40 1 2 1.0280000000002147e+00 -6.9154942424227727e+01 1.0000000000000000e+00 1.3504346365672051e+01 8.9570321954467431e+00 1.6151590170000532e+01 
108 1 2 1.0280000000000042e+00 4.0036358211755257e+01 1.0000000000000000e+00 1.4052051420744256e+01 1.1571178748658834e+01 5.4606516201381536e+00 
29 1 2 1.0280000000000049e+00 -5.7780185242286095e+01 1.0000000000000000e+00 1.4133551551996185e+01 1.1686057406454074e+01 5.5299453412146002e+00 
159 1 2 1.0280000000000020e+00 -1.0924142042472857e+02 1.0000000000000000e+00 1.4182357669322833e+01 1.1209256831916061e+01 5.4951034312297669e+00 
85 1 2 1.0280000000000031e+00 1.2358392005578611e+02 1.0000000000000000e+00 1.4238222440076211e+01 1.1502233177086413e+01 5.5321866267288637e+00 
154 1 2 1.0280000000000022e+00 -2.0725785000900186e+02 1.0000000000000000e+00 1.4292109308163171e+01 1.1355877563796385e+01 5.5516490968399088e+00 
156 1 2 1.0280000000000027e+00 8.5349506654419301e+01 1.0000000000000000e+00 1.4279674444137035e+01 1.1770659169230328e+01 5.6585242306367922e+00 
55 1 2 1.0279999999999998e+00 -1.4987516981245083e+01 1.0000000000000000e+00 1.4535636930002559e+01 1.1031174914363552e+01 5.8572849368763702e+00 
113 1 2 1.0280000000000029e+00 -4.1080760998844639e+01 1.0000000000000000e+00 1.4370198069248660e+01 1.1495101539309490e+01 5.6244376457758936e+00 
84 1 2 1.0280000000000014e+00 8.9392175916751370e+01 1.0000000000000000e+00 1.4310240613762103e+01 1.1189506070586047e+01 5.5766247430600622e+00 
164 1 2 1.0280000000000136e+00 2.0764328037134533e+01 1.0000000000000000e+00 1.4143763180592490e+01 1.2075781043589629e+01 5.8431734832488491e+00 
120 1 2 1.0280000000000151e+00 2.1592866239340065e+01 1.0000000000000000e+00 1.3695960980968609e+01 1.2129170182819339e+01 5.7611648238170936e+00 
170 1 2 1.0280000000000142e+00 -1.4350021050847602e+02 1.0000000000000000e+00 1.3812946306173728e+01 1.2128792010592234e+01 5.7685815692706122e+00 
147 1 2 1.0280000000000074e+00 -4.8371551324749248e+01 1.0000000000000000e+00 1.4554235061797279e+01 1.1666759256012350e+01 5.9166121504520799e+00 
62 1 2 1.0280000000000080e+00 -2.0450073075249691e+00 1.0000000000000000e+00 1.4256269523107113e+01 1.1890220279304074e+01 5.7261196707084325e+00 
52 1 2 1.0279999999999017e+00 -7.3699096037449664e+01 1.0000000000000000e+00 1.4364466954546819e+01 1.2089605117082952e+01 6.2794742034174593e+00 
57 1 2 1.0280000000000038e+00 1.8734053497061932e+01 1.0000000000000000e+00 1.4613658335294149e+01 1.1432104253252129e+01 5.9196989140462737e+00 
114 1 2 1.0280000000000113e+00 -6.5368023878702218e+01 1.0000000000000000e+00 1.4180472224219379e+01 1.2025417138691672e+01 5.8051327340802423e+00 
139 1 2 1.0280000000000153e+00 -1.4511627733540752e+02 1.0000000000000000e+00 1.4013336401636382e+01 1.2143416881633389e+01 5.8575568209115971e+00 
86 1 2 1.0280000000000020e+00 1.4799415990675772e+02 1.0000000000000000e+00 1.4602220806132920e+01 1.1299687722852113e+01 5.8888532858939016e+00 
79 1 2 1.0279999999999654e+00 6.1177268875777862e+01 1.0000000000000000e+00 1.4059445647106477e+01 1.2249810870208874e+01 6.5920571458689796e+00 
148 1 2 1.0279999999999598e+00 2.4174668774409989e+02 1.0000000000000000e+00 1.4252466524347653e+01 1.2174631756798750e+01 6.3939975554948552e+00 
95 1 2 1.0280000000000273e+00 1.0557695917355021e+02 1.0000000000000000e+00 1.4036163708921807e+01 1.2218171897392310e+01 6.0260382507851773e+00 
115 1 2 1.0279999999999665e+00 1.3020262763357312e+01 1.0000000000000000e+00 1.3930809334199465e+01 1.2281298966959936e+01 6.6515386771325078e+00 
102 1 2 1.0280000000000058e+00 -5.3730164163504128e+01 1.0000000000000000e+00 1.4299807688073310e+01 1.1778503360714833e+01 5.6791502967832423e+00 
99 1 2 1.0279999999999800e+00 9.4587217688457216e+01 1.0000000000000000e+00 1.4330542074859549e+01 1.0402925406848619e+01 7.2852607769317341e+00 
51 1 2 1.0279999999999829e+00 -5.6583410909383943e+01 1.0000000000000000e+00 1.4508626603981551e+01 1.0575742483030949e+01 6.9389148703250365e+00 
19 1 2 1.0279999999999956e+00 -1.3467495857712868e+02 1.0000000000000000e+00 1.4452985718715349e+01 1.0475317034679247e+01 6.3488658039057269e+00 
146 1 2 1.0280000000000575e+00 2.2505316374082645e+02 1.0000000000000000e+00 1.3683812485275233e+01 1.2327640290943373e+01 6.2120161043513420e+00 
153 1 2 1.0279999999999883e+00 -1.4180231675424812e+02 1.0000000000000000e+00 1.4063271981505244e+01 1.0112994223432242e+01 7.6252374227047843e+00 
30 1 2 1.0280000000000205e+00 -6.5172368104816428e+01 1.0000000000000000e+00 1.3570016334549194e+01 1.2191797883511738e+01 5.8659161605872177e+00 
117 1 2 1.0280000000000067e+00 -5.2604109203859466e+01 1.0000000000000000e+00 1.3391686232206018e+01 1.0636509208963343e+01 5.5069106864430957e+00 
83 1 2 1.0280000000001295e+00 1.0282263030061537e+02 1.0000000000000000e+00 1.4332542657221550e+01 1.0245864710367472e+01 6.7851338390072531e+00 
128 1 2 1.0280000000001326e+00 9.1509344210289825e+01 1.0000000000000000e+00 1.4209703409501898e+01 1.0093968088603729e+01 6.9095755056585793e+00 

Velocities

9 1.8180283660614993e-13 2.4134766910499074e-12 -2.7286085134103139e-12
141 -2.1562989653118640e-13 2.2906529943936067e-12 -3.3070438573247681e-12
58 -1.6983262099071090e-13 2.2211286827093058e-12 -3.3111577917975439e-12
41 1.0996372230886024e-13 2.3976382562976625e-12 -3.0091346421988213e-12
27 5.6109988541522431e-14 2.1556730746906559e-12 -3.1173473720412561e-12
176 -3.5729201780681612e-14 2.4234139276730882e-12 -3.7081375093996800e-12
47 1.1768019787942660e-13 2.0914173082976265e-12 -3.1901956345103001e-12
104 -5.8580738317212996e-13 2.1493075137915771e-12 -3.7517825005816613e-12
82 -2.2234915269233032e-14 2.5833947505234105e-12 -3.3083738683331321e-12
11 -2.1932287511122773e-13 2.2982142546225084e-12 -3.7029425625158435e-12
54 -1.7055995822153544e-13 2.2881629065165800e-12 -3.4687333441476796e-12
133 -3.5279758838663366e-13 2.2032933035375387e-12 -3.7408172711757985e-12
162 2.8667800877973546e-14 2.8195299791032397e-12 -3.2532189956014723e-12
105 -7.6211628753622153e-13 2.1985463931702876e-12 -3.8590970940440693e-12
60 -5.2540841050760009e-14 2.0855473721607731e-12 -3.4151058891611976e-12
6 2.2745559197482469e-14 2.4241922520486195e-12 -3.3699007312670015e-12
32 1.0088260582155217e-13 2.1870857525922068e-12 -3.3441510383255281e-12
5 1.1505700429261845e-13 2.5806398598718688e-12 -3.3225999017833436e-12
17 2.2534119051155934e-13 2.7348122624739194e-12 -3.2601617412146649e-12
71 3.4294186367606107e-13 1.9810352190206965e-12 -3.2838258531571862e-12
53 -1.2228940663326062e-13 2.4575876018755659e-12 -3.5232375221544704e-12
131 1.4528992867619273e-13 2.3287039085238173e-12 -3.4286499518424373e-12
12 -2.6072119852066463e-14 2.3757126243353148e-12 -3.5781664471035498e-12
37 1.7747380991490749e-13 2.4301046679365426e-12 -3.5791875148138463e-12
177 -2.6590066241311538e-13 1.8491200955078444e-12 -2.7236870180317832e-12
31 6.7068395971856610e-13 2.6743540904995319e-12 -3.8460423165909915e-12
136 1.1855771914186872e-12 3.5680574056576651e-12 -3.9497618075824954e-12
172 -1.1623164124497244e-13 1.3258206069814196e-12 -2.7472854120308423e-12
107 -5.9526109333969293e-13 3.9823095719963674e-12 -3.4156341661060786e-12
145 -2.7078379169140459e-13 2.5478041236901273e-12 -3.4901518700285301e-12
50 3.9114924537650902e-14 1.4721273234666373e-12 -3.0185578998486227e-12
59 -8.7843959587058139e-14 2.8952496625756471e-12 -3.0961725470706453e-12
150 -2.9735528090236938e-13 2.5288456239646114e-12 -3.4858391847017933e-12
171 1.2901337047296047e-12 2.6022431739214290e-12 -1.6303093312636694e-12
64 7.7309623894396486e-12 8.8777772962054178e-12 -7.8195739275895929e-12
13 1.9736864633908846e-12 7.7716741715660794e-13 -3.2535793417336965e-12
16 2.0223590193676453e-12 4.4342669718232029e-12 -2.1878517600883109e-12
132 -1.5277713156248159e-12 4.4339984812466117e-12 -3.3565279456342454e-12
35 1.0740548188409446e-12 -2.1816123041045584e-12 -2.5645281142428412e-12
138 1.1709946971058093e-12 2.5998380984867621e-13 -8.1016304407406516e-13
118 -4.3284218279849286e-12 -1.8985042789157996e-12 -1.6251902048264996e-13
42 5.8528646316909230e-12 -1.8870045916877086e-12 2.4604428867264260e-13
76 3.9675374731535661e-12 -4.5920685246321928e-12 4.5345175893228652e-13