LAMMPS data file via write_data, version 30 Jul 2016, timestep = 50000000

180 atoms
2 atom types

0.0000000000000000e+00 2.0000000000000000e+01 xlo xhi
0.0000000000000000e+00 2.0000000000000000e+01 ylo yhi
0.0000000000000000e+00 2.0000000000000000e+01 zlo zhi

Masses

1 3.896
2 4.31

Atoms # meso-molecular

116 1 2 1.0279944028206056e+00 -9.8419707710129715e+03 1.0000000000000000e+00 2.0257112237910441e-01 1.0583857507446588e-01 2.6243736567746194e+00 
65 1 2 1.0280021156492947e+00 -9.4810100973296685e+03 1.0000000000000000e+00 1.0508590613611961e+00 3.3289188709368656e-01 1.9067690632741183e+00 
83 1 2 1.0280017603048641e+00 -8.4308906635814456e+03 1.0000000000000000e+00 1.5221091794121313e+00 1.9749038895347733e-02 1.9604194925897398e+00 
52 1 2 1.0280021640670705e+00 -9.0638176699864580e+03 1.0000000000000000e+00 1.2663779803788098e+00 2.6682587435079841e-01 1.9824599569535803e+00 
46 1 2 1.0279944028003647e+00 -9.8648156727154419e+03 1.0000000000000000e+00 2.0259437618826234e-01 1.0592754718221546e-01 2.6242911874275694e+00 
19 1 2 1.0279944028345216e+00 -1.0982233273576179e+04 1.0000000000000000e+00 2.0255190867578574e-01 1.0576568634032156e-01 2.6244409971172491e+00 
72 1 2 1.0279996563550577e+00 -1.0410541787502298e+04 1.0000000000000000e+00 9.9147883506635182e-01 1.8131183379590905e+01 2.3680419360953815e+00 
18 1 2 1.0279996567367058e+00 -9.2477637320544272e+03 1.0000000000000000e+00 9.9141076381578908e-01 1.8131200109882702e+01 2.3680737014819169e+00 
12 1 2 1.0279996567366969e+00 -8.9015552283628749e+03 1.0000000000000000e+00 9.9141076375965143e-01 1.8131200109896458e+01 2.3680737015079942e+00 
17 1 2 1.0279996567366956e+00 -8.0685446814109582e+03 1.0000000000000000e+00 9.9141076370263126e-01 1.8131200109910559e+01 2.3680737015352333e+00 
11 1 2 1.0279996567367771e+00 -8.2992534093805007e+03 1.0000000000000000e+00 9.9141076363109859e-01 1.8131200109928265e+01 2.3680737015678339e+00 
165 1 2 1.0280019447079314e+00 -1.1211807709690222e+04 1.0000000000000000e+00 1.1642657095351048e+00 1.9985797477419421e+01 1.5757805201174904e+00 
81 1 2 1.0279896720999919e+00 -8.6618729362761678e+03 1.0000000000000000e+00 3.6333892544081206e+00 1.7616705697268554e+01 2.0029753590232167e+00 
54 1 2 1.0279960287938645e+00 -9.9904322749848816e+03 1.0000000000000000e+00 3.7880124575042124e+00 1.7309380767843916e+01 2.1438945825512135e+00 
100 1 2 1.0279960287946859e+00 -8.9726260206235656e+03 1.0000000000000000e+00 3.7880124777796849e+00 1.7309380681449092e+01 2.1438945501470070e+00 
179 1 2 1.0279960217935658e+00 -1.3050096800484738e+04 1.0000000000000000e+00 3.7878404959208698e+00 1.7310111365106280e+01 2.1441665095423708e+00 
43 1 2 1.0279907127184327e+00 -8.6876074264212893e+03 1.0000000000000000e+00 4.3697928841459097e+00 1.0365386862629146e+01 5.5081749628999015e+00 
80 1 2 1.0279907127184327e+00 -1.0577504989146593e+04 1.0000000000000000e+00 4.3697928841458893e+00 1.0365386862629169e+01 5.5081749628999539e+00 
73 1 2 1.0279907127184325e+00 -1.0027451281654587e+04 1.0000000000000000e+00 4.3697928841459071e+00 1.0365386862629158e+01 5.5081749628999361e+00 
114 1 2 1.0279907127184333e+00 -9.5280084839524461e+03 1.0000000000000000e+00 4.3697928841459008e+00 1.0365386862629180e+01 5.5081749628999548e+00 
79 1 2 1.0279907127184325e+00 -9.2305352374933827e+03 1.0000000000000000e+00 4.3697928841458999e+00 1.0365386862629162e+01 5.5081749628999459e+00 
103 1 2 1.0279907127184325e+00 -9.2914114646036414e+03 1.0000000000000000e+00 4.3697928841458857e+00 1.0365386862629148e+01 5.5081749628999246e+00 
74 1 2 1.0279907127184325e+00 -9.6899784827040530e+03 1.0000000000000000e+00 4.3697928841459017e+00 1.0365386862629153e+01 5.5081749628999290e+00 
31 1 2 1.0280004920662560e+00 -1.2087584611317105e+04 1.0000000000000000e+00 3.8596157301420417e+00 1.3218677146662642e+01 4.1657434874667132e+00 
154 1 2 1.0280004920662549e+00 -1.0846892144574791e+04 1.0000000000000000e+00 3.8596157300269396e+00 1.3218677146732647e+01 4.1657434861217535e+00 
178 1 2 1.0280004920662549e+00 -1.0007542300842673e+04 1.0000000000000000e+00 3.8596157300273788e+00 1.3218677146732379e+01 4.1657434861270373e+00 
105 1 2 1.0280004920662555e+00 -9.1747914692446520e+03 1.0000000000000000e+00 3.8596157300269494e+00 1.3218677146732649e+01 4.1657434861217792e+00 
111 1 2 1.0280004920662553e+00 -9.1728055834499646e+03 1.0000000000000000e+00 3.8596157300276492e+00 1.3218677146732238e+01 4.1657434861284628e+00 
49 1 2 1.0279971235657770e+00 -1.0891511031665019e+04 1.0000000000000000e+00 5.4593682977308298e+00 1.5819509822225076e+01 5.6968896214579221e+00 
106 1 2 1.0279971235657794e+00 -9.5922860880102235e+03 1.0000000000000000e+00 5.4593682977297631e+00 1.5819509822222390e+01 5.6968896214578013e+00 
158 1 2 1.0279971235657772e+00 -1.1466440387484727e+04 1.0000000000000000e+00 5.4593682977304061e+00 1.5819509822223413e+01 5.6968896214577676e+00 
61 1 2 1.0279984617698115e+00 -1.0730181525152511e+04 1.0000000000000000e+00 4.1172129311223715e+00 1.4451584987729811e+01 3.8866042949297630e+00 
110 1 2 1.0279984616515738e+00 -1.0124373480987364e+04 1.0000000000000000e+00 4.1172036816076334e+00 1.4451556687326255e+01 3.8865934234157251e+00 
170 1 2 1.0279984617289162e+00 -1.0615006080748437e+04 1.0000000000000000e+00 4.1172097337566989e+00 1.4451575199594668e+01 3.8866005342233580e+00 
23 1 2 1.0279971235657748e+00 -8.6903812645836206e+03 1.0000000000000000e+00 5.4593682977293936e+00 1.5819509822222681e+01 5.6968896214580038e+00 
28 1 2 1.0279971235657788e+00 -7.8017800807876865e+03 1.0000000000000000e+00 5.4593682977288696e+00 1.5819509822223598e+01 5.6968896214583413e+00 
24 1 2 1.0279971236008369e+00 -9.0098128129963152e+03 1.0000000000000000e+00 5.4593604008690457e+00 1.5819505989635125e+01 5.6968917254661626e+00 
151 1 2 1.0280044468897607e+00 -8.7420121229160159e+03 1.0000000000000000e+00 5.0422093669760812e+00 1.7260368607554753e+01 3.6386808700247251e+00 
142 1 2 1.0280039751772443e+00 -1.0939238788861945e+04 1.0000000000000000e+00 5.0977843097248741e+00 1.7235079276610211e+01 3.6800846261025062e+00 
45 1 2 1.0280039078185677e+00 -7.9121135532265162e+03 1.0000000000000000e+00 5.1055538255400528e+00 1.7231203330407716e+01 3.6858523533341940e+00 
78 1 2 1.0280035573189379e+00 -1.1253967903347644e+04 1.0000000000000000e+00 5.1466241426819153e+00 1.7208921816068237e+01 3.7143129739292422e+00 
104 1 2 1.0280021347573660e+00 -9.4316284611219307e+03 1.0000000000000000e+00 5.3049295737611928e+00 1.7038226376477638e+01 3.7100118140528169e+00 
115 1 2 1.0280380302307404e+00 -9.4309019442738336e+03 1.0000000000000000e+00 4.2860263318360650e+00 1.5559024023843486e+01 1.3301882542947389e+01 
152 1 2 1.0280380302307255e+00 -1.3157351514874132e+04 1.0000000000000000e+00 4.2860263891747099e+00 1.5559023994514055e+01 1.3301882508997766e+01 
146 1 2 1.0280380302307395e+00 -7.2911218685768044e+03 1.0000000000000000e+00 4.2860263402242715e+00 1.5559024020169732e+01 1.3301882538505575e+01 
42 1 2 1.0280380302307197e+00 -1.3100927074742665e+04 1.0000000000000000e+00 4.2860264082676958e+00 1.5559023982532244e+01 1.3301882495808567e+01 
166 1 2 1.0280380302307637e+00 -9.7849245587865989e+03 1.0000000000000000e+00 4.2860262498140402e+00 1.5559024068331208e+01 1.3301882593665955e+01 
159 1 2 1.0280380302307217e+00 -1.3222482672385215e+04 1.0000000000000000e+00 4.2860264047926622e+00 1.5559023985119518e+01 1.3301882498554869e+01 
109 1 2 1.0280380302307619e+00 -1.0851901298987925e+04 1.0000000000000000e+00 4.2860262500878177e+00 1.5559024068219381e+01 1.3301882593527807e+01 
26 1 2 1.0280380302307437e+00 -9.1790370363977217e+03 1.0000000000000000e+00 4.6738579343754081e+00 1.3458005195423521e+01 1.5772017876004698e+01 
16 1 2 1.0280380302307419e+00 -8.9973452543046333e+03 1.0000000000000000e+00 4.6738579363388197e+00 1.3458005197155314e+01 1.5772017877169473e+01 
90 1 2 1.0280380302307606e+00 -1.1106521768902387e+04 1.0000000000000000e+00 4.6738579430893594e+00 1.3458005185879697e+01 1.5772017866518498e+01 
150 1 2 1.0280380302307404e+00 -7.8816950745113336e+03 1.0000000000000000e+00 4.6738579347306572e+00 1.3458005196528985e+01 1.5772017876889267e+01 
51 1 2 1.0280380302307417e+00 -8.7863976702020118e+03 1.0000000000000000e+00 4.6738579340991908e+00 1.3458005196562910e+01 1.5772017877017236e+01 
62 1 2 1.0280380302307381e+00 -8.9167708642568796e+03 1.0000000000000000e+00 4.6738579354258434e+00 1.3458005196551037e+01 1.5772017876798918e+01 
47 1 2 1.0280380302307304e+00 -9.1660698644095064e+03 1.0000000000000000e+00 4.6738579362690569e+00 1.3458005198540553e+01 1.5772017878358914e+01 
50 1 2 1.0280060460465081e+00 -7.7077176246610807e+03 1.0000000000000000e+00 3.6904450870801178e+00 1.7491486276112344e+01 1.9939981406295523e+01 
8 1 2 1.0280060460465075e+00 -9.8214542382694235e+03 1.0000000000000000e+00 3.6904450870802030e+00 1.7491486276112273e+01 1.9939981406295498e+01 
133 1 2 1.0280060460465092e+00 -1.0269153093492463e+04 1.0000000000000000e+00 3.6904450870801280e+00 1.7491486276112234e+01 1.9939981406295530e+01 
168 1 2 1.0280060460465072e+00 -1.1700268400937013e+04 1.0000000000000000e+00 3.6904450870803327e+00 1.7491486276112273e+01 1.9939981406295459e+01 
14 1 2 1.0280060460465088e+00 -8.0641556347032119e+03 1.0000000000000000e+00 3.6904450870802541e+00 1.7491486276112418e+01 1.9939981406295480e+01 
44 1 2 1.0280060460465077e+00 -8.9067736424096420e+03 1.0000000000000000e+00 3.6904450870803815e+00 1.7491486276112372e+01 1.9939981406295441e+01 
118 1 2 1.0279982192459514e+00 -6.5733671769915918e+03 1.0000000000000000e+00 1.0694295533079979e+01 1.6754647851218925e+00 2.9349707491021562e+00 
1 1 2 1.0279982191881092e+00 -1.0664086962733460e+04 1.0000000000000000e+00 1.0694341197821652e+01 1.6754460077326210e+00 2.9349955798901153e+00 
163 1 2 1.0279982191881154e+00 -1.3077497763146584e+04 1.0000000000000000e+00 1.0694341235090421e+01 1.6754460033552394e+00 2.9349956002558084e+00 
108 1 2 1.0279982191904458e+00 -9.8316857294220063e+03 1.0000000000000000e+00 1.0694341736830312e+01 1.6754463339109564e+00 2.9349958779051648e+00 
124 1 2 1.0279982192459483e+00 -7.0923308560121832e+03 1.0000000000000000e+00 1.0694295533080783e+01 1.6754647851223954e+00 2.9349707491025878e+00 
138 1 2 1.0279982191881012e+00 -1.0599827505004616e+04 1.0000000000000000e+00 1.0694341219443865e+01 1.6754460051809388e+00 2.9349955917055190e+00 
86 1 2 1.0280016818016249e+00 -1.1283944798468812e+04 1.0000000000000000e+00 9.4309302302746367e+00 1.9445739975614409e+00 4.7410199601870158e+00 
156 1 2 1.0280016910420771e+00 -7.8273376575808270e+03 1.0000000000000000e+00 9.4307839500607091e+00 1.9514527770925496e+00 4.7478637864040234e+00 
56 1 2 1.0280017116240887e+00 -8.9638474295455544e+03 1.0000000000000000e+00 9.4300133223191036e+00 1.9667448876649589e+00 4.7588778830370542e+00 
122 1 2 1.0280012793079787e+00 -1.3329675948773522e+04 1.0000000000000000e+00 9.5232357662971658e+00 1.9692787733893709e+00 5.3274945740011805e+00 
25 1 2 1.0279981708046659e+00 -1.1260508423561936e+04 1.0000000000000000e+00 1.0477652245152216e+01 2.7129781268824154e+00 5.4858289583983266e+00 
169 1 2 1.0279981708055341e+00 -1.0815035892754384e+04 1.0000000000000000e+00 1.0477651839688956e+01 2.7129783865025714e+00 5.4858288198166525e+00 
125 1 2 1.0279981708228472e+00 -1.1273741540155956e+04 1.0000000000000000e+00 1.0477643990129220e+01 2.7129834120071070e+00 5.4858261330135782e+00 
3 1 2 1.0279969594366658e+00 -7.3565539422374313e+03 1.0000000000000000e+00 7.3781335781485033e+00 2.9862069203515258e+00 8.4081271639944131e+00 
20 1 2 1.0279969594366658e+00 -1.1846940994047112e+04 1.0000000000000000e+00 7.3781335781484874e+00 2.9862069203514063e+00 8.4081271639944681e+00 
9 1 2 1.0279969594366658e+00 -1.2778409552724121e+04 1.0000000000000000e+00 7.3781335781483719e+00 2.9862069203508925e+00 8.4081271639944930e+00 
132 1 2 1.0279969594366658e+00 -1.0396000606682648e+04 1.0000000000000000e+00 7.3781335781483621e+00 2.9862069203513859e+00 8.4081271639939654e+00 
13 1 2 1.0279969594366656e+00 -1.1270112884289940e+04 1.0000000000000000e+00 7.3781335781484207e+00 2.9862069203511106e+00 8.4081271639945019e+00 
6 1 2 1.0279969594366658e+00 -1.0347899960349187e+04 1.0000000000000000e+00 7.3781335781485167e+00 2.9862069203516062e+00 8.4081271639943918e+00 
98 1 2 1.0279969594366658e+00 -1.4237506179650616e+04 1.0000000000000000e+00 7.3781335781484207e+00 2.9862069203512922e+00 8.4081271639943047e+00 
27 1 2 1.0280002944087430e+00 -8.7638177529376189e+03 1.0000000000000000e+00 1.0442963611742577e+01 2.2450782341869204e+00 7.6878631573322256e+00 
130 1 2 1.0280002936902011e+00 -1.2845255167109479e+04 1.0000000000000000e+00 1.0443006953291539e+01 2.2451270198459832e+00 7.6878421840050502e+00 
4 1 2 1.0280002936901986e+00 -1.4603620175637507e+04 1.0000000000000000e+00 1.0443006953285868e+01 2.2451270198396172e+00 7.6878421840078008e+00 
177 1 2 1.0280002936911430e+00 -1.0647703184805614e+04 1.0000000000000000e+00 1.0443006897335925e+01 2.2451269571871588e+00 7.6878422110798734e+00 
82 1 2 1.0280002943419111e+00 -9.7995843569041881e+03 1.0000000000000000e+00 1.0442967591860734e+01 2.2450828141879335e+00 7.6878612299313760e+00 
143 1 2 1.0280002936902015e+00 -1.1015710800268638e+04 1.0000000000000000e+00 1.0443006953288531e+01 2.2451270198426458e+00 7.6878421840064979e+00 
68 1 2 1.0279985564134755e+00 -9.1105279894343967e+03 1.0000000000000000e+00 1.3080386635482968e+01 4.2499135325985238e+00 7.9067513405344538e+00 
32 1 2 1.0279985564134884e+00 -9.3985067085659903e+03 1.0000000000000000e+00 1.3080386635360325e+01 4.2499135324771364e+00 7.9067513406310068e+00 
58 1 2 1.0279985564134795e+00 -8.8933379128893885e+03 1.0000000000000000e+00 1.3080386635483116e+01 4.2499135325987432e+00 7.9067513405344316e+00 
22 1 2 1.0279985564134464e+00 -9.9309105031561921e+03 1.0000000000000000e+00 1.3080386635180210e+01 4.2499135322997832e+00 7.9067513407731917e+00 
135 1 2 1.0280005915203210e+00 -9.3665372523702790e+03 1.0000000000000000e+00 1.2293155998744782e+01 9.2328108748977140e+00 1.3576589874868684e+01 
99 1 2 1.0280005915211916e+00 -8.5806122627558780e+03 1.0000000000000000e+00 1.2293156131944782e+01 9.2328108486275191e+00 1.3576589763755612e+01 
112 1 2 1.0280005914966317e+00 -1.1617571156245402e+04 1.0000000000000000e+00 1.2293160496233039e+01 9.2328122706574671e+00 1.3576588922125122e+01 
91 1 2 1.0280005916854900e+00 -1.2295801313391501e+04 1.0000000000000000e+00 1.2293163120314182e+01 9.2328043383561837e+00 1.3576577639574991e+01 
113 1 2 1.0280005917109496e+00 -9.9517437060323045e+03 1.0000000000000000e+00 1.2293159540478559e+01 9.2328029419715296e+00 1.3576578048021108e+01 
129 1 2 1.0280005916847421e+00 -9.7107655805686118e+03 1.0000000000000000e+00 1.2293158454666514e+01 9.2328039829728024e+00 1.3576579968133512e+01 
93 1 2 1.0280005917110462e+00 -7.8409628855259989e+03 1.0000000000000000e+00 1.2293159334261851e+01 9.2328029208204097e+00 1.3576578144260925e+01 
40 1 2 1.0280049690024244e+00 -1.0794896509908547e+04 1.0000000000000000e+00 9.4512936342076070e+00 1.8704903142524074e+01 3.4154701502012736e+00 
37 1 2 1.0280049689968569e+00 -8.9710183000436300e+03 1.0000000000000000e+00 9.4512931874954127e+00 1.8704903303527693e+01 3.4154701843095285e+00 
38 1 2 1.0280049689968709e+00 -1.0424652598345616e+04 1.0000000000000000e+00 9.4512931891501122e+00 1.8704903302912140e+01 3.4154701839295933e+00 
161 1 2 1.0280049689969468e+00 -8.3273704186600189e+03 1.0000000000000000e+00 9.4512931956391739e+00 1.8704903300556833e+01 3.4154701832156329e+00 
126 1 2 1.0280049689967701e+00 -1.1380812620513761e+04 1.0000000000000000e+00 9.4512931808806879e+00 1.8704903305931662e+01 3.4154701850801281e+00 
160 1 2 1.0280049689951487e+00 -8.2445851562163280e+03 1.0000000000000000e+00 9.4512930525336465e+00 1.8704903352150200e+01 3.4154701943449211e+00 
2 1 2 1.0280049689968587e+00 -9.8067998622954601e+03 1.0000000000000000e+00 9.4512931883460585e+00 1.8704903303211367e+01 3.4154701841170665e+00 
172 1 2 1.0279979940609232e+00 -1.2262557767159886e+04 1.0000000000000000e+00 9.0210667118400636e+00 1.9344286307380493e+01 7.8684869509101265e+00 
89 1 2 1.0279979940609216e+00 -9.3330229204765401e+03 1.0000000000000000e+00 9.0210667118400654e+00 1.9344286307380468e+01 7.8684869509101318e+00 
173 1 2 1.0279979940609225e+00 -9.8691782679683783e+03 1.0000000000000000e+00 9.0210667118400689e+00 1.9344286307380482e+01 7.8684869509101194e+00 
147 1 2 1.0279979940609221e+00 -8.3734478508772536e+03 1.0000000000000000e+00 9.0210667118400529e+00 1.9344286307380486e+01 7.8684869509101469e+00 
39 1 2 1.0279979940609225e+00 -7.2780077959207474e+03 1.0000000000000000e+00 9.0210667118400600e+00 1.9344286307380489e+01 7.8684869509101407e+00 
134 1 2 1.0279979940609221e+00 -1.2502138404509393e+04 1.0000000000000000e+00 9.0210667118400458e+00 1.9344286307380489e+01 7.8684869509101230e+00 
174 1 2 1.0279979940609216e+00 -8.0423762248486191e+03 1.0000000000000000e+00 9.0210667118400725e+00 1.9344286307380465e+01 7.8684869509101327e+00 
145 1 2 1.0280005916445769e+00 -1.0172771685427129e+04 1.0000000000000000e+00 1.1147599846342924e+01 1.1603125441032335e+01 1.1642796419728342e+01 
137 1 2 1.0280005916445774e+00 -8.4098286729413376e+03 1.0000000000000000e+00 1.1147599846404852e+01 1.1603125441034724e+01 1.1642796419694601e+01 
85 1 2 1.0280005916445762e+00 -1.1070076580612795e+04 1.0000000000000000e+00 1.1147599846348799e+01 1.1603125441034290e+01 1.1642796419727244e+01 
55 1 2 1.0280005916445791e+00 -1.0106008122144935e+04 1.0000000000000000e+00 1.1147599846395417e+01 1.1603125440985684e+01 1.1642796419640122e+01 
144 1 2 1.0280005916445787e+00 -9.9186777362052908e+03 1.0000000000000000e+00 1.1147599846359137e+01 1.1603125441016093e+01 1.1642796419698881e+01 
92 1 2 1.0280005916445785e+00 -1.2094490696881650e+04 1.0000000000000000e+00 1.1147599846495773e+01 1.1603125441037406e+01 1.1642796419644057e+01 
57 1 2 1.0280005916445769e+00 -9.0620890803953407e+03 1.0000000000000000e+00 1.1147599845918810e+01 1.1603125440960797e+01 1.1642796419891903e+01 
131 1 2 1.0279832407220375e+00 -1.0687300225548637e+04 1.0000000000000000e+00 6.7607361244579085e+00 1.8509076073237349e+01 1.9907330038021541e+01 
121 1 2 1.0279832407313574e+00 -1.0472457705020914e+04 1.0000000000000000e+00 6.7607359042035435e+00 1.8509076553648324e+01 1.9907325029201726e+01 
75 1 2 1.0279832407221763e+00 -9.2949497796141150e+03 1.0000000000000000e+00 6.7607361073742780e+00 1.8509076123685229e+01 1.9907330008337965e+01 
76 1 2 1.0279832407220562e+00 -1.0134896303522026e+04 1.0000000000000000e+00 6.7607361217951656e+00 1.8509076081138009e+01 1.9907330034418187e+01 
162 1 2 1.0279832407313572e+00 -9.5397398986040516e+03 1.0000000000000000e+00 6.7607359042033073e+00 1.8509076553648590e+01 1.9907325029189234e+01 
157 1 2 1.0279832407313572e+00 -1.1658164484165196e+04 1.0000000000000000e+00 6.7607359042037327e+00 1.8509076553648057e+01 1.9907325029209780e+01 
34 1 2 1.0279832407284752e+00 -9.6021430726766957e+03 1.0000000000000000e+00 6.7607360071393430e+00 1.8509076296457526e+01 1.9907326478849797e+01 
127 1 2 1.0279888543951881e+00 -9.8602028031948466e+03 1.0000000000000000e+00 1.7514733864653067e+01 1.0932058968387983e+00 2.9701691872855416e+00 
128 1 2 1.0279888543950546e+00 -1.2309041079668792e+04 1.0000000000000000e+00 1.7514733970914548e+01 1.0932059779239500e+00 2.9701692124218697e+00 
123 1 2 1.0279888543950626e+00 -9.4153924803406408e+03 1.0000000000000000e+00 1.7514733962871563e+01 1.0932059717077636e+00 2.9701692104824384e+00 
140 1 2 1.0279888543903881e+00 -1.2384557085634622e+04 1.0000000000000000e+00 1.7514737835315831e+01 1.0932089747325779e+00 2.9701701490138190e+00 
95 1 2 1.0279888543898399e+00 -9.3286461970554337e+03 1.0000000000000000e+00 1.7514738270528085e+01 1.0932093049672982e+00 2.9701702510989163e+00 
96 1 2 1.0280121828899256e+00 -8.9224381594930983e+03 1.0000000000000000e+00 1.7306405821773073e+01 5.3879453190781945e-01 4.4940499745072451e+00 
53 1 2 1.0280121828899249e+00 -9.9601826133388640e+03 1.0000000000000000e+00 1.7306405821784438e+01 5.3879453191374727e-01 4.4940499745177735e+00 
60 1 2 1.0280121828899258e+00 -1.0098218216733130e+04 1.0000000000000000e+00 1.7306405821773435e+01 5.3879453190791071e-01 4.4940499745074449e+00 
64 1 2 1.0280121828899245e+00 -8.4335956967217971e+03 1.0000000000000000e+00 1.7306405821783660e+01 5.3879453191336046e-01 4.4940499745170843e+00 
67 1 2 1.0279754546884965e+00 -1.2379327457860605e+04 1.0000000000000000e+00 1.7241008016694973e+01 1.4324235770330576e+00 6.6475274680194127e+00 
59 1 2 1.0279754546885720e+00 -9.1314847467723484e+03 1.0000000000000000e+00 1.7241008016612703e+01 1.4324235774190315e+00 6.6475274697239337e+00 
5 1 2 1.0279754546885196e+00 -1.1609751277175057e+04 1.0000000000000000e+00 1.7241008016695726e+01 1.4324235770289049e+00 6.6475274680005194e+00 
69 1 2 1.0280192389605174e+00 -1.0836539469180090e+04 1.0000000000000000e+00 1.6267555340439685e+01 1.2309028130761783e+00 7.3979699628647433e+00 
33 1 2 1.0280192389647547e+00 -9.8400215604566074e+03 1.0000000000000000e+00 1.6267555224885147e+01 1.2309031314093231e+00 7.3979699068000730e+00 
41 1 2 1.0280192389647551e+00 -1.2244257483700136e+04 1.0000000000000000e+00 1.6267555224860228e+01 1.2309031320945898e+00 7.3979699069080720e+00 
63 1 2 1.0280192296658208e+00 -7.6130600846228881e+03 1.0000000000000000e+00 1.6267764469098758e+01 1.2301624694457969e+00 7.3980385623398792e+00 
155 1 2 1.0280192389596634e+00 -7.5505550913645584e+03 1.0000000000000000e+00 1.6267555362986894e+01 1.2309027503613110e+00 7.3979699736872400e+00 
180 1 2 1.0280020423916800e+00 -9.7260682292488000e+03 1.0000000000000000e+00 1.4058157874297304e+01 3.6157400411037508e+00 8.6914825152099198e+00 
139 1 2 1.0280020423937490e+00 -8.8202478757936969e+03 1.0000000000000000e+00 1.4058158712148055e+01 3.6157406518140269e+00 8.6914824875948273e+00 
97 1 2 1.0280020418555122e+00 -1.2699468036691303e+04 1.0000000000000000e+00 1.4057941075881690e+01 3.6155824488436235e+00 8.6914899393037235e+00 
175 1 2 1.0280004934583833e+00 -1.0541310390616047e+04 1.0000000000000000e+00 1.4361753536421791e+01 4.1713184179268872e+00 8.2262481150510531e+00 
176 1 2 1.0280004943277508e+00 -1.3077859179293757e+04 1.0000000000000000e+00 1.4361810620810827e+01 4.1711503629541484e+00 8.2263153967300600e+00 
94 1 2 1.0280045779021438e+00 -1.2280779837602455e+04 1.0000000000000000e+00 1.5820846377733265e+01 5.1786532645741490e+00 1.1991934491176252e+01 
88 1 2 1.0280045779015146e+00 -1.0103285876459282e+04 1.0000000000000000e+00 1.5820844035418416e+01 5.1786583496243512e+00 1.1991933891079723e+01 
87 1 2 1.0280045779015166e+00 -8.8919769257892658e+03 1.0000000000000000e+00 1.5820844035400315e+01 5.1786583496619567e+00 1.1991933891073815e+01 
77 1 2 1.0280045755399392e+00 -1.2957298181916136e+04 1.0000000000000000e+00 1.5830445474269263e+01 5.1717696664801842e+00 1.2003996544132287e+01 
36 1 2 1.0279954248444609e+00 -1.1231698186499907e+04 1.0000000000000000e+00 1.6642509658413100e+01 5.5233074653070151e+00 1.1533515618156173e+01 
66 1 2 1.0279954222255634e+00 -9.3945334488495537e+03 1.0000000000000000e+00 1.6653817434894023e+01 5.5080171035961172e+00 1.1542287121747693e+01 
35 1 2 1.0279954222826497e+00 -1.1306301475047461e+04 1.0000000000000000e+00 1.6653996132039669e+01 5.5077896737374701e+00 1.1542453369306756e+01 
48 1 2 1.0279954223492225e+00 -8.1461323137628497e+03 1.0000000000000000e+00 1.6654192471304835e+01 5.5075440010656669e+00 1.1542639713026844e+01 
21 1 2 1.0279999983290069e+00 -9.3549327582488422e+03 1.0000000000000000e+00 1.3903930401316549e+01 1.3852713273337642e+01 5.9975328805044175e+00 
107 1 2 1.0279999983289958e+00 -9.3957427101348640e+03 1.0000000000000000e+00 1.3903930318619985e+01 1.3852713290177022e+01 5.9975329450806525e+00 
117 1 2 1.0279999983292269e+00 -8.6687288335863614e+03 1.0000000000000000e+00 1.3903935491188991e+01 1.3852712230940242e+01 5.9975289088991373e+00 
10 1 2 1.0279999983289931e+00 -1.2124757202741677e+04 1.0000000000000000e+00 1.3903930325865405e+01 1.3852713288426298e+01 5.9975329395581491e+00 
136 1 2 1.0279999983289816e+00 -9.0096577223736949e+03 1.0000000000000000e+00 1.3903930432151254e+01 1.3852713267352216e+01 5.9975328562818175e+00 
153 1 2 1.0279999983277237e+00 -1.3081253530494230e+04 1.0000000000000000e+00 1.3903901224545978e+01 1.3852718889639482e+01 5.9975558257264181e+00 
167 1 2 1.0279999959743127e+00 -1.1711195125061757e+04 1.0000000000000000e+00 1.5235394084883144e+01 1.4651146035116836e+01 8.3816518574232859e+00 
101 1 2 1.0279999959207617e+00 -9.0126209388956213e+03 1.0000000000000000e+00 1.5231813314126555e+01 1.4645322496298117e+01 8.3810448860548785e+00 
29 1 2 1.0279999959077013e+00 -8.7090540035141676e+03 1.0000000000000000e+00 1.5230934304004723e+01 1.4643892674383503e+01 8.3808886017549256e+00 
30 1 2 1.0279999959105173e+00 -9.0709784148392264e+03 1.0000000000000000e+00 1.5231124734988761e+01 1.4644202446913992e+01 8.3809227034991132e+00 
15 1 2 1.0280000002417233e+00 -9.4820614951961343e+03 1.0000000000000000e+00 1.4819902839753945e+01 1.3595859347522763e+01 7.4499296690721648e+00 
7 1 2 1.0280000066962838e+00 -8.4009101432232874e+03 1.0000000000000000e+00 1.5694249701865905e+01 1.5378822517843739e+01 7.1152476634614645e+00 
120 1 2 1.0280000066006265e+00 -8.2332585291075538e+03 1.0000000000000000e+00 1.5709001855495220e+01 1.5390542526329458e+01 7.1656721367173430e+00 
119 1 2 1.0280000065991588e+00 -7.7142183202445131e+03 1.0000000000000000e+00 1.5709169520372859e+01 1.5390670405814701e+01 7.1662731654815861e+00 
84 1 2 1.0280000065960371e+00 -8.3565569130406602e+03 1.0000000000000000e+00 1.5709525006364599e+01 1.5390939782393971e+01 7.1675467703185669e+00 
141 1 2 1.0280000413895565e+00 -1.0632243701951071e+04 1.0000000000000000e+00 1.9316994783558613e+01 1.9032598275775694e+01 8.9959583592842147e+00 
149 1 2 1.0280000413895520e+00 -9.5998083031759670e+03 1.0000000000000000e+00 1.9316994786455641e+01 1.9032598276223482e+01 8.9959583584069129e+00 
148 1 2 1.0280000413895485e+00 -9.1988686118111327e+03 1.0000000000000000e+00 1.9316994788444340e+01 1.9032598276530834e+01 8.9959583578047067e+00 
171 1 2 1.0280000415152859e+00 -1.0536562667065513e+04 1.0000000000000000e+00 1.9311734640786597e+01 1.9031348175766759e+01 8.9979482081450666e+00 
71 1 2 1.0279999603483980e+00 -9.2687006998916531e+03 1.0000000000000000e+00 1.9458525552914839e+01 1.9653564528799581e+01 9.7698318019428143e+00 
70 1 2 1.0279999603484280e+00 -7.6147182338473740e+03 1.0000000000000000e+00 1.9458547643748318e+01 1.9653571496994232e+01 9.7698220703982148e+00 
102 1 2 1.0279999603484160e+00 -8.7419712341022878e+03 1.0000000000000000e+00 1.9458515545841838e+01 1.9653561629578473e+01 9.7698360024787121e+00 
164 1 2 1.0279999603093102e+00 -1.1876725721865574e+04 1.0000000000000000e+00 1.9454518289791039e+01 1.9650936522476652e+01 9.7726509730251578e+00 

Velocities

116 2.0833361212241017e-01 -1.2804440024743163e-01 -2.8966175226963681e-01
65 2.0107554343661871e-01 -1.2136147815803346e-01 -2.8755814863161244e-01
83 2.0620808395809334e-01 -1.2503401834229874e-01 -2.8812005249240125e-01
52 2.0390574606078585e-01 -1.2188051708173663e-01 -2.8735098315117902e-01
46 2.0833217667600906e-01 -1.2804736626585703e-01 -2.8965790977073513e-01
19 2.0833479624489454e-01 -1.2804197177464868e-01 -2.8966489270306583e-01
72 2.0533090375902946e-01 -1.2448734991633847e-01 -2.9200139657295837e-01
18 2.0533095725905409e-01 -1.2448777920194576e-01 -2.9200131594935363e-01
12 2.0533095725876530e-01 -1.2448777920362723e-01 -2.9200131594906104e-01
17 2.0533095725907011e-01 -1.2448777920295101e-01 -2.9200131594917628e-01
11 2.0533095725936429e-01 -1.2448777920247696e-01 -2.9200131594924095e-01
165 2.0273290838257582e-01 -1.2498851904898067e-01 -2.9197289228241174e-01
81 2.0389597467240192e-01 -1.5535401606155730e-01 -3.0565481030882041e-01
54 2.0199091354423404e-01 -1.5201871145954113e-01 -3.0343647576929073e-01
100 2.0199091327477625e-01 -1.5201871184492596e-01 -3.0343647514368333e-01
179 2.0199320785823180e-01 -1.5201546291800752e-01 -3.0344178976793157e-01
43 1.8118016806859777e-01 -1.5796719443904442e-01 -2.9236348889626107e-01
80 1.8118016806859752e-01 -1.5796719443904045e-01 -2.9236348889626096e-01
73 1.8118016806859730e-01 -1.5796719443904086e-01 -2.9236348889626085e-01
114 1.8118016806860113e-01 -1.5796719443905705e-01 -2.9236348889625291e-01
79 1.8118016806859777e-01 -1.5796719443904458e-01 -2.9236348889625990e-01
103 1.8118016806859646e-01 -1.5796719443903870e-01 -2.9236348889626229e-01
74 1.8118016806859685e-01 -1.5796719443904106e-01 -2.9236348889626146e-01
31 1.9617355338927320e-01 -1.5866431332685707e-01 -2.9955195217717695e-01
154 1.9617355338937578e-01 -1.5866431332831252e-01 -2.9955195217566194e-01
178 1.9617355338939171e-01 -1.5866431332828085e-01 -2.9955195217566588e-01
105 1.9617355338940892e-01 -1.5866431332825157e-01 -2.9955195217565456e-01
111 1.9617355338938980e-01 -1.5866431332828251e-01 -2.9955195217566644e-01
49 1.9990357634965317e-01 -1.5954027603632293e-01 -3.0533007619253588e-01
106 1.9990357634978817e-01 -1.5954027603635504e-01 -3.0533007619218838e-01
158 1.9990357634979938e-01 -1.5954027603636234e-01 -3.0533007619216190e-01
61 1.9798313184105931e-01 -1.5910118005856044e-01 -3.0085954351456246e-01
110 1.9798307639460319e-01 -1.5910117845366412e-01 -3.0085954641041623e-01
170 1.9798311266566590e-01 -1.5910117950422076e-01 -3.0085954451445490e-01
23 1.9990357634969613e-01 -1.5954027603632945e-01 -3.0533007619241515e-01
28 1.9990357634974215e-01 -1.5954027603634552e-01 -3.0533007619231267e-01
24 1.9990360875595206e-01 -1.5954026616805478e-01 -3.0533006980043648e-01
151 2.0051347287462051e-01 -1.5709654745407575e-01 -3.0605047501976790e-01
142 2.0055991062440115e-01 -1.5741540738970519e-01 -3.0587259977474873e-01
45 2.0056294822898621e-01 -1.5745934030422465e-01 -3.0584794428702977e-01
78 2.0056393394935204e-01 -1.5768409629312480e-01 -3.0572418339146890e-01
104 2.0022221014961486e-01 -1.5832097530261158e-01 -3.0529332798984643e-01