LAMMPS data file via write_data, version 30 Jul 2016, timestep = 50400000

180 atoms
2 atom types

0.0000000000000000e+00 2.0000000000000000e+01 xlo xhi
0.0000000000000000e+00 2.0000000000000000e+01 ylo yhi
0.0000000000000000e+00 2.0000000000000000e+01 zlo zhi

Masses

1 3.896
2 4.31

Atoms # meso-molecular

32 1 2 1.0280000001975467e+00 -9.3985060152089463e+03 1.0000000000000000e+00 6.4416150878114020e-01 2.7635394894530187e+00 1.6265610806652234e+01 
68 1 2 1.0280000001975442e+00 -9.1105272960773564e+03 1.0000000000000000e+00 6.4416150889097901e-01 2.7635394895985339e+00 1.6265610806545286e+01 
58 1 2 1.0280000001975467e+00 -8.8933372195323445e+03 1.0000000000000000e+00 6.4416150889111623e-01 2.7635394895987653e+00 1.6265610806545187e+01 
22 1 2 1.0280000001975427e+00 -9.9309098097991446e+03 1.0000000000000000e+00 6.4416150861941934e-01 2.7635394892403014e+00 1.6265610806810304e+01 
176 1 2 1.0280000002254845e+00 -1.3077858223877889e+04 1.0000000000000000e+00 1.8852437947107017e+00 2.7964528163926943e+00 1.6641648365614643e+01 
175 1 2 1.0280000002253318e+00 -1.0541309435615391e+04 1.0000000000000000e+00 1.8851966496629817e+00 2.7965723055736693e+00 1.6641567407008928e+01 
139 1 2 1.0279999995842135e+00 -8.8202465826202460e+03 1.0000000000000000e+00 1.5595902517099456e+00 2.2474613870141917e+00 1.7163601155403455e+01 
180 1 2 1.0279999995842697e+00 -9.7260669360764368e+03 1.0000000000000000e+00 1.5595894072657543e+00 2.2474606543857134e+00 1.7163601122751761e+01 
97 1 2 1.0279999995847371e+00 -1.2699466743806823e+04 1.0000000000000000e+00 1.5593709551489265e+00 2.2472715148960765e+00 1.7163592860262071e+01 
67 1 2 1.0279954625402332e+00 -1.2379321478293232e+04 1.0000000000000000e+00 6.1641520156821468e+00 9.7204468095153512e-02 1.6995321399050951e+01 
59 1 2 1.0279954625402214e+00 -9.1314787672049752e+03 1.0000000000000000e+00 6.1641520156855840e+00 9.7204468125372631e-02 1.6995321399062011e+01 
5 1 2 1.0279954625402310e+00 -1.1609745297607684e+04 1.0000000000000000e+00 6.1641520156821068e+00 9.7204468094839985e-02 1.6995321399050813e+01 
69 1 2 1.0280036529004470e+00 -1.0836538249032868e+04 1.0000000000000000e+00 5.5361001301955710e+00 3.0358271054825475e-01 1.7978081332927662e+01 
33 1 2 1.0280036528943142e+00 -9.8400203403031719e+03 1.0000000000000000e+00 5.5360992206820319e+00 3.0358680746468586e-01 1.7978079828987635e+01 
41 1 2 1.0280036528943521e+00 -1.2244256263546657e+04 1.0000000000000000e+00 5.5360992224403454e+00 3.0358681667512888e-01 1.7978079828004724e+01 
155 1 2 1.0280036529016414e+00 -7.5505538712204170e+03 1.0000000000000000e+00 5.5361003057597253e+00 3.0358190303029503e-01 1.7978081627016486e+01 
63 1 2 1.0280036624382600e+00 -7.6130588840419578e+03 1.0000000000000000e+00 5.5373025522892156e+00 2.9388737051066216e-01 1.7980881303736027e+01 
87 1 2 1.0280005672207599e+00 -8.8919769234591131e+03 1.0000000000000000e+00 6.5376342385336619e+00 3.6755052728393549e+00 1.9722461368083689e+01 
94 1 2 1.0280005672215085e+00 -1.2280779835271909e+04 1.0000000000000000e+00 6.5376367937660982e+00 3.6754997174505721e+00 1.9722462028178452e+01 
88 1 2 1.0280005672207611e+00 -1.0103285874129129e+04 1.0000000000000000e+00 6.5376342385535491e+00 3.6755052727982251e+00 1.9722461368090372e+01 
77 1 2 1.0280005665063263e+00 -1.2957298179736845e+04 1.0000000000000000e+00 6.5481611285998254e+00 3.6679836373783328e+00 1.9735683887919699e+01 
21 1 2 1.0280000077087368e+00 -9.3549318405120466e+03 1.0000000000000000e+00 3.4345308832023140e+00 1.0642597537610154e+01 1.3972938840102698e+01 
107 1 2 1.0280000077086708e+00 -9.3957417923980684e+03 1.0000000000000000e+00 3.4345307874285753e+00 1.0642597561853451e+01 1.3972938924272901e+01 
117 1 2 1.0280000077116638e+00 -8.6687279158469682e+03 1.0000000000000000e+00 3.4345367780157221e+00 1.0642596038333714e+01 1.3972933663180308e+01 
10 1 2 1.0280000077086853e+00 -1.2124756285004874e+04 1.0000000000000000e+00 3.4345307958214599e+00 1.0642597559399523e+01 1.3972938917064369e+01 
136 1 2 1.0280000077087463e+00 -9.0096568046368848e+03 1.0000000000000000e+00 3.4345309189108941e+00 1.0642597528921907e+01 1.3972938808542079e+01 
153 1 2 1.0280000076919296e+00 -1.3081252612772500e+04 1.0000000000000000e+00 3.4344970952595641e+00 1.0642605701702646e+01 1.3972968734921217e+01 
7 1 2 1.0279999630956946e+00 -8.4009034064680309e+03 1.0000000000000000e+00 5.3457021574502797e+00 1.2016597072300224e+01 1.4927007946591811e+01 
120 1 2 1.0279999635454073e+00 -8.2332508322251815e+03 1.0000000000000000e+00 5.3688595440118609e+00 1.2019555602675775e+01 1.4971363941704803e+01 
119 1 2 1.0279999635533481e+00 -7.7142106115681090e+03 1.0000000000000000e+00 5.3691426885868729e+00 1.2019586438516013e+01 1.4971928382267787e+01 
84 1 2 1.0279999635692689e+00 -8.3565491795159214e+03 1.0000000000000000e+00 5.3697445400686519e+00 1.2019649893557856e+01 1.4973127198790563e+01 
15 1 2 1.0280000045827500e+00 -9.4820595918294093e+03 1.0000000000000000e+00 4.4629494378885086e+00 1.0411704796193234e+01 1.5590911113307492e+01 
29 1 2 1.0280000412625931e+00 -8.7090541121587576e+03 1.0000000000000000e+00 4.8348503105527003e+00 1.1367869960193421e+01 1.6300373664836858e+01 
30 1 2 1.0280000412632015e+00 -9.0709785246736028e+03 1.0000000000000000e+00 4.8349765829107874e+00 1.1368065874980328e+01 1.6300382345524600e+01 
101 1 2 1.0280000412656620e+00 -9.0126210530381686e+03 1.0000000000000000e+00 4.8354330544542137e+00 1.1368774031733077e+01 1.6300413254570831e+01 
167 1 2 1.0280000412772603e+00 -1.1711195261532885e+04 1.0000000000000000e+00 4.8378051889690505e+00 1.1372452430943270e+01 1.6300561993715853e+01 
141 1 2 1.0279808424432464e+00 -1.0632236859346274e+04 1.0000000000000000e+00 6.0279836153622339e+00 1.5681009435576916e+01 1.6663780261738417e+01 
149 1 2 1.0279808424434027e+00 -9.5998014605699664e+03 1.0000000000000000e+00 6.0279837008631452e+00 1.5681009442291233e+01 1.6663780261015333e+01 
171 1 2 1.0279810426512161e+00 -1.0536557928333063e+04 1.0000000000000000e+00 5.9510422909880614e+00 1.5684750951926842e+01 1.6666563335765499e+01 
148 1 2 1.0279808424435717e+00 -9.1988617692043281e+03 1.0000000000000000e+00 6.0279837595566343e+00 1.5681009446917415e+01 1.6663780260510002e+01 
71 1 2 1.0280191690767029e+00 -9.2686972935009380e+03 1.0000000000000000e+00 6.0136130715389458e+00 1.6143104196730679e+01 1.7553679629588235e+01 
70 1 2 1.0280191689541807e+00 -7.6147148283865617e+03 1.0000000000000000e+00 6.0135243601472430e+00 1.6143065886976835e+01 1.7553699084634943e+01 
102 1 2 1.0280191691307954e+00 -8.7419678272883775e+03 1.0000000000000000e+00 6.0136531179615300e+00 1.6143120581747990e+01 1.7553671302940714e+01 
164 1 2 1.0280191610493783e+00 -1.1876722169123008e+04 1.0000000000000000e+00 6.0301019542917480e+00 1.6154652342118723e+01 1.7547256924967684e+01 
170 1 2 1.0279993473657667e+00 -1.0615005975944567e+04 1.0000000000000000e+00 1.1987562193479766e+01 8.0963105954580925e+00 1.1850622095056902e+01 
110 1 2 1.0279993473903177e+00 -1.0124373376187248e+04 1.0000000000000000e+00 1.1987554925895369e+01 8.0962915647792535e+00 1.1850614101515506e+01 
61 1 2 1.0279993473527989e+00 -1.0730181420346546e+04 1.0000000000000000e+00 1.1987566033294174e+01 8.0963206577323454e+00 1.1850626322497300e+01 
111 1 2 1.0280001591563461e+00 -9.1728053116766805e+03 1.0000000000000000e+00 1.1694577883831908e+01 6.8732149480537208e+00 1.2187261561259669e+01 
31 1 2 1.0280001591563468e+00 -1.2087584339543821e+04 1.0000000000000000e+00 1.1694577883926980e+01 6.8732149480157245e+00 1.2187261562483572e+01 
154 1 2 1.0280001591563459e+00 -1.0846891872801507e+04 1.0000000000000000e+00 1.1694577883831304e+01 6.8732149480539633e+00 1.2187261561253500e+01 
178 1 2 1.0280001591563470e+00 -1.0007542029069389e+04 1.0000000000000000e+00 1.1694577883831709e+01 6.8732149480538078e+00 1.2187261561258360e+01 
105 1 2 1.0280001591563472e+00 -9.1747911974713679e+03 1.0000000000000000e+00 1.1694577883831371e+01 6.8732149480539428e+00 1.2187261561253502e+01 
114 1 2 1.0279986161872676e+00 -9.5280083144572545e+03 1.0000000000000000e+00 1.1745362835805825e+01 4.0720340794316980e+00 1.3721392791458278e+01 
103 1 2 1.0279986161872678e+00 -9.2914112951084498e+03 1.0000000000000000e+00 1.1745362835805814e+01 4.0720340794316821e+00 1.3721392791458246e+01 
79 1 2 1.0279986161872676e+00 -9.2305350679981912e+03 1.0000000000000000e+00 1.1745362835805818e+01 4.0720340794316909e+00 1.3721392791458266e+01 
74 1 2 1.0279986161872678e+00 -9.6899783132088614e+03 1.0000000000000000e+00 1.1745362835805823e+01 4.0720340794316723e+00 1.3721392791458230e+01 
73 1 2 1.0279986161872676e+00 -1.0027451112159395e+04 1.0000000000000000e+00 1.1745362835805837e+01 4.0720340794316856e+00 1.3721392791458255e+01 
80 1 2 1.0279986161872676e+00 -1.0577504819651402e+04 1.0000000000000000e+00 1.1745362835805814e+01 4.0720340794316865e+00 1.3721392791458257e+01 
43 1 2 1.0279986161872681e+00 -8.6876072569260978e+03 1.0000000000000000e+00 1.1745362835805832e+01 4.0720340794316652e+00 1.3721392791458213e+01 
48 1 2 1.0279994335775577e+00 -8.1461323137235831e+03 1.0000000000000000e+00 7.3709607569065136e+00 4.0048038235410406e+00 1.9273419829047697e+01 
35 1 2 1.0279994335713840e+00 -1.1306301475074846e+04 1.0000000000000000e+00 7.3707904091948047e+00 4.0050161527119554e+00 1.9273258540101665e+01 
66 1 2 1.0279994335661942e+00 -9.3945334488765056e+03 1.0000000000000000e+00 7.3706354004642387e+00 4.0052127284588286e+00 1.9273114650656034e+01 
36 1 2 1.0279994340047507e+00 -1.1231698186233800e+04 1.0000000000000000e+00 7.3608631860594365e+00 4.0185367658030478e+00 1.9265545787893867e+01 
44 1 2 1.0280001056453794e+00 -8.9067735285282179e+03 1.0000000000000000e+00 1.1794670876631503e+01 1.1434848659709745e+01 7.8785174265718192e+00 
14 1 2 1.0280001056453842e+00 -8.0641555208207710e+03 1.0000000000000000e+00 1.1794670876631240e+01 1.1434848659709804e+01 7.8785174265719071e+00 
168 1 2 1.0280001056453791e+00 -1.1700268287055589e+04 1.0000000000000000e+00 1.1794670876631443e+01 1.1434848659709631e+01 7.8785174265718423e+00 
133 1 2 1.0280001056453794e+00 -1.0269152979611039e+04 1.0000000000000000e+00 1.1794670876631152e+01 1.1434848659709475e+01 7.8785174265719338e+00 
8 1 2 1.0280001056453778e+00 -9.8214541243879994e+03 1.0000000000000000e+00 1.1794670876631193e+01 1.1434848659709568e+01 7.8785174265719089e+00 
50 1 2 1.0280001056453756e+00 -7.7077175107786397e+03 1.0000000000000000e+00 1.1794670876631059e+01 1.1434848659709651e+01 7.8785174265719276e+00 
81 1 2 1.0279992553457813e+00 -8.6618692779815538e+03 1.0000000000000000e+00 1.1691330255907626e+01 1.1551705653049311e+01 9.9110376814190069e+00 
100 1 2 1.0280001736488780e+00 -8.9726238661433399e+03 1.0000000000000000e+00 1.1729530871176467e+01 1.1357080549115720e+01 1.0098859403068072e+01 
54 1 2 1.0280001736485087e+00 -9.9904301205043830e+03 1.0000000000000000e+00 1.1729530879535071e+01 1.1357080648059664e+01 1.0098859406002900e+01 
179 1 2 1.0280001706360851e+00 -1.3050094643869126e+04 1.0000000000000000e+00 1.1729601306749039e+01 1.1357916101407376e+01 1.0098882011979255e+01 
151 1 2 1.0280003127403710e+00 -8.7420119328238125e+03 1.0000000000000000e+00 1.2957241821128479e+01 1.1146344907555831e+01 1.1420177808591832e+01 
142 1 2 1.0280001013788516e+00 -1.0939238607390069e+04 1.0000000000000000e+00 1.3015238473699501e+01 1.1096240833204375e+01 1.1469494651349342e+01 
45 1 2 1.0280000728682059e+00 -7.9121133718951014e+03 1.0000000000000000e+00 1.3023081926392502e+01 1.1089051248721798e+01 1.1476388308263139e+01 
78 1 2 1.0279999336790342e+00 -1.1253967719123120e+04 1.0000000000000000e+00 1.3063594204259324e+01 1.1050225057466912e+01 1.1510456385987428e+01 
104 1 2 1.0279995581020329e+00 -9.4316282398407075e+03 1.0000000000000000e+00 1.3202096568132426e+01 1.0834675867676607e+01 1.1523853700745999e+01 
165 1 2 1.0280001251932884e+00 -1.1211807676888615e+04 1.0000000000000000e+00 9.1671201230460273e+00 1.5195712355658394e+01 1.0067904805503725e+01 
83 1 2 1.0280001028666281e+00 -8.4308905931275767e+03 1.0000000000000000e+00 9.6465160726208552e+00 1.5239243465541408e+01 1.0565767071046141e+01 
52 1 2 1.0280000973495218e+00 -9.0638176895418783e+03 1.0000000000000000e+00 9.3070399728777691e+00 1.5574627687792923e+01 1.0608820951763008e+01 
65 1 2 1.0280000988226961e+00 -9.4810097995142496e+03 1.0000000000000000e+00 9.0063062152762949e+00 1.5644211698104492e+01 1.0523565329957664e+01 
72 1 2 1.0279997614948526e+00 -1.0410540205882595e+04 1.0000000000000000e+00 9.0654276861953278e+00 1.3427544949733720e+01 1.0877505691163201e+01 
11 1 2 1.0279997616050844e+00 -8.2992518280647564e+03 1.0000000000000000e+00 9.0653697071728025e+00 1.3427542905793141e+01 1.0877535803049636e+01 
17 1 2 1.0279997616050884e+00 -8.0685431000942926e+03 1.0000000000000000e+00 9.0653697072335966e+00 1.3427542905795322e+01 1.0877535803018519e+01 
12 1 2 1.0279997616050838e+00 -8.9015536470471307e+03 1.0000000000000000e+00 9.0653697072821640e+00 1.3427542905796994e+01 1.0877535802992893e+01 
18 1 2 1.0279997616050887e+00 -9.2477621507386830e+03 1.0000000000000000e+00 9.0653697073298254e+00 1.3427542905798678e+01 1.0877535802968028e+01 
46 1 2 1.0280000605610635e+00 -9.8648048224296181e+03 1.0000000000000000e+00 8.3181552446589393e+00 1.5278148005587656e+01 1.1229845575043210e+01 
19 1 2 1.0280000605582544e+00 -1.0982222423531244e+04 1.0000000000000000e+00 8.3181350747269640e+00 1.5278063294544323e+01 1.1229913050037716e+01 
116 1 2 1.0280000605595434e+00 -9.8419599208607651e+03 1.0000000000000000e+00 8.3181441952154653e+00 1.5278101442494497e+01 1.1229882720774583e+01 
64 1 2 1.0280024823741705e+00 -8.4335942046508917e+03 1.0000000000000000e+00 6.8267511206066178e+00 1.8866642082182469e+01 1.4995511646811165e+01 
128 1 2 1.0279974456387273e+00 -1.2309033154863693e+04 1.0000000000000000e+00 7.1759117244152275e+00 1.8963587623035380e+01 1.3488197572487477e+01 
127 1 2 1.0279974456387047e+00 -9.8601948783903008e+03 1.0000000000000000e+00 7.1759117224904889e+00 1.8963587622215140e+01 1.3488197571989174e+01 
95 1 2 1.0279974456386971e+00 -9.3286382722283943e+03 1.0000000000000000e+00 7.1759118019364152e+00 1.8963587658028722e+01 1.3488197592678278e+01 
140 1 2 1.0279974456386940e+00 -1.2384549160809824e+04 1.0000000000000000e+00 7.1759117940382771e+00 1.8963587654742227e+01 1.3488197590638869e+01 
123 1 2 1.0279974456387382e+00 -9.4153845555355929e+03 1.0000000000000000e+00 7.1759117242699650e+00 1.8963587622970298e+01 1.3488197572449716e+01 
60 1 2 1.0280024823741474e+00 -1.0098216724662225e+04 1.0000000000000000e+00 6.8267511205529523e+00 1.8866642082139222e+01 1.4995511646784252e+01 
53 1 2 1.0280024823741685e+00 -9.9601811212679586e+03 1.0000000000000000e+00 6.8267511206107550e+00 1.8866642082185464e+01 1.4995511646813119e+01 
96 1 2 1.0280024823741438e+00 -8.9224366674221928e+03 1.0000000000000000e+00 6.8267511205511511e+00 1.8866642082138334e+01 1.4995511646783592e+01 
91 1 2 1.0279941874425780e+00 -1.2295800730878269e+04 1.0000000000000000e+00 1.7279257490187302e+01 7.6827152386423112e+00 1.1577499440773373e+00 
113 1 2 1.0279941874502210e+00 -9.9517431235189706e+03 1.0000000000000000e+00 1.7279254322623380e+01 7.6827136889066390e+00 1.1577505840447988e+00 
93 1 2 1.0279941874502361e+00 -7.8409623030129569e+03 1.0000000000000000e+00 1.7279254132128901e+01 7.6827136682904271e+00 1.1577506742645354e+00 
112 1 2 1.0279941873841898e+00 -1.1617570573733425e+04 1.0000000000000000e+00 1.7279253955972127e+01 7.6827244733935762e+00 1.1577584721019971e+00 
129 1 2 1.0279941874420733e+00 -9.7107649980553833e+03 1.0000000000000000e+00 1.7279253163594642e+01 7.6827149148391243e+00 1.1577520961938599e+00 
99 1 2 1.0279941873915133e+00 -8.5806116802436936e+03 1.0000000000000000e+00 1.7279250056449719e+01 7.6827229087659772e+00 1.1577595044836131e+00 
135 1 2 1.0279941873912335e+00 -9.3665366698580947e+03 1.0000000000000000e+00 1.7279249928005353e+01 7.6827229416864204e+00 1.1577595986705727e+00 
158 1 2 1.0280001214488181e+00 -1.1466440260873895e+04 1.0000000000000000e+00 1.3354068893333240e+01 9.4885464905844241e+00 1.3453274545219429e+01 
23 1 2 1.0280001214488157e+00 -8.6903811379727886e+03 1.0000000000000000e+00 1.3354068893332434e+01 9.4885464905838521e+00 1.3453274545219715e+01 
49 1 2 1.0280001214488201e+00 -1.0891510905054187e+04 1.0000000000000000e+00 1.3354068893333592e+01 9.4885464905858576e+00 1.3453274545219442e+01 
106 1 2 1.0280001214488135e+00 -9.5922859613993915e+03 1.0000000000000000e+00 1.3354068893332760e+01 9.4885464905836017e+00 1.3453274545219555e+01 
24 1 2 1.0280001214530521e+00 -9.0098126863852758e+03 1.0000000000000000e+00 1.3354062619978073e+01 9.4885431192647722e+00 1.3453276822511180e+01 
28 1 2 1.0280001214488144e+00 -7.8017799541761487e+03 1.0000000000000000e+00 1.3354068893332103e+01 9.4885464905846639e+00 1.3453274545219958e+01 
144 1 2 1.0279994162265793e+00 -9.9186771447223546e+03 1.0000000000000000e+00 1.5942491307342383e+01 9.4124148289736400e+00 1.8730379773706385e+01 
92 1 2 1.0279994162265791e+00 -1.2094490105398714e+04 1.0000000000000000e+00 1.5942491307467822e+01 9.4124148289956988e+00 1.8730379773653191e+01 
57 1 2 1.0279994162265838e+00 -9.0620884889124045e+03 1.0000000000000000e+00 1.5942491306935599e+01 9.4124148289177754e+00 1.8730379773890050e+01 
145 1 2 1.0279994162265815e+00 -1.0172771093944193e+04 1.0000000000000000e+00 1.5942491307324934e+01 9.4124148289928069e+00 1.8730379773729542e+01 
137 1 2 1.0279994162265802e+00 -8.4098280814584014e+03 1.0000000000000000e+00 1.5942491307382683e+01 9.4124148289943967e+00 1.8730379773698974e+01 
55 1 2 1.0279994162265771e+00 -1.0106007530661998e+04 1.0000000000000000e+00 1.5942491307380539e+01 9.4124148289374698e+00 1.8730379773659831e+01 
85 1 2 1.0279994162265813e+00 -1.1070075989129858e+04 1.0000000000000000e+00 1.5942491307330156e+01 9.4124148289949634e+00 1.8730379773728195e+01 
146 1 2 1.0279826634251268e+00 -7.2911218510976933e+03 1.0000000000000000e+00 1.5092512085883119e+01 1.2638538529717485e+01 7.5711014159606160e-01 
42 1 2 1.0279826634263136e+00 -1.3100927057264445e+04 1.0000000000000000e+00 1.5092512152470462e+01 1.2638538492809559e+01 7.5711009989455857e-01 
166 1 2 1.0279826634235867e+00 -9.7849245413084154e+03 1.0000000000000000e+00 1.5092511997415553e+01 1.2638538576914396e+01 7.5711019551012293e-01 
159 1 2 1.0279826634262388e+00 -1.3222482654906995e+04 1.0000000000000000e+00 1.5092512149066977e+01 1.2638538495357881e+01 7.5711010256250066e-01 
109 1 2 1.0279826634235905e+00 -1.0851901281509738e+04 1.0000000000000000e+00 1.5092511997683040e+01 1.2638538576805244e+01 7.5711019537429591e-01 
115 1 2 1.0279826634250069e+00 -9.4309019267956319e+03 1.0000000000000000e+00 1.5092512077678775e+01 1.2638538533303983e+01 7.5711014595537862e-01 
152 1 2 1.0279826634259466e+00 -1.3157351497395923e+04 1.0000000000000000e+00 1.5092512133781309e+01 1.2638538504583865e+01 7.5711011274605422e-01 
47 1 2 1.0279774346426980e+00 -9.1660698559014891e+03 1.0000000000000000e+00 1.5535491182242819e+01 1.0608360871420903e+01 3.2779958528718365e+00 
26 1 2 1.0279774346426958e+00 -9.1790370278897044e+03 1.0000000000000000e+00 1.5535491180411618e+01 1.0608360868294849e+01 3.2779958506761222e+00 
16 1 2 1.0279774346426953e+00 -8.9973452457966159e+03 1.0000000000000000e+00 1.5535491182316809e+01 1.0608360870039803e+01 3.2779958517466365e+00 
90 1 2 1.0279774346426989e+00 -1.1106521760394366e+04 1.0000000000000000e+00 1.5535491188940110e+01 1.0608360858854223e+01 3.2779958415744606e+00 
150 1 2 1.0279774346426964e+00 -7.8816950660024304e+03 1.0000000000000000e+00 1.5535491180753176e+01 1.0608360869400823e+01 3.2779958515067782e+00 
51 1 2 1.0279774346426984e+00 -8.7863976616939945e+03 1.0000000000000000e+00 1.5535491180137877e+01 1.0608360869428859e+01 3.2779958516374390e+00 
62 1 2 1.0279774346426969e+00 -8.9167708557488622e+03 1.0000000000000000e+00 1.5535491181429547e+01 1.0608360869428990e+01 3.2779958514106005e+00 
34 1 2 1.0279989840661257e+00 -9.6021428304672754e+03 1.0000000000000000e+00 1.4902527254012909e+01 1.2302909670769353e+01 7.6577930174146909e+00 
157 1 2 1.0279989840648251e+00 -1.1658164241957540e+04 1.0000000000000000e+00 1.4902527159148644e+01 1.2302909788358935e+01 7.6577921439421148e+00 
162 1 2 1.0279989840648256e+00 -9.5397396563963957e+03 1.0000000000000000e+00 1.4902527159147818e+01 1.2302909788358710e+01 7.6577921439297052e+00 
76 1 2 1.0279989840698331e+00 -1.0134896061307931e+04 1.0000000000000000e+00 1.4902527415122995e+01 1.2302909638316683e+01 7.6577951593413900e+00 
75 1 2 1.0279989840698602e+00 -9.2949495374000307e+03 1.0000000000000000e+00 1.4902527406888204e+01 1.2302909663791931e+01 7.6577951435851954e+00 
121 1 2 1.0279989840648256e+00 -1.0472457462813258e+04 1.0000000000000000e+00 1.4902527159148296e+01 1.2302909788358910e+01 7.6577921439371872e+00 
131 1 2 1.0279989840698298e+00 -1.0687299983334542e+04 1.0000000000000000e+00 1.4902527416608981e+01 1.2302909633550904e+01 7.6577951615213964e+00 
40 1 2 1.0279986975059354e+00 -1.0794894860140939e+04 1.0000000000000000e+00 1.6484427573257815e+01 1.5226038735646322e+01 9.9700520360066616e+00 
37 1 2 1.0279986975049620e+00 -8.9710166502760731e+03 1.0000000000000000e+00 1.6484427372642738e+01 1.5226038869304956e+01 9.9700520556107080e+00 
38 1 2 1.0279986975049675e+00 -1.0424650948578059e+04 1.0000000000000000e+00 1.6484427373403324e+01 1.5226038868830488e+01 9.9700520554106404e+00 
161 1 2 1.0279986975049746e+00 -8.3273687688924620e+03 1.0000000000000000e+00 1.6484427376332693e+01 1.5226038866906656e+01 9.9700520550151470e+00 
126 1 2 1.0279986975049535e+00 -1.1380810970746208e+04 1.0000000000000000e+00 1.6484427369654135e+01 1.5226038871262224e+01 9.9700520560353834e+00 
160 1 2 1.0279986975046711e+00 -8.2445835064487892e+03 1.0000000000000000e+00 1.6484427312051039e+01 1.5226038909708349e+01 9.9700520613977730e+00 
2 1 2 1.0279986975049609e+00 -9.8067982125279032e+03 1.0000000000000000e+00 1.6484427373033650e+01 1.5226038869060691e+01 9.9700520555091110e+00 
138 1 2 1.0279997865820074e+00 -1.0599825519136632e+04 1.0000000000000000e+00 1.8284261006524066e+01 1.7829200497073266e+01 1.0637308238393173e+01 
1 1 2 1.0279997865819881e+00 -1.0664084976865453e+04 1.0000000000000000e+00 1.8284260986570487e+01 1.7829200498556073e+01 1.0637308226847587e+01 
163 1 2 1.0279997865819990e+00 -1.3077495777278607e+04 1.0000000000000000e+00 1.8284261020965914e+01 1.7829200496020601e+01 1.0637308246747786e+01 
108 1 2 1.0279997865827890e+00 -9.8316837435559282e+03 1.0000000000000000e+00 1.8284261548718089e+01 1.7829200835027272e+01 1.0637308521563899e+01 
118 1 2 1.0279997865735837e+00 -6.5733651911193456e+03 1.0000000000000000e+00 1.8284221071126684e+01 1.7829216456807977e+01 1.0637284084439804e+01 
124 1 2 1.0279997865735842e+00 -7.0923288701399370e+03 1.0000000000000000e+00 1.8284221071127547e+01 1.7829216456808521e+01 1.0637284084440255e+01 
156 1 2 1.0280002384443274e+00 -7.8273365814569697e+03 1.0000000000000000e+00 1.7280682127942068e+01 1.8305164803313588e+01 1.2497282752466470e+01 
86 1 2 1.0280002429363102e+00 -1.1283943703321425e+04 1.0000000000000000e+00 1.7280011060688448e+01 1.8296928827392914e+01 1.2489553934633754e+01 
56 1 2 1.0280002297544164e+00 -8.9638463905964891e+03 1.0000000000000000e+00 1.7281283604917959e+01 1.8322919587240332e+01 1.2509968177217218e+01 
122 1 2 1.0280000497050585e+00 -1.3329675022284486e+04 1.0000000000000000e+00 1.7435591070992629e+01 1.8414044262403976e+01 1.3085255580795623e+01 
25 1 2 1.0279992812112628e+00 -1.1260507355303906e+04 1.0000000000000000e+00 1.8327170336493722e+01 1.9109528593502475e+01 1.3262789937571357e+01 
169 1 2 1.0279992812112990e+00 -1.0815034824496484e+04 1.0000000000000000e+00 1.8327170012861508e+01 1.9109528791174363e+01 1.3262789810843994e+01 
125 1 2 1.0279992812142531e+00 -1.1273740471900137e+04 1.0000000000000000e+00 1.8327163746998981e+01 1.9109532616627618e+01 1.3262787353833421e+01 
89 1 2 1.0280009449892240e+00 -9.3330228815503087e+03 1.0000000000000000e+00 1.7211151696396961e+01 1.6047496294806624e+01 1.5633896254567686e+01 
172 1 2 1.0280009449892245e+00 -1.2262557728233654e+04 1.0000000000000000e+00 1.7211151696396975e+01 1.6047496294806621e+01 1.5633896254567686e+01 
174 1 2 1.0280009449892242e+00 -8.0423761859251354e+03 1.0000000000000000e+00 1.7211151696396982e+01 1.6047496294806617e+01 1.5633896254567683e+01 
134 1 2 1.0280009449892240e+00 -1.2502138365583161e+04 1.0000000000000000e+00 1.7211151696396925e+01 1.6047496294806638e+01 1.5633896254567667e+01 
39 1 2 1.0280009449892242e+00 -7.2780077569972636e+03 1.0000000000000000e+00 1.7211151696396982e+01 1.6047496294806621e+01 1.5633896254567741e+01 
147 1 2 1.0280009449892240e+00 -8.3734478119510222e+03 1.0000000000000000e+00 1.7211151696396954e+01 1.6047496294806631e+01 1.5633896254567729e+01 
173 1 2 1.0280009449892240e+00 -9.8691782290421470e+03 1.0000000000000000e+00 1.7211151696396964e+01 1.6047496294806621e+01 1.5633896254567693e+01 
9 1 2 1.0279991726602018e+00 -1.2778409481576708e+04 1.0000000000000000e+00 1.5406807000047488e+01 1.9552999255880735e+01 1.6315787124495824e+01 
20 1 2 1.0279991726602022e+00 -1.1846940922899699e+04 1.0000000000000000e+00 1.5406807000047571e+01 1.9552999255881229e+01 1.6315787124495795e+01 
3 1 2 1.0279991726602022e+00 -7.3565538710882292e+03 1.0000000000000000e+00 1.5406807000047577e+01 1.9552999255881350e+01 1.6315787124495756e+01 
13 1 2 1.0279991726602022e+00 -1.1270112813142527e+04 1.0000000000000000e+00 1.5406807000047531e+01 1.9552999255880948e+01 1.6315787124495827e+01 
6 1 2 1.0279991726602022e+00 -1.0347899889201773e+04 1.0000000000000000e+00 1.5406807000047575e+01 1.9552999255881417e+01 1.6315787124495710e+01 
98 1 2 1.0279991726602018e+00 -1.4237506108503203e+04 1.0000000000000000e+00 1.5406807000047511e+01 1.9552999255881122e+01 1.6315787124495671e+01 
132 1 2 1.0279991726602022e+00 -1.0396000535535235e+04 1.0000000000000000e+00 1.5406807000047440e+01 1.9552999255881208e+01 1.6315787124495362e+01 
27 1 2 1.0280001126726459e+00 -8.7638169063408004e+03 1.0000000000000000e+00 1.8471805778181984e+01 1.9028106424907925e+01 1.5426333291385049e+01 
82 1 2 1.0280001126685334e+00 -9.7995835103004501e+03 1.0000000000000000e+00 1.8471808691137351e+01 1.9028110630671936e+01 1.5426330229133214e+01 
143 1 2 1.0280001126283314e+00 -1.1015709953598787e+04 1.0000000000000000e+00 1.8471837670693528e+01 1.9028151210265264e+01 1.5426300129353518e+01 
130 1 2 1.0280001126283340e+00 -1.2845254320439628e+04 1.0000000000000000e+00 1.8471837670695898e+01 1.9028151210268405e+01 1.5426300129351095e+01 
4 1 2 1.0280001126283405e+00 -1.4603619328967656e+04 1.0000000000000000e+00 1.8471837670691674e+01 1.9028151210262489e+01 1.5426300129355450e+01 
177 1 2 1.0280001126284457e+00 -1.0647702338135872e+04 1.0000000000000000e+00 1.8471837629471867e+01 1.9028151152753420e+01 1.5426300172110526e+01 

Velocities

32 1.8564549013804901e-01 -3.2661565609247094e-02 -2.8893067456958882e-01
68 1.8564549013867743e-01 -3.2661565609416840e-02 -2.8893067456918153e-01
58 1.8564549013824444e-01 -3.2661565609297324e-02 -2.8893067456946830e-01
22 1.8564549013899848e-01 -3.2661565609514109e-02 -2.8893067456896887e-01
176 1.8562631888136047e-01 -3.2617893844444829e-02 -2.8887121541986127e-01
175 1.8562632388548297e-01 -3.2617907360421090e-02 -2.8887121776864172e-01
139 1.8561143011613285e-01 -3.2597645727979442e-02 -2.8885921688038985e-01
180 1.8561143014663570e-01 -3.2597645761094002e-02 -2.8885921689357902e-01
97 1.8561143731259661e-01 -3.2597653324376273e-02 -2.8885922172440803e-01
67 2.3334813668037105e-01 -4.1428259990602047e-02 -2.4359566610966102e-01
59 2.3334813667983020e-01 -4.1428259992964053e-02 -2.4359566611027086e-01
5 2.3334813668033430e-01 -4.1428259990586254e-02 -2.4359566610960717e-01
69 2.3482697992062557e-01 -3.6966421073251557e-02 -2.4363254767778236e-01
33 2.3482692223554663e-01 -3.6966138987536028e-02 -2.4363266564726643e-01
41 2.3482692237256569e-01 -3.6966138355614075e-02 -2.4363266574749923e-01
155 2.3482699103041565e-01 -3.6966476671123599e-02 -2.4363252458617143e-01
63 2.3490163580316173e-01 -3.7634758297938935e-02 -2.4341353866595306e-01
87 2.6816538212488167e-01 -3.7597398566258822e-02 -3.0698721793343797e-01
94 2.6816538384398075e-01 -3.7597401779291280e-02 -3.0698721491016850e-01
88 2.6816538212475066e-01 -3.7597398566342505e-02 -3.0698721793333972e-01
77 2.6817544797693832e-01 -3.7605314654317872e-02 -3.0697659888377027e-01
21 2.3066450039349828e-01 -9.5174414786951586e-02 -3.0831869743072177e-01
107 2.3066450045571049e-01 -9.5174414728429788e-02 -3.0831869730763134e-01
117 2.3066449651961871e-01 -9.5174418413625506e-02 -3.0831870505017622e-01
10 2.3066450045033621e-01 -9.5174414733602331e-02 -3.0831869731826150e-01
136 2.3066450036886038e-01 -9.5174414809414062e-02 -3.0831869747813379e-01
153 2.3066452247486280e-01 -9.5174394178194857e-02 -3.0831865378915929e-01
7 2.3270185681097227e-01 -9.7247498393463971e-02 -3.0989174693997762e-01
120 2.3271841132141372e-01 -9.7265522746132246e-02 -3.0992759476236642e-01
119 2.3271863392292880e-01 -9.7265735891452154e-02 -3.0992803771745897e-01
84 2.3271910708436239e-01 -9.7266188903757905e-02 -3.0992897703171474e-01
15 2.3230269455994143e-01 -9.6135211241519816e-02 -3.0867467803881915e-01
29 2.3287905718296581e-01 -9.6744188367854714e-02 -3.0932304078296424e-01
30 2.3287912276388451e-01 -9.6744233428945392e-02 -3.0932312469497286e-01
101 2.3287935964734602e-01 -9.6744396312159947e-02 -3.0932342810063645e-01
167 2.3288058464025649e-01 -9.6745248264303668e-02 -3.0932500652527029e-01
141 1.8115383750856676e-01 -5.8914639232401075e-02 -2.9278618681893670e-01
149 1.8115383314507871e-01 -5.8914639630911918e-02 -2.9278618690543329e-01
171 1.8490755351987770e-01 -5.9229978124153357e-02 -2.9307299358730055e-01
148 1.8115383014990180e-01 -5.8914639907975963e-02 -2.9278618696886544e-01
71 1.8120752215913180e-01 -5.9396860657416686e-02 -2.9248986451740150e-01
70 1.8120271007892880e-01 -5.9398848656692822e-02 -2.9248905398544334e-01