LAMMPS data file via write_data, version 30 Jul 2016, timestep = 50400000

4620 atoms
8 atom types

0.0000000000000000e+00 1.0000000000000000e+02 xlo xhi
0.0000000000000000e+00 4.0000000000000000e+01 ylo yhi
0.0000000000000000e+00 4.0000000000000000e+01 zlo zhi

Masses

1 3.896
2 5.36
3 20.064
4 8.378
5 8.378
6 8.378
7 8.378
8 8.378

Atoms # meso-molecular

2611 2612 2 1.0279999999999587e+00 -1.5383119470849465e+03 1.0000000000000000e+00 3.9234633801895740e+00 1.7578946422419957e+01 2.3654006449263740e+01 
2149 2150 2 1.0279999999999390e+00 -1.5390531050914678e+03 1.0000000000000000e+00 4.4908414878986580e+00 1.8722468878480438e+01 2.3829825747982298e+01 
3076 3077 2 1.0279999999999114e+00 3.2057628938956791e+03 1.0000000000000000e+00 3.0875573523631341e+00 1.7460739816129717e+01 2.5020843670840261e+01 
423 424 2 1.0280000000000389e+00 -1.1941981609217728e+03 1.0000000000000000e+00 4.2986538752522447e+00 1.7152656691849565e+01 2.4769348222951404e+01 
2860 2861 2 1.0279999999998057e+00 -5.8032731368681698e+02 1.0000000000000000e+00 4.3893991725063836e-02 1.8449533691661443e+01 2.5486937298954963e+01 
1690 1691 2 1.0280000000001441e+00 3.2073363073380842e+03 1.0000000000000000e+00 3.3279987180714405e+00 1.8757895892232376e+01 2.5093945943597216e+01 
4581 4582 2 1.0280000000001066e+00 -1.1945772439689295e+03 1.0000000000000000e+00 4.6308894428649339e+00 1.8823031783109339e+01 2.4908474381242097e+01 
4078 4079 2 1.0280000000001288e+00 2.6615360436333513e+03 1.0000000000000000e+00 1.9189619999531116e-02 1.6771793177148137e+01 2.6544355091309431e+01 
843 844 2 1.0279999999999241e+00 2.4469269026974980e+03 1.0000000000000000e+00 1.3147324618430871e+00 1.6544548021103171e+01 2.6177590308039900e+01 
2489 2490 2 1.0280000000001335e+00 -1.1873477619902410e+03 1.0000000000000000e+00 1.7379607091324891e+00 1.7431941990787376e+01 2.7440309420871174e+01 
422 423 2 1.0280000000000413e+00 -1.6796731600354160e+03 1.0000000000000000e+00 2.1712651269218965e+00 1.6695078669663495e+01 2.6507117626406206e+01 
844 845 2 1.0280000000000784e+00 2.6615354639580059e+03 1.0000000000000000e+00 5.6783174446543128e-01 1.9445103345730143e+01 2.6642358454794422e+01 
4077 4078 2 1.0279999999998912e+00 2.4466153075264301e+03 1.0000000000000000e+00 1.5928302653813271e+00 1.9982123824211904e+01 2.6131777643710230e+01 
2027 2028 2 1.0280000000001683e+00 -1.1881593508106230e+03 1.0000000000000000e+00 2.0475142655035441e+00 1.9065717524248630e+01 2.7415430269607437e+01 
4580 4581 2 1.0279999999999947e+00 -1.6796268836630306e+03 1.0000000000000000e+00 2.4896647542981589e+00 1.9883373174471938e+01 2.6528977254881060e+01 
4542 4543 2 1.0279999999999694e+00 -1.3995040228259213e+03 1.0000000000000000e+00 3.3568331334849538e-01 1.2298709642773758e+01 2.9176696973041000e+01 
2103 2104 2 1.0279999999999607e+00 -1.1716641919636174e+02 1.0000000000000000e+00 4.7845649925639266e-01 1.2788123500503172e+01 2.9422565941444610e+01 
2573 2574 2 1.0279999999999869e+00 -1.1861233737735038e+03 1.0000000000000000e+00 2.5770638594432200e+00 1.7547544089026331e+01 2.9027226710841777e+01 
1060 1061 2 1.0279999999998444e+00 -1.1950346210771231e+03 1.0000000000000000e+00 3.2488705157734565e+00 1.6955246907899657e+01 2.8195028003917511e+01 
1228 1229 2 1.0280000000001563e+00 -1.1950148343758083e+03 1.0000000000000000e+00 3.3700401750613951e+00 1.6893236335258123e+01 2.9360164283696029e+01 
3400 3401 2 1.0280000000000673e+00 2.2109889447118894e+03 1.0000000000000000e+00 4.9046559765247801e+00 1.7892405085867910e+01 2.9162125841996165e+01 
2111 2112 2 1.0280000000000777e+00 -1.1872698903856744e+03 1.0000000000000000e+00 2.9287299043498032e+00 1.9456454433948139e+01 2.9353652076168146e+01 
3370 3371 2 1.0279999999999812e+00 -1.1950114187999257e+03 1.0000000000000000e+00 3.3422035511837702e+00 1.9963274494599890e+01 2.8225544263885251e+01 
3568 3569 2 1.0279999999999161e+00 2.2107063979894788e+03 1.0000000000000000e+00 5.0499557143827651e+00 1.8074949446000417e+01 2.8178323102493412e+01 
1090 1091 2 1.0280000000000358e+00 2.2110354839922998e+03 1.0000000000000000e+00 5.0738637750055107e+00 1.9322532909990585e+01 2.9301496671071391e+01 
1258 1259 2 1.0279999999999587e+00 2.2108635115007578e+03 1.0000000000000000e+00 5.1260081880595623e+00 1.9311997177201587e+01 2.8197311560555985e+01 
507 508 2 1.0279999999998122e+00 2.4476203182877925e+03 1.0000000000000000e+00 2.6689337804209239e+00 1.6597654325038054e+01 3.1453307684065457e+01 
2 3 2 1.0280000000003680e+00 -1.6791461847496171e+03 1.0000000000000000e+00 2.9504037193452683e+00 1.6563013901906523e+01 3.1286535074226560e+01 
2908 2909 2 1.0279999999997356e+00 3.2056155957242026e+03 1.0000000000000000e+00 3.1017933523557435e+00 1.7221059054474669e+01 3.2576834768335573e+01 
3 4 2 1.0280000000000233e+00 -1.1913656794055887e+03 1.0000000000000000e+00 4.6748315070605955e+00 1.7134604728968572e+01 3.3167172087226014e+01 
3741 3742 2 1.0279999999999851e+00 2.4471732247584532e+03 1.0000000000000000e+00 1.8748361290595088e+00 1.9395557869168510e+01 3.2311573490338219e+01 
4160 4161 2 1.0279999999998872e+00 -1.6798926454121736e+03 1.0000000000000000e+00 2.1251919977936025e+00 1.9530781171901296e+01 3.2011385851608090e+01 
1522 1523 2 1.0280000000000946e+00 3.2065042620081294e+03 1.0000000000000000e+00 2.9440944263614051e+00 1.8862762300361492e+01 3.2661003134291406e+01 
4161 4162 2 1.0279999999999210e+00 -1.1912891036853453e+03 1.0000000000000000e+00 4.7901637515825977e+00 1.8472394630808978e+01 3.2967333190618966e+01 
1981 1982 2 1.0279999999998382e+00 -1.5387353216595511e+03 1.0000000000000000e+00 4.5418448662769517e+00 1.8584473547952111e+01 3.3981122552266903e+01 
2443 2444 2 1.0279999999999845e+00 -1.5382355597299343e+03 1.0000000000000000e+00 4.1997497535349089e+00 1.7448043960495319e+01 3.4144396812566001e+01 
3538 3539 2 1.0280000000000729e+00 -1.1955821295979440e+03 1.0000000000000000e+00 3.4360077556155617e+00 2.0084945958616000e+01 2.9468026237150440e+01 
55 56 2 1.0279999999999496e+00 -4.2961617472732257e+02 1.0000000000000000e+00 6.5842803144263442e+01 7.9287305777886818e-01 1.2658942108179960e+00 
2196 2197 2 1.0280000000000096e+00 3.9617461905513619e+02 1.0000000000000000e+00 6.4636424018986702e+01 8.0036037459073839e+00 8.8625014033035865e-01 
100 101 2 1.0279999999999816e+00 8.7804895897331198e+02 1.0000000000000000e+00 6.4105335231586054e+01 8.8230110061741929e+00 1.0269133685168741e+00 
13 14 2 1.0279999999999976e+00 -2.4584172844508248e+03 1.0000000000000000e+00 6.5080475495801608e+01 9.4998145168813490e+00 1.5447372786760587e+00 
3292 3293 2 1.0280000000000349e+00 -1.2916414170918915e+03 1.0000000000000000e+00 6.5423934826064283e+01 9.1667651815824378e+00 4.0301350891238187e-02 
2497 2498 2 1.0280000000000165e+00 -2.4225122805187029e+03 1.0000000000000000e+00 6.2975657009507465e+01 1.1789262270789060e+01 1.5505245933192984e+00 
1991 1992 2 1.0279999999999152e+00 -1.8672932699475027e+03 1.0000000000000000e+00 6.5738263147781993e+01 1.1296230526683782e+01 4.2583880492206577e-01 
933 934 2 1.0280000000000067e+00 1.7477881579289010e+03 1.0000000000000000e+00 6.0270083812976836e+01 1.4083222257089016e+01 7.3293243515582507e-01 
56 57 2 1.0279999999999763e+00 3.6436148026251701e+01 1.0000000000000000e+00 6.1508306697356197e+01 1.4088389293060150e+01 7.1544788771866918e-01 
567 568 2 1.0280000000000216e+00 -2.1684786696476649e+03 1.0000000000000000e+00 6.5841834507418881e+01 1.4869841717506253e+01 2.3308339077239376e-01 
4221 4222 2 1.0279999999999889e+00 -1.2556033801044982e+03 1.0000000000000000e+00 6.6070727253978575e+01 1.5017005187269554e+01 1.4693547313022080e+00 
565 566 2 1.0280000000000102e+00 1.9637188053284697e+03 1.0000000000000000e+00 6.6631520521836791e+01 1.5920913251832456e+01 1.9013826893545112e+00 
2948 2949 2 1.0279999999999472e+00 2.7448171742760331e+02 1.0000000000000000e+00 6.1954064316473314e+01 1.7622914291730773e+01 3.8849311224484240e-01 
1317 1318 2 1.0280000000000231e+00 -1.0658608994009699e+03 1.0000000000000000e+00 6.2456888524805763e+01 1.6152437597374714e+01 9.8116266463001450e-02 
1571 1572 2 1.0279999999999931e+00 -3.4743835562423442e+02 1.0000000000000000e+00 6.3561135357969022e+01 1.6403159130150868e+01 9.6783438815075939e-01 
136 137 2 1.0280000000000293e+00 -2.9941833920246972e+03 1.0000000000000000e+00 6.4351144117693863e+01 1.7809664639601333e+01 4.7425079379305546e-01 
2260 2261 2 1.0280000000000113e+00 -4.1871972804081065e+02 1.0000000000000000e+00 6.5436392540589608e+01 1.6736802225658401e+01 1.6698099411345755e+00 
3625 3626 2 1.0280000000000282e+00 -2.2809579939515852e+03 1.0000000000000000e+00 6.1748271421121878e+01 1.9882354015253046e+01 1.3570699215596660e+00 
4294 4295 2 1.0280000000000011e+00 -2.9924071457554528e+03 1.0000000000000000e+00 6.1827497283352081e+01 1.8825876913132845e+01 5.2193837181281211e-01 
3790 3791 2 1.0279999999999894e+00 -6.6487586852877007e+02 1.0000000000000000e+00 6.3551542400109966e+01 1.8328245138404107e+01 1.1406339641969778e+00 
4128 4129 2 1.0280000000000731e+00 -8.7342475303952665e+02 1.0000000000000000e+00 6.4901377903003734e+01 1.9830612962795605e+01 1.0838767316535498e+00 
558 559 2 1.0279999999999063e+00 -1.2481881202379845e+03 1.0000000000000000e+00 6.5917901643098574e+01 1.8920302777586500e+01 1.4412692931652411e+00 
2722 2723 2 1.0280000000000331e+00 -4.0120613382327576e+02 1.0000000000000000e+00 6.6449765731657138e+01 1.9697049324946878e+01 1.2329327585061447e+00 
3890 3891 2 1.0280000000001346e+00 3.3773416817894338e+02 1.0000000000000000e+00 6.5906012884015354e+01 4.9223693536063945e-01 2.5219727785328114e+00 
2911 2912 2 1.0279999999999783e+00 4.6384250739486833e+03 1.0000000000000000e+00 6.0832555338809634e+01 3.8356769660578731e+00 2.9026399242104826e+00 
1989 1990 2 1.0279999999999623e+00 -3.2726080166558904e+03 1.0000000000000000e+00 6.0877709529625136e+01 3.5186925939081908e+00 2.5391503953064283e+00 
2500 2501 2 1.0280000000000826e+00 -2.2154352050302177e+03 1.0000000000000000e+00 6.4889751605843855e+01 3.9199633531462208e+00 2.9540775407732309e+00 
533 534 2 1.0279999999999969e+00 6.3467131797689729e+02 1.0000000000000000e+00 6.5397412060599521e+01 2.5703380836765941e+00 2.7509282332265586e+00 
195 196 2 1.0280000000001071e+00 9.8442535939126651e+02 1.0000000000000000e+00 6.5483485570574629e+01 2.3174652793471977e+00 2.6253469383625796e+00 
3797 3798 2 1.0280000000000060e+00 -1.1668121108000782e+03 1.0000000000000000e+00 6.1689597910304649e+01 4.3655248807537577e+00 2.1348499712076774e+00 
641 642 2 1.0280000000000187e+00 -8.5120322185671864e+02 1.0000000000000000e+00 6.2938191206972874e+01 4.4469155259139228e+00 2.9053051708573547e+00 
642 643 2 1.0279999999999292e+00 -6.0158551304657317e+02 1.0000000000000000e+00 6.3497845593634558e+01 4.0957121690293850e+00 2.4977070580628307e+00 
1998 1999 2 1.0280000000000027e+00 -2.3883550901051567e+03 1.0000000000000000e+00 6.4547720863007157e+01 5.7703516157228618e+00 3.1890883978616333e+00 
2920 2921 2 1.0280000000000429e+00 6.0508861089564552e+03 1.0000000000000000e+00 6.4707199854627262e+01 5.2140407394157968e+00 3.6786562357914634e+00 
1114 1115 2 1.0280000000000336e+00 3.7830280639575512e+03 1.0000000000000000e+00 6.3591989454578410e+01 6.6996617412229247e+00 3.9158065159103264e+00 
1111 1112 2 1.0280000000000222e+00 4.2205787140498660e+03 1.0000000000000000e+00 6.6629485606262890e+01 9.6030035166619410e+00 2.4829824289054456e+00 
512 513 2 1.0280000000000173e+00 4.9086996493391086e+02 1.0000000000000000e+00 5.7094637909536523e+01 1.1529737425510490e+01 3.7507492945264116e+00 
1950 1951 2 1.0279999999999454e+00 -1.0448815860725883e+03 1.0000000000000000e+00 6.3717817794576291e+01 1.1602340034282138e+01 2.0495261296252125e+00 
14 15 2 1.0280000000000717e+00 -2.2216257882523141e+03 1.0000000000000000e+00 6.2953893485976685e+01 1.1466794516624873e+01 3.9688880923313161e+00 
1059 1060 2 1.0280000000000258e+00 3.6310925919930725e+01 1.0000000000000000e+00 5.8062901485654628e+01 1.2430521847038365e+01 3.3528266123418247e+00 
3373 3374 2 1.0280000000000016e+00 1.1187235488796118e+03 1.0000000000000000e+00 5.9665546420534774e+01 1.2078057345220927e+01 3.0245172624257703e+00 
513 514 2 1.0279999999999658e+00 1.2985548213684967e+03 1.0000000000000000e+00 5.9754559293168413e+01 1.2983461763856170e+01 2.2243090817990283e+00 
1865 1866 2 1.0280000000000027e+00 3.4773492025678888e+03 1.0000000000000000e+00 6.0816732006348168e+01 1.3066761406901056e+01 3.0437851600144716e+00 
1572 1573 2 1.0279999999999854e+00 4.1756772472373223e+02 1.0000000000000000e+00 6.2274546554019423e+01 1.2617209676822041e+01 2.9471934868362242e+00 
1068 1069 2 1.0280000000000127e+00 -1.7107387761783771e+03 1.0000000000000000e+00 6.3579781870776671e+01 1.2952461898532041e+01 2.1292775463032876e+00 
1025 1026 2 1.0280000000000125e+00 5.4991332003978332e+03 1.0000000000000000e+00 6.3759200414020455e+01 1.2552236341954719e+01 3.7143740025701231e+00 
1029 1030 2 1.0280000000000500e+00 5.9393981161364281e+03 1.0000000000000000e+00 6.5763677441994162e+01 1.3969233196856459e+01 3.3779715149606382e+00 
188 189 2 1.0280000000000682e+00 3.7548001447148613e+02 1.0000000000000000e+00 6.6664868616177941e+01 1.2191266578682695e+01 2.7185200123433484e+00 
2234 2235 2 1.0280000000000065e+00 -6.8498580746196285e+02 1.0000000000000000e+00 5.7502560576870614e+01 1.5211128444008574e+01 3.8607348801982910e+00 
597 598 2 1.0280000000000691e+00 1.0577797077688768e+02 1.0000000000000000e+00 5.7877949211907747e+01 1.5635643489670120e+01 3.6376082309041160e+00 
3745 3746 2 1.0280000000000116e+00 3.2567141426903218e+03 1.0000000000000000e+00 6.0066160978592613e+01 1.4453259762780005e+01 2.0029079329257087e+00 
944 945 2 1.0280000000000182e+00 2.1138214087854631e+03 1.0000000000000000e+00 6.0740993049533486e+01 1.5221201257163735e+01 3.0621186375798635e+00 
1869 1870 2 1.0279999999999436e+00 2.9861457406391287e+03 1.0000000000000000e+00 6.1910220422300888e+01 1.5174732653146698e+01 2.3321743362018461e+00 
942 943 2 1.0280000000000136e+00 9.4307709249966069e+02 1.0000000000000000e+00 6.2315456352738728e+01 1.5069710244274237e+01 3.1811136737451822e+00 
3376 3377 2 1.0279999999999898e+00 -7.8819832494674711e+02 1.0000000000000000e+00 6.3494237473036129e+01 1.4218407463575650e+01 3.5937239014599816e+00 
894 895 2 1.0280000000000260e+00 -8.6183054299645914e+02 1.0000000000000000e+00 6.4657991877483070e+01 1.5773163395213007e+01 2.2246281395518386e+00 
1410 1411 2 1.0280000000000411e+00 -3.4149299312509429e+03 1.0000000000000000e+00 6.5390664687614674e+01 1.5120336499260446e+01 3.9644731223768788e+00 
895 896 2 1.0279999999999605e+00 1.4337325792909082e+03 1.0000000000000000e+00 5.9891201673518815e+01 1.7098672492138114e+01 3.9514171679770227e+00 
1315 1316 2 1.0280000000000233e+00 -2.2793346236176117e+03 1.0000000000000000e+00 6.0966533026624937e+01 1.7024612356845555e+01 2.9023115024339687e+00 
51 52 2 1.0279999999999700e+00 -4.0015530660340028e+02 1.0000000000000000e+00 6.2632224207240135e+01 1.7421308846514044e+01 3.3198141564834618e+00 
2742 2743 2 1.0279999999999674e+00 2.4186011850838436e+03 1.0000000000000000e+00 6.3640251567546450e+01 1.6682009950621318e+01 2.3643113195352852e+00 
940 941 2 1.0279999999999938e+00 2.5983553776823710e+03 1.0000000000000000e+00 6.5193273403912528e+01 1.7841699929939931e+01 3.4806804160037657e+00 
3794 3795 2 1.0280000000000120e+00 -1.8585737794732881e+03 1.0000000000000000e+00 5.9200529996629861e+01 1.9248756863929213e+01 3.9593255582687412e+00 
1520 1521 2 1.0280000000000598e+00 4.4189147123024768e+03 1.0000000000000000e+00 6.0618753716091874e+01 1.8393576562943995e+01 2.8369662335364763e+00 
3748 3749 2 1.0279999999999523e+00 1.6622049080662605e+03 1.0000000000000000e+00 6.1727623869368514e+01 1.9670199690570151e+01 2.5793085370584881e+00 
4209 4210 2 1.0280000000000162e+00 -4.0050274951968117e+02 1.0000000000000000e+00 6.2718915454251587e+01 1.9272314472782426e+01 3.0463454806491086e+00 
1940 1941 2 1.0279999999999720e+00 6.0958037102519506e+02 1.0000000000000000e+00 6.1260724906778059e+01 1.8041253931044501e+01 3.9960673275678724e+00 
2280 2281 2 1.0279999999999645e+00 2.4266880478329476e+03 1.0000000000000000e+00 6.4222168386941604e+01 1.9366100332764404e+01 3.7738902488265604e+00 
2697 2698 2 1.0280000000000089e+00 -3.7655323521717844e+02 1.0000000000000000e+00 6.5503293708796591e+01 1.9647915019478724e+01 3.2801406509292268e+00 
108 109 2 1.0280000000000644e+00 1.9452204090944210e+03 1.0000000000000000e+00 6.3253723839121051e+01 7.0188117551048226e+00 4.3061320042524924e+00 
602 603 2 1.0280000000001033e+00 6.7992536413188986e+02 1.0000000000000000e+00 6.2924166849158048e+01 9.6648012500428386e+00 4.3907790567785838e+00 
4308 4309 2 1.0280000000000529e+00 -3.5198280696457005e+03 1.0000000000000000e+00 6.2920124529131556e+01 8.2311270409687349e+00 5.2805250262779992e+00 
1536 1537 2 1.0279999999999729e+00 5.7617149430564568e+03 1.0000000000000000e+00 6.3671801113411853e+01 8.0590696939039699e+00 5.5966572794251750e+00 
190 191 2 1.0279999999998899e+00 1.5986556992432429e+03 1.0000000000000000e+00 6.4958923700915349e+01 8.9705526878910167e+00 5.2045395346536329e+00 
1072 1073 2 1.0280000000000613e+00 -1.3088545698289042e+03 1.0000000000000000e+00 6.5269720830936976e+01 9.0413343090833980e+00 4.9828365201241658e+00 
12 13 2 1.0279999999999705e+00 -3.6163773494321953e+02 1.0000000000000000e+00 5.7814097231838659e+01 1.1261646189737073e+01 4.8024056463765739e+00 
1108 1109 2 1.0280000000000014e+00 4.4247653937138875e+03 1.0000000000000000e+00 5.9061156790461332e+01 1.1372921801215787e+01 4.3019162870150200e+00 
1488 1489 2 1.0280000000000107e+00 6.8113535614573630e+02 1.0000000000000000e+00 6.2381288503632291e+01 1.1711011593688360e+01 5.6037975548849044e+00 
645 646 2 1.0280000000000471e+00 -1.1640045870663703e+03 1.0000000000000000e+00 6.2781128853711891e+01 1.0039009150274254e+01 4.3095159141073696e+00 
612 613 2 1.0280000000000600e+00 -8.8227441341574740e+02 1.0000000000000000e+00 6.4864023190180234e+01 1.1740603389677332e+01 5.5259265514046385e+00 
654 655 2 1.0280000000000020e+00 -3.1230029713922077e+03 1.0000000000000000e+00 6.6438286808662255e+01 1.0366436638922611e+01 4.7803722956530059e+00 
66 67 2 1.0279999999998846e+00 -9.8412194649208504e+02 1.0000000000000000e+00 6.6523665962353675e+01 1.0223899350813946e+01 4.4862070460045018e+00 
1397 1398 2 1.0280000000000065e+00 -4.6026350174286872e+03 1.0000000000000000e+00 5.7087426826212187e+01 1.2471436265443634e+01 4.4837942323769644e+00 
140 141 2 1.0280000000000178e+00 -2.9689193134839416e+03 1.0000000000000000e+00 5.8236970069176181e+01 1.3730229700100063e+01 5.2313619704177059e+00 
2496 2497 2 1.0279999999999654e+00 -1.9201711140481157e+03 1.0000000000000000e+00 5.9482713775058706e+01 1.2471530799293349e+01 5.0654480374070516e+00 
1018 1019 2 1.0280000000000269e+00 3.9267679615015786e+03 1.0000000000000000e+00 6.0736720955088863e+01 1.3705742501542167e+01 5.0992807732003529e+00 
18 19 2 1.0280000000000014e+00 -1.3637998086927942e+03 1.0000000000000000e+00 6.0896089926798055e+01 1.2505712231278668e+01 4.9116228443161711e+00 
3337 3338 2 1.0280000000000071e+00 3.9205910478379774e+03 1.0000000000000000e+00 6.5088970121656644e+01 1.2081065972332013e+01 5.4436810636731821e+00 
1064 1065 2 1.0279999999998881e+00 -3.3847215526544517e+02 1.0000000000000000e+00 6.5270475606926979e+01 1.3768091271276253e+01 4.4190402227622334e+00 
932 933 2 1.0279999999999927e+00 2.9651947023585517e+03 1.0000000000000000e+00 5.8194630727696101e+01 1.4211063541234633e+01 5.2318858286282319e+00 
929 930 2 1.0279999999999767e+00 2.2904212541037741e+03 1.0000000000000000e+00 5.9169484251053646e+01 1.5491759245544904e+01 4.4013619717442314e+00 
1406 1407 2 1.0280000000000005e+00 -3.8859086151321171e+03 1.0000000000000000e+00 6.0590106595746960e+01 1.5211064035853399e+01 5.1141627760549104e+00 
17 18 2 1.0280000000000340e+00 -1.0330582946597287e+03 1.0000000000000000e+00 6.3603864715076725e+01 1.4281534016760595e+01 5.3638215411759553e+00 
1407 1408 2 1.0279999999999774e+00 -4.0720660945911945e+03 1.0000000000000000e+00 6.3920340860640501e+01 1.5316574276016549e+01 4.6298813811338047e+00 
4562 4563 2 1.0280000000001006e+00 4.6117732833373771e+02 1.0000000000000000e+00 6.6487449686438737e+01 1.5185768532230377e+01 5.9429823707402978e+00 
638 639 2 1.0280000000000031e+00 -6.2712541026791996e+02 1.0000000000000000e+00 5.6878191403841583e+01 1.6612031647996815e+01 4.8872319621234928e+00 
134 135 2 1.0279999999999978e+00 -3.8809329847284230e+03 1.0000000000000000e+00 5.7351685018327196e+01 1.6877497872289275e+01 5.5403956408471364e+00 
515 516 2 1.0280000000000293e+00 7.5118232080591019e+02 1.0000000000000000e+00 5.8641158123766978e+01 1.7673598873830830e+01 4.7134758063420401e+00 
560 561 2 1.0280000000000193e+00 -1.8615875199594534e+03 1.0000000000000000e+00 5.9018006101629872e+01 1.7974768657852042e+01 5.8268692270231091e+00 
1109 1110 2 1.0280000000000789e+00 4.8035152936724689e+03 1.0000000000000000e+00 6.0070725045089063e+01 1.6422553977107246e+01 5.7076449169801347e+00 
1570 1571 2 1.0279999999999745e+00 -6.9014782811886494e+02 1.0000000000000000e+00 6.2107714056565754e+01 1.6289817933670985e+01 5.7513208560362736e+00 
807 808 2 1.0279999999999070e+00 -5.4411359273947255e+02 1.0000000000000000e+00 6.2296791272708973e+01 1.6671503110549654e+01 5.1377120796725171e+00 
2235 2236 2 1.0280000000000493e+00 -3.7156600361456810e+02 1.0000000000000000e+00 6.3842384202108526e+01 1.7028203462804388e+01 5.7397921171318780e+00 
1454 1455 2 1.0279999999999809e+00 -7.3198302844632826e+02 1.0000000000000000e+00 6.5747284011167395e+01 1.7170181464416700e+01 4.1739985544162090e+00 
158 159 2 1.0279999999999963e+00 -4.4599877848340075e+03 1.0000000000000000e+00 6.6296799915620610e+01 1.6702459250086672e+01 5.3176175686326808e+00 
2914 2915 2 1.0280000000000586e+00 4.9975208913847200e+03 1.0000000000000000e+00 5.6633519633307962e+01 1.8118533623322548e+01 4.9673932873357041e+00 
3878 3879 2 1.0280000000000022e+00 -1.2090685044727638e+03 1.0000000000000000e+00 5.6576547553114317e+01 1.8907816939608928e+01 5.4840660970071440e+00 
4208 4209 2 1.0279999999999831e+00 -5.1772722432727414e+02 1.0000000000000000e+00 5.7862593984770712e+01 1.9807392128546926e+01 5.9134882186140292e+00 
1984 1985 2 1.0279999999999478e+00 1.2077991941503210e+03 1.0000000000000000e+00 6.3527556316803825e+01 1.8153957894216251e+01 4.0613064086800517e+00 
2956 2957 2 1.0279999999999445e+00 -6.8405586974079142e+02 1.0000000000000000e+00 6.3931739441282829e+01 1.9903231687262675e+01 5.7869710946004034e+00 
1015 1016 2 1.0280000000000649e+00 5.6730881245670917e+03 1.0000000000000000e+00 6.5995419971477915e+01 1.8633613057856564e+01 4.9987705275246919e+00 
1065 1066 2 1.0279999999999752e+00 -4.1322269178131427e+02 1.0000000000000000e+00 6.2117578533213823e+01 1.1700817986221789e+01 6.5615051625805210e+00 
1110 1111 2 1.0280000000000209e+00 4.3542667220343446e+03 1.0000000000000000e+00 6.0566013224339152e+01 1.3229993836244518e+01 7.1255451282284694e+00 
1988 1989 2 1.0280000000000422e+00 -2.8587767589042878e+03 1.0000000000000000e+00 6.0987365272912712e+01 1.2316893842383193e+01 6.8116099421108496e+00 
61 62 2 1.0280000000000595e+00 -9.8775134443428897e+02 1.0000000000000000e+00 6.3047287314645487e+01 1.3122335707489583e+01 7.5434665446628077e+00 
146 147 2 1.0279999999999918e+00 -1.2147308992862511e+02 1.0000000000000000e+00 6.3799588327753206e+01 1.2429996954994843e+01 6.2135232163040497e+00 
523 524 2 1.0279999999999878e+00 7.7513523390141836e+02 1.0000000000000000e+00 6.5887355201887061e+01 1.2557631443384127e+01 7.9818367170811158e+00 
2866 2867 2 1.0280000000000047e+00 1.1038255865627298e+03 1.0000000000000000e+00 6.0130965890461454e+01 1.4314029294803545e+01 6.5738293399739813e+00 
3334 3335 2 1.0280000000001117e+00 6.3162404629294260e+03 1.0000000000000000e+00 6.1294668990701410e+01 1.4938413354042684e+01 7.8017259259180349e+00 
1028 1029 2 1.0279999999999274e+00 4.9821782319565227e+03 1.0000000000000000e+00 6.1543132736380173e+01 1.4881986521178131e+01 7.0201376978050689e+00 
1997 1998 2 1.0279999999999645e+00 -1.6188195558750799e+03 1.0000000000000000e+00 6.3677794768804404e+01 1.4746356016835735e+01 6.5566873476419891e+00 
3796 3797 2 1.0279999999999927e+00 -1.1776555031093899e+03 1.0000000000000000e+00 6.4460977546999302e+01 1.5407923306840191e+01 6.6942511043004718e+00 
1030 1031 2 1.0279999999999760e+00 5.8196660268818505e+03 1.0000000000000000e+00 6.6243441952202460e+01 1.4365233676530567e+01 6.6428164798416436e+00 
520 521 2 1.0280000000000167e+00 1.1578328151699361e+03 1.0000000000000000e+00 5.8304737065704074e+01 1.6746071576649729e+01 7.9658059405498900e+00 
1399 1400 2 1.0279999999999820e+00 -1.6945599595717913e+03 1.0000000000000000e+00 6.0235846503040364e+01 1.7367644173925029e+01 6.6383203612985504e+00 
893 894 2 1.0279999999999954e+00 -1.2282027166045496e+03 1.0000000000000000e+00 6.1048699555576306e+01 1.7658216134812591e+01 7.5956190478968146e+00 
1942 1943 2 1.0279999999999581e+00 -2.3360192106412487e+03 1.0000000000000000e+00 6.2077169823580853e+01 1.7905327119706577e+01 6.8449907020698495e+00 
2248 2249 2 1.0279999999999201e+00 -9.0455497121495887e+02 1.0000000000000000e+00 6.5003146429151016e+01 1.6846736360154512e+01 6.6959978239660156e+00 
1082 1083 2 1.0279999999999667e+00 -1.9897821887548928e+03 1.0000000000000000e+00 6.6449204803226678e+01 1.7573393762331392e+01 6.3069627122672918e+00 
50 51 2 1.0279999999999929e+00 -5.1647482732554772e+02 1.0000000000000000e+00 5.5996557660562090e+01 1.8116561668962010e+01 7.8180265317263968e+00 
2819 2820 2 1.0280000000000018e+00 -8.5778381065343228e+02 1.0000000000000000e+00 5.6548522055276798e+01 1.9614514260332548e+01 7.9707897809454211e+00 
2402 2403 2 1.0280000000000549e+00 6.0924014962789795e+02 1.0000000000000000e+00 5.9033851164610724e+01 1.9357831166008147e+01 6.6245549757338873e+00 
2906 2907 2 1.0280000000000415e+00 4.4139531150446901e+03 1.0000000000000000e+00 5.9933743310359624e+01 1.9045670742419897e+01 7.8680090260798110e+00 
1562 1563 2 1.0280000000000604e+00 2.7484082854162091e+02 1.0000000000000000e+00 6.0598613707959863e+01 1.9866086525876607e+01 7.5997248550438687e+00 
4254 4255 2 1.0279999999999163e+00 -1.7379192415128301e+02 1.0000000000000000e+00 6.2834711428927172e+01 1.8598520123545196e+01 7.2147269654895183e+00 
1360 1361 2 1.0280000000000187e+00 2.5973105766974722e+03 1.0000000000000000e+00 6.4116022233082774e+01 1.8310302483272135e+01 6.1457663244627350e+00 
4247 4248 2 1.0280000000000584e+00 1.9898132165248262e+03 1.0000000000000000e+00 6.4525217997002599e+01 1.9061302353870534e+01 7.7842530687778444e+00 
3371 3372 2 1.0279999999999738e+00 -1.9029429425516955e+03 1.0000000000000000e+00 6.5409710750736778e+01 1.9644543506609008e+01 7.5928127137521297e+00 
186 187 2 1.0280000000000047e+00 1.2304635049851872e+03 1.0000000000000000e+00 6.5956816811511260e+01 1.0306688817956422e+01 9.4695530164228163e+00 
19 20 2 1.0279999999999516e+00 -1.0261950660396305e+03 1.0000000000000000e+00 6.6099345630612206e+01 1.0190682175424556e+01 9.4404318081048917e+00 
649 650 2 1.0279999999999678e+00 -3.1235732565816152e+03 1.0000000000000000e+00 6.3280816879269167e+01 1.3079588408246458e+01 8.1509549781946085e+00 
564 565 2 1.0279999999999878e+00 8.1802175373728596e+02 1.0000000000000000e+00 6.4124028565157246e+01 1.3248111330275330e+01 9.7648428845150352e+00 
3880 3881 2 1.0280000000000364e+00 -1.6300527008768727e+03 1.0000000000000000e+00 6.5179824872921643e+01 1.3794219484258464e+01 8.2925309055761005e+00 
524 525 2 1.0280000000000202e+00 1.4680167238680283e+03 1.0000000000000000e+00 6.5240315380130752e+01 1.2788506913282017e+01 9.3549678158685445e+00 
2779 2780 2 1.0279999999999525e+00 -4.4378352640493631e+03 1.0000000000000000e+00 5.7077710922813431e+01 1.5281076591567313e+01 8.2743301529169297e+00 
1987 1988 2 1.0280000000000207e+00 -2.3949695054145513e+03 1.0000000000000000e+00 5.7088462268288446e+01 1.5270139181540740e+01 8.2654069129539245e+00 
521 522 2 1.0279999999999923e+00 1.9214796109800300e+03 1.0000000000000000e+00 5.8943388351433789e+01 1.5977229945959440e+01 8.2669934735186708e+00 
1574 1575 2 1.0279999999999969e+00 -6.6048574488122904e+02 1.0000000000000000e+00 6.1186777295898203e+01 1.5914460444445853e+01 9.2536496347284309e+00 
900 901 2 1.0279999999999139e+00 -6.6598688546286326e+02 1.0000000000000000e+00 6.3036842776532772e+01 1.5916513809540318e+01 8.7843412286049514e+00 
143 144 2 1.0280000000000673e+00 -2.0137601616122624e+03 1.0000000000000000e+00 6.3103232115220962e+01 1.4187941931648774e+01 9.4551113798870183e+00 
1412 1413 2 1.0280000000000447e+00 -4.1104649895899001e+03 1.0000000000000000e+00 6.4143600513370032e+01 1.5873848277560919e+01 8.6901825588534898e+00 
522 523 2 1.0279999999999379e+00 1.6670051784708803e+03 1.0000000000000000e+00 6.4907096544148416e+01 1.4624614641313427e+01 9.8556757623456708e+00 
822 823 2 1.0280000000000156e+00 2.2649732449757053e+03 1.0000000000000000e+00 6.5679587524516407e+01 1.5603778928551309e+01 9.2347680902557538e+00 
1433 1434 2 1.0280000000000113e+00 -8.6043208400733238e+02 1.0000000000000000e+00 5.5556709549914956e+01 1.7882995584562046e+01 8.6206253725852537e+00 
519 520 2 1.0279999999999954e+00 1.3257681035849112e+03 1.0000000000000000e+00 5.8147147964698298e+01 1.6045201832249809e+01 9.4282665793897795e+00 
1489 1490 2 1.0280000000000187e+00 -4.9873337553743931e+02 1.0000000000000000e+00 6.0702738200060217e+01 1.6294393903013081e+01 8.8974422126521056e+00 
1058 1059 2 1.0280000000001288e+00 2.3728856720757898e+02 1.0000000000000000e+00 6.2968083806051261e+01 1.7372057006506044e+01 9.4365833622136872e+00 
1911 1912 2 1.0279999999999572e+00 -8.9892351885332755e+02 1.0000000000000000e+00 6.5389572404576398e+01 1.6821403747190889e+01 9.7647475650683173e+00 
2831 2832 2 1.0279999999999416e+00 -7.6902197856551470e+02 1.0000000000000000e+00 6.5509400723036578e+01 1.7691669162948696e+01 8.4561125630116152e+00 