LAMMPS data file via write_data, version 30 Jul 2016, timestep = 1000000

2080 atoms
8 atom types

0.0000000000000000e+00 4.0000000000000000e+01 xlo xhi
0.0000000000000000e+00 4.0000000000000000e+01 ylo yhi
0.0000000000000000e+00 1.0000000000000000e+02 zlo zhi

Masses

1 3.896
2 10.72
3 1058.08
4 8.378
5 8.378
6 8.378
7 8.378
8 8.378

Atoms # meso-molecular

1 2 4 2.2559723595316457e+00 9.9839104683711022e-01 4.2000000000000000e+03 0.0000000000000000e+00 0.0000000000000000e+00 2.5000000000000000e+00 
2 2 4 2.2559723595316457e+00 9.9821227247765520e-01 4.2000000000000000e+03 0.0000000000000000e+00 2.0000000000000000e+00 2.5000000000000000e+00 
21 2 4 2.2559723595316457e+00 1.0012731317554522e+00 4.2000000000000000e+03 2.0000000000000000e+00 0.0000000000000000e+00 2.5000000000000000e+00 
22 2 4 2.2559723595316457e+00 9.9980464902204025e-01 4.2000000000000000e+03 2.0000000000000000e+00 2.0000000000000000e+00 2.5000000000000000e+00 
41 2 4 2.2559723595316457e+00 9.8733511467472912e-01 4.2000000000000000e+03 4.0000000000000000e+00 0.0000000000000000e+00 2.5000000000000000e+00 
42 2 4 2.2559723595316457e+00 9.9999501596771723e-01 4.2000000000000000e+03 4.0000000000000000e+00 2.0000000000000000e+00 2.5000000000000000e+00 
61 2 4 2.2559723595316745e+00 9.9958668579848053e-01 4.2000000000000000e+03 6.0000000000000000e+00 0.0000000000000000e+00 2.5000000000000000e+00 
62 2 4 2.2559723595316457e+00 9.9955194836576622e-01 4.2000000000000000e+03 6.0000000000000000e+00 2.0000000000000000e+00 2.5000000000000000e+00 
81 2 4 2.2559723595316457e+00 1.0000107478662379e+00 4.2000000000000000e+03 8.0000000000000000e+00 0.0000000000000000e+00 2.5000000000000000e+00 
82 2 4 2.2559723595320338e+00 9.9824118751354540e-01 4.2000000000000000e+03 8.0000000000000000e+00 2.0000000000000000e+00 2.5000000000000000e+00 
101 2 4 2.2559723595316457e+00 9.8812490866041702e-01 4.2000000000000000e+03 1.0000000000000000e+01 0.0000000000000000e+00 2.5000000000000000e+00 
102 2 4 2.2559723595327754e+00 9.9560976540593216e-01 4.2000000000000000e+03 1.0000000000000000e+01 2.0000000000000000e+00 2.5000000000000000e+00 
121 2 4 2.2559723595316457e+00 9.9592200796104824e-01 4.2000000000000000e+03 1.2000000000000000e+01 0.0000000000000000e+00 2.5000000000000000e+00 
122 2 4 2.2559723595316457e+00 9.9831442633858969e-01 4.2000000000000000e+03 1.2000000000000000e+01 2.0000000000000000e+00 2.5000000000000000e+00 
141 2 4 2.2559723595334282e+00 9.9589256704687534e-01 4.2000000000000000e+03 1.4000000000000000e+01 0.0000000000000000e+00 2.5000000000000000e+00 
142 2 4 2.2559723595316457e+00 9.7825058507279816e-01 4.2000000000000000e+03 1.4000000000000000e+01 2.0000000000000000e+00 2.5000000000000000e+00 
161 2 4 2.2559723595316457e+00 9.9552618339933940e-01 4.2000000000000000e+03 1.6000000000000000e+01 0.0000000000000000e+00 2.5000000000000000e+00 
162 2 4 2.2559723595316457e+00 9.8703638535183069e-01 4.2000000000000000e+03 1.6000000000000000e+01 2.0000000000000000e+00 2.5000000000000000e+00 
181 2 4 2.2559723595316457e+00 1.0001080449638284e+00 4.2000000000000000e+03 1.8000000000000000e+01 0.0000000000000000e+00 2.5000000000000000e+00 
182 2 4 2.2559723595316457e+00 1.0000261435924558e+00 4.2000000000000000e+03 1.8000000000000000e+01 2.0000000000000000e+00 2.5000000000000000e+00 
3 2 4 2.2559723595316457e+00 1.0000060370839394e+00 4.2000000000000000e+03 0.0000000000000000e+00 4.0000000000000000e+00 2.5000000000000000e+00 
4 2 4 2.2559723595316457e+00 1.0000000000000000e+00 4.2000000000000000e+03 0.0000000000000000e+00 6.0000000000000000e+00 2.5000000000000000e+00 
23 2 4 2.2559723595316457e+00 1.0000106109288578e+00 4.2000000000000000e+03 2.0000000000000000e+00 4.0000000000000000e+00 2.5000000000000000e+00 
24 2 4 2.2559723595316457e+00 1.0000397583760092e+00 4.2000000000000000e+03 2.0000000000000000e+00 6.0000000000000000e+00 2.5000000000000000e+00 
43 2 4 2.2559723595316457e+00 1.0000009495759046e+00 4.2000000000000000e+03 4.0000000000000000e+00 4.0000000000000000e+00 2.5000000000000000e+00 
44 2 4 2.2559723595316457e+00 1.0000000000000000e+00 4.2000000000000000e+03 4.0000000000000000e+00 6.0000000000000000e+00 2.5000000000000000e+00 
63 2 4 2.2559723595316634e+00 1.0001244219100587e+00 4.2000000000000000e+03 6.0000000000000000e+00 4.0000000000000000e+00 2.5000000000000000e+00 
64 2 4 2.2559723595316457e+00 9.9998663581285285e-01 4.2000000000000000e+03 6.0000000000000000e+00 6.0000000000000000e+00 2.5000000000000000e+00 
83 2 4 2.2559723595316457e+00 1.0042939915758089e+00 4.2000000000000000e+03 8.0000000000000000e+00 4.0000000000000000e+00 2.5000000000000000e+00 
84 2 4 2.2559723595316457e+00 1.0000291134022614e+00 4.2000000000000000e+03 8.0000000000000000e+00 6.0000000000000000e+00 2.5000000000000000e+00 
103 2 4 2.2559723595316457e+00 1.0000110065503649e+00 4.2000000000000000e+03 1.0000000000000000e+01 4.0000000000000000e+00 2.5000000000000000e+00 
104 2 4 2.2559723595316457e+00 1.0000459377971578e+00 4.2000000000000000e+03 1.0000000000000000e+01 6.0000000000000000e+00 2.5000000000000000e+00 
123 2 4 2.2559723595316457e+00 9.8876041929123881e-01 4.2000000000000000e+03 1.2000000000000000e+01 4.0000000000000000e+00 2.5000000000000000e+00 
124 2 4 2.2559723595321652e+00 1.0000544868676131e+00 4.2000000000000000e+03 1.2000000000000000e+01 6.0000000000000000e+00 2.5000000000000000e+00 
143 2 4 2.2559723595316457e+00 9.7753423955274232e-01 4.2000000000000000e+03 1.4000000000000000e+01 4.0000000000000000e+00 2.5000000000000000e+00 
144 2 4 2.2559723595316457e+00 1.0000148998485641e+00 4.2000000000000000e+03 1.4000000000000000e+01 6.0000000000000000e+00 2.5000000000000000e+00 
163 2 4 2.2559723595338825e+00 1.0007961166367292e+00 4.2000000000000000e+03 1.6000000000000000e+01 4.0000000000000000e+00 2.5000000000000000e+00 
164 2 4 2.2559723595318304e+00 1.0000240503469167e+00 4.2000000000000000e+03 1.6000000000000000e+01 6.0000000000000000e+00 2.5000000000000000e+00 
183 2 4 2.2559723595316457e+00 9.9997184246184800e-01 4.2000000000000000e+03 1.8000000000000000e+01 4.0000000000000000e+00 2.5000000000000000e+00 
184 2 4 2.2559723595316457e+00 1.0000101840739948e+00 4.2000000000000000e+03 1.8000000000000000e+01 6.0000000000000000e+00 2.5000000000000000e+00 
5 2 4 2.2559723595316457e+00 1.0000094675568227e+00 4.2000000000000000e+03 0.0000000000000000e+00 8.0000000000000000e+00 2.5000000000000000e+00 
6 2 4 2.2559723595316457e+00 1.0000043387919415e+00 4.2000000000000000e+03 0.0000000000000000e+00 1.0000000000000000e+01 2.5000000000000000e+00 
25 2 4 2.2559723595316457e+00 9.9995280830318167e-01 4.2000000000000000e+03 2.0000000000000000e+00 8.0000000000000000e+00 2.5000000000000000e+00 
26 2 4 2.2559723595316457e+00 1.0000000003370531e+00 4.2000000000000000e+03 2.0000000000000000e+00 1.0000000000000000e+01 2.5000000000000000e+00 
45 2 4 2.2559723595316457e+00 9.9999871354956915e-01 4.2000000000000000e+03 4.0000000000000000e+00 8.0000000000000000e+00 2.5000000000000000e+00 
46 2 4 2.2559723595316457e+00 1.0000000022047706e+00 4.2000000000000000e+03 4.0000000000000000e+00 1.0000000000000000e+01 2.5000000000000000e+00 
65 2 4 2.2559723595316457e+00 1.0000071341411250e+00 4.2000000000000000e+03 6.0000000000000000e+00 8.0000000000000000e+00 2.5000000000000000e+00 
66 2 4 2.2559723595316457e+00 1.0000000743868087e+00 4.2000000000000000e+03 6.0000000000000000e+00 1.0000000000000000e+01 2.5000000000000000e+00 
85 2 4 2.2559723595316457e+00 1.0000022302654119e+00 4.2000000000000000e+03 8.0000000000000000e+00 8.0000000000000000e+00 2.5000000000000000e+00 
86 2 4 2.2559723595316457e+00 1.0000000247010632e+00 4.2000000000000000e+03 8.0000000000000000e+00 1.0000000000000000e+01 2.5000000000000000e+00 
105 2 4 2.2559723595316457e+00 1.0000009299281778e+00 4.2000000000000000e+03 1.0000000000000000e+01 8.0000000000000000e+00 2.5000000000000000e+00 
106 2 4 2.2559723595316457e+00 1.0000000000000000e+00 4.2000000000000000e+03 1.0000000000000000e+01 1.0000000000000000e+01 2.5000000000000000e+00 
125 2 4 2.2559723595316457e+00 1.0000069947162493e+00 4.2000000000000000e+03 1.2000000000000000e+01 8.0000000000000000e+00 2.5000000000000000e+00 
126 2 4 2.2559723595321750e+00 1.0000596885254653e+00 4.2000000000000000e+03 1.2000000000000000e+01 1.0000000000000000e+01 2.5000000000000000e+00 
145 2 4 2.2559723595316457e+00 -1.5415033837521705e+02 4.2000000000000000e+03 1.4000000000000000e+01 8.0000000000000000e+00 2.5000000000000000e+00 
146 2 4 2.2559723595316457e+00 -7.3101859552670908e+02 4.2000000000000000e+03 1.4000000000000000e+01 1.0000000000000000e+01 2.5000000000000000e+00 
165 2 4 2.2559723595316457e+00 -7.3001538603900315e+02 4.2000000000000000e+03 1.6000000000000000e+01 8.0000000000000000e+00 2.5000000000000000e+00 
166 2 4 2.2559723595316457e+00 -2.8126640939144986e+03 4.2000000000000000e+03 1.6000000000000000e+01 1.0000000000000000e+01 2.5000000000000000e+00 
185 2 4 2.2559723595332475e+00 -9.0775454137340023e+02 4.2000000000000000e+03 1.8000000000000000e+01 8.0000000000000000e+00 2.5000000000000000e+00 
186 2 4 2.2559723595316457e+00 -3.6340449814812014e+03 4.2000000000000000e+03 1.8000000000000000e+01 1.0000000000000000e+01 2.5000000000000000e+00 
7 2 4 2.2559723595316457e+00 1.0000000000000000e+00 4.2000000000000000e+03 0.0000000000000000e+00 1.2000000000000000e+01 2.5000000000000000e+00 
8 2 4 2.2559723595316457e+00 9.9995519818735001e-01 4.2000000000000000e+03 0.0000000000000000e+00 1.4000000000000000e+01 2.5000000000000000e+00 
27 2 4 2.2559723595316457e+00 1.0000000000000000e+00 4.2000000000000000e+03 2.0000000000000000e+00 1.2000000000000000e+01 2.5000000000000000e+00 
28 2 4 2.2559723595316457e+00 1.0000537216019598e+00 4.2000000000000000e+03 2.0000000000000000e+00 1.4000000000000000e+01 2.5000000000000000e+00 
47 2 4 2.2559723595316457e+00 1.0000000000000000e+00 4.2000000000000000e+03 4.0000000000000000e+00 1.2000000000000000e+01 2.5000000000000000e+00 
48 2 4 2.2559723595316457e+00 1.0000000000000000e+00 4.2000000000000000e+03 4.0000000000000000e+00 1.4000000000000000e+01 2.5000000000000000e+00 
67 2 4 2.2559723595316457e+00 1.0000000000000000e+00 4.2000000000000000e+03 6.0000000000000000e+00 1.2000000000000000e+01 2.5000000000000000e+00 
68 2 4 2.2559723595316457e+00 1.0000000000000000e+00 4.2000000000000000e+03 6.0000000000000000e+00 1.4000000000000000e+01 2.5000000000000000e+00 
87 2 4 2.2559723595316457e+00 1.0000000000000000e+00 4.2000000000000000e+03 8.0000000000000000e+00 1.2000000000000000e+01 2.5000000000000000e+00 
88 2 4 2.2559723595316457e+00 1.0000000000000000e+00 4.2000000000000000e+03 8.0000000000000000e+00 1.4000000000000000e+01 2.5000000000000000e+00 
107 2 4 2.2559723595316457e+00 1.0000000000000000e+00 4.2000000000000000e+03 1.0000000000000000e+01 1.2000000000000000e+01 2.5000000000000000e+00 
108 2 4 2.2559723595316457e+00 1.0000000000000000e+00 4.2000000000000000e+03 1.0000000000000000e+01 1.4000000000000000e+01 2.5000000000000000e+00 
127 2 4 2.2559723595316457e+00 9.9999545587711625e-01 4.2000000000000000e+03 1.2000000000000000e+01 1.2000000000000000e+01 2.5000000000000000e+00 
128 2 4 2.2559723595316732e+00 1.0000059267763510e+00 4.2000000000000000e+03 1.2000000000000000e+01 1.4000000000000000e+01 2.5000000000000000e+00 
147 2 4 2.2559723595316457e+00 -9.0859102273033659e+02 4.2000000000000000e+03 1.4000000000000000e+01 1.2000000000000000e+01 2.5000000000000000e+00 
148 2 4 2.2559723595316457e+00 -9.1494996384930084e+02 4.2000000000000000e+03 1.4000000000000000e+01 1.4000000000000000e+01 2.5000000000000000e+00 
167 2 4 2.2559723595316457e+00 -3.6341692154664570e+03 4.2000000000000000e+03 1.6000000000000000e+01 1.2000000000000000e+01 2.5000000000000000e+00 
168 2 4 2.2559723595316457e+00 -3.6587374710808608e+03 4.2000000000000000e+03 1.6000000000000000e+01 1.4000000000000000e+01 2.5000000000000000e+00 
187 2 4 2.2559723595343275e+00 -4.6514776544379629e+03 4.2000000000000000e+03 1.8000000000000000e+01 1.2000000000000000e+01 2.5000000000000000e+00 
188 2 4 2.2559723595316457e+00 -4.6725771174995189e+03 4.2000000000000000e+03 1.8000000000000000e+01 1.4000000000000000e+01 2.5000000000000000e+00 
9 2 4 2.2559723595316457e+00 1.0001107204014970e+00 4.2000000000000000e+03 0.0000000000000000e+00 1.6000000000000000e+01 2.5000000000000000e+00 
10 2 4 2.2559723595316457e+00 1.0000078730470467e+00 4.2000000000000000e+03 0.0000000000000000e+00 1.8000000000000000e+01 2.5000000000000000e+00 
29 2 4 2.2559723595316457e+00 1.0000000000000000e+00 4.2000000000000000e+03 2.0000000000000000e+00 1.6000000000000000e+01 2.5000000000000000e+00 
30 2 4 2.2559723595316457e+00 9.9746160996535860e-01 4.2000000000000000e+03 2.0000000000000000e+00 1.8000000000000000e+01 2.5000000000000000e+00 
49 2 4 2.2559723595316457e+00 1.0000000000000000e+00 4.2000000000000000e+03 4.0000000000000000e+00 1.6000000000000000e+01 2.5000000000000000e+00 
50 2 4 2.2559723595316457e+00 9.9901126498645532e-01 4.2000000000000000e+03 4.0000000000000000e+00 1.8000000000000000e+01 2.5000000000000000e+00 
69 2 4 2.2559723595316457e+00 1.0000000000000000e+00 4.2000000000000000e+03 6.0000000000000000e+00 1.6000000000000000e+01 2.5000000000000000e+00 
70 2 4 2.2559723595316457e+00 9.9806953473508586e-01 4.2000000000000000e+03 6.0000000000000000e+00 1.8000000000000000e+01 2.5000000000000000e+00 
89 2 4 2.2559723595316457e+00 1.0000000000000000e+00 4.2000000000000000e+03 8.0000000000000000e+00 1.6000000000000000e+01 2.5000000000000000e+00 
90 2 4 2.2559723595316457e+00 9.9999341067804282e-01 4.2000000000000000e+03 8.0000000000000000e+00 1.8000000000000000e+01 2.5000000000000000e+00 
109 2 4 2.2559723595316457e+00 1.0000000000000000e+00 4.2000000000000000e+03 1.0000000000000000e+01 1.6000000000000000e+01 2.5000000000000000e+00 
110 2 4 2.2559723595316457e+00 1.0000000000000000e+00 4.2000000000000000e+03 1.0000000000000000e+01 1.8000000000000000e+01 2.5000000000000000e+00 
129 2 4 2.2559723595316457e+00 1.0000022434014171e+00 4.2000000000000000e+03 1.2000000000000000e+01 1.6000000000000000e+01 2.5000000000000000e+00 
130 2 4 2.2559723595316457e+00 9.9999955965051768e-01 4.2000000000000000e+03 1.2000000000000000e+01 1.8000000000000000e+01 2.5000000000000000e+00 
149 2 4 2.2559723595316457e+00 -9.1577084128668503e+02 4.2000000000000000e+03 1.4000000000000000e+01 1.6000000000000000e+01 2.5000000000000000e+00 
150 2 4 2.2559723595316457e+00 -9.1572069650569279e+02 4.2000000000000000e+03 1.4000000000000000e+01 1.8000000000000000e+01 2.5000000000000000e+00 
169 2 4 2.2559723595316457e+00 -3.6602766781369419e+03 4.2000000000000000e+03 1.6000000000000000e+01 1.6000000000000000e+01 2.5000000000000000e+00 
170 2 4 2.2559723595316457e+00 -3.6594404654267109e+03 4.2000000000000000e+03 1.6000000000000000e+01 1.8000000000000000e+01 2.5000000000000000e+00 
189 2 4 2.2559723595316457e+00 -4.6727440288071475e+03 4.2000000000000000e+03 1.8000000000000000e+01 1.6000000000000000e+01 2.5000000000000000e+00 
190 2 4 2.2559723595316457e+00 -4.6736898231602845e+03 4.2000000000000000e+03 1.8000000000000000e+01 1.8000000000000000e+01 2.5000000000000000e+00 
706 308 2 1.0279994998640287e+00 -3.3849590894858466e+03 4.2000000000000000e+03 1.5825986178940495e+01 4.4596946730008868e-01 8.1142348120780071e+01 
653 255 2 1.0279992518933967e+00 1.3539167344054417e+03 4.2000000000000000e+03 1.5539607939715655e+01 9.4971030179322102e-01 8.1746054473910974e+01 
958 560 2 1.0279994745570362e+00 -4.9081401991112671e+03 4.2000000000000000e+03 1.9004849970943514e+01 1.1478616239109025e+00 8.0807688633311784e+01 
959 561 2 1.0279994741403966e+00 -4.9081401894042820e+03 4.2000000000000000e+03 1.9000709606460223e+01 1.1478526078713709e+00 8.0807713066452152e+01 
651 253 2 1.0279997440971369e+00 -7.2007152102176838e+02 4.2000000000000000e+03 1.9085591752422477e+01 1.6162173853717181e+00 8.0911618411070322e+01 
650 252 2 1.0279997299973600e+00 -7.2007142630855719e+02 4.2000000000000000e+03 1.8920780308755038e+01 1.6155363935584259e+00 8.0912383531959634e+01 
1863 1465 2 1.0279995727169700e+00 -4.3290375096679536e+03 4.2000000000000000e+03 1.6292750855495989e+01 1.2187826262888362e+00 8.1066629460738824e+01 
639 241 2 1.0279993855572431e+00 -2.1355180089655564e+03 4.2000000000000000e+03 1.7581637907880253e+01 2.2247711671427006e+00 8.1400885064967170e+01 
1065 667 2 1.0280011768306589e+00 4.7446823968493927e+03 4.2000000000000000e+03 1.6686514433839687e+01 2.5439611579662329e+00 8.3133441493569066e+01 
599 201 2 1.0280013252595956e+00 -2.9937957631107502e+03 4.2000000000000000e+03 1.7124715997494199e+01 2.5604508803108215e+00 8.3212159145054486e+01 
575 177 2 1.0280017719101635e+00 1.4099171846796123e+03 4.2000000000000000e+03 1.6780222087911802e+01 2.5559740947693830e+00 8.3238777994004764e+01 
874 476 2 1.0280025900899725e+00 -3.8532875965188946e+03 4.2000000000000000e+03 1.5378050554235468e+01 2.3845299861353100e-01 8.3491919135635527e+01 
764 366 2 1.0279917394027913e+00 3.2181509472226585e+03 4.2000000000000000e+03 1.5316364058046462e+01 1.0654535229114028e+00 8.5968556311794686e+01 
714 316 2 1.0280031277758088e+00 -1.0309648488161829e+03 4.2000000000000000e+03 1.5699170524735132e+01 3.4715069036807482e+00 8.6081955408823774e+01 
817 419 2 1.0279925733055537e+00 1.9662836977079562e+02 4.2000000000000000e+03 1.4936399480271032e+01 2.7964986270738823e-01 8.7207462914106074e+01 
785 387 2 1.0280024350164094e+00 9.7595879186743377e+02 4.2000000000000000e+03 1.4709902332138252e+01 3.8274942149327060e+00 8.6929665596422936e+01 
1458 1060 2 1.0280000970831173e+00 -3.9110330270741151e+03 4.2000000000000000e+03 1.4660864988761952e+01 2.7442617509650682e+00 8.7495740928106457e+01 
1235 837 2 1.0280105627461829e+00 -2.1939434966165963e+03 4.2000000000000000e+03 1.5709101525360389e+01 1.8483642646457463e+00 8.4758793264299413e+01 
604 206 2 1.0280029062865363e+00 -8.1052806538609877e+02 4.2000000000000000e+03 1.6350905652048461e+01 2.4438241582054756e+00 8.3423928244417567e+01 
2048 1650 2 1.0280036131770618e+00 2.8512836001459236e+03 4.2000000000000000e+03 1.6484270557119032e+01 3.3899320171888405e+00 8.5486538729213763e+01 
1900 1502 2 1.0279983986796837e+00 -1.3108949855870792e+03 4.2000000000000000e+03 1.5809429609756140e+01 4.3701915228940624e+00 8.6526999103450450e+01 
735 337 2 1.0279978894556723e+00 -1.0180645601785601e+03 4.2000000000000000e+03 1.5525630648318332e+01 4.9672089684940666e+00 8.7135967719456147e+01 
504 106 2 1.0279961174424439e+00 2.5707099317936641e+03 4.2000000000000000e+03 1.7289040178148142e+01 5.0785073285066096e+00 8.5928447315137817e+01 
516 118 2 1.0279985772159621e+00 2.4769778131212292e+03 4.2000000000000000e+03 1.9001083678538052e+01 5.7343001315647157e+00 8.5719778318360397e+01 
513 115 2 1.0279985950359121e+00 2.4769775606191879e+03 4.2000000000000000e+03 1.9075380363773721e+01 5.7359162524124407e+00 8.5718870133307789e+01 
2075 1677 2 1.0279992135865361e+00 1.0238386239942516e+03 4.2000000000000000e+03 1.9613811182022740e+01 5.9200650674385003e+00 8.5936092926082637e+01 
2074 1676 2 1.0279989964652656e+00 1.0238433706377388e+03 4.2000000000000000e+03 1.8488519941107228e+01 5.8918975849677313e+00 8.5937124455026137e+01 
2034 1636 2 1.0280003592373546e+00 4.8186697615000794e+03 4.2000000000000000e+03 1.9214786878159835e+01 6.1930985859533640e+00 8.6094424094226838e+01 
2035 1637 2 1.0280003021693414e+00 4.8186712428427718e+03 4.2000000000000000e+03 1.8903423750036424e+01 6.1837140935966781e+00 8.6091493900188567e+01 
613 215 2 1.0279999947881051e+00 8.3433289719953916e+02 4.2000000000000000e+03 1.3233219242330374e+01 1.1230175779251024e+01 8.6938532686281420e+01 
1634 1236 2 1.0279999848465933e+00 -8.3676024112880282e+02 4.2000000000000000e+03 1.3181593378143532e+01 1.1629711469410271e+01 8.6907451065285940e+01 
412 14 2 1.0279999967291713e+00 -2.3828848477367285e+02 4.2000000000000000e+03 1.3051947515954859e+01 1.1761966239763433e+01 8.6866365475108196e+01 
870 472 2 1.0279998417015359e+00 -2.0021831236243386e+03 4.2000000000000000e+03 1.1745869462125068e+01 1.2131383366039149e+01 8.7114360316135503e+01 
1768 1370 2 1.0279999085119307e+00 3.6014322456947402e+03 4.2000000000000000e+03 1.2860669075911874e+01 1.2248523048476679e+01 8.6974731524691734e+01 
733 335 2 1.0279998627319160e+00 -5.6549108708493554e+02 4.2000000000000000e+03 1.2368381354207655e+01 1.2603708195723181e+01 8.7157027105643763e+01 
914 516 2 1.0279998397876351e+00 -2.2862491356982564e+03 4.2000000000000000e+03 1.2183317376302579e+01 1.2634991929683036e+01 8.7210961239815646e+01 
821 423 2 1.0280008313118196e+00 7.2454382119882723e+02 4.2000000000000000e+03 4.9339007333531165e-01 3.4387761052338512e+00 9.0509608594624439e+01 
1927 1529 2 1.0280016715733227e+00 4.7052228112978037e+03 4.2000000000000000e+03 1.3162996541702343e+00 2.8996466217229919e+00 9.0815974368409897e+01 
1466 1068 2 1.0279998708851197e+00 -5.0477425057940636e+03 4.2000000000000000e+03 1.5161534286073075e+00 2.5283369108245957e+00 9.0934237333498317e+01 
762 364 2 1.0280012003625862e+00 -2.8856398395869819e+03 4.2000000000000000e+03 1.9827650954331981e+00 1.7495459865928789e+00 9.0774704409925889e+01 
1310 912 2 1.0279998457533730e+00 -4.1548339480734894e+03 4.2000000000000000e+03 3.5119636707817485e+00 6.7250721090395282e-01 9.1064351231240281e+01 
2006 1608 2 1.0280000504204319e+00 2.9134458287713355e+03 4.2000000000000000e+03 3.8076418002027856e+00 2.7381729264626866e+00 8.9433466503457396e+01 
1982 1584 2 1.0279998406928752e+00 3.9022261807911250e+03 4.2000000000000000e+03 5.0311385936418311e+00 3.0645113626972829e+00 8.8975843255048630e+01 
767 369 2 1.0279997566727397e+00 -3.7890680701915553e+03 4.2000000000000000e+03 4.9074054468249813e+00 2.0526033514256712e+00 8.9572209350886283e+01 
1796 1398 2 1.0279996301183700e+00 5.9260340586741165e+02 4.2000000000000000e+03 5.0765696053058109e+00 1.8072725761259090e+00 8.9732501770710769e+01 
585 187 2 1.0279987991329351e+00 7.9328648425196225e+03 4.2000000000000000e+03 5.1651598489027304e+00 1.0279069742360745e+00 9.0322634131567867e+01 
1313 915 2 1.0279951632303941e+00 5.6869811413686955e+02 4.2000000000000000e+03 7.1476245513939274e+00 5.3528568164296610e-02 9.0961511617423071e+01 
1703 1305 2 1.0280013242163930e+00 -3.4648421107079853e+03 4.2000000000000000e+03 7.7488843140035160e+00 3.2810439819713517e+00 9.0236940942474860e+01 
1474 1076 2 1.0280008145875008e+00 -3.8216173021868740e+03 4.2000000000000000e+03 7.8845439719558863e+00 2.4151112791956262e+00 9.0485300168068591e+01 
1718 1320 2 1.0280002382241253e+00 -1.8720935722555971e+03 4.2000000000000000e+03 8.0751638539612749e+00 2.0572899588431102e+00 9.0689480740201461e+01 
1892 1494 2 1.0279994469246712e+00 8.3647578930737063e+02 4.2000000000000000e+03 8.7978994974042912e+00 2.1126789864290019e+00 9.0978265707602716e+01 
924 526 2 1.0280153117612361e+00 1.1832709091563927e+03 4.2000000000000000e+03 1.0457419445974313e+01 3.4958089224466300e+00 9.1521383092860702e+01 
797 399 2 1.0279979847241965e+00 6.9099715624683415e+02 4.2000000000000000e+03 1.0870143041417965e+01 1.8925187023678565e+00 9.1467307364907043e+01 
1998 1600 2 1.0279927167878040e+00 4.6820688181924652e+03 4.2000000000000000e+03 1.0262284074318405e+01 3.2002142443762621e-01 9.1360544198591910e+01 
904 506 2 1.0280002837466276e+00 2.4045299009025689e+03 4.2000000000000000e+03 1.3153080047812955e+01 3.7215179502656679e+00 8.8654708142992092e+01 
1797 1399 2 1.0280003890329470e+00 5.5310933852000460e+02 4.2000000000000000e+03 1.3129067882425815e+01 3.6594646878782737e+00 8.8801571302779962e+01 
1807 1409 2 1.0280007949920078e+00 -3.3198888920458688e+02 4.2000000000000000e+03 1.3016369355968459e+01 3.5755109617614411e+00 8.9209964220641965e+01 
642 244 2 1.0280016444185949e+00 -3.2223825524270310e+03 4.2000000000000000e+03 1.2752386960043033e+01 3.7158229770206099e+00 8.9452587488457951e+01 
801 403 2 1.0279865204656289e+00 1.1942548596222694e+03 4.2000000000000000e+03 1.4887879746530228e+01 3.0854637654231043e+00 9.1490080603712499e+01 
1977 1579 2 1.0280139307270917e+00 2.7868204259486683e+03 4.2000000000000000e+03 1.4500025526885748e+01 9.6729086348486190e-02 8.8723762498075587e+01 
658 260 2 1.0279888794707503e+00 -1.0992117580262534e+03 4.2000000000000000e+03 1.6935788753514050e+01 4.2246496357173674e-02 9.1516674130063819e+01 
455 57 2 1.0280005493750006e+00 3.5911403362713268e+03 4.2000000000000000e+03 1.6462027608372352e+01 3.5249196340052205e+00 9.1105811318701356e+01 
937 539 2 1.0279989183996856e+00 4.3198433130837526e+02 4.2000000000000000e+03 4.3595667289553047e-01 7.5725482794096921e+00 9.0852144464509180e+01 
1461 1063 2 1.0280043498814613e+00 -2.5844276976197409e+02 4.2000000000000000e+03 1.4879021957207752e+00 5.7830352381117507e+00 9.0395511077926770e+01 
1845 1447 2 1.0280004007233665e+00 5.9127852446554846e+02 4.2000000000000000e+03 3.8807256493637889e+00 5.2762835559285843e+00 8.9232304183042828e+01 
1746 1348 2 1.0280000583386970e+00 -3.0302098213753934e+03 4.2000000000000000e+03 4.1376398868513942e+00 4.6228275556809484e+00 8.8942780497518740e+01 
1272 874 2 1.0279997191848260e+00 1.6120402257177932e+03 4.2000000000000000e+03 5.5403695642509669e+00 5.2155816666951962e+00 8.8905655572362861e+01 
727 329 2 1.0279996617790830e+00 -4.4865212188020851e+03 4.2000000000000000e+03 5.5231829245996273e+00 5.5855867933420766e+00 8.9021655987108630e+01 
1302 904 2 1.0279998489285918e+00 -3.4657487552865018e+03 4.2000000000000000e+03 4.8891108712918427e+00 5.9730705895981417e+00 8.9150473439266150e+01 
1410 1012 2 1.0280005866141257e+00 3.4605657553725416e+02 4.2000000000000000e+03 4.2412221395839600e+00 6.6779748453577534e+00 8.9561341904489126e+01 
440 42 2 1.0279996824041338e+00 -1.1661802581134373e+03 4.2000000000000000e+03 6.0318116990270312e+00 5.3618543004770496e+00 8.9109725626895695e+01 
1813 1415 2 1.0280004145512347e+00 4.0754250807117483e+03 4.2000000000000000e+03 7.6392340026143595e+00 4.8323827724882502e+00 9.0820541489440814e+01 
1442 1044 2 1.0280012436740427e+00 -3.4287093583130568e+03 4.2000000000000000e+03 7.6870723717317864e+00 4.1826600956502915e+00 9.0349664404375972e+01 
994 596 2 1.0280049419628527e+00 -4.7062367353777918e+03 4.2000000000000000e+03 1.1334729862419806e+01 4.9289718488719769e+00 9.1228523210092092e+01 
652 254 2 1.0280021204282703e+00 1.3593076340292421e+03 4.2000000000000000e+03 1.2265711174417708e+01 4.3042181415240384e+00 8.9523806074920898e+01 
2043 1645 2 1.0279990493211071e+00 4.4164395532751487e+03 4.2000000000000000e+03 1.3236669187482049e+01 6.7702561663790917e+00 8.8443330359465463e+01 
1740 1342 2 1.0279992240649982e+00 3.2730463113478049e+03 4.2000000000000000e+03 1.3209730117667014e+01 6.8156360661269604e+00 8.8467912780275682e+01 
419 21 2 1.0279994332528533e+00 2.3488470176917522e+03 4.2000000000000000e+03 1.3294868585452297e+01 6.8931991642760995e+00 8.8470117208923952e+01 
895 497 2 1.0279990709669820e+00 -5.6234281341463429e+03 4.2000000000000000e+03 1.3096123732381566e+01 6.7197044151451966e+00 8.8478941284795454e+01 
1905 1507 2 1.0280005874722926e+00 1.9928401655058079e+02 4.2000000000000000e+03 1.3704534123038043e+01 7.1509012571510979e+00 8.8529912991373720e+01 
679 281 2 1.0280019701227614e+00 6.2894086688604773e+02 4.2000000000000000e+03 1.2483470288042271e+01 7.9110195395557446e+00 8.8846979264496241e+01 
662 264 2 1.0280057734138119e+00 -1.0825686620960309e+03 4.2000000000000000e+03 1.9005440720241534e+01 4.8237820019799056e+00 8.8271485400235576e+01 
663 265 2 1.0280057769527737e+00 -1.0825656113509906e+03 4.2000000000000000e+03 1.9190376066408710e+01 4.8219102761045178e+00 8.8276752606971485e+01 
773 375 2 1.0280086611602939e+00 1.8424214905032586e+03 4.2000000000000000e+03 1.6295823660410289e+01 4.1985314677867400e+00 8.9580199199753849e+01 
586 188 2 1.0280091293856399e+00 1.8861034009962364e+03 4.2000000000000000e+03 1.6316939434292930e+01 4.2298011131267375e+00 8.9600648664092930e+01 
509 111 2 1.0280137257763708e+00 3.6896794642407808e+03 4.2000000000000000e+03 1.7599251768180089e+01 4.9885645909446650e+00 9.1022995685878627e+01 
1969 1571 2 1.0279862854746975e+00 2.8319298465088627e+03 4.2000000000000000e+03 1.8027440651838802e+01 5.3311904578348690e+00 9.1469009770476362e+01 
593 195 2 1.0279897441167321e+00 1.4387515001957865e+03 4.2000000000000000e+03 1.6929837845126876e+01 5.5651856631662655e+00 9.1015150901341855e+01 
1645 1247 2 1.0279856404670547e+00 1.3281933483723010e+03 4.2000000000000000e+03 1.7207616600090919e+01 7.1968094960867459e+00 9.0609567842537047e+01 
933 535 2 1.0280002784475399e+00 4.9223239122009659e+02 4.2000000000000000e+03 1.1243268268368429e+00 8.9754246798137132e+00 9.0842983444837358e+01 
520 122 2 1.0280025933733039e+00 4.3247507286839382e+03 4.2000000000000000e+03 2.2979258566019327e+00 9.0931969458114388e+00 9.0493830809187287e+01 
1450 1052 2 1.0280022284093095e+00 -3.1947980781737369e+03 4.2000000000000000e+03 1.9446203998709999e+00 9.5599072724538843e+00 9.0460261785644391e+01 
1075 677 2 1.0280018794300658e+00 1.7293442387733953e+03 4.2000000000000000e+03 2.2237818870756638e+00 9.6876546571761697e+00 9.0356928412675217e+01 
1454 1056 2 1.0280005471765219e+00 -3.2905235105700849e+03 4.2000000000000000e+03 3.5454276486192824e+00 9.9553503675614934e+00 8.9944169330558168e+01 
1630 1232 2 1.0280011752743614e+00 -1.6460083665773286e+03 4.2000000000000000e+03 6.7084485922024957e+00 9.4491741585882600e+00 8.9930634265882787e+01 
1557 1159 2 1.0280003784091576e+00 2.0276374646082488e+03 4.2000000000000000e+03 5.0618139335527861e+00 9.3284765784580390e+00 8.9617989295622209e+01 
461 63 2 1.0280005505323120e+00 4.5243782219293080e+03 4.2000000000000000e+03 5.3670516662414016e+00 9.4068595864149405e+00 8.9678803391653332e+01 
1091 693 2 1.0280003548098395e+00 -1.5221183925209330e+03 4.2000000000000000e+03 4.5315291655888830e+00 9.9945054327064646e+00 8.9815725934127556e+01 
2062 1664 2 1.0280005594040713e+00 1.6205631200388787e+03 4.2000000000000000e+03 4.2556545585975165e+00 1.0959702214544041e+01 9.0473418058077343e+01 