LAMMPS data file via write_data, version 30 Jul 2016, timestep = 50000000

180 atoms
2 atom types

0.0000000000000000e+00 2.0000000000000000e+01 xlo xhi
0.0000000000000000e+00 2.0000000000000000e+01 ylo yhi
0.0000000000000000e+00 2.0000000000000000e+01 zlo zhi

Masses

1 3.896
2 4.31

Atoms # meso-molecular

119 1 2 1.0279999970415983e+00 -4.9377414927711811e+01 1.0000000000000000e+00 2.6253590738442480e+00 6.8175451198595569e+00 2.3321034375236271e+00 
155 1 2 1.0279999970415983e+00 -4.9350860067378775e+01 1.0000000000000000e+00 2.6253590738442480e+00 6.8175451198595569e+00 2.3321034375236271e+00 
150 1 2 1.0279999970415983e+00 -5.1637911227139284e+01 1.0000000000000000e+00 2.6253590738442480e+00 6.8175451198595569e+00 2.3321034375236271e+00 
114 1 2 1.0279999970415983e+00 -3.7637481675313055e+01 1.0000000000000000e+00 2.6253590738442480e+00 6.8175451198595569e+00 2.3321034375236271e+00 
120 1 2 1.0279999970415983e+00 -5.4466959452608663e+01 1.0000000000000000e+00 2.6253590738442480e+00 6.8175451198595569e+00 2.3321034375236271e+00 
156 1 2 1.0279999970415983e+00 -5.4061234434672727e+01 1.0000000000000000e+00 2.6253590738442480e+00 6.8175451198595569e+00 2.3321034375236271e+00 
149 1 2 1.0279999970415983e+00 -4.3749248130717831e+01 1.0000000000000000e+00 2.6253590738442480e+00 6.8175451198595569e+00 2.3321034375236271e+00 
127 1 2 1.0279999970415989e+00 -3.0163019419097481e+01 1.0000000000000000e+00 2.4166269617008598e+00 6.1877313680512698e+00 5.5305525260595321e+00 
51 1 2 1.0279999970415989e+00 -4.1893890643878478e+01 1.0000000000000000e+00 2.4166269617008451e+00 6.1877313680512618e+00 5.5305525260595303e+00 
43 1 2 1.0279999970415989e+00 -3.2898944332123421e+01 1.0000000000000000e+00 2.4166269617008598e+00 6.1877313680512698e+00 5.5305525260595321e+00 
64 1 2 1.0279999970415989e+00 -2.1804252886421018e+01 1.0000000000000000e+00 2.4166269617008451e+00 6.1877313680512707e+00 5.5305525260595321e+00 
100 1 2 1.0279999970415989e+00 -2.3197108442880729e+01 1.0000000000000000e+00 2.4166269617008451e+00 6.1877313680512707e+00 5.5305525260595321e+00 
6 1 2 1.0279999970415989e+00 7.8592373941724336e-01 1.0000000000000000e+00 2.4166269617008451e+00 6.1877313680512707e+00 5.5305525260595321e+00 
55 1 2 1.0279999970415989e+00 -4.7950434426928027e+01 1.0000000000000000e+00 2.4166269617008451e+00 6.1877313680512618e+00 5.5305525260595303e+00 
17 1 2 1.0279969511486358e+00 -3.0945892955709070e+01 1.0000000000000000e+00 6.0646770178270213e+00 1.4516229967541370e+00 1.3421249580083296e+01 
44 1 2 1.0279969511486360e+00 -3.7336254662017019e+01 1.0000000000000000e+00 6.0646770178270133e+00 1.4516229967541092e+00 1.3421249580083300e+01 
8 1 2 1.0279969511486358e+00 -4.0107382718583828e+01 1.0000000000000000e+00 6.0646770178270213e+00 1.4516229967541370e+00 1.3421249580083296e+01 
2 1 2 1.0279969511486355e+00 -3.2147596145501616e+01 1.0000000000000000e+00 6.0646770178270248e+00 1.4516229967541228e+00 1.3421249580083291e+01 
1 1 2 1.0279969511486358e+00 -3.6384903571045818e+01 1.0000000000000000e+00 6.0646770178270666e+00 1.4516229967541594e+00 1.3421249580083263e+01 
11 1 2 1.0279969511486358e+00 -2.9464950202473400e+01 1.0000000000000000e+00 6.0646770178270213e+00 1.4516229967541370e+00 1.3421249580083296e+01 
19 1 2 1.0280005690558722e+00 -3.5144893165475203e+01 1.0000000000000000e+00 4.7458804424050669e+00 4.1574052105374584e+00 1.5560834055099701e+01 
31 1 2 1.0280005690558722e+00 -3.4452266457909907e+01 1.0000000000000000e+00 4.7458804424051255e+00 4.1574052105375321e+00 1.5560834055099555e+01 
79 1 2 1.0280005690558722e+00 -1.6699738155806813e+01 1.0000000000000000e+00 4.7458804424050580e+00 4.1574052105374495e+00 1.5560834055099697e+01 
91 1 2 1.0280005690558722e+00 -3.3806112658052335e+01 1.0000000000000000e+00 4.7458804424050580e+00 4.1574052105374495e+00 1.5560834055099697e+01 
25 1 2 1.0280005690558722e+00 -3.3725789152068749e+01 1.0000000000000000e+00 4.7458804424051255e+00 4.1574052105375321e+00 1.5560834055099555e+01 
12 1 2 1.0280005690558722e+00 -3.9522096369242227e+01 1.0000000000000000e+00 4.7458804424051042e+00 4.1574052105375072e+00 1.5560834055099544e+01 
32 1 2 1.0280005690558722e+00 -3.1333578620182422e+01 1.0000000000000000e+00 4.7458804424051433e+00 4.1574052105375516e+00 1.5560834055099551e+01 
157 1 2 1.0279988811439102e+00 -2.4096731242485351e+01 1.0000000000000000e+00 4.8182412314194751e+00 2.7708295809219152e-01 1.9234591072197553e+01 
152 1 2 1.0279988811439089e+00 -3.3638746975566207e+01 1.0000000000000000e+00 4.8182412314194876e+00 2.7708295809220618e-01 1.9234591072197567e+01 
117 1 2 1.0279988811439098e+00 -3.7478730719985350e+01 1.0000000000000000e+00 4.8182412314193348e+00 2.7708295809220285e-01 1.9234591072197404e+01 
153 1 2 1.0279988811439102e+00 -3.3598321803797077e+01 1.0000000000000000e+00 4.8182412314194929e+00 2.7708295809222050e-01 1.9234591072197567e+01 
69 1 2 1.0279988811439100e+00 -2.4791239694133864e+01 1.0000000000000000e+00 4.8182412314193890e+00 2.7708295809217776e-01 1.9234591072197464e+01 
26 1 2 1.0279927994645723e+00 -2.4088782309503351e+01 1.0000000000000000e+00 6.6411696305310182e+00 1.7402671838752559e+00 1.7832797554286294e+01 
27 1 2 1.0279927994645723e+00 -7.5392604292987917e+00 1.0000000000000000e+00 6.6411696305310377e+00 1.7402671838747992e+00 1.7832797554287129e+01 
68 1 2 1.0279927994645721e+00 -1.8498731494950068e+01 1.0000000000000000e+00 6.6411696305311319e+00 1.7402671838748434e+00 1.7832797554286934e+01 
63 1 2 1.0279927994645723e+00 -1.9261208972007523e+01 1.0000000000000000e+00 6.6411696305310182e+00 1.7402671838752559e+00 1.7832797554286294e+01 
105 1 2 1.0279927994645723e+00 -2.5308501556967343e+01 1.0000000000000000e+00 6.6411696305310057e+00 1.7402671838752548e+00 1.7832797554286312e+01 
178 1 2 1.0279930180946641e+00 -1.2284004295485826e+01 1.0000000000000000e+00 6.3447991483698178e+00 1.8605037451563291e+01 1.4878744144140950e+00 
48 1 2 1.0279930180946641e+00 -3.3628698105337143e+01 1.0000000000000000e+00 6.3447991483698178e+00 1.8605037451563291e+01 1.4878744144140950e+00 
179 1 2 1.0279930180946641e+00 -9.0244639818057024e+00 1.0000000000000000e+00 6.3447991483698178e+00 1.8605037451563291e+01 1.4878744144140950e+00 
174 1 2 1.0279930180946641e+00 -5.2619163915864045e+00 1.0000000000000000e+00 6.3447991483698178e+00 1.8605037451563291e+01 1.4878744144140950e+00 
144 1 2 1.0279930180946641e+00 1.7774550024285734e+01 1.0000000000000000e+00 6.3447991483698178e+00 1.8605037451563291e+01 1.4878744144140950e+00 
180 1 2 1.0279930180946641e+00 -5.1356197005130513e+00 1.0000000000000000e+00 6.3447991483698178e+00 1.8605037451563291e+01 1.4878744144140950e+00 
131 1 2 1.0279930180946641e+00 -4.0890308836705856e+01 1.0000000000000000e+00 6.3447991483698196e+00 1.8605037451563291e+01 1.4878744144140934e+00 
148 1 2 1.0279957583191215e+00 -3.5232965095534638e+01 1.0000000000000000e+00 3.4544496954980071e+00 1.6519932481040470e+01 9.9437750988419538e+00 
113 1 2 1.0279957583191215e+00 -3.8404609559857860e+01 1.0000000000000000e+00 3.4544496954980071e+00 1.6519932481040470e+01 9.9437750988419538e+00 
111 1 2 1.0279957583191215e+00 -2.7078524685130649e+01 1.0000000000000000e+00 3.4544496954980071e+00 1.6519932481040470e+01 9.9437750988419538e+00 
112 1 2 1.0279957583191215e+00 -3.3703427784790946e+01 1.0000000000000000e+00 3.4544496954980071e+00 1.6519932481040470e+01 9.9437750988419538e+00 
121 1 2 1.0279957583191215e+00 -2.8625407735568860e+01 1.0000000000000000e+00 3.4544496954980071e+00 1.6519932481040470e+01 9.9437750988419538e+00 
118 1 2 1.0279957583191215e+00 -4.3601667329002126e+01 1.0000000000000000e+00 3.4544496954980071e+00 1.6519932481040470e+01 9.9437750988419538e+00 
154 1 2 1.0279957583191215e+00 -4.3355936589036062e+01 1.0000000000000000e+00 3.4544496954980071e+00 1.6519932481040470e+01 9.9437750988419538e+00 
132 1 2 1.0280021789639473e+00 -4.5878901532560732e+01 1.0000000000000000e+00 3.2668156094438632e+00 1.5526672317827567e+01 1.2973842895098153e+01 
122 1 2 1.0280021789639471e+00 -4.4818704725292974e+01 1.0000000000000000e+00 3.2668156094438339e+00 1.5526672317827574e+01 1.2973842895098169e+01 
125 1 2 1.0280021789639469e+00 -1.8962859460590238e+01 1.0000000000000000e+00 3.2668156094438849e+00 1.5526672317827563e+01 1.2973842895098139e+01 
126 1 2 1.0280021789639329e+00 -1.9949959101201699e+01 1.0000000000000000e+00 3.2668156176197543e+00 1.5526672417449888e+01 1.2973842857967716e+01 
167 1 2 1.0280021789638973e+00 -3.0039456713412953e+01 1.0000000000000000e+00 3.2668156063411931e+00 1.5526672018271199e+01 1.2973842992498021e+01 
141 1 2 1.0280047203995886e+00 -4.7516824675150453e+01 1.0000000000000000e+00 5.9251470241963142e+00 1.1495044037359790e+01 1.4074208909875171e+01 
33 1 2 1.0280047203995886e+00 -1.9926142647569819e+01 1.0000000000000000e+00 5.9251470241963062e+00 1.1495044037359785e+01 1.4074208909875175e+01 
115 1 2 1.0280047203995886e+00 -3.6900968891982679e+01 1.0000000000000000e+00 5.9251470241963142e+00 1.1495044037359790e+01 1.4074208909875171e+01 
135 1 2 1.0280047203995886e+00 -3.5224605296620304e+01 1.0000000000000000e+00 5.9251470241963062e+00 1.1495044037359785e+01 1.4074208909875175e+01 
177 1 2 1.0280047203995886e+00 -3.5412699203718503e+01 1.0000000000000000e+00 5.9251470241963142e+00 1.1495044037359790e+01 1.4074208909875171e+01 
62 1 2 1.0280047203995886e+00 -2.4627070187996573e+01 1.0000000000000000e+00 5.9251470241963142e+00 1.1495044037359790e+01 1.4074208909875171e+01 
14 1 2 1.0280047203995886e+00 -5.3263600965221976e+01 1.0000000000000000e+00 5.9251470241963142e+00 1.1495044037359790e+01 1.4074208909875171e+01 
20 1 2 1.0279990494214675e+00 -3.7101585220452165e+01 1.0000000000000000e+00 4.6717439683537032e+00 1.4436130791752218e+01 1.4563468160283996e+01 
47 1 2 1.0279990494214675e+00 -4.0353897753306462e+01 1.0000000000000000e+00 4.6717439683537032e+00 1.4436130791752218e+01 1.4563468160283996e+01 
75 1 2 1.0279990494214677e+00 -2.1779061645201740e+01 1.0000000000000000e+00 4.6717439683537334e+00 1.4436130791752301e+01 1.4563468160284039e+01 
168 1 2 1.0279990494214670e+00 -4.5109534094850247e+01 1.0000000000000000e+00 4.6717439683536943e+00 1.4436130791752269e+01 1.4563468160284044e+01 
74 1 2 1.0279990494214675e+00 -1.9849426139475561e+01 1.0000000000000000e+00 4.6717439683537032e+00 1.4436130791752218e+01 1.4563468160283996e+01 
38 1 2 1.0279990494214670e+00 -1.8510726788741504e+01 1.0000000000000000e+00 4.6717439683536943e+00 1.4436130791752269e+01 1.4563468160284044e+01 
13 1 2 1.0280069442324324e+00 -2.4266022936620367e+01 1.0000000000000000e+00 6.6319439764497314e+00 1.6499501815204386e+01 1.6426582270596196e+01 
85 1 2 1.0280069442324327e+00 -2.6041401078645791e+01 1.0000000000000000e+00 6.6319439764497350e+00 1.6499501815204376e+01 1.6426582270596192e+01 
35 1 2 1.0280069442324327e+00 -9.4942409941663861e+00 1.0000000000000000e+00 6.6319439764497350e+00 1.6499501815204376e+01 1.6426582270596192e+01 
7 1 2 1.0280069442324327e+00 -4.3088681400237633e+01 1.0000000000000000e+00 6.6319439764497350e+00 1.6499501815204376e+01 1.6426582270596192e+01 
34 1 2 1.0280069442324327e+00 -6.7226906811131393e+00 1.0000000000000000e+00 6.6319439764497350e+00 1.6499501815204376e+01 1.6426582270596192e+01 
18 1 2 1.0280069442324324e+00 -3.6673372255218709e+01 1.0000000000000000e+00 6.6319439764497314e+00 1.6499501815204386e+01 1.6426582270596196e+01 
54 1 2 1.0280069442324327e+00 -1.1736775344367382e+01 1.0000000000000000e+00 6.6319439764497350e+00 1.6499501815204376e+01 1.6426582270596192e+01 
46 1 2 1.0279993984929860e+00 -3.7063475702398847e+01 1.0000000000000000e+00 3.3328043855481533e+00 1.7344835560653586e+01 1.4450061339095319e+01 
86 1 2 1.0279993984929860e+00 -3.7809288120288556e+01 1.0000000000000000e+00 3.3328043855481142e+00 1.7344835560654349e+01 1.4450061339095438e+01 
82 1 2 1.0279993984929858e+00 -3.9161795107265405e+01 1.0000000000000000e+00 3.3328043855481511e+00 1.7344835560653593e+01 1.4450061339095319e+01 
88 1 2 1.0279993984929863e+00 -1.1194405892372181e+01 1.0000000000000000e+00 3.3328043855482226e+00 1.7344835560653582e+01 1.4450061339095349e+01 
81 1 2 1.0279993984929860e+00 -5.7617897537921905e+01 1.0000000000000000e+00 3.3328043855481142e+00 1.7344835560654349e+01 1.4450061339095438e+01 
109 1 2 1.0280084191477519e+00 -4.8842092504513850e+01 1.0000000000000000e+00 3.7984022371930295e+00 1.9669105210243700e+01 1.4317717689159029e+01 
73 1 2 1.0280084191477508e+00 -5.0625767986084931e+01 1.0000000000000000e+00 3.7984022371990420e+00 1.9669105210245014e+01 1.4317717689157314e+01 
42 1 2 1.0280084191477508e+00 -3.7919695899446602e+01 1.0000000000000000e+00 3.7984022371990420e+00 1.9669105210245014e+01 1.4317717689157314e+01 
78 1 2 1.0280084191477508e+00 -3.8798058879789316e+01 1.0000000000000000e+00 3.7984022371990420e+00 1.9669105210245014e+01 1.4317717689157314e+01 
67 1 2 1.0280084191477508e+00 -5.9970053233912715e+01 1.0000000000000000e+00 3.7984022371990420e+00 1.9669105210245014e+01 1.4317717689157314e+01 
37 1 2 1.0280084191477519e+00 -5.6440040121065529e+01 1.0000000000000000e+00 3.7984022371930295e+00 1.9669105210243700e+01 1.4317717689159029e+01 
140 1 2 1.0280180679296003e+00 -2.9701325889989349e+01 1.0000000000000000e+00 1.2856530937169823e+00 1.9979287096036714e+01 1.7158198918717780e+01 
134 1 2 1.0280180679296000e+00 -2.9236160879765603e+01 1.0000000000000000e+00 1.2856530937169317e+00 1.9979287096036778e+01 1.7158198918717812e+01 
139 1 2 1.0280180679296003e+00 -3.4225054198522940e+01 1.0000000000000000e+00 1.2856530937169255e+00 1.9979287096036778e+01 1.7158198918717769e+01 
80 1 2 1.0280180679296000e+00 -4.9718340463033904e+01 1.0000000000000000e+00 1.2856530937169259e+00 1.9979287096036789e+01 1.7158198918717829e+01 
104 1 2 1.0280180679296003e+00 -4.9074209894324170e+01 1.0000000000000000e+00 1.2856530937169255e+00 1.9979287096036778e+01 1.7158198918717769e+01 
92 1 2 1.0280180679296003e+00 -4.0563005581375393e+01 1.0000000000000000e+00 1.2856530937169255e+00 1.9979287096036778e+01 1.7158198918717769e+01 
123 1 2 1.0280180679296000e+00 -4.9053390516956085e+01 1.0000000000000000e+00 1.2856530937169317e+00 1.9979287096036778e+01 1.7158198918717812e+01 
4 1 2 1.0280065687241799e+00 -3.7557504666197261e+01 1.0000000000000000e+00 5.6505177784089575e+00 1.9743298792692695e+01 1.7688364596016335e+01 
52 1 2 1.0280065687241808e+00 -2.3167084542063836e+01 1.0000000000000000e+00 5.6505177784089433e+00 1.9743298792692467e+01 1.7688364596016605e+01 
5 1 2 1.0280065687241793e+00 -3.8163175793069172e+01 1.0000000000000000e+00 5.6505177784089806e+00 1.9743298792692627e+01 1.7688364596016413e+01 
57 1 2 1.0280065687241802e+00 -3.8105958483838336e+01 1.0000000000000000e+00 5.6505177784089771e+00 1.9743298792692684e+01 1.7688364596016349e+01 
171 1 2 1.0279992520166195e+00 -3.8049717250643518e+01 1.0000000000000000e+00 9.3211495063134802e+00 1.6987163602052722e+00 4.1538342663174825e+00 
159 1 2 1.0279992520166195e+00 -3.2255351729661463e+01 1.0000000000000000e+00 9.3211495063134500e+00 1.6987163602063169e+00 4.1538342663191647e+00 
160 1 2 1.0279992520166195e+00 -3.9208640253301773e+01 1.0000000000000000e+00 9.3211495063134500e+00 1.6987163602063169e+00 4.1538342663191647e+00 
166 1 2 1.0279992520166195e+00 -3.7492709012746708e+01 1.0000000000000000e+00 9.3211495063149599e+00 1.6987163602075392e+00 4.1538342663120007e+00 
136 1 2 1.0279992520166195e+00 -4.5001978033681887e+01 1.0000000000000000e+00 9.3211495063137875e+00 1.6987163602066722e+00 4.1538342663176868e+00 
165 1 2 1.0279992520166195e+00 -3.0278034625428315e+01 1.0000000000000000e+00 9.3211495063134500e+00 1.6987163602063169e+00 4.1538342663191647e+00 
172 1 2 1.0279992520166195e+00 -4.1499348626036813e+01 1.0000000000000000e+00 9.3211495063137875e+00 1.6987163602066722e+00 4.1538342663176868e+00 
129 1 2 1.0279992520166190e+00 -3.3844830722148536e+01 1.0000000000000000e+00 1.2453248795769211e+01 9.3737390427880019e-01 4.6836475566281690e+00 
70 1 2 1.0279992520166190e+00 -4.2617461197534872e+01 1.0000000000000000e+00 1.2453248795769211e+01 9.3737390427880019e-01 4.6836475566281690e+00 
128 1 2 1.0279992520166190e+00 -5.4648114364422717e+01 1.0000000000000000e+00 1.2453248795769211e+01 9.3737390427880019e-01 4.6836475566281690e+00 
163 1 2 1.0279992520166190e+00 -4.0475517095738574e+01 1.0000000000000000e+00 1.2453248795769211e+01 9.3737390427880019e-01 4.6836475566281690e+00 
65 1 2 1.0279992520166190e+00 -4.9103781488727172e+01 1.0000000000000000e+00 1.2453248795769211e+01 9.3737390427880019e-01 4.6836475566281690e+00 
164 1 2 1.0279992520166190e+00 -5.5304668752277287e+01 1.0000000000000000e+00 1.2453248795769211e+01 9.3737390427880019e-01 4.6836475566281690e+00 
71 1 2 1.0279992520166190e+00 -4.2442283783731291e+01 1.0000000000000000e+00 1.2453248795769211e+01 9.3737390427880019e-01 4.6836475566281690e+00 
176 1 2 1.0280007700866223e+00 -4.0010258184339811e+01 1.0000000000000000e+00 1.1785979410464286e+01 4.2574646294257752e+00 9.5303865084881600e+00 
170 1 2 1.0280007700866232e+00 -3.9299328486918675e+01 1.0000000000000000e+00 1.1785979410393992e+01 4.2574646294938248e+00 9.5303865084877906e+00 
133 1 2 1.0280007700866234e+00 -4.4093410151352913e+01 1.0000000000000000e+00 1.1785979410463792e+01 4.2574646294264120e+00 9.5303865084881707e+00 
169 1 2 1.0280007700866229e+00 -4.1527428190613854e+01 1.0000000000000000e+00 1.1785979410431979e+01 4.2574646294561331e+00 9.5303865084879291e+00 
56 1 2 1.0280007700866240e+00 -4.4079689846341189e+01 1.0000000000000000e+00 1.1785979410414447e+01 4.2574646294741409e+00 9.5303865084879096e+00 
175 1 2 1.0280007700866236e+00 -4.8172362817736378e+01 1.0000000000000000e+00 1.1785979410476944e+01 4.2574646294127909e+00 9.5303865084881796e+00 
28 1 2 1.0279999433825400e+00 -2.8557666203146397e+01 1.0000000000000000e+00 1.0156979344888711e+01 1.7219886234170607e+00 1.2946552895302942e+01 
162 1 2 1.0279999433825400e+00 -4.5413871223700873e+01 1.0000000000000000e+00 1.0156979344888711e+01 1.7219886234170607e+00 1.2946552895302942e+01 
173 1 2 1.0279999433825400e+00 -1.3848670476210804e+01 1.0000000000000000e+00 1.0156979344888711e+01 1.7219886234170607e+00 1.2946552895302942e+01 
49 1 2 1.0279999433825400e+00 -4.5479455482479514e+00 1.0000000000000000e+00 1.0156979344888711e+01 1.7219886234170607e+00 1.2946552895302942e+01 
138 1 2 1.0279999433825400e+00 -1.9579411902101420e+01 1.0000000000000000e+00 1.0156979344888711e+01 1.7219886234170607e+00 1.2946552895302942e+01 
137 1 2 1.0279999433825400e+00 -1.9686784752749368e+01 1.0000000000000000e+00 1.0156979344888711e+01 1.7219886234170607e+00 1.2946552895302942e+01 
101 1 2 1.0279993627977246e+00 -4.4760904796102210e+01 1.0000000000000000e+00 1.2775586969392457e+01 3.3084159497076602e+00 1.1856607179040223e+01 
107 1 2 1.0279993627977260e+00 -4.7308363054862625e+01 1.0000000000000000e+00 1.2775586969392407e+01 3.3084159497076318e+00 1.1856607179040275e+01 
106 1 2 1.0279993627977260e+00 -4.1214113042648123e+01 1.0000000000000000e+00 1.2775586969392421e+01 3.3084159497076446e+00 1.1856607179040260e+01 
142 1 2 1.0279993627977262e+00 -4.7179069716547730e+01 1.0000000000000000e+00 1.2775586969392496e+01 3.3084159497076624e+00 1.1856607179040145e+01 
40 1 2 1.0279993627977246e+00 -4.8183095680249117e+01 1.0000000000000000e+00 1.2775586969392354e+01 3.3084159497076540e+00 1.1856607179040399e+01 
143 1 2 1.0279993627977255e+00 -3.2262842962910739e+01 1.0000000000000000e+00 1.2775586969392450e+01 3.3084159497076637e+00 1.1856607179040232e+01 
72 1 2 1.0279999646364779e+00 -4.7335643815008439e+01 1.0000000000000000e+00 1.0518034880875998e+01 4.8557068387200868e+00 1.1809079922408030e+01 
36 1 2 1.0279999646364792e+00 -3.9731273497154234e+01 1.0000000000000000e+00 1.0518034880875998e+01 4.8557068387200726e+00 1.1809079922408040e+01 
102 1 2 1.0279999646364795e+00 -4.3381896063836798e+01 1.0000000000000000e+00 1.0518034880875982e+01 4.8557068387200921e+00 1.1809079922407991e+01 
60 1 2 1.0279999646364792e+00 -4.6394312423203303e+01 1.0000000000000000e+00 1.0518034880876000e+01 4.8557068387200788e+00 1.1809079922408035e+01 
108 1 2 1.0279999646364797e+00 -4.3504059568954297e+01 1.0000000000000000e+00 1.0518034880875977e+01 4.8557068387200362e+00 1.1809079922408047e+01 
66 1 2 1.0279999646364792e+00 -5.1240398315362846e+01 1.0000000000000000e+00 1.0518034880876087e+01 4.8557068387201721e+00 1.1809079922408058e+01 
39 1 2 1.0280027656830744e+00 -2.1406796342819334e+01 1.0000000000000000e+00 7.1893153791060360e+00 2.1692818073119744e+00 1.5620814739521483e+01 
45 1 2 1.0280027656830746e+00 -2.7805293373308082e+01 1.0000000000000000e+00 7.1893153791060547e+00 2.1692818073119957e+00 1.5620814739521462e+01 
10 1 2 1.0280027656830741e+00 -1.4418416598428877e+01 1.0000000000000000e+00 7.1893153791061621e+00 2.1692818073120277e+00 1.5620814739521405e+01 
3 1 2 1.0280027656830741e+00 -2.7385954970113197e+01 1.0000000000000000e+00 7.1893153791061621e+00 2.1692818073120277e+00 1.5620814739521405e+01 
77 1 2 1.0279990543365272e+00 -5.1481553934977363e+01 1.0000000000000000e+00 8.4914088911333927e+00 2.5681909303572095e+00 1.4095203185378868e+01 
76 1 2 1.0279990543365276e+00 -4.2763667974677837e+01 1.0000000000000000e+00 8.4914088911336556e+00 2.5681909303571500e+00 1.4095203185378860e+01 
41 1 2 1.0279990543365267e+00 -4.1651301806414274e+01 1.0000000000000000e+00 8.4914088911334336e+00 2.5681909303571944e+00 1.4095203185378910e+01 
9 1 2 1.0279991246510072e+00 -1.2655752533099076e+01 1.0000000000000000e+00 8.4974879034273680e+00 2.5666025379690542e+00 1.4096470365110369e+01 
89 1 2 1.0280032720264367e+00 -4.7075224921939068e+01 1.0000000000000000e+00 7.5688771937762462e+00 1.9302642209146981e+01 1.1527561317005171e+01 
96 1 2 1.0280032720264367e+00 -4.5848196069845152e+01 1.0000000000000000e+00 7.5688771937762604e+00 1.9302642209146999e+01 1.1527561317005164e+01 
94 1 2 1.0280032720264367e+00 -4.2387758564189198e+01 1.0000000000000000e+00 7.5688771937762604e+00 1.9302642209146999e+01 1.1527561317005164e+01 
59 1 2 1.0280032720264367e+00 -3.7413501171810694e+01 1.0000000000000000e+00 7.5688771937762604e+00 1.9302642209146999e+01 1.1527561317005164e+01 
124 1 2 1.0280032720264367e+00 -4.2888344358969889e+01 1.0000000000000000e+00 7.5688771937762604e+00 1.9302642209146999e+01 1.1527561317005164e+01 
130 1 2 1.0280032720264367e+00 -4.1617757696853744e+01 1.0000000000000000e+00 7.5688771937762551e+00 1.9302642209146988e+01 1.1527561317005171e+01 
95 1 2 1.0280032720264367e+00 -6.3491601266403364e+01 1.0000000000000000e+00 7.5688771937762604e+00 1.9302642209146999e+01 1.1527561317005164e+01 
99 1 2 1.0280013494244751e+00 -1.3790893493616524e+01 1.0000000000000000e+00 8.5767138895693176e+00 1.9140824409094900e+01 1.5606660668847754e+01 
146 1 2 1.0280013494244751e+00 -4.1397361141094656e+01 1.0000000000000000e+00 8.5767138895693176e+00 1.9140824409094900e+01 1.5606660668847754e+01 
98 1 2 1.0280013494244751e+00 -4.9903347949647390e+01 1.0000000000000000e+00 8.5767138895693176e+00 1.9140824409094900e+01 1.5606660668847754e+01 
93 1 2 1.0280013494244751e+00 -1.6463446377012449e+01 1.0000000000000000e+00 8.5767138895693176e+00 1.9140824409094900e+01 1.5606660668847754e+01 
97 1 2 1.0280013494244751e+00 -4.9626792197932836e+01 1.0000000000000000e+00 8.5767138895693176e+00 1.9140824409094900e+01 1.5606660668847754e+01 
103 1 2 1.0280013494244751e+00 -4.2888273066571422e+01 1.0000000000000000e+00 8.5767138895693176e+00 1.9140824409094900e+01 1.5606660668847754e+01 
61 1 2 1.0280013494244751e+00 -4.3186657578616995e+01 1.0000000000000000e+00 8.5767138895693176e+00 1.9140824409094900e+01 1.5606660668847754e+01 
30 1 2 1.0280004301902554e+00 -3.1958502684178271e+01 1.0000000000000000e+00 1.4587634622271626e+01 1.7671582222199390e+01 1.5048169339167893e+01 
29 1 2 1.0280004301902554e+00 -2.7997813879377755e+01 1.0000000000000000e+00 1.4587634622271626e+01 1.7671582222199390e+01 1.5048169339167893e+01 
50 1 2 1.0280004301902554e+00 -2.7849427933406851e+01 1.0000000000000000e+00 1.4587634622271626e+01 1.7671582222199390e+01 1.5048169339167893e+01 
23 1 2 1.0280004301902554e+00 -2.7719949553811688e+01 1.0000000000000000e+00 1.4587634622271626e+01 1.7671582222199390e+01 1.5048169339167893e+01 
90 1 2 1.0280004301902554e+00 1.2331518522262316e+01 1.0000000000000000e+00 1.4587634622271626e+01 1.7671582222199390e+01 1.5048169339167893e+01 
24 1 2 1.0280004301902554e+00 -3.1255191917994249e+01 1.0000000000000000e+00 1.4587634622271626e+01 1.7671582222199390e+01 1.5048169339167893e+01 
84 1 2 1.0280004301902554e+00 1.3115409704777603e+01 1.0000000000000000e+00 1.4587634622271626e+01 1.7671582222199390e+01 1.5048169339167893e+01 
147 1 2 1.0280004301902552e+00 -3.9022229408929036e+01 1.0000000000000000e+00 1.7178636122225782e+01 1.9096558252744678e+01 1.3660214222266509e+01 
116 1 2 1.0280004301902552e+00 -3.4179593539873451e+01 1.0000000000000000e+00 1.7178636122225782e+01 1.9096558252744678e+01 1.3660214222266509e+01 
110 1 2 1.0280004301902552e+00 -3.9714640477111232e+01 1.0000000000000000e+00 1.7178636122225782e+01 1.9096558252744678e+01 1.3660214222266509e+01 
158 1 2 1.0280004301902552e+00 -2.2170573422200849e+01 1.0000000000000000e+00 1.7178636122225782e+01 1.9096558252744678e+01 1.3660214222266509e+01 
58 1 2 1.0280004301902552e+00 -4.1336232353137277e+01 1.0000000000000000e+00 1.7178636122225782e+01 1.9096558252744678e+01 1.3660214222266509e+01 
151 1 2 1.0280004301902552e+00 -2.2392107480450065e+01 1.0000000000000000e+00 1.7178636122225782e+01 1.9096558252744678e+01 1.3660214222266509e+01 
145 1 2 1.0280004301902552e+00 -2.3418175988972315e+01 1.0000000000000000e+00 1.7178636122225782e+01 1.9096558252744678e+01 1.3660214222266509e+01 
83 1 2 1.0280005949991526e+00 -3.9278640132168242e+01 1.0000000000000000e+00 1.8568059857094905e+01 1.8224800016620247e+01 1.7780033786845504e+01 
161 1 2 1.0280005949991209e+00 -5.1132162195934761e+01 1.0000000000000000e+00 1.8568059856984622e+01 1.8224800018569823e+01 1.7780033785116206e+01 
87 1 2 1.0280005949991169e+00 -6.5505658044023818e+01 1.0000000000000000e+00 1.8568059856970699e+01 1.8224800018754497e+01 1.7780033784948788e+01 
53 1 2 1.0280005991148773e+00 -3.9616396439955530e+01 1.0000000000000000e+00 1.8568075189243121e+01 1.8224526895978862e+01 1.7780275719618139e+01 
22 1 2 1.0279960778068511e+00 -5.0748430988044021e+01 1.0000000000000000e+00 1.9065791084350153e+01 1.7545512761333786e+01 1.7157583444917247e+01 
21 1 2 1.0279960778068511e+00 -5.9066018212309828e+01 1.0000000000000000e+00 1.9065791084349371e+01 1.7545512761333363e+01 1.7157583444917407e+01 
16 1 2 1.0279960778068502e+00 -5.9701454236056883e+01 1.0000000000000000e+00 1.9065791084349446e+01 1.7545512761333505e+01 1.7157583444917247e+01 
15 1 2 1.0279960778068502e+00 -3.9606539070711875e+01 1.0000000000000000e+00 1.9065791084349936e+01 1.7545512761333207e+01 1.7157583444917922e+01 

Velocities

119 -2.8405708421755488e-01 1.1564908000730252e-01 -2.0161737121483533e-01
155 -2.8405708421755488e-01 1.1564908000730252e-01 -2.0161737121483533e-01
150 -2.8405708421755488e-01 1.1564908000730252e-01 -2.0161737121483533e-01
114 -2.8405708421755488e-01 1.1564908000730252e-01 -2.0161737121483533e-01
120 -2.8405708421755488e-01 1.1564908000730252e-01 -2.0161737121483533e-01
156 -2.8405708421755488e-01 1.1564908000730252e-01 -2.0161737121483533e-01
149 -2.8405708421755488e-01 1.1564908000730252e-01 -2.0161737121483533e-01
127 -2.8405708244326300e-01 1.1564908534846366e-01 -2.0161739833408052e-01
51 -2.8405708244326294e-01 1.1564908534846369e-01 -2.0161739833408057e-01
43 -2.8405708244326300e-01 1.1564908534846366e-01 -2.0161739833408052e-01
64 -2.8405708244326294e-01 1.1564908534846369e-01 -2.0161739833408060e-01
100 -2.8405708244326294e-01 1.1564908534846369e-01 -2.0161739833408060e-01
6 -2.8405708244326294e-01 1.1564908534846369e-01 -2.0161739833408060e-01
55 -2.8405708244326294e-01 1.1564908534846369e-01 -2.0161739833408057e-01
17 -3.0049738726299852e-01 1.2234105504455738e-01 -1.9850464586847102e-01
44 -3.0049738726299785e-01 1.2234105504455701e-01 -1.9850464586847030e-01
8 -3.0049738726299852e-01 1.2234105504455738e-01 -1.9850464586847102e-01
2 -3.0049738726299802e-01 1.2234105504455721e-01 -1.9850464586847053e-01
1 -3.0049738726299774e-01 1.2234105504455715e-01 -1.9850464586847028e-01
11 -3.0049738726299852e-01 1.2234105504455738e-01 -1.9850464586847102e-01
19 -3.0025646849301679e-01 1.2150593588014486e-01 -1.9807293800613296e-01
31 -3.0025646849301685e-01 1.2150593588014483e-01 -1.9807293800613296e-01
79 -3.0025646849301674e-01 1.2150593588014469e-01 -1.9807293800613296e-01
91 -3.0025646849301674e-01 1.2150593588014469e-01 -1.9807293800613296e-01
25 -3.0025646849301685e-01 1.2150593588014483e-01 -1.9807293800613296e-01
12 -3.0025646849301685e-01 1.2150593588014494e-01 -1.9807293800613296e-01
32 -3.0025646849301685e-01 1.2150593588014481e-01 -1.9807293800613296e-01
157 -2.9969900414363249e-01 1.1991105279972934e-01 -1.9850702216039334e-01
152 -2.9969900414363104e-01 1.1991105279972941e-01 -1.9850702216039467e-01
117 -2.9969900414363121e-01 1.1991105279972925e-01 -1.9850702216039506e-01
153 -2.9969900414363165e-01 1.1991105279972930e-01 -1.9850702216039440e-01
69 -2.9969900414363287e-01 1.1991105279972950e-01 -1.9850702216039334e-01
26 -3.0003291497493684e-01 1.2031413053890345e-01 -1.9848873578164097e-01
27 -3.0003291497493695e-01 1.2031413053890370e-01 -1.9848873578164131e-01
68 -3.0003291497493695e-01 1.2031413053890343e-01 -1.9848873578164131e-01
63 -3.0003291497493684e-01 1.2031413053890345e-01 -1.9848873578164097e-01
105 -3.0003291497493662e-01 1.2031413053890359e-01 -1.9848873578164108e-01
178 -2.9999159368587563e-01 1.1847000892926207e-01 -1.9938150958212075e-01
48 -2.9999159368587563e-01 1.1847000892926207e-01 -1.9938150958212075e-01
179 -2.9999159368587563e-01 1.1847000892926207e-01 -1.9938150958212075e-01
174 -2.9999159368587563e-01 1.1847000892926207e-01 -1.9938150958212075e-01
144 -2.9999159368587563e-01 1.1847000892926207e-01 -1.9938150958212075e-01