LAMMPS data file via write_data, version 30 Jul 2016, timestep = 50400000

180 atoms
2 atom types

0.0000000000000000e+00 2.0000000000000000e+01 xlo xhi
0.0000000000000000e+00 2.0000000000000000e+01 ylo yhi
0.0000000000000000e+00 2.0000000000000000e+01 zlo zhi

Masses

1 3.896
2 4.31

Atoms # meso-molecular

24 1 2 1.0279997086421895e+00 -3.1255191917901254e+01 1.0000000000000000e+00 2.4820686733517143e+00 2.0401616998623848e+00 6.4341720072233750e+00 
84 1 2 1.0279997086421895e+00 1.3115409705152953e+01 1.0000000000000000e+00 2.4820686733517143e+00 2.0401616998623848e+00 6.4341720072233750e+00 
30 1 2 1.0279997086421895e+00 -3.1958502684085275e+01 1.0000000000000000e+00 2.4820686733517143e+00 2.0401616998623848e+00 6.4341720072233750e+00 
29 1 2 1.0279997086421895e+00 -2.7997813879284760e+01 1.0000000000000000e+00 2.4820686733517143e+00 2.0401616998623848e+00 6.4341720072233750e+00 
50 1 2 1.0279997086421895e+00 -2.7849427933313855e+01 1.0000000000000000e+00 2.4820686733517143e+00 2.0401616998623848e+00 6.4341720072233750e+00 
23 1 2 1.0279997086421895e+00 -2.7719949553718692e+01 1.0000000000000000e+00 2.4820686733517143e+00 2.0401616998623848e+00 6.4341720072233750e+00 
90 1 2 1.0279997086421895e+00 1.2331518522637666e+01 1.0000000000000000e+00 2.4820686733517143e+00 2.0401616998623848e+00 6.4341720072233750e+00 
147 1 2 1.0279997086421901e+00 -3.9022229408929036e+01 1.0000000000000000e+00 5.0735400575635845e+00 3.4648389784896949e+00 5.0467598550995660e+00 
145 1 2 1.0279997086421901e+00 -2.3418175988879320e+01 1.0000000000000000e+00 5.0735400575635845e+00 3.4648389784896949e+00 5.0467598550995660e+00 
151 1 2 1.0279997086421901e+00 -2.2392107480357069e+01 1.0000000000000000e+00 5.0735400575635845e+00 3.4648389784896949e+00 5.0467598550995660e+00 
58 1 2 1.0279997086421901e+00 -4.1336232353137277e+01 1.0000000000000000e+00 5.0735400575635845e+00 3.4648389784896949e+00 5.0467598550995660e+00 
158 1 2 1.0279997086421901e+00 -2.2170573422107854e+01 1.0000000000000000e+00 5.0735400575635845e+00 3.4648389784896949e+00 5.0467598550995660e+00 
110 1 2 1.0279997086421901e+00 -3.9714640477111232e+01 1.0000000000000000e+00 5.0735400575635845e+00 3.4648389784896949e+00 5.0467598550995660e+00 
116 1 2 1.0279997086421901e+00 -3.4179593539873451e+01 1.0000000000000000e+00 5.0735400575635845e+00 3.4648389784896949e+00 5.0467598550995660e+00 
142 1 2 1.0280004401050920e+00 -4.7179069364217767e+01 1.0000000000000000e+00 7.8618599042296089e-01 8.1877087000389484e+00 3.9517352035794207e+00 
101 1 2 1.0280004401050924e+00 -4.4760904443772247e+01 1.0000000000000000e+00 7.8618599042291937e-01 8.1877087000389519e+00 3.9517352035794957e+00 
107 1 2 1.0280004401050920e+00 -4.7308362702532662e+01 1.0000000000000000e+00 7.8618599042286996e-01 8.1877087000389217e+00 3.9517352035795552e+00 
106 1 2 1.0280004401050922e+00 -4.1214112690318160e+01 1.0000000000000000e+00 7.8618599042288562e-01 8.1877087000389359e+00 3.9517352035795410e+00 
143 1 2 1.0280004401050924e+00 -3.2262842610580776e+01 1.0000000000000000e+00 7.8618599042291504e-01 8.1877087000389519e+00 3.9517352035795046e+00 
40 1 2 1.0280004401050926e+00 -4.8183095327919155e+01 1.0000000000000000e+00 7.8618599042281379e-01 8.1877087000389412e+00 3.9517352035796716e+00 
83 1 2 1.0280610910240178e+00 -3.9278667711338443e+01 1.0000000000000000e+00 6.5811773291567688e+00 2.8013793324111242e+00 9.3331716323470708e+00 
87 1 2 1.0280610910237411e+00 -6.5505685623195774e+01 1.0000000000000000e+00 6.5811773290536122e+00 2.8013793345368332e+00 9.3331716303527497e+00 
161 1 2 1.0280610910237657e+00 -5.1132189775105061e+01 1.0000000000000000e+00 6.5811773290657296e+00 2.8013793343528577e+00 9.3331716305284953e+00 
53 1 2 1.0280611310179550e+00 -3.9616424010822058e+01 1.0000000000000000e+00 6.5811899860184342e+00 2.8011073083623175e+00 9.3334260487886294e+00 
129 1 2 1.0279993148114832e+00 -3.3844830721688751e+01 1.0000000000000000e+00 1.1159517044931890e+00 5.4026692948314246e+00 1.7299936595314549e+01 
70 1 2 1.0279993148114832e+00 -4.2617461197075087e+01 1.0000000000000000e+00 1.1159517044931890e+00 5.4026692948314246e+00 1.7299936595314549e+01 
128 1 2 1.0279993148114832e+00 -5.4648114363962932e+01 1.0000000000000000e+00 1.1159517044931890e+00 5.4026692948314246e+00 1.7299936595314549e+01 
163 1 2 1.0279993148114832e+00 -4.0475517095278789e+01 1.0000000000000000e+00 1.1159517044931890e+00 5.4026692948314246e+00 1.7299936595314549e+01 
65 1 2 1.0279993148114832e+00 -4.9103781488267387e+01 1.0000000000000000e+00 1.1159517044931890e+00 5.4026692948314246e+00 1.7299936595314549e+01 
164 1 2 1.0279993148114832e+00 -5.5304668751817502e+01 1.0000000000000000e+00 1.1159517044931890e+00 5.4026692948314246e+00 1.7299936595314549e+01 
71 1 2 1.0279993148114832e+00 -4.2442283783271506e+01 1.0000000000000000e+00 1.1159517044931890e+00 5.4026692948314246e+00 1.7299936595314549e+01 
154 1 2 1.0279748258727763e+00 -4.3355934956040585e+01 1.0000000000000000e+00 1.1321114349910713e+01 1.5123870471006171e+00 1.9575078563396233e+00 
148 1 2 1.0279748258727763e+00 -3.5232963462539161e+01 1.0000000000000000e+00 1.1321114349910713e+01 1.5123870471006171e+00 1.9575078563396233e+00 
113 1 2 1.0279748258727763e+00 -3.8404607926862383e+01 1.0000000000000000e+00 1.1321114349910713e+01 1.5123870471006171e+00 1.9575078563396233e+00 
111 1 2 1.0279748258727763e+00 -2.7078523051991507e+01 1.0000000000000000e+00 1.1321114349910713e+01 1.5123870471006171e+00 1.9575078563396233e+00 
112 1 2 1.0279748258727763e+00 -3.3703426151795469e+01 1.0000000000000000e+00 1.1321114349910713e+01 1.5123870471006171e+00 1.9575078563396233e+00 
121 1 2 1.0279748258727763e+00 -2.8625406102429718e+01 1.0000000000000000e+00 1.1321114349910713e+01 1.5123870471006171e+00 1.9575078563396233e+00 
118 1 2 1.0279748258727763e+00 -4.3601665696006648e+01 1.0000000000000000e+00 1.1321114349910713e+01 1.5123870471006171e+00 1.9575078563396233e+00 
167 1 2 1.0280286130887513e+00 -3.0039447483978474e+01 1.0000000000000000e+00 1.1152352795051723e+01 4.7555180788753537e-01 4.9744608461772648e+00 
126 1 2 1.0280286131032417e+00 -1.9949949871761543e+01 1.0000000000000000e+00 1.1152352805672720e+01 4.7555222654338086e-01 4.9744607021832037e+00 
125 1 2 1.0280286130996843e+00 -1.8962850231151332e+01 1.0000000000000000e+00 1.1152352797363504e+01 4.7555212201764879e-01 4.9744607418471203e+00 
122 1 2 1.0280286130996845e+00 -4.4818695495855060e+01 1.0000000000000000e+00 1.1152352797363454e+01 4.7555212201766373e-01 4.9744607418471487e+00 
132 1 2 1.0280286130996834e+00 -4.5878892303122818e+01 1.0000000000000000e+00 1.1152352797363505e+01 4.7555212201765806e-01 4.9744607418471132e+00 
46 1 2 1.0279885884439552e+00 -3.7063468331763254e+01 1.0000000000000000e+00 1.1241791444854007e+01 2.2638145644714092e+00 6.4661830556720643e+00 
86 1 2 1.0279885884439544e+00 -3.7809280749652963e+01 1.0000000000000000e+00 1.1241791444853986e+01 2.2638145644721481e+00 6.4661830556721291e+00 
82 1 2 1.0279885884439550e+00 -3.9161787736629812e+01 1.0000000000000000e+00 1.1241791444853998e+01 2.2638145644714163e+00 6.4661830556720616e+00 
88 1 2 1.0279885884439550e+00 -1.1194398521733760e+01 1.0000000000000000e+00 1.1241791444854071e+01 2.2638145644714052e+00 6.4661830556720936e+00 
81 1 2 1.0279885884439544e+00 -5.7617890167286312e+01 1.0000000000000000e+00 1.1241791444853986e+01 2.2638145644721481e+00 6.4661830556721291e+00 
67 1 2 1.0280363072003009e+00 -5.9969916017109661e+01 1.0000000000000000e+00 1.1736924681598834e+01 4.6023807673191435e+00 6.3177965867160708e+00 
78 1 2 1.0280363072003009e+00 -3.8797921662986262e+01 1.0000000000000000e+00 1.1736924681598834e+01 4.6023807673191435e+00 6.3177965867160708e+00 
42 1 2 1.0280363072003009e+00 -3.7919558682643547e+01 1.0000000000000000e+00 1.1736924681598834e+01 4.6023807673191435e+00 6.3177965867160708e+00 
73 1 2 1.0280363072003009e+00 -5.0625630769281877e+01 1.0000000000000000e+00 1.1736924681598834e+01 4.6023807673191435e+00 6.3177965867160708e+00 
109 1 2 1.0280363072003083e+00 -4.8841955287710796e+01 1.0000000000000000e+00 1.1736924681592191e+01 4.6023807673190102e+00 6.3177965867176127e+00 
37 1 2 1.0280363072003083e+00 -5.6439902904262475e+01 1.0000000000000000e+00 1.1736924681592191e+01 4.6023807673190102e+00 6.3177965867176127e+00 
16 1 2 1.0279153014050224e+00 -5.9701461311179735e+01 1.0000000000000000e+00 7.0774962481799042e+00 2.1399545720693234e+00 8.7206159149435685e+00 
21 1 2 1.0279153014050222e+00 -5.9066025287432680e+01 1.0000000000000000e+00 7.0774962481798349e+00 2.1399545720691844e+00 8.7206159149437035e+00 
22 1 2 1.0279153014050217e+00 -5.0748438063166873e+01 1.0000000000000000e+00 7.0774962481805499e+00 2.1399545720696338e+00 8.7206159149435756e+00 
15 1 2 1.0279153014050231e+00 -3.9606546145834727e+01 1.0000000000000000e+00 7.0774962481803598e+00 2.1399545720690649e+00 8.7206159149441884e+00 
123 1 2 1.0281184778169856e+00 -4.9053295238015899e+01 1.0000000000000000e+00 9.3591228972168210e+00 4.6473848727227844e+00 8.7473192756590148e+00 
92 1 2 1.0281184778169858e+00 -4.0562910302435206e+01 1.0000000000000000e+00 9.3591228972168228e+00 4.6473848727228040e+00 8.7473192756589668e+00 
139 1 2 1.0281184778169858e+00 -3.4224958919582754e+01 1.0000000000000000e+00 9.3591228972168228e+00 4.6473848727228040e+00 8.7473192756589668e+00 
134 1 2 1.0281184778169856e+00 -2.9236065600827974e+01 1.0000000000000000e+00 9.3591228972168210e+00 4.6473848727227844e+00 8.7473192756590148e+00 
140 1 2 1.0281184778169863e+00 -2.9701230611051720e+01 1.0000000000000000e+00 9.3591228972169151e+00 4.6473848727227463e+00 8.7473192756589828e+00 
80 1 2 1.0281184778169850e+00 -4.9718245184093718e+01 1.0000000000000000e+00 9.3591228972168068e+00 4.6473848727227898e+00 8.7473192756590326e+00 
104 1 2 1.0281184778169858e+00 -4.9074114615383984e+01 1.0000000000000000e+00 9.3591228972168228e+00 4.6473848727228040e+00 8.7473192756589668e+00 
91 1 2 1.0280023989017402e+00 -3.3806112279703399e+01 1.0000000000000000e+00 1.2734412225001625e+01 9.0186005156834330e+00 7.6352357845074295e+00 
12 1 2 1.0280023989017402e+00 -3.9522095990893291e+01 1.0000000000000000e+00 1.2734412225001673e+01 9.0186005156834952e+00 7.6352357845072749e+00 
32 1 2 1.0280023989017402e+00 -3.1333578241919358e+01 1.0000000000000000e+00 1.2734412225001710e+01 9.0186005156835378e+00 7.6352357845072838e+00 
19 1 2 1.0280023989017402e+00 -3.5144892787126267e+01 1.0000000000000000e+00 1.2734412225001632e+01 9.0186005156834419e+00 7.6352357845074330e+00 
25 1 2 1.0280023989017402e+00 -3.3725788773719813e+01 1.0000000000000000e+00 1.2734412225001691e+01 9.0186005156835165e+00 7.6352357845072873e+00 
79 1 2 1.0280023989017402e+00 -1.6699737777543749e+01 1.0000000000000000e+00 1.2734412225001625e+01 9.0186005156834330e+00 7.6352357845074295e+00 
31 1 2 1.0280023989017402e+00 -3.4452266079560971e+01 1.0000000000000000e+00 1.2734412225001691e+01 9.0186005156835165e+00 7.6352357845072873e+00 
69 1 2 1.0279953127565982e+00 -2.4791235437973647e+01 1.0000000000000000e+00 1.2825672735204193e+01 5.0857965675143966e+00 1.1293295921772954e+01 
153 1 2 1.0279953127565982e+00 -3.3598317547638715e+01 1.0000000000000000e+00 1.2825672735204298e+01 5.0857965675144401e+00 1.1293295921773057e+01 
117 1 2 1.0279953127565975e+00 -3.7478726463826987e+01 1.0000000000000000e+00 1.2825672735204142e+01 5.0857965675144250e+00 1.1293295921772899e+01 
152 1 2 1.0279953127565968e+00 -3.3638742719407844e+01 1.0000000000000000e+00 1.2825672735204277e+01 5.0857965675144188e+00 1.1293295921773041e+01 
157 1 2 1.0279953127565979e+00 -2.4096726986325134e+01 1.0000000000000000e+00 1.2825672735204272e+01 5.0857965675144126e+00 1.1293295921773034e+01 
20 1 2 1.0279840262233926e+00 -3.7101583873775077e+01 1.0000000000000000e+00 1.2563681293288608e+01 1.9390601109084663e+01 6.5782886487798979e+00 
47 1 2 1.0279840262233926e+00 -4.0353896406629374e+01 1.0000000000000000e+00 1.2563681293288608e+01 1.9390601109084663e+01 6.5782886487798979e+00 
75 1 2 1.0279840262233930e+00 -2.1779060298546529e+01 1.0000000000000000e+00 1.2563681293288631e+01 1.9390601109084738e+01 6.5782886487799406e+00 
168 1 2 1.0279840262233946e+00 -4.5109532748173159e+01 1.0000000000000000e+00 1.2563681293288603e+01 1.9390601109084713e+01 6.5782886487799415e+00 
74 1 2 1.0279840262233926e+00 -1.9849424792820351e+01 1.0000000000000000e+00 1.2563681293288608e+01 1.9390601109084663e+01 6.5782886487798979e+00 
38 1 2 1.0279840262233946e+00 -1.8510725442086294e+01 1.0000000000000000e+00 1.2563681293288603e+01 1.9390601109084713e+01 6.5782886487799415e+00 
119 1 2 1.0280000021461126e+00 -4.9377414927711811e+01 1.0000000000000000e+00 1.1263004029615802e+01 1.1443537613770660e+01 1.4267357190353762e+01 
156 1 2 1.0280000021461126e+00 -5.4061234434672727e+01 1.0000000000000000e+00 1.1263004029615802e+01 1.1443537613770660e+01 1.4267357190353762e+01 
120 1 2 1.0280000021461126e+00 -5.4466959452608663e+01 1.0000000000000000e+00 1.1263004029615802e+01 1.1443537613770660e+01 1.4267357190353762e+01 
149 1 2 1.0280000021461126e+00 -4.3749248130717831e+01 1.0000000000000000e+00 1.1263004029615802e+01 1.1443537613770660e+01 1.4267357190353762e+01 
114 1 2 1.0280000021461126e+00 -3.7637481675313055e+01 1.0000000000000000e+00 1.1263004029615802e+01 1.1443537613770660e+01 1.4267357190353762e+01 
150 1 2 1.0280000021461126e+00 -5.1637911227139284e+01 1.0000000000000000e+00 1.1263004029615802e+01 1.1443537613770660e+01 1.4267357190353762e+01 
155 1 2 1.0280000021461126e+00 -4.9350860067378775e+01 1.0000000000000000e+00 1.1263004029615802e+01 1.1443537613770660e+01 1.4267357190353762e+01 
127 1 2 1.0280000021461122e+00 -3.0163019419097481e+01 1.0000000000000000e+00 1.1054271922895683e+01 1.0813723878038084e+01 1.7465806197368000e+01 
51 1 2 1.0280000021461122e+00 -4.1893890643878478e+01 1.0000000000000000e+00 1.1054271922895669e+01 1.0813723878038076e+01 1.7465806197367996e+01 
43 1 2 1.0280000021461122e+00 -3.2898944332123421e+01 1.0000000000000000e+00 1.1054271922895683e+01 1.0813723878038084e+01 1.7465806197368000e+01 
64 1 2 1.0280000021461122e+00 -2.1804252886421018e+01 1.0000000000000000e+00 1.1054271922895669e+01 1.0813723878038088e+01 1.7465806197368000e+01 
55 1 2 1.0280000021461122e+00 -4.7950434426928027e+01 1.0000000000000000e+00 1.1054271922895669e+01 1.0813723878038076e+01 1.7465806197367996e+01 
6 1 2 1.0280000021461122e+00 7.8592373941724336e-01 1.0000000000000000e+00 1.1054271922895669e+01 1.0813723878038088e+01 1.7465806197368000e+01 
100 1 2 1.0280000021461122e+00 -2.3197108442880729e+01 1.0000000000000000e+00 1.1054271922895669e+01 1.0813723878038088e+01 1.7465806197368000e+01 
175 1 2 1.0280000518325769e+00 -4.8172362797693992e+01 1.0000000000000000e+00 1.9798877161341718e+01 9.1375019593300859e+00 1.6258421065807986e+00 
176 1 2 1.0280000518325767e+00 -4.0010258164297426e+01 1.0000000000000000e+00 1.9798877161329056e+01 9.1375019593430800e+00 1.6258421065807911e+00 
170 1 2 1.0280000518325763e+00 -3.9299328466876290e+01 1.0000000000000000e+00 1.9798877161258687e+01 9.1375019594112121e+00 1.6258421065804680e+00 
133 1 2 1.0280000518325765e+00 -4.4093410131310527e+01 1.0000000000000000e+00 1.9798877161328559e+01 9.1375019593437194e+00 1.6258421065807998e+00 
169 1 2 1.0280000518325765e+00 -4.1527428170571469e+01 1.0000000000000000e+00 1.9798877161296723e+01 9.1375019593734805e+00 1.6258421065805795e+00 
56 1 2 1.0280000518325765e+00 -4.4079689826298804e+01 1.0000000000000000e+00 1.9798877161279158e+01 9.1375019593915034e+00 1.6258421065805695e+00 
11 1 2 1.0280052788370686e+00 -2.9464937740336460e+01 1.0000000000000000e+00 1.4059009956766223e+01 6.3557966399272372e+00 5.4734711951464368e+00 
1 1 2 1.0280052788370688e+00 -3.6384891108897087e+01 1.0000000000000000e+00 1.4059009956766277e+01 6.3557966399272585e+00 5.4734711951463995e+00 
2 1 2 1.0280052788370688e+00 -3.2147583683352885e+01 1.0000000000000000e+00 1.4059009956766234e+01 6.3557966399272221e+00 5.4734711951464288e+00 
8 1 2 1.0280052788370686e+00 -4.0107370256435097e+01 1.0000000000000000e+00 1.4059009956766223e+01 6.3557966399272372e+00 5.4734711951464368e+00 
44 1 2 1.0280052788370690e+00 -3.7336242199868288e+01 1.0000000000000000e+00 1.4059009956766218e+01 6.3557966399272079e+00 5.4734711951464421e+00 
17 1 2 1.0280052788370686e+00 -3.0945880493572130e+01 1.0000000000000000e+00 1.4059009956766223e+01 6.3557966399272372e+00 5.4734711951464368e+00 
89 1 2 1.0280055689947807e+00 -4.7075224677359849e+01 1.0000000000000000e+00 1.5556882031591122e+01 4.1978470214997508e+00 3.5851589646383015e+00 
96 1 2 1.0280055689947807e+00 -4.5848195825265933e+01 1.0000000000000000e+00 1.5556882031591137e+01 4.1978470214997694e+00 3.5851589646382904e+00 
94 1 2 1.0280055689947807e+00 -4.2387758319609979e+01 1.0000000000000000e+00 1.5556882031591137e+01 4.1978470214997694e+00 3.5851589646382904e+00 
59 1 2 1.0280055689947807e+00 -3.7413500927231475e+01 1.0000000000000000e+00 1.5556882031591137e+01 4.1978470214997694e+00 3.5851589646382904e+00 
124 1 2 1.0280055689947807e+00 -4.2888344114390669e+01 1.0000000000000000e+00 1.5556882031591137e+01 4.1978470214997694e+00 3.5851589646382904e+00 
130 1 2 1.0280055689947807e+00 -4.1617757452274525e+01 1.0000000000000000e+00 1.5556882031591133e+01 4.1978470214997596e+00 3.5851589646382984e+00 
95 1 2 1.0280055689947807e+00 -6.3491601021824145e+01 1.0000000000000000e+00 1.5556882031591137e+01 4.1978470214997694e+00 3.5851589646382904e+00 
173 1 2 1.0279990124010794e+00 -1.3848669507580023e+01 1.0000000000000000e+00 1.8156543646864158e+01 6.5984600799517761e+00 5.0239672684333785e+00 
49 1 2 1.0279990124010794e+00 -4.5479445796179752e+00 1.0000000000000000e+00 1.8156543646864158e+01 6.5984600799517761e+00 5.0239672684333785e+00 
138 1 2 1.0279990124010794e+00 -1.9579410933476300e+01 1.0000000000000000e+00 1.8156543646864158e+01 6.5984600799517761e+00 5.0239672684333785e+00 
137 1 2 1.0279990124010794e+00 -1.9686783784124248e+01 1.0000000000000000e+00 1.8156543646864158e+01 6.5984600799517761e+00 5.0239672684333785e+00 
28 1 2 1.0279990124010794e+00 -2.8557665234521277e+01 1.0000000000000000e+00 1.8156543646864158e+01 6.5984600799517761e+00 5.0239672684333785e+00 
162 1 2 1.0279990124010794e+00 -4.5413870255055308e+01 1.0000000000000000e+00 1.8156543646864158e+01 6.5984600799517761e+00 5.0239672684333785e+00 
77 1 2 1.0280030789134014e+00 -5.1481550246551627e+01 1.0000000000000000e+00 1.6485190611861203e+01 7.4439529545531746e+00 6.1632737964275641e+00 
76 1 2 1.0280030789134014e+00 -4.2763664286252101e+01 1.0000000000000000e+00 1.6485190611861480e+01 7.4439529545531116e+00 6.1632737964275561e+00 
41 1 2 1.0280030789134011e+00 -4.1651298117988539e+01 1.0000000000000000e+00 1.6485190611861249e+01 7.4439529545531586e+00 6.1632737964276041e+00 
9 1 2 1.0280029920544247e+00 -1.2655748862011979e+01 1.0000000000000000e+00 1.6491304746809547e+01 7.4423326205885578e+00 6.1645727952608285e+00 
66 1 2 1.0280001319864105e+00 -5.1240398030641273e+01 1.0000000000000000e+00 1.8529264436353866e+01 9.7351474157152786e+00 3.9047448729854675e+00 
108 1 2 1.0280001319864105e+00 -4.3504059284232724e+01 1.0000000000000000e+00 1.8529264436353753e+01 9.7351474157151401e+00 3.9047448729854568e+00 
60 1 2 1.0280001319864107e+00 -4.6394312138481730e+01 1.0000000000000000e+00 1.8529264436353763e+01 9.7351474157151632e+00 3.9047448729854435e+00 
102 1 2 1.0280001319864109e+00 -4.3381895779115226e+01 1.0000000000000000e+00 1.8529264436353749e+01 9.7351474157151827e+00 3.9047448729853973e+00 
36 1 2 1.0280001319864105e+00 -3.9731273212432662e+01 1.0000000000000000e+00 1.8529264436353770e+01 9.7351474157151685e+00 3.9047448729854493e+00 
72 1 2 1.0280001319864109e+00 -4.7335643530286866e+01 1.0000000000000000e+00 1.8529264436353774e+01 9.7351474157151845e+00 3.9047448729854342e+00 
85 1 2 1.0280085562660028e+00 -2.6041393767330060e+01 1.0000000000000000e+00 1.4560000254792365e+01 1.3786778597262246e+00 8.4753676496435535e+00 
35 1 2 1.0280085562660028e+00 -9.4942336828496980e+00 1.0000000000000000e+00 1.4560000254792365e+01 1.3786778597262246e+00 8.4753676496435535e+00 
7 1 2 1.0280085562660028e+00 -4.3088674088920541e+01 1.0000000000000000e+00 1.4560000254792365e+01 1.3786778597262246e+00 8.4753676496435535e+00 
34 1 2 1.0280085562660028e+00 -6.7226833697966049e+00 1.0000000000000000e+00 1.4560000254792365e+01 1.3786778597262246e+00 8.4753676496435535e+00 
18 1 2 1.0280085562660042e+00 -3.6673364943901618e+01 1.0000000000000000e+00 1.4560000254792365e+01 1.3786778597262288e+00 8.4753676496435570e+00 
54 1 2 1.0280085562660028e+00 -1.1736768033050694e+01 1.0000000000000000e+00 1.4560000254792365e+01 1.3786778597262246e+00 8.4753676496435535e+00 
13 1 2 1.0280085562660042e+00 -2.4266015625304636e+01 1.0000000000000000e+00 1.4560000254792365e+01 1.3786778597262288e+00 8.4753676496435570e+00 
5 1 2 1.0280091235925000e+00 -3.8163168525315839e+01 1.0000000000000000e+00 1.3653388312364424e+01 4.5575961888924246e+00 9.7419337255110605e+00 
52 1 2 1.0280091235925002e+00 -2.3167077274308962e+01 1.0000000000000000e+00 1.3653388312364394e+01 4.5575961888922496e+00 9.7419337255112612e+00 
4 1 2 1.0280091235925002e+00 -3.7557497398443928e+01 1.0000000000000000e+00 1.3653388312364408e+01 4.5575961888924974e+00 9.7419337255109753e+00 
57 1 2 1.0280091235925000e+00 -3.8105951216085003e+01 1.0000000000000000e+00 1.3653388312364422e+01 4.5575961888924779e+00 9.7419337255109983e+00 
105 1 2 1.0279931090407459e+00 -2.5308497380451076e+01 1.0000000000000000e+00 1.4636374096657679e+01 6.5624725402611883e+00 9.8918975445122594e+00 
27 1 2 1.0279931090407455e+00 -7.5392562527828559e+00 1.0000000000000000e+00 1.4636374096657704e+01 6.5624725402607389e+00 9.8918975445130677e+00 
26 1 2 1.0279931090407459e+00 -2.4088778132987084e+01 1.0000000000000000e+00 1.4636374096657686e+01 6.5624725402611945e+00 9.8918975445122399e+00 
68 1 2 1.0279931090407459e+00 -1.8498727318433801e+01 1.0000000000000000e+00 1.4636374096657802e+01 6.5624725402607806e+00 9.8918975445128723e+00 
63 1 2 1.0279931090407459e+00 -1.9261204795491256e+01 1.0000000000000000e+00 1.4636374096657686e+01 6.5624725402611945e+00 9.8918975445122399e+00 
103 1 2 1.0279945123416485e+00 -4.2888271957966438e+01 1.0000000000000000e+00 1.6550511754594623e+01 4.0148056170879043e+00 7.6627602059908586e+00 
97 1 2 1.0279945123416485e+00 -4.9626791089327853e+01 1.0000000000000000e+00 1.6550511754594623e+01 4.0148056170879043e+00 7.6627602059908586e+00 
93 1 2 1.0279945123416485e+00 -1.6463445268394683e+01 1.0000000000000000e+00 1.6550511754594623e+01 4.0148056170879043e+00 7.6627602059908586e+00 
61 1 2 1.0279945123416485e+00 -4.3186656470012011e+01 1.0000000000000000e+00 1.6550511754594623e+01 4.0148056170879043e+00 7.6627602059908586e+00 
99 1 2 1.0279945123416485e+00 -1.3790892384996518e+01 1.0000000000000000e+00 1.6550511754594623e+01 4.0148056170879043e+00 7.6627602059908586e+00 
146 1 2 1.0279945123416485e+00 -4.1397360032489672e+01 1.0000000000000000e+00 1.6550511754594623e+01 4.0148056170879043e+00 7.6627602059908586e+00 
98 1 2 1.0279945123416485e+00 -4.9903346841042406e+01 1.0000000000000000e+00 1.6550511754594623e+01 4.0148056170879043e+00 7.6627602059908586e+00 
39 1 2 1.0279935995817493e+00 -2.1406785448739626e+01 1.0000000000000000e+00 1.5178269706682846e+01 7.0285021495672533e+00 7.6896327503774282e+00 
45 1 2 1.0279935995817493e+00 -2.7805282479228374e+01 1.0000000000000000e+00 1.5178269706682862e+01 7.0285021495672710e+00 7.6896327503774122e+00 
10 1 2 1.0279935995817491e+00 -1.4418405704350677e+01 1.0000000000000000e+00 1.5178269706682970e+01 7.0285021495673048e+00 7.6896327503773536e+00 
3 1 2 1.0279935995817491e+00 -2.7385944076033489e+01 1.0000000000000000e+00 1.5178269706682970e+01 7.0285021495673048e+00 7.6896327503773536e+00 
178 1 2 1.0279961303988998e+00 -1.2284001779078942e+01 1.0000000000000000e+00 1.4342719520637397e+01 3.3621195928973289e+00 1.3513779405940008e+01 
179 1 2 1.0279961303988998e+00 -9.0244614653988187e+00 1.0000000000000000e+00 1.4342719520637397e+01 3.3621195928973289e+00 1.3513779405940008e+01 
144 1 2 1.0279961303988998e+00 1.7774552540692536e+01 1.0000000000000000e+00 1.4342719520637397e+01 3.3621195928973289e+00 1.3513779405940008e+01 
48 1 2 1.0279961303988998e+00 -3.3628695588930562e+01 1.0000000000000000e+00 1.4342719520637397e+01 3.3621195928973289e+00 1.3513779405940008e+01 
180 1 2 1.0279961303988998e+00 -5.1356171841061977e+00 1.0000000000000000e+00 1.4342719520637397e+01 3.3621195928973289e+00 1.3513779405940008e+01 
131 1 2 1.0279961303988996e+00 -4.0890306320299274e+01 1.0000000000000000e+00 1.4342719520637397e+01 3.3621195928973298e+00 1.3513779405940010e+01 
174 1 2 1.0279961303988998e+00 -5.2619138751795509e+00 1.0000000000000000e+00 1.4342719520637397e+01 3.3621195928973289e+00 1.3513779405940008e+01 
171 1 2 1.0279993148114834e+00 -3.8049717250183733e+01 1.0000000000000000e+00 1.7983995900496947e+01 6.1644531424634454e+00 1.6769915885820335e+01 
159 1 2 1.0279993148114834e+00 -3.2255351729201678e+01 1.0000000000000000e+00 1.7983995900496915e+01 6.1644531424644882e+00 1.6769915885822016e+01 
160 1 2 1.0279993148114834e+00 -3.9208640252841988e+01 1.0000000000000000e+00 1.7983995900496915e+01 6.1644531424644882e+00 1.6769915885822016e+01 
166 1 2 1.0279993148114834e+00 -3.7492709012286923e+01 1.0000000000000000e+00 1.7983995900498424e+01 6.1644531424657085e+00 1.6769915885814843e+01 
136 1 2 1.0279993148114834e+00 -4.5001978033222102e+01 1.0000000000000000e+00 1.7983995900497252e+01 6.1644531424648425e+00 1.6769915885820541e+01 
165 1 2 1.0279993148114834e+00 -3.0278034624954618e+01 1.0000000000000000e+00 1.7983995900496915e+01 6.1644531424644882e+00 1.6769915885822016e+01 
172 1 2 1.0279993148114834e+00 -4.1499348625577028e+01 1.0000000000000000e+00 1.7983995900497252e+01 6.1644531424648425e+00 1.6769915885820541e+01 
141 1 2 1.0280294289164196e+00 -4.7516824152701560e+01 1.0000000000000000e+00 1.3811875804573260e+01 1.6452263948904996e+01 6.0626953260568941e+00 
33 1 2 1.0280294289164196e+00 -1.9926142125121682e+01 1.0000000000000000e+00 1.3811875804573251e+01 1.6452263948904992e+01 6.0626953260568976e+00 
115 1 2 1.0280294289164196e+00 -3.6900968369533786e+01 1.0000000000000000e+00 1.3811875804573260e+01 1.6452263948904996e+01 6.0626953260568941e+00 
135 1 2 1.0280294289164196e+00 -3.5224604774171411e+01 1.0000000000000000e+00 1.3811875804573251e+01 1.6452263948904992e+01 6.0626953260568976e+00 
177 1 2 1.0280294289164196e+00 -3.5412698681269610e+01 1.0000000000000000e+00 1.3811875804573260e+01 1.6452263948904996e+01 6.0626953260568941e+00 
62 1 2 1.0280294289164196e+00 -2.4627069665548436e+01 1.0000000000000000e+00 1.3811875804573260e+01 1.6452263948904996e+01 6.0626953260568941e+00 
14 1 2 1.0280294289164196e+00 -5.3263600442773082e+01 1.0000000000000000e+00 1.3811875804573260e+01 1.6452263948904996e+01 6.0626953260568941e+00 

Velocities

24 -3.0263951808019524e-01 1.0921368429237766e-01 -2.1534873211602107e-01
84 -3.0263951808019524e-01 1.0921368429237766e-01 -2.1534873211602107e-01
30 -3.0263951808019524e-01 1.0921368429237766e-01 -2.1534873211602107e-01
29 -3.0263951808019524e-01 1.0921368429237766e-01 -2.1534873211602107e-01
50 -3.0263951808019524e-01 1.0921368429237766e-01 -2.1534873211602107e-01
23 -3.0263951808019524e-01 1.0921368429237766e-01 -2.1534873211602107e-01
90 -3.0263951808019524e-01 1.0921368429237766e-01 -2.1534873211602107e-01
147 -3.0263275206129636e-01 1.0920988488795595e-01 -2.1534163037074289e-01
145 -3.0263275206129636e-01 1.0920988488795595e-01 -2.1534163037074289e-01
151 -3.0263275206129636e-01 1.0920988488795595e-01 -2.1534163037074289e-01
58 -3.0263275206129636e-01 1.0920988488795595e-01 -2.1534163037074289e-01
158 -3.0263275206129636e-01 1.0920988488795595e-01 -2.1534163037074289e-01
110 -3.0263275206129636e-01 1.0920988488795595e-01 -2.1534163037074289e-01
116 -3.0263275206129636e-01 1.0920988488795595e-01 -2.1534163037074289e-01
142 -2.9975639750711613e-01 1.2194641500239267e-01 -1.9768387591459274e-01
101 -2.9975639750711647e-01 1.2194641500239302e-01 -1.9768387591459355e-01
107 -2.9975639750711641e-01 1.2194641500239285e-01 -1.9768387591459327e-01
106 -2.9975639750711658e-01 1.2194641500239327e-01 -1.9768387591459360e-01
143 -2.9975639750711641e-01 1.2194641500239306e-01 -1.9768387591459363e-01
40 -2.9975639750711669e-01 1.2194641500239332e-01 -1.9768387591459372e-01
83 -3.0134844558454987e-01 1.1323387489648615e-01 -2.1067862340881355e-01
87 -3.0134844558380602e-01 1.1323387489874412e-01 -2.1067862341604401e-01
161 -3.0134844558387675e-01 1.1323387489855471e-01 -2.1067862341539881e-01
53 -3.0134854484292661e-01 1.1323358869005097e-01 -2.1067769643945250e-01
129 -2.8344068836541431e-01 1.1163753691421222e-01 -1.8459679580649416e-01
70 -2.8344068836541431e-01 1.1163753691421222e-01 -1.8459679580649416e-01
128 -2.8344068836541431e-01 1.1163753691421222e-01 -1.8459679580649416e-01
163 -2.8344068836541431e-01 1.1163753691421222e-01 -1.8459679580649416e-01
65 -2.8344068836541431e-01 1.1163753691421222e-01 -1.8459679580649416e-01
164 -2.8344068836541431e-01 1.1163753691421222e-01 -1.8459679580649416e-01
71 -2.8344068836541431e-01 1.1163753691421222e-01 -1.8459679580649416e-01
154 -3.0323083552202096e-01 1.2455953087931647e-01 -1.9984911668827884e-01
148 -3.0323083552202096e-01 1.2455953087931647e-01 -1.9984911668827884e-01
113 -3.0323083552202096e-01 1.2455953087931647e-01 -1.9984911668827884e-01
111 -3.0323083552202096e-01 1.2455953087931647e-01 -1.9984911668827884e-01
112 -3.0323083552202096e-01 1.2455953087931647e-01 -1.9984911668827884e-01
121 -3.0323083552202096e-01 1.2455953087931647e-01 -1.9984911668827884e-01
118 -3.0323083552202096e-01 1.2455953087931647e-01 -1.9984911668827884e-01
167 -3.0287317657373058e-01 1.2312893876158615e-01 -2.0034484144496217e-01
126 -3.0287317663220170e-01 1.2312893943384992e-01 -2.0034484188591395e-01
125 -3.0287317662876256e-01 1.2312893926447156e-01 -2.0034484176938389e-01
122 -3.0287317662876251e-01 1.2312893926447178e-01 -2.0034484176938366e-01