LAMMPS data file via write_data, version 30 Jul 2016, timestep = 50400000

180 atoms
2 atom types

0.0000000000000000e+00 2.0000000000000000e+01 xlo xhi
0.0000000000000000e+00 2.0000000000000000e+01 ylo yhi
0.0000000000000000e+00 2.0000000000000000e+01 zlo zhi

Masses

1 3.896
2 4.31

Atoms # meso-molecular

11 1 2 1.0280000003048420e+00 -1.0500801969386132e+05 1.0000000000000000e+00 1.6676676100965393e+00 9.0698606610315142e+00 1.7624377428491764e+00 
27 1 2 1.0280000003072385e+00 -7.5137504132208735e+04 1.0000000000000000e+00 1.6674091278029004e+00 9.0698507358382550e+00 1.7625610881595628e+00 
64 1 2 1.0280000003072367e+00 -6.3946158283701683e+04 1.0000000000000000e+00 1.6674092806100442e+00 9.0698541391546339e+00 1.7625628808505396e+00 
34 1 2 1.0280000003072365e+00 -6.2921764213971124e+04 1.0000000000000000e+00 1.6674092008980346e+00 9.0698528059690808e+00 1.7625621884870935e+00 
28 1 2 1.0280000003072369e+00 -6.8025008691145034e+04 1.0000000000000000e+00 1.6674091135074862e+00 9.0698517162743499e+00 1.7625616336354755e+00 
70 1 2 1.0280000003072354e+00 -5.2656709355387837e+04 1.0000000000000000e+00 1.6674092807239018e+00 9.0698541394418033e+00 1.7625628809515610e+00 
77 1 2 1.0279999998707439e+00 -8.6222630981080627e+04 1.0000000000000000e+00 8.9264430639312198e-01 9.8464119103401195e+00 2.0207697641948053e-01 
96 1 2 1.0279999991968736e+00 -6.2288465036744230e+04 1.0000000000000000e+00 4.8523295397412580e+00 9.2447872683558199e+00 2.2479064143190781e+00 
66 1 2 1.0279999990321522e+00 -7.4868009562850915e+04 1.0000000000000000e+00 4.8537557996508207e+00 9.2783417301972690e+00 2.2621256215494125e+00 
129 1 2 1.0279999990691806e+00 -8.6145824191602427e+04 1.0000000000000000e+00 4.8544814130551455e+00 9.2671358222028974e+00 2.2584389164195944e+00 
102 1 2 1.0279999990968753e+00 -9.5523244028844274e+04 1.0000000000000000e+00 4.8544393951092353e+00 9.2595166305373819e+00 2.2528663976478689e+00 
150 1 2 1.0279999991021760e+00 -7.2377099035860840e+04 1.0000000000000000e+00 4.8473871740154015e+00 9.2951324304336467e+00 2.2801083654141583e+00 
115 1 2 1.0279999991016460e+00 -7.5138653958684750e+04 1.0000000000000000e+00 4.8474104374809635e+00 9.2951226857760112e+00 2.2800375482227975e+00 
145 1 2 1.0279999990999771e+00 -9.0077335224857467e+04 1.0000000000000000e+00 4.8474844544779314e+00 9.2950889339131866e+00 2.2798133022275828e+00 
176 1 2 1.0280000000166030e+00 -8.1229002929574752e+04 1.0000000000000000e+00 1.8103547770413801e+00 9.0540533529553748e+00 4.9936769735017847e+00 
175 1 2 1.0280000000166567e+00 -9.8756181869847729e+04 1.0000000000000000e+00 1.8103550440142784e+00 9.0540416391385978e+00 4.9936769041883169e+00 
85 1 2 1.0280000000165395e+00 -7.7324812954184381e+04 1.0000000000000000e+00 1.8103673041934576e+00 9.0540447843499567e+00 4.9936763762621696e+00 
73 1 2 1.0280000000165552e+00 -8.5151383566039993e+04 1.0000000000000000e+00 1.8103609400336504e+00 9.0540525545517845e+00 4.9936766966059070e+00 
122 1 2 1.0280000000166614e+00 -8.9180724800242577e+04 1.0000000000000000e+00 1.8103530641956789e+00 9.0540441770569373e+00 4.9936770043865337e+00 
136 1 2 1.0280000000169438e+00 -5.5687321594107234e+04 1.0000000000000000e+00 1.8103052472346584e+00 9.0540690566946793e+00 4.9936792303209696e+00 
110 1 2 1.0280000000166991e+00 -6.2337848802066030e+04 1.0000000000000000e+00 1.8103509877282560e+00 9.0540399153501578e+00 4.9936770751367021e+00 
117 1 2 1.0279999996550411e+00 -9.8344015276092890e+04 1.0000000000000000e+00 5.0231012598909794e+00 3.1743584587210050e+00 1.1363547718186773e+01 
36 1 2 1.0279999996682423e+00 -7.5507710406320635e+04 1.0000000000000000e+00 5.0255118140654638e+00 3.1776303960282424e+00 1.1362520071947561e+01 
58 1 2 1.0279999996682445e+00 -6.0939520405988311e+04 1.0000000000000000e+00 5.0255118778409082e+00 3.1776304230615167e+00 1.1362520052802473e+01 
178 1 2 1.0279999996683700e+00 -6.0771674256258411e+04 1.0000000000000000e+00 5.0255343891424786e+00 3.1776592763207847e+00 1.1362511389340096e+01 
165 1 2 1.0279999996682430e+00 -7.8562238914188638e+04 1.0000000000000000e+00 5.0255118676546493e+00 3.1776303412796558e+00 1.1362520063530933e+01 
59 1 2 1.0279999996682445e+00 -6.2203920431196777e+04 1.0000000000000000e+00 5.0255117899403947e+00 3.1776304241868045e+00 1.1362520075388939e+01 
2 1 2 1.0279999996682494e+00 -7.4460994519307817e+04 1.0000000000000000e+00 5.0255121793835720e+00 3.1776345930573573e+00 1.1362519562101596e+01 
19 1 2 1.0280000019499274e+00 -7.9857693199170084e+04 1.0000000000000000e+00 1.9974926391399763e+00 2.3674283196637660e+00 1.6277024307193152e+01 
105 1 2 1.0279999997254929e+00 -7.6469813946155904e+04 1.0000000000000000e+00 8.4158200884149748e-01 1.9611866822570905e+00 1.5316083604411032e+01 
69 1 2 1.0279999997255103e+00 -8.5341324607977760e+04 1.0000000000000000e+00 8.4158179753716866e-01 1.9611874379446981e+00 1.5316083659158481e+01 
43 1 2 1.0280000000459943e+00 -7.8026709675611477e+04 1.0000000000000000e+00 1.1107751888144222e+00 8.7911161356356937e-01 1.6039374347414370e+01 
157 1 2 1.0280000000989544e+00 -8.2617101480192374e+04 1.0000000000000000e+00 1.1109099975407533e+00 8.5784957357677738e-01 1.6114342907455953e+01 
164 1 2 1.0280000000990859e+00 -6.5015833208854718e+04 1.0000000000000000e+00 1.1109103069375181e+00 8.5785024226570716e-01 1.6114340902301208e+01 
158 1 2 1.0280000000989784e+00 -8.1510607883124278e+04 1.0000000000000000e+00 1.1109208208039518e+00 8.5787183931080124e-01 1.6114277387739889e+01 
88 1 2 1.0280000016924022e+00 -6.2967631730697183e+04 1.0000000000000000e+00 3.5267218072570676e+00 2.9131949452507149e+00 1.6247607802619033e+01 
92 1 2 1.0280000003313563e+00 -8.4877226616433501e+04 1.0000000000000000e+00 4.9996821461575696e+00 3.0345285016549997e+00 1.5059660600001735e+01 
83 1 2 1.0280000004590579e+00 -8.7217406474036572e+04 1.0000000000000000e+00 5.8511195225312544e+00 3.5056785455463877e+00 1.4472780801307771e+01 
179 1 2 1.0280000004623768e+00 -9.1215773560239351e+04 1.0000000000000000e+00 5.8514131543601957e+00 3.5053703482730549e+00 1.4473523551622840e+01 
51 1 2 1.0280000004623784e+00 -7.0390564035725314e+04 1.0000000000000000e+00 5.8514131910360430e+00 3.5053702858358515e+00 1.4473523604934039e+01 
124 1 2 1.0280000004623762e+00 -9.8164905445445183e+04 1.0000000000000000e+00 5.8514131149291586e+00 3.5053704134566859e+00 1.4473523491017026e+01 
130 1 2 1.0280000004623775e+00 -1.0487415340355647e+05 1.0000000000000000e+00 5.8514132190165329e+00 3.5053702189213367e+00 1.4473523612974979e+01 
108 1 2 1.0280000004651824e+00 -7.5767874912822983e+04 1.0000000000000000e+00 5.8517894174586331e+00 3.5048191636972157e+00 1.4474235257287496e+01 
45 1 2 1.0279999997063070e+00 -5.3679217047691942e+04 1.0000000000000000e+00 4.1170105429216386e-01 2.3901013042930250e+00 1.8906039613407977e+01 
8 1 2 1.0279999996501510e+00 -9.0254783140518732e+04 1.0000000000000000e+00 3.4077945130173570e-01 2.4512168384558057e+00 1.8941922809577139e+01 
39 1 2 1.0279999996478724e+00 -6.3590254090880910e+04 1.0000000000000000e+00 3.3737228792881652e-01 2.4537279247667030e+00 1.8943578303539319e+01 
120 1 2 1.0279999996270839e+00 -8.4723531861741445e+04 1.0000000000000000e+00 3.0333696564655599e-01 2.4764353624925723e+00 1.8960052268797753e+01 
107 1 2 1.0280000004133141e+00 -7.9869326944191649e+04 1.0000000000000000e+00 2.4245413601089647e-02 2.4395654502159470e-01 1.8036274628794128e+01 
147 1 2 1.0280000004130507e+00 -8.3816060124584707e+04 1.0000000000000000e+00 2.4036865354803573e-02 2.4379647250669509e-01 1.8036450994036997e+01 
123 1 2 1.0280000004120091e+00 -9.3804793700286624e+04 1.0000000000000000e+00 2.2539708254425909e-02 2.4270248759460195e-01 1.8037327602325774e+01 
4 1 2 1.0279999997854519e+00 -7.3878445208553821e+04 1.0000000000000000e+00 3.6977349746127337e+00 3.3293627836209692e+00 1.6709671520127088e+01 
154 1 2 1.0279999997854554e+00 -1.0599120239099248e+05 1.0000000000000000e+00 3.6977362399129312e+00 3.3293638155038492e+00 1.6709670893382256e+01 
118 1 2 1.0279999997854503e+00 -6.6961158957709078e+04 1.0000000000000000e+00 3.6977361925691898e+00 3.3293637768735338e+00 1.6709670916868923e+01 
155 1 2 1.0279999997854516e+00 -9.0356554187321555e+04 1.0000000000000000e+00 3.6977362257781232e+00 3.3293638039718387e+00 1.6709670900392048e+01 
94 1 2 1.0280000000343517e+00 -9.9465381461810248e+04 1.0000000000000000e+00 5.3501467164789203e+00 8.0548046628404169e-01 1.7348670674628334e+01 
172 1 2 1.0280000000053762e+00 -6.0518110365786895e+04 1.0000000000000000e+00 6.1196471771279661e+00 1.2344691054906622e+00 1.9549950219608480e+01 
72 1 2 1.0280000000062872e+00 -8.3495893624562392e+04 1.0000000000000000e+00 6.2797843755635787e+00 1.2609762477808877e+00 1.9517761996990238e+01 
47 1 2 1.0280000000059706e+00 -1.0523154656541298e+05 1.0000000000000000e+00 6.3555809201779274e+00 1.2731165189302023e+00 1.9496924591255809e+01 
14 1 2 1.0279999996001798e+00 -5.3119951476438837e+04 1.0000000000000000e+00 5.0183256671189760e+00 2.3022136809231144e+00 1.7895828919006593e+01 
71 1 2 1.0279999998572145e+00 -7.8504441887564099e+04 1.0000000000000000e+00 4.6116153271317977e+00 1.2933855598963357e+00 1.8633856910182381e+01 
60 1 2 1.0279999999467446e+00 -6.5103351117665938e+04 1.0000000000000000e+00 4.7365990291161157e+00 9.8210638699776154e-01 1.8861813184473494e+01 
56 1 2 1.0280000000334888e+00 -8.6152435222771383e+04 1.0000000000000000e+00 5.3439811819360798e+00 8.0472960073554323e-01 1.7351278730362569e+01 
156 1 2 1.0279999999930778e+00 -8.2654372805814026e+04 1.0000000000000000e+00 5.0905737815654355e+00 7.5183101954481424e-01 1.7512838302025315e+01 
162 1 2 1.0279999999781650e+00 -6.2844688554739289e+04 1.0000000000000000e+00 4.8609211235512007e+00 5.8351525638201485e-01 1.8748004114792312e+01 
133 1 2 1.0279999999818137e+00 -9.2143935601283913e+04 1.0000000000000000e+00 6.2870109741564040e+00 4.5304289448934421e-01 1.9228800559522433e+01 
169 1 2 1.0280000002730911e+00 -9.2797234677523418e+04 1.0000000000000000e+00 1.8849768033202033e-01 3.6687358837992856e+00 1.7009319602309116e+01 
74 1 2 1.0280000002741605e+00 -6.7109429830611873e+04 1.0000000000000000e+00 1.9121825676564672e-01 3.6678212328741040e+00 1.7008988541602218e+01 
10 1 2 1.0280000002737308e+00 -7.4258464619614489e+04 1.0000000000000000e+00 1.8997542332939424e-01 3.6683475583647103e+00 1.7009859581659782e+01 
68 1 2 1.0280000002736809e+00 -8.5191288019729720e+04 1.0000000000000000e+00 1.8978023548664860e-01 3.6684327914344319e+00 1.7010013882827238e+01 
152 1 2 1.0279999997568878e+00 -8.9890301667785563e+04 1.0000000000000000e+00 3.7205194619645328e+00 3.3443610368524346e+00 1.6703542273914021e+01 
127 1 2 1.0279999996284432e+00 -8.9233199867567004e+04 1.0000000000000000e+00 5.4386734324389974e-01 9.2545556204274213e+00 1.9889649692879232e+01 
101 1 2 1.0279999995370059e+00 -6.9071758644456771e+04 1.0000000000000000e+00 2.0879040725078668e-01 9.4377253653196238e+00 1.9718897851277628e+01 
44 1 2 1.0280000000611054e+00 -9.5030278643336933e+04 1.0000000000000000e+00 1.1424375194526219e-01 9.7863265712672565e+00 1.9660507199918090e+01 
81 1 2 1.0280000004714891e+00 -6.3310588619089052e+04 1.0000000000000000e+00 1.1883909412346220e+01 5.7285704895576828e+00 1.6370944993050494e+00 
166 1 2 1.0280000004714887e+00 -6.1878648163128164e+04 1.0000000000000000e+00 1.1883909412346226e+01 5.7285704895577405e+00 1.6370944993053316e+00 
93 1 2 1.0280000004714889e+00 -8.3607127481438671e+04 1.0000000000000000e+00 1.1883909412346233e+01 5.7285704895576330e+00 1.6370944993050491e+00 
7 1 2 1.0280000004714889e+00 -7.6353595960454375e+04 1.0000000000000000e+00 1.1883909412346174e+01 5.7285704895578169e+00 1.6370944993050194e+00 
40 1 2 1.0280000004714893e+00 -9.8648135236537782e+04 1.0000000000000000e+00 1.1883909412346242e+01 5.7285704895576792e+00 1.6370944993052310e+00 
139 1 2 1.0280000004714893e+00 -7.0770655344070517e+04 1.0000000000000000e+00 1.1883909412346128e+01 5.7285704895580443e+00 1.6370944993053098e+00 
42 1 2 1.0280000004714889e+00 -9.2042497803570572e+04 1.0000000000000000e+00 1.1883909412346201e+01 5.7285704895577334e+00 1.6370944993050229e+00 
87 1 2 1.0279999999162643e+00 -7.4321283557602612e+04 1.0000000000000000e+00 8.8926726478791647e+00 4.2796525874379441e+00 1.3729369611133619e+01 
143 1 2 1.0279999999177110e+00 -6.5451465220521030e+04 1.0000000000000000e+00 8.8923899303271092e+00 4.2795578626529105e+00 1.3728515530469064e+01 
98 1 2 1.0279999999206102e+00 -7.6742882259258113e+04 1.0000000000000000e+00 8.8837716048505246e+00 4.3025253390285219e+00 1.3724617738796601e+01 
79 1 2 1.0279999998934017e+00 -8.6979681284326667e+04 1.0000000000000000e+00 8.8917725049744440e+00 4.2962319619744092e+00 1.3741474688585292e+01 
13 1 2 1.0279999998885436e+00 -6.9656885996407960e+04 1.0000000000000000e+00 8.8914406988569787e+00 4.2990157600966468e+00 1.3744363849225817e+01 
106 1 2 1.0279999998877818e+00 -7.5629570637194003e+04 1.0000000000000000e+00 8.8698522401259510e+00 4.3367288706215499e+00 1.3747500337814127e+01 
86 1 2 1.0279999998816849e+00 -7.4957898353085082e+04 1.0000000000000000e+00 8.8890417468297631e+00 4.2021368687699665e+00 1.3784148656182426e+01 
100 1 2 1.0280000001750431e+00 -6.7906008627292278e+04 1.0000000000000000e+00 9.7267455229072084e+00 1.2660884552823486e+00 1.6949813235062432e+01 
144 1 2 1.0280000001347249e+00 -8.8248867799625878e+04 1.0000000000000000e+00 7.5721517705254264e+00 1.5606763953971341e+00 1.7612791293256485e+01 
78 1 2 1.0280000001349479e+00 -5.7199413363102169e+04 1.0000000000000000e+00 7.5713125582001490e+00 1.5593561184216154e+00 1.7611056041571533e+01 
114 1 2 1.0280000001350438e+00 -8.1089812329685592e+04 1.0000000000000000e+00 7.5709791392354733e+00 1.5588362609141944e+00 1.7610374072224761e+01 
128 1 2 1.0279999996925957e+00 -8.1727245812564172e+04 1.0000000000000000e+00 9.0339080590400336e+00 9.3583020497442193e-01 1.7911353946899258e+01 
119 1 2 1.0279999996928795e+00 -9.2604308155517399e+04 1.0000000000000000e+00 9.0343394859943995e+00 9.3554462432901286e-01 1.7911695540878895e+01 
137 1 2 1.0279999999395399e+00 -7.5048229020115192e+04 1.0000000000000000e+00 7.2716223974902361e+00 5.1772319162580061e-01 1.7968463490211658e+01 
163 1 2 1.0280000001032110e+00 -8.5217044044853552e+04 1.0000000000000000e+00 6.8492868659482058e+00 2.0968699761555825e+00 1.7971115972164061e+01 
3 1 2 1.0280000002353928e+00 -7.7397167572349252e+04 1.0000000000000000e+00 1.1026625841616481e+01 1.2000153672504843e+00 1.6909169212672872e+01 
153 1 2 1.0280000002485949e+00 -9.0989537917224618e+04 1.0000000000000000e+00 1.1022295043476110e+01 1.2660331039519621e+00 1.6937000170250265e+01 
97 1 2 1.0280000002626071e+00 -5.8823133937761551e+04 1.0000000000000000e+00 1.0938187930581661e+01 1.5183201520529208e+00 1.7106409668370905e+01 
61 1 2 1.0280000002626855e+00 -6.2534826676702156e+04 1.0000000000000000e+00 1.0938670614938093e+01 1.5176335797603375e+00 1.7105809095803451e+01 
17 1 2 1.0279999997001994e+00 -1.0024769657244781e+05 1.0000000000000000e+00 1.0844045071584942e+01 2.9503581593313810e-01 1.8167610059855715e+01 
111 1 2 1.0279999997001883e+00 -8.0465250284044116e+04 1.0000000000000000e+00 1.0844045847102775e+01 2.9503515964549876e-01 1.8167609069696979e+01 
75 1 2 1.0279999997001554e+00 -8.4149509916909592e+04 1.0000000000000000e+00 1.0844082504786698e+01 2.9500413672147191e-01 1.8167562260985488e+01 
55 1 2 1.0279999996994029e+00 -7.9493753267650420e+04 1.0000000000000000e+00 1.0844781436648471e+01 2.9441227908499507e-01 1.8166667866926645e+01 
90 1 2 1.0279999999483165e+00 -8.9566557783859666e+04 1.0000000000000000e+00 1.4914558002462551e+01 6.5694239136018195e+00 1.3589194649920413e+00 
89 1 2 1.0279999999483185e+00 -9.3027737140775716e+04 1.0000000000000000e+00 1.4914559626865666e+01 6.5694228656051967e+00 1.3589194538825957e+00 
84 1 2 1.0279999999483163e+00 -7.9510587793610248e+04 1.0000000000000000e+00 1.4914558092944121e+01 6.5694238552545192e+00 1.3589194643986207e+00 
126 1 2 1.0279999999483147e+00 -9.6673012574877415e+04 1.0000000000000000e+00 1.4914557812689845e+01 6.5694240359412310e+00 1.3589194662035640e+00 
57 1 2 1.0280000009031407e+00 -5.3839123117978161e+04 1.0000000000000000e+00 1.7035588878176679e+01 5.4330104833451776e+00 6.6018954251699680e-01 
62 1 2 1.0280000009031365e+00 -5.9433497599264920e+04 1.0000000000000000e+00 1.7035588879232645e+01 5.4330104836526880e+00 6.6018954166022514e-01 
21 1 2 1.0280000009031411e+00 -5.4622525749584922e+04 1.0000000000000000e+00 1.7035588880363314e+01 5.4330104834460329e+00 6.6018954091749749e-01 
15 1 2 1.0280000009030903e+00 -5.2804202372011918e+04 1.0000000000000000e+00 1.7035593082894426e+01 5.4330129500241373e+00 6.6018572584595425e-01 
160 1 2 1.0280000009025012e+00 -1.0394709480806907e+05 1.0000000000000000e+00 1.7035686310350563e+01 5.4330299709230978e+00 6.6011336631565076e-01 
82 1 2 1.0279999997451810e+00 -7.8402536273027930e+04 1.0000000000000000e+00 1.4587507935174926e+01 7.8879390785352772e+00 1.2016924876403985e+00 
116 1 2 1.0279999997977456e+00 -6.4917083357006588e+04 1.0000000000000000e+00 1.4596883280446242e+01 7.9580734750449453e+00 1.1585071248340746e+00 
76 1 2 1.0279999992206932e+00 -8.4361527313783648e+04 1.0000000000000000e+00 1.6145062445717741e+01 8.7776747114309206e+00 1.1527474357596015e+00 
140 1 2 1.0279999991507274e+00 -8.8306006351999036e+04 1.0000000000000000e+00 1.6228879440878895e+01 8.8020777976293711e+00 1.1159557665240620e+00 
113 1 2 1.0279999987569108e+00 -9.2835777712499752e+04 1.0000000000000000e+00 1.6471215750065884e+01 8.7892551721261594e+00 1.0081844959043347e+00 
173 1 2 1.0279999989973840e+00 -9.9318492294463620e+04 1.0000000000000000e+00 1.7270537822467809e+01 9.4704213486450310e+00 6.4836866485869260e-01 
80 1 2 1.0279999986135184e+00 -7.7225603106046430e+04 1.0000000000000000e+00 1.7576021703627362e+01 9.4192892007618223e+00 5.2218039273264438e-01 
148 1 2 1.0279999998729723e+00 -7.0667673153242722e+04 1.0000000000000000e+00 1.9799104560138876e+01 2.3225440517966844e+00 1.5672416979911754e+01 
38 1 2 1.0279999998603169e+00 -7.2033137931383550e+04 1.0000000000000000e+00 1.9837035790274967e+01 2.2741229212353287e+00 1.5640283103351999e+01 
104 1 2 1.0279999994159563e+00 -8.3496220878124979e+04 1.0000000000000000e+00 1.5343297876170421e+01 2.8011607924464008e+00 1.7577045488604256e+01 
67 1 2 1.0279999994159974e+00 -8.2354683702263152e+04 1.0000000000000000e+00 1.5343301668394146e+01 2.8011672480084293e+00 1.7577044656069717e+01 
103 1 2 1.0279999994159712e+00 -7.1990327511548210e+04 1.0000000000000000e+00 1.5343299001079862e+01 2.8011627074236438e+00 1.7577045241623594e+01 
167 1 2 1.0279999990256330e+00 -6.7330138210015721e+04 1.0000000000000000e+00 1.4224400258272647e+01 3.2709543000387153e-01 1.8219316749195851e+01 
161 1 2 1.0279999990280795e+00 -6.9213992325486412e+04 1.0000000000000000e+00 1.4226442510250223e+01 3.2776263566122421e-01 1.8221191130818298e+01 
53 1 2 1.0279999991871829e+00 -8.9516811733525159e+04 1.0000000000000000e+00 1.4219220184770286e+01 3.1445776456321467e-01 1.8255434020304648e+01 
159 1 2 1.0279999991894964e+00 -8.0973013314642507e+04 1.0000000000000000e+00 1.4219223165649872e+01 3.1430278212819845e-01 1.8255902850392630e+01 
41 1 2 1.0279999992008453e+00 -7.5994643409617624e+04 1.0000000000000000e+00 1.4210525662612318e+01 3.0985991308567107e-01 1.8255482191812135e+01 
146 1 2 1.0279999999080587e+00 -8.2652896899054205e+04 1.0000000000000000e+00 1.4237952287658297e+01 2.4861237520001456e-01 1.8391335790668940e+01 
95 1 2 1.0279999994223388e+00 -7.4491279371410594e+04 1.0000000000000000e+00 1.8498469738820880e+01 2.1351022610886878e+00 1.7240316958299651e+01 
174 1 2 1.0279999994224078e+00 -7.9322719206539841e+04 1.0000000000000000e+00 1.8498557571492217e+01 2.1350210829650660e+00 1.7240227177877827e+01 
141 1 2 1.0280000005770473e+00 -7.3749997107260686e+04 1.0000000000000000e+00 1.8011345690409886e+01 3.1942028751567224e+00 1.7645062154024139e+01 
63 1 2 1.0279999996610569e+00 -5.8900631850220074e+04 1.0000000000000000e+00 1.9659150701751702e+01 1.7349726713178637e+00 1.9411149358406711e+01 
134 1 2 1.0279999999796123e+00 -6.5792945939918762e+04 1.0000000000000000e+00 1.9635861489140538e+01 9.0066548649906852e-01 1.9430943919970602e+01 
31 1 2 1.0279999999814717e+00 -9.0952495769930363e+04 1.0000000000000000e+00 1.8135488493743900e+01 3.3501424120542432e-02 1.8771235982741580e+01 
25 1 2 1.0279999999814813e+00 -6.8413395430126329e+04 1.0000000000000000e+00 1.8135488493743043e+01 3.3501424121781490e-02 1.8771235982741221e+01 
52 1 2 1.0279999999814724e+00 -8.6837038274679973e+04 1.0000000000000000e+00 1.8135488493733558e+01 3.3501424138211944e-02 1.8771235982739576e+01 
1 1 2 1.0279999999814611e+00 -7.8287771592360863e+04 1.0000000000000000e+00 1.8135488493743491e+01 3.3501424121034004e-02 1.8771235982741448e+01 
65 1 2 1.0280000005407102e+00 -8.3225705250114232e+04 1.0000000000000000e+00 1.4400810546076192e+01 3.5644934207469379e+00 1.7941122996814546e+01 
138 1 2 1.0280000005674104e+00 -1.0029403847729636e+05 1.0000000000000000e+00 1.4397620199816863e+01 3.5678677013895395e+00 1.7910669822276564e+01 
168 1 2 1.0280000005585785e+00 -8.1450132289460569e+04 1.0000000000000000e+00 1.4412376341505301e+01 3.5784214720277299e+00 1.7935676479048233e+01 
35 1 2 1.0280000005602834e+00 -7.3969889581308787e+04 1.0000000000000000e+00 1.4411180211894251e+01 3.5778246359802623e+00 1.7932982369154423e+01 
131 1 2 1.0280000005606507e+00 -7.7544750403105441e+04 1.0000000000000000e+00 1.4410944218771064e+01 3.5777079454636080e+00 1.7932433701503143e+01 
132 1 2 1.0280000015181037e+00 -9.5495514222038182e+04 1.0000000000000000e+00 1.7997067671476788e+01 3.4140722781275339e+00 1.7757819075496595e+01 
125 1 2 1.0280000015194699e+00 -9.0797300968457799e+04 1.0000000000000000e+00 1.8009665829681936e+01 3.4281777310593515e+00 1.7751304368214623e+01 
112 1 2 1.0279999892684246e+00 -9.0699132278309815e+04 1.0000000000000000e+00 1.7038334580629531e+01 4.2732383401415488e+00 1.9215253203035221e+01 
177 1 2 1.0280000030135086e+00 -6.4058593391127826e+04 1.0000000000000000e+00 1.7518307781164328e+01 4.2326466975995372e+00 1.9289821603025015e+01 
109 1 2 1.0280000029717158e+00 -8.2551176122171397e+04 1.0000000000000000e+00 1.7516497083195265e+01 4.2304747920032879e+00 1.9288534050287279e+01 
151 1 2 1.0280000029717156e+00 -9.0758247829515545e+04 1.0000000000000000e+00 1.7516497082651139e+01 4.2304747913567295e+00 1.9288534049902410e+01 
9 1 2 1.0279999996032947e+00 -8.9477938027871161e+04 1.0000000000000000e+00 1.5212145404806229e+01 7.8848760476250623e+00 1.9458076439266225e+01 
32 1 2 1.0279999996043103e+00 -5.7576261823801666e+04 1.0000000000000000e+00 1.5211549753572761e+01 7.8852302111188175e+00 1.9458253547437604e+01 
33 1 2 1.0279999996043212e+00 -6.4647400581714595e+04 1.0000000000000000e+00 1.5211549738856496e+01 7.8852302144375912e+00 1.9458253552972639e+01 
26 1 2 1.0279999996043183e+00 -5.9306514642824550e+04 1.0000000000000000e+00 1.5211549754423498e+01 7.8852302104697749e+00 1.9458253547214596e+01 
16 1 2 1.0279999999218621e+00 -6.4833984824110907e+04 1.0000000000000000e+00 1.6677452610172367e+01 9.5598760705061157e+00 1.8699755500856266e+01 
23 1 2 1.0279999999217853e+00 -5.7963278386602855e+04 1.0000000000000000e+00 1.6677486575963151e+01 9.5598626802241036e+00 1.8699752911328929e+01 
22 1 2 1.0279999999218310e+00 -6.5323892357965844e+04 1.0000000000000000e+00 1.6677464606204076e+01 9.5598713408346683e+00 1.8699754586306735e+01 
142 1 2 1.0279999989445117e+00 -5.5116165205922276e+04 1.0000000000000000e+00 1.9405255427632369e+01 9.4404884502331896e+00 1.9666808432505018e+01 
18 1 2 1.0280000000001257e+00 -1.0136957508752446e+05 1.0000000000000000e+00 1.9793596305073745e+01 9.6740674356518941e+00 1.9543236686512660e+01 
29 1 2 1.0279999994532947e+00 -7.5992547177569606e+04 1.0000000000000000e+00 1.8882524015529466e+01 1.0186226455352715e+01 2.7355140574532499e-01 
48 1 2 1.0280000001482494e+00 -1.0801249067903198e+05 1.0000000000000000e+00 1.6281742785123285e+01 1.0324390598824795e+01 1.9949364438203311e+01 
50 1 2 1.0280000000735507e+00 -6.2851709855860187e+04 1.0000000000000000e+00 1.7266689778656872e+01 1.1469818385418728e+01 1.8955640939552463e+01 
20 1 2 1.0280000000735381e+00 -7.0658778241073014e+04 1.0000000000000000e+00 1.7266689795082183e+01 1.1469818368923102e+01 1.8955640857774092e+01 
49 1 2 1.0280000000735492e+00 -6.5294520171469761e+04 1.0000000000000000e+00 1.7266689801785756e+01 1.1469818362186677e+01 1.8955640824381863e+01 
149 1 2 1.0280000000493654e+00 -9.6339651422457027e+04 1.0000000000000000e+00 1.7399921265819287e+01 1.1386545026734796e+01 1.8717276878444586e+01 
54 1 2 1.0280000004743957e+00 -7.5275969532509902e+04 1.0000000000000000e+00 1.8329021305772340e+01 1.1187856541549326e+01 1.9612866397622202e+01 
91 1 2 1.0280000003688214e+00 -7.8735458618058648e+04 1.0000000000000000e+00 1.8251451312493003e+01 1.0879426994859109e+01 1.8636257841995334e+01 
24 1 2 1.0280000002277019e+00 -7.7669215415742976e+04 1.0000000000000000e+00 1.6312036511613499e+01 1.8518464988092646e+01 1.7198974895432293e+01 
121 1 2 1.0280000002276930e+00 -7.8941993581020564e+04 1.0000000000000000e+00 1.6312036511612682e+01 1.8518464988094372e+01 1.7198974895430897e+01 
12 1 2 1.0280000002277023e+00 -1.0635706772348034e+05 1.0000000000000000e+00 1.6312036511611680e+01 1.8518464988091569e+01 1.7198974895431235e+01 
46 1 2 1.0280000002277030e+00 -8.7020646482859971e+04 1.0000000000000000e+00 1.6312036511611357e+01 1.8518464988093207e+01 1.7198974895430325e+01 
135 1 2 1.0280000002276917e+00 -8.1364258678830243e+04 1.0000000000000000e+00 1.6312036511612391e+01 1.8518464988092084e+01 1.7198974895431558e+01 
30 1 2 1.0280000002276937e+00 -7.5122765040041719e+04 1.0000000000000000e+00 1.6312036511611648e+01 1.8518464988095403e+01 1.7198974895429647e+01 
180 1 2 1.0280000002138214e+00 -8.3014860193282104e+04 1.0000000000000000e+00 1.4068141985380690e+01 1.7641514184156765e+01 1.8420754286972780e+01 
5 1 2 1.0280000002138465e+00 -7.2062808665160148e+04 1.0000000000000000e+00 1.4068102404028425e+01 1.7641531440809285e+01 1.8420731208172207e+01 
171 1 2 1.0280000002138050e+00 -5.9432480144905283e+04 1.0000000000000000e+00 1.4068133484365182e+01 1.7641517868749613e+01 1.8420749273619993e+01 
6 1 2 1.0280000002138279e+00 -9.9472619825775560e+04 1.0000000000000000e+00 1.4068130798843372e+01 1.7641519033551884e+01 1.8420747691927584e+01 
37 1 2 1.0280000002138134e+00 -8.5707722840167931e+04 1.0000000000000000e+00 1.4068130959717166e+01 1.7641518963799825e+01 1.8420747786744101e+01 
170 1 2 1.0280000002138161e+00 -7.5960012385406662e+04 1.0000000000000000e+00 1.4068137186243144e+01 1.7641516263835161e+01 1.8420751455727665e+01 
99 1 2 1.0280000000582670e+00 -7.9465392777368033e+04 1.0000000000000000e+00 1.8149931151418336e+01 1.9989391754838412e+01 1.8759597032361828e+01 

Velocities

11 2.1610134999585393e-01 2.3752105513262747e-01 2.0115985933408073e-01
27 2.1610134668992831e-01 2.3752104758017212e-01 2.0115987051288917e-01
64 2.1610134671723594e-01 2.3752104767332846e-01 2.0115987051929290e-01
34 2.1610134670628503e-01 2.3752104763629117e-01 2.0115987051762421e-01
28 2.1610134669709663e-01 2.3752104760529719e-01 2.0115987051734913e-01
70 2.1610134671723732e-01 2.3752104767334456e-01 2.0115987051928211e-01
77 2.1603894270683138e-01 2.3748494331258235e-01 2.0118205425756241e-01
96 2.1610913144376012e-01 2.3757432197264053e-01 2.0109631518222335e-01
66 2.1610844075845564e-01 2.3757218757257773e-01 2.0109532286341508e-01
129 2.1610852931015534e-01 2.3757295439813469e-01 2.0109559098320687e-01
102 2.1610863025584245e-01 2.3757345255017967e-01 2.0109597643159033e-01
150 2.1610911641953823e-01 2.3757108439977498e-01 2.0109417039312477e-01
115 2.1610911303391064e-01 2.3757108459738077e-01 2.0109417445317179e-01
145 2.1610910231469402e-01 2.3757108542634539e-01 2.0109418733659651e-01
176 2.1620190265544101e-01 2.3757843078533680e-01 2.0115570202695982e-01
175 2.1620190266467559e-01 2.3757843076527679e-01 2.0115570222596549e-01
85 2.1620190266527212e-01 2.3757843077257268e-01 2.0115570178813572e-01
73 2.1620190265759889e-01 2.3757843078490734e-01 2.0115570184880313e-01
122 2.1620190266218492e-01 2.3757843076932986e-01 2.0115570224271884e-01
136 2.1620190262995775e-01 2.3757843080486568e-01 2.0115570329355542e-01
110 2.1620190266500214e-01 2.3757843076168023e-01 2.0115570238317837e-01
117 2.1549365355981281e-01 2.3687824721786943e-01 2.0170658442159464e-01
36 2.1549358129605972e-01 2.3687816167669873e-01 2.0170656148519911e-01
58 2.1549358129415802e-01 2.3687816167591091e-01 2.0170656148425645e-01
178 2.1549358063147708e-01 2.3687816093332140e-01 2.0170656123337993e-01
165 2.1549358129454976e-01 2.3687816167794340e-01 2.0170656148457100e-01
59 2.1549358129667509e-01 2.3687816167602749e-01 2.0170656148523097e-01
2 2.1549358128187410e-01 2.3687816157309366e-01 2.0170656147665417e-01
19 2.1559159690394744e-01 2.3690155030333857e-01 2.0158690454425593e-01
105 2.1556887817274173e-01 2.3690173064270828e-01 2.0155422347820509e-01
69 2.1556887817573944e-01 2.3690173064149750e-01 2.0155422347773236e-01
43 2.1557335567890970e-01 2.3689770483669098e-01 2.0154686311098111e-01
157 2.1557421683088829e-01 2.3689700135904179e-01 2.0154694844250726e-01
164 2.1557421680665537e-01 2.3689700137825973e-01 2.0154694844127183e-01
158 2.1557421608177504e-01 2.3689700190361990e-01 2.0154694838769821e-01
88 2.1554630095555197e-01 2.3688791203766996e-01 2.0167255827682440e-01
92 2.1553750541535283e-01 2.3687990017769514e-01 2.0169654976527582e-01
83 2.1554445908905950e-01 2.3688891968990627e-01 2.0169204561491008e-01
179 2.1554448259764167e-01 2.3688891438479090e-01 2.0169206597617362e-01
51 2.1554448259973227e-01 2.3688891438309126e-01 2.0169206597767256e-01
124 2.1554448259552333e-01 2.3688891438661938e-01 2.0169206597447353e-01
130 2.1554448260030754e-01 2.3688891438082987e-01 2.0169206597795006e-01
108 2.1554450695441024e-01 2.3688890057564585e-01 2.0169208578188502e-01