LAMMPS data file via write_data, version 30 Jul 2016, timestep = 50000000

180 atoms
2 atom types

0.0000000000000000e+00 2.0000000000000000e+01 xlo xhi
0.0000000000000000e+00 2.0000000000000000e+01 ylo yhi
0.0000000000000000e+00 2.0000000000000000e+01 zlo zhi

Masses

1 3.896
2 4.31

Atoms # meso-molecular

37 1 2 1.0280000002402505e+00 -8.5707722840167931e+04 1.0000000000000000e+00 5.4464600999265995e+00 8.1627142314483301e+00 1.0356506552667192e+01 
170 1 2 1.0280000002402494e+00 -7.5960012385406662e+04 1.0000000000000000e+00 5.4464663222863354e+00 8.1627115314974610e+00 1.0356510220342949e+01 
180 1 2 1.0280000002402425e+00 -8.3014860193282104e+04 1.0000000000000000e+00 5.4464711182130721e+00 8.1627094518294250e+00 1.0356513050577398e+01 
5 1 2 1.0280000002402661e+00 -7.2062808665160148e+04 1.0000000000000000e+00 5.4464315633690950e+00 8.1627267083950379e+00 1.0356489979931771e+01 
171 1 2 1.0280000002402438e+00 -5.9432480144905283e+04 1.0000000000000000e+00 5.4464626228850861e+00 8.1627131364038572e+00 1.0356508039013340e+01 
6 1 2 1.0280000002402496e+00 -9.9472619825775560e+04 1.0000000000000000e+00 5.4464599391604773e+00 8.1627143012000616e+00 1.0356506457884775e+01 
87 1 2 1.0279999999078122e+00 -7.4321283557602612e+04 1.0000000000000000e+00 2.7114306100252078e-01 1.4803988996483797e+01 5.6604962881886483e+00 
143 1 2 1.0279999999094613e+00 -6.5451465220521030e+04 1.0000000000000000e+00 2.7086001971206530e-01 1.4803894200911589e+01 5.6596420795813174e+00 
79 1 2 1.0279999998778546e+00 -8.6979681284326667e+04 1.0000000000000000e+00 2.7024677477827730e-01 1.4820574171109765e+01 5.6726035371413399e+00 
13 1 2 1.0279999998716685e+00 -6.9656885996407960e+04 1.0000000000000000e+00 2.6991567492530588e-01 1.4823359130004253e+01 5.6754934258197096e+00 
86 1 2 1.0279999998840201e+00 -7.4957898353085082e+04 1.0000000000000000e+00 2.6751114490491812e-01 1.4726450079526895e+01 5.7152941690354293e+00 
98 1 2 1.0279999999068814e+00 -7.6742882259258113e+04 1.0000000000000000e+00 2.6223924308309760e-01 1.4826867654266680e+01 5.6557434388735963e+00 
106 1 2 1.0279999998616736e+00 -7.5629570637194003e+04 1.0000000000000000e+00 2.4831983452214407e-01 1.4861084457177338e+01 5.6786319506843164e+00 
97 1 2 1.0280000002980851e+00 -5.8823133937761551e+04 1.0000000000000000e+00 2.3181666519454476e+00 1.2043634260951958e+01 9.0371565972278471e+00 
61 1 2 1.0280000002981464e+00 -6.2534826676702156e+04 1.0000000000000000e+00 2.3186490026140922e+00 1.2042947979621177e+01 9.0365564715311617e+00 
153 1 2 1.0280000002806131e+00 -9.0989537917224618e+04 1.0000000000000000e+00 2.4022239343510199e+00 1.1791477489168148e+01 8.8678508248195964e+00 
3 1 2 1.0280000002653986e+00 -7.7397167572349252e+04 1.0000000000000000e+00 2.4065569873083237e+00 1.1725494510462957e+01 8.8400280653923016e+00 
100 1 2 1.0280000001982914e+00 -6.7906008627292278e+04 1.0000000000000000e+00 1.1070433922385743e+00 1.1791657016577004e+01 8.8804970665960461e+00 
119 1 2 1.0279999996566180e+00 -9.2604308155517399e+04 1.0000000000000000e+00 4.1432362981984960e-01 1.1461154984252223e+01 9.8422785429179527e+00 
128 1 2 1.0279999996562827e+00 -8.1727245812564172e+04 1.0000000000000000e+00 4.1389211498685369e-01 1.1461440663009837e+01 9.8419367824866022e+00 
138 1 2 1.0280000005850674e+00 -1.0029403847729636e+05 1.0000000000000000e+00 5.7717711542040124e+00 1.4089050512435421e+01 9.8462090648985416e+00 
131 1 2 1.0280000005762537e+00 -7.7544750403105441e+04 1.0000000000000000e+00 5.7850685954151810e+00 1.4098874312450384e+01 9.8679509523055167e+00 
65 1 2 1.0280000005549566e+00 -8.3225705250114232e+04 1.0000000000000000e+00 5.7749425078853500e+00 1.4085686731075873e+01 9.8766301381208059e+00 
168 1 2 1.0280000005738368e+00 -8.1450132289460569e+04 1.0000000000000000e+00 5.7864973369108501e+00 1.4099586956590311e+01 9.8711904878853627e+00 
35 1 2 1.0280000005758445e+00 -7.3969889581308787e+04 1.0000000000000000e+00 5.7853040255517456e+00 1.4098990859979049e+01 9.8684990680518165e+00 
17 1 2 1.0279999996523408e+00 -1.0024769657244781e+05 1.0000000000000000e+00 2.2241129532022970e+00 1.0820278519881120e+01 1.0098562393333209e+01 
111 1 2 1.0279999996523499e+00 -8.0465250284044116e+04 1.0000000000000000e+00 2.2241137287580659e+00 1.0820277862609021e+01 1.0098561403313314e+01 
75 1 2 1.0279999996522973e+00 -8.4149509916909592e+04 1.0000000000000000e+00 2.2241503882452118e+00 1.0820246793149559e+01 1.0098514601159989e+01 
55 1 2 1.0279999996514062e+00 -7.9493753267650420e+04 1.0000000000000000e+00 2.2248493547045012e+00 1.0819654047314824e+01 1.0097620330048100e+01 
146 1 2 1.0279999999039739e+00 -8.2652896899054205e+04 1.0000000000000000e+00 5.6151979051308540e+00 1.0770375851032883e+01 1.0327242656765383e+01 
159 1 2 1.0279999991008300e+00 -8.0973013314642507e+04 1.0000000000000000e+00 5.5963106036319550e+00 1.0836350035981331e+01 1.0191762558372146e+01 
41 1 2 1.0279999991097590e+00 -7.5994643409617624e+04 1.0000000000000000e+00 5.5876052760450001e+00 1.0831900541361311e+01 1.0191336212445192e+01 
53 1 2 1.0279999990982371e+00 -8.9516811733525159e+04 1.0000000000000000e+00 5.5963071695885702e+00 1.0836505853452921e+01 1.0191293060178637e+01 
161 1 2 1.0279999989227815e+00 -6.9213992325486412e+04 1.0000000000000000e+00 5.6035072665640682e+00 1.0849870325229952e+01 1.0156995545551981e+01 
167 1 2 1.0279999989190387e+00 -6.7330138210015721e+04 1.0000000000000000e+00 5.6014617284083075e+00 1.0849203382699033e+01 1.0155116264408544e+01 
126 1 2 1.0279999999720781e+00 -9.6673012574877415e+04 1.0000000000000000e+00 6.2784802726019766e+00 1.7074394321470486e+01 1.3306611503399740e+01 
89 1 2 1.0279999999720810e+00 -9.3027737140775716e+04 1.0000000000000000e+00 6.2784820904956380e+00 1.7074393154853176e+01 1.3306611487996914e+01 
90 1 2 1.0279999999720664e+00 -8.9566557783859666e+04 1.0000000000000000e+00 6.2784804627635937e+00 1.7074394199520032e+01 1.3306611501866252e+01 
84 1 2 1.0279999999720912e+00 -7.9510587793610248e+04 1.0000000000000000e+00 6.2784805534305868e+00 1.7074394141358205e+01 1.3306611501119125e+01 
82 1 2 1.0279999997079925e+00 -7.8402536273027930e+04 1.0000000000000000e+00 5.9493650012161101e+00 1.8392266335540146e+01 1.3150489111181146e+01 
116 1 2 1.0279999997663498e+00 -6.4917083357006588e+04 1.0000000000000000e+00 5.9586948328670362e+00 1.8462381520617811e+01 1.3107298346286697e+01 
26 1 2 1.0279999995791773e+00 -5.9306514642824550e+04 1.0000000000000000e+00 6.5730988457261290e+00 1.8389240469833023e+01 1.1406014476591142e+01 
9 1 2 1.0279999995781079e+00 -8.9477938027871161e+04 1.0000000000000000e+00 6.5736949276420322e+00 1.8388885990094494e+01 1.1405836424505999e+01 
33 1 2 1.0279999995791769e+00 -6.4647400581714595e+04 1.0000000000000000e+00 6.5730988301514657e+00 1.8389240473806737e+01 1.1406014482367421e+01 
32 1 2 1.0279999995791760e+00 -5.7576261823801666e+04 1.0000000000000000e+00 6.5730988448745613e+00 1.8389240470482491e+01 1.1406014476815759e+01 
42 1 2 1.0280000004949303e+00 -9.2042497803570572e+04 1.0000000000000000e+00 3.2479919222023654e+00 1.6232550034619830e+01 1.3585700766793671e+01 
139 1 2 1.0280000004949299e+00 -7.0770655344070517e+04 1.0000000000000000e+00 3.2479919222022957e+00 1.6232550034620147e+01 1.3585700766793995e+01 
166 1 2 1.0280000004949303e+00 -6.1878648163128164e+04 1.0000000000000000e+00 3.2479919222023921e+00 1.6232550034619848e+01 1.3585700766793993e+01 
81 1 2 1.0280000004949303e+00 -6.3310588619089052e+04 1.0000000000000000e+00 3.2479919222023765e+00 1.6232550034619809e+01 1.3585700766793719e+01 
7 1 2 1.0280000004949303e+00 -7.6353595960454375e+04 1.0000000000000000e+00 3.2479919222023419e+00 1.6232550034619916e+01 1.3585700766793689e+01 
40 1 2 1.0280000004949299e+00 -9.8648135236537782e+04 1.0000000000000000e+00 3.2479919222024147e+00 1.6232550034619759e+01 1.3585700766793922e+01 
93 1 2 1.0280000004949299e+00 -8.3607127481438671e+04 1.0000000000000000e+00 3.2479919222023916e+00 1.6232550034619763e+01 1.3585700766793719e+01 
12 1 2 1.0280000002430618e+00 -1.0635706772348034e+05 1.0000000000000000e+00 7.6897491721122444e+00 9.0399514246559072e+00 9.1355118723743338e+00 
121 1 2 1.0280000002430563e+00 -7.8941993581020564e+04 1.0000000000000000e+00 7.6897491721131930e+00 9.0399514246587103e+00 9.1355118723739732e+00 
24 1 2 1.0280000002430512e+00 -7.7669215415742976e+04 1.0000000000000000e+00 7.6897491721140154e+00 9.0399514246567918e+00 9.1355118723753801e+00 
30 1 2 1.0280000002430572e+00 -7.5122765040041719e+04 1.0000000000000000e+00 7.6897491721122622e+00 9.0399514246598311e+00 9.1355118723727724e+00 
135 1 2 1.0280000002430563e+00 -8.1364258678830243e+04 1.0000000000000000e+00 7.6897491721128501e+00 9.0399514246565111e+00 9.1355118723745630e+00 
46 1 2 1.0280000002430552e+00 -8.7020646482859971e+04 1.0000000000000000e+00 7.6897491721118794e+00 9.0399514246574224e+00 9.1355118723734012e+00 
54 1 2 1.0280000005158862e+00 -7.5275969532509902e+04 1.0000000000000000e+00 9.6880107491048850e+00 1.6908373803039718e+00 1.1562932527108282e+01 
50 1 2 1.0280000000833796e+00 -6.2851709855860187e+04 1.0000000000000000e+00 8.6262285057220733e+00 1.9734467819688684e+00 1.0905502136279861e+01 
20 1 2 1.0280000000833793e+00 -7.0658778241073014e+04 1.0000000000000000e+00 8.6262285221364969e+00 1.9734467654807322e+00 1.0905502054510126e+01 
49 1 2 1.0280000000833782e+00 -6.5294520171469761e+04 1.0000000000000000e+00 8.6262285288352771e+00 1.9734467587473163e+00 1.0905502021121366e+01 
48 1 2 1.0280000001798895e+00 -1.0801249067903198e+05 1.0000000000000000e+00 7.6419197700263775e+00 8.2870285290397738e-01 1.1898774009014881e+01 
149 1 2 1.0280000000546128e+00 -9.6339651422457027e+04 1.0000000000000000e+00 8.7594164015854030e+00 1.8901651096776879e+00 1.0667170757820147e+01 
91 1 2 1.0280000003968255e+00 -7.8735458618058648e+04 1.0000000000000000e+00 9.6104536101817306e+00 1.3826884373607422e+00 1.0586677942305666e+01 
22 1 2 1.0279999999282017e+00 -6.5323892357965844e+04 1.0000000000000000e+00 8.0375671282939845e+00 6.3853578739872435e-02 1.0648701762701382e+01 
16 1 2 1.0279999999282055e+00 -6.4833984824110907e+04 1.0000000000000000e+00 8.0375551326143828e+00 6.3858313143274753e-02 1.0648702675475528e+01 
23 1 2 1.0279999999282037e+00 -5.7963278386602855e+04 1.0000000000000000e+00 8.0375890974072490e+00 6.3844909463586674e-02 1.0648700090975721e+01 
29 1 2 1.0279999993830562e+00 -7.5992547177569606e+04 1.0000000000000000e+00 1.0241826927017204e+01 6.8896557783006351e-01 1.2225205177474844e+01 
77 1 2 1.0279999998666980e+00 -8.6222630981080627e+04 1.0000000000000000e+00 1.2250376409730377e+01 3.4652416081961385e-01 1.2155214438819375e+01 
44 1 2 1.0280000000582723e+00 -9.5030278643336933e+04 1.0000000000000000e+00 1.1472620952313248e+01 2.8725806681179467e-01 1.1612711932102590e+01 
18 1 2 1.0279999999762439e+00 -1.0136957508752446e+05 1.0000000000000000e+00 1.1152162580163330e+01 1.7528595507682232e-01 1.1495057333421034e+01 
174 1 2 1.0279999993792472e+00 -7.9322719206539841e+04 1.0000000000000000e+00 9.8741565188742726e+00 1.2658056642113582e+01 9.1787154621679363e+00 
95 1 2 1.0279999993791182e+00 -7.4491279371410594e+04 1.0000000000000000e+00 9.8740685561129080e+00 1.2658137724665695e+01 9.1788052583894117e+00 
103 1 2 1.0279999994264535e+00 -7.1990327511548210e+04 1.0000000000000000e+00 6.7180397951314808e+00 1.3322642997003184e+01 9.5127178694368464e+00 
104 1 2 1.0279999994264355e+00 -8.3496220878124979e+04 1.0000000000000000e+00 6.7180386742421776e+00 1.3322641079802819e+01 9.5127181112320649e+00 
67 1 2 1.0279999994264766e+00 -8.2354683702263152e+04 1.0000000000000000e+00 6.7180424529143608e+00 1.3322647542859858e+01 9.5127172961783355e+00 
69 1 2 1.0279999997085398e+00 -8.5341324607977760e+04 1.0000000000000000e+00 1.2219120917539209e+01 1.2485465252892052e+01 7.2538942933822987e+00 
105 1 2 1.0279999997085358e+00 -7.6469813946155904e+04 1.0000000000000000e+00 1.2219121128971191e+01 1.2485464497161434e+01 7.2538942385931575e+00 
38 1 2 1.0279999998602440e+00 -7.2033137931383550e+04 1.0000000000000000e+00 1.1213935463964667e+01 1.2798092403685894e+01 7.5785402795783510e+00 
148 1 2 1.0279999998739229e+00 -7.0667673153242722e+04 1.0000000000000000e+00 1.1175974273972317e+01 1.2846498270919609e+01 7.6107122041361617e+00 
43 1 2 1.0280000000380840e+00 -7.8026709675611477e+04 1.0000000000000000e+00 1.2488130707335719e+01 1.1403555342953924e+01 7.9774843709755192e+00 
158 1 2 1.0280000000962397e+00 -8.1510607883124278e+04 1.0000000000000000e+00 1.2488240322725737e+01 1.1382345057313561e+01 8.0523844554746375e+00 
157 1 2 1.0280000000962828e+00 -8.2617101480192374e+04 1.0000000000000000e+00 1.2488229467997513e+01 1.1382322814435399e+01 8.0524499734074872e+00 
164 1 2 1.0280000000962719e+00 -6.5015833208854718e+04 1.0000000000000000e+00 1.2488229778359656e+01 1.1382323482419919e+01 8.0524479683171890e+00 
123 1 2 1.0280000004495509e+00 -9.3804793700286624e+04 1.0000000000000000e+00 1.1399041964573675e+01 1.0766363100229812e+01 9.9753151913590781e+00 
147 1 2 1.0280000004507597e+00 -8.3816060124584707e+04 1.0000000000000000e+00 1.1400538157125425e+01 1.0767458106673207e+01 9.9744388473264358e+00 
107 1 2 1.0280000004509471e+00 -7.9869326944191649e+04 1.0000000000000000e+00 1.1400746576617358e+01 1.0767618356594436e+01 9.9742625503196880e+00 
141 1 2 1.0280000006563763e+00 -7.3749997107260686e+04 1.0000000000000000e+00 9.3875615214550958e+00 1.3715852297730681e+01 9.5846213578854531e+00 
125 1 2 1.0280000016785158e+00 -9.0797300968457799e+04 1.0000000000000000e+00 9.3860859728469634e+00 1.3949026132697178e+01 9.6912020346624477e+00 
132 1 2 1.0280000016791024e+00 -9.5495514222038182e+04 1.0000000000000000e+00 9.3735014488875557e+00 1.3934952451704806e+01 9.6976967467824693e+00 
74 1 2 1.0280000003015062e+00 -6.7109429830611873e+04 1.0000000000000000e+00 1.1567282483134614e+01 1.4190846644465919e+01 8.9474654794418420e+00 
169 1 2 1.0280000003001672e+00 -9.2797234677523418e+04 1.0000000000000000e+00 1.1564560728611392e+01 1.4191760853179808e+01 8.9477989904904369e+00 
68 1 2 1.0280000003008860e+00 -8.5191288019729720e+04 1.0000000000000000e+00 1.1565843342795429e+01 1.4191457764288002e+01 8.9484919091687658e+00 
10 1 2 1.0280000003009564e+00 -7.4258464619614489e+04 1.0000000000000000e+00 1.1566038691359044e+01 1.4191372594887868e+01 8.9483374639963866e+00 
25 1 2 1.0279999999753626e+00 -6.8413395430126329e+04 1.0000000000000000e+00 9.5123220140699534e+00 1.0556183622311284e+01 1.0708857470001394e+01 
31 1 2 1.0279999999753699e+00 -9.0952495769930363e+04 1.0000000000000000e+00 9.5123220140704365e+00 1.0556183622310190e+01 1.0708857470001279e+01 
1 1 2 1.0279999999753635e+00 -7.8287771592360863e+04 1.0000000000000000e+00 9.5123220140706586e+00 1.0556183622310341e+01 1.0708857470001679e+01 
52 1 2 1.0279999999753626e+00 -8.6837038274679973e+04 1.0000000000000000e+00 9.5123220140606577e+00 1.0556183622327387e+01 1.0708857469999751e+01 
99 1 2 1.0280000000586189e+00 -7.9465392777368033e+04 1.0000000000000000e+00 9.5267961063389581e+00 1.0512088694688963e+01 1.0697186168700290e+01 
134 1 2 1.0279999999765630e+00 -6.5792945939918762e+04 1.0000000000000000e+00 1.1012300711265430e+01 1.1423569957575799e+01 1.1368999340037506e+01 
63 1 2 1.0279999996351654e+00 -5.8900631850220074e+04 1.0000000000000000e+00 1.1035195293424428e+01 1.2258129461080133e+01 1.1349806015163207e+01 
120 1 2 1.0279999995912286e+00 -8.4723531861741445e+04 1.0000000000000000e+00 1.1679542372078208e+01 1.2999979825872536e+01 1.0898680746881714e+01 
39 1 2 1.0279999996131897e+00 -6.3590254090880910e+04 1.0000000000000000e+00 1.1713612507849295e+01 1.2977258224155932e+01 1.0882170248643241e+01 
8 1 2 1.0279999996156128e+00 -9.0254783140518732e+04 1.0000000000000000e+00 1.1717023105322426e+01 1.2974745515568280e+01 1.0880510982441763e+01 
45 1 2 1.0279999996755980e+00 -5.3679217047691942e+04 1.0000000000000000e+00 1.1788012512322087e+01 1.2913589531541014e+01 1.0844543382753745e+01 
177 1 2 1.0280000034156473e+00 -6.4058593391127826e+04 1.0000000000000000e+00 8.8914039271494456e+00 1.4750272557967479e+01 1.1231284090121882e+01 
109 1 2 1.0280000033717007e+00 -8.2551176122171397e+04 1.0000000000000000e+00 8.8896110855216559e+00 1.4748108593423991e+01 1.1229994907228564e+01 
151 1 2 1.0280000033716983e+00 -9.0758247829515545e+04 1.0000000000000000e+00 8.8896110849829508e+00 1.4748108592779792e+01 1.1229994906843300e+01 
160 1 2 1.0280000010353376e+00 -1.0394709480806907e+05 1.0000000000000000e+00 8.4047674253190969e+00 1.5945512602547742e+01 1.2603887636420072e+01 
57 1 2 1.0280000010360297e+00 -5.3839123117978161e+04 1.0000000000000000e+00 8.4046699058930354e+00 1.5945493047143886e+01 1.2603963538188685e+01 
62 1 2 1.0280000010360377e+00 -5.9433497599264920e+04 1.0000000000000000e+00 8.4046699069500903e+00 1.5945493047451833e+01 1.2603963537335137e+01 
21 1 2 1.0280000010360328e+00 -5.4622525749584922e+04 1.0000000000000000e+00 8.4046699080815834e+00 1.5945493047247380e+01 1.2603963536593849e+01 
15 1 2 1.0280000010359867e+00 -5.2804202372011918e+04 1.0000000000000000e+00 8.4046741151740179e+00 1.5945495511419365e+01 1.2603959740068877e+01 
112 1 2 1.0279999878871542e+00 -9.0699132278309815e+04 1.0000000000000000e+00 8.4098874899977130e+00 1.4790339149861895e+01 1.1156261725607878e+01 
80 1 2 1.0279999984672483e+00 -7.7225603106046430e+04 1.0000000000000000e+00 8.9368942893897394e+00 1.9922420252357615e+01 1.2473670164491077e+01 
173 1 2 1.0279999988940425e+00 -9.9318492294463620e+04 1.0000000000000000e+00 8.6312895645217935e+00 1.9974182794353229e+01 1.2599551985197628e+01 
113 1 2 1.0279999986212744e+00 -9.2835777712499752e+04 1.0000000000000000e+00 7.8329582297924896e+00 1.9293407513652834e+01 1.2958882737817135e+01 
140 1 2 1.0279999990557420e+00 -8.8306006351999036e+04 1.0000000000000000e+00 7.5903136245195446e+00 1.9306397139453821e+01 1.3066462570083898e+01 
76 1 2 1.0279999991335202e+00 -8.4361527313783648e+04 1.0000000000000000e+00 7.5064602052699527e+00 1.9282018205814637e+01 1.3103204863958675e+01 
142 1 2 1.0279999988045667e+00 -5.5116165205922276e+04 1.0000000000000000e+00 1.0764020684534270e+01 1.9941371564205369e+01 1.1618121064883669e+01 
101 1 2 1.0279999994883926e+00 -6.9071758644456771e+04 1.0000000000000000e+00 1.1567155837054219e+01 1.9938207547680197e+01 1.1671041882423427e+01 
127 1 2 1.0279999995967604e+00 -8.9233199867567004e+04 1.0000000000000000e+00 1.1901983098117638e+01 1.9754585972341939e+01 1.1842263531664750e+01 
70 1 2 1.0280000003219671e+00 -5.2656709355387837e+04 1.0000000000000000e+00 1.3022515084220508e+01 1.9568468344291180e+01 1.3716639708897187e+01 
28 1 2 1.0280000003219305e+00 -6.8025008691145034e+04 1.0000000000000000e+00 1.3022514917863267e+01 1.9568465923903783e+01 1.3716638461659441e+01 
34 1 2 1.0280000003218823e+00 -6.2921764213971124e+04 1.0000000000000000e+00 1.3022515004860171e+01 1.9568467012333173e+01 1.3716639016498663e+01 
64 1 2 1.0280000003219687e+00 -6.3946158283701683e+04 1.0000000000000000e+00 1.3022515084106800e+01 1.9568468344004376e+01 1.3716639708795961e+01 
27 1 2 1.0280000003218988e+00 -7.5137504132208735e+04 1.0000000000000000e+00 1.3022514932464134e+01 1.9568464944495560e+01 1.3716637916364068e+01 
11 1 2 1.0280000003192660e+00 -1.0500801969386132e+05 1.0000000000000000e+00 1.3022773280757518e+01 1.9568474553264892e+01 1.3716515037756324e+01 
73 1 2 1.0280000000263432e+00 -8.5151383566039993e+04 1.0000000000000000e+00 1.3161202833873260e+01 1.9550295810356346e+01 1.6947926905726195e+01 
110 1 2 1.0280000000264984e+00 -6.2337848802066030e+04 1.0000000000000000e+00 1.3161192881385817e+01 1.9550283172281222e+01 1.6947927261844285e+01 
175 1 2 1.0280000000264553e+00 -9.8756181869847729e+04 1.0000000000000000e+00 1.3161196937636243e+01 1.9550284895896556e+01 1.6947927097522911e+01 
176 1 2 1.0280000000263940e+00 -8.1229002929574752e+04 1.0000000000000000e+00 1.3161196671043339e+01 1.9550296608736058e+01 1.6947927175053408e+01 
136 1 2 1.0280000000267833e+00 -5.5687321594107234e+04 1.0000000000000000e+00 1.3161147142867383e+01 1.9550312311501223e+01 1.6947929377841955e+01 
85 1 2 1.0280000000263219e+00 -7.7324812954184381e+04 1.0000000000000000e+00 1.3161209197645505e+01 1.9550288040758488e+01 1.6947926588116545e+01 
122 1 2 1.0280000000264595e+00 -8.9180724800242577e+04 1.0000000000000000e+00 1.3161194957942003e+01 1.9550287433616372e+01 1.6947927196958936e+01 
36 1 2 1.0279999996356348e+00 -7.5507710406320635e+04 1.0000000000000000e+00 1.6406292969140871e+01 1.3702593643159627e+01 3.2939396725361751e+00 
2 1 2 1.0279999996356377e+00 -7.4460994519307817e+04 1.0000000000000000e+00 1.6406293335031389e+01 1.3702597844527954e+01 3.2939391629591301e+00 
59 1 2 1.0279999996356342e+00 -6.2203920431196777e+04 1.0000000000000000e+00 1.6406292944988120e+01 1.3702593671345472e+01 3.2939396759683897e+00 
165 1 2 1.0279999996356350e+00 -7.8562238914188638e+04 1.0000000000000000e+00 1.6406293022791871e+01 1.3702593588358457e+01 3.2939396641400296e+00 
178 1 2 1.0279999996357674e+00 -6.0771674256258411e+04 1.0000000000000000e+00 1.6406315571986287e+01 1.3702622554600763e+01 3.2939310000448052e+00 
58 1 2 1.0279999996356344e+00 -6.0939520405988311e+04 1.0000000000000000e+00 1.6406293032992963e+01 1.3702593670224955e+01 3.2939396534180410e+00 
117 1 2 1.0279999996218616e+00 -9.8344015276092890e+04 1.0000000000000000e+00 1.6403879397393247e+01 1.3699318123669093e+01 3.2949664074575677e+00 
83 1 2 1.0280000005068677e+00 -8.7217406474036572e+04 1.0000000000000000e+00 1.7229755803094374e+01 1.4030252160574609e+01 6.4048049134267986e+00 
124 1 2 1.0280000005107293e+00 -9.8164905445445183e+04 1.0000000000000000e+00 1.7230048396525810e+01 1.4029944254953028e+01 6.4055467484269482e+00 
51 1 2 1.0280000005107266e+00 -7.0390564035725314e+04 1.0000000000000000e+00 1.7230048472452978e+01 1.4029944127480274e+01 6.4055468622096212e+00 
179 1 2 1.0280000005107248e+00 -9.1215773560239351e+04 1.0000000000000000e+00 1.7230048435862031e+01 1.4029944189844745e+01 6.4055468089613887e+00 
130 1 2 1.0280000005107301e+00 -1.0487415340355647e+05 1.0000000000000000e+00 1.7230048500401317e+01 1.4029944060657801e+01 6.4055468702390339e+00 
108 1 2 1.0280000005140792e+00 -7.5767874912822983e+04 1.0000000000000000e+00 1.7230423660915811e+01 1.4029393587141195e+01 6.4062576828705184e+00 
14 1 2 1.0279999995660074e+00 -5.3119951476438837e+04 1.0000000000000000e+00 1.6397794457720195e+01 1.2827844884669577e+01 9.8267002903745979e+00 
156 1 2 1.0279999999914535e+00 -8.2654372805814026e+04 1.0000000000000000e+00 1.6470519591656323e+01 1.1277361805799750e+01 9.4433824620697919e+00 
19 1 2 1.0280000021529732e+00 -7.9857693199170084e+04 1.0000000000000000e+00 1.3374098541390147e+01 1.2891669252169798e+01 8.2134593385368060e+00 
94 1 2 1.0280000000361462e+00 -9.9465381461810248e+04 1.0000000000000000e+00 1.6730128274207498e+01 1.1331044895699966e+01 9.2792416663350714e+00 
56 1 2 1.0280000000351415e+00 -8.6152435222771383e+04 1.0000000000000000e+00 1.6723961879878537e+01 1.1330293228127593e+01 9.2818491714468543e+00 
163 1 2 1.0280000001118419e+00 -8.5217044044853552e+04 1.0000000000000000e+00 1.8229407882059540e+01 1.2622369303623392e+01 9.9015822203846522e+00 
144 1 2 1.0280000001463627e+00 -8.8248867799625878e+04 1.0000000000000000e+00 1.8952182721683513e+01 1.2086298813464511e+01 9.5432895188738360e+00 
137 1 2 1.0279999999351850e+00 -7.5048229020115192e+04 1.0000000000000000e+00 1.8651729550386495e+01 1.1043340634451905e+01 9.8988699239757292e+00 
78 1 2 1.0280000001466183e+00 -5.7199413363102169e+04 1.0000000000000000e+00 1.8951343565071738e+01 1.2084978753348011e+01 9.5415547852551921e+00 
114 1 2 1.0280000001467153e+00 -8.1089812329685592e+04 1.0000000000000000e+00 1.8951010168790411e+01 1.2084458981865000e+01 9.5408730194867175e+00 
88 1 2 1.0280000017856377e+00 -6.2967631730697183e+04 1.0000000000000000e+00 1.4905254946767228e+01 1.3437902765599313e+01 8.1804450378503546e+00 
92 1 2 1.0280000003488394e+00 -8.4877226616433501e+04 1.0000000000000000e+00 1.6378603987174479e+01 1.3559506565104201e+01 6.9914980112664518e+00 
152 1 2 1.0279999997607749e+00 -8.9890301667785563e+04 1.0000000000000000e+00 1.5098568932421424e+01 1.3868895976881399e+01 8.6354290051274027e+00 
155 1 2 1.0279999997941283e+00 -9.0356554187321555e+04 1.0000000000000000e+00 1.5075777209681547e+01 1.3853882253155405e+01 8.6415687621611514e+00 
4 1 2 1.0279999997941243e+00 -7.3878445208553821e+04 1.0000000000000000e+00 1.5075775957918468e+01 1.3853881232279093e+01 8.6415693827166873e+00 
154 1 2 1.0279999997941247e+00 -1.0599120239099248e+05 1.0000000000000000e+00 1.5075777223823028e+01 1.3853882264693249e+01 8.6415687551422469e+00 
118 1 2 1.0279999997941258e+00 -6.6961158957709078e+04 1.0000000000000000e+00 1.5075777176456693e+01 1.3853882226043268e+01 8.6415687786596607e+00 
60 1 2 1.0279999999406746e+00 -6.5103351117665938e+04 1.0000000000000000e+00 1.6116604689099869e+01 1.1507621838224205e+01 1.0792381205501767e+01 
162 1 2 1.0279999999758902e+00 -6.2844688554739289e+04 1.0000000000000000e+00 1.6241001981801340e+01 1.1109047163402003e+01 1.0678512723868863e+01 
71 1 2 1.0279999998432807e+00 -7.8504441887564099e+04 1.0000000000000000e+00 1.5991403065622896e+01 1.1818877659336536e+01 1.0564517491982524e+01 
172 1 2 1.0280000000070477e+00 -6.0518110365786895e+04 1.0000000000000000e+00 1.7499863597225229e+01 1.1760095432967375e+01 1.1480383704884758e+01 
72 1 2 1.0280000000080254e+00 -8.3495893624562392e+04 1.0000000000000000e+00 1.7659997339689056e+01 1.1786607435824408e+01 1.1448187791739416e+01 
47 1 2 1.0280000000076186e+00 -1.0523154656541298e+05 1.0000000000000000e+00 1.7735791442881428e+01 1.1798750116866817e+01 1.1427348126638996e+01 
133 1 2 1.0279999999820053e+00 -9.2143935601283913e+04 1.0000000000000000e+00 1.7667208256994805e+01 1.0978659346488424e+01 1.1159244597054990e+01 
96 1 2 1.0279999991164928e+00 -6.2288465036744230e+04 1.0000000000000000e+00 1.6207106272076739e+01 1.9741202914297133e+01 1.4204639942187898e+01 
129 1 2 1.0279999989785000e+00 -8.6145824191602427e+04 1.0000000000000000e+00 1.6209283236328993e+01 1.9763608893423843e+01 1.4215202839285284e+01 
102 1 2 1.0279999990081383e+00 -9.5523244028844274e+04 1.0000000000000000e+00 1.6209237043971278e+01 1.9755968790437791e+01 1.4209614146266672e+01 
66 1 2 1.0279999989392323e+00 -7.4868009562850915e+04 1.0000000000000000e+00 1.6208561236033624e+01 1.9774846972751639e+01 1.4218900786188755e+01 
145 1 2 1.0279999990159654e+00 -9.0077335224857467e+04 1.0000000000000000e+00 1.6202261978044572e+01 1.9791640366307316e+01 1.4236636047306353e+01 
115 1 2 1.0279999990178021e+00 -7.5138653958684750e+04 1.0000000000000000e+00 1.6202187511093747e+01 1.9791674152694394e+01 1.4236860833051621e+01 
150 1 2 1.0279999990183879e+00 -7.2377099035860840e+04 1.0000000000000000e+00 1.6202164105520218e+01 1.9791683905566082e+01 1.4236931820338691e+01 

Velocities

37 2.1553235231967655e-01 2.3696456803190050e-01 2.0160968733523327e-01
170 2.1553235243035837e-01 2.3696456803195307e-01 2.0160968736971191e-01
180 2.1553235251501265e-01 2.3696456803101662e-01 2.0160968739671301e-01
5 2.1553235181339214e-01 2.3696456803473362e-01 2.0160968718026773e-01
171 2.1553235236424306e-01 2.3696456803145244e-01 2.0160968734937504e-01
6 2.1553235231708257e-01 2.3696456803231175e-01 2.0160968733418810e-01
87 2.1552740084437186e-01 2.3689030250704490e-01 2.0173095949387723e-01
143 2.1552740946203167e-01 2.3689030437630243e-01 2.0173096283209990e-01
79 2.1552729058538292e-01 2.3689014665511071e-01 2.0173090436365063e-01
13 2.1552727050464984e-01 2.3689011521745176e-01 2.0173088524363633e-01
86 2.1552745768708331e-01 2.3689089471941371e-01 2.0173046620892854e-01
98 2.1552746401343215e-01 2.3689014213132870e-01 2.0173098962832070e-01
106 2.1552745287967398e-01 2.3688977471789352e-01 2.0173083435469688e-01
97 2.1548842179500180e-01 2.3686034356263957e-01 2.0174008885082104e-01
61 2.1548843063684164e-01 2.3686033566840417e-01 2.0174007701212679e-01
153 2.1548973560521789e-01 2.3685683959510315e-01 2.0173734503557536e-01
3 2.1548967332772001e-01 2.3685590958389452e-01 2.0173713034892923e-01
100 2.1547994160782935e-01 2.3685370123406130e-01 2.0174174992682464e-01
119 2.1548828835692926e-01 2.3685270455092150e-01 2.0174441788609113e-01
128 2.1548829068758452e-01 2.3685270204505368e-01 2.0174442227020631e-01
138 2.1564284804893480e-01 2.3696446634994692e-01 2.0161650486785498e-01
131 2.1564354404269642e-01 2.3696488045658057e-01 2.0161706029374996e-01
65 2.1564334975591587e-01 2.3696418961509255e-01 2.0161731464604224e-01
168 2.1564363259723940e-01 2.3696490205567494e-01 2.0161714197038799e-01
35 2.1564355879224220e-01 2.3696488394965584e-01 2.0161707420167607e-01
17 2.1548600863980319e-01 2.3686221401099730e-01 2.0173458525679153e-01
111 2.1548600863815448e-01 2.3686221403840430e-01 2.0173458525216265e-01
75 2.1548600857911301e-01 2.3686221527707596e-01 2.0173458508867248e-01
55 2.1548600744608293e-01 2.3686223892285360e-01 2.0173458202457675e-01
146 2.1556071833727217e-01 2.3694962783136855e-01 2.0160596479637832e-01
159 2.1556488336908369e-01 2.3694214973816011e-01 2.0160718335227984e-01
41 2.1556509486025494e-01 2.3694231572386343e-01 2.0160732665617742e-01
53 2.1556489533234582e-01 2.3694212768121423e-01 2.0160720090867851e-01
161 2.1556547875976434e-01 2.3694056035129221e-01 2.0160864173182266e-01
167 2.1556556671044177e-01 2.3694055080796314e-01 2.0160876958051180e-01
126 2.1591106474546384e-01 2.3738482887578252e-01 2.0130229961966545e-01
89 2.1591106464728080e-01 2.3738482877508330e-01 2.0130229970320945e-01
90 2.1591106473430974e-01 2.3738482886359219e-01 2.0130229963022014e-01
84 2.1591106472946386e-01 2.3738482885866666e-01 2.0130229963428123e-01
82 2.1596568002999533e-01 2.3740165946181380e-01 2.0127327969128492e-01
116 2.1596689570958771e-01 2.3740214420786618e-01 2.0127343334674616e-01
26 2.1597375268956903e-01 2.3740967641924157e-01 2.0130027251974389e-01
9 2.1597374136119965e-01 2.3740968459965719e-01 2.0130029679827705e-01