LAMMPS data file via write_data, version 30 Jul 2016, timestep = 1000000

3421 atoms
8 atom types

0.0000000000000000e+00 6.0000000000000000e+01 xlo xhi
0.0000000000000000e+00 6.0000000000000000e+01 ylo yhi
0.0000000000000000e+00 1.5000000000000000e+02 zlo zhi

Masses

1 3.896
2 5.36
3 1058.08
4 8.378
5 8.378
6 8.378
7 8.378
8 8.378

Atoms # meso-molecular

1 2 4 1.8047778876253165e+01 1.0000000000000000e+00 4.2000000000000000e+03 0.0000000000000000e+00 0.0000000000000000e+00 3.7500000000000000e+00 
31 2 4 1.8047778876253165e+01 1.0000000000000000e+00 4.2000000000000000e+03 2.0000000000000000e+00 0.0000000000000000e+00 3.7500000000000000e+00 
61 2 4 1.8047778876253165e+01 1.0000000000000000e+00 4.2000000000000000e+03 4.0000000000000000e+00 0.0000000000000000e+00 3.7500000000000000e+00 
91 2 4 1.8047778876253165e+01 1.0000000000000000e+00 4.2000000000000000e+03 6.0000000000000000e+00 0.0000000000000000e+00 3.7500000000000000e+00 
121 2 4 1.8047778876253165e+01 1.0000000000000000e+00 4.2000000000000000e+03 8.0000000000000000e+00 0.0000000000000000e+00 3.7500000000000000e+00 
151 2 4 1.8047778876253165e+01 1.0000000000000000e+00 4.2000000000000000e+03 1.0000000000000000e+01 0.0000000000000000e+00 3.7500000000000000e+00 
181 2 4 1.8047778876253165e+01 1.0000000000000000e+00 4.2000000000000000e+03 1.2000000000000000e+01 0.0000000000000000e+00 3.7500000000000000e+00 
211 2 4 1.8047778876253165e+01 1.0000000000000000e+00 4.2000000000000000e+03 1.4000000000000000e+01 0.0000000000000000e+00 3.7500000000000000e+00 
241 2 4 1.8047778876253165e+01 1.0000000000000000e+00 4.2000000000000000e+03 1.6000000000000000e+01 0.0000000000000000e+00 3.7500000000000000e+00 
271 2 4 1.8047778876253165e+01 1.0000000000000000e+00 4.2000000000000000e+03 1.8000000000000000e+01 0.0000000000000000e+00 3.7500000000000000e+00 
301 2 4 1.8047778876253165e+01 1.0000000000000000e+00 4.2000000000000000e+03 2.0000000000000000e+01 0.0000000000000000e+00 3.7500000000000000e+00 
331 2 4 1.8047778876253165e+01 1.0000000000000000e+00 4.2000000000000000e+03 2.2000000000000000e+01 0.0000000000000000e+00 3.7500000000000000e+00 
361 2 4 1.8047778876253165e+01 1.0000000000000000e+00 4.2000000000000000e+03 2.4000000000000000e+01 0.0000000000000000e+00 3.7500000000000000e+00 
391 2 4 1.8047778876253165e+01 1.0000000000000000e+00 4.2000000000000000e+03 2.6000000000000000e+01 0.0000000000000000e+00 3.7500000000000000e+00 
421 2 4 1.8047778876253165e+01 1.0000000000000000e+00 4.2000000000000000e+03 2.8000000000000000e+01 0.0000000000000000e+00 3.7500000000000000e+00 
451 2 4 1.8047778876253165e+01 1.0000000000000000e+00 4.2000000000000000e+03 3.0000000000000000e+01 0.0000000000000000e+00 3.7500000000000000e+00 
481 2 4 1.8047778876253165e+01 1.0000000000000000e+00 4.2000000000000000e+03 3.2000000000000000e+01 0.0000000000000000e+00 3.7500000000000000e+00 
511 2 4 1.8047778876253165e+01 1.0000000000000000e+00 4.2000000000000000e+03 3.4000000000000000e+01 0.0000000000000000e+00 3.7500000000000000e+00 
541 2 4 1.8047778876253165e+01 1.0000000000000000e+00 4.2000000000000000e+03 3.6000000000000000e+01 0.0000000000000000e+00 3.7500000000000000e+00 
571 2 4 1.8047778876253165e+01 1.0000000000000000e+00 4.2000000000000000e+03 3.8000000000000000e+01 0.0000000000000000e+00 3.7500000000000000e+00 
601 2 4 1.8047778876253165e+01 1.0000000000000000e+00 4.2000000000000000e+03 4.0000000000000000e+01 0.0000000000000000e+00 3.7500000000000000e+00 
631 2 4 1.8047778876253165e+01 1.0000000000000000e+00 4.2000000000000000e+03 4.2000000000000000e+01 0.0000000000000000e+00 3.7500000000000000e+00 
661 2 4 1.8047778876253165e+01 1.0000000000000000e+00 4.2000000000000000e+03 4.4000000000000000e+01 0.0000000000000000e+00 3.7500000000000000e+00 
691 2 4 1.8047778876253165e+01 1.0000000000000000e+00 4.2000000000000000e+03 4.6000000000000000e+01 0.0000000000000000e+00 3.7500000000000000e+00 
721 2 4 1.8047778876253165e+01 1.0000000000000000e+00 4.2000000000000000e+03 4.8000000000000000e+01 0.0000000000000000e+00 3.7500000000000000e+00 
751 2 4 1.8047778876253165e+01 1.0000000000000000e+00 4.2000000000000000e+03 5.0000000000000000e+01 0.0000000000000000e+00 3.7500000000000000e+00 
781 2 4 1.8047778876253165e+01 1.0000000000000000e+00 4.2000000000000000e+03 5.2000000000000000e+01 0.0000000000000000e+00 3.7500000000000000e+00 
811 2 4 1.8047778876253165e+01 1.0000000000000000e+00 4.2000000000000000e+03 5.4000000000000000e+01 0.0000000000000000e+00 3.7500000000000000e+00 
841 2 4 1.8047778876253165e+01 1.0000000000000000e+00 4.2000000000000000e+03 5.6000000000000000e+01 0.0000000000000000e+00 3.7500000000000000e+00 
871 2 4 1.8047778876253165e+01 1.0000000000000000e+00 4.2000000000000000e+03 5.8000000000000000e+01 0.0000000000000000e+00 3.7500000000000000e+00 
2 2 4 1.8047778876253165e+01 1.0000000000000000e+00 4.2000000000000000e+03 0.0000000000000000e+00 2.0000000000000000e+00 3.7500000000000000e+00 
32 2 4 1.8047778876253165e+01 1.0000000000000000e+00 4.2000000000000000e+03 2.0000000000000000e+00 2.0000000000000000e+00 3.7500000000000000e+00 
62 2 4 1.8047778876253165e+01 1.0000000000000000e+00 4.2000000000000000e+03 4.0000000000000000e+00 2.0000000000000000e+00 3.7500000000000000e+00 
92 2 4 1.8047778876253165e+01 1.0000000000000000e+00 4.2000000000000000e+03 6.0000000000000000e+00 2.0000000000000000e+00 3.7500000000000000e+00 
122 2 4 1.8047778876253165e+01 1.0000000000000000e+00 4.2000000000000000e+03 8.0000000000000000e+00 2.0000000000000000e+00 3.7500000000000000e+00 
152 2 4 1.8047778876253165e+01 1.0000000000000000e+00 4.2000000000000000e+03 1.0000000000000000e+01 2.0000000000000000e+00 3.7500000000000000e+00 
182 2 4 1.8047778876253165e+01 1.0000000000000000e+00 4.2000000000000000e+03 1.2000000000000000e+01 2.0000000000000000e+00 3.7500000000000000e+00 
212 2 4 1.8047778876253165e+01 1.0000000000000000e+00 4.2000000000000000e+03 1.4000000000000000e+01 2.0000000000000000e+00 3.7500000000000000e+00 
242 2 4 1.8047778876253165e+01 1.0000000000000000e+00 4.2000000000000000e+03 1.6000000000000000e+01 2.0000000000000000e+00 3.7500000000000000e+00 
272 2 4 1.8047778876253165e+01 1.0000000000000000e+00 4.2000000000000000e+03 1.8000000000000000e+01 2.0000000000000000e+00 3.7500000000000000e+00 
302 2 4 1.8047778876253165e+01 1.0000000000000000e+00 4.2000000000000000e+03 2.0000000000000000e+01 2.0000000000000000e+00 3.7500000000000000e+00 
332 2 4 1.8047778876253165e+01 1.0000000000000000e+00 4.2000000000000000e+03 2.2000000000000000e+01 2.0000000000000000e+00 3.7500000000000000e+00 
362 2 4 1.8047778876253165e+01 1.0000000000000000e+00 4.2000000000000000e+03 2.4000000000000000e+01 2.0000000000000000e+00 3.7500000000000000e+00 
392 2 4 1.8047778876253165e+01 1.0000000000000000e+00 4.2000000000000000e+03 2.6000000000000000e+01 2.0000000000000000e+00 3.7500000000000000e+00 
422 2 4 1.8047778876253165e+01 1.0000000000000000e+00 4.2000000000000000e+03 2.8000000000000000e+01 2.0000000000000000e+00 3.7500000000000000e+00 
452 2 4 1.8047778876253165e+01 1.0000000000000000e+00 4.2000000000000000e+03 3.0000000000000000e+01 2.0000000000000000e+00 3.7500000000000000e+00 
482 2 4 1.8047778876253165e+01 1.0000000000000000e+00 4.2000000000000000e+03 3.2000000000000000e+01 2.0000000000000000e+00 3.7500000000000000e+00 
512 2 4 1.8047778876253165e+01 1.0000000000000000e+00 4.2000000000000000e+03 3.4000000000000000e+01 2.0000000000000000e+00 3.7500000000000000e+00 
542 2 4 1.8047778876253165e+01 1.0000000000000000e+00 4.2000000000000000e+03 3.6000000000000000e+01 2.0000000000000000e+00 3.7500000000000000e+00 
572 2 4 1.8047778876253165e+01 1.0000000000000000e+00 4.2000000000000000e+03 3.8000000000000000e+01 2.0000000000000000e+00 3.7500000000000000e+00 
602 2 4 1.8047778876253165e+01 1.0000000000000000e+00 4.2000000000000000e+03 4.0000000000000000e+01 2.0000000000000000e+00 3.7500000000000000e+00 
632 2 4 1.8047778876253165e+01 1.0000000000000000e+00 4.2000000000000000e+03 4.2000000000000000e+01 2.0000000000000000e+00 3.7500000000000000e+00 
662 2 4 1.8047778876253165e+01 1.0000000000000000e+00 4.2000000000000000e+03 4.4000000000000000e+01 2.0000000000000000e+00 3.7500000000000000e+00 
692 2 4 1.8047778876253165e+01 1.0000000000000000e+00 4.2000000000000000e+03 4.6000000000000000e+01 2.0000000000000000e+00 3.7500000000000000e+00 
722 2 4 1.8047778876253165e+01 1.0000000000000000e+00 4.2000000000000000e+03 4.8000000000000000e+01 2.0000000000000000e+00 3.7500000000000000e+00 
752 2 4 1.8047778876253165e+01 1.0000000000000000e+00 4.2000000000000000e+03 5.0000000000000000e+01 2.0000000000000000e+00 3.7500000000000000e+00 
782 2 4 1.8047778876253165e+01 1.0000000000000000e+00 4.2000000000000000e+03 5.2000000000000000e+01 2.0000000000000000e+00 3.7500000000000000e+00 
812 2 4 1.8047778876253165e+01 1.0000000000000000e+00 4.2000000000000000e+03 5.4000000000000000e+01 2.0000000000000000e+00 3.7500000000000000e+00 
842 2 4 1.8047778876253165e+01 1.0000000000000000e+00 4.2000000000000000e+03 5.6000000000000000e+01 2.0000000000000000e+00 3.7500000000000000e+00 
872 2 4 1.8047778876253165e+01 1.0000000000000000e+00 4.2000000000000000e+03 5.8000000000000000e+01 2.0000000000000000e+00 3.7500000000000000e+00 
3 2 4 1.8047778876253165e+01 1.0000000000000000e+00 4.2000000000000000e+03 0.0000000000000000e+00 4.0000000000000000e+00 3.7500000000000000e+00 
33 2 4 1.8047778876253165e+01 1.0000000000000000e+00 4.2000000000000000e+03 2.0000000000000000e+00 4.0000000000000000e+00 3.7500000000000000e+00 
63 2 4 1.8047778876253165e+01 1.0000000000000000e+00 4.2000000000000000e+03 4.0000000000000000e+00 4.0000000000000000e+00 3.7500000000000000e+00 
93 2 4 1.8047778876253165e+01 1.0000000000000000e+00 4.2000000000000000e+03 6.0000000000000000e+00 4.0000000000000000e+00 3.7500000000000000e+00 
123 2 4 1.8047778876253165e+01 1.0000000000000000e+00 4.2000000000000000e+03 8.0000000000000000e+00 4.0000000000000000e+00 3.7500000000000000e+00 
153 2 4 1.8047778876253165e+01 1.0000000000000000e+00 4.2000000000000000e+03 1.0000000000000000e+01 4.0000000000000000e+00 3.7500000000000000e+00 
183 2 4 1.8047778876253165e+01 1.0000000000000000e+00 4.2000000000000000e+03 1.2000000000000000e+01 4.0000000000000000e+00 3.7500000000000000e+00 
213 2 4 1.8047778876253165e+01 1.0000000000000000e+00 4.2000000000000000e+03 1.4000000000000000e+01 4.0000000000000000e+00 3.7500000000000000e+00 
243 2 4 1.8047778876253165e+01 1.0000000000000000e+00 4.2000000000000000e+03 1.6000000000000000e+01 4.0000000000000000e+00 3.7500000000000000e+00 
273 2 4 1.8047778876253165e+01 1.0000000000000000e+00 4.2000000000000000e+03 1.8000000000000000e+01 4.0000000000000000e+00 3.7500000000000000e+00 
303 2 4 1.8047778876253165e+01 1.0000000000000000e+00 4.2000000000000000e+03 2.0000000000000000e+01 4.0000000000000000e+00 3.7500000000000000e+00 
333 2 4 1.8047778876253165e+01 1.0000000000000000e+00 4.2000000000000000e+03 2.2000000000000000e+01 4.0000000000000000e+00 3.7500000000000000e+00 
363 2 4 1.8047778876253165e+01 1.0000000000000000e+00 4.2000000000000000e+03 2.4000000000000000e+01 4.0000000000000000e+00 3.7500000000000000e+00 
393 2 4 1.8047778876253165e+01 1.0000000000000000e+00 4.2000000000000000e+03 2.6000000000000000e+01 4.0000000000000000e+00 3.7500000000000000e+00 
423 2 4 1.8047778876253165e+01 1.0000000000000000e+00 4.2000000000000000e+03 2.8000000000000000e+01 4.0000000000000000e+00 3.7500000000000000e+00 
453 2 4 1.8047778876253165e+01 1.0000000000000000e+00 4.2000000000000000e+03 3.0000000000000000e+01 4.0000000000000000e+00 3.7500000000000000e+00 
483 2 4 1.8047778876253165e+01 1.0000000000000000e+00 4.2000000000000000e+03 3.2000000000000000e+01 4.0000000000000000e+00 3.7500000000000000e+00 
513 2 4 1.8047778876253165e+01 1.0000000000000000e+00 4.2000000000000000e+03 3.4000000000000000e+01 4.0000000000000000e+00 3.7500000000000000e+00 
543 2 4 1.8047778876253165e+01 1.0000000000000000e+00 4.2000000000000000e+03 3.6000000000000000e+01 4.0000000000000000e+00 3.7500000000000000e+00 
573 2 4 1.8047778876253165e+01 1.0000000000000000e+00 4.2000000000000000e+03 3.8000000000000000e+01 4.0000000000000000e+00 3.7500000000000000e+00 
603 2 4 1.8047778876253165e+01 1.0000000000000000e+00 4.2000000000000000e+03 4.0000000000000000e+01 4.0000000000000000e+00 3.7500000000000000e+00 
633 2 4 1.8047778876253165e+01 1.0000000000000000e+00 4.2000000000000000e+03 4.2000000000000000e+01 4.0000000000000000e+00 3.7500000000000000e+00 
663 2 4 1.8047778876253165e+01 1.0000000000000000e+00 4.2000000000000000e+03 4.4000000000000000e+01 4.0000000000000000e+00 3.7500000000000000e+00 
693 2 4 1.8047778876253165e+01 1.0000000000000000e+00 4.2000000000000000e+03 4.6000000000000000e+01 4.0000000000000000e+00 3.7500000000000000e+00 
723 2 4 1.8047778876253165e+01 1.0000000000000000e+00 4.2000000000000000e+03 4.8000000000000000e+01 4.0000000000000000e+00 3.7500000000000000e+00 
753 2 4 1.8047778876253165e+01 1.0000000000000000e+00 4.2000000000000000e+03 5.0000000000000000e+01 4.0000000000000000e+00 3.7500000000000000e+00 
783 2 4 1.8047778876253165e+01 1.0000000000000000e+00 4.2000000000000000e+03 5.2000000000000000e+01 4.0000000000000000e+00 3.7500000000000000e+00 
813 2 4 1.8047778876253165e+01 1.0000000000000000e+00 4.2000000000000000e+03 5.4000000000000000e+01 4.0000000000000000e+00 3.7500000000000000e+00 
843 2 4 1.8047778876253165e+01 1.0000000000000000e+00 4.2000000000000000e+03 5.6000000000000000e+01 4.0000000000000000e+00 3.7500000000000000e+00 
873 2 4 1.8047778876253165e+01 1.0000000000000000e+00 4.2000000000000000e+03 5.8000000000000000e+01 4.0000000000000000e+00 3.7500000000000000e+00 
4 2 4 1.8047778876253165e+01 1.0000000000000000e+00 4.2000000000000000e+03 0.0000000000000000e+00 6.0000000000000000e+00 3.7500000000000000e+00 
34 2 4 1.8047778876253165e+01 1.0000000000000000e+00 4.2000000000000000e+03 2.0000000000000000e+00 6.0000000000000000e+00 3.7500000000000000e+00 
64 2 4 1.8047778876253165e+01 1.0000000000000000e+00 4.2000000000000000e+03 4.0000000000000000e+00 6.0000000000000000e+00 3.7500000000000000e+00 
94 2 4 1.8047778876253165e+01 1.0000000000000000e+00 4.2000000000000000e+03 6.0000000000000000e+00 6.0000000000000000e+00 3.7500000000000000e+00 
124 2 4 1.8047778876253165e+01 1.0000000000000000e+00 4.2000000000000000e+03 8.0000000000000000e+00 6.0000000000000000e+00 3.7500000000000000e+00 
154 2 4 1.8047778876253165e+01 1.0000000000000000e+00 4.2000000000000000e+03 1.0000000000000000e+01 6.0000000000000000e+00 3.7500000000000000e+00 
184 2 4 1.8047778876253165e+01 1.0000000000000000e+00 4.2000000000000000e+03 1.2000000000000000e+01 6.0000000000000000e+00 3.7500000000000000e+00 
214 2 4 1.8047778876253165e+01 1.0000000000000000e+00 4.2000000000000000e+03 1.4000000000000000e+01 6.0000000000000000e+00 3.7500000000000000e+00 
244 2 4 1.8047778876253165e+01 1.0000000000000000e+00 4.2000000000000000e+03 1.6000000000000000e+01 6.0000000000000000e+00 3.7500000000000000e+00 
274 2 4 1.8047778876253165e+01 1.0000000000000000e+00 4.2000000000000000e+03 1.8000000000000000e+01 6.0000000000000000e+00 3.7500000000000000e+00 
304 2 4 1.8047778876253165e+01 1.0000000000000000e+00 4.2000000000000000e+03 2.0000000000000000e+01 6.0000000000000000e+00 3.7500000000000000e+00 
334 2 4 1.8047778876253165e+01 1.0000000000000000e+00 4.2000000000000000e+03 2.2000000000000000e+01 6.0000000000000000e+00 3.7500000000000000e+00 
364 2 4 1.8047778876253165e+01 1.0000000000000000e+00 4.2000000000000000e+03 2.4000000000000000e+01 6.0000000000000000e+00 3.7500000000000000e+00 
394 2 4 1.8047778876253165e+01 1.0000000000000000e+00 4.2000000000000000e+03 2.6000000000000000e+01 6.0000000000000000e+00 3.7500000000000000e+00 
424 2 4 1.8047778876253165e+01 1.0000000000000000e+00 4.2000000000000000e+03 2.8000000000000000e+01 6.0000000000000000e+00 3.7500000000000000e+00 
454 2 4 1.8047778876253165e+01 1.0000000000000000e+00 4.2000000000000000e+03 3.0000000000000000e+01 6.0000000000000000e+00 3.7500000000000000e+00 
484 2 4 1.8047778876253165e+01 1.0000000000000000e+00 4.2000000000000000e+03 3.2000000000000000e+01 6.0000000000000000e+00 3.7500000000000000e+00 
514 2 4 1.8047778876253165e+01 1.0000000000000000e+00 4.2000000000000000e+03 3.4000000000000000e+01 6.0000000000000000e+00 3.7500000000000000e+00 
544 2 4 1.8047778876253165e+01 1.0000000000000000e+00 4.2000000000000000e+03 3.6000000000000000e+01 6.0000000000000000e+00 3.7500000000000000e+00 
574 2 4 1.8047778876253165e+01 1.0000000000000000e+00 4.2000000000000000e+03 3.8000000000000000e+01 6.0000000000000000e+00 3.7500000000000000e+00 
604 2 4 1.8047778876253165e+01 1.0000000000000000e+00 4.2000000000000000e+03 4.0000000000000000e+01 6.0000000000000000e+00 3.7500000000000000e+00 
634 2 4 1.8047778876253165e+01 1.0000000000000000e+00 4.2000000000000000e+03 4.2000000000000000e+01 6.0000000000000000e+00 3.7500000000000000e+00 
664 2 4 1.8047778876253165e+01 1.0000000000000000e+00 4.2000000000000000e+03 4.4000000000000000e+01 6.0000000000000000e+00 3.7500000000000000e+00 
694 2 4 1.8047778876253165e+01 1.0000000000000000e+00 4.2000000000000000e+03 4.6000000000000000e+01 6.0000000000000000e+00 3.7500000000000000e+00 
724 2 4 1.8047778876253165e+01 1.0000000000000000e+00 4.2000000000000000e+03 4.8000000000000000e+01 6.0000000000000000e+00 3.7500000000000000e+00 
754 2 4 1.8047778876253165e+01 1.0000000000000000e+00 4.2000000000000000e+03 5.0000000000000000e+01 6.0000000000000000e+00 3.7500000000000000e+00 
784 2 4 1.8047778876253165e+01 1.0000000000000000e+00 4.2000000000000000e+03 5.2000000000000000e+01 6.0000000000000000e+00 3.7500000000000000e+00 
814 2 4 1.8047778876253165e+01 1.0000000000000000e+00 4.2000000000000000e+03 5.4000000000000000e+01 6.0000000000000000e+00 3.7500000000000000e+00 
844 2 4 1.8047778876253165e+01 1.0000000000000000e+00 4.2000000000000000e+03 5.6000000000000000e+01 6.0000000000000000e+00 3.7500000000000000e+00 
874 2 4 1.8047778876253165e+01 1.0000000000000000e+00 4.2000000000000000e+03 5.8000000000000000e+01 6.0000000000000000e+00 3.7500000000000000e+00 
5 2 4 1.8047778876253165e+01 1.0000000000000000e+00 4.2000000000000000e+03 0.0000000000000000e+00 8.0000000000000000e+00 3.7500000000000000e+00 
35 2 4 1.8047778876253165e+01 1.0000000000000000e+00 4.2000000000000000e+03 2.0000000000000000e+00 8.0000000000000000e+00 3.7500000000000000e+00 
65 2 4 1.8047778876253165e+01 1.0000000000000000e+00 4.2000000000000000e+03 4.0000000000000000e+00 8.0000000000000000e+00 3.7500000000000000e+00 
95 2 4 1.8047778876253165e+01 1.0000000000000000e+00 4.2000000000000000e+03 6.0000000000000000e+00 8.0000000000000000e+00 3.7500000000000000e+00 
125 2 4 1.8047778876253165e+01 1.0000000000000000e+00 4.2000000000000000e+03 8.0000000000000000e+00 8.0000000000000000e+00 3.7500000000000000e+00 
155 2 4 1.8047778876253165e+01 1.0000000000000000e+00 4.2000000000000000e+03 1.0000000000000000e+01 8.0000000000000000e+00 3.7500000000000000e+00 
185 2 4 1.8047778876253165e+01 1.0000000000000000e+00 4.2000000000000000e+03 1.2000000000000000e+01 8.0000000000000000e+00 3.7500000000000000e+00 
215 2 4 1.8047778876253165e+01 1.0000000000000000e+00 4.2000000000000000e+03 1.4000000000000000e+01 8.0000000000000000e+00 3.7500000000000000e+00 
245 2 4 1.8047778876253165e+01 1.0000000000000000e+00 4.2000000000000000e+03 1.6000000000000000e+01 8.0000000000000000e+00 3.7500000000000000e+00 
275 2 4 1.8047778876253165e+01 1.0000000000000000e+00 4.2000000000000000e+03 1.8000000000000000e+01 8.0000000000000000e+00 3.7500000000000000e+00 
305 2 4 1.8047778876253165e+01 1.0000000000000000e+00 4.2000000000000000e+03 2.0000000000000000e+01 8.0000000000000000e+00 3.7500000000000000e+00 
335 2 4 1.8047778876253165e+01 1.0000000000000000e+00 4.2000000000000000e+03 2.2000000000000000e+01 8.0000000000000000e+00 3.7500000000000000e+00 
365 2 4 1.8047778876253165e+01 1.0000000000000000e+00 4.2000000000000000e+03 2.4000000000000000e+01 8.0000000000000000e+00 3.7500000000000000e+00 
395 2 4 1.8047778876253165e+01 1.0000000000000000e+00 4.2000000000000000e+03 2.6000000000000000e+01 8.0000000000000000e+00 3.7500000000000000e+00 
425 2 4 1.8047778876253165e+01 1.0000000000000000e+00 4.2000000000000000e+03 2.8000000000000000e+01 8.0000000000000000e+00 3.7500000000000000e+00 
455 2 4 1.8047778876253165e+01 1.0000000000000000e+00 4.2000000000000000e+03 3.0000000000000000e+01 8.0000000000000000e+00 3.7500000000000000e+00 
485 2 4 1.8047778876253165e+01 1.0000000000000000e+00 4.2000000000000000e+03 3.2000000000000000e+01 8.0000000000000000e+00 3.7500000000000000e+00 
515 2 4 1.8047778876253165e+01 1.0000000000000000e+00 4.2000000000000000e+03 3.4000000000000000e+01 8.0000000000000000e+00 3.7500000000000000e+00 
545 2 4 1.8047778876253165e+01 1.0000000000000000e+00 4.2000000000000000e+03 3.6000000000000000e+01 8.0000000000000000e+00 3.7500000000000000e+00 
575 2 4 1.8047778876253165e+01 1.0000000000000000e+00 4.2000000000000000e+03 3.8000000000000000e+01 8.0000000000000000e+00 3.7500000000000000e+00 
605 2 4 1.8047778876253165e+01 1.0000000000000000e+00 4.2000000000000000e+03 4.0000000000000000e+01 8.0000000000000000e+00 3.7500000000000000e+00 
635 2 4 1.8047778876253165e+01 1.0000000000000000e+00 4.2000000000000000e+03 4.2000000000000000e+01 8.0000000000000000e+00 3.7500000000000000e+00 
665 2 4 1.8047778876253165e+01 1.0000000000000000e+00 4.2000000000000000e+03 4.4000000000000000e+01 8.0000000000000000e+00 3.7500000000000000e+00 
695 2 4 1.8047778876253165e+01 1.0000000000000000e+00 4.2000000000000000e+03 4.6000000000000000e+01 8.0000000000000000e+00 3.7500000000000000e+00 
725 2 4 1.8047778876253165e+01 1.0000000000000000e+00 4.2000000000000000e+03 4.8000000000000000e+01 8.0000000000000000e+00 3.7500000000000000e+00 
755 2 4 1.8047778876253165e+01 1.0000000000000000e+00 4.2000000000000000e+03 5.0000000000000000e+01 8.0000000000000000e+00 3.7500000000000000e+00 
785 2 4 1.8047778876253165e+01 1.0000000000000000e+00 4.2000000000000000e+03 5.2000000000000000e+01 8.0000000000000000e+00 3.7500000000000000e+00 
815 2 4 1.8047778876253165e+01 1.0000000000000000e+00 4.2000000000000000e+03 5.4000000000000000e+01 8.0000000000000000e+00 3.7500000000000000e+00 
845 2 4 1.8047778876253165e+01 1.0000000000000000e+00 4.2000000000000000e+03 5.6000000000000000e+01 8.0000000000000000e+00 3.7500000000000000e+00 
875 2 4 1.8047778876253165e+01 1.0000000000000000e+00 4.2000000000000000e+03 5.8000000000000000e+01 8.0000000000000000e+00 3.7500000000000000e+00 
6 2 4 1.8047778876253165e+01 1.0000000000000000e+00 4.2000000000000000e+03 0.0000000000000000e+00 1.0000000000000000e+01 3.7500000000000000e+00 
36 2 4 1.8047778876253165e+01 1.0000000000000000e+00 4.2000000000000000e+03 2.0000000000000000e+00 1.0000000000000000e+01 3.7500000000000000e+00 
66 2 4 1.8047778876253165e+01 1.0000000000000000e+00 4.2000000000000000e+03 4.0000000000000000e+00 1.0000000000000000e+01 3.7500000000000000e+00 
96 2 4 1.8047778876253165e+01 1.0000000000000000e+00 4.2000000000000000e+03 6.0000000000000000e+00 1.0000000000000000e+01 3.7500000000000000e+00 
126 2 4 1.8047778876253165e+01 1.0000000000000000e+00 4.2000000000000000e+03 8.0000000000000000e+00 1.0000000000000000e+01 3.7500000000000000e+00 
156 2 4 1.8047778876253165e+01 1.0000000000000000e+00 4.2000000000000000e+03 1.0000000000000000e+01 1.0000000000000000e+01 3.7500000000000000e+00 
186 2 4 1.8047778876253165e+01 1.0000000000000000e+00 4.2000000000000000e+03 1.2000000000000000e+01 1.0000000000000000e+01 3.7500000000000000e+00 
216 2 4 1.8047778876253165e+01 1.0000000000000000e+00 4.2000000000000000e+03 1.4000000000000000e+01 1.0000000000000000e+01 3.7500000000000000e+00 
246 2 4 1.8047778876253165e+01 1.0000000000000000e+00 4.2000000000000000e+03 1.6000000000000000e+01 1.0000000000000000e+01 3.7500000000000000e+00 
276 2 4 1.8047778876253165e+01 1.0000000000000000e+00 4.2000000000000000e+03 1.8000000000000000e+01 1.0000000000000000e+01 3.7500000000000000e+00 
306 2 4 1.8047778876253165e+01 1.0000000000000000e+00 4.2000000000000000e+03 2.0000000000000000e+01 1.0000000000000000e+01 3.7500000000000000e+00 
336 2 4 1.8047778876253165e+01 1.0000000000000000e+00 4.2000000000000000e+03 2.2000000000000000e+01 1.0000000000000000e+01 3.7500000000000000e+00 
366 2 4 1.8047778876253165e+01 1.0000000000000000e+00 4.2000000000000000e+03 2.4000000000000000e+01 1.0000000000000000e+01 3.7500000000000000e+00 
396 2 4 1.8047778876253165e+01 1.0000000000000000e+00 4.2000000000000000e+03 2.6000000000000000e+01 1.0000000000000000e+01 3.7500000000000000e+00 
426 2 4 1.8047778876253165e+01 1.0000000000000000e+00 4.2000000000000000e+03 2.8000000000000000e+01 1.0000000000000000e+01 3.7500000000000000e+00 
456 2 4 1.8047778876253165e+01 1.0000000000000000e+00 4.2000000000000000e+03 3.0000000000000000e+01 1.0000000000000000e+01 3.7500000000000000e+00 
486 2 4 1.8047778876253165e+01 1.0000000000000000e+00 4.2000000000000000e+03 3.2000000000000000e+01 1.0000000000000000e+01 3.7500000000000000e+00 
516 2 4 1.8047778876253165e+01 1.0000000000000000e+00 4.2000000000000000e+03 3.4000000000000000e+01 1.0000000000000000e+01 3.7500000000000000e+00 
546 2 4 1.8047778876253165e+01 1.0000000000000000e+00 4.2000000000000000e+03 3.6000000000000000e+01 1.0000000000000000e+01 3.7500000000000000e+00 
576 2 4 1.8047778876253165e+01 1.0000000000000000e+00 4.2000000000000000e+03 3.8000000000000000e+01 1.0000000000000000e+01 3.7500000000000000e+00 
606 2 4 1.8047778876253165e+01 1.0000000000000000e+00 4.2000000000000000e+03 4.0000000000000000e+01 1.0000000000000000e+01 3.7500000000000000e+00 
636 2 4 1.8047778876253165e+01 1.0000000000000000e+00 4.2000000000000000e+03 4.2000000000000000e+01 1.0000000000000000e+01 3.7500000000000000e+00 
666 2 4 1.8047778876253165e+01 1.0000000000000000e+00 4.2000000000000000e+03 4.4000000000000000e+01 1.0000000000000000e+01 3.7500000000000000e+00 
696 2 4 1.8047778876253165e+01 1.0000000000000000e+00 4.2000000000000000e+03 4.6000000000000000e+01 1.0000000000000000e+01 3.7500000000000000e+00 
726 2 4 1.8047778876253165e+01 1.0000000000000000e+00 4.2000000000000000e+03 4.8000000000000000e+01 1.0000000000000000e+01 3.7500000000000000e+00 
756 2 4 1.8047778876253165e+01 1.0000000000000000e+00 4.2000000000000000e+03 5.0000000000000000e+01 1.0000000000000000e+01 3.7500000000000000e+00 
786 2 4 1.8047778876253165e+01 1.0000000000000000e+00 4.2000000000000000e+03 5.2000000000000000e+01 1.0000000000000000e+01 3.7500000000000000e+00 
816 2 4 1.8047778876253165e+01 1.0000000000000000e+00 4.2000000000000000e+03 5.4000000000000000e+01 1.0000000000000000e+01 3.7500000000000000e+00 
846 2 4 1.8047778876253165e+01 1.0000000000000000e+00 4.2000000000000000e+03 5.6000000000000000e+01 1.0000000000000000e+01 3.7500000000000000e+00 
876 2 4 1.8047778876253165e+01 1.0000000000000000e+00 4.2000000000000000e+03 5.8000000000000000e+01 1.0000000000000000e+01 3.7500000000000000e+00 
7 2 4 1.8047778876253165e+01 1.0000000000000000e+00 4.2000000000000000e+03 0.0000000000000000e+00 1.2000000000000000e+01 3.7500000000000000e+00 
37 2 4 1.8047778876253165e+01 1.0000000000000000e+00 4.2000000000000000e+03 2.0000000000000000e+00 1.2000000000000000e+01 3.7500000000000000e+00 
67 2 4 1.8047778876253165e+01 1.0000000000000000e+00 4.2000000000000000e+03 4.0000000000000000e+00 1.2000000000000000e+01 3.7500000000000000e+00 
97 2 4 1.8047778876253165e+01 1.0000000000000000e+00 4.2000000000000000e+03 6.0000000000000000e+00 1.2000000000000000e+01 3.7500000000000000e+00 
127 2 4 1.8047778876253165e+01 1.0000000000000000e+00 4.2000000000000000e+03 8.0000000000000000e+00 1.2000000000000000e+01 3.7500000000000000e+00 
157 2 4 1.8047778876253165e+01 1.0000000000000000e+00 4.2000000000000000e+03 1.0000000000000000e+01 1.2000000000000000e+01 3.7500000000000000e+00 
187 2 4 1.8047778876253165e+01 1.0000000000000000e+00 4.2000000000000000e+03 1.2000000000000000e+01 1.2000000000000000e+01 3.7500000000000000e+00 
217 2 4 1.8047778876253165e+01 1.0000000000000000e+00 4.2000000000000000e+03 1.4000000000000000e+01 1.2000000000000000e+01 3.7500000000000000e+00 
247 2 4 1.8047778876253165e+01 1.0000000000000000e+00 4.2000000000000000e+03 1.6000000000000000e+01 1.2000000000000000e+01 3.7500000000000000e+00 
277 2 4 1.8047778876253165e+01 1.0000000000000000e+00 4.2000000000000000e+03 1.8000000000000000e+01 1.2000000000000000e+01 3.7500000000000000e+00 
307 2 4 1.8047778876253165e+01 1.0000000000000000e+00 4.2000000000000000e+03 2.0000000000000000e+01 1.2000000000000000e+01 3.7500000000000000e+00 
337 2 4 1.8047778876253165e+01 1.0000000000000000e+00 4.2000000000000000e+03 2.2000000000000000e+01 1.2000000000000000e+01 3.7500000000000000e+00 
367 2 4 1.8047778876253165e+01 1.0000000000000000e+00 4.2000000000000000e+03 2.4000000000000000e+01 1.2000000000000000e+01 3.7500000000000000e+00 
397 2 4 1.8047778876253165e+01 1.0000000000000000e+00 4.2000000000000000e+03 2.6000000000000000e+01 1.2000000000000000e+01 3.7500000000000000e+00 
427 2 4 1.8047778876253165e+01 1.0000000000000000e+00 4.2000000000000000e+03 2.8000000000000000e+01 1.2000000000000000e+01 3.7500000000000000e+00 
457 2 4 1.8047778876253165e+01 1.0000000000000000e+00 4.2000000000000000e+03 3.0000000000000000e+01 1.2000000000000000e+01 3.7500000000000000e+00 
487 2 4 1.8047778876253165e+01 1.0000000000000000e+00 4.2000000000000000e+03 3.2000000000000000e+01 1.2000000000000000e+01 3.7500000000000000e+00 
517 2 4 1.8047778876253165e+01 1.0000000000000000e+00 4.2000000000000000e+03 3.4000000000000000e+01 1.2000000000000000e+01 3.7500000000000000e+00 
547 2 4 1.8047778876253165e+01 1.0000000000000000e+00 4.2000000000000000e+03 3.6000000000000000e+01 1.2000000000000000e+01 3.7500000000000000e+00 
577 2 4 1.8047778876253165e+01 1.0000000000000000e+00 4.2000000000000000e+03 3.8000000000000000e+01 1.2000000000000000e+01 3.7500000000000000e+00 
607 2 4 1.8047778876253165e+01 1.0000000000000000e+00 4.2000000000000000e+03 4.0000000000000000e+01 1.2000000000000000e+01 3.7500000000000000e+00 