LAMMPS data file via write_data, version 30 Jul 2016, timestep = 50000000

2772 atoms
8 atom types

0.0000000000000000e+00 1.0000000000000000e+02 xlo xhi
0.0000000000000000e+00 4.0000000000000000e+01 ylo yhi
0.0000000000000000e+00 4.0000000000000000e+01 zlo zhi

Masses

1 3.896
2 5.36
3 20.064
4 8.378
5 8.378
6 8.378
7 8.378
8 8.378

Atoms # meso-molecular

225 226 2 1.0280000000298057e+00 3.5225360560800183e+01 1.0000000000000000e+00 2.9899182544057716e+01 1.0000000000000000e+01 1.3213325750933445e+00 
219 220 2 1.0280000000301579e+00 1.9950374899764631e+02 1.0000000000000000e+00 3.2612480923608331e+01 1.0000000000000000e+01 1.0254177846585051e+00 
709 710 2 1.0280000000000000e+00 1.7707812265299185e+02 1.0000000000000000e+00 7.4575165260091207e+00 1.3800000000000001e+01 1.0922873651054572e+00 
688 689 2 1.0280000426211942e+00 -1.1733193355589185e+02 1.0000000000000000e+00 3.0984636504010357e+01 1.3800000000000001e+01 8.2908840721508525e-01 
1010 1011 2 1.0279999999999982e+00 1.3845522057695649e+02 1.0000000000000000e+00 2.2617747939575253e+01 1.7600000000000001e+01 3.9140808141250316e-01 
1181 1182 2 1.0279999997027907e+00 -1.9613212882013293e+00 1.0000000000000000e+00 3.1371489478667570e+01 1.7600000000000001e+01 2.4395121815971043e-02 
1182 1183 2 1.0280000004871157e+00 -1.6477454554147805e+01 1.0000000000000000e+00 3.2979344312046805e+01 1.7600000000000001e+01 3.9975366527962414e-01 
247 248 2 1.0280000000000000e+00 1.7707568551422702e+02 1.0000000000000000e+00 4.4810730218272576e+00 1.0000000000000000e+01 2.5812808693881570e+00 
174 175 2 1.0280000000000002e+00 -1.5573171453407880e+01 1.0000000000000000e+00 1.4554616826658762e+01 1.0000000000000000e+01 2.8800361398742185e+00 
226 227 2 1.0279999999796130e+00 -1.1733055875873663e+02 1.0000000000000000e+00 3.1266080733456494e+01 1.0000000000000000e+01 2.2439506706969872e+00 
752 753 2 1.0280000000000000e+00 -2.2465304897768545e+00 1.0000000000000000e+00 8.5000145693637723e+00 1.3800000000000001e+01 2.2591965011756105e+00 
685 686 2 1.0280001031373940e+00 1.1811592831382180e+02 1.0000000000000000e+00 3.1220153071941183e+01 1.3800000000000001e+01 2.7624580008242519e+00 
686 687 2 1.0279999212012232e+00 1.7675188326722019e+02 1.0000000000000000e+00 3.2791762152094485e+01 1.3800000000000001e+01 2.5754366565978963e+00 
1260 1261 2 1.0280000000000000e+00 -1.1818720294723695e+02 1.0000000000000000e+00 2.0702825652247352e+01 1.7600000000000001e+01 2.5143380696102180e+00 
928 929 2 1.0279999999999982e+00 2.7407520771105055e+01 1.0000000000000000e+00 2.3119841100553820e+01 1.7600000000000001e+01 1.8734275009684127e+00 
290 291 2 1.0280000000000000e+00 -2.2468303400465275e+00 1.0000000000000000e+00 5.6401505494090962e+00 1.0000000000000000e+01 3.6324794173785175e+00 
173 174 2 1.0280000000000002e+00 -2.5191394610475265e-01 1.0000000000000000e+00 1.3046834245217019e+01 1.0000000000000000e+01 3.2984507540347900e+00 
218 219 2 1.0280000000000002e+00 -4.6654382534054037e+01 1.0000000000000000e+00 1.8419181699060896e+01 1.0000000000000000e+01 4.4543874277393387e+00 
170 171 2 1.0279999999999996e+00 -2.2743761730867291e+01 1.0000000000000000e+00 2.5510641928529935e+01 1.0000000000000000e+01 4.2514258277544323e+00 
171 172 2 1.0279999999999996e+00 2.8101537990035274e+02 1.0000000000000000e+00 2.6948719186479959e+01 1.0000000000000000e+01 3.6346496103066350e+00 
223 224 2 1.0280000000236571e+00 1.1810737732931455e+02 1.0000000000000000e+00 3.1119399851564012e+01 1.0000000000000000e+01 4.1722123716669381e+00 
224 225 2 1.0279999999920706e+00 1.7674861110659509e+02 1.0000000000000000e+00 3.2690614490401479e+01 1.0000000000000000e+01 3.9602873988979264e+00 
637 638 2 1.0279994590823123e+00 4.3145887073780202e+01 1.0000000000000000e+00 2.8060323466480881e+01 1.3800000000000001e+01 3.6169431785605606e+00 
1218 1219 2 1.0280000000000000e+00 -9.6370706530381511e+01 1.0000000000000000e+00 2.0019579535027457e+01 1.7600000000000001e+01 3.9220503433175287e+00 
175 176 2 1.0280000000000000e+00 4.3145765199330057e+01 1.0000000000000000e+00 9.2331936806091761e+00 1.0000000000000000e+01 5.3633217587266024e+00 
259 260 2 1.0280000000000002e+00 4.3929821866239422e+01 1.0000000000000000e+00 1.7254195978798155e+01 1.0000000000000000e+01 5.4990344369372632e+00 
679 680 2 1.0280005424905534e+00 -1.5492960826337509e+02 1.0000000000000000e+00 2.7834247408928810e+01 1.3800000000000001e+01 5.1652886123310227e+00 
465 466 2 1.0280070316087244e+00 8.4707709770168606e+01 1.0000000000000000e+00 3.0559161446408993e+01 1.3800000000000001e+01 4.8896165602127528e+00 
467 468 2 1.0279929560042163e+00 2.8231107991276190e+00 1.0000000000000000e+00 3.2122694350247500e+01 1.3800000000000001e+01 4.9521249652972426e+00 
217 218 2 1.0280000000000000e+00 -1.5492734340682929e+02 1.0000000000000000e+00 8.9516198663045721e+00 1.0000000000000000e+01 6.9025408104993593e+00 
221 222 2 1.0279999999999996e+00 -1.4489604585792571e+02 1.0000000000000000e+00 2.6683851372636830e+01 1.0000000000000000e+01 7.5168367504012714e+00 
222 223 2 1.0279999999999996e+00 1.0991968228686517e+02 1.0000000000000000e+00 2.8137166766560469e+01 1.0000000000000000e+01 6.9368768655584905e+00 
631 632 2 1.0280005413555418e+00 -9.7182145024421970e+01 1.0000000000000000e+00 2.6386139365001068e+01 1.3800000000000001e+01 6.9031220325479268e+00 
589 590 2 1.0279994579473004e+00 -1.1803202438896251e+02 1.0000000000000000e+00 2.7824714721649009e+01 1.3800000000000001e+01 7.5187395432859150e+00 
1171 1172 2 1.0280000000000009e+00 1.7707392753223269e+02 1.0000000000000000e+00 2.8019050430116521e-01 1.7600000000000001e+01 7.1917829982728279e+00 
1003 1004 2 1.0280000000000000e+00 1.0899754616402771e+02 1.0000000000000000e+00 1.1062946877140773e+01 1.7600000000000001e+01 6.4664558606863576e+00 
1006 1007 2 1.0280000000000000e+00 -8.4798425013667362e+00 1.0000000000000000e+00 1.2615883984168468e+01 1.7600000000000001e+01 6.6584596206982960e+00 
383 384 2 1.0279999347834265e+00 -5.3597746571203992e+01 1.0000000000000000e+00 3.0808905492915212e+01 1.0000000000000000e+01 8.6558409597719415e+00 
845 846 2 1.0279999999999994e+00 -5.3596530668938428e+01 1.0000000000000000e+00 3.0789472672415975e+01 1.3800000000000001e+01 8.3162388484826408e+00 
1214 1215 2 1.0280000000000009e+00 -2.2480050802019895e+00 1.0000000000000000e+00 1.2090583079839508e+00 1.7600000000000001e+01 8.4510223343498811e+00 
1164 1165 2 1.0279999937520159e+00 1.1673418501745024e+02 1.0000000000000000e+00 5.7846511728960355e+00 1.7600000000000001e+01 8.0757744455824021e+00 
1165 1166 2 1.0280000062455728e+00 1.1045157330660018e+02 1.0000000000000000e+00 7.4942801160373786e+00 1.7600000000000001e+01 8.0190528010649906e+00 
336 337 2 1.0280000943010295e+00 -1.1819997273760677e+02 1.0000000000000000e+00 2.8869307726984484e+01 1.0000000000000000e+01 9.8459100499838783e+00 
47 48 2 1.0280000653624897e+00 -5.3631820237993267e+01 1.0000000000000000e+00 3.1143579973271290e+01 1.0000000000000000e+01 1.0184393993503232e+01 
924 925 2 1.0280000000000007e+00 -2.6208546551330369e+02 1.0000000000000000e+00 9.7139238486478536e+00 1.3800000000000001e+01 9.6754873800749923e+00 
923 924 2 1.0280000000000007e+00 -7.0716100457270372e+01 1.0000000000000000e+00 1.0885186540439905e+01 1.3800000000000001e+01 1.0713091740637484e+01 
503 504 2 1.0279999999999991e+00 -7.0571505303913824e+01 1.0000000000000000e+00 2.0414734288146562e+01 1.3800000000000001e+01 1.0040334856570826e+01 
636 637 2 1.0280000000000002e+00 -1.5578132062417884e+01 1.0000000000000000e+00 2.4947469520954158e+01 1.3800000000000001e+01 1.0542361655704571e+01 
509 510 2 1.0279999999999994e+00 -5.3630752766849156e+01 1.0000000000000000e+00 3.1305029308964329e+01 1.3800000000000001e+01 9.7936285928470799e+00 
1132 1133 2 1.0280000062455719e+00 2.8092157675689901e+02 1.0000000000000000e+00 6.0067257711269324e+00 1.7600000000000001e+01 9.7570164298742910e+00 
1133 1134 2 1.0279999937520141e+00 -2.2303283721555935e+01 1.0000000000000000e+00 7.7163547142682818e+00 1.7600000000000001e+01 9.7002947853568813e+00 
294 295 2 1.0279999056771536e+00 -9.6385525800308670e+01 1.0000000000000000e+00 2.8650985869165066e+01 1.0000000000000000e+01 1.1395366573017185e+01 
384 385 2 1.0280001596270105e+00 1.0851445694642274e+02 1.0000000000000000e+00 3.3128941802168917e+01 1.0000000000000000e+01 1.1289355124300270e+01 
504 505 2 1.0279999999999991e+00 -2.6190195871109313e+02 1.0000000000000000e+00 2.0046366234246225e+01 1.3800000000000001e+01 1.1561118890912310e+01 
635 636 2 1.0280000000000002e+00 -2.5563510523721311e-01 1.0000000000000000e+00 2.3446565287918254e+01 1.3800000000000001e+01 1.0984815704727939e+01 
798 799 2 1.0280000000000000e+00 -1.1819552330749855e+02 1.0000000000000000e+00 2.8887846292964387e+01 1.3800000000000001e+01 1.1355562730376203e+01 
846 847 2 1.0279999997808404e+00 1.0851470940584494e+02 1.0000000000000000e+00 3.3080103342004641e+01 1.3800000000000001e+01 1.1398747510039687e+01 
1224 1225 2 1.0279999999999982e+00 -7.9285168629230867e+01 1.0000000000000000e+00 2.4306309571959744e+01 1.7600000000000001e+01 1.0908483199875239e+01 
1225 1226 2 1.0279999999999982e+00 4.8742289230024660e+00 1.0000000000000000e+00 2.5862575607245816e+01 1.7600000000000001e+01 1.1071317869578159e+01 
254 255 2 1.0279999998820195e+00 -2.2682232219096356e+01 1.0000000000000000e+00 2.5336892095403837e+01 1.0000000000000000e+01 1.3509020754338195e+01 
213 214 2 1.0280000000340124e+00 -1.2632838713691513e+02 1.0000000000000000e+00 2.6538827371331656e+01 1.0000000000000000e+01 1.2353370275985240e+01 
381 382 2 1.0279998404369053e+00 -8.4917072389995916e+00 1.0000000000000000e+00 3.1962040327702578e+01 1.0000000000000000e+01 1.2331862431686934e+01 
587 588 2 1.0279999999999998e+00 1.3885056163156617e+02 1.0000000000000000e+00 5.7985321313522045e+00 1.3800000000000001e+01 1.2414945590808003e+01 
756 757 2 1.0280000000000000e+00 -9.6384907454825168e+01 1.0000000000000000e+00 2.8654741245044992e+01 1.3800000000000001e+01 1.2902863974115368e+01 
843 844 2 1.0280000002432921e+00 -8.4910770346044551e+00 1.0000000000000000e+00 3.1882765762227020e+01 1.3800000000000001e+01 1.2455592078551405e+01 
1049 1050 2 1.0280000000000000e+00 1.3884083266922931e+02 1.0000000000000000e+00 6.7645337802183922e+00 1.7600000000000001e+01 1.2324959705778937e+01 
1050 1051 2 1.0280000000000000e+00 4.9159158087298422e+01 1.0000000000000000e+00 7.3802847140810046e+00 1.7600000000000001e+01 1.3763476264491276e+01 
1128 1129 2 1.0280000000000000e+00 4.1651578670602674e+01 1.0000000000000000e+00 1.4170634331485413e+01 1.7600000000000001e+01 1.3053768474807889e+01 
1223 1224 2 1.0280000000501961e+00 1.2058079536009643e+02 1.0000000000000000e+00 3.1122753433930438e+01 1.7600000000000001e+01 1.3787833199987267e+01 
1264 1265 2 1.0280000001993261e+00 -4.7971809648337344e-01 1.0000000000000000e+00 3.2039745937357928e+01 1.7600000000000001e+01 1.2405482045952160e+01 
169 170 2 1.0280000000000000e+00 -9.7178230079173858e+01 1.0000000000000000e+00 3.0783660711020500e+00 1.0000000000000000e+01 1.5196934277920466e+01 
255 256 2 1.0280000001676819e+00 2.8083576793716418e+02 1.0000000000000000e+00 2.6999782574026085e+01 1.0000000000000000e+01 1.4035649279537555e+01 
419 420 2 1.0280000003348908e+00 -7.0047466159074702e+01 1.0000000000000000e+00 2.9799688469292374e+01 1.0000000000000000e+01 1.5161698044228579e+01 
340 341 2 1.0279999997144433e+00 -4.8505861572383896e-01 1.0000000000000000e+00 3.2709904779668250e+01 1.0000000000000000e+01 1.4699782563860197e+01 
588 589 2 1.0279999999999998e+00 4.9175969843926936e+01 1.0000000000000000e+00 6.4300554181671581e+00 1.3800000000000001e+01 1.3846608065154770e+01 
802 803 2 1.0279999997422937e+00 -4.8484864855035342e-01 1.0000000000000000e+00 3.2761822925702454e+01 1.3800000000000001e+01 1.4126317726312339e+01 
1170 1171 2 1.0280000000000000e+00 -1.5530768424832542e+02 1.0000000000000000e+00 1.4847018846070963e+01 1.7600000000000001e+01 1.4464790477000321e+01 
1312 1313 2 1.0279999997410165e+00 1.0709924507649160e+02 1.0000000000000000e+00 3.2852091781167609e+01 1.7600000000000001e+01 1.4093279645406747e+01 
127 128 2 1.0280000000000000e+00 -1.1802682067207439e+02 1.0000000000000000e+00 4.5500566888902876e+00 1.0000000000000000e+01 1.5728541113614238e+01 
211 212 2 1.0280000002848171e+00 1.4457094873203181e+02 1.0000000000000000e+00 2.6334344239929607e+01 1.0000000000000000e+01 1.5795495768589848e+01 
212 213 2 1.0279999996680589e+00 1.3706924769223860e+02 1.0000000000000000e+00 2.7932691112663086e+01 1.0000000000000000e+01 1.5750486433229131e+01 
83 84 2 1.0279999998352252e+00 -7.0245290302812322e+01 1.0000000000000000e+00 2.9874227191647822e+01 1.0000000000000000e+01 1.6743017710689507e+01 
299 300 2 1.0279999998870377e+00 1.2056472059684032e+02 1.0000000000000000e+00 3.1696936184255531e+01 1.0000000000000000e+01 1.6058410481169428e+01 
388 389 2 1.0280000002327641e+00 1.0720749859971912e+02 1.0000000000000000e+00 3.3228486600781835e+01 1.0000000000000000e+01 1.6895488820136485e+01 
840 841 2 1.0280000000000002e+00 4.9120140508760514e+01 1.0000000000000000e+00 1.3567744164032337e+01 1.3800000000000001e+01 1.6317438514263337e+01 
881 882 2 1.0279999996760363e+00 -7.0047649810389828e+01 1.0000000000000000e+00 2.9802370427346240e+01 1.3800000000000001e+01 1.6085925395333472e+01 
761 762 2 1.0279999999985370e+00 1.2056458403655174e+02 1.0000000000000000e+00 3.1768640023183146e+01 1.3800000000000001e+01 1.5539087349885754e+01 
850 851 2 1.0280000001125973e+00 1.0720239799859363e+02 1.0000000000000000e+00 3.3227910534990770e+01 1.3800000000000001e+01 1.6390074812256582e+01 
1305 1306 2 1.0280000000000002e+00 -8.5332114793705554e+00 1.0000000000000000e+00 2.1725272426927827e+01 1.7600000000000001e+01 1.6354778953975007e+01 
1308 1309 2 1.0280000000000002e+00 1.0850048378252822e+02 1.0000000000000000e+00 2.3031208177234817e+01 1.7600000000000001e+01 1.5492798143102522e+01 
44 45 2 1.0280000000000002e+00 -6.4473959747917490e+01 1.0000000000000000e+00 1.6567667853234937e+01 1.0000000000000000e+01 1.7007759504861671e+01 
85 86 2 1.0280000000000002e+00 5.1257952810390506e+01 1.0000000000000000e+00 1.8086992669811966e+01 1.0000000000000000e+01 1.7382100531167154e+01 
839 840 2 1.0280000000000002e+00 1.3876826382952061e+02 1.0000000000000000e+00 1.3258470910564025e+01 1.3800000000000001e+01 1.7851331977621008e+01 
545 546 2 1.0280000003282133e+00 -7.0244247985168698e+01 1.0000000000000000e+00 2.9876379801967524e+01 1.3800000000000001e+01 1.7654556425957573e+01 
677 678 2 1.0279999998386180e+00 5.3195857278340952e+01 1.0000000000000000e+00 3.2306204195323630e+01 1.3800000000000001e+01 1.8006696954868769e+01 
1180 1181 2 1.0279999996154048e+00 3.8364659254188716e+01 1.0000000000000000e+00 3.2514460168738047e+01 1.7600000000000001e+01 1.7378026356115754e+01 
334 335 2 1.0279999999999996e+00 -2.9171020232085436e+02 1.0000000000000000e+00 1.1309465009816677e+01 1.0000000000000000e+01 1.9178388985150040e+01 
335 336 2 1.0279999999999996e+00 -4.9514703992754235e+01 1.0000000000000000e+00 1.2847458744385266e+01 1.0000000000000000e+01 1.8890197426165333e+01 
166 167 2 1.0280000000000000e+00 -2.9143326204077016e+02 1.0000000000000000e+00 2.6482575622937549e+01 1.0000000000000000e+01 1.9269050081788496e+01 
167 168 2 1.0280000000000000e+00 -4.9142462662477982e+01 1.0000000000000000e+00 2.8042156219743905e+01 1.0000000000000000e+01 1.9396280048020511e+01 
214 215 2 1.0280000001196501e+00 -3.7876037952615206e+01 1.0000000000000000e+00 3.1327150460362674e+01 1.0000000000000000e+01 1.9729055300520830e+01 
215 216 2 1.0279999998994145e+00 5.3190522219931154e+01 1.0000000000000000e+00 3.2386135376373375e+01 1.0000000000000000e+01 1.8488052240769282e+01 
684 685 2 1.0280000000000002e+00 1.0992166566607614e+02 1.0000000000000000e+00 2.7843144803598310e+01 1.3800000000000001e+01 1.9968724242661949e+01 
676 677 2 1.0280000000981100e+00 -3.7871667326208538e+01 1.0000000000000000e+00 3.1220779999174336e+01 1.3800000000000001e+01 1.9190081087646810e+01 
1162 1163 2 1.0280000000000007e+00 4.1634948319614139e+01 1.0000000000000000e+00 1.8562915753664939e+01 1.7600000000000001e+01 1.8829435733224244e+01 
1163 1164 2 1.0280000000000007e+00 1.7628418272912830e+02 1.0000000000000000e+00 2.0123660935160661e+01 1.7600000000000001e+01 1.8941478495954136e+01 
1139 1140 2 1.0279999999999996e+00 5.3187661994072315e+01 1.0000000000000000e+00 2.4319884516129328e+01 1.7600000000000001e+01 1.9278051534829849e+01 
1142 1143 2 1.0280000001913532e+00 -4.6674472407572623e+01 1.0000000000000000e+00 2.9716248765578719e+01 1.7600000000000001e+01 1.9462786212929558e+01 
1222 1223 2 1.0280000011847341e+00 -2.1779156060091896e+02 1.0000000000000000e+00 3.1412011869804502e+01 1.7600000000000001e+01 1.8613281359124699e+01 
1265 1266 2 1.0279999984363486e+00 1.5558856429503898e+01 1.0000000000000000e+00 3.2652525831607818e+01 1.7600000000000001e+01 1.9951294354945759e+01 
300 301 2 1.0279999999999994e+00 -7.9330941244055509e+01 1.0000000000000000e+00 2.1255359810775371e+01 1.0000000000000000e+01 2.0932741191395632e+01 
301 302 2 1.0279999999999994e+00 4.8079160116016197e+00 1.0000000000000000e+00 2.2799768580979023e+01 1.0000000000000000e+01 2.1184297651778422e+01 
256 257 2 1.0280000000071505e+00 3.8356155217549194e+01 1.0000000000000000e+00 3.2588656746056003e+01 1.0000000000000000e+01 2.1015294600565223e+01 
762 763 2 1.0280000000000011e+00 -7.9333845191488109e+01 1.0000000000000000e+00 1.6784668791849771e+01 1.3800000000000001e+01 2.0769672659431553e+01 
763 764 2 1.0280000000000011e+00 4.8114528315522058e+00 1.0000000000000000e+00 1.8325754318542817e+01 1.3800000000000001e+01 2.1040845116844682e+01 
683 684 2 1.0280000000000002e+00 -1.4489461889795004e+02 1.0000000000000000e+00 2.6368508530403599e+01 1.3800000000000001e+01 2.0492104567111273e+01 
718 719 2 1.0280000002383520e+00 3.8358991764001026e+01 1.0000000000000000e+00 3.2539289198069270e+01 1.3800000000000001e+01 2.0529489334016940e+01 
1138 1139 2 1.0279999999999996e+00 -3.7900882614886640e+01 1.0000000000000000e+00 2.3075431994306172e+01 1.7600000000000001e+01 2.0226638390721423e+01 
1137 1138 2 1.0279999999235032e+00 -1.2633200174686817e+02 1.0000000000000000e+00 2.6856278586104178e+01 1.7600000000000001e+01 2.1025539133361608e+01 
1183 1184 2 1.0280000006803454e+00 4.3892211184155869e+01 1.0000000000000000e+00 2.8986728458515238e+01 1.7600000000000001e+01 2.0880638770092908e+01 
298 299 2 1.0280000000348331e+00 -2.1779095009028202e+02 1.0000000000000000e+00 3.1469637407618663e+01 1.0000000000000000e+01 2.2348865902107018e+01 
760 761 2 1.0279999997461222e+00 -2.1779812802461021e+02 1.0000000000000000e+00 3.1341354883934848e+01 1.3800000000000001e+01 2.1768297109721427e+01 
803 804 2 1.0280000003946843e+00 1.5559891377750633e+01 1.0000000000000000e+00 3.2782146194212999e+01 1.3800000000000001e+01 2.2640710393974754e+01 
1178 1179 2 1.0280000002000511e+00 -2.2699044817453775e+01 1.0000000000000000e+00 2.5631315703423095e+01 1.7600000000000001e+01 2.2185174099710405e+01 
1179 1180 2 1.0280000000030600e+00 2.8082359034547721e+02 1.0000000000000000e+00 2.7274139547247170e+01 1.7600000000000001e+01 2.2696174506229386e+01 
1011 1012 2 1.0280000021877176e+00 -3.3698800741069114e+01 1.0000000000000000e+00 2.9194024782845858e+01 1.7600000000000001e+01 2.2769857127766272e+01 
1345 1346 2 1.0280000000569214e+00 -2.6206143614111181e+02 1.0000000000000000e+00 3.0952623293148015e+01 1.7600000000000001e+01 2.2601378132695217e+01 
1266 1267 2 1.0280000021016849e+00 -1.1598551927112737e+02 1.0000000000000000e+00 3.2403167057432036e+01 1.7600000000000001e+01 2.1650444176740287e+01 
125 126 2 1.0279999999999978e+00 1.3884224483219987e+02 1.0000000000000000e+00 2.0354344241589526e+01 1.0000000000000000e+01 2.3843534911054928e+01 
3 4 2 1.0280000000000009e+00 8.4707385947661436e+01 1.0000000000000000e+00 2.6490386413217895e+01 1.0000000000000000e+01 2.3715728319352703e+01 
5 6 2 1.0280000000000009e+00 2.8218674528408423e+00 1.0000000000000000e+00 2.8053121388234423e+01 1.0000000000000000e+01 2.3636113621574292e+01 
341 342 2 1.0280000000337468e+00 1.5559885189061875e+01 1.0000000000000000e+00 3.2865395792737239e+01 1.0000000000000000e+01 2.3265768989267027e+01 
885 886 2 1.0280000000000000e+00 8.4950451443374845e+01 1.0000000000000000e+00 1.1099937535876299e+00 1.3800000000000001e+01 2.3803598350280836e+01 
887 888 2 1.0280000000000000e+00 3.1656025095535636e+00 1.0000000000000000e+00 2.6429001201634441e+00 1.3800000000000001e+01 2.4117727580938546e+01 
753 754 2 1.0280000000000002e+00 3.7978855037622921e+01 1.0000000000000000e+00 2.0682549144533539e+01 1.3800000000000001e+01 2.3916906471676356e+01 
795 796 2 1.0280000000000002e+00 -2.1768192915566357e+02 1.0000000000000000e+00 2.2244872027333610e+01 1.3800000000000001e+01 2.3829577712830591e+01 
804 805 2 1.0279999999427223e+00 -1.1598051966011860e+02 1.0000000000000000e+00 3.2696064460255535e+01 1.3800000000000001e+01 2.4412847128993022e+01 
970 971 2 1.0280000010961874e+00 6.1149136768676575e+00 1.0000000000000000e+00 2.8885641176268663e+01 1.7600000000000001e+01 2.4469056380556633e+01 
1346 1347 2 1.0279999994489903e+00 -7.0631794333146075e+01 1.0000000000000000e+00 3.0565919460338165e+01 1.7600000000000001e+01 2.4413467050668331e+01 
1306 1307 2 1.0280000007099857e+00 5.3165092484843344e+00 1.0000000000000000e+00 3.2342506414342928e+01 1.7600000000000001e+01 2.3993305945762049e+01 
126 127 2 1.0279999999999978e+00 4.9173958961981569e+01 1.0000000000000000e+00 2.0906901418313190e+01 1.0000000000000000e+01 2.5307488349075914e+01 
421 422 2 1.0280000000385197e+00 -2.6201344913452340e+02 1.0000000000000000e+00 3.1465067159939050e+01 1.0000000000000000e+01 2.6144998607195205e+01 
342 343 2 1.0280000000596388e+00 -1.1598042219243408e+02 1.0000000000000000e+00 3.2787313025206963e+01 1.0000000000000000e+01 2.5061806261839813e+01 
549 550 2 1.0279999998254861e+00 -3.3671410476838574e+01 1.0000000000000000e+00 2.9528181445264991e+01 1.3800000000000001e+01 2.5830275599398917e+01 
883 884 2 1.0280000000451963e+00 -2.6201360873871658e+02 1.0000000000000000e+00 3.1274000343155276e+01 1.3800000000000001e+01 2.5407047919220719e+01 
1263 1264 2 1.0279999990273985e+00 -3.3860324127514687e+01 1.0000000000000000e+00 3.2039365616082684e+01 1.7600000000000001e+01 2.5828879748355295e+01 
87 88 2 1.0280000000258680e+00 -3.3670235953804522e+01 1.0000000000000000e+00 2.9733211561787762e+01 1.0000000000000000e+01 2.6613271278875448e+01 
382 383 2 1.0279999999697607e+00 5.3261981917434067e+00 1.0000000000000000e+00 3.2663865624182776e+01 1.0000000000000000e+01 2.7557053255674361e+01 
508 509 2 1.0279999999658767e+00 6.1116606458555935e+00 1.0000000000000000e+00 2.9049946990240983e+01 1.3800000000000001e+01 2.7439893661897806e+01 
884 885 2 1.0280000004582337e+00 -7.0627328367348383e+01 1.0000000000000000e+00 3.0767562347882908e+01 1.3800000000000001e+01 2.7238496774257136e+01 
844 845 2 1.0279999999015121e+00 5.3261816188162889e+00 1.0000000000000000e+00 3.2520160033659494e+01 1.3800000000000001e+01 2.6774739117153135e+01 
1094 1095 2 1.0279999999999980e+00 -2.2718024458307831e+01 1.0000000000000000e+00 2.4684488340303457e+01 1.7600000000000001e+01 2.7178453462424088e+01 
1095 1096 2 1.0279999999999980e+00 2.8104888544403593e+02 1.0000000000000000e+00 2.6119395599143111e+01 1.7600000000000001e+01 2.6554337879561778e+01 
1149 1150 2 1.0280007923979291e+00 3.5289509568014999e+01 1.0000000000000000e+00 2.8559952431333407e+01 1.7600000000000001e+01 2.6703733918652425e+01 
1150 1151 2 1.0279992083436293e+00 -1.1722466192196680e+02 1.0000000000000000e+00 2.9943078270856834e+01 1.7600000000000001e+01 2.7435477816952652e+01 
934 935 2 1.0279999998056644e+00 1.4330740599209602e+02 1.0000000000000000e+00 3.2738320615103305e+01 1.7600000000000001e+01 2.7451803704043115e+01 
46 47 2 1.0279999999895240e+00 6.1120962813699089e+00 1.0000000000000000e+00 2.9213060354297337e+01 1.0000000000000000e+01 2.8210647500013543e+01 
422 423 2 1.0279999999885463e+00 -7.0627033872931491e+01 1.0000000000000000e+00 3.0934607204756706e+01 1.0000000000000000e+01 2.8056247709342244e+01 
632 633 2 1.0279999999999998e+00 -2.2741840173558828e+01 1.0000000000000000e+00 2.0854070818721095e+01 1.3800000000000001e+01 2.9182612981486642e+01 
633 634 2 1.0279999999999998e+00 2.8101865134629270e+02 1.0000000000000000e+00 2.2325994405302549e+01 1.3800000000000001e+01 2.8651651535139113e+01 
801 802 2 1.0280000014500152e+00 -3.3855331488742237e+01 1.0000000000000000e+00 3.2192584287347522e+01 1.3800000000000001e+01 2.8619131960498443e+01 
1348 1349 2 1.0279999999999985e+00 2.7279965628487105e+01 1.0000000000000000e+00 1.7472473053534429e+01 1.7600000000000001e+01 2.8699060787554245e+01 
131 132 2 1.0279999999999996e+00 1.2104696493138997e+02 1.0000000000000000e+00 2.3749352267831679e+01 1.0000000000000000e+01 2.9695571214449021e+01 
297 298 2 1.0279999999999998e+00 -2.9131906993073017e+02 1.0000000000000000e+00 2.7903401889330350e+01 1.0000000000000000e+01 3.0225420141405845e+01 
339 340 2 1.0280000000933813e+00 -3.3855490034106168e+01 1.0000000000000000e+00 3.2256812734057995e+01 1.0000000000000000e+01 2.9454406520809638e+01 
472 473 2 1.0280000002587419e+00 1.4328802044068368e+02 1.0000000000000000e+00 3.2714756106279445e+01 1.3800000000000001e+01 3.0238663895003452e+01 
1220 1221 2 1.0279999999999994e+00 -4.9176335464420546e+01 1.0000000000000000e+00 5.5922925358412305e+00 1.7600000000000001e+01 3.0516869589913163e+01 
1221 1222 2 1.0279999999999994e+00 -2.9132829698657565e+02 1.0000000000000000e+00 6.8173762681033256e+00 1.7600000000000001e+01 2.9543396965136765e+01 
1262 1263 2 1.0279999999999985e+00 1.3839827167929189e+02 1.0000000000000000e+00 1.7043937698613078e+01 1.7600000000000001e+01 3.0203998178884767e+01 
1099 1100 2 1.0279999999999978e+00 4.3122693859820586e+01 1.0000000000000000e+00 1.9779083465518742e+01 1.7600000000000001e+01 3.0617894240707280e+01 
1145 1146 2 1.0280000000000007e+00 -1.4490022786193262e+02 1.0000000000000000e+00 2.4779639163109270e+01 1.7600000000000001e+01 2.9651525579216916e+01 
1146 1147 2 1.0280000000000007e+00 1.0993595882315432e+02 1.0000000000000000e+00 2.6339089286090761e+01 1.7600000000000001e+01 2.9522706263214729e+01 
1055 1056 2 1.0279999999999996e+00 1.2105651713695099e+02 1.0000000000000000e+00 3.0413048052754089e+01 1.7600000000000001e+01 2.9792051044515173e+01 
88 89 2 1.0279999999999996e+00 -3.7860666711633251e-01 1.0000000000000000e+00 2.3793077148210514e+01 1.0000000000000000e+01 3.1259721858433842e+01 
296 297 2 1.0279999999999998e+00 -4.9201005573445642e+01 1.0000000000000000e+00 2.6612066050976104e+01 1.0000000000000000e+01 3.1109123063673394e+01 
10 11 2 1.0279999999929925e+00 1.4328794330849712e+02 1.0000000000000000e+00 3.2762380132134538e+01 1.0000000000000000e+01 3.1074479869201969e+01 
882 883 2 1.0279931595253071e+00 7.0235368167916931e+01 1.0000000000000000e+00 3.4532716479369614e+00 1.3800000000000001e+01 3.1434194621863035e+01 
841 842 2 1.0280068914080878e+00 6.4408172857602551e+01 1.0000000000000000e+00 5.0072494376610548e+00 1.3800000000000001e+01 3.1617752900979465e+01 
593 594 2 1.0279999999999974e+00 1.2104647694255530e+02 1.0000000000000000e+00 2.8549666033357990e+01 1.3800000000000001e+01 3.1150489431229648e+01 
1141 1142 2 1.0279999999999978e+00 -1.5496042889040194e+02 1.0000000000000000e+00 1.9467205361211807e+01 1.7600000000000001e+01 3.2151260195167012e+01 
1012 1013 2 1.0279999999999996e+00 -3.9607581999053043e-01 1.0000000000000000e+00 2.9981481418813971e+01 1.7600000000000001e+01 3.1296121967946601e+01 
380 381 2 1.0280000000000002e+00 -6.5565394220209157e+01 1.0000000000000000e+00 2.8234943350175790e+01 1.0000000000000000e+01 3.3149908141708678e+01 
337 338 2 1.0280000000000002e+00 5.0809600249268371e+01 1.0000000000000000e+00 2.9794756875142667e+01 1.0000000000000000e+01 3.3025566396616085e+01 
132 133 2 1.0279999999581366e+00 -7.9329872698009183e+01 1.0000000000000000e+00 3.2373702349546086e+01 1.0000000000000000e+01 3.3499083559150598e+01 
842 843 2 1.0280068905159958e+00 -6.5563203209038804e+01 1.0000000000000000e+00 5.7768646680208686e+00 1.3800000000000001e+01 3.3708547419745500e+01 
796 797 2 1.0280000000000002e+00 -2.9170975593921503e+02 1.0000000000000000e+00 1.9730664373034255e+01 1.3800000000000001e+01 3.2924283204764272e+01 
797 798 2 1.0280000000000002e+00 -4.9514680576667942e+01 1.0000000000000000e+00 2.1277460106641929e+01 1.3800000000000001e+01 3.2687847038462742e+01 
550 551 2 1.0279999999999974e+00 -3.7945669631641465e-01 1.0000000000000000e+00 2.8516849037596486e+01 1.3800000000000001e+01 3.2714906941688888e+01 
594 595 2 1.0279999941573676e+00 -7.9329472236926534e+01 1.0000000000000000e+00 3.2318096916959412e+01 1.3800000000000001e+01 3.2635761579334357e+01 
1304 1305 2 1.0280000000000014e+00 -6.5563568482122349e+01 1.0000000000000000e+00 2.4432493147230414e+01 1.7600000000000001e+01 3.2537377851877615e+01 
1261 1262 2 1.0280000000000014e+00 5.0809543216604695e+01 1.0000000000000000e+00 2.5995011798783725e+01 1.7600000000000001e+01 3.2453624847213455e+01 
208 209 2 1.0280000000000000e+00 2.8090744678820511e+02 1.0000000000000000e+00 3.0971016544501158e+00 1.0000000000000000e+01 3.3920166771371143e+01 
209 210 2 1.0280000000000000e+00 -2.2315383156767560e+01 1.0000000000000000e+00 4.6595746523622124e+00 1.0000000000000000e+01 3.4004767203035854e+01 
799 800 2 1.0279931586332154e+00 5.0813238495069825e+01 1.0000000000000000e+00 7.3347270072464399e+00 1.3800000000000001e+01 3.3855535694219078e+01 
759 760 2 1.0280000175672623e+00 -2.9132001841757437e+02 1.0000000000000000e+00 2.9676796970561092e+01 1.3800000000000001e+01 3.4827543849069137e+01 
1347 1348 2 1.0280000000000000e+00 8.4947703291263423e+01 1.0000000000000000e+00 1.4708262657414208e+01 1.7600000000000001e+01 3.4336053301933248e+01 
1349 1350 2 1.0280000000000000e+00 3.1631024987446943e+00 1.0000000000000000e+00 1.6261348852106572e+01 1.7600000000000001e+01 3.4526847363943212e+01 