LAMMPS data file via write_data, version 30 Jul 2016, timestep = 600000

2080 atoms
8 atom types

0.0000000000000000e+00 4.0000000000000000e+01 xlo xhi
0.0000000000000000e+00 4.0000000000000000e+01 ylo yhi
0.0000000000000000e+00 1.0000000000000000e+02 zlo zhi

Masses

1 3.896
2 5.36
3 1058.08
4 8.378
5 8.378
6 8.378
7 8.378
8 8.378

Atoms # meso-molecular

1 2 4 2.2559723595316457e+00 1.0000000000000000e+00 4.2000000000000000e+03 0.0000000000000000e+00 0.0000000000000000e+00 2.5000000000000000e+00 
2 2 4 2.2559723595316457e+00 1.0000000000000000e+00 4.2000000000000000e+03 0.0000000000000000e+00 2.0000000000000000e+00 2.5000000000000000e+00 
3 2 4 2.2559723595316457e+00 1.0000000000000000e+00 4.2000000000000000e+03 0.0000000000000000e+00 4.0000000000000000e+00 2.5000000000000000e+00 
4 2 4 2.2559723595316457e+00 1.0000000000000000e+00 4.2000000000000000e+03 0.0000000000000000e+00 6.0000000000000000e+00 2.5000000000000000e+00 
21 2 4 2.2559723595316457e+00 1.0000000000000000e+00 4.2000000000000000e+03 2.0000000000000000e+00 0.0000000000000000e+00 2.5000000000000000e+00 
22 2 4 2.2559723595316457e+00 1.0000000000000000e+00 4.2000000000000000e+03 2.0000000000000000e+00 2.0000000000000000e+00 2.5000000000000000e+00 
23 2 4 2.2559723595316457e+00 1.0000000000000000e+00 4.2000000000000000e+03 2.0000000000000000e+00 4.0000000000000000e+00 2.5000000000000000e+00 
24 2 4 2.2559723595316457e+00 1.0000000000000000e+00 4.2000000000000000e+03 2.0000000000000000e+00 6.0000000000000000e+00 2.5000000000000000e+00 
41 2 4 2.2559723595316457e+00 1.0000000000000000e+00 4.2000000000000000e+03 4.0000000000000000e+00 0.0000000000000000e+00 2.5000000000000000e+00 
42 2 4 2.2559723595316457e+00 1.0000000000000000e+00 4.2000000000000000e+03 4.0000000000000000e+00 2.0000000000000000e+00 2.5000000000000000e+00 
43 2 4 2.2559723595316457e+00 1.0000000000000000e+00 4.2000000000000000e+03 4.0000000000000000e+00 4.0000000000000000e+00 2.5000000000000000e+00 
44 2 4 2.2559723595316457e+00 1.0000000000000000e+00 4.2000000000000000e+03 4.0000000000000000e+00 6.0000000000000000e+00 2.5000000000000000e+00 
61 2 4 2.2559723595316457e+00 1.0000000000000000e+00 4.2000000000000000e+03 6.0000000000000000e+00 0.0000000000000000e+00 2.5000000000000000e+00 
62 2 4 2.2559723595316457e+00 1.0000000000000000e+00 4.2000000000000000e+03 6.0000000000000000e+00 2.0000000000000000e+00 2.5000000000000000e+00 
63 2 4 2.2559723595316457e+00 1.0000000000000000e+00 4.2000000000000000e+03 6.0000000000000000e+00 4.0000000000000000e+00 2.5000000000000000e+00 
64 2 4 2.2559723595316457e+00 1.0000000000000000e+00 4.2000000000000000e+03 6.0000000000000000e+00 6.0000000000000000e+00 2.5000000000000000e+00 
81 2 4 2.2559723595316457e+00 1.0000000000000000e+00 4.2000000000000000e+03 8.0000000000000000e+00 0.0000000000000000e+00 2.5000000000000000e+00 
82 2 4 2.2559723595316457e+00 1.0000000000000000e+00 4.2000000000000000e+03 8.0000000000000000e+00 2.0000000000000000e+00 2.5000000000000000e+00 
83 2 4 2.2559723595316457e+00 1.0000000000000000e+00 4.2000000000000000e+03 8.0000000000000000e+00 4.0000000000000000e+00 2.5000000000000000e+00 
84 2 4 2.2559723595316457e+00 1.0000000000000000e+00 4.2000000000000000e+03 8.0000000000000000e+00 6.0000000000000000e+00 2.5000000000000000e+00 
101 2 4 2.2559723595316457e+00 1.0000000000000000e+00 4.2000000000000000e+03 1.0000000000000000e+01 0.0000000000000000e+00 2.5000000000000000e+00 
102 2 4 2.2559723595316457e+00 1.0000000000000000e+00 4.2000000000000000e+03 1.0000000000000000e+01 2.0000000000000000e+00 2.5000000000000000e+00 
103 2 4 2.2559723595316457e+00 4.4965794027926087e-01 4.2000000000000000e+03 1.0000000000000000e+01 4.0000000000000000e+00 2.5000000000000000e+00 
104 2 4 2.2559723595316457e+00 -2.7608752517146701e+01 4.2000000000000000e+03 1.0000000000000000e+01 6.0000000000000000e+00 2.5000000000000000e+00 
121 2 4 2.2559723595316457e+00 1.0000000000000000e+00 4.2000000000000000e+03 1.2000000000000000e+01 0.0000000000000000e+00 2.5000000000000000e+00 
122 2 4 2.2559723595316457e+00 1.0000000000000000e+00 4.2000000000000000e+03 1.2000000000000000e+01 2.0000000000000000e+00 2.5000000000000000e+00 
123 2 4 2.2559723595316457e+00 -2.7601515996526182e+01 4.2000000000000000e+03 1.2000000000000000e+01 4.0000000000000000e+00 2.5000000000000000e+00 
124 2 4 2.2559723595316457e+00 -2.4646515621134338e+02 4.2000000000000000e+03 1.2000000000000000e+01 6.0000000000000000e+00 2.5000000000000000e+00 
141 2 4 2.2559723595316457e+00 1.0000000000000000e+00 4.2000000000000000e+03 1.4000000000000000e+01 0.0000000000000000e+00 2.5000000000000000e+00 
142 2 4 2.2559723595316457e+00 -9.5006604109720239e-01 4.2000000000000000e+03 1.4000000000000000e+01 2.0000000000000000e+00 2.5000000000000000e+00 
143 2 4 2.2559723595316457e+00 -1.2831718670622431e+02 4.2000000000000000e+03 1.4000000000000000e+01 4.0000000000000000e+00 2.5000000000000000e+00 
144 2 4 2.2559723595316457e+00 -8.0889706478197161e+02 4.2000000000000000e+03 1.4000000000000000e+01 6.0000000000000000e+00 2.5000000000000000e+00 
161 2 4 2.2559723595316457e+00 1.0000000000000000e+00 4.2000000000000000e+03 1.6000000000000000e+01 0.0000000000000000e+00 2.5000000000000000e+00 
162 2 4 2.2559723595316457e+00 -5.9941513776171185e+00 4.2000000000000000e+03 1.6000000000000000e+01 2.0000000000000000e+00 2.5000000000000000e+00 
163 2 4 2.2559723595316457e+00 -2.8036572132231879e+02 4.2000000000000000e+03 1.6000000000000000e+01 4.0000000000000000e+00 2.5000000000000000e+00 
164 2 4 2.2559723595316457e+00 -1.5778860791889315e+03 4.2000000000000000e+03 1.6000000000000000e+01 6.0000000000000000e+00 2.5000000000000000e+00 
181 2 4 2.2559723595316457e+00 1.0000000000000000e+00 4.2000000000000000e+03 1.8000000000000000e+01 0.0000000000000000e+00 2.5000000000000000e+00 
182 2 4 2.2559723595316457e+00 -8.5855501130872192e+00 4.2000000000000000e+03 1.8000000000000000e+01 2.0000000000000000e+00 2.5000000000000000e+00 
183 2 4 2.2559723595316457e+00 -3.9166675449371076e+02 4.2000000000000000e+03 1.8000000000000000e+01 4.0000000000000000e+00 2.5000000000000000e+00 
184 2 4 2.2559723595316457e+00 -2.1492575740038396e+03 4.2000000000000000e+03 1.8000000000000000e+01 6.0000000000000000e+00 2.5000000000000000e+00 
5 2 4 2.2559723595316457e+00 1.0000000000000000e+00 4.2000000000000000e+03 0.0000000000000000e+00 8.0000000000000000e+00 2.5000000000000000e+00 
6 2 4 2.2559723595316457e+00 1.0000000000000000e+00 4.2000000000000000e+03 0.0000000000000000e+00 1.0000000000000000e+01 2.5000000000000000e+00 
7 2 4 2.2559723595316457e+00 1.0000000000000000e+00 4.2000000000000000e+03 0.0000000000000000e+00 1.2000000000000000e+01 2.5000000000000000e+00 
25 2 4 2.2559723595316457e+00 1.0000000000000000e+00 4.2000000000000000e+03 2.0000000000000000e+00 8.0000000000000000e+00 2.5000000000000000e+00 
26 2 4 2.2559723595316457e+00 1.0000000000000000e+00 4.2000000000000000e+03 2.0000000000000000e+00 1.0000000000000000e+01 2.5000000000000000e+00 
27 2 4 2.2559723595316457e+00 1.0000000000000000e+00 4.2000000000000000e+03 2.0000000000000000e+00 1.2000000000000000e+01 2.5000000000000000e+00 
45 2 4 2.2559723595316457e+00 1.0000000000000000e+00 4.2000000000000000e+03 4.0000000000000000e+00 8.0000000000000000e+00 2.5000000000000000e+00 
46 2 4 2.2559723595316457e+00 1.0000000000000000e+00 4.2000000000000000e+03 4.0000000000000000e+00 1.0000000000000000e+01 2.5000000000000000e+00 
47 2 4 2.2559723595316457e+00 1.0000000000000000e+00 4.2000000000000000e+03 4.0000000000000000e+00 1.2000000000000000e+01 2.5000000000000000e+00 
65 2 4 2.2559723595316457e+00 1.0000000000000000e+00 4.2000000000000000e+03 6.0000000000000000e+00 8.0000000000000000e+00 2.5000000000000000e+00 
66 2 4 2.2559723595316457e+00 1.0000000000000000e+00 4.2000000000000000e+03 6.0000000000000000e+00 1.0000000000000000e+01 2.5000000000000000e+00 
67 2 4 2.2559723595316457e+00 1.0000000000000000e+00 4.2000000000000000e+03 6.0000000000000000e+00 1.2000000000000000e+01 2.5000000000000000e+00 
85 2 4 2.2559723595316457e+00 -9.4981717402585275e-01 4.2000000000000000e+03 8.0000000000000000e+00 8.0000000000000000e+00 2.5000000000000000e+00 
86 2 4 2.2559723595316457e+00 -6.0241331331828851e+00 4.2000000000000000e+03 8.0000000000000000e+00 1.0000000000000000e+01 2.5000000000000000e+00 
87 2 4 2.2559723595316457e+00 -8.7908967257312600e+00 4.2000000000000000e+03 8.0000000000000000e+00 1.2000000000000000e+01 2.5000000000000000e+00 
105 2 4 2.2559723595316457e+00 -1.2876334802527984e+02 4.2000000000000000e+03 1.0000000000000000e+01 8.0000000000000000e+00 2.5000000000000000e+00 
106 2 4 2.2559723595316457e+00 -2.8375214396297594e+02 4.2000000000000000e+03 1.0000000000000000e+01 1.0000000000000000e+01 2.5000000000000000e+00 
107 2 4 2.2559723595316457e+00 -4.0626811112201921e+02 4.2000000000000000e+03 1.0000000000000000e+01 1.2000000000000000e+01 2.5000000000000000e+00 
125 2 4 2.2559723595316457e+00 -8.1193185876091434e+02 4.2000000000000000e+03 1.2000000000000000e+01 8.0000000000000000e+00 2.5000000000000000e+00 
126 2 4 2.2559723595316457e+00 -1.5992101925208888e+03 4.2000000000000000e+03 1.2000000000000000e+01 1.0000000000000000e+01 2.5000000000000000e+00 
127 2 4 2.2559723595316457e+00 -2.2537657379422453e+03 4.2000000000000000e+03 1.2000000000000000e+01 1.2000000000000000e+01 2.5000000000000000e+00 
145 2 4 2.2559723595316457e+00 -2.3690374421087781e+03 4.2000000000000000e+03 1.4000000000000000e+01 8.0000000000000000e+00 2.5000000000000000e+00 
146 2 4 2.2559723595316457e+00 -4.4730521995309491e+03 4.2000000000000000e+03 1.4000000000000000e+01 1.0000000000000000e+01 2.5000000000000000e+00 
147 2 4 2.2559723595316457e+00 -6.2611423486951544e+03 4.2000000000000000e+03 1.4000000000000000e+01 1.2000000000000000e+01 2.5000000000000000e+00 
165 2 4 2.2559723595316457e+00 -4.4300264312964673e+03 4.2000000000000000e+03 1.6000000000000000e+01 8.0000000000000000e+00 2.5000000000000000e+00 
166 2 4 2.2559723595316457e+00 -8.2538824025948779e+03 4.2000000000000000e+03 1.6000000000000000e+01 1.0000000000000000e+01 2.5000000000000000e+00 
167 2 4 2.2559723595316457e+00 -1.1551050817720059e+04 4.2000000000000000e+03 1.6000000000000000e+01 1.2000000000000000e+01 2.5000000000000000e+00 
185 2 4 2.2559723595316457e+00 -5.9602172667236191e+03 4.2000000000000000e+03 1.8000000000000000e+01 8.0000000000000000e+00 2.5000000000000000e+00 
186 2 4 2.2559723595316457e+00 -1.1072713731572225e+04 4.2000000000000000e+03 1.8000000000000000e+01 1.0000000000000000e+01 2.5000000000000000e+00 
187 2 4 2.2559723595316457e+00 -1.5520861875962315e+04 4.2000000000000000e+03 1.8000000000000000e+01 1.2000000000000000e+01 2.5000000000000000e+00 
8 2 4 2.2559723595316457e+00 1.0000000000000000e+00 4.2000000000000000e+03 0.0000000000000000e+00 1.4000000000000000e+01 2.5000000000000000e+00 
9 2 4 2.2559723595316457e+00 1.0000000000000000e+00 4.2000000000000000e+03 0.0000000000000000e+00 1.6000000000000000e+01 2.5000000000000000e+00 
10 2 4 2.2559723595316457e+00 1.0000000000000000e+00 4.2000000000000000e+03 0.0000000000000000e+00 1.8000000000000000e+01 2.5000000000000000e+00 
28 2 4 2.2559723595316457e+00 1.0000000000000000e+00 4.2000000000000000e+03 2.0000000000000000e+00 1.4000000000000000e+01 2.5000000000000000e+00 
29 2 4 2.2559723595316457e+00 1.0000000000000000e+00 4.2000000000000000e+03 2.0000000000000000e+00 1.6000000000000000e+01 2.5000000000000000e+00 
30 2 4 2.2559723595316457e+00 1.0000000000000000e+00 4.2000000000000000e+03 2.0000000000000000e+00 1.8000000000000000e+01 2.5000000000000000e+00 
48 2 4 2.2559723595316457e+00 1.0000000000000000e+00 4.2000000000000000e+03 4.0000000000000000e+00 1.4000000000000000e+01 2.5000000000000000e+00 
49 2 4 2.2559723595316457e+00 1.0000000000000000e+00 4.2000000000000000e+03 4.0000000000000000e+00 1.6000000000000000e+01 2.5000000000000000e+00 
50 2 4 2.2559723595316457e+00 1.0000000000000000e+00 4.2000000000000000e+03 4.0000000000000000e+00 1.8000000000000000e+01 2.5000000000000000e+00 
68 2 4 2.2559723595316457e+00 1.0000000012924093e+00 4.2000000000000000e+03 6.0000000000000000e+00 1.4000000000000000e+01 2.5000000000000000e+00 
69 2 4 2.2559723595316457e+00 1.0000000000000000e+00 4.2000000000000000e+03 6.0000000000000000e+00 1.6000000000000000e+01 2.5000000000000000e+00 
70 2 4 2.2559723595316457e+00 1.0000000000000000e+00 4.2000000000000000e+03 6.0000000000000000e+00 1.8000000000000000e+01 2.5000000000000000e+00 
88 2 4 2.2559723595316457e+00 -9.3462908984633088e+00 4.2000000000000000e+03 8.0000000000000000e+00 1.4000000000000000e+01 2.5000000000000000e+00 
89 2 4 2.2559723595316457e+00 -9.4971301181908352e+00 4.2000000000000000e+03 8.0000000000000000e+00 1.6000000000000000e+01 2.5000000000000000e+00 
90 2 4 2.2559723595316457e+00 -9.5146872286235329e+00 4.2000000000000000e+03 8.0000000000000000e+00 1.8000000000000000e+01 2.5000000000000000e+00 
108 2 4 2.2559723595316457e+00 -4.5551128461667298e+02 4.2000000000000000e+03 1.0000000000000000e+01 1.4000000000000000e+01 2.5000000000000000e+00 
109 2 4 2.2559723595316457e+00 -4.6557875646975981e+02 4.2000000000000000e+03 1.0000000000000000e+01 1.6000000000000000e+01 2.5000000000000000e+00 
110 2 4 2.2559723595316457e+00 -4.6749609731059769e+02 4.2000000000000000e+03 1.0000000000000000e+01 1.8000000000000000e+01 2.5000000000000000e+00 
128 2 4 2.2559723595316457e+00 -2.5690138948367780e+03 4.2000000000000000e+03 1.2000000000000000e+01 1.4000000000000000e+01 2.5000000000000000e+00 
129 2 4 2.2559723595316457e+00 -2.6478751611433618e+03 4.2000000000000000e+03 1.2000000000000000e+01 1.6000000000000000e+01 2.5000000000000000e+00 
130 2 4 2.2559723595316457e+00 -2.6620934258013403e+03 4.2000000000000000e+03 1.2000000000000000e+01 1.8000000000000000e+01 2.5000000000000000e+00 
148 2 4 2.2559723595316457e+00 -7.1845592636444144e+03 4.2000000000000000e+03 1.4000000000000000e+01 1.4000000000000000e+01 2.5000000000000000e+00 
149 2 4 2.2559723595316457e+00 -7.4379978354356945e+03 4.2000000000000000e+03 1.4000000000000000e+01 1.6000000000000000e+01 2.5000000000000000e+00 
150 2 4 2.2559723595316457e+00 -7.4783831430863929e+03 4.2000000000000000e+03 1.4000000000000000e+01 1.8000000000000000e+01 2.5000000000000000e+00 
168 2 4 2.2559723595316457e+00 -1.3300051003225122e+04 4.2000000000000000e+03 1.6000000000000000e+01 1.4000000000000000e+01 2.5000000000000000e+00 
169 2 4 2.2559723595316457e+00 -1.3792590411556128e+04 4.2000000000000000e+03 1.6000000000000000e+01 1.6000000000000000e+01 2.5000000000000000e+00 
170 2 4 2.2559723595316457e+00 -1.3862969078608619e+04 4.2000000000000000e+03 1.6000000000000000e+01 1.8000000000000000e+01 2.5000000000000000e+00 
188 2 4 2.2559723595316457e+00 -1.7905859218583177e+04 4.2000000000000000e+03 1.8000000000000000e+01 1.4000000000000000e+01 2.5000000000000000e+00 
189 2 4 2.2559723595316457e+00 -1.8572415720366251e+04 4.2000000000000000e+03 1.8000000000000000e+01 1.6000000000000000e+01 2.5000000000000000e+00 
190 2 4 2.2559723595316457e+00 -1.8660964004060799e+04 4.2000000000000000e+03 1.8000000000000000e+01 1.8000000000000000e+01 2.5000000000000000e+00 
841 443 2 1.0280601336625053e+00 1.8515815837217033e+03 4.2000000000000000e+03 1.9375413074284452e+01 1.3182226876062598e+01 4.7789281737492509e+01 
844 446 2 1.0280605348433061e+00 1.8527834712625349e+03 4.2000000000000000e+03 1.9348136460658679e+01 1.3145672838274493e+01 4.7802789362215044e+01 
1558 1160 2 1.0280325507801245e+00 1.5286929807783416e+04 4.2000000000000000e+03 1.9079633096425678e+01 1.3000089194136105e+01 4.7859566886635456e+01 
1317 919 2 1.0280084642184792e+00 4.8329234342637437e+03 4.2000000000000000e+03 1.9648909990531280e+01 1.3152337291466726e+01 4.7869691267028230e+01 
1555 1157 2 1.0280415877150308e+00 8.7588237435840947e+03 4.2000000000000000e+03 1.9303604377783312e+01 1.2841932547806472e+01 4.7960979333411942e+01 
1554 1156 2 1.0280413435400606e+00 8.7574014152357286e+03 4.2000000000000000e+03 1.9385653838642227e+01 1.2791169960024050e+01 4.8004317843365612e+01 
945 547 2 1.0280425740628414e+00 2.4587717136196770e+03 4.2000000000000000e+03 1.9929861568605670e+01 1.2542975434096419e+01 4.8388408441630638e+01 
990 592 2 1.0280602973214343e+00 4.5299189292682904e+03 4.2000000000000000e+03 1.8777842077800980e+01 1.2139738461725496e+01 4.8491694195354270e+01 
1223 825 2 1.0280230527546246e+00 1.0115834738661541e+04 4.2000000000000000e+03 1.9529672496786240e+01 1.2143771116781343e+01 4.8527494161912983e+01 
505 107 2 1.0280185547591678e+00 -3.0979311050130386e+03 4.2000000000000000e+03 1.8461784904032321e+01 1.2252281037467077e+01 4.8503851099688589e+01 
1130 732 2 1.0280346928627542e+00 -5.5120059842532664e+03 4.2000000000000000e+03 1.9752555668910912e+01 1.2200587727854716e+01 4.8574515567377105e+01 
1375 977 2 1.0280399152325073e+00 8.2989215385350562e+03 4.2000000000000000e+03 1.8884937369595189e+01 1.1923386520493029e+01 4.8665789276440314e+01 
1374 976 2 1.0280248630302771e+00 8.3008212240756147e+03 4.2000000000000000e+03 1.9650926908130916e+01 1.2026421558811753e+01 4.8685472717897760e+01 
1131 733 2 1.0280356126570549e+00 -5.5137371833452307e+03 4.2000000000000000e+03 1.8913176529117191e+01 1.1859027785493348e+01 4.8722814084268883e+01 
1953 1555 2 1.0280593775032130e+00 -2.0614987585493941e+03 4.2000000000000000e+03 1.9301161948128573e+01 1.1776917000387057e+01 4.8814103196382241e+01 
1956 1558 2 1.0280598935179619e+00 -2.0615813500942768e+03 4.2000000000000000e+03 1.9318583321077234e+01 1.1773822197731587e+01 4.8820718617932123e+01 
1576 1178 2 1.0280556357075006e+00 -6.5326055125944094e+03 4.2000000000000000e+03 1.7657516437570962e+01 1.2615089010221908e+01 4.8832522272708303e+01 
1726 1328 2 1.0280600968025992e+00 6.8537232268387615e+03 4.2000000000000000e+03 1.7346103174502176e+01 1.3014693291175334e+01 4.8898944373962500e+01 
1080 682 2 1.0280099641478058e+00 -5.2230948766034408e+02 4.2000000000000000e+03 1.9107692051551364e+01 1.1117887530386012e+01 4.9503409103008970e+01 
1316 918 2 1.0280192312757022e+00 1.2106425920927240e+04 4.2000000000000000e+03 1.9212153277857091e+01 1.0986774131672647e+01 4.9666055329605939e+01 
1097 699 2 1.0280184457412282e+00 1.0216648728776210e+04 4.2000000000000000e+03 1.9143648119293786e+01 1.0837410876893157e+01 4.9823992083226685e+01 
1559 1161 2 1.0280104476337308e+00 1.5296445171609676e+04 4.2000000000000000e+03 1.9306032375616788e+01 1.0621553019328120e+01 5.0099002405251369e+01 
1100 702 2 1.0280292557649935e+00 1.0213787717339033e+04 4.2000000000000000e+03 1.9225483554500030e+01 1.0598088000175752e+01 5.0100764099450281e+01 
1457 1059 2 1.0280166682037584e+00 3.6768683345292147e+03 4.2000000000000000e+03 1.9634828272435126e+01 1.0727659990556518e+01 5.0165773838933276e+01 
1867 1469 2 1.0280141228646380e+00 -5.6278634323601027e+03 4.2000000000000000e+03 1.9289932670097794e+01 1.0518522001992583e+01 5.0202619665116778e+01 
1077 679 2 1.0280014450309842e+00 -5.2290720097357155e+02 4.2000000000000000e+03 1.9484571297505429e+01 1.0535981502618876e+01 5.0273679044221986e+01 
958 560 2 1.0280169653800273e+00 3.3680863435408760e+03 4.2000000000000000e+03 1.8949509868513736e+01 1.0212513664061682e+01 5.0451908352322938e+01 
1313 915 2 1.0279958355449050e+00 1.2111738697864390e+04 4.2000000000000000e+03 1.9077858796592473e+01 1.0185173743961373e+01 5.0478263016548333e+01 
1761 1363 2 1.0279920552541040e+00 -3.3411119804832383e+03 4.2000000000000000e+03 1.8951624848141222e+01 1.0082727701400465e+01 5.0563473307085168e+01 
1222 824 2 1.0280218764530216e+00 1.0118202289829615e+04 4.2000000000000000e+03 1.8971630622520514e+01 9.9519130622018004e+00 5.0669337892682528e+01 
1836 1438 2 1.0280121050561646e+00 2.4384207838915731e+03 4.2000000000000000e+03 1.9144492538508924e+01 9.8638565477520501e+00 5.0751597434616819e+01 
1764 1366 2 1.0280042975321875e+00 -3.3407481895037095e+03 4.2000000000000000e+03 1.9199812524777041e+01 9.8470353781682558e+00 5.0776149397004694e+01 
1613 1215 2 1.0280588971114468e+00 3.9952463026579499e+03 4.2000000000000000e+03 1.9559924826859813e+01 1.3322394626323554e+01 4.7764378511218659e+01 
1833 1435 2 1.0280147392050274e+00 2.4421294782162900e+03 4.2000000000000000e+03 1.9096259202140427e+01 9.7440665736932335e+00 5.0832298836746666e+01 
959 561 2 1.0280209780859708e+00 3.3701035096158826e+03 4.2000000000000000e+03 1.9278268635800934e+01 9.8025757181433999e+00 5.0832751559523523e+01 
757 359 2 1.0279852277884463e+00 -3.2600479648708570e+03 4.2000000000000000e+03 1.9036170324038391e+01 9.6300843037010750e+00 5.0905290842666290e+01 
760 362 2 1.0279876035129858e+00 -3.2604839464045567e+03 4.2000000000000000e+03 1.9096525562328630e+01 9.6258957819678486e+00 5.0914318854859495e+01 
1712 1314 2 1.0279775805278166e+00 -2.8170507308987367e+03 4.2000000000000000e+03 1.9270939896895037e+01 9.2893392989946157e+00 5.1169864384566381e+01 
1709 1311 2 1.0279882718378175e+00 -2.8160479236036263e+03 4.2000000000000000e+03 1.8845418609096523e+01 8.8231497759959847e+00 5.1391235129122826e+01 
995 597 2 1.0279705258216050e+00 8.3323917844893585e+03 4.2000000000000000e+03 1.9135466409826844e+01 8.4010864620189132e+00 5.1644939725034106e+01 
994 596 2 1.0279881254626557e+00 8.3331400525036715e+03 4.2000000000000000e+03 1.8917798884779199e+01 8.2593476695549146e+00 5.1708693247208373e+01 
1508 1110 2 1.0279808057281865e+00 3.5324368330552566e+03 4.2000000000000000e+03 1.8922726798834873e+01 8.0439773327222905e+00 5.1842234771455729e+01 
1025 627 2 1.0279648612599743e+00 4.9382459686865368e+03 4.2000000000000000e+03 1.8765683457091829e+01 8.0420799018948799e+00 5.1854079266606867e+01 
1028 630 2 1.0279629264137924e+00 4.9351249816472155e+03 4.2000000000000000e+03 1.9198181720582237e+01 7.9956713200033969e+00 5.1911367523659308e+01 
540 142 2 1.0279629738048535e+00 -5.4971290495160965e+03 4.2000000000000000e+03 1.8743270221873502e+01 7.8853438300030438e+00 5.1960941683977168e+01 
1505 1107 2 1.0279743063466891e+00 3.5328884659801142e+03 4.2000000000000000e+03 1.8990115084506588e+01 7.8553694968194590e+00 5.1971229571134053e+01 
537 139 2 1.0279751434562043e+00 -5.4972904376659008e+03 4.2000000000000000e+03 1.9166748829346751e+01 7.8802384954513203e+00 5.1982172464811093e+01 
1987 1589 2 1.0279582019971498e+00 -3.6069541126996914e+03 4.2000000000000000e+03 1.9110214909162728e+01 7.7706945830421326e+00 5.2047965416803486e+01 
1986 1588 2 1.0279749301177710e+00 -3.6092467609071464e+03 4.2000000000000000e+03 1.8798554034239316e+01 7.7203311344612100e+00 5.2071141427698137e+01 
433 35 2 1.0279630707738530e+00 5.1282291634497951e+03 4.2000000000000000e+03 1.9254808496446817e+01 7.6888044446288699e+00 5.2149443612008653e+01 
436 38 2 1.0279712836944241e+00 5.1281660915067669e+03 4.2000000000000000e+03 1.8618775603454736e+01 7.6543075446029292e+00 5.2155277919411610e+01 
407 9 2 1.0279920412267285e+00 -7.3255192570287254e+03 4.2000000000000000e+03 1.8826252058000026e+01 7.5152612858394585e+00 5.2230362417894561e+01 
1000 602 2 1.0279746104235454e+00 -6.7143309765382446e+02 4.2000000000000000e+03 1.8826386221023508e+01 7.3797172307717016e+00 5.2349020277189382e+01 
984 586 2 1.0279813433016365e+00 -9.1001510464953583e+02 4.2000000000000000e+03 1.9038367944635944e+01 7.3762532971988302e+00 5.2360696674109370e+01 
1669 1271 2 1.0279565912488371e+00 -4.3534240845858432e+02 4.2000000000000000e+03 1.9183293819621614e+01 7.4063614610987036e+00 5.2365400379973920e+01 
997 599 2 1.0279745057797052e+00 -6.7109263373166334e+02 4.2000000000000000e+03 1.9023503885462276e+01 7.3479211418961805e+00 5.2385148626209116e+01 
1885 1487 2 1.0279612342054418e+00 -1.9830769596962142e+02 4.2000000000000000e+03 1.9124209732751929e+01 7.3365251917626892e+00 5.2415311127396421e+01 
1960 1562 2 1.0279590671653918e+00 3.3340519157839785e+03 4.2000000000000000e+03 1.7389469725694102e+01 1.0274845200983778e+01 5.2389563242662618e+01 
981 583 2 1.0279848010349635e+00 -9.1003957058657716e+02 4.2000000000000000e+03 1.8773142763320440e+01 7.3007086245053445e+00 5.2429177819462325e+01 
543 145 2 1.0279873152161152e+00 3.4928506500907424e+03 4.2000000000000000e+03 1.9405163642648272e+01 7.4252023156824656e+00 5.2444303692384203e+01 
1672 1274 2 1.0279799894398525e+00 -4.3298694641712331e+02 4.2000000000000000e+03 1.8620663712175748e+01 7.2991604995602986e+00 5.2462289523884571e+01 
1835 1437 2 1.0279699242203804e+00 1.9156413613562404e+02 4.2000000000000000e+03 1.9004975557307638e+01 7.2275845100432932e+00 5.2502605504110562e+01 
406 8 2 1.0279812619835689e+00 -7.3274343849946217e+03 4.2000000000000000e+03 1.8936327246571345e+01 7.1878854574785160e+00 5.2538632856249173e+01 
1834 1436 2 1.0279975952731641e+00 1.9099295297333413e+02 4.2000000000000000e+03 1.8770024169487804e+01 7.1684639243021344e+00 5.2566196067867125e+01 
699 301 2 1.0279680571729335e+00 3.3410900587681562e+02 4.2000000000000000e+03 1.9040102475214116e+01 7.1620439834940930e+00 5.2578612963864344e+01 
698 300 2 1.0279731159368242e+00 3.3402102498327650e+02 4.2000000000000000e+03 1.8712297128439555e+01 7.1268304221131435e+00 5.2621752820111013e+01 
1888 1490 2 1.0279635637168294e+00 -1.9812521619013253e+02 4.2000000000000000e+03 1.8615234151424499e+01 7.1375981833996338e+00 5.2634073704168124e+01 
1393 995 2 1.0279706175229886e+00 5.7220892529262392e+03 4.2000000000000000e+03 1.9131640311636986e+01 7.0842281399839209e+00 5.2690815371809173e+01 
542 144 2 1.0280010139085265e+00 3.4942666400326725e+03 4.2000000000000000e+03 1.8288393290692447e+01 7.2141198585066402e+00 5.2714926896521646e+01 
1396 998 2 1.0279731721421612e+00 5.7230319084899356e+03 4.2000000000000000e+03 1.8662004434326434e+01 7.0006379694972383e+00 5.2787133945090297e+01 
1410 1012 2 1.0280020185648979e+00 1.0288252437287196e+04 4.2000000000000000e+03 1.8875984196906430e+01 6.8621913731577369e+00 5.2953996640844501e+01 
1411 1013 2 1.0279975138249766e+00 1.0288269864640952e+04 4.2000000000000000e+03 1.8741861734223761e+01 6.8400327579574327e+00 5.3001002535607981e+01 
1586 1188 2 1.0279706766809831e+00 -3.9910008293085884e+03 4.2000000000000000e+03 1.9020563481715897e+01 6.8128746436632230e+00 5.3048967314545038e+01 
1587 1189 2 1.0279621967135650e+00 -3.9888464871092183e+03 4.2000000000000000e+03 1.8653587272554951e+01 6.8017888011876462e+00 5.3086519128229710e+01 
1682 1284 2 1.0279491071840567e+00 2.5719319047187946e+03 4.2000000000000000e+03 1.9626069632474213e+01 7.0241726553825670e+00 5.3115974077365280e+01 
1541 1143 2 1.0279767389902406e+00 -2.1232113409828689e+03 4.2000000000000000e+03 1.8769711214195574e+01 6.6833166778696089e+00 5.3285039508996356e+01 
1544 1146 2 1.0279787781659511e+00 -2.1234111974470165e+03 4.2000000000000000e+03 1.8843391028890306e+01 6.6772919112008173e+00 5.3290406317388225e+01 
1013 615 2 1.0279597971629100e+00 8.9008348340176349e+02 4.2000000000000000e+03 1.3209617886825553e+01 1.6826133505947144e+01 5.2705582256012050e+01 
1696 1298 2 1.0279802734071120e+00 -5.4525932591178052e+03 4.2000000000000000e+03 1.3218474714624692e+01 1.7702616620235510e+01 5.2889827911970855e+01 
1475 1077 2 1.0279829674081093e+00 3.8124522164028790e+03 4.2000000000000000e+03 1.3090510480457134e+01 1.7491048873373956e+01 5.2952588080739609e+01 
971 573 2 1.0280000739980899e+00 3.8129760208835260e+03 4.2000000000000000e+03 1.3287419035029670e+01 1.8375050230556184e+01 5.3029238123813890e+01 
1122 724 2 1.0279748373237234e+00 1.0385841847699373e+03 4.2000000000000000e+03 1.3065975550830467e+01 1.4891870366807678e+01 5.3089638645032430e+01 
1807 1409 2 1.0279706722576889e+00 1.8431946677443984e+03 4.2000000000000000e+03 1.3184590528887920e+01 1.8255892497937609e+01 5.3103898486361999e+01 
456 58 2 1.0279467297568274e+00 -1.0454766270426893e+04 4.2000000000000000e+03 1.3253152612266261e+01 1.4562935130719961e+01 5.3161529142480383e+01 
1035 637 2 1.0279549390795863e+00 1.2485740472191419e+03 4.2000000000000000e+03 1.2767806726028812e+01 1.5315765244287295e+01 5.3171821692208532e+01 
1168 770 2 1.0279746116637787e+00 2.4086874826620538e+03 4.2000000000000000e+03 1.3087095184999242e+01 1.8476533288540402e+01 5.3329360782791184e+01 
1111 713 2 1.0280680689261943e+00 4.4271325245224170e+03 4.2000000000000000e+03 1.9173585299028424e+01 1.4648536118703580e+01 4.7414674269564351e+01 
910 512 2 1.0280550535333890e+00 -6.1233143117404443e+03 4.2000000000000000e+03 1.9298762932613009e+01 1.4998500989238231e+01 4.7425457661838102e+01 
1975 1577 2 1.0280698817626872e+00 1.9555140676810656e+03 4.2000000000000000e+03 1.9056991628557913e+01 1.4913707637960929e+01 4.7413789167981029e+01 
1811 1413 2 1.0280541745564353e+00 -2.7621289976002586e+03 4.2000000000000000e+03 1.9003640128414922e+01 1.5058167665109472e+01 4.7422622740290528e+01 
911 513 2 1.0280608086251726e+00 -6.1231868467419736e+03 4.2000000000000000e+03 1.9393244241592285e+01 1.4956392757898856e+01 4.7434708020190513e+01 
1183 785 2 1.0280454215185049e+00 -1.8935571661127815e+03 4.2000000000000000e+03 1.8887091632762225e+01 1.4967757865385890e+01 4.7426943545449653e+01 
1110 712 2 1.0280576680462816e+00 4.4274948431921975e+03 4.2000000000000000e+03 1.9507087400612235e+01 1.4672402993750049e+01 4.7452514200844028e+01 
1703 1305 2 1.0280845861400190e+00 6.0476270729473999e+03 4.2000000000000000e+03 1.9563029947216414e+01 1.5350674784875237e+01 4.7500897996309789e+01 
1232 834 2 1.0280558134070290e+00 6.7255036909205239e+02 4.2000000000000000e+03 1.8755146230338628e+01 1.5064013281412505e+01 4.7450763605424719e+01 
1810 1412 2 1.0280569147075067e+00 -2.7602690552068752e+03 4.2000000000000000e+03 1.9620049820544818e+01 1.5115894387980365e+01 4.7489714631402109e+01 
1702 1304 2 1.0280715696268812e+00 6.0432386509016997e+03 4.2000000000000000e+03 1.9114798248721833e+01 1.4094411307100987e+01 4.7473822639273557e+01 
2064 1666 2 1.0280689722027885e+00 2.4466108917698439e+03 4.2000000000000000e+03 1.8725031994526582e+01 1.4314902689526459e+01 4.7477057329101598e+01 
538 140 2 1.0280547154094737e+00 5.5132443149724586e+03 4.2000000000000000e+03 1.9415604557763405e+01 1.5862463877663187e+01 4.7568053131173706e+01 