LAMMPS data file via write_data, version 30 Jul 2016, timestep = 50400000

5620 atoms
8 atom types

0.0000000000000000e+00 1.0000000000000000e+02 xlo xhi
0.0000000000000000e+00 4.0000000000000000e+01 ylo yhi
0.0000000000000000e+00 4.0000000000000000e+01 zlo zhi

Masses

1 3.896
2 5.36
3 20.064
4 8.378
5 8.378
6 8.378
7 8.378
8 8.378

Atoms # meso-molecular

1 2 4 2.2559723595316457e+00 -2.3789454843404214e+00 1.0000000000000000e+00 0.0000000000000000e+00 0.0000000000000000e+00 1.0000000000000000e+00 
21 2 4 2.2559723595316457e+00 5.9482604154288432e-01 1.0000000000000000e+00 2.0000000000000000e+00 0.0000000000000000e+00 1.0000000000000000e+00 
41 2 4 2.2559723595316457e+00 -3.8244277996371401e-01 1.0000000000000000e+00 4.0000000000000000e+00 0.0000000000000000e+00 1.0000000000000000e+00 
61 2 4 2.2559723595316457e+00 6.5702684832942854e-03 1.0000000000000000e+00 6.0000000000000000e+00 0.0000000000000000e+00 1.0000000000000000e+00 
81 2 4 2.2559723595316457e+00 2.1972904726307076e+00 1.0000000000000000e+00 8.0000000000000000e+00 0.0000000000000000e+00 1.0000000000000000e+00 
101 2 4 2.2559723595316457e+00 7.2350683136894536e-02 1.0000000000000000e+00 1.0000000000000000e+01 0.0000000000000000e+00 1.0000000000000000e+00 
121 2 4 2.2559723595316457e+00 -1.1302775126663127e-06 1.0000000000000000e+00 1.2000000000000000e+01 0.0000000000000000e+00 1.0000000000000000e+00 
141 2 4 2.2559723595316457e+00 7.7777945456621489e-04 1.0000000000000000e+00 1.4000000000000000e+01 0.0000000000000000e+00 1.0000000000000000e+00 
161 2 4 2.2559723595316457e+00 -5.1300787502255218e+00 1.0000000000000000e+00 1.6000000000000000e+01 0.0000000000000000e+00 1.0000000000000000e+00 
181 2 4 2.2559723595316457e+00 -5.6459287210158891e-03 1.0000000000000000e+00 1.8000000000000000e+01 0.0000000000000000e+00 1.0000000000000000e+00 
201 2 4 2.2559723595316457e+00 -2.2517608578055470e-02 1.0000000000000000e+00 2.0000000000000000e+01 0.0000000000000000e+00 1.0000000000000000e+00 
221 2 4 2.2559723595316457e+00 5.3726711245041270e-01 1.0000000000000000e+00 2.2000000000000000e+01 0.0000000000000000e+00 1.0000000000000000e+00 
241 2 4 2.2559723595316457e+00 -1.5110905720490224e+00 1.0000000000000000e+00 2.4000000000000000e+01 0.0000000000000000e+00 1.0000000000000000e+00 
261 2 4 2.2559723595316457e+00 9.4966281048269241e-01 1.0000000000000000e+00 2.6000000000000000e+01 0.0000000000000000e+00 1.0000000000000000e+00 
281 2 4 2.2559723595316457e+00 -3.8089694925000734e+00 1.0000000000000000e+00 2.8000000000000000e+01 0.0000000000000000e+00 1.0000000000000000e+00 
301 2 4 2.2559723595316457e+00 -2.6669193293257676e-01 1.0000000000000000e+00 3.0000000000000000e+01 0.0000000000000000e+00 1.0000000000000000e+00 
321 2 4 2.2559723595316457e+00 -8.6798664943396153e-01 1.0000000000000000e+00 3.2000000000000000e+01 0.0000000000000000e+00 1.0000000000000000e+00 
2 2 4 2.2559723595316457e+00 -8.9949945439012221e-04 1.0000000000000000e+00 0.0000000000000000e+00 2.0000000000000000e+00 1.0000000000000000e+00 
22 2 4 2.2559723595316457e+00 -2.9990402961297492e-02 1.0000000000000000e+00 2.0000000000000000e+00 2.0000000000000000e+00 1.0000000000000000e+00 
42 2 4 2.2559723595316457e+00 -3.5446057706223981e-05 1.0000000000000000e+00 4.0000000000000000e+00 2.0000000000000000e+00 1.0000000000000000e+00 
62 2 4 2.2559723595316457e+00 -6.4609174344710751e-02 1.0000000000000000e+00 6.0000000000000000e+00 2.0000000000000000e+00 1.0000000000000000e+00 
82 2 4 2.2559723595316457e+00 -2.8077533375133041e-02 1.0000000000000000e+00 8.0000000000000000e+00 2.0000000000000000e+00 1.0000000000000000e+00 
102 2 4 2.2559723595316457e+00 2.0501529900688535e-04 1.0000000000000000e+00 1.0000000000000000e+01 2.0000000000000000e+00 1.0000000000000000e+00 
122 2 4 2.2559723595316457e+00 -7.3198015239330514e-04 1.0000000000000000e+00 1.2000000000000000e+01 2.0000000000000000e+00 1.0000000000000000e+00 
142 2 4 2.2559723595316457e+00 -1.4466397811629933e-01 1.0000000000000000e+00 1.4000000000000000e+01 2.0000000000000000e+00 1.0000000000000000e+00 
162 2 4 2.2559723595316457e+00 -2.3876925652309305e-04 1.0000000000000000e+00 1.6000000000000000e+01 2.0000000000000000e+00 1.0000000000000000e+00 
182 2 4 2.2559723595316457e+00 -1.5907938931542462e+00 1.0000000000000000e+00 1.8000000000000000e+01 2.0000000000000000e+00 1.0000000000000000e+00 
202 2 4 2.2559723595316457e+00 -7.2883710525139982e+00 1.0000000000000000e+00 2.0000000000000000e+01 2.0000000000000000e+00 1.0000000000000000e+00 
222 2 4 2.2559723595316457e+00 1.1099852228611597e+00 1.0000000000000000e+00 2.2000000000000000e+01 2.0000000000000000e+00 1.0000000000000000e+00 
242 2 4 2.2559723595316457e+00 -3.5072867064413919e-02 1.0000000000000000e+00 2.4000000000000000e+01 2.0000000000000000e+00 1.0000000000000000e+00 
262 2 4 2.2559723595316457e+00 1.2483877556033125e-01 1.0000000000000000e+00 2.6000000000000000e+01 2.0000000000000000e+00 1.0000000000000000e+00 
282 2 4 2.2559723595316457e+00 3.7218991186712769e-01 1.0000000000000000e+00 2.8000000000000000e+01 2.0000000000000000e+00 1.0000000000000000e+00 
302 2 4 2.2559723595316457e+00 -2.1856486535478298e-01 1.0000000000000000e+00 3.0000000000000000e+01 2.0000000000000000e+00 1.0000000000000000e+00 
322 2 4 2.2559723595316457e+00 -1.7509483342587884e+00 1.0000000000000000e+00 3.2000000000000000e+01 2.0000000000000000e+00 1.0000000000000000e+00 
3 2 4 2.2559723595316457e+00 1.5744015677764591e-03 1.0000000000000000e+00 0.0000000000000000e+00 4.0000000000000000e+00 1.0000000000000000e+00 
23 2 4 2.2559723595316457e+00 -5.7216971253384201e-02 1.0000000000000000e+00 2.0000000000000000e+00 4.0000000000000000e+00 1.0000000000000000e+00 
43 2 4 2.2559723595316457e+00 -2.5564422481060972e-02 1.0000000000000000e+00 4.0000000000000000e+00 4.0000000000000000e+00 1.0000000000000000e+00 
63 2 4 2.2559723595316457e+00 6.9313249159216828e-02 1.0000000000000000e+00 6.0000000000000000e+00 4.0000000000000000e+00 1.0000000000000000e+00 
83 2 4 2.2559723595316457e+00 -8.4865139745015031e-03 1.0000000000000000e+00 8.0000000000000000e+00 4.0000000000000000e+00 1.0000000000000000e+00 
103 2 4 2.2559723595316457e+00 -1.0053485849496389e-03 1.0000000000000000e+00 1.0000000000000000e+01 4.0000000000000000e+00 1.0000000000000000e+00 
123 2 4 2.2559723595316457e+00 1.0839826629369605e-02 1.0000000000000000e+00 1.2000000000000000e+01 4.0000000000000000e+00 1.0000000000000000e+00 
143 2 4 2.2559723595316457e+00 2.9934235990419094e-04 1.0000000000000000e+00 1.4000000000000000e+01 4.0000000000000000e+00 1.0000000000000000e+00 
163 2 4 2.2559723595316457e+00 -3.1014727634758650e+00 1.0000000000000000e+00 1.6000000000000000e+01 4.0000000000000000e+00 1.0000000000000000e+00 
183 2 4 2.2559723595316457e+00 3.9196318050263410e+00 1.0000000000000000e+00 1.8000000000000000e+01 4.0000000000000000e+00 1.0000000000000000e+00 
203 2 4 2.2559723595316457e+00 -4.6294388753811599e-01 1.0000000000000000e+00 2.0000000000000000e+01 4.0000000000000000e+00 1.0000000000000000e+00 
223 2 4 2.2559723595316457e+00 -1.2584667652923241e-03 1.0000000000000000e+00 2.2000000000000000e+01 4.0000000000000000e+00 1.0000000000000000e+00 
243 2 4 2.2559723595316457e+00 -3.7807940754108277e-01 1.0000000000000000e+00 2.4000000000000000e+01 4.0000000000000000e+00 1.0000000000000000e+00 
263 2 4 2.2559723595316457e+00 -1.5965651056309207e+00 1.0000000000000000e+00 2.6000000000000000e+01 4.0000000000000000e+00 1.0000000000000000e+00 
283 2 4 2.2559723595316457e+00 -3.0918621100558683e+00 1.0000000000000000e+00 2.8000000000000000e+01 4.0000000000000000e+00 1.0000000000000000e+00 
303 2 4 2.2559723595316457e+00 -1.9077546410599553e+00 1.0000000000000000e+00 3.0000000000000000e+01 4.0000000000000000e+00 1.0000000000000000e+00 
323 2 4 2.2559723595316457e+00 -1.7204452556577494e+00 1.0000000000000000e+00 3.2000000000000000e+01 4.0000000000000000e+00 1.0000000000000000e+00 
4 2 4 2.2559723595316457e+00 -1.3026357167086276e-04 1.0000000000000000e+00 0.0000000000000000e+00 6.0000000000000000e+00 1.0000000000000000e+00 
24 2 4 2.2559723595316457e+00 -1.5938034987896435e-02 1.0000000000000000e+00 2.0000000000000000e+00 6.0000000000000000e+00 1.0000000000000000e+00 
44 2 4 2.2559723595316457e+00 -2.6791623268202728e-03 1.0000000000000000e+00 4.0000000000000000e+00 6.0000000000000000e+00 1.0000000000000000e+00 
64 2 4 2.2559723595316457e+00 4.3540068307018718e+00 1.0000000000000000e+00 6.0000000000000000e+00 6.0000000000000000e+00 1.0000000000000000e+00 
84 2 4 2.2559723595316457e+00 -2.8592135969541255e-01 1.0000000000000000e+00 8.0000000000000000e+00 6.0000000000000000e+00 1.0000000000000000e+00 
104 2 4 2.2559723595316457e+00 4.9233029490100902e-03 1.0000000000000000e+00 1.0000000000000000e+01 6.0000000000000000e+00 1.0000000000000000e+00 
124 2 4 2.2559723595316457e+00 -7.2761194360895700e-04 1.0000000000000000e+00 1.2000000000000000e+01 6.0000000000000000e+00 1.0000000000000000e+00 
144 2 4 2.2559723595316457e+00 -1.1363633050195622e-02 1.0000000000000000e+00 1.4000000000000000e+01 6.0000000000000000e+00 1.0000000000000000e+00 
164 2 4 2.2559723595316457e+00 7.7834928616737506e-02 1.0000000000000000e+00 1.6000000000000000e+01 6.0000000000000000e+00 1.0000000000000000e+00 
184 2 4 2.2559723595316457e+00 8.7905968923242139e-01 1.0000000000000000e+00 1.8000000000000000e+01 6.0000000000000000e+00 1.0000000000000000e+00 
204 2 4 2.2559723595316457e+00 -1.4731368488609584e-01 1.0000000000000000e+00 2.0000000000000000e+01 6.0000000000000000e+00 1.0000000000000000e+00 
224 2 4 2.2559723595316457e+00 0.0000000000000000e+00 1.0000000000000000e+00 2.2000000000000000e+01 6.0000000000000000e+00 1.0000000000000000e+00 
244 2 4 2.2559723595316457e+00 2.2189677773661482e-05 1.0000000000000000e+00 2.4000000000000000e+01 6.0000000000000000e+00 1.0000000000000000e+00 
264 2 4 2.2559723595316457e+00 3.5529450328293986e+00 1.0000000000000000e+00 2.6000000000000000e+01 6.0000000000000000e+00 1.0000000000000000e+00 
284 2 4 2.2559723595316457e+00 -3.6835388627839878e+00 1.0000000000000000e+00 2.8000000000000000e+01 6.0000000000000000e+00 1.0000000000000000e+00 
304 2 4 2.2559723595316457e+00 2.4554543027932224e-01 1.0000000000000000e+00 3.0000000000000000e+01 6.0000000000000000e+00 1.0000000000000000e+00 
324 2 4 2.2559723595316457e+00 3.6747410864404007e-01 1.0000000000000000e+00 3.2000000000000000e+01 6.0000000000000000e+00 1.0000000000000000e+00 
5 2 4 2.2559723595316457e+00 -1.6349425450210795e+00 1.0000000000000000e+00 0.0000000000000000e+00 8.0000000000000000e+00 1.0000000000000000e+00 
25 2 4 2.2559723595316457e+00 -2.7605045115920983e-02 1.0000000000000000e+00 2.0000000000000000e+00 8.0000000000000000e+00 1.0000000000000000e+00 
45 2 4 2.2559723595316457e+00 2.7163167869677831e-08 1.0000000000000000e+00 4.0000000000000000e+00 8.0000000000000000e+00 1.0000000000000000e+00 
65 2 4 2.2559723595316457e+00 1.2136002514064783e-05 1.0000000000000000e+00 6.0000000000000000e+00 8.0000000000000000e+00 1.0000000000000000e+00 
85 2 4 2.2559723595316457e+00 2.8093117138846913e-09 1.0000000000000000e+00 8.0000000000000000e+00 8.0000000000000000e+00 1.0000000000000000e+00 
105 2 4 2.2559723595316457e+00 2.0108406461719308e-04 1.0000000000000000e+00 1.0000000000000000e+01 8.0000000000000000e+00 1.0000000000000000e+00 
125 2 4 2.2559723595316457e+00 1.4998517076335285e+00 1.0000000000000000e+00 1.2000000000000000e+01 8.0000000000000000e+00 1.0000000000000000e+00 
145 2 4 2.2559723595316457e+00 2.4284736366852303e-02 1.0000000000000000e+00 1.4000000000000000e+01 8.0000000000000000e+00 1.0000000000000000e+00 
165 2 4 2.2559723595316457e+00 -1.7211704558743413e-01 1.0000000000000000e+00 1.6000000000000000e+01 8.0000000000000000e+00 1.0000000000000000e+00 
185 2 4 2.2559723595316457e+00 4.0295660187574867e-01 1.0000000000000000e+00 1.8000000000000000e+01 8.0000000000000000e+00 1.0000000000000000e+00 
205 2 4 2.2559723595316457e+00 -5.3032922182588482e-01 1.0000000000000000e+00 2.0000000000000000e+01 8.0000000000000000e+00 1.0000000000000000e+00 
225 2 4 2.2559723595316457e+00 -8.3896314848560227e-01 1.0000000000000000e+00 2.2000000000000000e+01 8.0000000000000000e+00 1.0000000000000000e+00 
245 2 4 2.2559723595316457e+00 5.9522928576222461e-02 1.0000000000000000e+00 2.4000000000000000e+01 8.0000000000000000e+00 1.0000000000000000e+00 
265 2 4 2.2559723595316457e+00 -4.9181495313249979e+00 1.0000000000000000e+00 2.6000000000000000e+01 8.0000000000000000e+00 1.0000000000000000e+00 
285 2 4 2.2559723595316457e+00 -1.0801206011854173e-01 1.0000000000000000e+00 2.8000000000000000e+01 8.0000000000000000e+00 1.0000000000000000e+00 
305 2 4 2.2559723595316457e+00 3.4158855347735551e-01 1.0000000000000000e+00 3.0000000000000000e+01 8.0000000000000000e+00 1.0000000000000000e+00 
325 2 4 2.2559723595316457e+00 -6.9242910045222011e-02 1.0000000000000000e+00 3.2000000000000000e+01 8.0000000000000000e+00 1.0000000000000000e+00 
6 2 4 2.2559723595316457e+00 -1.4318658633768249e+00 1.0000000000000000e+00 0.0000000000000000e+00 1.0000000000000000e+01 1.0000000000000000e+00 
26 2 4 2.2559723595316457e+00 -1.4457303739651378e-03 1.0000000000000000e+00 2.0000000000000000e+00 1.0000000000000000e+01 1.0000000000000000e+00 
46 2 4 2.2559723595316457e+00 -2.2574567668444723e-01 1.0000000000000000e+00 4.0000000000000000e+00 1.0000000000000000e+01 1.0000000000000000e+00 
66 2 4 2.2559723595316457e+00 -8.9116054717216230e+02 1.0000000000000000e+00 6.0000000000000000e+00 1.0000000000000000e+01 1.0000000000000000e+00 
86 2 4 2.2559723595316457e+00 -1.7858530313874858e+03 1.0000000000000000e+00 8.0000000000000000e+00 1.0000000000000000e+01 1.0000000000000000e+00 
106 2 4 2.2559723595316457e+00 -1.7871102623466909e+03 1.0000000000000000e+00 1.0000000000000000e+01 1.0000000000000000e+01 1.0000000000000000e+00 
126 2 4 2.2559723595316457e+00 -1.7870585144864758e+03 1.0000000000000000e+00 1.2000000000000000e+01 1.0000000000000000e+01 1.0000000000000000e+00 
146 2 4 2.2559723595316457e+00 -1.7869937798933329e+03 1.0000000000000000e+00 1.4000000000000000e+01 1.0000000000000000e+01 1.0000000000000000e+00 
166 2 4 2.2559723595316457e+00 -1.7871382685934182e+03 1.0000000000000000e+00 1.6000000000000000e+01 1.0000000000000000e+01 1.0000000000000000e+00 
186 2 4 2.2559723595316457e+00 -1.7870651457561455e+03 1.0000000000000000e+00 1.8000000000000000e+01 1.0000000000000000e+01 1.0000000000000000e+00 
206 2 4 2.2559723595316457e+00 -1.7874323730070123e+03 1.0000000000000000e+00 2.0000000000000000e+01 1.0000000000000000e+01 1.0000000000000000e+00 
226 2 4 2.2559723595316457e+00 -1.7870715007275278e+03 1.0000000000000000e+00 2.2000000000000000e+01 1.0000000000000000e+01 1.0000000000000000e+00 
246 2 4 2.2559723595316457e+00 -1.7864416572296523e+03 1.0000000000000000e+00 2.4000000000000000e+01 1.0000000000000000e+01 1.0000000000000000e+00 
266 2 4 2.2559723595316457e+00 -1.7871791338686417e+03 1.0000000000000000e+00 2.6000000000000000e+01 1.0000000000000000e+01 1.0000000000000000e+00 
286 2 4 2.2559723595316457e+00 -1.7854778097766387e+03 1.0000000000000000e+00 2.8000000000000000e+01 1.0000000000000000e+01 1.0000000000000000e+00 
306 2 4 2.2559723595316457e+00 -1.7846254612545390e+03 1.0000000000000000e+00 3.0000000000000000e+01 1.0000000000000000e+01 1.0000000000000000e+00 
326 2 4 2.2559723595316457e+00 -1.7884744151661416e+03 1.0000000000000000e+00 3.2000000000000000e+01 1.0000000000000000e+01 1.0000000000000000e+00 
7 2 4 2.2559723595316457e+00 -1.1294365372741896e-05 1.0000000000000000e+00 0.0000000000000000e+00 1.2000000000000000e+01 1.0000000000000000e+00 
27 2 4 2.2559723595316457e+00 -2.2049861838070801e-02 1.0000000000000000e+00 2.0000000000000000e+00 1.2000000000000000e+01 1.0000000000000000e+00 
47 2 4 2.2559723595316457e+00 -6.3285477434093346e-04 1.0000000000000000e+00 4.0000000000000000e+00 1.2000000000000000e+01 1.0000000000000000e+00 
67 2 4 2.2559723595316457e+00 -8.9250291747864594e+02 1.0000000000000000e+00 6.0000000000000000e+00 1.2000000000000000e+01 1.0000000000000000e+00 
87 2 4 2.2559723595316457e+00 -1.7886253890407170e+03 1.0000000000000000e+00 8.0000000000000000e+00 1.2000000000000000e+01 1.0000000000000000e+00 
107 2 4 2.2559723595316457e+00 -1.7895471959716465e+03 1.0000000000000000e+00 1.0000000000000000e+01 1.2000000000000000e+01 1.0000000000000000e+00 
127 2 4 2.2559723595316457e+00 -1.7897177988393341e+03 1.0000000000000000e+00 1.2000000000000000e+01 1.2000000000000000e+01 1.0000000000000000e+00 
147 2 4 2.2559723595316457e+00 -1.7897936535251827e+03 1.0000000000000000e+00 1.4000000000000000e+01 1.2000000000000000e+01 1.0000000000000000e+00 
167 2 4 2.2559723595316457e+00 -1.7905418340115866e+03 1.0000000000000000e+00 1.6000000000000000e+01 1.2000000000000000e+01 1.0000000000000000e+00 
187 2 4 2.2559723595316457e+00 -1.7897678592425309e+03 1.0000000000000000e+00 1.8000000000000000e+01 1.2000000000000000e+01 1.0000000000000000e+00 
207 2 4 2.2559723595316457e+00 -1.7897423624240027e+03 1.0000000000000000e+00 2.0000000000000000e+01 1.2000000000000000e+01 1.0000000000000000e+00 
227 2 4 2.2559723595316457e+00 -1.7897119917699506e+03 1.0000000000000000e+00 2.2000000000000000e+01 1.2000000000000000e+01 1.0000000000000000e+00 
247 2 4 2.2559723595316457e+00 -1.7895607962825652e+03 1.0000000000000000e+00 2.4000000000000000e+01 1.2000000000000000e+01 1.0000000000000000e+00 
267 2 4 2.2559723595316457e+00 -1.7897984184537090e+03 1.0000000000000000e+00 2.6000000000000000e+01 1.2000000000000000e+01 1.0000000000000000e+00 
287 2 4 2.2559723595316457e+00 -1.7913271901427247e+03 1.0000000000000000e+00 2.8000000000000000e+01 1.2000000000000000e+01 1.0000000000000000e+00 
307 2 4 2.2559723595316457e+00 -1.7883366769944441e+03 1.0000000000000000e+00 3.0000000000000000e+01 1.2000000000000000e+01 1.0000000000000000e+00 
327 2 4 2.2559723595316457e+00 -1.7893942410176528e+03 1.0000000000000000e+00 3.2000000000000000e+01 1.2000000000000000e+01 1.0000000000000000e+00 
8 2 4 2.2559723595316457e+00 1.2886238449577958e-03 1.0000000000000000e+00 0.0000000000000000e+00 1.4000000000000000e+01 1.0000000000000000e+00 
28 2 4 2.2559723595316457e+00 1.7871886518330168e-04 1.0000000000000000e+00 2.0000000000000000e+00 1.4000000000000000e+01 1.0000000000000000e+00 
48 2 4 2.2559723595316457e+00 4.8600672246377522e-07 1.0000000000000000e+00 4.0000000000000000e+00 1.4000000000000000e+01 1.0000000000000000e+00 
68 2 4 2.2559723595316457e+00 -8.9245144666797466e+02 1.0000000000000000e+00 6.0000000000000000e+00 1.4000000000000000e+01 1.0000000000000000e+00 
88 2 4 2.2559723595316457e+00 -1.7884084508264382e+03 1.0000000000000000e+00 8.0000000000000000e+00 1.4000000000000000e+01 1.0000000000000000e+00 
108 2 4 2.2559723595316457e+00 -1.7897660372726166e+03 1.0000000000000000e+00 1.0000000000000000e+01 1.4000000000000000e+01 1.0000000000000000e+00 
128 2 4 2.2559723595316457e+00 -1.7916301872695494e+03 1.0000000000000000e+00 1.2000000000000000e+01 1.4000000000000000e+01 1.0000000000000000e+00 
148 2 4 2.2559723595316457e+00 -1.7896637053337686e+03 1.0000000000000000e+00 1.4000000000000000e+01 1.4000000000000000e+01 1.0000000000000000e+00 
168 2 4 2.2559723595316457e+00 -1.7881799206807693e+03 1.0000000000000000e+00 1.6000000000000000e+01 1.4000000000000000e+01 1.0000000000000000e+00 
188 2 4 2.2559723595316457e+00 -1.7909005339195867e+03 1.0000000000000000e+00 1.8000000000000000e+01 1.4000000000000000e+01 1.0000000000000000e+00 
208 2 4 2.2559723595316457e+00 -1.7896594090860335e+03 1.0000000000000000e+00 2.0000000000000000e+01 1.4000000000000000e+01 1.0000000000000000e+00 
228 2 4 2.2559723595316457e+00 -1.7900430591129661e+03 1.0000000000000000e+00 2.2000000000000000e+01 1.4000000000000000e+01 1.0000000000000000e+00 
248 2 4 2.2559723595316457e+00 -1.7896117997752699e+03 1.0000000000000000e+00 2.4000000000000000e+01 1.4000000000000000e+01 1.0000000000000000e+00 
268 2 4 2.2559723595316457e+00 -1.7901698273956936e+03 1.0000000000000000e+00 2.6000000000000000e+01 1.4000000000000000e+01 1.0000000000000000e+00 
288 2 4 2.2559723595316457e+00 -1.7919804487196895e+03 1.0000000000000000e+00 2.8000000000000000e+01 1.4000000000000000e+01 1.0000000000000000e+00 
308 2 4 2.2559723595316457e+00 -1.7897105675845678e+03 1.0000000000000000e+00 3.0000000000000000e+01 1.4000000000000000e+01 1.0000000000000000e+00 
328 2 4 2.2559723595316457e+00 -1.7904744639008422e+03 1.0000000000000000e+00 3.2000000000000000e+01 1.4000000000000000e+01 1.0000000000000000e+00 
9 2 4 2.2559723595316457e+00 -1.0276874577394415e-01 1.0000000000000000e+00 0.0000000000000000e+00 1.6000000000000000e+01 1.0000000000000000e+00 
29 2 4 2.2559723595316457e+00 4.6557436682567715e-03 1.0000000000000000e+00 2.0000000000000000e+00 1.6000000000000000e+01 1.0000000000000000e+00 
49 2 4 2.2559723595316457e+00 -5.9340811243195146e-01 1.0000000000000000e+00 4.0000000000000000e+00 1.6000000000000000e+01 1.0000000000000000e+00 
69 2 4 2.2559723595316457e+00 -8.9245295740967254e+02 1.0000000000000000e+00 6.0000000000000000e+00 1.6000000000000000e+01 1.0000000000000000e+00 
89 2 4 2.2559723595316457e+00 -1.7884113225651099e+03 1.0000000000000000e+00 8.0000000000000000e+00 1.6000000000000000e+01 1.0000000000000000e+00 
109 2 4 2.2559723595316457e+00 -1.7896507551816044e+03 1.0000000000000000e+00 1.0000000000000000e+01 1.6000000000000000e+01 1.0000000000000000e+00 
129 2 4 2.2559723595316457e+00 -1.7882704747646062e+03 1.0000000000000000e+00 1.2000000000000000e+01 1.6000000000000000e+01 1.0000000000000000e+00 
149 2 4 2.2559723595316457e+00 -1.7866024426915460e+03 1.0000000000000000e+00 1.4000000000000000e+01 1.6000000000000000e+01 1.0000000000000000e+00 
169 2 4 2.2559723595316457e+00 -1.7907748364200979e+03 1.0000000000000000e+00 1.6000000000000000e+01 1.6000000000000000e+01 1.0000000000000000e+00 
189 2 4 2.2559723595316457e+00 -1.7917893957097413e+03 1.0000000000000000e+00 1.8000000000000000e+01 1.6000000000000000e+01 1.0000000000000000e+00 
209 2 4 2.2559723595316457e+00 -1.7679909496685714e+03 1.0000000000000000e+00 2.0000000000000000e+01 1.6000000000000000e+01 1.0000000000000000e+00 
229 2 4 2.2559723595316457e+00 -1.8077045222321406e+03 1.0000000000000000e+00 2.2000000000000000e+01 1.6000000000000000e+01 1.0000000000000000e+00 
249 2 4 2.2559723595316457e+00 -1.7757816849120807e+03 1.0000000000000000e+00 2.4000000000000000e+01 1.6000000000000000e+01 1.0000000000000000e+00 
269 2 4 2.2559723595316457e+00 -1.7791853119688449e+03 1.0000000000000000e+00 2.6000000000000000e+01 1.6000000000000000e+01 1.0000000000000000e+00 
289 2 4 2.2559723595316457e+00 -1.7906806271099235e+03 1.0000000000000000e+00 2.8000000000000000e+01 1.6000000000000000e+01 1.0000000000000000e+00 
309 2 4 2.2559723595316457e+00 -1.7902633498456935e+03 1.0000000000000000e+00 3.0000000000000000e+01 1.6000000000000000e+01 1.0000000000000000e+00 
329 2 4 2.2559723595316457e+00 -1.7924981797999631e+03 1.0000000000000000e+00 3.2000000000000000e+01 1.6000000000000000e+01 1.0000000000000000e+00 
10 2 4 2.2559723595316457e+00 1.5500822187028679e-01 1.0000000000000000e+00 0.0000000000000000e+00 1.8000000000000000e+01 1.0000000000000000e+00 
30 2 4 2.2559723595316457e+00 -1.0145749604659858e-01 1.0000000000000000e+00 2.0000000000000000e+00 1.8000000000000000e+01 1.0000000000000000e+00 
50 2 4 2.2559723595316457e+00 -3.3941859994639128e+00 1.0000000000000000e+00 4.0000000000000000e+00 1.8000000000000000e+01 1.0000000000000000e+00 
70 2 4 2.2559723595316457e+00 -8.9245586263679911e+02 1.0000000000000000e+00 6.0000000000000000e+00 1.8000000000000000e+01 1.0000000000000000e+00 
90 2 4 2.2559723595316457e+00 -1.7885530935285585e+03 1.0000000000000000e+00 8.0000000000000000e+00 1.8000000000000000e+01 1.0000000000000000e+00 
110 2 4 2.2559723595316457e+00 -1.7895314356482290e+03 1.0000000000000000e+00 1.0000000000000000e+01 1.8000000000000000e+01 1.0000000000000000e+00 
130 2 4 2.2559723595316457e+00 -1.7916261334588776e+03 1.0000000000000000e+00 1.2000000000000000e+01 1.8000000000000000e+01 1.0000000000000000e+00 
150 2 4 2.2559723595316457e+00 -1.7906491229786620e+03 1.0000000000000000e+00 1.4000000000000000e+01 1.8000000000000000e+01 1.0000000000000000e+00 
170 2 4 2.2559723595316457e+00 -1.7884370048659989e+03 1.0000000000000000e+00 1.6000000000000000e+01 1.8000000000000000e+01 1.0000000000000000e+00 
190 2 4 2.2559723595316457e+00 -1.7964254994333769e+03 1.0000000000000000e+00 1.8000000000000000e+01 1.8000000000000000e+01 1.0000000000000000e+00 
210 2 4 2.2559723595316457e+00 -1.7864626182719578e+03 1.0000000000000000e+00 2.0000000000000000e+01 1.8000000000000000e+01 1.0000000000000000e+00 
230 2 4 2.2559723595316457e+00 -1.7919909747827251e+03 1.0000000000000000e+00 2.2000000000000000e+01 1.8000000000000000e+01 1.0000000000000000e+00 
250 2 4 2.2559723595316457e+00 -1.7883742883765458e+03 1.0000000000000000e+00 2.4000000000000000e+01 1.8000000000000000e+01 1.0000000000000000e+00 
270 2 4 2.2559723595316457e+00 -1.7975022053884491e+03 1.0000000000000000e+00 2.6000000000000000e+01 1.8000000000000000e+01 1.0000000000000000e+00 
290 2 4 2.2559723595316457e+00 -1.7890307666227420e+03 1.0000000000000000e+00 2.8000000000000000e+01 1.8000000000000000e+01 1.0000000000000000e+00 
310 2 4 2.2559723595316457e+00 -1.7930851718102258e+03 1.0000000000000000e+00 3.0000000000000000e+01 1.8000000000000000e+01 1.0000000000000000e+00 
330 2 4 2.2559723595316457e+00 -1.7915262793835846e+03 1.0000000000000000e+00 3.2000000000000000e+01 1.8000000000000000e+01 1.0000000000000000e+00 
1312 314 2 1.0280000140533128e+00 -4.7390777000976794e+00 1.0000000000000000e+00 7.8878180807212162e-01 1.5709233693919877e+00 3.3331230696961076e+00 
4861 3863 2 1.0279999999999994e+00 1.2605597409808695e+02 1.0000000000000000e+00 3.0964305180957538e+01 2.9333878062658292e-01 3.2955954851967464e+00 
3170 2172 2 1.0279999818521894e+00 2.5971429737545691e+03 1.0000000000000000e+00 9.6708584684644516e-01 3.1184812965531159e+00 3.1921655460634897e+00 
3206 2208 2 1.0279999627796628e+00 1.2517261226976382e+03 1.0000000000000000e+00 5.8961693728826203e+00 2.9211736991356894e+00 3.3217486609416089e+00 
1866 868 2 1.0279999950528358e+00 2.9132422492887594e+02 1.0000000000000000e+00 7.6177889033944011e+00 2.8909380214984068e+00 3.3042945735628924e+00 
3098 2100 2 1.0279999895243279e+00 1.3530648383752448e+03 1.0000000000000000e+00 1.5013203234901274e+01 1.7744405717078189e+00 3.2858793376010214e+00 
3207 2209 2 1.0280000174056529e+00 1.2889042803585230e+03 1.0000000000000000e+00 5.0925643227259201e+00 4.2131713832884774e+00 3.3196164608175924e+00 
5053 4055 2 1.0280000088725909e+00 1.8328057118138286e+03 1.0000000000000000e+00 2.6190476491004397e+00 5.1258656184101641e+00 3.2588303251650785e+00 
3601 2603 2 1.0280014664739305e+00 2.0013036613323748e+03 1.0000000000000000e+00 2.7032551795124515e+01 5.6095824893097657e+00 3.2719745341809801e+00 
4526 3528 2 1.0279999944343301e+00 1.4560674677406062e+03 1.0000000000000000e+00 1.6916907288438924e+01 8.3975625671417351e+00 3.3196139319900677e+00 
4398 3400 2 1.0279999998974292e+00 1.5611493362003011e+03 1.0000000000000000e+00 1.9603702989010884e+01 8.9629558341337123e+00 3.2727947109527120e+00 
4593 3595 2 1.0280007233031945e+00 6.2426095077077025e+02 1.0000000000000000e+00 1.1021722428265637e+01 1.1392627909310452e+01 3.2282489000034849e+00 
1470 472 2 1.0279999999000871e+00 -2.6523683221149531e+03 1.0000000000000000e+00 5.1420008560547048e+00 1.6599703743224651e+01 3.3083922957377800e+00 
3705 2707 2 1.0280000207187927e+00 1.3011270959224194e+03 1.0000000000000000e+00 1.2885901441075317e+01 1.6594097949224437e+01 3.2610057924775404e+00 
2759 1761 2 1.0280000000000000e+00 6.7085530862700080e+02 1.0000000000000000e+00 1.8913195724462632e+01 1.5063592506074139e+01 3.2384666145421508e+00 
3169 2171 2 1.0280000001405549e+00 2.5701905375113474e+03 1.0000000000000000e+00 2.0555871142631066e+01 1.7021403715873447e+01 3.2764520991486199e+00 
3286 2288 2 1.0280005740349865e+00 2.0341961829629229e+03 1.0000000000000000e+00 1.5055293765550594e+01 1.9358563665503972e+01 3.2544381603001358e+00 
2438 1440 2 1.0280000234862490e+00 -5.8716274741878408e+02 1.0000000000000000e+00 1.9317744905119238e+01 1.9408809266845630e+01 3.3312722292710801e+00 
1319 321 2 1.0280000151787467e+00 9.1532898244398453e+01 1.0000000000000000e+00 2.1157754723962561e+00 9.2768391747205192e-01 3.9861069817193808e+00 
4570 3572 2 1.0280000020292046e+00 -2.0933466178706573e+02 1.0000000000000000e+00 3.8099540341757048e+00 7.4395106922751475e-01 3.6715045584290356e+00 
3604 2606 2 1.0280000010687882e+00 1.7850995628989344e+03 1.0000000000000000e+00 4.9717034939423863e+00 1.4068834894677911e+00 3.4076114797032875e+00 
4366 3368 2 1.0280000087211163e+00 1.2955141414816119e+03 1.0000000000000000e+00 5.7272274632954057e+00 1.0280579901167408e+00 4.8735719104788897e+00 
3422 2424 2 1.0280000026532308e+00 1.9599585077385634e+03 1.0000000000000000e+00 7.0498246354554270e+00 4.6764255331428550e-01 4.7072009518285203e+00 
2829 1831 2 1.0280000202931370e+00 3.3117496718410457e+03 1.0000000000000000e+00 8.7876687206936861e+00 1.0040922361025366e+00 3.7520568670156349e+00 
3167 2169 2 1.0279999960089965e+00 2.8893707851105655e+03 1.0000000000000000e+00 1.0096068070788110e+01 3.1122116965776858e-01 3.4786482773648584e+00 
3755 2757 2 1.0280000142134360e+00 2.3733215622394264e+03 1.0000000000000000e+00 1.1534316295631900e+01 6.8363118745664986e-01 4.4250794599977912e+00 
5560 4562 2 1.0279999980197865e+00 3.9047903394926522e+02 1.0000000000000000e+00 1.7194803813277598e+01 1.1461253304086558e+00 3.6834097225994440e+00 
1904 906 2 1.0280000035233980e+00 4.2554925192743883e+02 1.0000000000000000e+00 1.8649730096864374e+01 1.0616340215386380e+00 3.5143440308906522e+00 
3168 2170 2 1.0280000088182615e+00 2.6514515749559209e+03 1.0000000000000000e+00 2.4684212341707720e+01 1.0511965329877688e+00 4.4443613706153000e+00 
3515 2517 2 1.0279999926380301e+00 -1.2997492315397312e+03 1.0000000000000000e+00 2.3490487661558081e+01 6.9153772487749565e-01 3.3554222129428375e+00 