LAMMPS data file via write_data, version 30 Jul 2016, timestep = 50000000

180 atoms
2 atom types

0.0000000000000000e+00 2.0000000000000000e+01 xlo xhi
0.0000000000000000e+00 2.0000000000000000e+01 ylo yhi
0.0000000000000000e+00 2.0000000000000000e+01 zlo zhi

Masses

1 3.896
2 4.31

Atoms # meso-molecular

51 1 2 1.0282322388093872e+00 -1.0111194826173399e+02 1.0000000000000000e+00 1.0391757064800122e+00 1.2589653356498938e+00 1.2686751447088646e-01 
55 1 2 1.0272840997495052e+00 -2.9977231315222628e+01 1.0000000000000000e+00 1.8395884842022625e+00 4.3301447949178637e+00 7.8087425489399870e-02 
22 1 2 1.0282759533593600e+00 -1.6578599194391040e+02 1.0000000000000000e+00 1.9782516861981889e+00 4.4342371062124952e+00 1.6844922292134346e-01 
10 1 2 1.0282759615039705e+00 -1.2574651587630595e+02 1.0000000000000000e+00 1.9782570022637385e+00 4.4342317592922855e+00 1.6845042168450908e-01 
108 1 2 1.0280021555552661e+00 -6.7718395229257368e+01 1.0000000000000000e+00 5.5866332445868414e+00 4.2794586818768403e+00 2.5888316700510341e+00 
29 1 2 1.0279665810841354e+00 -8.6717430464182300e+01 1.0000000000000000e+00 4.5247880806345808e+00 4.8186331385747980e+00 2.4348798112180656e+00 
38 1 2 1.0280228169766243e+00 -8.0414455224865932e+01 1.0000000000000000e+00 4.8781019076185332e+00 5.5585315852504475e+00 3.3121521851878017e+00 
20 1 2 1.0280228175360080e+00 -1.2138483808441069e+02 1.0000000000000000e+00 4.8780955996720889e+00 5.5585437096129171e+00 3.3121346676896639e+00 
95 1 2 1.0280021463412561e+00 -1.0303232506106370e+02 1.0000000000000000e+00 5.5868700099821504e+00 4.2796294136988466e+00 2.5889741708668965e+00 
110 1 2 1.0279978390695885e+00 -6.9783462835957607e+01 1.0000000000000000e+00 4.3703694729087550e+00 3.3479591952743784e+00 1.7342053827462909e+01 
161 1 2 1.0280024251753426e+00 -7.2544739429978875e+01 1.0000000000000000e+00 5.5878634748630827e+00 3.9824474532918313e+00 1.6887418510266297e+01 
81 1 2 1.0280024359291995e+00 -9.3516758222217589e+01 1.0000000000000000e+00 5.5845076303503589e+00 3.9842471009907654e+00 1.6883610608095587e+01 
170 1 2 1.0279976447840045e+00 -8.9776917715313616e+01 1.0000000000000000e+00 4.8922170236398594e+00 4.7453220268398990e+00 1.7679594237124725e+01 
139 1 2 1.0279357235143340e+00 -9.2939856715690482e+01 1.0000000000000000e+00 2.1728328992238395e+00 4.1144898199230667e-01 1.9463424338500666e+01 
19 1 2 1.0277556264824557e+00 -8.6051131223953746e+01 1.0000000000000000e+00 1.8213351819193888e+00 1.8929041164220917e+00 1.9534015041544954e+01 
41 1 2 1.0278889749309075e+00 -7.4067925209037142e+01 1.0000000000000000e+00 2.1688638331491399e+00 3.6124513503927913e-01 1.9573128287655361e+01 
5 1 2 1.0278514978859448e+00 -9.4993645475645849e+01 1.0000000000000000e+00 1.3567440216383082e+00 1.9413712133712182e+00 1.9823558879353893e+01 
149 1 2 1.0280010169000562e+00 -7.8402801599310919e+01 1.0000000000000000e+00 4.3462821675757493e+00 3.5205488514720789e+00 1.8363898701156462e+01 
73 1 2 1.0280009766349971e+00 -1.2444400059375722e+02 1.0000000000000000e+00 4.5185775788065889e+00 4.0095479297692176e+00 1.8530921591431415e+01 
63 1 2 1.0280286424491512e+00 -9.1103586203977443e+01 1.0000000000000000e+00 2.2625422415437405e-01 1.8703429903266048e+01 9.1936636439710362e-01 
24 1 2 1.0280302122290126e+00 -9.2326201851543743e+01 1.0000000000000000e+00 2.2695274361490073e-01 1.8704222221007953e+01 9.1916294486450689e-01 
141 1 2 1.0283381046880897e+00 -1.1991311000757565e+02 1.0000000000000000e+00 3.4572642662454318e+00 1.9112152910915306e+01 1.9367510526785936e+00 
154 1 2 1.0283916153794923e+00 -1.0363873333056689e+02 1.0000000000000000e+00 3.3549863182454915e+00 1.9085575169065805e+01 1.9767265793187063e+00 
84 1 2 1.0281940199614930e+00 -9.8248270534143870e+01 1.0000000000000000e+00 2.1382343131063188e+00 1.6318864038631574e+01 3.4517026832917308e+00 
105 1 2 1.0282709146736837e+00 -4.3675771548356010e+01 1.0000000000000000e+00 2.1343189023657385e+00 1.6355025377487113e+01 3.4133056960990178e+00 
160 1 2 1.0277479665459248e+00 -5.1749632583318231e+01 1.0000000000000000e+00 3.3613864589014812e+00 1.6255786814327767e+01 2.8236564777093531e+00 
152 1 2 1.0277732391938079e+00 -4.3453928574510243e+01 1.0000000000000000e+00 3.3281183082698673e+00 1.6548576060119210e+01 2.7900586585594520e+00 
153 1 2 1.0281394135406823e+00 -1.0466784955058799e+02 1.0000000000000000e+00 3.4117486358375775e+00 1.9179014621464809e+01 2.0070689809924791e+00 
83 1 2 1.0280998421790415e+00 -9.6723704184646749e+01 1.0000000000000000e+00 3.4821894039639476e+00 1.3042055366227931e+01 4.5111680495921682e+00 
39 1 2 1.0279812108368300e+00 -1.0440505750256297e+02 1.0000000000000000e+00 4.2387655199027963e+00 1.2520130575653202e+01 4.6058669425323693e+00 
77 1 2 1.0279196532612653e+00 -1.0905021080733979e+02 1.0000000000000000e+00 2.7773124074642612e+00 1.3179003884913655e+01 5.7204280169401756e+00 
52 1 2 1.0278889089168983e+00 -1.3008157604856382e+02 1.0000000000000000e+00 4.4878625814253379e+00 1.3455966972158066e+01 4.6237477409568548e+00 
8 1 2 1.0280482475908284e+00 -4.7519810542368603e+01 1.0000000000000000e+00 5.3521664709975623e+00 1.2872188272037549e+01 5.2473983404114586e+00 
100 1 2 1.0281031196267474e+00 -1.0041277397648328e+02 1.0000000000000000e+00 6.4592866019567055e+00 1.3464313298861040e+01 5.5058950841497554e+00 
172 1 2 1.0280149182116873e+00 -1.1790188940428044e+02 1.0000000000000000e+00 6.2931222300929079e-01 1.7294049506123567e+01 5.4068888598934279e+00 
117 1 2 1.0280148938708444e+00 -8.7280578416644062e+01 1.0000000000000000e+00 6.2935636367258008e-01 1.7294093345835400e+01 5.4069303762403580e+00 
16 1 2 1.0276565069695294e+00 -1.1948208591454028e+02 1.0000000000000000e+00 3.6658552178495891e+00 1.6263323762125786e+01 4.9031589386113144e+00 
59 1 2 1.0286107720334392e+00 -1.2511370343241913e+02 1.0000000000000000e+00 3.5054216583687232e+00 1.6460345563796164e+01 5.0072539704533483e+00 
4 1 2 1.0279459061052831e+00 -1.0465518228643603e+02 1.0000000000000000e+00 3.8073998633344148e+00 1.6901773874467818e+01 4.5495939626531792e+00 
91 1 2 1.0279653968924789e+00 -3.2489451498017253e+01 1.0000000000000000e+00 1.6050988985602328e+00 1.8973022384170612e+01 4.9813607493764698e+00 
164 1 2 1.0279646193819820e+00 -9.4482599111445481e+01 1.0000000000000000e+00 1.5882690832334818e+00 1.8986183752381017e+01 4.9801513972596698e+00 
179 1 2 1.0280060290802253e+00 -7.9599370925322887e+01 1.0000000000000000e+00 1.3028798499161296e+00 1.8866395218421605e+01 5.6203147560351736e+00 
127 1 2 1.0279653976069481e+00 -8.0773219498244231e+01 1.0000000000000000e+00 3.1909461959184249e+00 1.3307455575560121e+01 6.3317494686992228e+00 
143 1 2 1.0280671518850089e+00 -7.8938547750600563e+01 1.0000000000000000e+00 3.4963403001640612e+00 1.3197254369077438e+01 6.3489504093798121e+00 
32 1 2 1.0278784606213844e+00 -8.1140056137235959e+01 1.0000000000000000e+00 6.4613189890733596e+00 1.3431608415744350e+01 6.3109746333074765e+00 
142 1 2 1.0278807388365458e+00 -4.6375252977844333e+01 1.0000000000000000e+00 6.4657260939032790e+00 1.3442636980706833e+01 6.3073391977011122e+00 
93 1 2 1.0278912424339135e+00 -1.0125522780473719e+02 1.0000000000000000e+00 2.1762843096252888e+00 1.4983994259410272e+01 1.3624006429950860e+01 
76 1 2 1.0280021678834348e+00 -1.0778708719508849e+02 1.0000000000000000e+00 2.3710544477266784e+00 1.4506894649829436e+01 1.3625815088422620e+01 
174 1 2 1.0280652048918826e+00 -6.9325386869242266e+01 1.0000000000000000e+00 2.1108112087715916e+00 1.4395909470053748e+01 1.4380924963143121e+01 
35 1 2 1.0280266901472308e+00 -1.3026287251207674e+02 1.0000000000000000e+00 1.0100588353573079e+00 1.4651706905901062e+01 1.4019111044986897e+01 
78 1 2 1.0279797511540334e+00 -7.2635771591590796e+01 1.0000000000000000e+00 1.3299311700068231e-01 1.4224242131492396e+01 1.5097577698220061e+01 
131 1 2 1.0280758363287941e+00 -9.7887764645558889e+01 1.0000000000000000e+00 1.8721518437965884e-01 1.5136280909881320e+01 1.5679492302660073e+01 
98 1 2 1.0280315738673629e+00 -6.8642926146113666e+01 1.0000000000000000e+00 1.2076735855385081e+00 1.5368298812106744e+01 1.6891579685151900e+01 
177 1 2 1.0280152397112867e+00 -1.2233315791294949e+02 1.0000000000000000e+00 1.1755149898234762e+00 1.5365646136896560e+01 1.6879843063108584e+01 
28 1 2 1.0279078572226716e+00 -9.0844586857239278e+01 1.0000000000000000e+00 1.4209150385962357e+00 1.2182384066465181e+01 1.9775888008477249e+01 
31 1 2 1.0281431552944951e+00 -3.4422952308908229e+01 1.0000000000000000e+00 1.5504858848882126e+00 1.2254668725978965e+01 1.9868398033252824e+01 
45 1 2 1.0281431340034333e+00 -1.0742238938808322e+02 1.0000000000000000e+00 1.5503487186094975e+00 1.2254739776668092e+01 1.9868525295905759e+01 
146 1 2 1.0282102916821279e+00 -1.1571795762054717e+02 1.0000000000000000e+00 1.9653309832059849e+00 1.5114426195278376e+01 1.8208293994313738e+01 
87 1 2 1.0277662387147704e+00 -8.2840567030980822e+01 1.0000000000000000e+00 1.2330767968810992e+00 1.4594013496982511e+01 1.8425037974830182e+01 
44 1 2 1.0278444185551605e+00 -1.2088127211879271e+02 1.0000000000000000e+00 1.3087011276781315e+00 1.4979758000586717e+01 1.8644568522008502e+01 
176 1 2 1.0280098520957233e+00 -9.2258639922714707e+01 1.0000000000000000e+00 6.0530148773747685e+00 1.7116810642073776e+01 1.9484482366839053e+01 
102 1 2 1.0279884456102257e+00 -5.6906883084989452e+01 1.0000000000000000e+00 5.4261456619456983e+00 1.7400103734572934e+01 1.8934405623816801e+01 
124 1 2 1.0279884453983288e+00 -1.1795668700419836e+02 1.0000000000000000e+00 5.4261466829422176e+00 1.7400104673028142e+01 1.8934397648585289e+01 
14 1 2 1.0259374905139746e+00 -1.1002170564892988e+02 1.0000000000000000e+00 8.4247742837916439e-01 1.9480359990562903e+01 1.9814781930155799e+01 
1 1 2 1.0280057717138751e+00 -1.4651487659048544e+02 1.0000000000000000e+00 1.3081771829236626e+01 1.5596212210354687e-01 1.1670313502419592e+01 
72 1 2 1.0280057714153150e+00 -6.9130647584011271e+01 1.0000000000000000e+00 1.3081779280968188e+01 1.5596399624286950e-01 1.1670314629396646e+01 
171 1 2 1.0279666157130862e+00 -7.2287046003834902e+01 1.0000000000000000e+00 1.2581752866080436e+01 7.5669149531574836e-03 1.0621854698393092e+01 
136 1 2 1.0280446601610529e+00 -1.2722894990184020e+02 1.0000000000000000e+00 1.1966884367262317e+01 1.4701821275814781e+01 1.7736279945756217e+00 
26 1 2 1.0273664744173152e+00 -7.3657974113318218e+01 1.0000000000000000e+00 1.1753891515758275e+01 1.4819196085893994e+01 9.3334825363117468e-01 
11 1 2 1.0287602747748577e+00 -4.0242638781047688e+01 1.0000000000000000e+00 1.2525649715614486e+01 1.4896566028725029e+01 8.2827750655180910e-01 
112 1 2 1.0280880988357179e+00 -7.9233203010739246e+01 1.0000000000000000e+00 1.1849288237696710e+01 1.6080307413527013e+01 1.3336747559437030e+00 
3 1 2 1.0267419935967579e+00 -1.0415055396678629e+02 1.0000000000000000e+00 1.2799739858097938e+01 1.5587096500561552e+01 3.8660018641134970e+00 
23 1 2 1.0308110587993118e+00 -1.1213888951724310e+02 1.0000000000000000e+00 9.6707587613306583e+00 1.6463811415559828e+01 3.5752829890889637e+00 
66 1 2 1.0296907480592490e+00 -9.3263248485314847e+01 1.0000000000000000e+00 9.4657813964399722e+00 1.6993580449848395e+01 3.2468622173921045e+00 
80 1 2 1.0297030802296789e+00 -6.2456431408943921e+01 1.0000000000000000e+00 9.4653630906977515e+00 1.6993228630600566e+01 3.2474056498422392e+00 
148 1 2 1.0286684404637756e+00 -8.3075576864535364e+01 1.0000000000000000e+00 1.2642187864299810e+01 1.6148381633255902e+01 2.0944222109564503e+00 
163 1 2 1.0275190181140064e+00 -4.8642917746009950e+01 1.0000000000000000e+00 1.1463822496696494e+01 1.6155001967792934e+01 3.1235512201459210e+00 
56 1 2 1.0280606185548142e+00 -1.0928065721038969e+02 1.0000000000000000e+00 1.1263976813069435e+01 1.6357555150715598e+01 3.0113110503189091e+00 
18 1 2 1.0280607844777985e+00 -9.5193230666265478e+01 1.0000000000000000e+00 1.3195663076782498e+01 1.4787734203016925e+01 5.0474166710552133e+00 
119 1 2 1.0280746288281253e+00 -9.8879047026291730e+01 1.0000000000000000e+00 1.3043170540595007e+01 1.9427242335832297e+01 9.6454354334090144e+00 
103 1 2 1.0280681454357834e+00 -9.9651633818658937e+01 1.0000000000000000e+00 1.3107519559339107e+01 1.1773516754405739e+01 1.4004266904959604e+01 
145 1 2 1.0273506621500823e+00 -7.8062469414464928e+01 1.0000000000000000e+00 1.3316698205500959e+01 1.3801338188646403e+01 1.8418620404627024e+01 
155 1 2 1.0279871977705382e+00 -9.1511025896466734e+01 1.0000000000000000e+00 6.8785847711937889e+00 1.6101196097985142e+01 1.8186054487212676e+01 
40 1 2 1.0279872689042249e+00 -7.9984477012213517e+01 1.0000000000000000e+00 6.8761151286947770e+00 1.6100121772945542e+01 1.8186502968724191e+01 
113 1 2 1.0280213127594295e+00 -1.1885021913117518e+02 1.0000000000000000e+00 7.1220534774710220e+00 1.6920739436705272e+01 1.8394535324312926e+01 
43 1 2 1.0279822838903430e+00 -1.2124734063521890e+02 1.0000000000000000e+00 1.4194547429426185e+01 3.0320191715182543e-01 1.0529446307266110e+01 
165 1 2 1.0280336322381538e+00 -1.0155762597941420e+02 1.0000000000000000e+00 1.7640913849580528e+01 1.5479680483420855e+01 1.8441247597036805e+00 
162 1 2 1.0280336323499231e+00 -8.9734180176542580e+01 1.0000000000000000e+00 1.7640919526636612e+01 1.5479687230958492e+01 1.8441257714568162e+00 
70 1 2 1.0279751612869981e+00 -3.7522595176205151e+01 1.0000000000000000e+00 1.6569615077955028e+01 1.5817344758891718e+01 1.9649914225887568e+00 
114 1 2 1.0279578011934454e+00 -1.2084426900556771e+02 1.0000000000000000e+00 1.6637833911270974e+01 1.6450961882949034e+01 1.6695526599969102e+00 
46 1 2 1.0279459631644374e+00 -9.4123620645626218e+01 1.0000000000000000e+00 1.7159265050548822e+01 1.7710826677013596e+01 1.7277265136030098e+00 
86 1 2 1.0276747930522983e+00 -8.4598227288649539e+01 1.0000000000000000e+00 1.8599392997862282e+01 1.7727464502319901e+01 1.6786561171198622e+00 
34 1 2 1.0281072155906894e+00 -9.8032898126526405e+01 1.0000000000000000e+00 1.7858353637756665e+01 1.8837523982953417e+01 1.5002920386163754e+00 
65 1 2 1.0281072491037335e+00 -3.8693130303755119e+01 1.0000000000000000e+00 1.7858225636243400e+01 1.8837527573731791e+01 1.5003772824872150e+00 
96 1 2 1.0286441313969210e+00 -7.6489424067318581e+01 1.0000000000000000e+00 1.3834007430377460e+01 1.6917392658001763e+01 3.3827121596859544e+00 
33 1 2 1.0289035089545338e+00 -8.6109003767836597e+01 1.0000000000000000e+00 1.3885697707246459e+01 1.6875560502809627e+01 3.3817212357950104e+00 
168 1 2 1.0281201053266482e+00 -9.0599462449672558e+01 1.0000000000000000e+00 1.8527790419624484e+01 1.7862418764178944e+01 2.9989414945144044e+00 
122 1 2 1.0282975858195331e+00 -8.9787514322550393e+01 1.0000000000000000e+00 1.8077694638245454e+01 1.7423907622938422e+01 3.3577339905881072e+00 
126 1 2 1.0278128444848276e+00 -1.4654716609461784e+02 1.0000000000000000e+00 1.8511241484420697e+01 1.6694591792274768e+01 3.8391229637428030e+00 
157 1 2 1.0271872776689068e+00 -7.8374532165197181e+01 1.0000000000000000e+00 1.3755450806804589e+01 1.4400864474663031e+01 4.6531319553337873e+00 
159 1 2 1.0292634022803211e+00 -1.3443544202641638e+02 1.0000000000000000e+00 1.3788491638581444e+01 1.4472083464628088e+01 4.9181892528430513e+00 
17 1 2 1.0279938125885713e+00 -1.1418297999941110e+02 1.0000000000000000e+00 1.3792055760471357e+01 1.6471408086853639e+01 4.1911820555980190e+00 
15 1 2 1.0279697848861384e+00 -1.1898977681392319e+02 1.0000000000000000e+00 1.8771531849681924e+01 1.6265535328509340e+01 4.5875252903581707e+00 
120 1 2 1.0280753222804049e+00 -1.1797629266398070e+02 1.0000000000000000e+00 1.9804961057385576e+01 1.6788883411482225e+01 4.8562890185847918e+00 
140 1 2 1.0280437780329861e+00 -9.1639257258615672e+01 1.0000000000000000e+00 1.8608363467749186e+01 1.5401112562624641e+01 6.1681168960412611e+00 
49 1 2 1.0280447240032331e+00 -1.2406662583571186e+02 1.0000000000000000e+00 1.8668467375905330e+01 1.5435634296249468e+01 6.2196460899770685e+00 
9 1 2 1.0279917301361778e+00 -1.3327777790229456e+02 1.0000000000000000e+00 1.7766311247656436e+01 1.6966310395300141e+01 6.1100726779345997e+00 
27 1 2 1.0279917353582739e+00 -8.7704297133202019e+01 1.0000000000000000e+00 1.7766312277347236e+01 1.6966310738645209e+01 6.1100687090151737e+00 
129 1 2 1.0279250454177342e+00 -1.3216322415530840e+02 1.0000000000000000e+00 1.7868058446206170e+01 1.6114846406548725e+01 6.9601322591591313e+00 
128 1 2 1.0279779434636305e+00 -2.1430403528832389e+02 1.0000000000000000e+00 1.7666591691071197e+01 1.4915847979138467e+01 8.7878689880352976e+00 
57 1 2 1.0279878726785296e+00 -1.0867783488864696e+02 1.0000000000000000e+00 1.7676385418742431e+01 1.4718830327817043e+01 9.7712949322074500e+00 
71 1 2 1.0280413565925883e+00 -1.8975389469135990e+02 1.0000000000000000e+00 1.7687764724548192e+01 1.4905171248344708e+01 8.8086824082032891e+00 
150 1 2 1.0279689080478525e+00 -9.2876435521963160e+01 1.0000000000000000e+00 1.5207398790573819e+01 1.6617462758388267e+01 8.4525519262708340e+00 
99 1 2 1.0279707451239490e+00 -1.4961304996212561e+02 1.0000000000000000e+00 1.5214827703421262e+01 1.6611052179674868e+01 8.4524942046806224e+00 
89 1 2 1.0280986632892783e+00 -8.1359769444406936e+01 1.0000000000000000e+00 1.4754689385329868e+01 1.7467708823202205e+01 8.9899485340828935e+00 
130 1 2 1.0279393668896437e+00 -1.2592467816574580e+02 1.0000000000000000e+00 1.6607386398293929e+01 1.6011334148912329e+01 8.9026284906321234e+00 
61 1 2 1.0279076576728419e+00 -5.2838150381413108e+01 1.0000000000000000e+00 1.3843457288008130e+01 1.8311393445909559e+01 9.5162927896862168e+00 
121 1 2 1.0279429336039583e+00 -8.0770388671484952e+01 1.0000000000000000e+00 1.3990875346719985e+01 1.9811217051619280e+01 9.4402133116649303e+00 
169 1 2 1.0280820904597241e+00 -8.9341391027600949e+01 1.0000000000000000e+00 1.4911655259544437e+01 1.3529450093805091e+01 1.1162194714087383e+01 
67 1 2 1.0280186641433970e+00 -3.9386139030858466e+01 1.0000000000000000e+00 1.5184117600445937e+01 1.3687197010510587e+01 1.1255719477977012e+01 
88 1 2 1.0279415300012202e+00 -1.2237234419202152e+02 1.0000000000000000e+00 1.4795546901028564e+01 1.4503201353535939e+01 1.0476880061939779e+01 
138 1 2 1.0279357129031710e+00 -9.9020553690312113e+01 1.0000000000000000e+00 1.4924171471758333e+01 1.4861118738457538e+01 1.0643801167305128e+01 
53 1 2 1.0278116116182716e+00 -9.9343699042045756e+01 1.0000000000000000e+00 1.7829350647250916e+01 1.4514414658829345e+01 1.1308190202331298e+01 
133 1 2 1.0278486712395887e+00 -9.2392024447243230e+01 1.0000000000000000e+00 1.7827706989161271e+01 1.4513562883143488e+01 1.1308410055025123e+01 
62 1 2 1.0279741787827261e+00 -6.5547069190625464e+01 1.0000000000000000e+00 1.4576332852642171e+01 1.7371075951743823e+01 1.0516324199970894e+01 
79 1 2 1.0279498301447525e+00 -5.1482850144596071e+01 1.0000000000000000e+00 1.5441122383734733e+01 1.6521226840425719e+01 1.1241119535668689e+01 
166 1 2 1.0279477804476329e+00 -1.1854579810193458e+02 1.0000000000000000e+00 1.6584460228906099e+01 1.6852897152222873e+01 1.0061356571656042e+01 
2 1 2 1.0279626572863840e+00 -1.3682281742943627e+02 1.0000000000000000e+00 1.6550608345153481e+01 1.6892570081555366e+01 1.0105590670679392e+01 
13 1 2 1.0282789605758720e+00 -1.2644027573845668e+02 1.0000000000000000e+00 1.6048353081655641e+01 1.6092648413577340e+01 1.1689316993362912e+01 
167 1 2 1.0279896883420037e+00 -7.2518693949468869e+01 1.0000000000000000e+00 1.3710171341038244e+01 1.8103597377075779e+01 1.1500006454382143e+01 
156 1 2 1.0279896883072517e+00 -8.9633030129185002e+01 1.0000000000000000e+00 1.3710171132533803e+01 1.8103597246189821e+01 1.1500005947670711e+01 
180 1 2 1.0280652996265589e+00 -7.0722990872353947e+01 1.0000000000000000e+00 1.4686213274739254e+01 1.9153425795494382e+01 1.0395306038943318e+01 
111 1 2 1.0279999934801545e+00 -8.9535938119453448e+01 1.0000000000000000e+00 1.4267567996731788e+01 1.1097875667855600e+01 1.2904606532856732e+01 
82 1 2 1.0279988881487541e+00 -1.2697927032197705e+02 1.0000000000000000e+00 1.4606026393569651e+01 1.1450070968244528e+01 1.2240128092995285e+01 
147 1 2 1.0279457805595857e+00 -1.0842171662307273e+02 1.0000000000000000e+00 1.5040350721463325e+01 1.1868829858974765e+01 1.2454837590041519e+01 
37 1 2 1.0280251667989209e+00 -1.2051899217203659e+02 1.0000000000000000e+00 1.3933000862443967e+01 1.2745022526163662e+01 1.2738992494909320e+01 
74 1 2 1.0280095207561799e+00 -7.2868110514442833e+01 1.0000000000000000e+00 1.4147232170873195e+01 1.2907937850036948e+01 1.3661160174914228e+01 
151 1 2 1.0282166876758390e+00 -7.8148105222375790e+01 1.0000000000000000e+00 1.8337133154517449e+01 1.3648271809590906e+01 1.3251445998228188e+01 
109 1 2 1.0282443726978259e+00 -4.1450791453297434e+01 1.0000000000000000e+00 1.8361491339903331e+01 1.3662625959123437e+01 1.3300866391093786e+01 
6 1 2 1.0279423667593843e+00 -1.1570984866187057e+02 1.0000000000000000e+00 1.6591839884179176e+01 1.5534936916831853e+01 1.2050331958542163e+01 
21 1 2 1.0282826705091241e+00 -8.7687468634013157e+01 1.0000000000000000e+00 1.7120769123163118e+01 1.5217559260178847e+01 1.3983551730348475e+01 
48 1 2 1.0281080621321885e+00 -9.8461840358650491e+01 1.0000000000000000e+00 1.7779694527181011e+01 1.5359122860567009e+01 1.2444501791273950e+01 
101 1 2 1.0275527081091589e+00 -1.0777264847641352e+02 1.0000000000000000e+00 1.8734780096873333e+01 1.4379335916243576e+01 1.3332241087030939e+01 
106 1 2 1.0279905501803277e+00 -8.9721284943219544e+01 1.0000000000000000e+00 1.4497133415047493e+01 1.7998087474493222e+01 1.3281937002946053e+01 
123 1 2 1.0279846191796664e+00 -2.9234818363280183e+01 1.0000000000000000e+00 1.4483814659935911e+01 1.7999836104534690e+01 1.3263996209022409e+01 
175 1 2 1.0280008740051521e+00 -3.8795710726667103e+01 1.0000000000000000e+00 1.3547097615010612e+01 1.1566092996504846e+01 1.4484498965569976e+01 
64 1 2 1.0279197951963894e+00 -9.0867865400290455e+01 1.0000000000000000e+00 1.3962566092458378e+01 1.2283256147926222e+01 1.4646168199422391e+01 
115 1 2 1.0278673506937617e+00 -1.0395906863733246e+02 1.0000000000000000e+00 1.6272247035693884e+01 1.5275049615644454e+01 1.4245183249125695e+01 
25 1 2 1.0278630855814690e+00 -8.6786341071307476e+01 1.0000000000000000e+00 1.6271324239621549e+01 1.5281404778680784e+01 1.4251827114210386e+01 
47 1 2 1.0278456870837722e+00 -7.9352095745492036e+01 1.0000000000000000e+00 1.9900043150642187e+01 1.4458163029675500e+01 1.5358272221228576e+01 
116 1 2 1.0280622679285267e+00 -1.0404271203828441e+02 1.0000000000000000e+00 1.4372213096672136e+01 1.8572939966647120e+01 1.4954014070295795e+01 
158 1 2 1.0280600665746167e+00 -1.0180659593395622e+02 1.0000000000000000e+00 1.4356933094408078e+01 1.8557591001903830e+01 1.4955491672020024e+01 
135 1 2 1.0278920216384924e+00 -7.8816275491382626e+01 1.0000000000000000e+00 1.3732002439958173e+01 1.8722581460924360e+01 1.4121520687105837e+01 
75 1 2 1.0259900903662356e+00 -4.3805874649661057e+01 1.0000000000000000e+00 1.6220131727225304e+01 1.9966928177652484e+01 1.5137541351738552e+01 
92 1 2 1.0259903078674264e+00 -1.3817921873991392e+02 1.0000000000000000e+00 1.6226672344388135e+01 1.9979669920133837e+01 1.5142309588186114e+01 
58 1 2 1.0281186583171724e+00 -1.3335706957559302e+02 1.0000000000000000e+00 1.3925632590180964e+01 1.3360850074873962e+01 1.6634470129605472e+01 
50 1 2 1.0282600564779911e+00 -1.1544263467565587e+02 1.0000000000000000e+00 1.3948468847981760e+01 1.3370134837395314e+01 1.6613727742222665e+01 
118 1 2 1.0279366046866114e+00 -7.1070437170011303e+01 1.0000000000000000e+00 1.5503025594114975e+01 1.3665622490131623e+01 1.6774360380018720e+01 
107 1 2 1.0279914021134973e+00 -9.0124228461288794e+01 1.0000000000000000e+00 1.5996567509203112e+01 1.3861745252520590e+01 1.6494287455805530e+01 
90 1 2 1.0275911223531646e+00 -4.7788452557957989e+01 1.0000000000000000e+00 1.3861241392388321e+01 1.4162466781411997e+01 1.7570537282383487e+01 
68 1 2 1.0278489268605113e+00 -1.0900609039478810e+02 1.0000000000000000e+00 1.6339183590905755e+01 1.4963302267480392e+01 1.6146681793828154e+01 
42 1 2 1.0278426896520061e+00 -7.1518866892389070e+01 1.0000000000000000e+00 1.6310133685122512e+01 1.4966701640660039e+01 1.6166354779987653e+01 
144 1 2 1.0302057053095028e+00 -4.4138802428274019e+01 1.0000000000000000e+00 1.6489378117086876e+01 1.9655517856509793e+01 1.6316089265134231e+01 
85 1 2 1.0302057049835776e+00 -8.7911254484555357e+01 1.0000000000000000e+00 1.6489377837921850e+01 1.9655517751129086e+01 1.6316089274842177e+01 
94 1 2 1.0280603439277081e+00 -8.5834199494601251e+01 1.0000000000000000e+00 1.9763731275944465e+01 1.1048955919018557e+01 1.8057571586359490e+01 
69 1 2 1.0280603240925086e+00 -8.8124804227937815e+01 1.0000000000000000e+00 1.9763937397266950e+01 1.1048859218710749e+01 1.8057435037834871e+01 
12 1 2 1.0279159332777881e+00 -8.2607531214104540e+01 1.0000000000000000e+00 1.9872568833830957e+01 1.1136661138850881e+01 1.8159860310814501e+01 
137 1 2 1.0289194470928471e+00 -8.0135725457643375e+01 1.0000000000000000e+00 1.4499964313343193e+01 1.2843770672448787e+01 1.8861866428592297e+01 
173 1 2 1.0289161010243923e+00 -3.4551718610547127e+01 1.0000000000000000e+00 1.4327354361646140e+01 1.2754053402928866e+01 1.8831740897073729e+01 
60 1 2 1.0275910180197034e+00 -6.1077598999713352e+01 1.0000000000000000e+00 1.4006729949018993e+01 1.4022726047708229e+01 1.9754038196696822e+01 
178 1 2 1.0275493474657071e+00 -7.4342199936636689e+01 1.0000000000000000e+00 1.4031411293048636e+01 1.4008704447795241e+01 1.9758903982690203e+01 
134 1 2 1.0279980918654776e+00 -8.5424295258313094e+01 1.0000000000000000e+00 1.7021371241076753e+01 1.4450961896923422e+01 1.9557022722472873e+01 
125 1 2 1.0279894115038255e+00 -8.1220604408736804e+01 1.0000000000000000e+00 1.7136343237258338e+01 1.4541484131699965e+01 1.9611319668357456e+01 
54 1 2 1.0279981351315750e+00 -9.4207037453403800e+01 1.0000000000000000e+00 1.6328565682405252e+01 1.5429892028830059e+01 1.9412607142777638e+01 
30 1 2 1.0280074411204660e+00 -7.5639653837508547e+01 1.0000000000000000e+00 1.6368047093531192e+01 1.5423520445545774e+01 1.9300177585527774e+01 
132 1 2 1.0274603852672002e+00 -1.2456804133704782e+02 1.0000000000000000e+00 1.7753073625841754e+01 1.9048813193354697e+01 1.8141777467774439e+01 
7 1 2 1.0274074165332552e+00 -7.7272247113894622e+01 1.0000000000000000e+00 1.7752739520201573e+01 1.9050777495236055e+01 1.8146002979287839e+01 
36 1 2 1.0288837566615565e+00 -9.2354017309717634e+01 1.0000000000000000e+00 1.8156579530801007e+01 1.8967316889230940e+01 1.8329867054313596e+01 
97 1 2 1.0287154662873792e+00 -1.0515418772867785e+02 1.0000000000000000e+00 1.9787545946287548e+01 1.8516733628142422e+01 1.9419414391568036e+01 
104 1 2 1.0286526335165873e+00 -4.2866235980754759e+01 1.0000000000000000e+00 1.9866067623339049e+01 1.8492017120517900e+01 1.9408651782247826e+01 

Velocities

51 3.4356922835386057e-02 4.8067103537833368e-02 -1.8111997628632068e-01
55 7.1618167387234741e-02 1.0004405666369097e-01 -1.5608292040743021e-01
22 5.6852749923973184e-02 9.7637402547980520e-02 -1.6420924256924110e-01
10 5.6852524803604435e-02 9.7637403309086754e-02 -1.6420938736191809e-01
108 8.2770494760969038e-02 9.5207671171699912e-02 -1.2199801229530857e-01
29 8.2871740896726581e-02 9.4960245387609540e-02 -1.2201629198077275e-01
38 8.2864753466808203e-02 9.5120040738588998e-02 -1.2180480091939209e-01
20 8.2864748811662767e-02 9.5120050748551579e-02 -1.2180481226043506e-01
95 8.2770299447497780e-02 9.5207532852936386e-02 -1.2199812487718775e-01
110 3.4670077313082998e-02 -9.4771999923901201e-03 2.0546051923434816e-01
161 3.4675073185702364e-02 -9.4838769489987290e-03 2.0545821088827093e-01
81 3.4674988636149665e-02 -9.4838185738216028e-03 2.0545806058349936e-01
170 3.4666483130878528e-02 -9.4878776585065466e-03 2.0546207348756482e-01
139 -1.8553246626717906e-02 3.6515653239099735e-02 -1.6342893655590893e-01
19 4.9346299798119532e-02 5.4282048626993498e-02 -1.7729807402500616e-01
41 -1.4824992011720828e-02 3.9183145542064632e-02 -1.7519112494493796e-01
5 7.9649681800151889e-02 7.0473255458968057e-02 -2.0684054755935780e-01
149 3.4663637818093333e-02 -9.4843827069248914e-03 2.0545953023388078e-01
73 3.4665670175705210e-02 -9.4784435574703126e-03 2.0546231780313115e-01
63 7.5616390748348139e-02 -1.2611801364093215e-02 1.4498546385478722e-01
24 7.5794329797122445e-02 -1.2436700019229162e-02 1.4494358450029551e-01
141 -1.4079904109683958e-01 -2.3776520212304482e-02 -1.5107423329709654e-02
154 -1.4485920648872894e-01 -2.5229934826108979e-02 -1.3817069429151571e-02
84 -8.7022029225859970e-02 3.7963832640492148e-02 1.2703382572186122e-02
105 -8.7117492959281256e-02 3.6423054954636845e-02 1.3805068685811826e-02
160 -9.5468536288615985e-02 3.8939256707174782e-02 1.6108482441395382e-02
152 -9.5024470235305331e-02 4.1709434559563684e-02 1.3779821367219280e-02
153 -1.4232433827274740e-01 -2.3105452466747452e-02 -1.3621460008916893e-02
83 -3.7596535796851641e-02 4.9830837792831290e-02 1.0622534683299664e-01
39 -3.4604702347007431e-02 5.9327617818148645e-02 1.0818316376489234e-01
77 -4.3165858780995964e-02 5.3351493972762093e-02 9.9282862055222507e-02
52 -3.3119132029062193e-02 5.5423519519552877e-02 1.0691254870347594e-01
8 -3.4582132721452115e-02 7.4634529500695435e-02 1.1140198213200798e-01
100 -2.6916511799672107e-02 6.0112824189506392e-02 1.1039671197364040e-01
172 -4.7743703564226914e-02 1.3609267464686328e-01 -1.2515028856772434e-01
117 -4.7743959552073389e-02 1.3609502358752090e-01 -1.2515168134458765e-01
16 -8.2471745504828387e-02 6.5096689850911937e-02 3.2614626911336389e-02
59 -8.5973243404131316e-02 7.0608209074490752e-02 3.0542723520129735e-02
4 -9.5405419707916689e-02 5.1669714088532152e-02 2.0851915606595314e-02
91 -5.5021038440870647e-02 1.4499146844490188e-01 -1.2628990924145911e-01
164 -5.4882304349215025e-02 1.4480621112455680e-01 -1.2622730466911167e-01
179 -5.2446410313357346e-02 1.4543991508945758e-01 -1.3086783191242410e-01