LAMMPS data file via write_data, version 30 Jul 2016, timestep = 50400000

180 atoms
2 atom types

0.0000000000000000e+00 2.0000000000000000e+01 xlo xhi
0.0000000000000000e+00 2.0000000000000000e+01 ylo yhi
0.0000000000000000e+00 2.0000000000000000e+01 zlo zhi

Masses

1 3.896
2 4.31

Atoms # meso-molecular

5 1 2 1.0279910442048763e+00 -9.4974979304630025e+01 1.0000000000000000e+00 2.4947663104938704e+00 3.0339712661280083e+00 1.1707718579582174e+01 
19 1 2 1.0279904855182649e+00 -8.6042998882330892e+01 1.0000000000000000e+00 2.4534516090637326e+00 3.0850605566708649e+00 1.1741874805865059e+01 
139 1 2 1.0280062613665517e+00 -9.2903053832859641e+01 1.0000000000000000e+00 1.8675074987672957e+00 1.5964345487509801e+00 1.2001509677943274e+01 
41 1 2 1.0280061115283006e+00 -7.4028328748791779e+01 1.0000000000000000e+00 1.8036343172895144e+00 1.6099107297798869e+00 1.2116544334049866e+01 
51 1 2 1.0280006963304520e+00 -1.0107882752047784e+02 1.0000000000000000e+00 1.5141768066477996e+00 2.7129433468624131e+00 1.2364744732218323e+01 
10 1 2 1.0277563714248019e+00 -1.2574301893794174e+02 1.0000000000000000e+00 4.7346708269998992e+00 8.9298198102976585e+00 1.2466974120863254e+01 
22 1 2 1.0277767331716603e+00 -1.6578249441249633e+02 1.0000000000000000e+00 4.7503314091653737e+00 8.8458149652019920e+00 1.2379914469589719e+01 
55 1 2 1.0284543103118111e+00 -2.9967404115027147e+01 1.0000000000000000e+00 4.8203715416333219e+00 8.8785471884606721e+00 1.2445628988540753e+01 
14 1 2 1.0282195586827074e+00 -1.0997159605590875e+02 1.0000000000000000e+00 1.8963795175704308e+00 1.9408279547647890e+01 8.6055688811776665e-02 
97 1 2 1.0278710836770313e+00 -1.0517365724343037e+02 1.0000000000000000e+00 1.7926631390075942e+00 1.9427724911227632e+01 5.2240052921660812e-02 
153 1 2 1.0283062229833209e+00 -1.0468320193888880e+02 1.0000000000000000e+00 3.6880616068848342e+00 1.9316983434187183e+01 2.3087204249854052e+00 
141 1 2 1.0284730637951258e+00 -1.1991029196497043e+02 1.0000000000000000e+00 3.7250256696161435e+00 1.9265826379650544e+01 2.2642022637881785e+00 
154 1 2 1.0273116816796350e+00 -1.0351013246406879e+02 1.0000000000000000e+00 3.6301262459204864e+00 1.9303388577109892e+01 2.1974717268146278e+00 
83 1 2 1.0280015086538121e+00 -9.6723332274920892e+01 1.0000000000000000e+00 1.7925545019119764e+00 1.5757825620046006e+01 9.6973066943543120e+00 
39 1 2 1.0279971009803370e+00 -1.0440461591375247e+02 1.0000000000000000e+00 2.6306490397867184e+00 1.5344825062579556e+01 9.8392643432024318e+00 
52 1 2 1.0280022065206080e+00 -1.3008130199120188e+02 1.0000000000000000e+00 2.8898794383718571e+00 1.6221659028300191e+01 9.8746206539057813e+00 
143 1 2 1.0280000898849959e+00 -7.8938276089152197e+01 1.0000000000000000e+00 1.6545553986652757e+00 1.5885595662471234e+01 1.1444472773629537e+01 
127 1 2 1.0280068002710374e+00 -8.0772962248582473e+01 1.0000000000000000e+00 1.2810343470044745e+00 1.5999039904599726e+01 1.1394287922498739e+01 
77 1 2 1.0279948867531372e+00 -1.0904996669575389e+02 1.0000000000000000e+00 9.6241818330036910e-01 1.5860427206506673e+01 1.0755898709864059e+01 
8 1 2 1.0279958934046340e+00 -4.7518917897236058e+01 1.0000000000000000e+00 3.7092100826980157e+00 1.5912055593245015e+01 1.0494025489920229e+01 
32 1 2 1.0280044045617216e+00 -8.1139897068273996e+01 1.0000000000000000e+00 4.9806301967794715e+00 1.6286878677789193e+01 1.1469694798490123e+01 
142 1 2 1.0280042258517841e+00 -4.6375094818893530e+01 1.0000000000000000e+00 4.9852084251512165e+00 1.6297747545566281e+01 1.1466258590714045e+01 
100 1 2 1.0279962950923640e+00 -1.0041259424799838e+02 1.0000000000000000e+00 4.9164287251926986e+00 1.6335410429385412e+01 1.0679911708567136e+01 
35 1 2 1.0279965169435614e+00 -1.3026174274773538e+02 1.0000000000000000e+00 1.2710824094708559e+00 1.2925228497088941e+01 1.3349058616827335e+01 
76 1 2 1.0279951425057310e+00 -1.0778684871241606e+02 1.0000000000000000e+00 2.5437839370784783e+00 1.2956632632619632e+01 1.2854585978326126e+01 
174 1 2 1.0280236766631792e+00 -6.9324868916942791e+01 1.0000000000000000e+00 2.4501544129333004e+00 1.2723174778341976e+01 1.3751015984304869e+01 
93 1 2 1.0279840371720448e+00 -1.0125507151997772e+02 1.0000000000000000e+00 2.3516094102790408e+00 1.3331290611026496e+01 1.2888581401695884e+01 
78 1 2 1.0279995004232019e+00 -7.2634356227928066e+01 1.0000000000000000e+00 7.1585083248242853e-01 1.2323568129032822e+01 1.4628619431031698e+01 
47 1 2 1.0280097223233147e+00 -7.9350573737351525e+01 1.0000000000000000e+00 6.4315075550236833e-01 1.2564116999391883e+01 1.4907283653620336e+01 
131 1 2 1.0279676640526936e+00 -9.7884588877363555e+01 1.0000000000000000e+00 1.1781401701317002e+00 1.2991525506855796e+01 1.5176201563182040e+01 
87 1 2 1.0280111616613821e+00 -8.2835457625442473e+01 1.0000000000000000e+00 2.9165289793881706e+00 1.3646675027760358e+01 1.7657289320351747e+01 
177 1 2 1.0279828782719496e+00 -1.2232841226405532e+02 1.0000000000000000e+00 2.4820693677173762e+00 1.3763224097349370e+01 1.6232867579384820e+01 
98 1 2 1.0279839850547432e+00 -6.8638278745913055e+01 1.0000000000000000e+00 2.4943996614528610e+00 1.3776512428473866e+01 1.6225896950599370e+01 
146 1 2 1.0280007914164138e+00 -1.1571470720342272e+02 1.0000000000000000e+00 3.5683022173854586e+00 1.4332932550873165e+01 1.7114143264269114e+01 
44 1 2 1.0280119949932427e+00 -1.2087788367040906e+02 1.0000000000000000e+00 3.1769585033942156e+00 1.4323519684528963e+01 1.7702212825614566e+01 
104 1 2 1.0278746105558079e+00 -4.2885646571176387e+01 1.0000000000000000e+00 1.8782925447605103e+00 1.9432056532862468e+01 1.9979533317409736e+01 
176 1 2 1.0280002910715222e+00 -9.2258637229022241e+01 1.0000000000000000e+00 1.2502368219488798e+01 2.1276139532721730e+00 7.0981554587053297e-01 
102 1 2 1.0279993134846728e+00 -5.6906880425616315e+01 1.0000000000000000e+00 1.1873456463008139e+01 2.4048343417901115e+00 1.6498860636108512e-01 
124 1 2 1.0279993134834480e+00 -1.1795668434483390e+02 1.0000000000000000e+00 1.1873457444888269e+01 2.4048353267194171e+00 1.6498062540261199e-01 
81 1 2 1.0280626021606858e+00 -9.3520734432819808e+01 1.0000000000000000e+00 8.2985825081364926e+00 5.0996709820218120e+00 4.1409968595650577e+00 
170 1 2 1.0276133984639175e+00 -8.9516567534138460e+01 1.0000000000000000e+00 8.2103904027751522e+00 5.1000102743767783e+00 4.2247643514892177e+00 
161 1 2 1.0283163906868731e+00 -7.2548599139837449e+01 1.0000000000000000e+00 8.3272487163623516e+00 5.1146889048927440e+00 4.2283231131866961e+00 
3 1 2 1.0280104313753811e+00 -1.0409964353103307e+02 1.0000000000000000e+00 1.3311479711014105e+01 9.6726386215577822e+00 5.8440151311670698e+00 
17 1 2 1.0279883822163320e+00 -1.1414194743626683e+02 1.0000000000000000e+00 1.3114334728674246e+01 9.7785717832744083e+00 5.6448845723892100e+00 
149 1 2 1.0279928750463709e+00 -7.8379877955367448e+01 1.0000000000000000e+00 6.9044434975380211e+00 6.0552792906434334e+00 6.4739909407599230e+00 
110 1 2 1.0280115771789873e+00 -6.9760247739020514e+01 1.0000000000000000e+00 6.9572472686524947e+00 6.1344609658118854e+00 6.5322509715769073e+00 
73 1 2 1.0280888445343335e+00 -1.2437665805501460e+02 1.0000000000000000e+00 6.9141748121486639e+00 6.1619703442287941e+00 6.4368710739240935e+00 
20 1 2 1.0279979001454951e+00 -1.2135614116335073e+02 1.0000000000000000e+00 7.5446070267433765e+00 7.5431244961954036e+00 1.9085250974398893e+01 
38 1 2 1.0279979000821731e+00 -8.0385758051698005e+01 1.0000000000000000e+00 7.5446069148536425e+00 7.5431239598619433e+00 1.9085250333925618e+01 
29 1 2 1.0279963517627739e+00 -8.6568958672080299e+01 1.0000000000000000e+00 7.4291655238374794e+00 6.6520255409381477e+00 1.9881841615446699e+01 
95 1 2 1.0280026259586126e+00 -1.0295239238419090e+02 1.0000000000000000e+00 8.6132748213026140e+00 6.5026050552724559e+00 1.9745165952209927e+01 
108 1 2 1.0280026415673180e+00 -6.7638399558754486e+01 1.0000000000000000e+00 8.6120993128396375e+00 6.5008900076644798e+00 1.9745955687037757e+01 
23 1 2 1.0278992351085077e+00 -1.1213194210659685e+02 1.0000000000000000e+00 9.7694186836386212e+00 1.1377404235345852e+01 3.6948933060494391e+00 
66 1 2 1.0280185551148817e+00 -9.3259918487025374e+01 1.0000000000000000e+00 9.6151971754624501e+00 1.1538412494015898e+01 3.5199653583911967e+00 
80 1 2 1.0280186194724306e+00 -6.2453113296933680e+01 1.0000000000000000e+00 9.6146149864993173e+00 1.1538144169235443e+01 3.5207628631549883e+00 
136 1 2 1.0279596673428131e+00 -1.2721705184340890e+02 1.0000000000000000e+00 1.1986743629121051e+01 1.1679102720673800e+01 3.3792307230838983e+00 
26 1 2 1.0279758100377274e+00 -7.3651060762895810e+01 1.0000000000000000e+00 1.1849049255630991e+01 1.2873926665958839e+01 2.1623196699457874e+00 
11 1 2 1.0279902092344126e+00 -4.0234302955141402e+01 1.0000000000000000e+00 1.2119620547186738e+01 1.2944947937144651e+01 2.1881829409106235e+00 
112 1 2 1.0280220666219342e+00 -7.9223424333495430e+01 1.0000000000000000e+00 1.1781988770542135e+01 1.3269068246804123e+01 2.8863879213122674e+00 
56 1 2 1.0280405658882026e+00 -1.0926097503298452e+02 1.0000000000000000e+00 1.1873644310397991e+01 1.1731776431839146e+01 4.7036176403697576e+00 
163 1 2 1.0278780232993112e+00 -4.8620775639907002e+01 1.0000000000000000e+00 1.2142359970890418e+01 1.1536235207225255e+01 4.7751069135418938e+00 
148 1 2 1.0280162854835202e+00 -8.3053776099819601e+01 1.0000000000000000e+00 1.2434299096360737e+01 1.2526942563616878e+01 4.0697039198088545e+00 
119 1 2 1.0279807528843086e+00 -9.8872270275920627e+01 1.0000000000000000e+00 1.3039765743840064e+01 1.8358350628768033e+01 1.2095070881852685e+01 
171 1 2 1.0280136289428370e+00 -7.2285250212163547e+01 1.0000000000000000e+00 1.2313562831787827e+01 1.9081500930773082e+01 1.3301920641337308e+01 
1 1 2 1.0279861961645462e+00 -1.4651362119528119e+02 1.0000000000000000e+00 1.2744300322376498e+01 1.9223639783931930e+01 1.4188888857611936e+01 
72 1 2 1.0279861961793189e+00 -6.9129392184221203e+01 1.0000000000000000e+00 1.2744305881909870e+01 1.9223640984494260e+01 1.4188889176354772e+01 
145 1 2 1.0280187603265791e+00 -7.8061237814398481e+01 1.0000000000000000e+00 1.3017255517140415e+01 1.3214115522526752e+01 1.7579211084276992e+01 
60 1 2 1.0279736408450397e+00 -6.1075540574163973e+01 1.0000000000000000e+00 1.3313476675297707e+01 1.3416444851362204e+01 1.8831353944314742e+01 
178 1 2 1.0279719904126650e+00 -7.4340149109257695e+01 1.0000000000000000e+00 1.3325022036081274e+01 1.3414051231713101e+01 1.8836610655514228e+01 
179 1 2 1.0278222829580721e+00 -7.9569951393449045e+01 1.0000000000000000e+00 1.9170440034070442e+01 6.2937079512465131e+00 1.2416114133253588e+00 
164 1 2 1.0281760225023013e+00 -9.4464227722032504e+01 1.0000000000000000e+00 1.9257127575509735e+01 6.3609952355161008e+00 1.2555051291171748e+00 
91 1 2 1.0281143568306945e+00 -3.2470244778160726e+01 1.0000000000000000e+00 1.9166080902346213e+01 6.4057187106741686e+00 1.2502769971622010e+00 
122 1 2 1.0281408546774731e+00 -8.9766191706795979e+01 1.0000000000000000e+00 1.5301940036421916e+01 1.3063742482048972e+00 2.3743192195218468e+00 
9 1 2 1.0282049282077081e+00 -1.3327273157370601e+02 1.0000000000000000e+00 1.5164288049541376e+01 7.0899136132545240e-02 3.8862003061518009e+00 
27 1 2 1.0282049289959394e+00 -8.7699250813192577e+01 1.0000000000000000e+00 1.5164288359272545e+01 7.0899509570896926e-02 3.8861999270500487e+00 
168 1 2 1.0278144970305296e+00 -9.0567384773043059e+01 1.0000000000000000e+00 1.6227175400383974e+01 1.6698895989370302e+00 2.1775576923326971e+00 
46 1 2 1.0279024353668831e+00 -9.4011617904029606e+01 1.0000000000000000e+00 1.6286141284803662e+01 8.9112477406177448e-02 2.0472794330192783e+00 
24 1 2 1.0279968127530694e+00 -9.2215172485922238e+01 1.0000000000000000e+00 1.8614856130417486e+01 1.3947100960801826e+00 3.3456356901199702e+00 
63 1 2 1.0279674941444676e+00 -9.0992109252550677e+01 1.0000000000000000e+00 1.8677533189985667e+01 1.3818614370985627e+00 3.3971084103456888e+00 
34 1 2 1.0279911806119171e+00 -9.7970003538131323e+01 1.0000000000000000e+00 1.5491533169929951e+01 2.5206750684209762e+00 2.0090607164146577e+00 
65 1 2 1.0279911907680732e+00 -3.8630241122926087e+01 1.0000000000000000e+00 1.5491549072576698e+01 2.5206788162277687e+00 2.0090566317031144e+00 
159 1 2 1.0280006946311007e+00 -1.3441731727964063e+02 1.0000000000000000e+00 1.5418468932414507e+01 5.7017137428794893e+00 3.1836933483858725e+00 
157 1 2 1.0279785005512663e+00 -7.8358895765801947e+01 1.0000000000000000e+00 1.5522305663759402e+01 5.6842262814611848e+00 3.2122291907468199e+00 
18 1 2 1.0279938186739468e+00 -9.5164889850908978e+01 1.0000000000000000e+00 1.5468944070001010e+01 5.7721671702266786e+00 3.2491922765695751e+00 
120 1 2 1.0280160590057197e+00 -1.1792161024900136e+02 1.0000000000000000e+00 1.7767720272617627e+01 1.2099805592099684e+00 4.1973558578649790e+00 
117 1 2 1.0279976947484732e+00 -8.7204926146384992e+01 1.0000000000000000e+00 1.8062238726555965e+01 2.3406550425722248e+00 4.5441374418399736e+00 
172 1 2 1.0279977557995346e+00 -1.1782624068255294e+02 1.0000000000000000e+00 1.8062218716751989e+01 2.3406066036294839e+00 4.5441949986546728e+00 
111 1 2 1.0279958698043541e+00 -8.9535874409379332e+01 1.0000000000000000e+00 1.5847754785143913e+01 8.5261991568564532e+00 1.1157375096208460e+01 
82 1 2 1.0279911604347940e+00 -1.2697895832059368e+02 1.0000000000000000e+00 1.6126714925858899e+01 8.8897702404214201e+00 1.0441791903737023e+01 
147 1 2 1.0280208256799146e+00 -1.0842042030270331e+02 1.0000000000000000e+00 1.6527030620844066e+01 9.3194777763065897e+00 1.0623928125920653e+01 
175 1 2 1.0279982442706757e+00 -3.8795601535277811e+01 1.0000000000000000e+00 1.5228297973632779e+01 8.9825259332936334e+00 1.2842436855529796e+01 
103 1 2 1.0280050340700826e+00 -9.9651580986529368e+01 1.0000000000000000e+00 1.4741384098935598e+01 9.1570492930819469e+00 1.2361437219780491e+01 
64 1 2 1.0279909907045759e+00 -9.0867107543085325e+01 1.0000000000000000e+00 1.5549515152334299e+01 9.6769199421980883e+00 1.2934295857391440e+01 
113 1 2 1.0279978066077093e+00 -1.1885021565050643e+02 1.0000000000000000e+00 1.3576875718792207e+01 1.9505416900757555e+00 1.9616608028958069e+01 
155 1 2 1.0280028451069902e+00 -9.1511013570195161e+01 1.0000000000000000e+00 1.3344964229437815e+01 1.1333833646155542e+00 1.9401446167167911e+01 
40 1 2 1.0280027178466622e+00 -7.9984465098916957e+01 1.0000000000000000e+00 1.3342469137765875e+01 1.1322574334852904e+00 1.9401887502850855e+01 
70 1 2 1.0279888676404090e+00 -3.7511042826483397e+01 1.0000000000000000e+00 1.5376640470136609e+01 1.5695080650416067e+01 1.5641194919715511e+00 
165 1 2 1.0278941835859858e+00 -1.0154731125655385e+02 1.0000000000000000e+00 1.6798227840258850e+01 1.5115257640862811e+01 1.5698501509442291e+00 
162 1 2 1.0278941837915945e+00 -8.9723865320310935e+01 1.0000000000000000e+00 1.6798234252605138e+01 1.5115263591147539e+01 1.5698508080193743e+00 
28 1 2 1.0282746389377115e+00 -9.0841921350213823e+01 1.0000000000000000e+00 1.9036709613713889e+01 1.5192505786620783e+01 1.3284882007874563e+00 
45 1 2 1.0277194514203678e+00 -1.0742004126445683e+02 1.0000000000000000e+00 1.9202280298869841e+01 1.5253759457028744e+01 1.5891887164698748e+00 
31 1 2 1.0277148556374269e+00 -3.4420621128221420e+01 1.0000000000000000e+00 1.9204477463408072e+01 1.5252463311008452e+01 1.5863384969874499e+00 
114 1 2 1.0280922599821549e+00 -1.2080802220946060e+02 1.0000000000000000e+00 1.5293028417890437e+01 1.6202990597044597e+01 1.4885119677567444e+00 
132 1 2 1.0278737221064247e+00 -1.2446451679108115e+02 1.0000000000000000e+00 1.6238683753990127e+01 1.6969979557840592e+01 1.1062128743259367e+00 
7 1 2 1.0280533352171011e+00 -7.7165355944224686e+01 1.0000000000000000e+00 1.6516364973868111e+01 1.6905624581195326e+01 1.2600725996930118e+00 
86 1 2 1.0281045621640030e+00 -8.4478001716427229e+01 1.0000000000000000e+00 1.7147407732111894e+01 1.9364793740753083e+01 1.6059795348064259e+00 
36 1 2 1.0281381676192747e+00 -9.2225703554856196e+01 1.0000000000000000e+00 1.7376965687213893e+01 1.9382726087494909e+01 1.8389479528490356e+00 
140 1 2 1.0280354615185607e+00 -9.1628236311293492e+01 1.0000000000000000e+00 1.6063350911424802e+01 1.8075222004762349e+01 3.9110117906877520e+00 
126 1 2 1.0280189359487111e+00 -1.4650188404965419e+02 1.0000000000000000e+00 1.6465452063818528e+01 1.8338699323082317e+01 2.4228093459179658e+00 
15 1 2 1.0277514031659791e+00 -1.1897424505934912e+02 1.0000000000000000e+00 1.6951112914467753e+01 1.9336894407590947e+01 3.3269213107640514e+00 
160 1 2 1.0278377883294647e+00 -5.1735870484562810e+01 1.0000000000000000e+00 1.9586714545829576e+01 1.8020217412806371e+01 3.9740970739380770e+00 
152 1 2 1.0278537162510573e+00 -4.3424546499275905e+01 1.0000000000000000e+00 1.9595736906537351e+01 1.8054715379901033e+01 3.9815359434954090e+00 
105 1 2 1.0282986977556416e+00 -4.3656409362223059e+01 1.0000000000000000e+00 1.8272899433613716e+01 1.7830962242093495e+01 4.2076882722496061e+00 
84 1 2 1.0282724637196885e+00 -9.8230241893572511e+01 1.0000000000000000e+00 1.8293479534428837e+01 1.7822783165678889e+01 4.2664132679294040e+00 
129 1 2 1.0277869547456890e+00 -1.3215742934229542e+02 1.0000000000000000e+00 1.5215236153503865e+01 1.9223630912036473e+01 4.3740441475228078e+00 
49 1 2 1.0280731017100504e+00 -1.2405521695021974e+02 1.0000000000000000e+00 1.6185261058440254e+01 1.8096822670504782e+01 4.0206071452617120e+00 
4 1 2 1.0279724780259021e+00 -1.0465369949660139e+02 1.0000000000000000e+00 1.9733181957402721e+01 1.9184758341426615e+01 5.6363169212418844e+00 
33 1 2 1.0279830277415911e+00 -8.6090090526808609e+01 1.0000000000000000e+00 1.3772206960791758e+01 1.0652232191496788e+01 6.1282605674379296e+00 
96 1 2 1.0279823002744370e+00 -7.6467189033626198e+01 1.0000000000000000e+00 1.3366594954882505e+01 1.0881178605931650e+01 6.1576338038796745e+00 
57 1 2 1.0280023244053667e+00 -1.0867436431886900e+02 1.0000000000000000e+00 1.6528987259379949e+01 1.3533820724118785e+01 7.5695490891072890e+00 
71 1 2 1.0280020451212895e+00 -1.8975230598769724e+02 1.0000000000000000e+00 1.6467475671681406e+01 1.3859031414059803e+01 6.5863893462052578e+00 
128 1 2 1.0279991293213639e+00 -2.1430234403542423e+02 1.0000000000000000e+00 1.6430773014959662e+01 1.3886617948086188e+01 6.5695945623483221e+00 
99 1 2 1.0279804280724154e+00 -1.4960869787031422e+02 1.0000000000000000e+00 1.4686830982701126e+01 1.5715779006920190e+01 7.8175505763138711e+00 
150 1 2 1.0279802429356406e+00 -9.2872079820245673e+01 1.0000000000000000e+00 1.4682570104825128e+01 1.5720814504935177e+01 7.8225722491640806e+00 
130 1 2 1.0279702583473949e+00 -1.2591855392383329e+02 1.0000000000000000e+00 1.5761193166806613e+01 1.4813066776532896e+01 7.2868288541205928e+00 
59 1 2 1.0279384050155138e+00 -1.2511190627464390e+02 1.0000000000000000e+00 1.9532313642396854e+01 1.8972571669808293e+01 6.0043651943352829e+00 
16 1 2 1.0279526306097146e+00 -1.1947971210417124e+02 1.0000000000000000e+00 1.9660824869867472e+01 1.8800200642853369e+01 6.0029929949583289e+00 
169 1 2 1.0279838002188115e+00 -8.9339281907605496e+01 1.0000000000000000e+00 1.5429153774953768e+01 1.1415293781584595e+01 9.1028238265710026e+00 
67 1 2 1.0279810022098390e+00 -3.9383693784616568e+01 1.0000000000000000e+00 1.5592145499987291e+01 1.1414429218473961e+01 9.1846391297988070e+00 
88 1 2 1.0280009807844783e+00 -1.2237058069808036e+02 1.0000000000000000e+00 1.5071194178970314e+01 1.2320214950641047e+01 8.4165824703310790e+00 
138 1 2 1.0280067194428939e+00 -9.9017767033742558e+01 1.0000000000000000e+00 1.5144672544230014e+01 1.2838334336198233e+01 8.6934743971696840e+00 
133 1 2 1.0280277795428612e+00 -9.2389097000820414e+01 1.0000000000000000e+00 1.7198962236725919e+01 1.2502839435246495e+01 8.9908195989076543e+00 
53 1 2 1.0280277326434817e+00 -9.9340781528709357e+01 1.0000000000000000e+00 1.7199637832110458e+01 1.2504240986315081e+01 8.9914280194417557e+00 
6 1 2 1.0279755334297882e+00 -1.1570698696867805e+02 1.0000000000000000e+00 1.6162495379419457e+01 1.3603035359170072e+01 9.9980687503926386e+00 
13 1 2 1.0278973793682624e+00 -1.2643487360745011e+02 1.0000000000000000e+00 1.5687118933575407e+01 1.4339597225621455e+01 9.8160536141817314e+00 
166 1 2 1.0280295932192209e+00 -1.1854198712939122e+02 1.0000000000000000e+00 1.6227363444455328e+01 1.5663496709277570e+01 8.8540562823797373e+00 
2 1 2 1.0280371330955225e+00 -1.3681905718837189e+02 1.0000000000000000e+00 1.6181975828073615e+01 1.5767456704546207e+01 8.9865250536925334e+00 
89 1 2 1.0279767620377169e+00 -8.1350971586949157e+01 1.0000000000000000e+00 1.4446080168283654e+01 1.6234287330254698e+01 9.1120017166886349e+00 
37 1 2 1.0279867843079158e+00 -1.2051735192925452e+02 1.0000000000000000e+00 1.5501984296118620e+01 1.0093392635691130e+01 1.0976168220726883e+01 
151 1 2 1.0280672106232289e+00 -7.8147081587508183e+01 1.0000000000000000e+00 1.7699587398131904e+01 1.1306481331824038e+01 1.1063891394655979e+01 
109 1 2 1.0280583624500419e+00 -4.1449816520408611e+01 1.0000000000000000e+00 1.7722295304276223e+01 1.1315470163541136e+01 1.1112930039137819e+01 
74 1 2 1.0280190694844313e+00 -7.2867469130766068e+01 1.0000000000000000e+00 1.5749509732518602e+01 1.0299686441168896e+01 1.1965084858564603e+01 
101 1 2 1.0279460980752766e+00 -1.0777163246128778e+02 1.0000000000000000e+00 1.8020282439807879e+01 1.1980540574800873e+01 1.1167298731661058e+01 
48 1 2 1.0279505106951163e+00 -9.8460073733759629e+01 1.0000000000000000e+00 1.7082351724072844e+01 1.3057162010478987e+01 1.0316720541644225e+01 
79 1 2 1.0280149484053458e+00 -5.1475498391856526e+01 1.0000000000000000e+00 1.5003226950261238e+01 1.5114010037997105e+01 1.0034451467978307e+01 
62 1 2 1.0279099531386362e+00 -6.5534900312005902e+01 1.0000000000000000e+00 1.4552884676065583e+01 1.6257578443462453e+01 1.0341626148072081e+01 
61 1 2 1.0278910903370471e+00 -5.2827727790976716e+01 1.0000000000000000e+00 1.4194672562306629e+01 1.6780601055642901e+01 1.0802798945875340e+01 
180 1 2 1.0279813382292116e+00 -7.0713330989380879e+01 1.0000000000000000e+00 1.4563338127749443e+01 1.7811887620821068e+01 1.1946396087567903e+01 
121 1 2 1.0279759248166964e+00 -8.0764540512177078e+01 1.0000000000000000e+00 1.3709173907853515e+01 1.8607743215927574e+01 1.1801513872266627e+01 
21 1 2 1.0279982072028711e+00 -8.7685791544128563e+01 1.0000000000000000e+00 1.6853829590722722e+01 1.3021808389378295e+01 1.2110244067059005e+01 
115 1 2 1.0279825003128193e+00 -1.0395782519300816e+02 1.0000000000000000e+00 1.6276580736753370e+01 1.3222301403847791e+01 1.2577706252149383e+01 
25 1 2 1.0279823211206542e+00 -8.6785100727025707e+01 1.0000000000000000e+00 1.6275561798192548e+01 1.3228030917312303e+01 1.2584298359243222e+01 
167 1 2 1.0280403250242209e+00 -7.2509669257630392e+01 1.0000000000000000e+00 1.3957333076024417e+01 1.6651752172718968e+01 1.2290521982755187e+01 
156 1 2 1.0280403250303123e+00 -8.9624005438738422e+01 1.0000000000000000e+00 1.3957332585475527e+01 1.6651751777191041e+01 1.2290521424972377e+01 
43 1 2 1.0279727416989062e+00 -1.2124399259565359e+02 1.0000000000000000e+00 1.3641689972130440e+01 1.9151860037780583e+01 1.3017615627437339e+01 
118 1 2 1.0280103642921035e+00 -7.1069253925383549e+01 1.0000000000000000e+00 1.5465334123700368e+01 1.2506792119549955e+01 1.5496578286013978e+01 
50 1 2 1.0280016063623059e+00 -1.1544153719878993e+02 1.0000000000000000e+00 1.4045766546079896e+01 1.2444453937599063e+01 1.5696196160100001e+01 
58 1 2 1.0280006611061772e+00 -1.3335597996104741e+02 1.0000000000000000e+00 1.4029210267190917e+01 1.2442712792441759e+01 1.5711880248994790e+01 
107 1 2 1.0280134541309141e+00 -9.0123341829933807e+01 1.0000000000000000e+00 1.6096504239592775e+01 1.2570477214519128e+01 1.5081930447423066e+01 
68 1 2 1.0279868072666367e+00 -1.0900507716481367e+02 1.0000000000000000e+00 1.6410247822434300e+01 1.3493685450906698e+01 1.4531997031380335e+01 
42 1 2 1.0279916612100011e+00 -7.1517867957551246e+01 1.0000000000000000e+00 1.6389932344183578e+01 1.3502453288662101e+01 1.4552277968513280e+01 
135 1 2 1.0279857847839684e+00 -7.8814554930748443e+01 1.0000000000000000e+00 1.5482467471554413e+01 1.7342743395648036e+01 1.4787624814696306e+01 
123 1 2 1.0279997344056575e+00 -2.9232842326768594e+01 1.0000000000000000e+00 1.6018427935424352e+01 1.6591948215177307e+01 1.4024380759687071e+01 
106 1 2 1.0279994669985566e+00 -8.9719378702676153e+01 1.0000000000000000e+00 1.6039175795727473e+01 1.6582631775107970e+01 1.4031008116018674e+01 
158 1 2 1.0280131427996193e+00 -1.0180141810927695e+02 1.0000000000000000e+00 1.6486695532454895e+01 1.7273955861092599e+01 1.5436833028045017e+01 
116 1 2 1.0280128877564187e+00 -1.0403726858820767e+02 1.0000000000000000e+00 1.6495418905655576e+01 1.7283341018908068e+01 1.5427876840559341e+01 
90 1 2 1.0280053719664344e+00 -4.7786715388705339e+01 1.0000000000000000e+00 1.3778499463288984e+01 1.3125655058436354e+01 1.6606805517395333e+01 
137 1 2 1.0279990008469913e+00 -8.0134889942512970e+01 1.0000000000000000e+00 1.4158111711637678e+01 1.2277967385320943e+01 1.8129157034566813e+01 
173 1 2 1.0279899324292343e+00 -3.4550992716700655e+01 1.0000000000000000e+00 1.3929992852332552e+01 1.2122481840156933e+01 1.8085643235627995e+01 
134 1 2 1.0282406319962358e+00 -8.5406669828062689e+01 1.0000000000000000e+00 1.7122122695228281e+01 1.3565011409362992e+01 1.9794471088557657e+01 
125 1 2 1.0281205410912775e+00 -8.1199803858933180e+01 1.0000000000000000e+00 1.7346331391545579e+01 1.3646075910659828e+01 1.9905057774802863e+01 
54 1 2 1.0278139627063947e+00 -9.4205758430433875e+01 1.0000000000000000e+00 1.6447632392049272e+01 1.4706791401341471e+01 1.9593739607850456e+01 
30 1 2 1.0278422268104395e+00 -7.5639275507975981e+01 1.0000000000000000e+00 1.6353403828666845e+01 1.4677581670072573e+01 1.9684782523433999e+01 
94 1 2 1.0281147752338575e+00 -8.5817886765034629e+01 1.0000000000000000e+00 1.8536560152772292e+01 1.4348422004477541e+01 1.8301526685686770e+01 
69 1 2 1.0281153394442879e+00 -8.8108518368039086e+01 1.0000000000000000e+00 1.8537833271194422e+01 1.4348908192838433e+01 1.8301982422999753e+01 
12 1 2 1.0278316068943119e+00 -8.2593207272853689e+01 1.0000000000000000e+00 1.8599994963551051e+01 1.4581920116088424e+01 1.8807823028525071e+01 
85 1 2 1.0282606105951684e+00 -8.7910441365316302e+01 1.0000000000000000e+00 1.5593044924679397e+01 1.9276102495803229e+01 1.9404059495450070e+01 
75 1 2 1.0277490504316493e+00 -4.3798678894217019e+01 1.0000000000000000e+00 1.6013276678007415e+01 1.9244195766512547e+01 1.8274619196204082e+01 
92 1 2 1.0277490950020070e+00 -1.3817209633714359e+02 1.0000000000000000e+00 1.6013107352453417e+01 1.9245021493560170e+01 1.8274533081858245e+01 
144 1 2 1.0282610401371155e+00 -4.4137998531355464e+01 1.0000000000000000e+00 1.5596345359300651e+01 1.9277492186448846e+01 1.9405287394928525e+01 

Velocities

5 8.9424596352516532e-03 3.2519538315072212e-02 -2.1001247959870062e-01
19 8.9832542064504049e-03 3.2607716197126178e-02 -2.1004061872746568e-01
139 7.0034955577481491e-03 3.3352233068191316e-02 -2.0944636865925578e-01
41 6.9507942964017891e-03 3.3448646677733236e-02 -2.0935577920398923e-01
51 8.4276169568040255e-03 3.3714176893342836e-02 -2.0998409448867539e-01
10 7.5653713874889686e-02 1.2081525868370446e-01 -2.1219930756792199e-01
22 7.5103723366323080e-02 1.2354841735609855e-01 -2.0938325288743423e-01
55 8.0825542505553016e-02 1.2159951879769722e-01 -2.0919085557043687e-01
14 4.6468444860038857e-02 1.4431214415205628e-02 -1.4185510962379862e-02
97 4.6435724111448827e-02 1.6122354284962555e-02 -1.4339633967352810e-02
153 2.7094667831233130e-02 1.2429070917490419e-02 4.2471998722660668e-03
141 3.5299612612686791e-02 2.5842165703746957e-03 -2.9234399801813934e-03
154 3.8078102396187787e-02 7.9637494878354968e-03 4.5257698511822399e-03
83 -4.5426288808040234e-02 7.5857296714321759e-02 1.4155749290155079e-01
39 -4.4784181993772369e-02 7.6584862020362438e-02 1.4198424628700507e-01
52 -4.4765302926151662e-02 7.6104127326332441e-02 1.4225124355134644e-01
143 -4.6993515281254498e-02 7.4990766199144493e-02 1.4068648750957632e-01
127 -4.7458162532572824e-02 7.4936909978991662e-02 1.4041833144563104e-01
77 -4.6626013838223325e-02 7.4964628264215599e-02 1.4038821067007567e-01
8 -4.4825092460668334e-02 7.7667695721618135e-02 1.4132983747191619e-01
32 -4.4199727688967162e-02 7.7982650092124128e-02 1.4052453167829232e-01
142 -4.4197456395503751e-02 7.7989746935031037e-02 1.4051902548580644e-01
100 -4.4645169199865088e-02 7.7834509667429871e-02 1.4059113015105187e-01
35 1.3426017678073420e-02 -4.5533883487341463e-02 -1.4953157679987674e-02
76 9.7931237280147968e-03 -4.4855845643920707e-02 -1.7968627167276100e-02
174 1.4503319871844606e-02 -4.6408857122466819e-02 -1.4311311123110369e-02
93 9.9045898340909024e-03 -4.5951788777590680e-02 -1.7428194052776000e-02
78 2.1011239533233111e-02 -4.7063299165316555e-02 -9.3691920199295495e-03
47 2.3203621464070418e-02 -4.5628144864089920e-02 -9.0483896635680742e-03
131 2.6307223605029854e-02 -4.7517038750688752e-02 -1.4898162316368447e-02
87 3.6961362330466943e-02 -3.3944426371269189e-02 -2.6171252906471824e-02
177 3.4942585333014926e-02 -3.6887341405332903e-02 -2.2979048800816606e-02
98 3.4794033393572579e-02 -3.7014958619766794e-02 -2.3000286668074847e-02
146 3.6281922034340351e-02 -3.2293736407193518e-02 -2.9037597481612960e-02
44 3.8205717214157532e-02 -3.0741778385288895e-02 -2.8602389868058731e-02
104 4.6095503917861387e-02 1.6158350927034895e-02 -1.4464144693747046e-02
176 1.7637545260516124e-01 1.3713271964506679e-01 3.3451142592699074e-02
102 1.7638064495834574e-01 1.3709717496346902e-01 3.3476955172199126e-02
124 1.7638064464077174e-01 1.3709717523910220e-01 3.3476955488270191e-02
81 7.7936416012044943e-02 4.9747317265397023e-02 1.5789599962147108e-01
170 9.0888497908869770e-02 4.1736929844917038e-02 1.6621363365240321e-01
161 8.1750498433506069e-02 5.1027435184018241e-02 1.6358096690800128e-01