LAMMPS data file via write_data, version 30 Jul 2016, timestep = 50400000

3234 atoms
8 atom types

0.0000000000000000e+00 1.0000000000000000e+02 xlo xhi
0.0000000000000000e+00 4.0000000000000000e+01 ylo yhi
0.0000000000000000e+00 4.0000000000000000e+01 zlo zhi

Masses

1 3.896
2 5.36
3 20.064
4 8.378
5 8.378
6 8.378
7 8.378
8 8.378

Atoms # meso-molecular

806 807 2 1.0279999999999989e+00 -4.1440654374701771e+03 1.0000000000000000e+00 4.3912511923263700e+01 1.7697217363061128e+00 1.2466598870345165e+00 
1221 1222 2 1.0280000000000011e+00 1.0161597901739289e+03 1.0000000000000000e+00 4.4139863090949042e+01 2.0215650589018295e+00 1.1149095024045776e+00 
380 381 2 1.0279999999999974e+00 5.5377701250009386e+02 1.0000000000000000e+00 4.3989814334668765e+01 1.7729391030324817e+00 8.4876311170859053e-01 
3068 3069 2 1.0279999999999974e+00 -2.8193193072158419e+02 1.0000000000000000e+00 4.5513644081236478e+01 7.2421363135927319e-01 2.4177039000880862e+00 
1401 1402 2 1.0280000000000040e+00 -8.0679854432305656e+03 1.0000000000000000e+00 4.5940228856354793e+01 1.7737443867861080e+00 1.3045932102235154e+00 
1536 1537 2 1.0280000000000038e+00 9.9767724231558186e+03 1.0000000000000000e+00 4.6214222096458585e+01 2.4246411704892852e+00 1.9264724607655703e+00 
419 420 2 1.0280000000000029e+00 6.5481449604943555e+02 1.0000000000000000e+00 4.8709044687200127e+01 5.6769866448053474e-01 2.3274711434756141e+00 
504 505 2 1.0279999999999923e+00 4.7848454727974365e+02 1.0000000000000000e+00 4.9522685945497834e+01 4.1827685709651552e-01 9.0287246397091470e-01 
1812 1813 2 1.0280000000000025e+00 2.7218503663017378e+02 1.0000000000000000e+00 4.8319531615926607e+01 1.8214814860996293e+00 8.4554333291362749e-01 
461 462 2 1.0280000000000002e+00 3.3489230274244471e+02 1.0000000000000000e+00 4.8755848475306188e+01 2.3224392107574712e+00 8.5300057265673274e-02 
1497 1498 2 1.0279999999999920e+00 4.9882360040578724e+03 1.0000000000000000e+00 4.7261209638802569e+01 3.4732827525651437e+00 7.8019376677041341e-01 
2669 2670 2 1.0280000000000034e+00 -1.3513665851446103e+03 1.0000000000000000e+00 4.8695604682958113e+01 3.5433507854439190e+00 1.7826128434996966e+00 
189 190 2 1.0279999999999996e+00 2.5136190676052247e+03 1.0000000000000000e+00 4.8856420577584942e+01 4.4478780432925360e+00 2.4662847683463753e+00 
2670 2671 2 1.0279999999999991e+00 -3.3157774940235004e+03 1.0000000000000000e+00 4.9082199027604950e+01 4.8111014793261111e+00 2.4704218286985156e+00 
2957 2958 2 1.0279999999999989e+00 3.0629154575471267e+02 1.0000000000000000e+00 5.1407598696567042e+01 4.2147727755333602e+00 1.4258495138860756e+00 
3041 3042 2 1.0279999999999980e+00 3.4152134975726710e+02 1.0000000000000000e+00 5.1434691481834761e+01 4.1221501447216173e+00 1.3867900488885903e+00 
1561 1562 2 1.0280000000000014e+00 2.2217974466142055e+03 1.0000000000000000e+00 5.0783219421297808e+01 3.5175206987348142e+00 6.9099037950372544e-01 
821 822 2 1.0279999999999998e+00 -1.3392924483101961e+03 1.0000000000000000e+00 5.0430147106871551e+01 4.7789992006724011e+00 2.0271407124301497e+00 
2417 2418 2 1.0280000000000009e+00 -1.3275526020728976e+03 1.0000000000000000e+00 5.0695878378330221e+01 3.6517474612440677e+00 5.1429856076761593e-01 
3 4 2 1.0280000000000014e+00 -4.4757671745451134e+03 1.0000000000000000e+00 4.7120862374282609e+01 6.4202630966867229e+00 2.5381661713459303e-01 
1197 1198 2 1.0280000000000007e+00 6.1348411530098419e+03 1.0000000000000000e+00 4.8339930780839772e+01 6.0648505365581018e+00 9.6914044664260390e-01 
1212 1213 2 1.0280000000000002e+00 7.3044408698228617e+03 1.0000000000000000e+00 4.9415107354051955e+01 6.6483723873416647e+00 8.3594615563110419e-01 
2034 2035 2 1.0279999999999985e+00 8.2549603023592372e+03 1.0000000000000000e+00 4.8305108736503271e+01 5.1379841228610372e+00 6.9499589363060021e-01 
1091 1092 2 1.0279999999999982e+00 -1.2580423718061602e+03 1.0000000000000000e+00 5.0051774179747319e+01 7.4315381368465676e+00 8.1494458798821323e-01 
1403 1404 2 1.0280000000000007e+00 -1.1415552827760239e+03 1.0000000000000000e+00 4.6709728353772213e+01 8.2757995388499523e+00 9.5230802612672489e-03 
973 974 2 1.0279999999999958e+00 4.6697460442848833e+03 1.0000000000000000e+00 4.8314539183834007e+01 7.6810832420630613e+00 3.4004088070963329e-01 
497 498 2 1.0279999999999967e+00 -4.3086282614081383e+03 1.0000000000000000e+00 4.9523363002257916e+01 9.8444936524297137e+00 1.0860622858219748e-01 
1086 1087 2 1.0279999999999971e+00 -4.9273472943457837e+03 1.0000000000000000e+00 5.0652057121886784e+01 8.9517157133776397e+00 1.6380934962596292e+00 
1132 1133 2 1.0279999999999991e+00 -4.8428242821791082e+03 1.0000000000000000e+00 5.1173631979087460e+01 8.2500130764856952e+00 6.7315037627164553e-01 
1006 1007 2 1.0280000000000100e+00 -1.4300885187526587e+03 1.0000000000000000e+00 5.1370311618632911e+01 8.8163683757943616e+00 5.2710441178994238e-01 
177 178 2 1.0280000000000014e+00 -9.2137953740599892e+02 1.0000000000000000e+00 4.0021409639744668e+01 1.1763212082909495e+01 1.0706794698039610e+00 
143 144 2 1.0279999999999987e+00 2.5858778676207135e+03 1.0000000000000000e+00 4.0843857558280440e+01 1.1417918476604441e+01 2.1355836049774086e+00 
59 60 2 1.0279999999999994e+00 1.3311870631743186e+03 1.0000000000000000e+00 4.1572620451007190e+01 1.1551607447702846e+01 1.9599556630756474e+00 
68 69 2 1.0280000000000011e+00 1.2509593108186666e+03 1.0000000000000000e+00 4.2339996841449839e+01 1.1801379700120178e+01 5.3656779571998015e-01 
69 70 2 1.0279999999999996e+00 2.5034943063910378e+03 1.0000000000000000e+00 4.2835655974403700e+01 1.2237630687760602e+01 1.6336793468851556e+00 
898 899 2 1.0279999999999982e+00 9.2733577413975877e+02 1.0000000000000000e+00 4.2880242348763502e+01 1.2140716937460068e+01 1.4840504405265276e+00 
731 732 2 1.0280000000000002e+00 2.6678450079327486e+03 1.0000000000000000e+00 4.7137290396538098e+01 1.0592395182583912e+01 2.0683746750014635e+00 
1057 1058 2 1.0280000000000020e+00 -4.9791040930099298e+03 1.0000000000000000e+00 4.7179400567131886e+01 1.0333587629336726e+01 1.5713937582131823e+00 
2824 2825 2 1.0280000000000005e+00 2.1888955972378126e+03 1.0000000000000000e+00 4.7125244080539680e+01 1.0177168914081586e+01 1.3668429950171246e+00 
971 972 2 1.0279999999999989e+00 5.6255510468557932e+03 1.0000000000000000e+00 4.9881333785130892e+01 1.1145742497788650e+01 1.6755793907344003e+00 
4 5 2 1.0279999999999987e+00 -8.9945572353060061e+02 1.0000000000000000e+00 4.9723023033847291e+01 1.0432316280336709e+01 1.4087074355698757e+00 
550 551 2 1.0280000000000005e+00 -4.5732534207215231e+03 1.0000000000000000e+00 5.0734972682956652e+01 1.1510604929822566e+01 1.4040298077501769e+00 
2653 2654 2 1.0279999999999991e+00 -5.6057364236089234e+02 1.0000000000000000e+00 3.8588746846605396e+01 1.3092007237193311e+01 2.2540221735224844e+00 
2447 2448 2 1.0280000000000009e+00 -1.0686922390779878e+03 1.0000000000000000e+00 3.8619177087773501e+01 1.2933138654859343e+01 1.7521058760197452e+00 
43 44 2 1.0280000000000005e+00 1.5553203079345521e+03 1.0000000000000000e+00 3.9629366781430257e+01 1.2812399405910490e+01 1.2334664505604760e+00 
2577 2578 2 1.0279999999999996e+00 3.9695428084177247e+03 1.0000000000000000e+00 3.8471655988328052e+01 1.4979087893906854e+01 2.2998784883379826e+00 
638 639 2 1.0280000000000067e+00 -8.6260768877601811e+02 1.0000000000000000e+00 4.1967817112362553e+01 1.4357073261610079e+01 8.7769359145880144e-01 
136 137 2 1.0279999999999914e+00 -2.5568269121405074e+03 1.0000000000000000e+00 4.1996028838550352e+01 1.4284131270179969e+01 3.1996747628583738e-01 
16 17 2 1.0279999999999951e+00 3.7907009901875508e+03 1.0000000000000000e+00 4.4020989008298685e+01 1.3864717483992676e+01 1.5821696478224621e+00 
947 948 2 1.0280000000000040e+00 -1.1313048273440023e+04 1.0000000000000000e+00 4.5275229878397298e+01 1.4222441751682011e+01 1.6044828238682631e+00 
481 482 2 1.0280000000000067e+00 1.2792021454122992e+03 1.0000000000000000e+00 4.5894307339959326e+01 1.3870031389913411e+01 6.2254105317392161e-01 
21 22 2 1.0279999999999956e+00 1.8103036126631732e+03 1.0000000000000000e+00 4.7201478285021025e+01 1.2944361152980257e+01 3.9506517747709191e-01 
2369 2370 2 1.0279999999999934e+00 4.7143970295223853e+03 1.0000000000000000e+00 4.7546714520752204e+01 1.4992375850641457e+01 1.8252616193552595e+00 
745 746 2 1.0280000000000000e+00 -1.3348041585842964e+02 1.0000000000000000e+00 4.8431102866416744e+01 1.3405798054142720e+01 2.0506311807467297e+00 
978 979 2 1.0280000000000085e+00 5.2396463340289702e+03 1.0000000000000000e+00 4.9342234096587234e+01 1.4744180460938564e+01 2.2125568118930041e+00 
480 481 2 1.0279999999999523e+00 1.6013134017527655e+03 1.0000000000000000e+00 4.9043732784463359e+01 1.4025835242800641e+01 1.2470124142049355e-01 
487 488 2 1.0280000000000482e+00 1.6113279119785730e+03 1.0000000000000000e+00 4.9064574254308873e+01 1.4034609499037296e+01 1.4617869767565860e-02 
825 826 2 1.0280000000000009e+00 7.1205641637351482e+02 1.0000000000000000e+00 5.1459337396162745e+01 1.2806810848763817e+01 1.6797366655550627e+00 
470 471 2 1.0280000000000005e+00 -4.2645384372232638e+03 1.0000000000000000e+00 5.1699434310628241e+01 1.3809425176643884e+01 1.6674951262192308e+00 
495 496 2 1.0280000000000031e+00 -2.2463234028764132e+03 1.0000000000000000e+00 5.1376851801679969e+01 1.3033974806539232e+01 1.5096947763451599e-01 
80 81 2 1.0280000000000096e+00 4.9413328742307331e+03 1.0000000000000000e+00 5.2597073923222787e+01 1.4900251901408803e+01 9.4890145173236273e-01 
1522 1523 2 1.0280000000000000e+00 1.0741504746429075e+04 1.0000000000000000e+00 3.6767092757228284e+01 1.6851054779499705e+01 5.5456893751973302e-01 
1519 1520 2 1.0280000000000027e+00 -1.1888343135196637e+03 1.0000000000000000e+00 3.6608995246378861e+01 1.6824540794202413e+01 2.9980316566982218e-01 
2631 2632 2 1.0279999999999951e+00 -4.7085765758188081e+03 1.0000000000000000e+00 3.9263821178291664e+01 1.6403799092620261e+01 1.5253445432823383e+00 
2859 2860 2 1.0279999999999989e+00 2.7404495527602063e+02 1.0000000000000000e+00 3.9994359822543402e+01 1.7256703627159528e+01 1.1278193358404587e-01 
1819 1820 2 1.0279999999999974e+00 1.1768556966113083e+04 1.0000000000000000e+00 3.8796472512310714e+01 1.6126103600523333e+01 1.0765178800478756e-03 
428 429 2 1.0279999999999998e+00 1.9256069366980305e+03 1.0000000000000000e+00 4.1273468311346420e+01 1.5501331141283067e+01 1.0655143353740568e+00 
2908 2909 2 1.0279999999999976e+00 -2.5492313976496444e+03 1.0000000000000000e+00 4.1388309926366738e+01 1.6595367057043998e+01 1.7468420961780295e+00 
2486 2487 2 1.0279999999999982e+00 -8.5488179664046686e+02 1.0000000000000000e+00 4.1473719322877457e+01 1.6558055787398757e+01 1.8348018912734705e+00 
1205 1206 2 1.0279999999999969e+00 4.7579647057753264e+03 1.0000000000000000e+00 4.2796635002021766e+01 1.5480250662757458e+01 2.3003969236960229e+00 
2442 2443 2 1.0280000000000096e+00 -7.0865206783576541e+03 1.0000000000000000e+00 4.4892394932719839e+01 1.5511588124296697e+01 1.8496305194176419e+00 
2443 2444 2 1.0280000000000074e+00 -3.8012790644126244e+03 1.0000000000000000e+00 4.4771188070830938e+01 1.7075760488338343e+01 1.6498309993059470e+00 
1063 1064 2 1.0280000000000018e+00 -1.1450796056970207e+03 1.0000000000000000e+00 4.3890796750388624e+01 1.7228552743626501e+01 8.2406543531091003e-01 
1987 1988 2 1.0279999999999980e+00 -1.1257790571115993e+03 1.0000000000000000e+00 4.3710763314221872e+01 1.5164355147103423e+01 1.3962052578100881e-01 
2119 2120 2 1.0280000000000007e+00 9.1877269166701026e+03 1.0000000000000000e+00 4.3050764303293377e+01 1.5954089478179432e+01 9.6131341243546942e-02 
384 385 2 1.0279999999999840e+00 4.1822355954439900e+03 1.0000000000000000e+00 4.5997359525024365e+01 1.5603218030722417e+01 2.5714992971254325e-01 
519 520 2 1.0279999999999943e+00 6.1596963673384689e+03 1.0000000000000000e+00 4.6694798987176505e+01 1.7338332657788776e+01 9.7482996062132854e-01 
1185 1186 2 1.0279999999999958e+00 5.6639955700176524e+03 1.0000000000000000e+00 4.6206238361456414e+01 1.5427920679220618e+01 9.0492321632911654e-02 
134 135 2 1.0280000000000109e+00 -2.3497645263562326e+03 1.0000000000000000e+00 4.8102001417408701e+01 1.6464970432855093e+01 1.4772226210785462e+00 
813 814 2 1.0279999999999936e+00 -3.4903448958478120e+03 1.0000000000000000e+00 5.0008730261732580e+01 1.6168250918677174e+01 4.6572031721023782e-01 
1988 1989 2 1.0279999999999987e+00 3.8057852495729239e+03 1.0000000000000000e+00 5.0154956306884486e+01 1.5593282724332635e+01 4.1313276508280061e-01 
472 473 2 1.0280000000000009e+00 -2.3526270899528436e+03 1.0000000000000000e+00 5.2300892517440261e+01 1.5663734030832508e+01 2.2079549589202450e+00 
636 637 2 1.0280000000000002e+00 -3.6634975764340752e+03 1.0000000000000000e+00 5.2323594298386972e+01 1.5551517671852132e+01 2.1682423726646127e+00 
199 200 2 1.0280000000000047e+00 -3.0529477949689699e+03 1.0000000000000000e+00 5.1632723016801542e+01 1.7483728523496705e+01 2.0935213305975582e+00 
812 813 2 1.0279999999999929e+00 2.0325319705433068e+02 1.0000000000000000e+00 5.4450449849793877e+01 1.6448319714179927e+01 1.8138988765694017e-01 
726 727 2 1.0279999999999927e+00 -1.7769586374807551e+02 1.0000000000000000e+00 5.4431897957934005e+01 1.6433889244362444e+01 1.7443629266721467e-01 
618 619 2 1.0279999999999836e+00 -4.0537136121168724e+03 1.0000000000000000e+00 5.5652342383685806e+01 1.6984674600168823e+01 1.4321002960688391e-02 
944 945 2 1.0279999999999989e+00 -1.1324614146514232e+04 1.0000000000000000e+00 5.6975797798634574e+01 1.7188511883005031e+01 1.7467172780625000e+00 
1077 1078 2 1.0279999999999956e+00 1.1625794190608224e+03 1.0000000000000000e+00 5.7390257869497241e+01 1.7042899332865712e+01 2.2537530097462226e+00 
3028 3029 2 1.0280000000000111e+00 -5.1306674605092303e+02 1.0000000000000000e+00 3.7743367205500107e+01 1.8539698347524581e+01 8.9886948662776280e-03 
2151 2152 2 1.0279999999999971e+00 -2.6579471292937606e+03 1.0000000000000000e+00 4.2068586240745461e+01 1.9553809437418661e+01 1.5841542059283762e+00 
2573 2574 2 1.0279999999999991e+00 9.3164916149048338e+01 1.0000000000000000e+00 4.2065426725905795e+01 1.9824820449721212e+01 1.0055352867736649e+00 
3089 3090 2 1.0280000000000042e+00 -5.3860026708236796e+02 1.0000000000000000e+00 4.2035093728322366e+01 1.9822441421845088e+01 1.6785029091881046e-01 
2613 2614 2 1.0280000000000062e+00 -5.1900232873486111e+03 1.0000000000000000e+00 4.2387014168263484e+01 1.7977576680454252e+01 9.7791421510198262e-02 
2788 2789 2 1.0279999999999991e+00 3.7640030228103469e+03 1.0000000000000000e+00 4.3569855830812884e+01 1.8292883015503929e+01 8.9146022864724350e-01 
2820 2821 2 1.0279999999999965e+00 4.1120423976842858e+03 1.0000000000000000e+00 4.7107951409115351e+01 1.8153570372849568e+01 7.3158446864709581e-01 
347 348 2 1.0279999999999896e+00 -6.5839260579547845e+03 1.0000000000000000e+00 4.5492368071611068e+01 1.8613767137889095e+01 3.7414080608168737e-01 
2675 2676 2 1.0280000000000136e+00 2.2191658391711002e+02 1.0000000000000000e+00 4.7767331258221688e+01 1.8976413828571488e+01 1.3771619167334321e+00 
1893 1894 2 1.0280000000000020e+00 -1.3565816714851917e+03 1.0000000000000000e+00 4.8790104893402571e+01 1.9178360341597074e+01 2.3314440336557531e+00 
1939 1940 2 1.0280000000000049e+00 -6.0947381240923442e+03 1.0000000000000000e+00 4.9630983205102432e+01 1.9656572338563670e+01 3.5403110504762875e-01 
2593 2594 2 1.0279999999999851e+00 -1.4154536784410817e+02 1.0000000000000000e+00 4.8400395409837415e+01 1.9606598136359668e+01 3.1293935179840204e-01 
2971 2972 2 1.0279999999999707e+00 -3.0590794025369514e+03 1.0000000000000000e+00 5.0374576790958017e+01 1.8287455686432523e+01 2.3107528485650923e+00 
2584 2585 2 1.0280000000000060e+00 3.4090539800437155e+03 1.0000000000000000e+00 5.1398044002637818e+01 1.8002348025095007e+01 1.7616270370590703e+00 
2317 2318 2 1.0280000000000045e+00 1.5039856984428543e+03 1.0000000000000000e+00 5.1288509856414201e+01 1.9604814201159897e+01 1.7681660608203222e+00 
984 985 2 1.0279999999999885e+00 5.2806222878053859e+02 1.0000000000000000e+00 5.3418593494342218e+01 1.9240265168731209e+01 6.3203266089309162e-01 
2583 2584 2 1.0280000000000074e+00 3.5386396922448621e+03 1.0000000000000000e+00 5.3679647832174602e+01 1.9498414075612388e+01 2.0512913851675827e+00 
109 110 2 1.0280000000000120e+00 -7.7889982140044849e+03 1.0000000000000000e+00 5.5956930752243238e+01 1.8456164162916231e+01 1.4536687040963453e-01 
2849 2850 2 1.0280000000000096e+00 3.7973084798197597e+03 1.0000000000000000e+00 5.6408172110325403e+01 1.8645716192460796e+01 1.5166526042838910e+00 
657 658 2 1.0280000000000016e+00 1.2638689209805734e+03 1.0000000000000000e+00 5.6119099981668420e+01 1.8075221294505763e+01 2.4735498495567554e+00 
3135 3136 2 1.0280000000000007e+00 -9.2219619316686621e+03 1.0000000000000000e+00 5.8737826559196542e+01 1.7699279872355170e+01 4.4222929177193648e-01 
366 367 2 1.0279999999999985e+00 -7.1825878721519803e+03 1.0000000000000000e+00 5.9108146913308119e+01 1.7571709980615353e+01 1.4311275034069353e+00 
446 447 2 1.0280000000000025e+00 2.4347632458211378e+03 1.0000000000000000e+00 5.9272741052739278e+01 1.8159758105658415e+01 1.9863407628295537e+00 
27 28 2 1.0280000000000011e+00 3.7247645489814322e+03 1.0000000000000000e+00 5.9858432381783487e+01 1.8417681488359939e+01 2.8505252443969326e-01 
498 499 2 1.0280000000000102e+00 1.4717962705054224e+03 1.0000000000000000e+00 6.0063782575131931e+01 1.9903425226828045e+01 5.9568560366606138e-01 
2682 2683 2 1.0279999999999949e+00 -5.4176601370290996e+02 1.0000000000000000e+00 6.1782962887710433e+01 1.8046016486575688e+01 6.2929266394650440e-01 
2006 2007 2 1.0279999999999994e+00 -1.2874241664167205e+03 1.0000000000000000e+00 6.1434824694281133e+01 1.8368168177730361e+01 1.1663231004040571e+00 
2468 2469 2 1.0280000000000034e+00 -1.0683250461591579e+03 1.0000000000000000e+00 6.3144852171942723e+01 1.8934588088998158e+01 6.9265858164661198e-01 
746 747 2 1.0280000000000005e+00 -4.4396504281458974e+01 1.0000000000000000e+00 6.2437039292354640e+01 1.9065942814889954e+01 1.5437340294683255e+00 
1702 1703 2 1.0279999999999960e+00 4.8057891237850890e+03 1.0000000000000000e+00 4.7039041859727952e+01 1.2165179522945699e+00 3.4818867860696590e+00 
1790 1791 2 1.0280000000000022e+00 8.2737320122670712e+02 1.0000000000000000e+00 4.7479895934826502e+01 3.8749105378958726e-01 4.7948802944404356e+00 
541 542 2 1.0280000000000016e+00 8.0410048033321686e+02 1.0000000000000000e+00 4.6892521947181436e+01 2.4212095935671067e+00 3.9593969933733582e+00 
1000 1001 2 1.0280000000000027e+00 2.3843286662307291e+03 1.0000000000000000e+00 4.8498173148602447e+01 6.0792806781027930e-01 2.7546301995642049e+00 
833 834 2 1.0279999999999914e+00 -4.0961210915442061e+03 1.0000000000000000e+00 4.8934143079513255e+01 3.9002819375294351e-01 4.4979264125823235e+00 
910 911 2 1.0280000000000005e+00 1.8933291736079659e+03 1.0000000000000000e+00 4.7189694423092753e+01 4.4042793636193380e+00 2.7191014518489776e+00 
1408 1409 2 1.0279999999999969e+00 -4.2369825506765865e+03 1.0000000000000000e+00 4.5705757001108267e+01 3.1457897199080662e+00 2.8819724227793504e+00 
1117 1118 2 1.0280000000000029e+00 8.2321601442176361e+03 1.0000000000000000e+00 4.6154491482895445e+01 4.3735315517685853e+00 3.2617847178938444e+00 
1818 1819 2 1.0279999999999987e+00 8.0682557260432277e+03 1.0000000000000000e+00 4.6033602332363159e+01 4.2539352001316173e+00 3.6451649799016974e+00 
1217 1218 2 1.0279999999999971e+00 7.8142400185564475e+03 1.0000000000000000e+00 4.6910851702393643e+01 3.2415678502145644e+00 4.1854500529978163e+00 
1452 1453 2 1.0280000000000007e+00 -3.9410712655333473e+03 1.0000000000000000e+00 4.7154211699884804e+01 6.6188329153308318e+00 4.4753711820798339e+00 
1343 1344 2 1.0280000000000007e+00 4.3014722453915283e+03 1.0000000000000000e+00 4.8079018877541444e+01 6.6466278514749666e+00 4.4785411566674247e+00 
1008 1009 2 1.0280000000000009e+00 1.4716090842006797e+03 1.0000000000000000e+00 4.8933870896339563e+01 7.3710268611013765e+00 3.1587562403968295e+00 
2121 2122 2 1.0279999999999976e+00 6.0466199231737955e+03 1.0000000000000000e+00 4.8203609146874200e+01 7.3962334567206476e+00 4.6006843340597658e+00 
2347 2348 2 1.0279999999999989e+00 -2.0032234265271647e+03 1.0000000000000000e+00 5.0128800633925628e+01 6.5885634120523022e+00 3.9616111967971057e+00 
499 500 2 1.0279999999999991e+00 -2.0034620755309711e+03 1.0000000000000000e+00 5.0172405218650098e+01 6.5917763041463964e+00 3.9521893280387026e+00 
1351 1352 2 1.0280000000000005e+00 -1.8924339110272617e+03 1.0000000000000000e+00 5.2088337020330201e+01 6.5752446708095276e+00 4.0603019575634418e+00 
2147 2148 2 1.0280000000000000e+00 -9.5239202765555819e+02 1.0000000000000000e+00 5.2133559545006818e+01 6.4533853036423618e+00 4.9906559654901361e+00 
2105 2106 2 1.0279999999999998e+00 2.7303838213623300e+02 1.0000000000000000e+00 5.2326180650507482e+01 6.4124109763325254e+00 4.7408309847145578e+00 
1004 1005 2 1.0279999999999996e+00 5.6673292522155443e+03 1.0000000000000000e+00 4.9530089815186734e+01 7.8522416589972082e+00 2.8227963553155635e+00 
1665 1666 2 1.0279999999999994e+00 9.5491042442766047e+03 1.0000000000000000e+00 4.9822708273651017e+01 9.1252276994665742e+00 4.0890746662186652e+00 
1709 1710 2 1.0280000000000014e+00 2.6445475301507686e+03 1.0000000000000000e+00 5.0248164395580318e+01 9.0837066241624900e+00 3.6486944634396101e+00 
1470 1471 2 1.0279999999999998e+00 -7.7989446501478665e+02 1.0000000000000000e+00 5.1583285688800643e+01 8.4944563657671086e+00 3.9729498262041552e+00 
1729 1730 2 1.0280000000000034e+00 -6.2941646184050023e+02 1.0000000000000000e+00 5.2773367786893083e+01 8.7240879670197753e+00 4.6711416751140327e+00 
1808 1809 2 1.0279999999999989e+00 -1.0233179190977000e+03 1.0000000000000000e+00 5.3194979165304879e+01 8.2362070388356319e+00 4.8931851350502349e+00 
1639 1640 2 1.0279999999999980e+00 -3.3272798876156537e+02 1.0000000000000000e+00 5.3241140964298339e+01 8.1341845212974011e+00 4.8474626007197470e+00 
725 726 2 1.0279999999999994e+00 7.3767058452787822e+01 1.0000000000000000e+00 3.9540489192566341e+01 1.1703290334355019e+01 2.5416330212537135e+00 
2127 2128 2 1.0279999999999998e+00 6.6642999355032844e+03 1.0000000000000000e+00 4.7473290113394853e+01 1.1009280190864157e+01 2.9224783403718892e+00 
730 731 2 1.0280000000000034e+00 1.5410150740203817e+03 1.0000000000000000e+00 4.7631616053406042e+01 1.1517765589835188e+01 3.5675662668158603e+00 
1474 1475 2 1.0280000000000020e+00 -2.4141629176560900e+03 1.0000000000000000e+00 4.8614448009841993e+01 1.1523635868624220e+01 4.2225450117911505e+00 
1183 1184 2 1.0279999999999996e+00 7.2795173044746953e+03 1.0000000000000000e+00 4.9948047116046155e+01 1.0938671471299726e+01 3.8929473789627558e+00 
2678 2679 2 1.0280000000000014e+00 -3.8091810824430422e+03 1.0000000000000000e+00 5.0880001881965690e+01 1.1241050707239607e+01 2.8820240463371753e+00 
1052 1053 2 1.0280000000000018e+00 -1.2923550845297054e+03 1.0000000000000000e+00 5.1215118460512912e+01 1.2102600451758407e+01 3.0999960670311242e+00 
2663 2664 2 1.0280000000000016e+00 1.5668836475935512e+01 1.0000000000000000e+00 3.8361298806396050e+01 1.4936489624188562e+01 2.5277439545980469e+00 
1985 1986 2 1.0279999999999998e+00 -1.3981987947722496e+03 1.0000000000000000e+00 3.9833776102414490e+01 1.2571535273967278e+01 2.7547521651642470e+00 
14 15 2 1.0280000000000049e+00 4.0534252089551564e+03 1.0000000000000000e+00 4.3629960490231973e+01 1.3835917261910462e+01 2.7296802300423861e+00 
595 596 2 1.0280000000000027e+00 -3.8276007149624443e+03 1.0000000000000000e+00 4.3996044302495896e+01 1.4222787216926875e+01 3.8860370963400590e+00 
2412 2413 2 1.0279999999999991e+00 -3.2484620604743077e+03 1.0000000000000000e+00 4.4246571384719317e+01 1.4219334158039931e+01 4.1194772910725126e+00 
1066 1067 2 1.0279999999999978e+00 1.1992795067498712e+03 1.0000000000000000e+00 4.5544047369923362e+01 1.3881266935903826e+01 4.0762097699069235e+00 
940 941 2 1.0280000000000049e+00 -1.0423760891346032e+04 1.0000000000000000e+00 4.6508777599904249e+01 1.3609165911151212e+01 3.6083034682633386e+00 
2493 2494 2 1.0279999999999971e+00 4.0322162181802050e+03 1.0000000000000000e+00 4.7575747247575528e+01 1.3737858514298406e+01 4.5602732683071485e+00 
183 184 2 1.0279999999999925e+00 -8.8006189616842062e+02 1.0000000000000000e+00 4.7072393346293914e+01 1.4482442668912833e+01 3.2423510113340694e+00 
827 828 2 1.0280000000000051e+00 2.2983724853427381e+02 1.0000000000000000e+00 4.8062742018335499e+01 1.3172808187915587e+01 2.5699574316994847e+00 
1483 1484 2 1.0279999999999867e+00 -2.5817994581831745e+03 1.0000000000000000e+00 4.9815881294744180e+01 1.3473038247672839e+01 2.8189735079465525e+00 
275 276 2 1.0279999999999985e+00 1.5735276225752250e+03 1.0000000000000000e+00 5.0824975946177076e+01 1.3697260960591205e+01 3.9441493111537964e+00 
1268 1269 2 1.0280000000000067e+00 -5.2189976772458067e+02 1.0000000000000000e+00 5.1165760689376846e+01 1.3804085221582193e+01 3.5732342045277918e+00 
1104 1105 2 1.0280000000000002e+00 6.4933086808067692e+03 1.0000000000000000e+00 3.5493910299602909e+01 1.7255406761984460e+01 3.2671893674156443e+00 
267 268 2 1.0280000000000005e+00 -9.0224621461695028e+02 1.0000000000000000e+00 3.5493192785114871e+01 1.7310119724500364e+01 3.2825236355563754e+00 
1435 1436 2 1.0280000000000000e+00 -1.9412586472092130e+03 1.0000000000000000e+00 3.5482387318282647e+01 1.7350095371940675e+01 3.2463924685383558e+00 
1030 1031 2 1.0279999999999994e+00 -2.1006411655975944e+03 1.0000000000000000e+00 3.7669351429293762e+01 1.5818599883813260e+01 2.9982142799552745e+00 
1727 1728 2 1.0280000000000000e+00 -3.8557732000620786e+03 1.0000000000000000e+00 3.8279408052889742e+01 1.7047436125713311e+01 2.5467757072687864e+00 
1682 1683 2 1.0280000000000027e+00 -1.8795776390118732e+02 1.0000000000000000e+00 3.8413527041809807e+01 1.7028203636845600e+01 2.6863936915996454e+00 
2483 2484 2 1.0279999999999969e+00 3.4724311111710867e+03 1.0000000000000000e+00 3.9042748935600635e+01 1.6266433483576687e+01 4.0232084975778939e+00 
1105 1106 2 1.0279999999999998e+00 4.5521093593530377e+03 1.0000000000000000e+00 3.9435033966214895e+01 1.5174180985881474e+01 4.6362124132263469e+00 
1771 1772 2 1.0280000000000016e+00 -1.9232167744095436e+03 1.0000000000000000e+00 3.9600833665982307e+01 1.6702799201426775e+01 4.9980163422396648e+00 
3200 3201 2 1.0279999999999869e+00 1.9322516944555696e+03 1.0000000000000000e+00 4.2698530315162010e+01 1.6354208030535915e+01 4.7252646707309687e+00 
783 784 2 1.0279999999999905e+00 -4.7348479531351368e+03 1.0000000000000000e+00 4.3547493921698177e+01 1.5762006952448361e+01 3.0226342266595223e+00 
564 565 2 1.0280000000000216e+00 -3.2550588157594148e+03 1.0000000000000000e+00 4.4044036134977091e+01 1.6895981220742716e+01 4.2608914796946431e+00 
2906 2907 2 1.0279999999999954e+00 -2.2654654643833637e+03 1.0000000000000000e+00 4.7556384108008814e+01 1.6755696259171806e+01 2.6319814287235230e+00 
889 890 2 1.0279999999999945e+00 1.5782834595679926e+03 1.0000000000000000e+00 4.8783881974423011e+01 1.6099062236116126e+01 2.5505873307923337e+00 
351 352 2 1.0279999999999985e+00 -1.0522959963127447e+04 1.0000000000000000e+00 5.0057549314899319e+01 1.5949415957810357e+01 3.9973522549482570e+00 
2657 2658 2 1.0280000000000025e+00 -4.0330644318108907e+03 1.0000000000000000e+00 5.0121466650603551e+01 1.5992209311646597e+01 3.8603663457490325e+00 
522 523 2 1.0279999999999969e+00 7.1507061644094138e+03 1.0000000000000000e+00 5.1418888275199294e+01 1.5460590847671266e+01 4.4791494287773332e+00 
533 534 2 1.0280000000000002e+00 3.2914113025258648e+03 1.0000000000000000e+00 5.1766609182698787e+01 1.6812064531510561e+01 4.9068574119668433e+00 
928 929 2 1.0280000000000027e+00 -1.5763117032464988e+03 1.0000000000000000e+00 5.2253727737263674e+01 1.7491295754343930e+01 3.0073822360080746e+00 
596 597 2 1.0280000000000005e+00 -1.4320384891487561e+03 1.0000000000000000e+00 5.3413335430501917e+01 1.5181914384590888e+01 3.7334199323584274e+00 
1098 1099 2 1.0280000000000007e+00 -1.1550787295329142e+03 1.0000000000000000e+00 5.3427213983966098e+01 1.5231692741099353e+01 3.7057959688412518e+00 
1925 1926 2 1.0279999999999963e+00 8.8631520590431101e+03 1.0000000000000000e+00 5.4624914014222099e+01 1.6108090021821958e+01 4.3030494009309548e+00 
1999 2000 2 1.0280000000000025e+00 1.3553864609558461e+03 1.0000000000000000e+00 5.6222214326662979e+01 1.6694990869347745e+01 3.5652002721700051e+00 
1044 1045 2 1.0279999999999989e+00 -6.1779321581016611e+03 1.0000000000000000e+00 5.5642506624073370e+01 1.7326771359529552e+01 4.5141956526535081e+00 
951 952 2 1.0279999999999976e+00 -1.0477395421563062e+04 1.0000000000000000e+00 5.7451709289097302e+01 1.6479250964387575e+01 4.1113559858977782e+00 
1085 1086 2 1.0280000000000005e+00 -6.2425313186640833e+03 1.0000000000000000e+00 5.7542372660655843e+01 1.6482579217073031e+01 4.5883599311238310e+00 
1120 1121 2 1.0280000000000000e+00 2.9672769450080054e+03 1.0000000000000000e+00 5.9625467158773780e+01 1.7415917593274624e+01 4.1703919391323820e+00 
1954 1955 2 1.0279999999999978e+00 -2.0703233362320898e+03 1.0000000000000000e+00 3.6290328412717791e+01 1.7522783088424553e+01 2.9599145868263204e+00 
599 600 2 1.0280000000000007e+00 -1.0715756673551928e+03 1.0000000000000000e+00 4.2167408291691039e+01 1.9077747829805180e+01 2.9273737709118022e+00 
805 806 2 1.0280000000000005e+00 -5.6230259049719371e+02 1.0000000000000000e+00 4.2072611659223519e+01 1.9061637301442939e+01 2.9732306633142072e+00 
1061 1062 2 1.0280000000000089e+00 -1.3940193051974838e+03 1.0000000000000000e+00 4.1526577090809269e+01 1.7655132010979457e+01 3.2613236022439964e+00 
2815 2816 2 1.0279999999999969e+00 1.5435065762023739e+03 1.0000000000000000e+00 4.1786724237165473e+01 1.7956273211045858e+01 3.8747410580365216e+00 