LAMMPS data file via write_data, version 30 Jul 2016, timestep = 50000000

3234 atoms
8 atom types

0.0000000000000000e+00 1.0000000000000000e+02 xlo xhi
0.0000000000000000e+00 4.0000000000000000e+01 ylo yhi
0.0000000000000000e+00 4.0000000000000000e+01 zlo zhi

Masses

1 3.896
2 5.36
3 20.064
4 8.378
5 8.378
6 8.378
7 8.378
8 8.378

Atoms # meso-molecular

2423 2424 2 1.0280000000028113e+00 6.1596785490914026e+03 1.0000000000000000e+00 1.5271707792944456e+01 1.6512074227364355e+01 3.3124347780271520e+01 
1879 1880 2 1.0279999999912739e+00 -3.4705097478095759e+03 1.0000000000000000e+00 1.4805258411134048e+01 1.6576091356883328e+01 3.3025970306590914e+01 
2665 2666 2 1.0280000000068694e+00 1.0573977629419507e+04 1.0000000000000000e+00 1.5630731186601503e+01 1.6755310814164162e+01 3.3378683063481589e+01 
2976 2977 2 1.0279999999726337e+00 -1.5571865894068276e+02 1.0000000000000000e+00 1.4485930255355623e+01 1.6806418742648837e+01 3.3032984113495196e+01 
1914 1915 2 1.0279999999919289e+00 6.9989908281097742e+03 1.0000000000000000e+00 1.4918459625969513e+01 1.6914288413447036e+01 3.2774807725129712e+01 
1868 1869 2 1.0280000000081733e+00 -6.6263043542056175e+03 1.0000000000000000e+00 1.5739756714206042e+01 1.7070224969697115e+01 3.3302187399491949e+01 
2290 2291 2 1.0279999999633274e+00 -6.2919941665954411e+03 1.0000000000000000e+00 1.0094964926339246e+01 1.9872811828127649e+01 3.4136556947033029e+01 
1210 1211 2 1.0280000000482619e+00 6.4148695252785001e+03 1.0000000000000000e+00 9.9006907912691808e+00 1.9970041656698694e+01 3.4200145159049292e+01 
2840 2841 2 1.0279999999845886e+00 -7.5408320316835088e+03 1.0000000000000000e+00 1.2433868783158205e+01 1.8273321426913807e+01 3.2220313753015510e+01 
526 527 2 1.0279999999901741e+00 6.1472405330933980e+03 1.0000000000000000e+00 1.2246532377453216e+01 1.8398272565967865e+01 3.2217025313874458e+01 
2968 2969 2 1.0279999999941527e+00 -9.6018729514738043e+03 1.0000000000000000e+00 1.2385273838368699e+01 1.8771316467031539e+01 3.1914521976571940e+01 
196 197 2 1.0280000000073586e+00 -9.7062275998040241e+03 1.0000000000000000e+00 1.3009838673266337e+01 1.9605979710995740e+01 3.2084540883022449e+01 
1193 1194 2 1.0280000000062943e+00 8.1521944272675619e+03 1.0000000000000000e+00 1.3187731173401051e+01 1.9621557896224225e+01 3.2275859069403879e+01 
2117 2118 2 1.0280000000067933e+00 8.2630319393607351e+03 1.0000000000000000e+00 1.3206557253668583e+01 1.9666514362682044e+01 3.2419541616624429e+01 
3043 3044 2 1.0280000000130467e+00 -2.5215814812496808e+02 1.0000000000000000e+00 1.2882145256454288e+01 1.9819395863955243e+01 3.3140033704487564e+01 
812 813 2 1.0279999999861842e+00 6.2109970345812017e+03 1.0000000000000000e+00 1.2775023225795866e+01 1.7680386159321404e+01 3.4993718224502594e+01 
1104 1105 2 1.0280000000044949e+00 1.2015169621968922e+04 1.0000000000000000e+00 1.1574634680705467e+01 1.8140410002726462e+01 3.4380589446904999e+01 
91 92 2 1.0280000000023284e+00 3.6978626389965093e+03 1.0000000000000000e+00 1.1550089650246523e+01 1.8144114213030353e+01 3.4315865934597525e+01 
2957 2958 2 1.0280000000131027e+00 -5.5445962084736020e+03 1.0000000000000000e+00 1.1606366497418444e+01 1.8249010420100714e+01 3.4625498106610443e+01 
1311 1312 2 1.0280000000259055e+00 7.5896063210827997e+03 1.0000000000000000e+00 1.3342291925911248e+01 1.8665842079303143e+01 3.5410161921090349e+01 
276 277 2 1.0280000000262188e+00 1.5048655087917570e+02 1.0000000000000000e+00 1.3382944488503249e+01 1.8695281070734360e+01 3.5399505995652213e+01 
441 442 2 1.0279999999796705e+00 7.0739902658221854e+03 1.0000000000000000e+00 1.3765256884336484e+01 1.7601327076539238e+01 3.4981030231579190e+01 
3130 3131 2 1.0280000000202101e+00 3.5913444444493371e+03 1.0000000000000000e+00 1.3775468126674456e+01 1.9025510155498196e+01 3.5129443351119562e+01 
3018 3019 2 1.0279999999964873e+00 -1.4250852549667852e+03 1.0000000000000000e+00 1.6124664129192670e+01 1.8763201807511535e+01 3.5095940672576120e+01 
2947 2948 2 1.0279999999979812e+00 -8.2180900905556030e+01 1.0000000000000000e+00 1.6108980171669373e+01 1.8808903198503430e+01 3.5088463729772805e+01 
175 176 2 1.0279999999992566e+00 -8.7305125857225931e+01 1.0000000000000000e+00 1.6091442137574916e+01 1.8834494911222805e+01 3.5106221345578859e+01 
2958 2959 2 1.0280000000033525e+00 -6.4374819788740933e+03 1.0000000000000000e+00 1.6023049030546463e+01 1.8898852158540173e+01 3.5181263309875831e+01 
2288 2289 2 1.0280000000042024e+00 -6.7278487580877991e+03 1.0000000000000000e+00 1.6005980869939005e+01 1.8910584921119117e+01 3.5197809179083869e+01 
229 230 2 1.0280000000026766e+00 -3.7631026082486023e+03 1.0000000000000000e+00 8.1423526181818584e+00 2.5030457875293148e+01 2.8112271123809691e+01 
1150 1151 2 1.0280000000375475e+00 -1.3571268512619245e+04 1.0000000000000000e+00 7.2412166292051934e+00 2.5539449332709228e+01 2.8524966468249705e+01 
2439 2440 2 1.0280000000022425e+00 6.2508916242579744e+03 1.0000000000000000e+00 8.0990891462612495e+00 2.5706836769763015e+01 2.7984235384622284e+01 
939 940 2 1.0280000000157690e+00 -8.9559404056633309e+02 1.0000000000000000e+00 9.2631834296782785e+00 2.5163940213528942e+01 2.8380067811124718e+01 
2070 2071 2 1.0280000000265781e+00 -4.3404064986582016e+03 1.0000000000000000e+00 9.2632663865789002e+00 2.5515452207522639e+01 2.8407939964497153e+01 
2543 2544 2 1.0280000000095300e+00 -1.3865590292190927e+02 1.0000000000000000e+00 8.5186024133452722e+00 2.5924777282764452e+01 2.8128023228256311e+01 
1277 1278 2 1.0280000000133471e+00 2.1298939212530843e+02 1.0000000000000000e+00 4.9471072748165854e+00 2.5238830530592981e+01 2.9976694690775652e+01 
390 391 2 1.0279999999502396e+00 -4.1433929426330978e+03 1.0000000000000000e+00 4.2910231754753152e+00 2.5406702147615139e+01 2.9993550228847809e+01 
2705 2706 2 1.0279999999333933e+00 2.4438304958353151e+03 1.0000000000000000e+00 4.0157898338688272e+00 2.5424050997843487e+01 3.0054636398566739e+01 
2578 2579 2 1.0280000000940781e+00 -9.7015748604649325e+03 1.0000000000000000e+00 5.6696270667061102e+00 2.5184728079370242e+01 3.0083140399370457e+01 
2627 2628 2 1.0280000003103358e+00 3.5794948097744032e+02 1.0000000000000000e+00 6.9810418618791692e+00 2.5570250948079028e+01 2.9682202181394583e+01 
2303 2304 2 1.0279999999844358e+00 -3.3276328441482901e+03 1.0000000000000000e+00 9.7776371545773042e+00 2.4309587957816277e+01 3.0150116282467557e+01 
1984 1985 2 1.0279999998965323e+00 2.1493055424376680e+03 1.0000000000000000e+00 9.3712235875383438e+00 2.4465187237430904e+01 3.0420836517960140e+01 
2364 2365 2 1.0279999998833955e+00 1.7658066926054018e+03 1.0000000000000000e+00 9.3909950480048199e+00 2.4538434489986837e+01 3.0646452883547997e+01 
995 996 2 1.0280000001677072e+00 7.0096162609044113e+03 1.0000000000000000e+00 1.0207868721429584e+01 2.5289706381471778e+01 2.9885370507163703e+01 
2714 2715 2 1.0279999999887115e+00 2.4237378943083440e+03 1.0000000000000000e+00 1.1351720381757664e+01 2.4344581332266856e+01 3.0520234002134281e+01 
1263 1264 2 1.0279999999949223e+00 -2.0401026745661607e+03 1.0000000000000000e+00 1.1731728228892003e+01 2.4464887522395930e+01 3.0683713390005142e+01 
2667 2668 2 1.0280000000500749e+00 1.1078990482225767e+04 1.0000000000000000e+00 1.2725154453735151e+01 2.5552941712578775e+01 3.1013753980802658e+01 
2437 2438 2 1.0279999999009188e+00 2.5996482041687564e+03 1.0000000000000000e+00 1.5970476131166349e+00 2.6731264944739564e+01 2.9669921123620643e+01 
2563 2564 2 1.0279999998797871e+00 -2.4380564606665092e+02 1.0000000000000000e+00 1.9303787166534836e+00 2.7140417104401667e+01 2.9323478432978110e+01 
2626 2627 2 1.0279999999961129e+00 1.7820344998354656e+03 1.0000000000000000e+00 2.3823256814515337e+00 2.5993160238109123e+01 3.0067892515086982e+01 
2689 2690 2 1.0279999999905411e+00 -1.8951041803905892e+02 1.0000000000000000e+00 2.4525113620625287e+00 2.6000562724560563e+01 3.0013453994065575e+01 
3083 3084 2 1.0279999998874298e+00 1.1890841693828434e+03 1.0000000000000000e+00 2.8831260704850870e-02 2.7563922787755232e+01 3.0794448077219759e+01 
810 811 2 1.0279999999269780e+00 9.2047607240118177e+03 1.0000000000000000e+00 2.3898622473480438e+00 2.7957521633679335e+01 2.9324423393692243e+01 
885 886 2 1.0280000002243024e+00 3.9852486312622937e+03 1.0000000000000000e+00 4.8059528691305129e+00 2.7443340499690770e+01 3.1028957866740740e+01 
630 631 2 1.0279999996255207e+00 2.5967921246162487e+03 1.0000000000000000e+00 7.1247585831893412e+00 2.5987842738913120e+01 2.9663918211560137e+01 
3027 3028 2 1.0279999998903511e+00 1.6443648592199074e+03 1.0000000000000000e+00 6.1606007363352306e+00 2.6713519791855891e+01 2.9927568286754628e+01 
2149 2150 2 1.0280000001017824e+00 1.6006580252947833e+03 1.0000000000000000e+00 5.9303341195826746e+00 2.8175789173006706e+01 3.1073557473216692e+01 
2074 2075 2 1.0280000000146601e+00 -1.3573297271764437e+04 1.0000000000000000e+00 7.9008876128305792e+00 2.8499192177547179e+01 3.1397434533793191e+01 
591 592 2 1.0280000000123655e+00 6.1995200917055336e+03 1.0000000000000000e+00 7.9309595162081212e+00 2.8488327534061362e+01 3.1408022408872554e+01 
2608 2609 2 1.0280000000548344e+00 4.7460582163283361e+03 1.0000000000000000e+00 6.5605076686168733e+00 2.8567700401049706e+01 3.1153385145963597e+01 
143 144 2 1.0280000000483416e+00 1.1900897822596696e+03 1.0000000000000000e+00 1.2104949776864331e+01 2.6023955131588480e+01 3.0612794496031583e+01 
1228 1229 2 1.0279999999885769e+00 2.1780899015628297e+03 1.0000000000000000e+00 1.2525061842339769e+01 2.7846831148555740e+01 3.1292866629454547e+01 
1183 1184 2 1.0279999999967198e+00 9.2390077744006908e+02 1.0000000000000000e+00 1.2952947512096456e+01 2.7891331410181362e+01 3.1334364817654201e+01 
464 465 2 1.0279999999912013e+00 -8.9152955463326034e+03 1.0000000000000000e+00 1.6528506096764726e+01 2.7268616582614204e+01 3.1026316441748094e+01 
12 13 2 1.0279999999912077e+00 7.4398693869801809e+03 1.0000000000000000e+00 1.6534225021591240e+01 2.7274049164164300e+01 3.1027129163612084e+01 
555 556 2 1.0279999999972467e+00 8.1968817089780587e+03 1.0000000000000000e+00 1.6976447080325489e+01 2.7331407283474142e+01 3.1047656303139739e+01 
776 777 2 1.0280000000065053e+00 2.7089295001690897e+02 1.0000000000000000e+00 1.7141510473644587e+01 2.6077200108415212e+01 3.1330817438651792e+01 
3161 3162 2 1.0279999999906935e+00 -4.7460469890755876e+03 1.0000000000000000e+00 2.0602220552807886e+01 2.7221403392517558e+01 3.0894588176579450e+01 
2907 2908 2 1.0279999999962839e+00 6.8028988466877945e+03 1.0000000000000000e+00 2.0478612311266090e+01 2.8039354062575171e+01 3.0518142865250656e+01 
2658 2659 2 1.0279999999971399e+00 9.1499407184026968e+03 1.0000000000000000e+00 2.0596671310604627e+01 2.8071915031380545e+01 3.0470382566024917e+01 
2983 2984 2 1.0280000000015641e+00 -3.3716537825014357e+03 1.0000000000000000e+00 2.1604197489329675e+01 2.8116568887655763e+01 3.0755957771303450e+01 
3003 3004 2 1.0280000000015941e+00 2.8644784486812177e+03 1.0000000000000000e+00 2.1598757482925961e+01 2.8116795702223047e+01 3.0749470199266430e+01 
759 760 2 1.0280000000006808e+00 6.2206244525543370e+03 1.0000000000000000e+00 2.1756299554891907e+01 2.8120532267780813e+01 3.0978904774610392e+01 
231 232 2 1.0280000000567742e+00 2.8667858051771782e+03 1.0000000000000000e+00 1.3246900306054257e+00 2.9032479777374309e+01 2.9553530666234430e+01 
2087 2088 2 1.0280000000523339e+00 -1.1348088180001287e+04 1.0000000000000000e+00 1.3844457412741449e+00 2.9045677876653880e+01 2.9562256811325085e+01 
598 599 2 1.0280000000129099e+00 3.7482378394612451e+03 1.0000000000000000e+00 2.4961832263181072e+00 2.8940690670651360e+01 3.0261055575756586e+01 
2691 2692 2 1.0280000000124991e+00 -6.5166186243640441e+03 1.0000000000000000e+00 2.5125189367877345e+00 2.8928860507324629e+01 3.0275489897663167e+01 
1222 1223 2 1.0280000000815708e+00 -1.0660013628173019e+03 1.0000000000000000e+00 1.1709016374479780e-01 2.8827007083385670e+01 3.1201833184517636e+01 
2228 2229 2 1.0280000000536818e+00 2.6278597561033184e+03 1.0000000000000000e+00 6.5982504816686118e+00 2.8581751036326150e+01 3.1170708433076456e+01 
301 302 2 1.0279999998345526e+00 1.8355333012558422e+03 1.0000000000000000e+00 8.2249749128044485e+00 2.2076079239952609e+01 3.2899235743357615e+01 
729 730 2 1.0279999999026930e+00 -1.2021685652268981e+04 1.0000000000000000e+00 9.7035235121746872e+00 2.0071341003241020e+01 3.3915663016768740e+01 
3213 3214 2 1.0279999998248204e+00 6.9545125504744756e+03 1.0000000000000000e+00 9.8999026972503810e+00 2.0527969290680506e+01 3.3918248677336557e+01 
3115 3116 2 1.0279999999518783e+00 3.6026963296202252e+03 1.0000000000000000e+00 9.9194065855416866e+00 2.0412911220765185e+01 3.4132796530262205e+01 
218 219 2 1.0280000001246659e+00 -5.8951657083876626e+02 1.0000000000000000e+00 9.3797903256185347e+00 2.2649676008611323e+01 3.2430548709555083e+01 
133 134 2 1.0280000001259613e+00 1.8468263492649412e+03 1.0000000000000000e+00 9.3814936252608625e+00 2.2656584022825438e+01 3.2428312880634039e+01 
2069 2070 2 1.0280000001391640e+00 -9.9600551292330383e+03 1.0000000000000000e+00 9.3999883718836212e+00 2.2729158242691703e+01 3.2396002543516289e+01 
2988 2989 2 1.0280000000125777e+00 -6.1989342623298126e+03 1.0000000000000000e+00 4.9009438775505458e+00 2.4311891341444586e+01 3.3447862889193615e+01 
553 554 2 1.0280000000181868e+00 5.8309581392493992e+03 1.0000000000000000e+00 4.9651394855385824e+00 2.4329641158342596e+01 3.3475590013274342e+01 
145 146 2 1.0279999999889695e+00 1.7494935933849656e+03 1.0000000000000000e+00 4.7391500453086932e+00 2.4503857367944391e+01 3.1629279366984100e+01 
968 969 2 1.0279999998941556e+00 2.6383061346048635e+03 1.0000000000000000e+00 4.5422094432799076e+00 2.4581268167351354e+01 3.3235704891883138e+01 
2196 2197 2 1.0280000000130751e+00 6.3327463173352930e+02 1.0000000000000000e+00 5.2886684965590174e+00 2.4224488641326214e+01 3.3453594581992505e+01 
2530 2531 2 1.0279999999522731e+00 -1.2172934932297035e+03 1.0000000000000000e+00 5.6677912204797911e+00 2.4276958345151908e+01 3.3247046472791546e+01 
2401 2402 2 1.0279999998357996e+00 5.8286814658790299e+03 1.0000000000000000e+00 7.9225283049415927e+00 2.3201900042326759e+01 3.2377856260857286e+01 
705 706 2 1.0279999998870901e+00 -1.1757563346121606e+03 1.0000000000000000e+00 7.9674570680828394e+00 2.3277134713473750e+01 3.2187985984604957e+01 
682 683 2 1.0279999998852789e+00 -1.1893319064571760e+03 1.0000000000000000e+00 7.9713041565091762e+00 2.3291702027784677e+01 3.2197419808372601e+01 
1903 1904 2 1.0280000000082088e+00 4.6552119183381683e+03 1.0000000000000000e+00 5.6966634617479768e+00 2.4661767300237575e+01 3.2017981132585575e+01 
2605 2606 2 1.0279999999939720e+00 2.5454259773319109e+03 1.0000000000000000e+00 1.1887443562129370e+01 2.4616944436214560e+01 3.1574128114021157e+01 
2089 2090 2 1.0279999999534739e+00 -4.3413518675482683e+03 1.0000000000000000e+00 1.1150529246419966e+01 2.5563462619806732e+01 3.2263776691674074e+01 
2400 2401 2 1.0279999999679386e+00 4.6964966225245871e+03 1.0000000000000000e+00 1.1526009403095523e+01 2.5705941719204048e+01 3.2404661867153827e+01 
353 354 2 1.0280000000062701e+00 4.7879431406456979e+03 1.0000000000000000e+00 1.3603251266240253e+00 2.6882430250860061e+01 3.2082399226789207e+01 
2496 2497 2 1.0279999999910037e+00 -9.7769942740118913e+03 1.0000000000000000e+00 1.1832879111147507e+00 2.6952415753103374e+01 3.1998761986051548e+01 
610 611 2 1.0279999999746856e+00 1.7567033675787520e+03 1.0000000000000000e+00 1.0340713551666292e+00 2.7713541974078893e+01 3.2146231696156853e+01 
388 389 2 1.0279999999854077e+00 -3.8186432992164282e+03 1.0000000000000000e+00 2.3117353148498583e+00 2.8218464898094357e+01 3.2040333624308580e+01 
1912 1913 2 1.0279999999860763e+00 5.1945913614552155e+03 1.0000000000000000e+00 2.7204636598052168e+00 2.6075742523274343e+01 3.1924857207247008e+01 
2919 2920 2 1.0279999998860729e+00 -2.3735336287498608e+03 1.0000000000000000e+00 3.7013163609549879e+00 2.6697637557494442e+01 3.2136468527697787e+01 
2920 2921 2 1.0279999999867946e+00 -2.3759707803462934e+03 1.0000000000000000e+00 3.2805091718006580e+00 2.6837806203093695e+01 3.2225426626598697e+01 
440 441 2 1.0280000000755860e+00 7.2349995737689878e+03 1.0000000000000000e+00 4.4594131944185840e+00 2.7178175343225043e+01 3.1623973439356106e+01 
778 779 2 1.0280000000398539e+00 1.7295412682955589e+03 1.0000000000000000e+00 6.5631548107868056e+00 2.7340235230167504e+01 3.1580381433359729e+01 
1098 1099 2 1.0279999999907998e+00 -2.1647591483170709e+03 1.0000000000000000e+00 9.5862319658087518e+00 2.7276914640912597e+01 3.2304494788691628e+01 
516 517 2 1.0280000000666980e+00 1.6485968310451744e+03 1.0000000000000000e+00 9.9541339831465390e+00 2.7274708267796200e+01 3.2535055584110573e+01 
2108 2109 2 1.0279999999850895e+00 -1.9502627352577833e+03 1.0000000000000000e+00 9.5499394558077473e+00 2.7294690674150353e+01 3.2285859360688036e+01 
1262 1263 2 1.0279999999902061e+00 -4.8360468942354682e+03 1.0000000000000000e+00 9.5526650256908905e+00 2.7297471115137004e+01 3.2290227183749877e+01 
299 300 2 1.0279999999946945e+00 2.5978182769588166e+03 1.0000000000000000e+00 8.4851146328935876e+00 2.8209959993785390e+01 3.1585265642133191e+01 
2820 2821 2 1.0280000000564911e+00 -3.7088840652625258e+03 1.0000000000000000e+00 1.3053277707827236e+01 2.5848099288323876e+01 3.1532064685101044e+01 
1128 1129 2 1.0279999999981280e+00 9.6957143979054126e+02 1.0000000000000000e+00 1.3217085517418541e+01 2.7069195743658543e+01 3.2766125433566621e+01 
1379 1380 2 1.0280000000606988e+00 -3.3336961692081359e+03 1.0000000000000000e+00 1.1593422110480905e+01 2.8057636232517414e+01 3.2602534015516476e+01 
1273 1274 2 1.0280000000368636e+00 7.8173460045616380e+01 1.0000000000000000e+00 1.2166554436261144e+01 2.8246862383927798e+01 3.2595542667378083e+01 
634 635 2 1.0280000000348788e+00 -4.1350325732215060e+03 1.0000000000000000e+00 1.2233894555372210e+01 2.8264778151483437e+01 3.2605310076465116e+01 
2148 2149 2 1.0280000000103429e+00 2.2019185094928812e+03 1.0000000000000000e+00 1.6008824894835364e+01 2.5878028587336331e+01 3.1968815254762955e+01 
2732 2733 2 1.0279999999816274e+00 -8.9152435793488075e+03 1.0000000000000000e+00 1.5640351345608837e+01 2.6226260258106311e+01 3.2557310293454030e+01 
360 361 2 1.0279999999750788e+00 6.3384501806095204e+03 1.0000000000000000e+00 1.5598413993078200e+01 2.6304895460757990e+01 3.2628392558383446e+01 
384 385 2 1.0279999999661862e+00 -3.6784334092519994e+03 1.0000000000000000e+00 1.4132178392230532e+01 2.7859033081387295e+01 3.1675020582472591e+01 
718 719 2 1.0279999999769895e+00 -4.1765461365549390e+03 1.0000000000000000e+00 1.5270458342017747e+01 2.8027048457281847e+01 3.3590207327047025e+01 
2000 2001 2 1.0280000000123279e+00 -1.1718066893798691e+03 1.0000000000000000e+00 1.6999632770358929e+01 2.5999431767169288e+01 3.2833532734783816e+01 
988 989 2 1.0280000000141403e+00 5.2347251495595519e+03 1.0000000000000000e+00 1.7872268035300024e+01 2.6654648876305316e+01 3.3025357755597575e+01 
2614 2615 2 1.0280000000190399e+00 3.8055637706979278e+03 1.0000000000000000e+00 1.8204765716057732e+01 2.6758837768611297e+01 3.2899521463066257e+01 
1156 1157 2 1.0279999999950766e+00 -2.7851908146182477e+03 1.0000000000000000e+00 1.8699362713460172e+01 2.7337006794057967e+01 3.1678791634853496e+01 
1983 1984 2 1.0280000000392893e+00 5.4495507990332289e+03 1.0000000000000000e+00 1.9333471228118224e+01 2.7186603153861800e+01 3.2792234400658607e+01 
1280 1281 2 1.0280000000063363e+00 -1.9225323029455490e+02 1.0000000000000000e+00 2.0069786951882769e+01 2.6907459462357917e+01 3.2819973426309566e+01 
3164 3165 2 1.0279999999927678e+00 -3.8495563204605860e+03 1.0000000000000000e+00 2.1660506060834020e+01 2.7143946399332762e+01 3.3675507757465532e+01 
1902 1903 2 1.0279999999923717e+00 6.0914602548289804e+03 1.0000000000000000e+00 2.2044567782408219e+01 2.7273283081160876e+01 3.3320565449611436e+01 
568 569 2 1.0279999999946876e+00 1.1065931294064252e+04 1.0000000000000000e+00 2.1558369600420171e+01 2.7298420442811921e+01 3.3934237364616337e+01 
664 665 2 1.0279999999931784e+00 -9.9775621049078518e+02 1.0000000000000000e+00 2.2138633879046239e+01 2.7384055423320383e+01 3.3317485939211451e+01 
799 800 2 1.0280000000368215e+00 2.7467591587189099e+03 1.0000000000000000e+00 1.3376863738420306e+00 2.9010664646352829e+01 3.1468535604329574e+01 
2580 2581 2 1.0280000000423319e+00 -9.7271934364220579e+03 1.0000000000000000e+00 1.4807820899491272e+01 2.9064506199564299e+01 3.2491458358042806e+01 
1935 1936 2 1.0280000000558474e+00 -1.9932262835545907e+03 1.0000000000000000e+00 1.4753824715320478e+01 2.9077652938834081e+01 3.3127567714001493e+01 
971 972 2 1.0280000000648675e+00 2.6067122005502197e+03 1.0000000000000000e+00 1.4619050267700539e+01 2.8926870787199682e+01 3.3176985697889954e+01 
2921 2922 2 1.0279999999932887e+00 1.4404839399099978e+02 1.0000000000000000e+00 1.6059709139669955e+01 2.8773188729231084e+01 3.3853863502109547e+01 
1151 1152 2 1.0279999999656737e+00 -1.1943679739917105e+04 1.0000000000000000e+00 1.7209975216409561e+01 2.9206365030658809e+01 3.3067217758959707e+01 
700 701 2 1.0279999999885971e+00 -4.6890227627011627e+03 1.0000000000000000e+00 1.6956491642275012e+01 2.9445357269406603e+01 3.2933230393478077e+01 
3072 3073 2 1.0279999999885947e+00 4.6345715351498775e+03 1.0000000000000000e+00 1.6956515275121593e+01 2.9445341737034070e+01 3.2933256886435672e+01 
2548 2549 2 1.0279999999885912e+00 -4.7964402942349225e+03 1.0000000000000000e+00 1.6956535022460923e+01 2.9445328759405800e+01 3.2933279078363483e+01 
2312 2313 2 1.0279999999972609e+00 -8.8920825411701098e+03 1.0000000000000000e+00 2.0175053587798541e+01 2.8987005468641939e+01 3.2208033149769015e+01 
56 57 2 1.0280000000048291e+00 -3.8576059364146913e+03 1.0000000000000000e+00 1.9866465013693098e+01 2.8664294846752902e+01 3.3173043116399320e+01 
430 431 2 1.0280000000067306e+00 6.0471111788780108e+03 1.0000000000000000e+00 2.1046486540042306e+01 2.9436286955732708e+01 3.3535999253687997e+01 
2210 2211 2 1.0280000000062295e+00 1.8323430274948447e+02 1.0000000000000000e+00 2.1625179790823385e+01 2.9351952183077792e+01 3.3618187222982939e+01 
3162 3163 2 1.0280000000061342e+00 -4.2127810864693784e+03 1.0000000000000000e+00 2.1641689457926603e+01 2.9343134693168455e+01 3.3622696337278732e+01 
3094 3095 2 1.0280000000055916e+00 1.2548174667147696e+03 1.0000000000000000e+00 2.1499263179088540e+01 2.9096240247106973e+01 3.4079201078892964e+01 
2762 2763 2 1.0279999999421365e+00 8.1483420037753567e+03 1.0000000000000000e+00 6.2621459249633711e+00 2.1094230761607157e+01 3.4491255667561433e+01 
3167 3168 2 1.0279999999578031e+00 -7.4798248751760639e+03 1.0000000000000000e+00 7.5375735986740748e+00 2.1257639420635499e+01 3.4504130370319665e+01 
2235 2236 2 1.0280000001570517e+00 7.5367881603540372e+03 1.0000000000000000e+00 7.9807818989843371e+00 2.0777869746646996e+01 3.4686565694040091e+01 
2660 2661 2 1.0279999999947347e+00 6.1621320274656264e+03 1.0000000000000000e+00 6.3353535262393663e+00 2.0290132095092137e+01 3.5632479553312422e+01 
416 417 2 1.0280000000018645e+00 -5.7054475369296360e+03 1.0000000000000000e+00 6.5511390634836690e+00 2.0381604567114437e+01 3.5749928538938853e+01 
821 822 2 1.0280000000072460e+00 1.1939127722849429e+04 1.0000000000000000e+00 6.6955716302566266e+00 2.0486049037475755e+01 3.5788975285842199e+01 
2865 2866 2 1.0279999999758747e+00 5.4387813937590308e+03 1.0000000000000000e+00 6.0829006447211356e+00 2.0874935085732510e+01 3.4582540365234998e+01 
106 107 2 1.0279999999897618e+00 3.4300747276177258e+03 1.0000000000000000e+00 5.8941015177998963e+00 2.0960416493496432e+01 3.5196149346761153e+01 
1584 1585 2 1.0279999999934677e+00 -4.2681887108704977e+03 1.0000000000000000e+00 5.2944243846698811e+01 6.5661847749945279e-01 2.0467952442808555e+00 
1567 1568 2 1.0280000000047174e+00 -4.2878649579093308e+03 1.0000000000000000e+00 5.4516534661716733e+01 1.4328469511989186e+00 1.4625306647151552e+00 
1514 1515 2 1.0280000000021878e+00 1.4243734493083148e+03 1.0000000000000000e+00 5.4378205180804535e+01 6.7953297175354610e-01 9.2720250254485159e-01 
1743 1744 2 1.0279999999991898e+00 -5.8771063487010588e+03 1.0000000000000000e+00 5.4292288455322470e+01 2.7640379027600287e-01 7.3342208078373461e-01 
2264 2265 2 1.0280000000391469e+00 2.7079361993181692e+03 1.0000000000000000e+00 5.8109740155650449e+01 1.9277192721559697e+00 2.1249118913310165e+00 
2672 2673 2 1.0279999999702452e+00 1.1886289102841043e+04 1.0000000000000000e+00 5.7058362672415278e+01 2.3482583836977389e+00 9.1176463882655367e-01 
2797 2798 2 1.0280000000181446e+00 8.4663683157792293e+03 1.0000000000000000e+00 5.8046816698655881e+01 4.7797163089925060e-01 2.5994625127016371e+00 
2663 2664 2 1.0279999999215075e+00 1.1894986342911208e+04 1.0000000000000000e+00 5.8626767965377894e+01 1.1267035791287294e+00 1.8374681449546557e+00 
3217 3218 2 1.0279999999860596e+00 8.5171111590711098e+03 1.0000000000000000e+00 6.0536691738911323e+01 1.0482911383851690e+00 1.7058246798308705e+00 
2179 2180 2 1.0280000001619700e+00 2.2086774977183104e+03 1.0000000000000000e+00 6.0918241020993484e+01 2.3570421267024417e+00 5.0929707710726280e-01 
2142 2143 2 1.0279999999529232e+00 -1.6275314647837217e+03 1.0000000000000000e+00 5.9599293980181557e+01 2.3192752142664168e+00 1.5871906533523095e-01 
1249 1250 2 1.0279999999993010e+00 1.1306920085271631e+03 1.0000000000000000e+00 6.0874467407726200e+01 3.7790226651874100e-02 7.4108888839881260e-01 
2007 2008 2 1.0280000000484324e+00 2.1432899970064464e+03 1.0000000000000000e+00 6.1362244077949825e+01 2.7161486101645402e+00 2.5337439680807012e+00 
659 660 2 1.0279999999935983e+00 -1.2945284366163636e+04 1.0000000000000000e+00 6.3780670920052344e+01 8.8439117670039902e-01 2.6574298847328741e+00 
665 666 2 1.0279999999931837e+00 -1.3902869693708381e+03 1.0000000000000000e+00 6.3803291264221230e+01 8.2716093521171352e-01 2.6366227210171456e+00 
743 744 2 1.0279999999699534e+00 -1.2918691464781756e+04 1.0000000000000000e+00 6.3421545940963327e+01 1.0979424998151048e+00 7.2820835479007084e-01 
2175 2176 2 1.0279999999056499e+00 2.1178835880636166e+03 1.0000000000000000e+00 6.3897524097682471e+01 2.7997736080504469e+00 2.1376193335598170e+00 
1045 1046 2 1.0280000001603031e+00 -7.3974462090811471e+02 1.0000000000000000e+00 6.4329226331063907e+01 2.0548008658653534e+00 4.9835708127385492e-01 
2600 2601 2 1.0280000000166292e+00 2.1668767085656286e+03 1.0000000000000000e+00 6.4926067787297328e+01 1.6762023499041128e+00 8.6433606457313306e-01 
2833 2834 2 1.0279999999611711e+00 -4.8042056331040440e+03 1.0000000000000000e+00 6.5290653950673970e+01 1.2816210211081203e-01 1.7979052220418570e+00 
1580 1581 2 1.0279999999967884e+00 -3.8189639829137832e+02 1.0000000000000000e+00 6.4295815964526440e+01 1.2272336972700960e-01 8.9831447546730381e-01 
2647 2648 2 1.0279999999998255e+00 2.6729619037827674e+03 1.0000000000000000e+00 4.4327024988580568e+01 3.1908569242886560e+00 2.0911126102441511e+00 
2690 2691 2 1.0280000000046634e+00 1.0010154181011862e+04 1.0000000000000000e+00 4.2866888874082953e+01 3.3034897185806513e+00 2.7913945906674567e+00 
2407 2408 2 1.0279999999996667e+00 7.8012357419725595e+03 1.0000000000000000e+00 4.4254608770985499e+01 3.4696147466257701e+00 1.9520479481241315e+00 
2424 2425 2 1.0280000000034117e+00 7.7923525686305475e+03 1.0000000000000000e+00 4.5346288833737333e+01 3.6186697780044903e+00 1.6432032436139103e+00 
307 308 2 1.0280000000042537e+00 9.8976618784533434e+02 1.0000000000000000e+00 4.5458023534872630e+01 3.6426919782631741e+00 1.6379635732906157e+00 
2874 2875 2 1.0280000000102538e+00 3.1876484041287376e+03 1.0000000000000000e+00 4.6395283375349138e+01 4.0109623952617977e+00 1.6422492201294230e+00 
3139 3140 2 1.0280000000098735e+00 3.2599662217328560e+03 1.0000000000000000e+00 4.6445296387218526e+01 4.6112425884528738e+00 1.6322565205087955e+00 
1535 1536 2 1.0280000000042928e+00 5.3605951426285428e+03 1.0000000000000000e+00 4.7400374132341284e+01 5.4619800761886221e+00 1.7192430102502583e+00 
1217 1218 2 1.0280000000047329e+00 3.8298337293348741e+03 1.0000000000000000e+00 4.7758154836780044e+01 4.6611089089597755e+00 1.2129807087682576e+00 
589 590 2 1.0279999999960330e+00 2.6191953834010346e+03 1.0000000000000000e+00 4.8699442321441779e+01 4.2315525542620147e+00 2.6899432069982718e+00 
3066 3067 2 1.0280000000004137e+00 4.0329238909524588e+02 1.0000000000000000e+00 4.8664493641591676e+01 4.8163720505004797e+00 8.7012725804958102e-01 
1510 1511 2 1.0279999999846186e+00 -7.6679499785509834e+03 1.0000000000000000e+00 5.2762584496960912e+01 2.8636010019018405e+00 1.7585900067206808e+00 
1718 1719 2 1.0279999999990679e+00 -8.3302164271501465e+02 1.0000000000000000e+00 5.2331483257231881e+01 3.1018470557276014e+00 7.6001788220627831e-01 
348 349 2 1.0279999999974592e+00 3.2653668831413752e+03 1.0000000000000000e+00 5.0266725666942584e+01 4.1674077827128215e+00 5.2109543840516537e-01 
2102 2103 2 1.0279999999977729e+00 3.7984111316793596e+03 1.0000000000000000e+00 5.0343053094818956e+01 4.1258344292574858e+00 4.7288634513698841e-01 
2683 2684 2 1.0280000000014149e+00 4.6789097623057924e+03 1.0000000000000000e+00 5.1971994258095073e+01 5.4078369814727560e+00 6.7996431311623717e-01 
1618 1619 2 1.0280000000012941e+00 -1.7169766757914855e+04 1.0000000000000000e+00 5.2058273937651677e+01 5.3005906035086126e+00 5.1071810157700637e-01 
2730 2731 2 1.0279999999995728e+00 -1.3206014374154120e+02 1.0000000000000000e+00 5.0643285749416293e+01 3.9051608085965062e+00 3.5642831211342357e-01 
503 504 2 1.0280000000085914e+00 -8.9201074226524524e+03 1.0000000000000000e+00 5.3169038129088285e+01 4.8485988325282499e+00 6.6525437217566330e-01 
922 923 2 1.0280000000388687e+00 3.9403807115931495e+03 1.0000000000000000e+00 5.3730811589900085e+01 5.6091028745235905e+00 2.4886325892620764e+00 