LAMMPS data file via write_data, version 30 Jul 2016, timestep = 50400000

3234 atoms
8 atom types

0.0000000000000000e+00 1.0000000000000000e+02 xlo xhi
0.0000000000000000e+00 4.0000000000000000e+01 ylo yhi
0.0000000000000000e+00 4.0000000000000000e+01 zlo zhi

Masses

1 3.896
2 5.36
3 20.064
4 8.378
5 8.378
6 8.378
7 8.378
8 8.378

Atoms # meso-molecular

2423 2424 2 1.0280000000026341e+00 6.1596785490914026e+03 1.0000000000000000e+00 1.5271515564537887e+01 1.6511374170188365e+01 3.3124143615273766e+01 
1879 1880 2 1.0279999999918408e+00 -3.4705097478095759e+03 1.0000000000000000e+00 1.4805066573967613e+01 1.6575392260386298e+01 3.3025766589791928e+01 
2665 2666 2 1.0280000000064125e+00 1.0573977629419507e+04 1.0000000000000000e+00 1.5630539399756673e+01 1.6754610346121137e+01 3.3378478777505208e+01 
2976 2977 2 1.0279999999743887e+00 -1.5571865894068276e+02 1.0000000000000000e+00 1.4485739565754397e+01 1.6805720634103263e+01 3.3032781023116812e+01 
1914 1915 2 1.0279999999924372e+00 6.9989908281097742e+03 1.0000000000000000e+00 1.4918267668114938e+01 1.6913588875985244e+01 3.2774604352760015e+01 
1868 1869 2 1.0280000000076384e+00 -6.6263043542056175e+03 1.0000000000000000e+00 1.5739565212472955e+01 1.7069524560582835e+01 3.3301982968136208e+01 
2290 2291 2 1.0279999999661473e+00 -6.2919941665954411e+03 1.0000000000000000e+00 1.0094792896720563e+01 1.9872146907720214e+01 3.4136364872420479e+01 
1210 1211 2 1.0280000000451031e+00 6.4148695252785001e+03 1.0000000000000000e+00 9.9005208816087897e+00 1.9969376840272030e+01 3.4199954636985325e+01 
2840 2841 2 1.0279999999856280e+00 -7.5408320316835088e+03 1.0000000000000000e+00 1.2433680539450060e+01 1.8272629133855109e+01 3.2220112240761338e+01 
526 527 2 1.0279999999908951e+00 6.1472405330933980e+03 1.0000000000000000e+00 1.2246344226003902e+01 1.8397580525243363e+01 3.2216823766455434e+01 
2968 2969 2 1.0279999999945866e+00 -9.6018729514738043e+03 1.0000000000000000e+00 1.2385085231918735e+01 1.8770623579540075e+01 3.1914320201091520e+01 
196 197 2 1.0280000000068614e+00 -9.7062275998040241e+03 1.0000000000000000e+00 1.3009649827789231e+01 1.9605286735599911e+01 3.2084337664394745e+01 
1193 1194 2 1.0280000000058416e+00 8.1521944272675619e+03 1.0000000000000000e+00 1.3187542487322551e+01 1.9620864838280294e+01 3.2275655912540550e+01 
2117 2118 2 1.0280000000062983e+00 8.2630319393607351e+03 1.0000000000000000e+00 1.3206368616232574e+01 1.9665821501727862e+01 3.2419338553384605e+01 
3043 3044 2 1.0280000000122829e+00 -2.5215814812496808e+02 1.0000000000000000e+00 1.2881956527618321e+01 1.9818705672315424e+01 3.3139831876512694e+01 
812 813 2 1.0279999999870866e+00 6.2109970345812017e+03 1.0000000000000000e+00 1.2774834885591771e+01 1.7679692941984509e+01 3.4993515230056403e+01 
1104 1105 2 1.0280000000041600e+00 1.2015169621968922e+04 1.0000000000000000e+00 1.1574447027278607e+01 1.8139723416298747e+01 3.4380388764905348e+01 
91 92 2 1.0280000000021614e+00 3.6978626389965093e+03 1.0000000000000000e+00 1.1549902139626614e+01 1.8143427902560703e+01 3.4315665252319491e+01 
2957 2958 2 1.0280000000121292e+00 -5.5445962084736020e+03 1.0000000000000000e+00 1.1606178424470899e+01 1.8248323679602780e+01 3.4625297839058646e+01 
1311 1312 2 1.0280000000241998e+00 7.5896063210827997e+03 1.0000000000000000e+00 1.3342103000103224e+01 1.8665147684553112e+01 3.5409961528655792e+01 
276 277 2 1.0280000000245000e+00 1.5048655087917570e+02 1.0000000000000000e+00 1.3382755619834962e+01 1.8694586694105073e+01 3.5399305557743041e+01 
441 442 2 1.0279999999810594e+00 7.0739902658221854e+03 1.0000000000000000e+00 1.3765068002488226e+01 1.7600631403822678e+01 3.4980826092166438e+01 
3130 3131 2 1.0280000000188758e+00 3.5913444444493371e+03 1.0000000000000000e+00 1.3775279765631982e+01 1.9024815727701412e+01 3.5129241609532762e+01 
3018 3019 2 1.0279999999967222e+00 -1.4250852549667852e+03 1.0000000000000000e+00 1.6124475304637262e+01 1.8762501349204886e+01 3.5095736587992718e+01 
2947 2948 2 1.0279999999981193e+00 -8.2180900905556030e+01 1.0000000000000000e+00 1.6108791426960387e+01 1.8808202762221310e+01 3.5088259668881960e+01 
175 176 2 1.0279999999993132e+00 -8.7305125857225931e+01 1.0000000000000000e+00 1.6091253460525166e+01 1.8833794507636366e+01 3.5106017304087700e+01 
2958 2959 2 1.0280000000031351e+00 -6.4374819788740933e+03 1.0000000000000000e+00 1.6022860540310329e+01 1.8898151902788648e+01 3.5181059369728061e+01 
2288 2289 2 1.0280000000039320e+00 -6.7278487580877991e+03 1.0000000000000000e+00 1.6005792411678176e+01 1.8909884703699053e+01 3.5197605268868394e+01 
229 230 2 1.0280000000022738e+00 -3.7631026082486023e+03 1.0000000000000000e+00 8.1422179824009469e+00 2.5029863232993620e+01 2.8112133127063498e+01 
1150 1151 2 1.0280000000350380e+00 -1.3571268512619245e+04 1.0000000000000000e+00 7.2410834015073213e+00 2.5538865058041921e+01 2.8524830486910815e+01 
2439 2440 2 1.0280000000019507e+00 6.2508916242579744e+03 1.0000000000000000e+00 8.0989541037956290e+00 2.5706244548774492e+01 2.7984097878714675e+01 
939 940 2 1.0280000000144880e+00 -8.9559404056633309e+02 1.0000000000000000e+00 9.2630476310495897e+00 2.5163338134842913e+01 2.8379927199687479e+01 
2070 2071 2 1.0280000000245941e+00 -4.3404064986582016e+03 1.0000000000000000e+00 9.2631310734399275e+00 2.5514852252844790e+01 2.8407799118519932e+01 
2543 2544 2 1.0280000000087151e+00 -1.3865590292190927e+02 1.0000000000000000e+00 8.5184666547557075e+00 2.5924183672647921e+01 2.8127884871070773e+01 
1277 1278 2 1.0280000000126945e+00 2.1298939212530843e+02 1.0000000000000000e+00 4.9469831109369986e+00 2.5238286664573849e+01 2.9976571783165223e+01 
390 391 2 1.0279999999533302e+00 -4.1433929426330978e+03 1.0000000000000000e+00 4.2909010956812850e+00 2.5406173104726825e+01 2.9993435174411051e+01 
2705 2706 2 1.0279999999373333e+00 2.4438304958353151e+03 1.0000000000000000e+00 4.0156694038867382e+00 2.5423528413593637e+01 3.0054523959903129e+01 
2578 2579 2 1.0280000000883918e+00 -9.7015748604649325e+03 1.0000000000000000e+00 5.6695045340547257e+00 2.5184169303895889e+01 3.0083012041410786e+01 
2627 2628 2 1.0280000002906071e+00 3.5794948097744032e+02 1.0000000000000000e+00 6.9809151609200368e+00 2.5569670454818542e+01 2.9682073103874941e+01 
2303 2304 2 1.0279999999854719e+00 -3.3276328441482901e+03 1.0000000000000000e+00 9.7774954748244429e+00 2.4308969282387082e+01 3.0149971620207548e+01 
1984 1985 2 1.0279999999024070e+00 2.1493055424376680e+03 1.0000000000000000e+00 9.3710841495417938e+00 2.4464570590889220e+01 3.0420691562959544e+01 
2364 2365 2 1.0279999998907687e+00 1.7658066926054018e+03 1.0000000000000000e+00 9.3908558084559832e+00 2.4537815434500281e+01 3.0646305630985779e+01 
995 996 2 1.0280000001568796e+00 7.0096162609044113e+03 1.0000000000000000e+00 1.0207732075704866e+01 2.5289091096563268e+01 2.9885221827078851e+01 
2714 2715 2 1.0279999999896481e+00 2.4237378943083440e+03 1.0000000000000000e+00 1.1351581847971040e+01 2.4343950809105113e+01 3.0520084984295043e+01 
1263 1264 2 1.0279999999953182e+00 -2.0401026745661607e+03 1.0000000000000000e+00 1.1731590774305515e+01 2.4464254097601515e+01 3.0683563701803681e+01 
2667 2668 2 1.0280000000467158e+00 1.1078990482225767e+04 1.0000000000000000e+00 1.2725025945533416e+01 2.5552300098273349e+01 3.1013600004765856e+01 
2437 2438 2 1.0279999999072253e+00 2.5996482041687564e+03 1.0000000000000000e+00 1.5969526423757876e+00 2.6730805817241954e+01 2.9669836624213360e+01 
2563 2564 2 1.0279999998875182e+00 -2.4380564606665092e+02 1.0000000000000000e+00 1.9302795457842854e+00 2.7139953903130714e+01 2.9323399472366503e+01 
2626 2627 2 1.0279999999959231e+00 1.7820344998354656e+03 1.0000000000000000e+00 2.3822171079560648e+00 2.5992676952547551e+01 3.0067792509400057e+01 
2689 2690 2 1.0279999999906320e+00 -1.8951041803905892e+02 1.0000000000000000e+00 2.4524023535251245e+00 2.6000078747981696e+01 3.0013354070511376e+01 
3083 3084 2 1.0279999998944289e+00 1.1890841693828434e+03 1.0000000000000000e+00 2.8751070356484151e-02 2.7563507625215237e+01 3.0794367892844303e+01 
810 811 2 1.0279999999315799e+00 9.2047607240118177e+03 1.0000000000000000e+00 2.3897587230889732e+00 2.7957053548932652e+01 2.9324339220806188e+01 
885 886 2 1.0280000002096643e+00 3.9852486312622937e+03 1.0000000000000000e+00 4.8058324812498210e+00 2.7442813607816234e+01 3.1028835639914490e+01 
630 631 2 1.0279999996500879e+00 2.5967921246162487e+03 1.0000000000000000e+00 7.1246319619399676e+00 2.5987261421021344e+01 2.9663781364368983e+01 
3027 3028 2 1.0279999998973877e+00 1.6443648592199074e+03 1.0000000000000000e+00 6.1604826361086040e+00 2.6712952420842761e+01 2.9927439250636908e+01 
2149 2150 2 1.0280000000953984e+00 1.6006580252947833e+03 1.0000000000000000e+00 5.9302175856745913e+00 2.8175234956125113e+01 3.1073423899406247e+01 
2074 2075 2 1.0280000000136653e+00 -1.3573297271764437e+04 1.0000000000000000e+00 7.9007756928571879e+00 2.8498608801002494e+01 3.1397295270515126e+01 
591 592 2 1.0280000000115166e+00 6.1995200917055336e+03 1.0000000000000000e+00 7.9308474380487182e+00 2.8487743617153246e+01 3.1407883095629536e+01 
2608 2609 2 1.0280000000514022e+00 4.7460582163283361e+03 1.0000000000000000e+00 6.5603960517912014e+00 2.8567138022408844e+01 3.1153249123928941e+01 
143 144 2 1.0280000000451088e+00 1.1900897822596696e+03 1.0000000000000000e+00 1.2104818374760788e+01 2.6023319180377246e+01 3.0612638801285158e+01 
1228 1229 2 1.0279999999894240e+00 2.1780899015628297e+03 1.0000000000000000e+00 1.2524934008093435e+01 2.7846187168449067e+01 3.1292712377787993e+01 
1183 1184 2 1.0279999999969414e+00 9.2390077744006908e+02 1.0000000000000000e+00 1.2952820195824787e+01 2.7890684695526030e+01 3.1334209253370744e+01 
464 465 2 1.0279999999918070e+00 -8.9152955463326034e+03 1.0000000000000000e+00 1.6528377574506951e+01 2.7267937571432693e+01 3.1026156070915849e+01 
12 13 2 1.0279999999918206e+00 7.4398693869801809e+03 1.0000000000000000e+00 1.6534096495823054e+01 2.7273370137085159e+01 3.1026968788843021e+01 
555 556 2 1.0279999999974392e+00 8.1968817089780587e+03 1.0000000000000000e+00 1.6976318135528860e+01 2.7330727280302732e+01 3.1047495090501791e+01 
776 777 2 1.0280000000061120e+00 2.7089295001690897e+02 1.0000000000000000e+00 1.7141381045218150e+01 2.6076518794572095e+01 3.1330654917094570e+01 
3161 3162 2 1.0279999999912903e+00 -4.7460469890755876e+03 1.0000000000000000e+00 2.0602093807031167e+01 2.7220706733803496e+01 3.0894421718165678e+01 
2907 2908 2 1.0279999999965761e+00 6.8028988466877945e+03 1.0000000000000000e+00 2.0478485380887999e+01 2.8038656221032898e+01 3.0517976195748318e+01 
2658 2659 2 1.0279999999973499e+00 9.1499407184026968e+03 1.0000000000000000e+00 2.0596544297185680e+01 2.8071217027241293e+01 3.0470215849902722e+01 
2983 2984 2 1.0280000000014367e+00 -3.3716537825014357e+03 1.0000000000000000e+00 2.1604070398619807e+01 2.8115870303660873e+01 3.0755790732737623e+01 
3003 3004 2 1.0280000000014484e+00 2.8644784486812177e+03 1.0000000000000000e+00 2.1598630391320370e+01 2.8116097119941099e+01 3.0749303159174968e+01 
759 760 2 1.0280000000005873e+00 6.2206244525543370e+03 1.0000000000000000e+00 2.1756172478604093e+01 2.8119833635190421e+01 3.0978737786941355e+01 
231 232 2 1.0280000000537308e+00 2.8667858051771782e+03 1.0000000000000000e+00 1.3245985038955999e+00 2.9032040072374173e+01 2.9553441163014906e+01 
2087 2088 2 1.0280000000495513e+00 -1.1348088180001287e+04 1.0000000000000000e+00 1.3843542745914537e+00 2.9045237012282961e+01 2.9562167346452782e+01 
598 599 2 1.0280000000114369e+00 3.7482378394612451e+03 1.0000000000000000e+00 2.4960859641601645e+00 2.8940230114706448e+01 3.0260963578758457e+01 
2691 2692 2 1.0280000000110479e+00 -6.5166186243640441e+03 1.0000000000000000e+00 2.5124214910127787e+00 2.8928399614031118e+01 3.0275397797166498e+01 
1222 1223 2 1.0280000000762179e+00 -1.0660013628173019e+03 1.0000000000000000e+00 1.1700019795934304e-01 2.8826601995420756e+01 3.1201761583014850e+01 
2228 2229 2 1.0280000000503196e+00 2.6278597561033184e+03 1.0000000000000000e+00 6.5981390651971541e+00 2.8581188249000629e+01 3.1170572465598859e+01 
301 302 2 1.0279999998446152e+00 1.8355333012558422e+03 1.0000000000000000e+00 8.2248222648848284e+00 2.2075449776880543e+01 3.2899068681119935e+01 
729 730 2 1.0279999999090632e+00 -1.2021685652268981e+04 1.0000000000000000e+00 9.7033570532267710e+00 2.0070679600578188e+01 3.3915475666080198e+01 
3213 3214 2 1.0279999998356928e+00 6.9545125504744756e+03 1.0000000000000000e+00 9.8997323043110796e+00 2.0527301805906131e+01 3.3918062605908013e+01 
3115 3116 2 1.0279999999546534e+00 3.6026963296202252e+03 1.0000000000000000e+00 9.9192375816223368e+00 2.0412245887672928e+01 3.4132606798040136e+01 
218 219 2 1.0280000001167473e+00 -5.8951657083876626e+02 1.0000000000000000e+00 9.3796387939479828e+00 2.2649043607810512e+01 3.2430386969145836e+01 
133 134 2 1.0280000001179654e+00 1.8468263492649412e+03 1.0000000000000000e+00 9.3813421881581700e+00 2.2655951728046485e+01 3.2428151181812034e+01 
2069 2070 2 1.0280000001303784e+00 -9.9600551292330383e+03 1.0000000000000000e+00 9.3998379389264048e+00 2.2728527078846739e+01 3.2395841213769820e+01 
2988 2989 2 1.0280000000116765e+00 -6.1989342623298126e+03 1.0000000000000000e+00 4.9008214070285785e+00 2.4311333704899550e+01 3.3447727343124065e+01 
553 554 2 1.0280000000169711e+00 5.8309581392493992e+03 1.0000000000000000e+00 4.9650169355351652e+00 2.4329083034144137e+01 3.3475454535705353e+01 
145 146 2 1.0279999999894596e+00 1.7494935933849656e+03 1.0000000000000000e+00 4.7390271425085588e+00 2.4503309929748571e+01 3.1629154533447846e+01 
968 969 2 1.0279999999005731e+00 2.6383061346048635e+03 1.0000000000000000e+00 4.5420923456496274e+00 2.4580715212329196e+01 3.3235567756552925e+01 
2196 2197 2 1.0280000000123848e+00 6.3327463173352930e+02 1.0000000000000000e+00 5.2885460212763240e+00 2.4223927142464653e+01 3.3453457642676341e+01 
2530 2531 2 1.0279999999557288e+00 -1.2172934932297035e+03 1.0000000000000000e+00 5.6676667832539653e+00 2.4276393243533075e+01 3.3246907018251598e+01 
2401 2402 2 1.0279999998464735e+00 5.8286814658790299e+03 1.0000000000000000e+00 7.9223840419483915e+00 2.3201276795171964e+01 3.2377697298903577e+01 
705 706 2 1.0279999998944114e+00 -1.1757563346121606e+03 1.0000000000000000e+00 7.9673114459026326e+00 2.3276511871756938e+01 3.2187830255787304e+01 
682 683 2 1.0279999998927194e+00 -1.1893319064571760e+03 1.0000000000000000e+00 7.9711585182163578e+00 2.3291078945832528e+01 3.2197263905382599e+01 
1903 1904 2 1.0280000000076130e+00 4.6552119183381683e+03 1.0000000000000000e+00 5.6965410392359201e+00 2.4661205226877183e+01 3.2017851235683295e+01 
2605 2606 2 1.0279999999943430e+00 2.5454259773319109e+03 1.0000000000000000e+00 1.1887307338580582e+01 2.4616309679467250e+01 3.1573977570955801e+01 
2089 2090 2 1.0279999999565315e+00 -4.3413518675482683e+03 1.0000000000000000e+00 1.1150396203998497e+01 2.5562830242637798e+01 3.2263623688891165e+01 
2400 2401 2 1.0279999999700005e+00 4.6964966225245871e+03 1.0000000000000000e+00 1.1525876177043244e+01 2.5705306552236909e+01 3.2404509331767848e+01 
353 354 2 1.0280000000058016e+00 4.7879431406456979e+03 1.0000000000000000e+00 1.3602258143506654e+00 2.6881963251746942e+01 3.2082301706690394e+01 
2496 2497 2 1.0279999999914753e+00 -9.7769942740118913e+03 1.0000000000000000e+00 1.1831904879351933e+00 2.6951952568997640e+01 3.1998664904339378e+01 
610 611 2 1.0279999999762006e+00 1.7567033675787520e+03 1.0000000000000000e+00 1.0339771499527080e+00 2.7713086549703803e+01 3.2146137704101115e+01 
388 389 2 1.0279999999863869e+00 -3.8186432992164282e+03 1.0000000000000000e+00 2.3116325995196241e+00 2.8217992002633189e+01 3.2040236425029441e+01 
1912 1913 2 1.0279999999867293e+00 5.1945913614552155e+03 1.0000000000000000e+00 2.7203528770886405e+00 2.6075245537289700e+01 3.1924748515613533e+01 
2919 2920 2 1.0279999998934941e+00 -2.3735336287498608e+03 1.0000000000000000e+00 3.7011969826598281e+00 2.6697120758648740e+01 3.2136351067271704e+01 
2920 2921 2 1.0279999999875289e+00 -2.3759707803462934e+03 1.0000000000000000e+00 3.2803943571466743e+00 2.6837301531662121e+01 3.2225317439895697e+01 
440 441 2 1.0280000000711684e+00 7.2349995737689878e+03 1.0000000000000000e+00 4.4592929725759856e+00 2.7177648965162064e+01 3.1623861045358730e+01 
778 779 2 1.0280000000373459e+00 1.7295412682955589e+03 1.0000000000000000e+00 6.5630427503161197e+00 2.7339665147079163e+01 3.1580251078437797e+01 
1098 1099 2 1.0279999999912341e+00 -2.1647591483170709e+03 1.0000000000000000e+00 9.5861057059625967e+00 2.7276297152551798e+01 3.2304348831468388e+01 
516 517 2 1.0280000000624323e+00 1.6485968310451744e+03 1.0000000000000000e+00 9.9540054001351859e+00 2.7274086303970179e+01 3.2534911417870589e+01 
2108 2109 2 1.0279999999858416e+00 -1.9502627352577833e+03 1.0000000000000000e+00 9.5498134761796063e+00 2.7294073697623723e+01 3.2285713428153585e+01 
1262 1263 2 1.0279999999906231e+00 -4.8360468942354682e+03 1.0000000000000000e+00 9.5525389599130346e+00 2.7296854074992524e+01 3.2290081320341564e+01 
299 300 2 1.0279999999948322e+00 2.5978182769588166e+03 1.0000000000000000e+00 8.4849987685023365e+00 2.8209366450898994e+01 3.1585124761401335e+01 
2820 2821 2 1.0280000000526797e+00 -3.7088840652625258e+03 1.0000000000000000e+00 1.3053151308921107e+01 2.5847454029124314e+01 3.1531912122534521e+01 
1128 1129 2 1.0279999999981504e+00 9.6957143979054126e+02 1.0000000000000000e+00 1.3216958290206078e+01 2.7068544695764242e+01 3.2765971553390614e+01 
1379 1380 2 1.0280000000569471e+00 -3.3336961692081359e+03 1.0000000000000000e+00 1.1593291284926542e+01 2.8057001546154162e+01 3.2602385458080896e+01 
1273 1274 2 1.0280000000346277e+00 7.8173460045616380e+01 1.0000000000000000e+00 1.2166425157392705e+01 2.8246222146409842e+01 3.2595391690860630e+01 
634 635 2 1.0280000000327500e+00 -4.1350325732215060e+03 1.0000000000000000e+00 1.2233765461066476e+01 2.8264137306211719e+01 3.2605158920749645e+01 
2148 2149 2 1.0280000000097043e+00 2.2019185094928812e+03 1.0000000000000000e+00 1.6008695804701194e+01 2.5877350957663978e+01 3.1968654211640516e+01 
2732 2733 2 1.0279999999828509e+00 -8.9152435793488075e+03 1.0000000000000000e+00 1.5640224160223756e+01 2.6225586289400336e+01 3.2557149130532416e+01 
360 361 2 1.0279999999767309e+00 6.3384501806095204e+03 1.0000000000000000e+00 1.5598287204114916e+01 2.6304221943545404e+01 3.2628231095572396e+01 
384 385 2 1.0279999999684344e+00 -3.6784334092519994e+03 1.0000000000000000e+00 1.4132051981561132e+01 2.7858373596050267e+01 3.1674864408975804e+01 
718 719 2 1.0279999999784850e+00 -4.1765461365549390e+03 1.0000000000000000e+00 1.5270334507724840e+01 2.8026376616019636e+01 3.3590046498409336e+01 
2000 2001 2 1.0280000000114879e+00 -1.1718066893798691e+03 1.0000000000000000e+00 1.6999503063471192e+01 2.5998750054263983e+01 3.2833371711451626e+01 
988 989 2 1.0280000000131415e+00 5.2347251495595519e+03 1.0000000000000000e+00 1.7872139058586029e+01 2.6653964632320413e+01 3.3025196510507527e+01 
2614 2615 2 1.0280000000176994e+00 3.8055637706979278e+03 1.0000000000000000e+00 1.8204637302390317e+01 2.6758151996502537e+01 3.2899359792821755e+01 
1156 1157 2 1.0279999999956690e+00 -2.7851908146182477e+03 1.0000000000000000e+00 1.8699234411119114e+01 2.7336318802096578e+01 3.1678627279759155e+01 
1983 1984 2 1.0280000000366802e+00 5.4495507990332289e+03 1.0000000000000000e+00 1.9333343551981432e+01 2.7185910116099063e+01 3.2792070840134656e+01 
1280 1281 2 1.0280000000059200e+00 -1.9225323029455490e+02 1.0000000000000000e+00 2.0069660708947726e+01 2.6906763750830212e+01 3.2819808015550841e+01 
3164 3165 2 1.0279999999932172e+00 -3.8495563204605860e+03 1.0000000000000000e+00 2.1660379670884669e+01 2.7143248353885234e+01 3.3675340836580304e+01 
1902 1903 2 1.0279999999928413e+00 6.0914602548289804e+03 1.0000000000000000e+00 2.2044440849034217e+01 2.7272584783985526e+01 3.3320398668573986e+01 
568 569 2 1.0279999999950176e+00 1.1065931294064252e+04 1.0000000000000000e+00 2.1558243359045651e+01 2.7297722132055409e+01 3.3934070404807898e+01 
664 665 2 1.0279999999935969e+00 -9.9775621049078518e+02 1.0000000000000000e+00 2.2138506875878157e+01 2.7383356926774585e+01 3.3317319150489297e+01 
799 800 2 1.0280000000337275e+00 2.7467591587189099e+03 1.0000000000000000e+00 1.3375931398148111e+00 2.9010220877293424e+01 3.1468451590811068e+01 
2580 2581 2 1.0280000000395619e+00 -9.7271934364220579e+03 1.0000000000000000e+00 1.4807695072070697e+01 2.9063841614621175e+01 3.2491297355091852e+01 
1935 1936 2 1.0280000000521872e+00 -1.9932262835545907e+03 1.0000000000000000e+00 1.4753698246355873e+01 2.9076988506488970e+01 3.3127410936575089e+01 
971 972 2 1.0280000000605769e+00 2.6067122005502197e+03 1.0000000000000000e+00 1.4618923027004570e+01 2.8926206629552045e+01 3.3176830028692940e+01 
2921 2922 2 1.0279999999937000e+00 1.4404839399099978e+02 1.0000000000000000e+00 1.6059585997738061e+01 2.8772514191532952e+01 3.3853703009383167e+01 
1151 1152 2 1.0279999999679397e+00 -1.1943679739917105e+04 1.0000000000000000e+00 1.7209848824436882e+01 2.9205685555166703e+01 3.3067055972344484e+01 
700 701 2 1.0279999999894043e+00 -4.6890227627011627e+03 1.0000000000000000e+00 1.6956367135410140e+01 2.9444679115723734e+01 3.2933069521186447e+01 
3072 3073 2 1.0279999999894009e+00 4.6345715351498775e+03 1.0000000000000000e+00 1.6956390768136217e+01 2.9444663583229559e+01 3.2933096014077833e+01 
2548 2549 2 1.0279999999894045e+00 -4.7964402942349225e+03 1.0000000000000000e+00 1.6956410515374607e+01 2.9444650605499909e+01 3.2933118205950571e+01 
2312 2313 2 1.0279999999974834e+00 -8.8920825411701098e+03 1.0000000000000000e+00 2.0174926680041406e+01 2.8986309038468185e+01 3.2207866630726834e+01 
56 57 2 1.0280000000045022e+00 -3.8576059364146913e+03 1.0000000000000000e+00 1.9866337672114039e+01 2.8663600238318978e+01 3.3172877576640673e+01 
430 431 2 1.0280000000062968e+00 6.0471111788780108e+03 1.0000000000000000e+00 2.1046359823001055e+01 2.9435589297415536e+01 3.3535832872178212e+01 
2210 2211 2 1.0280000000058234e+00 1.8323430274948447e+02 1.0000000000000000e+00 2.1625053610289218e+01 2.9351254001046016e+01 3.3618020769717305e+01 
3162 3163 2 1.0280000000057505e+00 -4.2127810864693784e+03 1.0000000000000000e+00 2.1641563289948646e+01 2.9342436487978393e+01 3.3622529883722578e+01 
3094 3095 2 1.0280000000052092e+00 1.2548174667147696e+03 1.0000000000000000e+00 2.1499136893054722e+01 2.9095541765051710e+01 3.4079035039197436e+01 
2762 2763 2 1.0279999999456952e+00 8.1483420037753567e+03 1.0000000000000000e+00 6.2619857559667675e+00 2.1093583428168429e+01 3.4491072481759964e+01 
3167 3168 2 1.0279999999599989e+00 -7.4798248751760639e+03 1.0000000000000000e+00 7.5374117985296278e+00 2.1256991132388652e+01 3.4503943781891245e+01 
2235 2236 2 1.0280000001476286e+00 7.5367881603540372e+03 1.0000000000000000e+00 7.9806238396079703e+00 2.0777218305054383e+01 3.4686380028388001e+01 
2660 2661 2 1.0279999999950886e+00 6.1621320274656264e+03 1.0000000000000000e+00 6.3351884007631734e+00 2.0289483773225822e+01 3.5632292479604111e+01 
416 417 2 1.0280000000017522e+00 -5.7054475369296360e+03 1.0000000000000000e+00 6.5509736797369404e+00 2.0380955785185751e+01 3.5749741876729182e+01 
821 822 2 1.0280000000068026e+00 1.1939127722849429e+04 1.0000000000000000e+00 6.6954063365867986e+00 2.0485400081465070e+01 3.5788788996445597e+01 
2865 2866 2 1.0279999999773777e+00 5.4387813937590308e+03 1.0000000000000000e+00 6.0827388296000677e+00 2.0874287840553595e+01 3.4582355337948144e+01 
106 107 2 1.0279999999904064e+00 3.4300747276177258e+03 1.0000000000000000e+00 5.8939384414770313e+00 2.0959767999567660e+01 3.5195962306985756e+01 
1584 1585 2 1.0279999999933751e+00 -4.2681887108704977e+03 1.0000000000000000e+00 5.2944261911422245e+01 6.5669202717350550e-01 2.0468088395540764e+00 
1567 1568 2 1.0280000000046405e+00 -4.2878649579093308e+03 1.0000000000000000e+00 5.4516552476721635e+01 1.4329198192044068e+00 1.4625435764289800e+00 
1514 1515 2 1.0280000000016924e+00 1.4243734493083148e+03 1.0000000000000000e+00 5.4378222939573554e+01 6.7960588281672862e-01 9.2721542555377567e-01 
1743 1744 2 1.0279999999992915e+00 -5.8771063487010588e+03 1.0000000000000000e+00 5.4292306276578401e+01 2.7647668774797818e-01 7.3343515958788252e-01 
2264 2265 2 1.0280000000368716e+00 2.7079361993181692e+03 1.0000000000000000e+00 5.8109758269055277e+01 1.9277886687602559e+00 2.1249248140246340e+00 
2672 2673 2 1.0279999999723926e+00 1.1886289102841043e+04 1.0000000000000000e+00 5.7058381298982361e+01 2.3483302849173961e+00 9.1177673384762903e-01 
2797 2798 2 1.0280000000163771e+00 8.4663683157792293e+03 1.0000000000000000e+00 5.8046835677491238e+01 4.7804168525880686e-01 2.5994749111649091e+00 
2663 2664 2 1.0279999999267075e+00 1.1894986342911208e+04 1.0000000000000000e+00 5.8626786462212323e+01 1.1267741588238713e+00 1.8374803714978374e+00 
3217 3218 2 1.0279999999867384e+00 8.5171111590711098e+03 1.0000000000000000e+00 6.0536710924106274e+01 1.0483595401043238e+00 1.7058379523731406e+00 
2179 2180 2 1.0280000001511596e+00 2.2086774977183104e+03 1.0000000000000000e+00 6.0918263118967495e+01 2.3571093619574319e+00 5.0930802925875673e-01 
2142 2143 2 1.0279999999558851e+00 -1.6275314647837217e+03 1.0000000000000000e+00 5.9599313071997244e+01 2.3193432351385956e+00 1.5873259370865997e-01 
1249 1250 2 1.0279999999994742e+00 1.1306920085271631e+03 1.0000000000000000e+00 6.0874487874222424e+01 3.7859659097064485e-02 7.4110309161267907e-01 
2007 2008 2 1.0280000000461300e+00 2.1432899970064464e+03 1.0000000000000000e+00 6.1362263016066876e+01 2.7162142164910503e+00 2.5337578910702394e+00 
659 660 2 1.0279999999947318e+00 -1.2945284366163636e+04 1.0000000000000000e+00 6.3780689379778742e+01 8.8445134006394710e-01 2.6574426913457634e+00 
665 666 2 1.0279999999938985e+00 -1.3902869693708381e+03 1.0000000000000000e+00 6.3803309695575052e+01 8.2722103404165526e-01 2.6366355300338360e+00 
743 744 2 1.0279999999718155e+00 -1.2918691464781756e+04 1.0000000000000000e+00 6.3421563078620494e+01 1.0980020594996525e+00 7.2822402406702791e-01 
2175 2176 2 1.0279999999121052e+00 2.1178835880636166e+03 1.0000000000000000e+00 6.3897542173118616e+01 2.7998346108003500e+00 2.1376309331495955e+00 
1045 1046 2 1.0280000001502219e+00 -7.3974462090811471e+02 1.0000000000000000e+00 6.4329244589853460e+01 2.0548601774006388e+00 4.9836763806614304e-01 
2600 2601 2 1.0280000000160376e+00 2.1668767085656286e+03 1.0000000000000000e+00 6.4926088054061125e+01 1.6762587619962321e+00 8.6434961241654662e-01 
2833 2834 2 1.0279999999636600e+00 -4.8042056331040440e+03 1.0000000000000000e+00 6.5290670268517516e+01 1.2821785808901942e-01 1.7979181878715385e+00 
1580 1581 2 1.0279999999971128e+00 -3.8189639829137832e+02 1.0000000000000000e+00 6.4295833185776985e+01 1.2278047986315672e-01 8.9832896996166234e-01 
2647 2648 2 1.0279999999999470e+00 2.6729619037827674e+03 1.0000000000000000e+00 4.4327043512912233e+01 3.1909376678680998e+00 2.0911281983284891e+00 
2690 2691 2 1.0280000000046512e+00 1.0010154181011862e+04 1.0000000000000000e+00 4.2866907665604025e+01 3.3035717426785305e+00 2.7914105221147021e+00 
2407 2408 2 1.0280000000000666e+00 7.8012357419725595e+03 1.0000000000000000e+00 4.4254627252837267e+01 3.4696955247312911e+00 1.9520635396093229e+00 
2424 2425 2 1.0280000000034690e+00 7.7923525686305475e+03 1.0000000000000000e+00 4.5346307029667855e+01 3.6187495099917522e+00 1.6432183215531493e+00 
307 308 2 1.0280000000042369e+00 9.8976618784533434e+02 1.0000000000000000e+00 4.5458041757346500e+01 3.6427716024879375e+00 1.6379785882902540e+00 
2874 2875 2 1.0280000000093776e+00 3.1876484041287376e+03 1.0000000000000000e+00 4.6395301987027089e+01 4.0110410822822713e+00 1.6422637898942807e+00 
3139 3140 2 1.0280000000091161e+00 3.2599662217328560e+03 1.0000000000000000e+00 4.6445314723872798e+01 4.6113217736312091e+00 1.6322709835006184e+00 
1535 1536 2 1.0280000000032288e+00 5.3605951426285428e+03 1.0000000000000000e+00 4.7400392668857194e+01 5.4620581818334504e+00 1.7192571775036618e+00 
1217 1218 2 1.0280000000035667e+00 3.8298337293348741e+03 1.0000000000000000e+00 4.7758173801239529e+01 4.6611863404924350e+00 1.2129946197933223e+00 
589 590 2 1.0279999999960476e+00 2.6191953834010346e+03 1.0000000000000000e+00 4.8699461286337332e+01 4.2316295849096344e+00 2.6899576966771837e+00 
3066 3067 2 1.0279999999996248e+00 4.0329238909524588e+02 1.0000000000000000e+00 4.8664512632588313e+01 4.8164486508570556e+00 8.7014121970417746e-01 
1510 1511 2 1.0279999999850820e+00 -7.6679499785509834e+03 1.0000000000000000e+00 5.2762602341260411e+01 2.8636748747867400e+00 1.7586037378230632e+00 
1718 1719 2 1.0279999999984755e+00 -8.3302164271501465e+02 1.0000000000000000e+00 5.2331501312808484e+01 3.1019208160265781e+00 7.6003178391773707e-01 
348 349 2 1.0279999999977854e+00 3.2653668831413752e+03 1.0000000000000000e+00 5.0266744152277631e+01 4.1674828456346917e+00 5.2110960211705448e-01 
2102 2103 2 1.0279999999977072e+00 3.7984111316793596e+03 1.0000000000000000e+00 5.0343071536172310e+01 4.1259094155461158e+00 4.7290049591446864e-01 
2683 2684 2 1.0280000000015495e+00 4.6789097623057924e+03 1.0000000000000000e+00 5.1972012378084990e+01 5.4079111589691644e+00 6.7997780292073751e-01 
1618 1619 2 1.0280000000014111e+00 -1.7169766757914855e+04 1.0000000000000000e+00 5.2058292054818814e+01 5.3006647201878856e+00 5.1073156440860301e-01 
2730 2731 2 1.0279999999991578e+00 -1.3206014374154120e+02 1.0000000000000000e+00 5.0643304045932297e+01 3.9052355103947338e+00 3.5644239935204641e-01 
503 504 2 1.0280000000079756e+00 -8.9201074226524524e+03 1.0000000000000000e+00 5.3169056502429143e+01 4.8486723393846702e+00 6.6526749324323509e-01 
922 923 2 1.0280000000367615e+00 3.9403807115931495e+03 1.0000000000000000e+00 5.3730829749524425e+01 5.6091759178289262e+00 2.4886458504993589e+00 