LAMMPS data file via write_data, version 30 Jul 2016, timestep = 50000000

2700 atoms
2 atom types

0.0000000000000000e+00 2.0000000000000000e+01 xlo xhi
0.0000000000000000e+00 2.0000000000000000e+01 ylo yhi
0.0000000000000000e+00 2.0000000000000000e+01 zlo zhi

Masses

1 3.896
2 5

Atoms # meso-molecular

764 1 1 1.4858841681370707e+00 3.6125318508974451e+03 1.0000000000000000e+00 2.7900028328828713e-01 4.3201914344026565e-01 1.2481607418215641e+00 
600 1 1 1.8830966672255660e+00 8.8060295749621434e+02 1.0000000000000000e+00 2.0197967710218534e-01 1.2690399194226669e+00 1.2574823852009037e-01 
213 1 1 1.0681666083698962e+00 -2.3200138045659965e+03 1.0000000000000000e+00 1.5531751313923299e+00 1.6404364192116627e+00 9.8614482898315181e-01 
1404 1 1 1.7177581808993492e+00 -1.9160969785815109e+03 1.0000000000000000e+00 2.9080013114105596e-01 1.3934536708007672e+00 6.8300642578576565e-01 
1917 1 1 1.4294855920408243e+00 1.6404491942882819e+03 1.0000000000000000e+00 1.3153070377335047e-01 1.9351716228916309e+00 1.0774926485331848e+00 
935 1 1 1.8560995362985091e+00 1.4603502980251227e+02 1.0000000000000000e+00 3.4143154208781352e+00 4.6396227610948715e-01 1.0835145087198925e+00 
1588 1 1 1.4009475112557224e+00 4.8474908007165695e+03 1.0000000000000000e+00 3.0454977332769748e+00 1.0859572643182716e+00 2.8497347236668413e-01 
2682 1 1 2.0576754585788049e+00 -4.4923662198208012e+03 1.0000000000000000e+00 4.0617942612125493e+00 2.3766837547423578e-01 8.0875332332037375e-01 
1002 1 1 1.6825748358602002e+00 7.7595896468368926e+02 1.0000000000000000e+00 4.6994150639597168e+00 3.1793827141718772e-01 1.5626218560392153e+00 
1124 1 1 1.1238590374694177e+00 -1.3901748384007451e+03 1.0000000000000000e+00 5.2745810370610018e+00 8.8927670164636585e-01 9.7666474087950716e-01 
129 1 1 7.2489497918409829e-01 3.0216711303574561e+03 1.0000000000000000e+00 2.1274305654985710e+00 2.9242468623705142e+00 1.4330846058605236e+00 
1297 1 1 1.1158798870157260e+00 2.1937206729142736e+03 1.0000000000000000e+00 4.2976297360180888e+00 2.9816495574819770e+00 9.1283354542423989e-01 
2444 1 1 1.1625365458063128e+00 -5.0540658511936508e+03 1.0000000000000000e+00 4.5280850388556724e+00 3.1762097457302825e+00 8.4492300179628299e-01 
1852 1 1 1.3091419790563883e+00 -2.8320261661456593e+03 1.0000000000000000e+00 4.7462165128183695e+00 3.3460607098647071e+00 1.3738985853818599e+00 
311 1 1 1.6313077725168479e+00 6.8874235126157964e+02 1.0000000000000000e+00 6.5782270620877439e+00 2.7491070926683472e+00 8.8145217741227255e-01 
1722 1 1 1.8826697329212359e+00 1.2408777182545107e+03 1.0000000000000000e+00 6.6506811771882193e+00 2.4299666386228513e+00 1.6922059574165083e+00 
2634 1 1 1.3727731150793623e+00 2.3547914880583889e+03 1.0000000000000000e+00 4.7218152132139259e+00 4.5221516738094270e+00 8.1637153932761752e-01 
1339 1 1 2.1033234010585162e+00 -3.4640836631167253e+03 1.0000000000000000e+00 5.8488504012976374e+00 5.6540385705579288e+00 1.8600891972028222e+00 
1183 1 1 1.9687501491258517e+00 7.1374071690753749e+02 1.0000000000000000e+00 4.6347505470040691e+00 5.8968867382324195e+00 1.0943657222361955e+00 
927 1 1 2.3479032393790149e+00 -3.1834233962495264e+03 1.0000000000000000e+00 4.9997263704284185e+00 5.6480151801245650e+00 1.5006066774645606e+00 
2139 1 1 1.4564312353341686e+00 3.9864194878298790e+03 1.0000000000000000e+00 4.5893937695351100e-01 7.4375185742874432e+00 6.1530900680249345e-01 
443 1 1 2.3146988294682562e+00 1.6859363632591562e+03 1.0000000000000000e+00 5.2767354623486415e+00 6.2743468643957909e+00 1.0791021129026801e+00 
415 1 1 2.3337758826656909e+00 -6.4093654572975282e+01 1.0000000000000000e+00 5.9426165921947574e+00 6.6404803853314762e+00 4.7243358608007346e-01 
1435 1 1 1.9003720041639123e+00 -2.3318116011227980e+03 1.0000000000000000e+00 4.8412761341532358e+00 6.7483097075209706e+00 1.4087160328727675e+00 
283 1 1 2.3746903374047008e+00 -1.7390884010023869e+03 1.0000000000000000e+00 2.1369399329676134e-01 8.8305914090759465e+00 1.4259947451692598e+00 
1957 1 1 7.7586230550877144e-01 -3.5995752726852197e+03 1.0000000000000000e+00 1.7142721941907946e+00 8.0193262190857286e+00 1.7715462734619900e+00 
2644 1 1 2.0198476614248699e+00 -4.1182911923178854e+03 1.0000000000000000e+00 8.8763378683336780e-02 9.2901330635731227e+00 1.1942990019228410e+00 
1796 1 1 2.1907798161661272e+00 -1.7709260968151409e+02 1.0000000000000000e+00 6.5867885385383076e+00 9.3631037575384575e+00 1.1207380545271579e+00 
1409 1 1 1.8754683264636611e+00 1.6404961398202245e+03 1.0000000000000000e+00 6.3837301195517053e+00 9.0321347259712184e+00 2.5823137206002883e-01 
542 1 1 2.1846528833552363e+00 1.1795110671254156e+03 1.0000000000000000e+00 6.5573983687953916e+00 9.9196571906041928e+00 1.4008254626502867e+00 
262 1 1 2.2633791036249948e+00 -6.9229019098111360e+02 1.0000000000000000e+00 6.5927190751506641e+00 9.8691359979474420e+00 1.9331693594527353e+00 
2108 1 1 1.8039941116771330e+00 4.8615746874047927e+03 1.0000000000000000e+00 6.5475274727223107e+00 8.1200875056545829e+00 1.5780494060508954e-01 
2340 1 1 9.5166418091810512e-01 -2.9056857970485116e+03 1.0000000000000000e+00 2.1394213756170927e-01 4.7321225769777653e-01 3.0383263887344114e+00 
2545 1 1 1.1109435536970818e+00 1.2397410966550126e+03 1.0000000000000000e+00 1.0928513838894687e+00 1.5311766756848737e+00 3.4511841239709793e+00 
1707 1 1 1.9748007943968016e+00 3.3085038392880761e+03 1.0000000000000000e+00 4.4400596672132444e+00 9.9801580293448489e-01 3.6154233197994978e+00 
1579 1 1 2.0781326416922874e+00 5.6972838378913621e+03 1.0000000000000000e+00 5.6295096493343184e+00 8.4277284766410354e-01 3.5336432535766038e+00 
1273 1 1 2.3390008694734594e+00 -2.5829254946544899e+02 1.0000000000000000e+00 6.1889513401637295e+00 1.4504763220812071e+00 3.7951044702156476e+00 
2099 1 1 2.2738321590941872e+00 7.8129023027634489e+01 1.0000000000000000e+00 6.6637639914078672e+00 1.5850843256901375e+00 3.7340289679825145e+00 
176 1 1 1.2794392200798859e+00 -1.3522847397456417e+03 1.0000000000000000e+00 4.0661549451887491e-01 3.0048365738391118e+00 3.0685474111647681e+00 
2090 1 1 9.2619104411904407e-01 -2.2210693604154289e+03 1.0000000000000000e+00 1.9906252995221678e+00 2.0394626305198620e+00 2.7840686835523591e+00 
2508 1 1 1.2697309792080456e+00 5.0370784017204318e+02 1.0000000000000000e+00 1.4147285764036805e+00 2.7003275495059409e+00 3.8804074202891554e+00 
2487 1 1 1.2843651249585315e+00 2.5022798044485879e+02 1.0000000000000000e+00 2.9406748460755221e+00 3.6707377285025813e+00 2.3498459800748126e+00 
1010 1 1 1.3100182435150307e+00 1.5372188493545593e+01 1.0000000000000000e+00 3.8165515247953086e+00 2.1158169538303078e+00 2.3664037903607569e+00 
1538 1 1 1.6250181321331025e+00 -3.0153549180015211e+03 1.0000000000000000e+00 3.4350218631793199e+00 3.1475517252774687e+00 3.5575382349936895e+00 
842 1 1 1.7029505664763696e+00 -1.9921204567795278e+03 1.0000000000000000e+00 5.3618691939713390e+00 2.7231927996252541e+00 3.0285266978592595e+00 
1230 1 1 1.9685120859761016e+00 -1.8297777732660300e+03 1.0000000000000000e+00 4.5536788665706336e+00 2.1112420772465748e+00 3.1008149213712017e+00 
566 1 1 1.6584890546740978e+00 -1.1067042164379156e+03 1.0000000000000000e+00 4.5910553684663942e+00 2.1050870942473869e+00 2.6376201873589671e+00 
1325 1 1 1.2088746709417013e+00 5.8002070423753003e+02 1.0000000000000000e+00 2.3775481981027693e+00 4.0445994098504636e+00 3.1369161633636300e+00 
2571 1 1 1.8096609665484016e+00 1.7844699560150320e+03 1.0000000000000000e+00 4.0394404972976830e+00 5.7084648240986091e+00 3.0763342867641152e+00 
2665 1 1 2.1272641034453414e+00 -3.0242476927004727e+03 1.0000000000000000e+00 4.1279975410478258e+00 4.2069710455198566e+00 3.7994842308321659e+00 
577 1 1 1.3309475393160815e+00 -5.0943921622542643e+02 1.0000000000000000e+00 3.2252295211848896e+00 5.4959595819990827e+00 3.5966635135442147e+00 
1455 1 1 1.5913298058725067e+00 -1.4629478394074210e+03 1.0000000000000000e+00 3.6741762346144538e+00 4.6087227311026826e+00 2.6887665667781300e+00 
2609 1 1 1.5997518310883942e+00 6.3875153494497301e+00 1.0000000000000000e+00 3.0900483262576821e+00 4.0089545034036433e+00 3.3256657159424297e+00 
1974 1 1 2.1283091131178944e+00 2.6561829021059052e+03 1.0000000000000000e+00 5.3289340067382129e+00 5.1913675276797466e+00 2.0495464573823803e+00 
978 1 1 2.0534132365614037e+00 9.4056807744822675e+02 1.0000000000000000e+00 5.3693841719922775e+00 5.3174838600009231e+00 3.0325838670150826e+00 
474 1 1 2.2734878287555835e+00 1.4166230302799413e+03 1.0000000000000000e+00 4.7405803124086487e+00 5.3136207822183801e+00 2.2722319200550989e+00 
322 1 1 1.6419195246322416e+00 -1.3953728701104958e+03 1.0000000000000000e+00 5.5111933990830586e+00 4.0198249857705814e+00 3.7783072694766235e+00 
749 1 1 2.5264941696923096e+00 -3.2517753257230754e+02 1.0000000000000000e+00 1.9080727901433162e-01 7.1606377048202789e+00 2.6830337385938767e+00 
2243 1 1 2.7892988649804629e+00 -2.3815488151242403e+03 1.0000000000000000e+00 2.4265558039915539e-02 7.9519510746084618e+00 3.1218764682512425e+00 
1159 1 1 1.7269726953651841e+00 -2.4759115039363128e+03 1.0000000000000000e+00 1.1370140295863616e+00 7.2057906394453779e+00 3.9214522139785832e+00 
2416 1 1 9.6718097907085421e-01 -1.7114791194181005e+03 1.0000000000000000e+00 1.9188544236203502e+00 6.0542020162878343e+00 3.7986241763161654e+00 
1668 1 1 1.4376804216237598e+00 2.9498773370643050e+02 1.0000000000000000e+00 3.6289534294904535e+00 7.8999491650849505e+00 3.5083942459793183e+00 
127 1 1 2.1631970320152796e+00 -3.2034649281552782e+02 1.0000000000000000e+00 4.7719692525142028e+00 6.7431323302602433e+00 3.0778290984788650e+00 
617 1 1 1.9049879418079765e+00 5.9074487576453350e+02 1.0000000000000000e+00 6.0539521073325089e+00 6.4225041215416256e+00 2.7387346224561173e+00 
692 1 1 2.0751530814463539e+00 -1.7789151813668605e+03 1.0000000000000000e+00 5.0937744030977754e+00 7.1677592814146722e+00 2.8549274487555780e+00 
878 1 1 2.3181445528525102e+00 -6.0719658316516572e+01 1.0000000000000000e+00 5.0619757485608279e+00 6.5202926167396660e+00 3.0776021868918959e+00 
16 1 1 2.4693560428936316e+00 -8.0895797804028034e+03 1.0000000000000000e+00 5.2447648251509076e+00 6.5700546922451259e+00 2.7080765545174836e+00 
1369 1 1 1.2821580154251495e+00 -8.3902503368639668e+02 1.0000000000000000e+00 6.0911477447321998e+00 6.5083270322684736e+00 3.7752241712782864e+00 
2022 1 1 1.8811092808825991e+00 2.3013536977795743e+03 1.0000000000000000e+00 8.7188328283155136e-01 8.0934134523001138e+00 2.7353731563443500e+00 
1199 1 1 1.4548281818812820e+00 -1.9080553418829470e+03 1.0000000000000000e+00 1.3344439312941894e+00 9.6818213464472613e+00 2.6419541399347968e+00 
1083 1 1 1.8337369065530287e+00 -3.2735026231315455e+03 1.0000000000000000e+00 3.9228446476232365e-01 9.8447268163938109e+00 3.5405048989638415e+00 
1330 1 1 2.0270867808620165e+00 8.7999956329223005e+02 1.0000000000000000e+00 5.7762722964826518e-01 9.6487428782165363e+00 2.7174637253812985e+00 
2131 1 1 9.9497396469215948e-01 1.1229413271170552e+03 1.0000000000000000e+00 3.8968068681627992e+00 9.1131898329834602e+00 2.0700224502594669e+00 
581 1 1 1.3820552890641109e+00 1.6919233968064168e+03 1.0000000000000000e+00 3.6011467195203468e+00 8.6243616786646200e+00 3.8289652722321792e+00 
1436 1 1 1.5527641829948631e+00 4.2616884895263070e+02 1.0000000000000000e+00 4.0913240913549211e+00 8.1059259231616103e+00 2.8883687364504262e+00 
833 1 1 1.1797372253034990e+00 4.8606708653411497e+03 1.0000000000000000e+00 4.9720335432781324e+00 9.2883788916900443e+00 2.5843354000612573e+00 
541 1 1 1.3962057843946598e+00 5.0559443558698592e+02 1.0000000000000000e+00 4.9793997488816233e+00 8.4174703025137667e+00 3.5379563863083048e+00 
1599 1 1 1.4665627557727856e+00 -2.3182755210906630e+03 1.0000000000000000e+00 6.6483789966280931e+00 8.0977678123915986e+00 2.9673051563488317e+00 
226 1 1 9.9299306494171946e-01 1.5532810425521502e+03 1.0000000000000000e+00 1.2390775601832789e+00 1.9235456587237820e-01 4.4269328587853414e+00 
712 1 1 7.7150555136739873e-01 -3.1757281122876625e+03 1.0000000000000000e+00 1.8228314246803463e+00 4.0241085998870391e-01 5.0602322043115997e+00 
154 1 1 9.0863838342524617e-01 -3.2295750610070359e+03 1.0000000000000000e+00 1.1807619645315879e+00 1.1394811730874495e+00 5.9806470227964139e+00 
2269 1 1 1.4840401106970664e+00 -5.3904601403672814e+03 1.0000000000000000e+00 4.0741166779176545e+00 6.1434862624689990e-01 4.5756688683048115e+00 
1201 1 1 1.6471516453534911e+00 1.7926833120804245e+03 1.0000000000000000e+00 4.0289783264353103e+00 1.5931135050772052e+00 4.4130482412810563e+00 
658 1 1 2.2824475309444816e+00 -2.3053872889531076e+03 1.0000000000000000e+00 6.0604087586535362e+00 1.8001544679401890e-02 4.8176663035000038e+00 
619 1 1 2.4867098050359893e+00 4.7014433771252936e+02 1.0000000000000000e+00 6.2490910545474021e+00 6.0143667479178553e-01 5.2054981694952822e+00 
1001 1 1 2.4941217253851122e+00 2.3585382577063601e+03 1.0000000000000000e+00 6.0066156717005299e+00 1.5410506586787713e+00 4.8464512666068114e+00 
1840 1 1 2.2349934942981098e+00 -9.8971597045555609e+02 1.0000000000000000e+00 5.6965863707158571e+00 6.5664564637323641e-01 5.7410740002463188e+00 
2336 1 1 2.3721460884776975e+00 3.6434112362373608e+03 1.0000000000000000e+00 6.4143605359893510e+00 7.9829012657290821e-01 5.6564793639456799e+00 
1376 1 1 1.9362947166166498e+00 2.0601808623013285e+03 1.0000000000000000e+00 4.7093446664772847e+00 2.6328138133366014e-01 4.0561152827464406e+00 
182 1 1 1.3494867064769898e+00 1.3018727248868820e+03 1.0000000000000000e+00 2.8528184427140091e-01 2.9639309051563250e+00 4.1844345089780139e+00 
776 1 1 1.3392807839796996e+00 1.9384432226840324e+03 1.0000000000000000e+00 1.5074771432591876e+00 3.5580197772008004e+00 5.1559742996802784e+00 
1485 1 1 1.5045850627173389e+00 1.6365325058662481e+03 1.0000000000000000e+00 7.0365864580387050e-01 2.9334828759585823e+00 5.0472001296586386e+00 
345 1 1 2.0198148319474454e+00 -1.3835860331175838e+03 1.0000000000000000e+00 3.9167193371191611e+00 3.9345123355001852e+00 4.9707884934919697e+00 
392 1 1 2.2773976147259800e+00 3.5269254807583561e+03 1.0000000000000000e+00 4.8624667974784925e+00 3.6984498644729706e+00 4.1881688174912206e+00 
905 1 1 2.1798225886118132e+00 -2.0572447970800590e+03 1.0000000000000000e+00 6.0918667746966824e+00 2.2461414933870048e+00 4.5587608135632713e+00 
825 1 1 1.9342991271505365e+00 -4.0352173845687853e+03 1.0000000000000000e+00 4.5374182928513749e+00 2.1104633251285603e+00 4.6767973338270004e+00 
2565 1 1 2.2469932765767093e+00 -9.1175070874474454e+02 1.0000000000000000e+00 5.5608018678337201e+00 2.4640470498906564e+00 4.2425226002915863e+00 
194 1 1 2.3109929729710212e+00 1.9828684699322919e+03 1.0000000000000000e+00 4.6369468985060331e+00 2.3948114122065425e+00 4.0604485627186593e+00 
1401 1 1 2.0652549221759036e+00 1.0450007332665784e+03 1.0000000000000000e+00 4.7553016462292232e+00 3.3740720114127929e+00 5.0613754276963014e+00 
316 1 1 9.7587395194454574e-01 -6.6365952137609884e+02 1.0000000000000000e+00 5.6804955804841706e-01 4.7121884804263310e+00 5.8034923279493906e+00 
1623 1 1 1.8838530645094125e+00 1.1802415558949929e+03 1.0000000000000000e+00 3.3468928031221576e+00 4.7060082548556315e+00 5.4048648758128337e+00 
1508 1 1 1.6197008135089925e+00 2.1120770873675920e+03 1.0000000000000000e+00 2.7530757746873005e+00 4.7483971912861254e+00 5.6543835745878690e+00 
984 1 1 2.0321927726525613e+00 -3.0809487926443512e+02 1.0000000000000000e+00 4.2711364816881181e+00 5.3724448809005176e+00 4.7373881582985122e+00 
2314 1 1 1.6490040323222919e+00 -2.0204849282192120e+03 1.0000000000000000e+00 4.3257014625950969e+00 5.8335800906232915e+00 5.4883864918365326e+00 
447 1 1 2.1700517814787998e+00 -5.8620576554573290e+03 1.0000000000000000e+00 5.0245103399178239e+00 4.9777803348460026e+00 4.8902966667306220e+00 
1206 1 1 2.1155335565436193e+00 -1.7136424814095692e+03 1.0000000000000000e+00 4.5193978208383481e+00 5.2177582612347289e+00 5.3432225327283609e+00 
2281 1 1 2.0959310519918444e+00 2.2583635311520684e+03 1.0000000000000000e+00 5.3147970851964299e+00 4.4678835289063308e+00 5.0950208838678801e+00 
1421 1 1 2.1066721316204089e+00 2.3151733669351208e+02 1.0000000000000000e+00 5.3596532918004254e+00 4.3867352171893268e+00 4.8226373068547153e+00 
1791 1 1 2.0847003733383116e+00 -1.1352504647733570e+03 1.0000000000000000e+00 2.1777198052720297e+00 7.2200008957008706e+00 4.9834284162858316e+00 
2667 1 1 1.8877550432284327e+00 2.7235455052555608e+03 1.0000000000000000e+00 1.6966967670974156e+00 7.5692572077031146e+00 5.6918999421329302e+00 
1498 1 1 1.8525198468967867e+00 -3.8442812986524359e+02 1.0000000000000000e+00 1.2123644360806416e+00 7.3211664963674243e+00 4.8009978207511708e+00 
394 1 1 2.0017276268919240e+00 5.5982184596844554e+03 1.0000000000000000e+00 1.9557658229371511e+00 7.1613139732522599e+00 4.7719928953640522e+00 
588 1 1 1.8585337919245599e+00 2.1181210496651584e+03 1.0000000000000000e+00 2.6482153278234399e+00 6.9271985409658363e+00 4.7303086930037370e+00 
1388 1 1 1.4846491509026702e+00 -5.9140953876545314e+02 1.0000000000000000e+00 3.5497858566001739e+00 7.5694325492446444e+00 5.4216880689868638e+00 
1108 1 1 1.2048981583706950e+00 -3.6792633569511008e+03 1.0000000000000000e+00 3.9363864207996797e+00 7.0641087678550942e+00 5.6140066216661726e+00 
561 1 1 2.0273127946786551e+00 -1.4865713107161866e+03 1.0000000000000000e+00 2.4657472303371928e+00 7.5542429556230362e+00 5.1196872807308846e+00 
1472 1 1 1.1901003683727238e+00 4.2133057062522375e+03 1.0000000000000000e+00 6.5464806142113909e+00 6.5612385981941923e+00 5.7537095801363272e+00 
124 1 1 1.2286514188959645e+00 4.9180256620349337e+03 1.0000000000000000e+00 7.5281381721888097e-01 9.4515136186271942e+00 5.9305292355913259e+00 
413 1 1 1.3733121523162579e+00 3.0213165516457989e+03 1.0000000000000000e+00 9.0726824610672541e-01 9.9676558146771370e+00 5.7572574261179721e+00 
730 1 1 1.3545766809926967e+00 -1.5164089424083086e+03 1.0000000000000000e+00 4.1885035604135803e+00 8.7453653139065839e+00 4.0540982190387869e+00 
945 1 1 1.6246850059278630e+00 -1.4036183599881856e+03 1.0000000000000000e+00 3.4495018130558188e+00 9.4585626328727397e+00 5.5953937522703097e+00 
89 1 1 1.5004620314406139e+00 1.0673263336013445e+03 1.0000000000000000e+00 6.6176972850007347e+00 9.9134716822772901e+00 4.5267229817651549e+00 
358 1 1 1.9179938197768236e+00 1.0040303093546994e+03 1.0000000000000000e+00 3.1627652469441958e-01 2.1711377614062974e-01 7.1473238205855534e+00 
2032 1 1 1.1291800610741300e+00 -3.3956527356179222e+03 1.0000000000000000e+00 1.7761897251813110e+00 3.6692010773841827e-01 7.4094465863756760e+00 
2547 1 1 2.0654930641057665e+00 1.9813293803230633e+02 1.0000000000000000e+00 1.4661885190775739e-01 1.0379689840344739e+00 7.5227913623794036e+00 
1040 1 1 1.6831134288306635e+00 1.1342408090246182e+02 1.0000000000000000e+00 2.2302108473907634e+00 1.9338515248676071e+00 7.9679736961366494e+00 
1316 1 1 1.5433113142263029e+00 1.7915536401084412e+03 1.0000000000000000e+00 5.5864234616454693e+00 7.9401900127096109e-02 7.6815725895009264e+00 
1679 1 1 1.7377465531760272e+00 4.2715841857561537e+02 1.0000000000000000e+00 5.6054408499124317e+00 1.9717156406322573e+00 7.6400214339486459e+00 
1313 1 1 1.5071252724938389e+00 -2.1061345842755532e+02 1.0000000000000000e+00 4.9785332955520616e+00 7.0853499119459318e-01 6.1562946825247176e+00 
578 1 1 1.6161847080862133e+00 -2.6101037680238560e+03 1.0000000000000000e+00 5.1613351823697888e+00 1.1037368343740361e+00 6.9931575076590500e+00 
446 1 1 1.8834308747974282e+00 -1.5714381579447966e+03 1.0000000000000000e+00 6.2495296106206109e+00 6.8128050038116983e-01 7.6013290241831113e+00 
1640 1 1 1.5678872314318364e+00 5.4364998242490346e+03 1.0000000000000000e+00 4.4562027457005426e-01 3.1344975659163055e+00 6.3418276741039152e+00 
721 1 1 1.2607731187583735e+00 -2.4043228916456023e+03 1.0000000000000000e+00 2.0749742264415008e+00 2.4151183109013350e+00 6.1398672994688717e+00 
2647 1 1 1.6840512829843528e+00 -4.4504220848049999e+02 1.0000000000000000e+00 1.0086265724551968e-01 2.8235468144662312e+00 7.2403398261353482e+00 
2418 1 1 1.6144548192957511e+00 -1.4921682484618536e+03 1.0000000000000000e+00 1.1774636872724769e+00 3.1648085472617842e+00 6.1828893078373666e+00 
699 1 1 1.2791881713480560e+00 -4.7419337259820946e+02 1.0000000000000000e+00 2.3604989820771061e+00 2.8273996634672813e+00 6.0919077419043566e+00 
1688 1 1 1.5349162553400133e+00 1.7513485086674441e+03 1.0000000000000000e+00 2.7817573532980209e+00 2.9003057889983221e+00 7.4830519272234284e+00 
2368 1 1 1.2430397223256990e+00 1.3386626109090296e+03 1.0000000000000000e+00 3.4317174257357945e+00 2.9675499738517268e+00 7.2551799024461783e+00 
1928 1 1 1.9121407382192539e+00 1.6054320919714248e+03 1.0000000000000000e+00 5.8140217410846855e+00 2.0872394195644057e+00 6.7266675101322013e+00 
258 1 1 1.5047117510641459e+00 2.7693949132484556e+02 1.0000000000000000e+00 5.1426819933003634e+00 3.8299293029252990e+00 6.3190651971729217e+00 
680 1 1 1.8885584381874641e+00 3.8687920995061438e+02 1.0000000000000000e+00 6.1776148823205919e+00 2.1099365451431975e+00 6.3040846539773234e+00 
10 1 1 1.3451768352869848e+00 1.2086140058923602e+03 1.0000000000000000e+00 4.7807986149385089e+00 3.2779139576386274e+00 7.2782561677127191e+00 
787 1 1 1.6244088677215829e+00 2.5057671036670390e+03 1.0000000000000000e+00 5.7112865852100247e+00 2.8065190883991717e+00 6.4968271105806812e+00 
1462 1 1 2.3434721353700079e+00 -4.7884129875382462e+02 1.0000000000000000e+00 4.1108224938556326e-01 4.1825684593008674e+00 7.7281542952145932e+00 
1309 1 1 1.3469366481950213e+00 5.7219082670616426e+03 1.0000000000000000e+00 6.4021786873003850e-01 5.7813148625307598e+00 6.8966694892038864e+00 
1783 1 1 1.8821171781580495e+00 6.3913294944917993e+02 1.0000000000000000e+00 8.0140873947765379e-01 5.4577304969997735e+00 7.7089760699690251e+00 
1235 1 1 1.7782216641241397e+00 -4.6215949978421770e+02 1.0000000000000000e+00 2.2934507167315483e+00 4.9318475622088647e+00 6.3966154589677391e+00 
353 1 1 1.9743282368143535e+00 -5.3600587781342556e+03 1.0000000000000000e+00 2.5618712966729937e+00 5.6037511492861798e+00 7.6298816307996757e+00 
1096 1 1 1.9326536197558142e+00 -4.0645131074837872e+02 1.0000000000000000e+00 2.3882474185995632e+00 5.7438716608931539e+00 6.5375890494306406e+00 
126 1 1 1.9806062545148009e+00 5.4701748631030750e+03 1.0000000000000000e+00 3.7285204928937916e+00 5.2805315514078579e+00 6.6909373460437873e+00 
616 1 1 1.8920630926041933e+00 1.2758390856717265e+03 1.0000000000000000e+00 3.8319054581956129e+00 4.3714323215228799e+00 6.4936174188955436e+00 
1153 1 1 2.1450227709241050e+00 -5.7939896082820201e+02 1.0000000000000000e+00 2.9831918730743423e+00 4.8329873422692327e+00 7.3346843123469236e+00 
906 1 1 2.0271210175214489e+00 -8.4526052744274375e+02 1.0000000000000000e+00 2.4737915895888594e+00 5.0976673111652735e+00 7.4046602672498887e+00 
498 1 1 2.0404295238516679e+00 -1.3796754873344387e+03 1.0000000000000000e+00 4.6111752745291641e+00 4.9849795071263836e+00 7.9604880570944845e+00 
2080 1 1 1.3389742360683090e+00 8.9823858575688985e+02 1.0000000000000000e+00 1.0855810786424183e+00 6.7941665995799596e+00 6.5591015299267283e+00 
1614 1 1 1.7677425613924047e+00 9.9502143500365366e+02 1.0000000000000000e+00 2.0231173026874765e+00 6.8965663756745572e+00 6.9966336949330943e+00 
347 1 1 1.8218626875810515e+00 1.1445738252290157e+03 1.0000000000000000e+00 2.5485827709918421e+00 6.9734633719355683e+00 6.7321694882257566e+00 
1424 1 1 1.4908802222913042e+00 -1.6919834009562253e+03 1.0000000000000000e+00 4.4522891876629407e+00 7.2908847765406044e+00 7.7258429053201771e+00 
1286 1 1 1.2274697451237369e+00 -7.9443768362405194e+02 1.0000000000000000e+00 5.5514518494232359e+00 6.2737836864190699e+00 7.0626167171638121e+00 
2134 1 1 1.2704301611276627e+00 3.2154635021269081e+02 1.0000000000000000e+00 5.7974538747574096e+00 6.1808991487026264e+00 7.5102683387256715e+00 
1329 1 1 1.5945727133023615e+00 3.3918731151674465e+03 1.0000000000000000e+00 2.1669082916968154e+00 8.1893962825960855e+00 6.5663619163525224e+00 
2057 1 1 1.6928749445603086e+00 -7.7503646993769541e+02 1.0000000000000000e+00 4.4380904857807035e+00 8.9994269124598070e+00 6.4600390454590846e+00 
2215 1 1 2.0600292250199210e+00 -1.3523906984688592e+03 1.0000000000000000e+00 3.4976292526517976e+00 9.2238930742285099e+00 7.7374293494496902e+00 
538 1 1 1.5181744763555429e+00 -5.5332016846650947e+02 1.0000000000000000e+00 2.6890660342930004e+00 9.0235995488726708e+00 6.6481423552397310e+00 
2617 1 1 1.9727847538040246e+00 -1.7841036018418649e+03 1.0000000000000000e+00 3.6144062617416095e+00 9.0329334545233042e+00 6.7753193929768019e+00 
467 1 1 1.8746383619144562e+00 1.8863376665923836e+03 1.0000000000000000e+00 2.6272434883552691e+00 8.3777351430479481e+00 7.8377563011554514e+00 
1175 1 1 2.1734874005161999e+00 -3.0914018682682627e+03 1.0000000000000000e+00 4.2290396717796659e+00 8.5772618764304251e+00 7.5203879444883057e+00 
2004 1 1 2.0659031362249265e+00 1.7029708497831309e+03 1.0000000000000000e+00 5.7962141248091195e+00 9.6930278061130881e+00 7.7438981783933327e+00 
2193 1 1 9.4529130055339217e-01 -4.2857852566835288e+02 1.0000000000000000e+00 5.6415583001047285e+00 8.7327861516963790e+00 6.1075251622896225e+00 
1978 1 1 1.8240539669632394e+00 6.2298258568660958e+02 1.0000000000000000e+00 5.7351888831075861e+00 9.0538490577110178e+00 7.3987802332887922e+00 
1826 1 1 1.8101764253432062e+00 -9.0626259609554529e+02 1.0000000000000000e+00 1.4663408815321166e+00 6.8555165518426742e-01 8.0162374235348040e+00 
1200 1 1 2.4815492988274603e+00 1.9531630234353406e+03 1.0000000000000000e+00 1.0469880897160595e+00 1.5553422428032386e+00 9.4679580744472904e+00 
1872 1 1 1.5068592255161575e+00 2.5277488119869413e+03 1.0000000000000000e+00 5.7992949278182848e-01 1.2009513028181582e-01 9.5250257196183483e+00 
239 1 1 2.7965957111807040e+00 -1.2935256332915285e+03 1.0000000000000000e+00 9.2071208104850288e-01 1.4375525803911231e+00 8.8348474780679425e+00 
196 1 1 2.9173918840571540e+00 -1.1889112964503543e+03 1.0000000000000000e+00 8.6027175119491794e-01 1.9268191816397127e+00 9.0051191270413220e+00 
2568 1 1 2.5209297474073091e+00 -2.1605717381352288e+03 1.0000000000000000e+00 3.6358744025583156e-01 4.3044717902036822e-01 8.4742094244238118e+00 
1851 1 1 2.7464904277705209e+00 1.0195364493466378e+03 1.0000000000000000e+00 5.2471893876043714e+00 1.7665470328438457e-01 9.8369515411368749e+00 
2096 1 1 1.7866463865859852e+00 -1.0094501752249040e+03 1.0000000000000000e+00 5.8478577995542311e+00 1.4555273098865764e+00 8.0567244764760062e+00 
1465 1 1 2.2818161539122248e+00 2.1831127978503491e+03 1.0000000000000000e+00 6.1640993772682133e+00 9.1831787498448558e-01 9.9907921775629323e+00 
2583 1 1 1.1974402344920392e+00 -1.9628063631898774e+03 1.0000000000000000e+00 5.0296871921003721e+00 1.9971968171011869e+00 8.8413192410225143e+00 
1067 1 1 2.6887871127362324e+00 -3.0064674523159647e+03 1.0000000000000000e+00 6.1345449898281004e+00 4.3989278135158871e-01 9.4635446235317531e+00 
1686 1 1 2.7552991988393867e+00 -3.6357391614010030e+03 1.0000000000000000e+00 5.8505607713240124e+00 4.2834150788572684e-01 9.9837567154534703e+00 
1487 1 1 2.9192534238903791e+00 -2.0511934322595907e+03 1.0000000000000000e+00 1.0546320659516111e+00 2.5609744280073019e+00 9.4521684856305299e+00 
2214 1 1 2.3884664057739800e+00 -6.6207148129440270e+02 1.0000000000000000e+00 1.7788760442817753e-01 3.5204869109310497e+00 8.0338578991625749e+00 
2094 1 1 3.0173537122425040e+00 -2.7839969901406571e+03 1.0000000000000000e+00 1.2653754688286392e+00 2.8885904773425550e+00 8.4122835654870620e+00 
1310 1 1 2.4578821743369264e+00 4.0874367208845473e+02 1.0000000000000000e+00 1.7066489802862890e+00 2.9483951473022185e+00 8.0037027916005421e+00 
554 1 1 3.0825755717854206e+00 6.8339726558354914e+03 1.0000000000000000e+00 8.5539736036483560e-01 2.8476275145307155e+00 8.9473827732843514e+00 
2273 1 1 2.5514049745736807e+00 -1.7497905160842502e+03 1.0000000000000000e+00 2.1995082668795138e+00 3.8060456596010277e+00 9.1112489544056423e+00 
230 1 1 2.7579682689904663e+00 -1.3174900419957987e+03 1.0000000000000000e+00 2.1680956584187885e+00 2.9316649066491438e+00 9.2280300701590772e+00 
2123 1 1 2.9003890472412044e+00 2.3184855180791387e+03 1.0000000000000000e+00 1.3634345540408197e+00 2.0904679436165576e+00 9.2155691077080206e+00 
1882 1 1 2.4578544525156638e+00 4.5109827440255083e+02 1.0000000000000000e+00 2.9610988840271668e-01 3.5826915719845371e+00 8.7088268313297110e+00 
793 1 1 3.1729974802392507e+00 9.5623608728600209e+02 1.0000000000000000e+00 1.2161007566271334e+00 2.8940063050284892e+00 8.6560440471964011e+00 
389 1 1 2.2261514356774961e+00 3.5257669263721868e+03 1.0000000000000000e+00 2.7634472753588115e+00 3.3721418096086277e+00 8.8605824537174236e+00 
855 1 1 1.1928257652878291e+00 -1.6385569279802000e+03 1.0000000000000000e+00 3.7370530604731895e+00 2.5214198515280550e+00 9.2474511129032599e+00 
1390 1 1 1.0593441094101712e+00 4.4680493614290363e+03 1.0000000000000000e+00 4.5200125064976220e+00 2.5591249435605747e+00 8.9375391265655946e+00 
2695 1 1 2.2404625018106792e+00 -5.3983853442414611e+03 1.0000000000000000e+00 7.7425396776670513e-02 5.3877548018024077e+00 8.4880169338974216e+00 
2084 1 1 2.0029518468595269e+00 1.7891224549367930e+03 1.0000000000000000e+00 2.1591650873139198e-01 5.7647897641675430e+00 8.8653333293245691e+00 
2040 1 1 2.3252020426575739e+00 2.0674601525433072e+03 1.0000000000000000e+00 7.5148727445801189e-01 4.6203506938769880e+00 8.5222229274154788e+00 
2011 1 1 1.6789201225385546e+00 1.6916494923118357e+03 1.0000000000000000e+00 1.1527068743632420e+00 4.9220541328686904e+00 9.6685427900403234e+00 
252 1 1 2.0523836873623207e+00 -4.6387333834111214e+03 1.0000000000000000e+00 2.5564279180454824e-01 5.7129481639595472e+00 8.3996767881612850e+00 