LAMMPS data file via write_data, version 30 Jul 2016, timestep = 50400000

2700 atoms
2 atom types

0.0000000000000000e+00 2.0000000000000000e+01 xlo xhi
0.0000000000000000e+00 2.0000000000000000e+01 ylo yhi
0.0000000000000000e+00 2.0000000000000000e+01 zlo zhi

Masses

1 3.896
2 5

Atoms # meso-molecular

2205 1 1 5.5289539779088059e-01 4.1090790921656071e+03 1.0000000000000000e+00 1.9340351474788686e+00 9.9884756196394497e-01 5.4289148321940106e-01 
927 1 1 8.3316155920450652e-01 -2.3962418453689843e+03 1.0000000000000000e+00 4.4817472969650562e-01 1.3167225028436018e+00 1.8365466492338220e+00 
2632 1 1 1.1306695924174059e+00 5.1598974209885610e+03 1.0000000000000000e+00 1.7591860061502321e-01 1.1363892745970936e+00 5.7616052834964648e-01 
1268 1 1 2.4368678770885506e+00 5.3697370921942074e+03 1.0000000000000000e+00 5.7449006287352509e+00 1.8658487361093883e+00 1.8895207128179794e+00 
2177 1 1 1.3760420146197712e+00 -5.7498302939677569e+02 1.0000000000000000e+00 1.5300387992404605e+00 3.1636587234299598e+00 1.9977326025903355e+00 
1571 1 1 1.6336155304007314e+00 -6.9492905523473928e+03 1.0000000000000000e+00 1.0710396268317541e+00 3.3481075665656643e+00 4.6678369381084460e-02 
2253 1 1 1.3300904304800962e+00 6.2857677869703039e+01 1.0000000000000000e+00 9.5372542879565925e-01 3.0497202250218245e+00 1.3351461650365748e+00 
690 1 1 1.2277695151704153e+00 2.5852205147852541e+01 1.0000000000000000e+00 2.0905227710452223e+00 3.9666392451461996e+00 6.6626510200377287e-01 
1306 1 1 1.4243468389566141e+00 -1.6322265465265184e+03 1.0000000000000000e+00 3.7550535367157085e+00 3.6040277868958177e+00 1.1958300988493515e+00 
983 1 1 2.8198794059080505e+00 -3.3959375099600461e+03 1.0000000000000000e+00 6.1335363111295766e+00 2.8004515004750079e+00 8.8800308554408425e-01 
1211 1 1 2.5291376305325435e+00 -7.5078308765645318e+02 1.0000000000000000e+00 5.6321352881205282e+00 2.0960222410432552e+00 1.8437893029260999e+00 
2037 1 1 2.8791454069762388e+00 1.4943020454609514e+03 1.0000000000000000e+00 6.0474081786647345e+00 3.3991069077550899e+00 1.8085150917564847e+00 
126 1 1 2.9542759232329856e+00 5.0031287193414582e+03 1.0000000000000000e+00 5.8919469359086252e+00 2.6600785773104780e+00 1.7064867344887766e+00 
2559 1 1 1.5341678070819824e+00 -2.1453805561923073e+03 1.0000000000000000e+00 5.3653974280633445e+00 2.4427148923361597e+00 3.6501409834928424e-02 
850 1 1 2.0704457682221831e+00 -3.9669966267077689e+03 1.0000000000000000e+00 6.4279173120599893e+00 3.2522157162134864e+00 2.6734688840135484e-01 
1822 1 1 1.3214888076695166e+00 5.7554636596862474e+03 1.0000000000000000e+00 2.9480424004332495e-01 4.0044835445543585e+00 3.0953905947809407e-01 
647 1 1 8.7618573515865805e-01 2.9105661380503739e+03 1.0000000000000000e+00 1.4399179639809421e+00 4.7246685367625316e+00 3.3997193187327801e-01 
951 1 1 2.0385020676039347e+00 7.1653870695837702e+02 1.0000000000000000e+00 3.6446010063309906e+00 4.0079829934077003e+00 1.9303929061865168e+00 
2478 1 1 1.5056816570154949e+00 -4.1519432059534455e+02 1.0000000000000000e+00 3.7940293880908711e+00 4.7858956715582526e+00 1.1443731886385196e+00 
2686 1 1 1.8330559432025111e+00 -4.3383942793008337e+03 1.0000000000000000e+00 6.1112516567664139e+00 4.4574504735290210e+00 1.6202673476246159e+00 
1734 1 1 1.5131535598181012e+00 -2.8647906658181665e+02 1.0000000000000000e+00 4.5989559267710058e+00 5.1549136853455728e+00 1.3476251343663816e+00 
897 1 1 1.3967577883233295e+00 8.1777744571415008e+02 1.0000000000000000e+00 5.0015957693360118e+00 4.2102650942587427e+00 8.4125186906628435e-01 
449 1 1 1.0954203162605485e+00 -1.4823312171022305e+03 1.0000000000000000e+00 3.9998710835745408e+00 6.4794232113880499e+00 1.7426399781755799e+00 
1633 1 1 1.4913513193604961e+00 1.4149875223244624e+02 1.0000000000000000e+00 4.8761768321150400e+00 7.8199976363029045e+00 7.2648492119294750e-01 
1787 1 1 9.7176136707383076e-01 1.3234316965659259e+03 1.0000000000000000e+00 4.6335726524609457e+00 6.2058603331505058e+00 9.5795654231480332e-01 
545 1 1 1.6427386156293748e+00 -9.5127042147694269e+01 1.0000000000000000e+00 5.8528109376678739e-01 9.6446729522445587e+00 3.5542287142646713e-02 
307 1 1 1.4858663662133060e+00 1.7648950874593895e+03 1.0000000000000000e+00 1.7469591459653402e+00 9.5947446116252930e+00 1.0438210960806207e-01 
758 1 1 1.7428629487854654e+00 -5.2774592322778267e+02 1.0000000000000000e+00 4.0869632617926488e+00 9.3181494291250768e+00 6.3377632013216134e-01 
2314 1 1 1.6545645897050121e+00 -2.2161803155591861e+03 1.0000000000000000e+00 2.8773998873417668e+00 9.6110423667494054e+00 5.2187715804095217e-02 
600 1 1 1.4554386855546821e+00 5.1874990679717791e+02 1.0000000000000000e+00 2.8482435865118361e+00 9.2321221222749781e+00 4.6044212493132064e-01 
2215 1 1 1.7803624568846323e+00 -1.6428197382703215e+03 1.0000000000000000e+00 4.8620207873697625e+00 8.1941968398147846e+00 1.5636110004264170e+00 
382 1 1 2.1902807799858297e+00 -2.1528404198831204e+03 1.0000000000000000e+00 6.0374326556280655e+00 8.4241667452078239e+00 1.5416897353083499e+00 
70 1 1 2.0488998226584867e+00 -2.0594723337963675e+01 1.0000000000000000e+00 5.8624998483354096e+00 9.1952135866017795e+00 1.6890483188747247e+00 
1764 1 1 1.9613863649504619e+00 3.9867730466213916e+03 1.0000000000000000e+00 4.8496365296088522e+00 8.5894092790388843e+00 1.0898624530088965e+00 
1381 1 1 2.0505724536361174e+00 2.2381731693452771e+03 1.0000000000000000e+00 5.9481108675045524e+00 8.2708664784015404e+00 1.7812129120605447e+00 
2339 1 1 2.3680748818991901e+00 1.7316393069867775e+03 1.0000000000000000e+00 6.1721634570256514e+00 8.5939614854062043e+00 6.2489757341863794e-01 
1537 1 1 1.4352787137295480e+00 -1.4476488616930745e+01 1.0000000000000000e+00 6.1948140911565046e+00 9.9757566968136739e+00 4.7138781103293607e-02 
1323 1 1 1.1065570959368367e+00 -3.1995209131311535e+03 1.0000000000000000e+00 3.9609271442149896e-01 8.0174475291770186e-02 3.9385937572563861e+00 
2094 1 1 9.3281926773828394e-01 -2.9120440262870779e+03 1.0000000000000000e+00 1.1821686558780242e+00 1.0604298867674401e-01 2.4605652047437405e+00 
1659 1 1 1.1368881582671926e+00 4.2682768216874229e+03 1.0000000000000000e+00 5.5610634912865597e-01 1.6797649441701532e-01 3.3092709154033013e+00 
2165 1 1 2.3052488821261630e+00 1.9939895831588567e+03 1.0000000000000000e+00 2.9142112892922984e+00 1.2969967448155964e-01 3.4489883709409117e+00 
625 1 1 2.0020605998959811e+00 -9.9448816734029310e+02 1.0000000000000000e+00 2.2312877304633911e+00 1.6414748138589468e+00 3.0528460435251246e+00 
320 1 1 2.5981249487698084e+00 3.7602841445747417e+03 1.0000000000000000e+00 2.7175167669201996e+00 5.4358773325919663e-01 3.9677274086515748e+00 
2396 1 1 2.0214847959167739e+00 3.3197445340805052e+02 1.0000000000000000e+00 4.4186515380414839e+00 1.9905518152933686e+00 2.8272946111849291e+00 
617 1 1 2.5549605654347842e+00 1.9017601544856424e+02 1.0000000000000000e+00 2.4804473705241845e+00 7.2944703163112368e-01 3.9847172485549063e+00 
215 1 1 2.3429657294017701e+00 -2.6041473664810728e+03 1.0000000000000000e+00 2.3173093403574594e+00 3.4834146653875275e-01 3.5967184530623451e+00 
976 1 1 2.4220557582664530e+00 -6.4209797336143845e+02 1.0000000000000000e+00 5.4389599419015582e+00 1.0247570641107648e+00 3.2913864063749760e+00 
837 1 1 2.4231682675311244e+00 -1.3037859785668841e+03 1.0000000000000000e+00 5.4660855409578248e+00 1.7882890419347757e+00 3.3213762672852125e+00 
1936 1 1 2.0262650334381718e+00 -3.4266566447188047e+03 1.0000000000000000e+00 5.0615957971464027e+00 1.2692551686119757e+00 2.4859432078810193e+00 
2432 1 1 2.6291797048988075e+00 1.1829108261822694e+03 1.0000000000000000e+00 6.5593848740263834e+00 1.2603797177205773e+00 3.4511023855498397e+00 
1954 1 1 2.1177317807164551e+00 -1.2718781844917784e+02 1.0000000000000000e+00 5.3087570599767222e+00 6.2656226650830904e-01 3.1887609239570529e+00 
2139 1 1 2.4566088753794086e+00 3.7626979408679776e+03 1.0000000000000000e+00 5.3871519105504335e+00 1.7739023430459571e+00 3.1863144080268047e+00 
610 1 1 1.3559538428291911e+00 1.8348836897950157e+03 1.0000000000000000e+00 1.2922330706629783e+00 2.8537489293267990e+00 2.1107565892530786e+00 
916 1 1 1.9879017761251727e+00 -6.2121622884174512e+03 1.0000000000000000e+00 1.3994759972736532e+00 2.2603644351289867e+00 3.5518929256879628e+00 
705 1 1 2.7471557549016987e+00 -1.2497676455844974e+03 1.0000000000000000e+00 2.0146888838956212e+00 2.9398496751681056e+00 3.7881766036615789e+00 
988 1 1 2.2510026592409882e+00 3.5035993720764327e+03 1.0000000000000000e+00 1.8096425704180719e+00 3.7221331688201915e+00 3.9222650656376974e+00 
168 1 1 2.9192761471361051e+00 2.8219624335940425e+03 1.0000000000000000e+00 2.8247356302765936e+00 3.0142915421421539e+00 3.8829883783851598e+00 
128 1 1 1.7112628297282786e+00 -5.1681611787878140e+01 1.0000000000000000e+00 3.3853809019476229e+00 2.9221752650572479e+00 2.0744178174224528e+00 
1056 1 1 2.9268909739720406e+00 -2.8508620027409296e+02 1.0000000000000000e+00 2.5136605726242336e+00 3.0310687781501682e+00 3.6403825642589616e+00 
1909 1 1 1.8589443275694986e+00 -1.9786806862996154e+03 1.0000000000000000e+00 2.4522493990443590e+00 2.2421865422760479e+00 2.5940300753339360e+00 
2668 1 1 2.6311707607072430e+00 2.2440952741602168e+03 1.0000000000000000e+00 3.6515484908420457e+00 3.9068760272268848e+00 2.8753083186043344e+00 
1082 1 1 2.2927346260276789e+00 3.1538315736270752e+03 1.0000000000000000e+00 4.4074832808548203e+00 3.7563792345358005e+00 2.7281929255482753e+00 
2504 1 1 2.4561689999876335e+00 -3.1338309111513677e+03 1.0000000000000000e+00 3.5374117178171325e+00 2.5850400326408463e+00 3.8817696006259839e+00 
2324 1 1 2.5301695060933778e+00 -1.1151960473473648e+03 1.0000000000000000e+00 3.6587754740553282e+00 2.6986556184886696e+00 3.3517993710624503e+00 
1390 1 1 2.4956099574879165e+00 4.2084557153171618e+03 1.0000000000000000e+00 3.8029107234370243e+00 3.1928192904860175e+00 3.8861362818625951e+00 
2619 1 1 2.8802755232733466e+00 -1.9598486774516812e+03 1.0000000000000000e+00 2.8866981819050386e+00 3.2891189215722685e+00 3.9518966258560169e+00 
1717 1 1 2.9831313522454610e+00 -1.9137763140496268e+03 1.0000000000000000e+00 6.1778631604989878e+00 2.6677898205713291e+00 2.0297183017903619e+00 
2067 1 1 1.8819778431166541e+00 1.8041963902109319e+03 1.0000000000000000e+00 6.3726602748446544e+00 3.8337908976135893e+00 2.8107162359640383e+00 
1435 1 1 1.8501418098685527e+00 -3.2060372418614506e+03 1.0000000000000000e+00 6.1468818473268891e+00 3.4730848078930574e+00 3.0750211407969537e+00 
1668 1 1 1.9355136499680023e+00 1.2366429713227302e+02 1.0000000000000000e+00 5.2185114988704937e+00 3.2152268875247283e+00 3.3779581238426926e+00 
358 1 1 2.3601718738628574e+00 1.4059660296517329e+03 1.0000000000000000e+00 6.4621796967111917e+00 3.9037558997098207e+00 2.1786124033002818e+00 
260 1 1 1.3188159059594520e+00 3.1935737207108646e+03 1.0000000000000000e+00 1.4533027004575805e+00 5.2917501164315635e+00 2.7886215192062442e+00 
2408 1 1 1.9552693131413179e+00 5.5142048870266410e+02 1.0000000000000000e+00 1.6763951005308584e+00 4.1626778679646987e+00 3.9101104600494159e+00 
2352 1 1 2.3836679486595047e+00 4.6067327165767911e+03 1.0000000000000000e+00 1.9263530331693042e+00 5.3798979133634930e+00 3.7388980164885184e+00 
1618 1 1 2.4912457460609332e+00 -2.3522440229031995e+03 1.0000000000000000e+00 2.9391228766910933e+00 5.1632803392315205e+00 3.0779681238198222e+00 
204 1 1 2.4118764430315096e+00 3.0615308748819066e+03 1.0000000000000000e+00 3.3745817216761957e+00 4.7799954789051906e+00 2.8142879108390662e+00 
1437 1 1 2.4445430177309455e+00 2.6319471813246555e+03 1.0000000000000000e+00 3.4462826568183056e+00 4.9612101772888302e+00 2.9870557997409017e+00 
1494 1 1 2.2136058725201235e+00 -2.6450920239743346e+03 1.0000000000000000e+00 4.2969859372022157e+00 4.3649383680163005e+00 3.0970246799026997e+00 
180 1 1 1.1915679016964826e+00 -1.9347943882942600e+03 1.0000000000000000e+00 5.1343988647454255e+00 5.4383679192533574e+00 2.2752182528516265e+00 
570 1 1 2.5333386542519754e+00 -2.1567524075658666e+03 1.0000000000000000e+00 2.0003210450219759e+00 6.8684807486479924e+00 3.6596575898660499e+00 
626 1 1 2.3979317599486709e+00 2.1390234059267805e+03 1.0000000000000000e+00 6.0282383917061400e-01 7.4884508556095337e+00 3.9375533894324075e+00 
1367 1 1 1.0565296764813323e+00 -1.4354465930532581e+03 1.0000000000000000e+00 1.4221564219659202e+00 7.7808517652387810e+00 2.2553166273560610e+00 
2056 1 1 1.5095398826454427e+00 1.7328313135984868e+03 1.0000000000000000e+00 2.2946979038254076e+00 6.1569630352336562e+00 2.4043612484596637e+00 
452 1 1 1.6475701400636333e+00 -6.7582291614456767e+02 1.0000000000000000e+00 2.6100825995758443e+00 6.4144038946870596e+00 2.5459605796789413e+00 
1475 1 1 1.6471063941273643e+00 -9.8339274446306561e+01 1.0000000000000000e+00 2.9369660860787294e+00 7.4340744244836445e+00 2.7082268970956558e+00 
2033 1 1 1.1277393983401705e+00 -2.4905153104439705e+03 1.0000000000000000e+00 5.5292399644742094e+00 7.1815759877501897e+00 2.8402751718592700e+00 
1137 1 1 1.3546989609149660e+00 4.9537944435770814e+03 1.0000000000000000e+00 6.4813308085288197e+00 7.4559901931579322e+00 2.0642051066080023e+00 
1471 1 1 1.9965518244496356e+00 4.1395083959393098e+01 1.0000000000000000e+00 1.6623942127014544e+00 9.5747039739433628e+00 3.4925765580026331e+00 
1348 1 1 2.2018323107333999e+00 -2.3258187912253798e+03 1.0000000000000000e+00 1.1207830269895200e+00 8.8395144309039679e+00 3.5536845589114190e+00 
1194 1 1 2.4908455779640151e+00 -2.1067548173782175e+03 1.0000000000000000e+00 1.9807410808299344e+00 9.0382350041475981e+00 3.6103585141219705e+00 
1806 1 1 2.0093374131786907e+00 -3.1858249564495209e+03 1.0000000000000000e+00 5.8418370470070058e-01 8.9657097283654057e+00 3.9943713980459679e+00 
793 1 1 1.1305299128610646e+00 6.4327441311296263e+02 1.0000000000000000e+00 3.4105554458953038e+00 9.0562651028301620e+00 2.3669859175304966e+00 
1183 1 1 2.4308930656766452e+00 1.9174790730731812e+02 1.0000000000000000e+00 3.1141054539385715e+00 8.2626992981486840e+00 3.5331869937088620e+00 
2168 1 1 2.0479282921734181e+00 -2.3303217856125357e+03 1.0000000000000000e+00 2.3409304893212814e+00 8.4121918067499521e+00 2.8866002857954642e+00 
1391 1 1 2.4880981036572072e+00 -3.7813696354221311e+03 1.0000000000000000e+00 2.4341685859245201e+00 8.0373945753305165e+00 3.2744539418237348e+00 
2672 1 1 1.9033578133136162e+00 -2.1708432267081703e+03 1.0000000000000000e+00 4.7470989930783469e+00 8.4573783116456926e+00 3.3786816803981048e+00 
375 1 1 1.9550858575670806e+00 -5.8537314347396286e+03 1.0000000000000000e+00 4.6254246441105291e+00 8.8655584809944639e+00 3.4209493547730294e+00 
1988 1 1 2.3910248709722648e+00 -1.5123572430487091e+03 1.0000000000000000e+00 6.0711094814037763e+00 9.8663958333728718e+00 3.8818318545477180e+00 
2489 1 1 1.9680019620897391e+00 -3.7745257628657885e+02 1.0000000000000000e+00 5.3716037766486293e+00 9.9627011138330186e+00 3.7675890189961883e+00 
475 1 1 2.2303514611733704e+00 -3.0255476870604120e+03 1.0000000000000000e+00 5.5514335197167037e+00 8.7586623892806035e+00 3.5233934506471476e+00 
2546 1 1 2.1812185851104853e+00 1.4799486985087765e+03 1.0000000000000000e+00 2.2061831340942155e+00 1.9546985745619780e+00 5.3952533008854378e+00 
42 1 1 2.2012327929041215e+00 2.2631090190785883e+02 1.0000000000000000e+00 1.6611129463631733e+00 8.6046129407384098e-01 4.1341346979148881e+00 
2597 1 1 1.2791259523657823e+00 -4.9643328551916119e+02 1.0000000000000000e+00 1.0355200045947774e+00 2.7469444589094744e-01 4.9910668742749253e+00 
736 1 1 1.8102376583540911e+00 -3.5335950364623122e+03 1.0000000000000000e+00 1.1054620403499544e+00 1.8477279599201308e+00 5.0411453205790027e+00 
1720 1 1 2.5051925142534675e+00 2.5570457535041201e+03 1.0000000000000000e+00 3.1210311314487713e+00 7.9638236593074763e-01 4.0889046361998078e+00 
1608 1 1 2.2372089015436289e+00 -2.7616248445999827e+02 1.0000000000000000e+00 2.7348378816922154e+00 8.4366415075834300e-01 5.1770790158199418e+00 
2161 1 1 1.9947003454544190e+00 -3.1070802586787755e+02 1.0000000000000000e+00 4.4356049697351336e+00 1.0145554320990846e+00 4.2554208461312815e+00 
2380 1 1 1.6406023401646233e+00 -1.7710296861863219e+03 1.0000000000000000e+00 4.4208862977967440e+00 1.1002500694989163e+00 5.5778889379056524e+00 
1001 1 1 2.3506872982168074e+00 1.6947637874551783e+03 1.0000000000000000e+00 6.3827244118132684e+00 1.2277195857238687e+00 4.4958181827905621e+00 
1514 1 1 1.8758369215757564e+00 -1.5615552103388802e+03 1.0000000000000000e+00 4.5543862831221169e+00 5.5361965962962445e-01 5.1319495877779175e+00 
1028 1 1 2.0500741463928764e+00 -1.0340063120867712e+03 1.0000000000000000e+00 6.2951085561217326e+00 6.6311702066330813e-01 5.2159897400022679e+00 
1979 1 1 2.6629081597231514e+00 -1.4654884591966538e+03 1.0000000000000000e+00 6.4510183109814987e+00 8.9090684206993098e-01 4.4782523341871929e+00 
638 1 1 2.6681583975785577e+00 2.4729586210546681e+03 1.0000000000000000e+00 1.8778271136502582e+00 2.7585741623552056e+00 4.3916365595856757e+00 
1052 1 1 2.1136041186712329e+00 2.5019595988991396e+03 1.0000000000000000e+00 1.4440931353709723e+00 2.3075659810819991e+00 5.2142128527106184e+00 
1866 1 1 2.2465928785548033e+00 -6.7915157529446071e+02 1.0000000000000000e+00 1.7988032699292142e+00 2.4240827963869598e+00 5.3106019117941869e+00 
1438 1 1 2.0712419550450929e+00 3.5851694616437294e+03 1.0000000000000000e+00 1.5125592069912899e+00 2.9002129562494665e+00 5.4579342293628379e+00 
453 1 1 1.9246437953109328e+00 -1.2586545125539203e+03 1.0000000000000000e+00 3.7524303675241510e+00 3.7189168715221905e+00 4.9052696698797869e+00 
2035 1 1 1.5724300326555907e+00 -2.1825783027538905e+03 1.0000000000000000e+00 4.2964293930143631e+00 2.8579546942101692e+00 5.3686615655773453e+00 
1644 1 1 1.0633878592914756e+00 2.2457200848598904e+03 1.0000000000000000e+00 5.8285886749643181e+00 3.8137284047806861e+00 4.7805912429634523e+00 
1492 1 1 2.2823214847094464e+00 1.0098041894430290e+02 1.0000000000000000e+00 1.8754080273321456e+00 5.2211556381277298e+00 4.0804898081383900e+00 
306 1 1 2.1239556950955460e+00 -1.8442083372293882e+03 1.0000000000000000e+00 1.4609527147563528e+00 5.7915777349715967e+00 4.2720634566597324e+00 
352 1 1 2.5165560907407420e+00 -4.0727355304602661e+03 1.0000000000000000e+00 2.2130081080007660e+00 5.8143766847943450e+00 4.6868261505962900e+00 
229 1 1 2.5090599510675649e+00 6.4205802099307994e+02 1.0000000000000000e+00 3.7095968902155079e+00 5.4727603451477691e+00 4.6139535118527526e+00 
2234 1 1 2.5924409252365423e+00 -1.6327796678702455e+03 1.0000000000000000e+00 3.5400028216319006e+00 5.7073582254685888e+00 4.3094522692537831e+00 
224 1 1 1.5009624777634605e+00 5.3470666999133095e+02 1.0000000000000000e+00 2.9160633073052367e+00 4.5710344681109492e+00 5.7492693550145963e+00 
1994 1 1 2.8100133066854167e+00 5.9114130907179356e+02 1.0000000000000000e+00 3.0249970180888086e+00 5.1730691561108841e+00 4.1183968894830487e+00 
1046 1 1 2.3643524383574674e+00 2.2231603542896244e+02 1.0000000000000000e+00 3.8289907914870915e+00 5.5772134490440770e+00 4.2795286275344244e+00 
117 1 1 1.7402979034109238e+00 -2.4064746273312544e+03 1.0000000000000000e+00 3.5700453104416714e+00 4.5250500170617505e+00 5.7281637076735148e+00 
2202 1 1 1.2067812768257256e+00 3.2372884447075071e+03 1.0000000000000000e+00 5.1422124777800144e+00 4.5109541706210550e+00 4.7825887614982499e+00 
2059 1 1 2.1815021678149238e+00 2.4045143216126139e+03 1.0000000000000000e+00 4.6655896627206422e-01 6.7507023452433339e+00 4.2838227325517062e+00 
2262 1 1 2.9452847623072764e+00 -2.9704785516575424e+02 1.0000000000000000e+00 1.5198442157277035e+00 7.0735015264583350e+00 4.9775357761801731e+00 
2024 1 1 3.2936375782837906e+00 -3.3289135073371781e+03 1.0000000000000000e+00 2.0520443784288322e+00 7.6088309561166874e+00 4.7188251088242632e+00 
2359 1 1 2.6048010814720177e+00 -1.1927024426775772e+03 1.0000000000000000e+00 5.2211406684711470e-01 7.1210209349885192e+00 4.6358351853465818e+00 
2394 1 1 2.5172200971641341e+00 -7.2352624472919115e+02 1.0000000000000000e+00 1.2452489164922689e+00 7.6702206835394753e+00 5.8617491620684774e+00 
2294 1 1 2.6866015917334782e+00 -4.3581916781805916e+02 1.0000000000000000e+00 1.6146958749892393e+00 6.6877785671005903e+00 4.9143148966930905e+00 
591 1 1 2.6925018460860577e+00 1.5241510245634869e+01 1.0000000000000000e+00 2.8688010118000662e+00 6.7024257863392105e+00 5.6335691662071374e+00 
1158 1 1 1.8502455304971352e+00 -1.4738856172390676e+03 1.0000000000000000e+00 4.4122189183075289e+00 6.7855584262121091e+00 5.1862851036760880e+00 
313 1 1 2.5837451786582175e+00 1.5574031028944962e+03 1.0000000000000000e+00 3.3837551703595818e+00 6.2977273361271209e+00 4.3901332178319654e+00 
2509 1 1 2.5908955536460954e+00 -1.2735305987536549e+02 1.0000000000000000e+00 3.4372150913488708e+00 6.8898803027202371e+00 5.6911903330780360e+00 
2467 1 1 2.5718819878664778e+00 -3.6808487485358537e+03 1.0000000000000000e+00 3.6652482688574497e+00 6.0771046227196974e+00 5.3533231479058898e+00 
938 1 1 2.2685509584409820e+00 -1.5643714757365151e+03 1.0000000000000000e+00 3.9319143007668433e+00 7.9479955231880979e+00 4.5185657773868737e+00 
1106 1 1 9.6850741835148391e-01 -5.7394430251984613e+03 1.0000000000000000e+00 6.4876756531278232e+00 6.4274768005750484e+00 4.7804784563167146e+00 
99 1 1 2.2606977661890948e+00 -4.7638047982603039e+03 1.0000000000000000e+00 2.1377135308704864e+00 9.6393328626092067e+00 4.6693438977457165e+00 
455 1 1 3.2631137802589221e+00 1.8355566327754561e+03 1.0000000000000000e+00 2.0356030093429993e+00 8.0499119755712609e+00 4.1849001078142107e+00 
1512 1 1 2.1916887764071356e+00 6.3596935820289764e+03 1.0000000000000000e+00 8.2716526809425028e-01 8.8284413701295392e+00 5.0506370148240540e+00 
1434 1 1 3.0074170102568920e+00 -3.1576326522575418e+03 1.0000000000000000e+00 1.5622816022616079e+00 8.0798949946591865e+00 5.2182049509893869e+00 
880 1 1 3.2717627755435519e+00 -1.8031391219156712e+03 1.0000000000000000e+00 2.2944089585312084e+00 8.0708508211799561e+00 4.5448148679894631e+00 
2186 1 1 2.2343831147523692e+00 7.0838037356417794e+02 1.0000000000000000e+00 3.0608361091724228e+00 9.4858353742605139e+00 4.4676049049440199e+00 
2178 1 1 2.9117259649411813e+00 -7.5304898695156571e+03 1.0000000000000000e+00 2.7817503525321672e+00 8.1028309343296705e+00 5.0943325075358956e+00 
2654 1 1 2.2068670102988706e+00 -5.9208379693681900e+02 1.0000000000000000e+00 4.3459145960171712e+00 8.7253546299239826e+00 4.6166245673695796e+00 
1603 1 1 3.0275228524969950e+00 -6.5474912917400206e+02 1.0000000000000000e+00 2.4603196500489797e+00 8.3388210087540227e+00 4.9011942314048182e+00 
2276 1 1 2.3498570384094042e+00 -1.3074970877197470e+02 1.0000000000000000e+00 3.6814770598223205e+00 8.5013524580178075e+00 4.9835409014385288e+00 
2042 1 1 1.7215605587507670e+00 -6.1866920150710803e+02 1.0000000000000000e+00 4.2804472833146257e+00 9.0197249207218171e+00 5.1738301217286811e+00 
362 1 1 2.0257173076473740e+00 -4.9837459953619809e+03 1.0000000000000000e+00 4.4696078791464435e+00 9.0835855816667852e+00 4.7078789527213827e+00 
299 1 1 2.2602802321782369e+00 -2.5824115279407433e+03 1.0000000000000000e+00 6.0861687199892138e+00 8.3254346081268604e+00 4.3703461476734864e+00 
1547 1 1 2.3613741897147289e+00 -2.4305207750105646e+03 1.0000000000000000e+00 5.9791997840976343e+00 8.5175046244670831e+00 4.0091988352931729e+00 
76 1 1 2.3186897444934953e+00 -1.1691300891518254e+03 1.0000000000000000e+00 6.5487192621664034e+00 9.7127252869884817e+00 4.4230953959654693e+00 
1287 1 1 1.6124952765693212e+00 5.1417380667798252e+03 1.0000000000000000e+00 2.1594879950090404e+00 1.8529445379050954e-01 6.7329467766679443e+00 
799 1 1 1.6118944895671041e+00 -1.4782655775486626e+03 1.0000000000000000e+00 2.0392882072874565e+00 4.7983388656597953e-01 6.4714886963738731e+00 
884 1 1 1.3157062526249255e+00 -2.7130713769537269e+03 1.0000000000000000e+00 1.0375832970629255e+00 1.7985000214370148e+00 7.8974653691182954e+00 
1064 1 1 1.4952845800906291e+00 -3.2709036050385994e+03 1.0000000000000000e+00 3.3459241843421696e+00 2.7486013474630400e-01 7.0386353588045880e+00 
395 1 1 1.8403015721977825e+00 3.4029812184972543e+03 1.0000000000000000e+00 2.9614066790063056e+00 9.5589520858866006e-01 6.5076954734415384e+00 
1024 1 1 1.2919060277658567e+00 -1.6420327338386583e+03 1.0000000000000000e+00 3.9425823919645393e+00 1.2707258589522874e+00 7.9297028033603301e+00 
1432 1 1 1.7395410814897596e+00 2.7665714434753108e+03 1.0000000000000000e+00 3.6094838502072597e+00 1.5721791282080411e+00 6.3909228668355933e+00 
56 1 1 1.7714381638095833e+00 -1.7177408975345716e+03 1.0000000000000000e+00 3.4825091866052897e+00 1.9850951957544147e+00 6.2520846755665351e+00 
2093 1 1 7.7741422561275608e-01 1.6365889199864989e+03 1.0000000000000000e+00 6.4342491513940425e+00 1.8404231278535090e+00 6.7734685328765556e+00 
1652 1 1 1.2422894696470879e+00 2.6660973393615236e+03 1.0000000000000000e+00 5.2561551108527356e+00 1.1754336093334464e-01 7.4087471882213087e+00 
5 1 1 1.2064987160841649e+00 -2.2978463130868581e+03 1.0000000000000000e+00 5.8839890103789489e+00 6.1912504809187002e-02 7.7830516732923032e+00 
1319 1 1 2.0357791910677916e+00 1.3330473064087707e+02 1.0000000000000000e+00 1.9259763914807910e+00 2.3706184803050547e+00 7.2894709740304968e+00 
1785 1 1 1.8737734949631366e+00 6.7530375943965907e+02 1.0000000000000000e+00 1.4216100819420499e+00 3.7879083246984018e+00 6.9118271332050654e+00 
1857 1 1 1.6609437286680413e+00 2.2435150551993120e+03 1.0000000000000000e+00 7.6636410262747967e-01 3.3371725179313083e+00 6.4304777473880046e+00 
955 1 1 1.6594017890358772e+00 4.2462793006366792e+03 1.0000000000000000e+00 8.9048106333087351e-01 3.6821482521977051e+00 6.7122772344191635e+00 
1103 1 1 1.9015936049938329e+00 -2.3599763409699199e+03 1.0000000000000000e+00 1.5608382625116055e+00 3.7343394189225783e+00 6.7592622800918445e+00 
1855 1 1 1.8651035356557177e+00 -2.4655220285585774e+03 1.0000000000000000e+00 2.9667251604929783e+00 2.7829306701763645e+00 6.8565247017331563e+00 
2095 1 1 2.0368754289078779e+00 2.5832886758014670e+03 1.0000000000000000e+00 2.7209514680364526e+00 3.0437070607419456e+00 7.9009454109247645e+00 
514 1 1 1.9434252776531622e+00 -5.2225111842072238e+02 1.0000000000000000e+00 2.7262581084638038e+00 3.1102853958054646e+00 7.1421990023168194e+00 
1019 1 1 1.1186265376285842e+00 5.1847775537419921e+03 1.0000000000000000e+00 6.3666234533349719e+00 3.3423194457111576e+00 6.0072955945072213e+00 
1907 1 1 1.6295659731344374e+00 -2.8644742978845206e+03 1.0000000000000000e+00 5.1442092875067091e+00 3.9598770449969050e+00 6.2931937498721435e+00 
1834 1 1 1.5111467489985351e+00 -2.7691718867970775e+02 1.0000000000000000e+00 4.6914659278191850e+00 2.8736713390248081e+00 6.3292396575692687e+00 
732 1 1 1.5402081995905015e+00 -2.8021423940737452e+02 1.0000000000000000e+00 4.7886673451186494e+00 3.9821591281270816e+00 6.8481823411879272e+00 
760 1 1 1.7426489195405064e+00 2.3088211713961878e+03 1.0000000000000000e+00 4.6364483541398664e+00 3.6854245929602216e+00 6.3636918033066001e+00 
1269 1 1 1.4993838321149111e+00 -4.0710835576636050e+03 1.0000000000000000e+00 9.8833773004645697e-01 4.6579919428274277e+00 7.6267250836550984e+00 
1631 1 1 1.0913089034810122e+00 -9.6013767846673397e+02 1.0000000000000000e+00 3.2520274785886132e+00 4.9363271259643877e+00 6.9501497236631469e+00 
2338 1 1 1.4917434329716126e+00 -2.3484761038974912e+03 1.0000000000000000e+00 4.9850426472134455e+00 4.4409687175249735e+00 7.7068076549596425e+00 
1266 1 1 1.0335353674021721e+00 -1.3113555466862581e+03 1.0000000000000000e+00 5.3570914508292082e+00 5.9463518811322045e+00 6.1822158041108617e+00 
2540 1 1 2.3453427408061684e+00 5.9394409942136008e+03 1.0000000000000000e+00 1.7787555070543932e+00 7.4735408109875845e+00 6.3086165864439296e+00 
2039 1 1 1.8380059176764538e+00 -1.2164172237744335e+03 1.0000000000000000e+00 1.9795167651427406e+00 6.8721339550909715e+00 7.0886092004940622e+00 
1203 1 1 1.7318447516482842e+00 4.6781885946231574e+02 1.0000000000000000e+00 1.1556713996765484e+00 7.2205260049951985e+00 6.9362092166517719e+00 
60 1 1 2.1479229467544783e+00 -1.6274758576958217e+02 1.0000000000000000e+00 3.4388261673853333e+00 7.3870801491645901e+00 6.8940210310340415e+00 
2098 1 1 2.1311174291858062e+00 -1.1053843086218642e+03 1.0000000000000000e+00 3.9717104896559823e+00 6.0906365593276464e+00 6.0787750745747182e+00 
486 1 1 2.0711440981676366e+00 1.9212534158107605e+03 1.0000000000000000e+00 2.7658209062548291e+00 7.4656823718557765e+00 7.1275483690608725e+00 
2377 1 1 2.3998805442974604e+00 -7.6217056107527787e+02 1.0000000000000000e+00 3.1488442210802265e+00 6.6974689648903025e+00 6.1832169547267979e+00 
881 1 1 1.9160136982901761e+00 2.1878934823024442e+03 1.0000000000000000e+00 3.7970159082002954e+00 6.8665719746257716e+00 7.5680758576555744e+00 
1410 1 1 1.7419696032507144e+00 -7.7783366080001940e+02 1.0000000000000000e+00 4.0872742766133889e+00 7.8980113691261433e+00 7.9432056142027143e+00 
1798 1 1 1.3170188906615334e+00 -1.3176597775294465e+03 1.0000000000000000e+00 5.0470824814920210e+00 6.6198573788816413e+00 6.4280355122435671e+00 
1417 1 1 1.7266777372189717e+00 -5.1588935711341737e+03 1.0000000000000000e+00 4.4813367145905252e+00 7.6115752949891755e+00 7.2760095111270529e+00 
1128 1 1 1.3276698356774392e+00 -4.8961689993213331e+03 1.0000000000000000e+00 3.1675837759640152e-01 8.2328501886064274e+00 7.0600511081028872e+00 
2331 1 1 1.5424373266902363e+00 1.5291546888501898e+03 1.0000000000000000e+00 1.2177339480461411e+00 8.7352762481685282e+00 6.3189725378619954e+00 
642 1 1 1.5030773608154246e+00 9.1700758193618494e+03 1.0000000000000000e+00 6.2144591441177309e-02 8.2862363190832973e+00 6.2307348322737228e+00 
1476 1 1 1.1508251884449625e+00 4.2539551544143450e+02 1.0000000000000000e+00 3.1008498720591224e+00 8.7087293060690456e+00 6.7700130941309151e+00 