LAMMPS data file via write_data, version 30 Jul 2016, timestep = 50000000

3696 atoms
8 atom types

0.0000000000000000e+00 1.0000000000000000e+02 xlo xhi
0.0000000000000000e+00 4.0000000000000000e+01 ylo yhi
0.0000000000000000e+00 4.0000000000000000e+01 zlo zhi

Masses

1 3.896
2 5.36
3 20.064
4 8.378
5 8.378
6 8.378
7 8.378
8 8.378

Atoms # meso-molecular

2165 2166 2 1.0280000003277894e+00 -2.1473860989049645e+03 1.0000000000000000e+00 3.2858208815023573e+01 5.5589936490252203e+00 4.7456342531062717e-01 
1247 1248 2 1.0279999999336316e+00 -6.4410185177730309e+03 1.0000000000000000e+00 3.1558860992567830e+01 6.7053598737895204e+00 1.0875377517568365e+00 
1703 1704 2 1.0279999999332077e+00 -2.1467418571608750e+03 1.0000000000000000e+00 3.2982959220311038e+01 6.7697359168158826e+00 5.0377507045729730e-01 
2633 2634 2 1.0280000001352620e+00 -6.4227510667613715e+03 1.0000000000000000e+00 3.1685929720234800e+01 7.5886396301039944e+00 1.5967338693347857e+00 
2266 2267 2 1.0280000000619240e+00 -2.0303433761858937e+03 1.0000000000000000e+00 3.2692727543665853e+01 8.6777727336041686e+00 1.3225592014444441e+00 
115 116 2 1.0280000002215490e+00 1.8133488067893545e+03 1.0000000000000000e+00 3.3056510491388131e+01 1.2145245281067560e+00 2.1205786711224013e+00 
883 884 2 1.0280000004026082e+00 -1.3128827482945958e+03 1.0000000000000000e+00 3.3258399588973262e+01 7.8484396347813501e+00 3.7899520451932984e+00 
1625 1626 2 1.0280000000073857e+00 -5.5319031311253511e+03 1.0000000000000000e+00 2.9612150425128647e+01 9.5589806352359865e+00 3.3105012928981856e+00 
3611 3612 2 1.0279999999687837e+00 -2.3194429488700689e+03 1.0000000000000000e+00 3.0644819265111668e+01 9.4111699010261685e+00 3.2756188613595687e+00 
2683 2684 2 1.0280000000048068e+00 -2.2154500135269509e+03 1.0000000000000000e+00 3.0836518294343694e+01 1.0659716227640955e+01 2.8769203773734278e+00 
1626 1627 2 1.0280000000070151e+00 -2.6189830755391376e+03 1.0000000000000000e+00 3.2082077161010801e+01 1.1099987169978846e+01 3.4794473178299170e+00 
1520 1521 2 1.0279999997913676e+00 2.7690264641320573e+03 1.0000000000000000e+00 3.1190355265728630e+01 3.4344276058620378e+00 4.5124500791482705e+00 
268 269 2 1.0280000001192346e+00 1.1276656087486933e+03 1.0000000000000000e+00 3.1165546444836281e+01 3.9538993998364536e+00 4.2906072754263178e+00 
1985 1986 2 1.0279999998995535e+00 -2.3266353434889897e+03 1.0000000000000000e+00 3.1151958120348077e+01 5.4667400728129527e+00 5.7306522721674238e+00 
3027 3028 2 1.0280000005551313e+00 -1.5103445477969012e+03 1.0000000000000000e+00 3.2241493284118384e+01 5.9839081637363858e+00 5.3239056870332915e+00 
842 843 2 1.0280000004274996e+00 -4.3580249142877926e+02 1.0000000000000000e+00 3.2279932544038736e+01 7.2154798990526920e+00 4.1190313203443631e+00 
552 553 2 1.0279999997740352e+00 -2.2862833635974755e+02 1.0000000000000000e+00 3.2924898814579713e+01 7.9794834897415345e+00 5.3880276094485140e+00 
2529 2530 2 1.0279999999205400e+00 -4.8227445706283652e+02 1.0000000000000000e+00 2.8527514461497933e+01 9.7533269396252269e+00 4.9361164454257782e+00 
2415 2416 2 1.0280000000149683e+00 -3.2084835957650130e+03 1.0000000000000000e+00 2.8045375941652324e+01 8.4066060967229728e+00 5.6808356734219450e+00 
633 634 2 1.0279999998954021e+00 -1.5667643461054899e+03 1.0000000000000000e+00 3.1805980167226306e+01 8.9512194024456981e+00 5.6190568354185961e+00 
1906 1907 2 1.0280000000151679e+00 2.4679647614461405e+03 1.0000000000000000e+00 2.9327911536926891e+01 1.0625810055229181e+01 4.5545349884108450e+00 
1628 1629 2 1.0279999999856835e+00 -2.5798262022967037e+03 1.0000000000000000e+00 3.0275577343570909e+01 1.1631336942515581e+01 4.3218074696105191e+00 
3009 3010 2 1.0280000000115750e+00 5.1959306517171296e+02 1.0000000000000000e+00 3.1396394813847056e+01 1.1547679271444251e+01 4.9658086579646739e+00 
2668 2669 2 1.0279999999909077e+00 -3.1430920982136086e+03 1.0000000000000000e+00 3.2035645010711839e+01 1.2155022188862175e+01 4.0412813845127715e+00 
3529 3530 2 1.0280000000869076e+00 -2.2672835289352870e+03 1.0000000000000000e+00 3.2053159987043770e+01 4.0269544396995700e+00 6.0359561004326094e+00 
2862 2863 2 1.0279999997223510e+00 -1.9493311195775453e+02 1.0000000000000000e+00 3.2324574969547470e+01 4.3456835526269879e+00 7.2861642377027627e+00 
1435 1436 2 1.0280000000026237e+00 1.9952487369896905e+03 1.0000000000000000e+00 2.7998963391068049e+01 6.9726226060736662e+00 7.6540400158251920e+00 
2404 2405 2 1.0280000002258798e+00 -6.2509523504032295e+03 1.0000000000000000e+00 2.9912235937930259e+01 6.0448377379009601e+00 6.6263225034190567e+00 
1018 1019 2 1.0279999998783815e+00 -6.2511364103744481e+03 1.0000000000000000e+00 2.9976054913855826e+01 6.7257185031032236e+00 6.3515876770266679e+00 
173 174 2 1.0280000002609520e+00 4.2313447176014979e+03 1.0000000000000000e+00 3.2539454928339424e+01 6.1359677110870914e+00 7.0358162913171487e+00 
1143 1144 2 1.0280000000317768e+00 -4.8150736045690252e+02 1.0000000000000000e+00 2.7599912389462936e+01 9.5598486702241097e+00 6.0935850093083657e+00 
2667 2668 2 1.0279999998910367e+00 -3.1985107424047910e+03 1.0000000000000000e+00 2.7683482007829824e+01 8.2856291735835619e+00 6.9505081852541437e+00 
2544 2545 2 1.0280000000484255e+00 5.5235231387292731e+02 1.0000000000000000e+00 2.9491733584741681e+01 8.1318287286370765e+00 7.5949032728924424e+00 
2955 2956 2 1.0279999999603300e+00 1.6860839193670113e+03 1.0000000000000000e+00 2.9198495658781276e+01 9.8422136623213259e+00 7.1209575698057233e+00 
2477 2478 2 1.0279999999660387e+00 2.6132035591468065e+02 1.0000000000000000e+00 3.0145691057009724e+01 9.1778877704690469e+00 7.9333416051591890e+00 
1523 1524 2 1.0280000001890697e+00 -2.3265142443357940e+03 1.0000000000000000e+00 3.1565455450570450e+01 8.2747479199121781e+00 6.0508121871684999e+00 
3039 3040 2 1.0280000000221818e+00 1.6808073137812221e+03 1.0000000000000000e+00 3.0134903572936736e+01 1.0757120226873917e+01 7.2185649177981333e+00 
3407 3408 2 1.0279999997965734e+00 4.2341961453081285e+03 1.0000000000000000e+00 3.2427381031327243e+01 5.5671356365163032e+00 8.1654508462165722e+00 
1058 1059 2 1.0279999999941232e+00 -1.3494243597297628e+02 1.0000000000000000e+00 2.7873570004504934e+01 6.6542716899745056e+00 8.6509888825651231e+00 
1624 1625 2 1.0280000000268654e+00 -4.6469075775467518e+03 1.0000000000000000e+00 2.9274474392636268e+01 7.7659494026710023e+00 9.1881732359883070e+00 
2519 2520 2 1.0279999999911049e+00 -3.0217501603039495e+03 1.0000000000000000e+00 2.8902710184873282e+01 6.9716841743331193e+00 9.5716969047426943e+00 
2539 2540 2 1.0280000000272351e+00 6.3962815196234283e+02 1.0000000000000000e+00 2.9923034494855724e+01 1.0898058749057578e+01 8.8584335416852316e+00 
2541 2542 2 1.0279999999728036e+00 6.7618452540590044e+02 1.0000000000000000e+00 3.0064955335598086e+01 1.1614931735716322e+01 8.4389838581692693e+00 
1542 1543 2 1.0279999999791243e+00 -1.6595034824752106e+03 1.0000000000000000e+00 2.6990992130090849e+01 1.7619249291113579e+01 9.8582410394484814e+00 
1525 1526 2 1.0279999999967457e+00 -1.6549831865030160e+03 1.0000000000000000e+00 2.8590162382477015e+01 1.7637236404434653e+01 9.0471905122562912e+00 
1513 1514 2 1.0279999997824418e+00 -3.5594128323574196e+03 1.0000000000000000e+00 2.9696921304475268e+01 1.7224271148581661e+01 9.8983948306440741e+00 
965 966 2 1.0279999999416660e+00 -7.0067192366752283e+02 1.0000000000000000e+00 2.7133357622454202e+01 1.8150827070011630e+01 8.8986002266505437e+00 
926 927 2 1.0280000001130472e+00 -6.9974370899516089e+02 1.0000000000000000e+00 2.8208302141934322e+01 1.8633015298073687e+01 9.9485055912531379e+00 
3450 3451 2 1.0279999990138515e+00 2.8057107547652513e+03 1.0000000000000000e+00 3.3266803491543200e+01 3.5226773532191453e+00 1.0387495109301936e+01 
3663 3664 2 1.0279999972505389e+00 -1.9549803576782110e+03 1.0000000000000000e+00 3.2552434233565656e+01 4.7061912380882456e+00 1.1881245235047013e+01 
1177 1178 2 1.0280000004037415e+00 8.5961358494823298e+02 1.0000000000000000e+00 3.1096132080152803e+01 1.1546693907211063e+01 1.1318183155700073e+01 
1726 1727 2 1.0279999996742706e+00 6.6279759093061296e+02 1.0000000000000000e+00 3.1010329294384906e+01 1.1941262827627483e+01 1.1409959717987284e+01 
2510 2511 2 1.0279999986952773e+00 3.2038331053263159e+03 1.0000000000000000e+00 2.5684439608509518e+01 1.3383219874294495e+01 1.1486159184241648e+01 
2807 2808 2 1.0280000010392250e+00 -4.4081181006550707e+02 1.0000000000000000e+00 2.5302210895388814e+01 1.3650864225331350e+01 1.1547006231692936e+01 
705 706 2 1.0279999997565246e+00 1.7202080644408129e+03 1.0000000000000000e+00 2.7713594486711873e+01 1.3920249175226029e+01 1.0393378884347017e+01 
2010 2011 2 1.0280000000815641e+00 4.9730344569999659e+02 1.0000000000000000e+00 2.8473730520535657e+01 1.3837708463306846e+01 1.0521145036884409e+01 
2099 2100 2 1.0279999998331151e+00 -1.7333383261819181e+03 1.0000000000000000e+00 2.6212244536903537e+01 1.5373979859246131e+01 1.1920015344729748e+01 
2098 2099 2 1.0280000003092062e+00 3.9356767873936633e+03 1.0000000000000000e+00 2.7973607264795323e+01 1.5119803723123978e+01 1.1374068804884397e+01 
2061 2062 2 1.0279999991117197e+00 3.9334025635417102e+03 1.0000000000000000e+00 3.0401325831766979e+01 1.4656337598752856e+01 1.1120187832123584e+01 
1601 1602 2 1.0279999999396288e+00 -6.7705840802614393e+03 1.0000000000000000e+00 2.9999660871947956e+01 1.5617193417314915e+01 1.0146887360014420e+01 
2060 2061 2 1.0280000002231950e+00 -1.7280715266606267e+03 1.0000000000000000e+00 3.1029848328036326e+01 1.5514435222078715e+01 1.1332430224268052e+01 
1634 1635 2 1.0280000000351424e+00 -6.7724618297550787e+03 1.0000000000000000e+00 2.5914064671123612e+01 1.6262824983342032e+01 1.1151523623710341e+01 
2063 2064 2 1.0279999992637590e+00 -6.7833003538267931e+03 1.0000000000000000e+00 2.7667931455775083e+01 1.7202192032558486e+01 1.1658560321815013e+01 
3485 3486 2 1.0280000004943737e+00 -1.1697387515382279e+03 1.0000000000000000e+00 2.8837740191734490e+01 1.6287581750255463e+01 1.1187605606822778e+01 
44 45 2 1.0279999998989202e+00 -6.0749068740492419e+02 1.0000000000000000e+00 3.1112808011473810e+01 1.7153305107894713e+01 1.0268463717152668e+01 
3446 3447 2 1.0279999996763454e+00 -1.1308559711055109e+03 1.0000000000000000e+00 3.1482944636435036e+01 1.7255878454975850e+01 1.1885887610128618e+01 
1637 1638 2 1.0280000000868916e+00 -1.7334947878651878e+03 1.0000000000000000e+00 2.5858959689918095e+01 1.8216459417757861e+01 1.1831322087969705e+01 
1636 1637 2 1.0280000002493566e+00 3.9289896728745803e+03 1.0000000000000000e+00 2.6886420366643549e+01 1.8855833512490488e+01 1.1757717726296669e+01 
1598 1599 2 1.0280000002485978e+00 -1.7300351086257697e+03 1.0000000000000000e+00 2.9447050745821105e+01 1.8633190550729335e+01 1.1686649732399763e+01 
1599 1600 2 1.0280000001619496e+00 3.9331586166763700e+03 1.0000000000000000e+00 2.8410702974066531e+01 1.9123024743458295e+01 1.1716376726144889e+01 
928 929 2 1.0280000003788092e+00 -3.5944856770656343e+03 1.0000000000000000e+00 3.1083028138761772e+01 1.8230687905558849e+01 1.1082296517226899e+01 
2091 2092 2 1.0280000013083848e+00 1.1263184114341989e+03 1.0000000000000000e+00 3.2892351724419619e+01 9.0132078077323063e-01 1.3710475495500196e+01 
1088 1089 2 1.0279999979296655e+00 -1.4852311778475632e+03 1.0000000000000000e+00 3.0767242816672983e+01 3.4557493295293726e+00 1.2913612941685251e+01 
2866 2867 2 1.0280000014494970e+00 -1.3197681335907678e+03 1.0000000000000000e+00 3.2487799081163473e+01 3.3282966120223647e+00 1.2772394283111067e+01 
3329 3330 2 1.0280000033113867e+00 8.2536174230217830e+02 1.0000000000000000e+00 3.2723113405223792e+01 3.8733406938982031e+00 1.3800489191435311e+01 
124 125 2 1.0280000013633572e+00 4.7127088522577087e+03 1.0000000000000000e+00 3.0419558444803634e+01 4.0787239860962163e+00 1.2850511837948863e+01 
2112 2113 2 1.0280000056565672e+00 8.5349375511839771e+03 1.0000000000000000e+00 3.1460772336677980e+01 5.9878468091005006e+00 1.2790794869871970e+01 
341 342 2 1.0279999994510318e+00 4.7964722485124389e+02 1.0000000000000000e+00 3.3243662489052092e+01 6.0320486932226913e+00 1.2333395031599514e+01 
3030 3031 2 1.0279999972704661e+00 1.1309781625174969e+03 1.0000000000000000e+00 3.1765404785381886e+01 6.5807649918623898e+00 1.2277499067853649e+01 
3644 3645 2 1.0280000001699636e+00 9.4882267425644909e+02 1.0000000000000000e+00 2.3829875419666720e+01 8.1598628832398905e+00 1.3826836892049032e+01 
1677 1678 2 1.0279999994840561e+00 1.7492363370795756e+03 1.0000000000000000e+00 2.9478905113642760e+01 9.1112117536706005e+00 1.2639916814749130e+01 
1642 1643 2 1.0280000004010974e+00 1.7523241190118943e+03 1.0000000000000000e+00 3.0280158868450574e+01 9.6240017582379487e+00 1.2689208495482621e+01 
2168 2169 2 1.0280000004728331e+00 -2.3816158880990815e+03 1.0000000000000000e+00 2.8710696412819278e+01 1.0605765419426049e+01 1.2443795872888636e+01 
2159 2160 2 1.0279999995655442e+00 -2.3799546621198406e+03 1.0000000000000000e+00 2.9535587995320693e+01 1.1160972416450802e+01 1.2663246074780622e+01 
1973 1974 2 1.0279999998280669e+00 -1.7303169516444095e+03 1.0000000000000000e+00 2.6664141036047958e+01 1.2259646706013127e+01 1.3160293423559834e+01 
1934 1935 2 1.0280000000695277e+00 -1.7648230431951092e+03 1.0000000000000000e+00 2.7469536865276748e+01 1.3052233898756072e+01 1.3119309992388501e+01 
3397 3398 2 1.0280000002356935e+00 -1.8499533075479944e+03 1.0000000000000000e+00 2.6414343057616144e+01 1.3347476671272165e+01 1.3983736223186986e+01 
2218 2219 2 1.0280000004503174e+00 -4.7700082425031815e+03 1.0000000000000000e+00 2.9535590133129610e+01 1.3763918928257798e+01 1.3128267013044013e+01 
1210 1211 2 1.0279999989317719e+00 4.0848011570970407e+03 1.0000000000000000e+00 2.9307664293554069e+01 1.5102930446104509e+01 1.3895496834180944e+01 
1295 1296 2 1.0279999990186053e+00 2.4301346295042886e+03 1.0000000000000000e+00 3.0538291660664626e+01 1.4133368660517093e+01 1.2947743631525114e+01 
2096 2097 2 1.0279999999390488e+00 -6.7775167723324357e+03 1.0000000000000000e+00 2.5403899558483531e+01 1.7082007882760259e+01 1.2138775475588204e+01 
2725 2726 2 1.0280000004320491e+00 -1.2618030721075656e+03 1.0000000000000000e+00 2.6930199401217767e+01 1.6419701242778402e+01 1.2814970043999649e+01 
2694 2695 2 1.0279999996048925e+00 -1.2654457004904966e+03 1.0000000000000000e+00 2.8366739981283217e+01 1.6144174281904359e+01 1.2881467973311622e+01 
2178 2179 2 1.0280000003299619e+00 4.9989577003594820e+02 1.0000000000000000e+00 3.0053914423084603e+01 1.6190943208229474e+01 1.3184490974852570e+01 
380 381 2 1.0279999995431583e+00 -6.1126037616876329e+02 1.0000000000000000e+00 3.0096182017862585e+01 1.7744697768044112e+01 1.2657932466661215e+01 
2005 2006 2 1.0279999998940141e+00 -1.6202093230407804e+03 1.0000000000000000e+00 3.1653942458544741e+01 1.6817807126012724e+01 1.3621851320035541e+01 
1710 1711 2 1.0280000000786251e+00 -1.6597073322393553e+03 1.0000000000000000e+00 2.7213344747445820e+01 1.9025280143235797e+01 1.3461164677193700e+01 
1681 1682 2 1.0279999999818659e+00 -3.5594606863703621e+03 1.0000000000000000e+00 2.8658631885372234e+01 1.8298680983995244e+01 1.3784687457874833e+01 
1348 1349 2 1.0279999999131291e+00 -3.5930696194720285e+03 1.0000000000000000e+00 3.1197811513823019e+01 1.9267256924276730e+01 1.3592282695972514e+01 
1 2 2 1.0280000000835186e+00 -1.9139117161809063e+03 1.0000000000000000e+00 3.2075147373417359e+01 1.9236211751501124e+01 1.3035234464034925e+01 
2076 2077 2 1.0279999977100960e+00 -3.6862307151577161e+03 1.0000000000000000e+00 3.2953792951908682e+01 8.8338447134989528e-01 1.4231680160122389e+01 
378 379 2 1.0280000025729270e+00 2.7317353360113412e+02 1.0000000000000000e+00 2.9171804394968046e+01 5.0953261286827249e+00 1.4172955048737746e+01 
413 414 2 1.0279999988052000e+00 -1.0554992401825832e+03 1.0000000000000000e+00 2.8218040039323643e+01 5.6367868023759744e+00 1.4845292987076126e+01 
3612 3613 2 1.0279999989572932e+00 2.7032567258444618e+02 1.0000000000000000e+00 3.1350335687851125e+01 4.4730516099692519e+00 1.5716692386105660e+01 
1678 1679 2 1.0279999972887799e+00 3.7787462343238241e+02 1.0000000000000000e+00 3.0339455684749879e+01 5.0222888166878858e+00 1.4441491758789049e+01 
2140 2141 2 1.0280000029217780e+00 3.7337271711809325e+02 1.0000000000000000e+00 3.1750505853536133e+01 4.0453926878087652e+00 1.5358654875315425e+01 
1887 1888 2 1.0280000004425893e+00 -4.1601235094886397e+03 1.0000000000000000e+00 2.6592545182863141e+01 7.9051316211241236e+00 1.4949400507169775e+01 
2679 2680 2 1.0280000029857237e+00 -6.2227493698491726e+03 1.0000000000000000e+00 2.9599721100845795e+01 7.7927185697232630e+00 1.4355208522924297e+01 
258 259 2 1.0279999986041126e+00 2.1491106220534680e+03 1.0000000000000000e+00 2.8394223528368794e+01 7.4475226258454983e+00 1.4776549406406225e+01 
2430 2431 2 1.0279999949436320e+00 -6.1588886736395898e+03 1.0000000000000000e+00 3.0308304631489928e+01 6.9046587242272883e+00 1.4813916746583009e+01 
2228 2229 2 1.0280000023449276e+00 -5.8359259520102387e+02 1.0000000000000000e+00 3.1300456737922666e+01 7.7911150729970329e+00 1.5582373436584504e+01 
3151 3152 2 1.0279999998264309e+00 2.0648380377950416e+03 1.0000000000000000e+00 2.3766752990249817e+01 9.4128861816551783e+00 1.4339853043557271e+01 
2730 2731 2 1.0279999999701397e+00 2.0102286651345707e+02 1.0000000000000000e+00 2.4730849342380804e+01 8.2780493910893451e+00 1.4120250869698078e+01 
373 374 2 1.0280000007706487e+00 -2.4156603565976360e+02 1.0000000000000000e+00 2.6843386187873993e+01 8.1084079370037454e+00 1.4175976558772559e+01 
2136 2137 2 1.0279999991585858e+00 1.8965985812730236e+02 1.0000000000000000e+00 2.8235442315565550e+01 9.0564717371447347e+00 1.4866567786509206e+01 
3367 3368 2 1.0279999986572255e+00 -3.9890525461585742e+02 1.0000000000000000e+00 2.8682569040009682e+01 9.9398405061845754e+00 1.4090513930453259e+01 
1707 1708 2 1.0279999963559454e+00 -2.1857696424256087e+03 1.0000000000000000e+00 3.0759325472012065e+01 9.2663563861772857e+00 1.5931066957984122e+01 
205 206 2 1.0280000017103978e+00 2.2212023134327678e+03 1.0000000000000000e+00 3.2914514299778610e+01 9.3132380339552263e+00 1.4871697216352008e+01 
3401 3402 2 1.0279999967155664e+00 -1.1543012404639967e+03 1.0000000000000000e+00 3.3061201418167073e+01 9.0161980540163764e+00 1.5338016691390438e+01 
3308 3309 2 1.0280000000528975e+00 9.3612455846238208e+02 1.0000000000000000e+00 2.4327259861120062e+01 1.0168251021377586e+01 1.5308069738153675e+01 
2238 2239 2 1.0279999993594910e+00 3.4355349676122896e+03 1.0000000000000000e+00 2.6842077728736477e+01 1.1655949933485823e+01 1.4848171030700655e+01 
1730 1731 2 1.0279999998999829e+00 -2.1635509115636942e+03 1.0000000000000000e+00 2.6545029203593291e+01 1.1040498381145365e+01 1.5397188395913513e+01 
1539 1540 2 1.0279999986768640e+00 -2.2009020326244190e+03 1.0000000000000000e+00 2.8790212384283688e+01 1.1473729025189296e+01 1.5847931551773124e+01 
1696 1697 2 1.0280000011930384e+00 -2.1881283367637343e+03 1.0000000000000000e+00 3.0092416619704458e+01 1.0452699272937073e+01 1.4481880856219135e+01 
1855 1856 2 1.0279999979542529e+00 -3.4162198669189752e+02 1.0000000000000000e+00 3.1128423695429845e+01 1.1639671406403341e+01 1.4193698032472893e+01 
2615 2616 2 1.0280000006022785e+00 -6.9673242622735925e+03 1.0000000000000000e+00 3.0546790934349456e+01 1.1631662199770448e+01 1.5839078909331846e+01 
2571 2572 2 1.0279999988566573e+00 4.1421104088629145e+03 1.0000000000000000e+00 3.1561874671459321e+01 1.0535342668719878e+01 1.5299631249916711e+01 
3118 3119 2 1.0279999997981426e+00 -1.3176285645473945e+03 1.0000000000000000e+00 2.7656560181575625e+01 1.3815542855488202e+01 1.4776268897955534e+01 
3366 3367 2 1.0279999996368796e+00 -1.8911173576007877e+03 1.0000000000000000e+00 2.9460317215633854e+01 1.2841062517002010e+01 1.4718556009241880e+01 
3206 3207 2 1.0280000001645477e+00 4.2465601546587895e+03 1.0000000000000000e+00 2.8184118178070822e+01 1.3336466485467250e+01 1.5568422052154283e+01 
1895 1896 2 1.0279999992274891e+00 -2.7523142772935371e+03 1.0000000000000000e+00 3.1051322645771183e+01 1.2954922847667788e+01 1.4244952383673303e+01 
2648 2649 2 1.0280000000096525e+00 -2.8711931001821358e+03 1.0000000000000000e+00 3.2891325427564880e+01 1.3702657730152355e+01 1.4656556528289967e+01 
2856 2857 2 1.0280000002413787e+00 2.1794433711353431e+03 1.0000000000000000e+00 2.9980290333367339e+01 1.4203816268549659e+01 1.5242519938734620e+01 
1351 1352 2 1.0279999998705196e+00 -8.1460432587585387e+02 1.0000000000000000e+00 3.1928890012129852e+01 1.4729785830109231e+01 1.4199870408319654e+01 
1682 1683 2 1.0280000000572318e+00 1.2563918458707685e+03 1.0000000000000000e+00 3.1855896532972384e+01 1.5159232689246242e+01 1.5235932166180129e+01 
1308 1309 2 1.0280000003150485e+00 -1.2597564451232838e+03 1.0000000000000000e+00 2.7191186894954743e+01 1.7629365529686112e+01 1.4811722607129282e+01 
1339 1340 2 1.0279999997275782e+00 -1.2651216892266539e+03 1.0000000000000000e+00 2.6545019673928380e+01 1.7597244426087890e+01 1.5325353984157372e+01 
1380 1381 2 1.0279999994735685e+00 -8.1667526894706407e+02 1.0000000000000000e+00 2.9881498607437543e+01 1.6464571447230512e+01 1.5281596035167771e+01 
2173 2174 2 1.0279999998222560e+00 -1.6240449643952679e+03 1.0000000000000000e+00 3.0588491539924139e+01 1.7268946357696311e+01 1.4555837854204416e+01 
1974 1975 2 1.0279999998201659e+00 6.9393146232873664e+02 1.0000000000000000e+00 3.2762263665526852e+01 1.7574137910245749e+01 1.4315365959344071e+01 
2226 2227 2 1.0280000000873533e+00 6.9870407064116955e+02 1.0000000000000000e+00 3.2353258555531689e+01 1.7650387445278426e+01 1.5108568806203477e+01 
1693 1694 2 1.0279999999696436e+00 -1.6553336806729453e+03 1.0000000000000000e+00 2.8995762478109757e+01 1.9198284184624463e+01 1.4498670708235551e+01 
421 422 2 1.0279999999653355e+00 -1.9097752360143882e+03 1.0000000000000000e+00 3.2267863758771689e+01 1.9879480136489750e+01 1.4169192168310699e+01 
77 78 2 1.0279999987807917e+00 -1.0602398230877338e+03 1.0000000000000000e+00 2.8370925028432769e+01 5.3940289557394410e+00 1.6205816471416288e+01 
3647 3648 2 1.0280000043355091e+00 -1.0520788551390542e+03 1.0000000000000000e+00 2.9443639982569255e+01 5.5143368277207099e+00 1.6174296637888496e+01 
126 127 2 1.0279999995726476e+00 2.7504185918226199e+02 1.0000000000000000e+00 2.9968953265657607e+01 5.6907641647569216e+00 1.7886222720844849e+01 
3230 3231 2 1.0280000000779332e+00 -2.2331462304513207e+03 1.0000000000000000e+00 3.2840682793857248e+01 5.6935032522062228e+00 1.7663087742879263e+01 
1670 1671 2 1.0279999991362503e+00 5.5029009291097727e+03 1.0000000000000000e+00 2.7548119813338428e+01 7.2014960744512804e+00 1.7493672441182767e+01 
3311 3312 2 1.0279999987158064e+00 -1.0492136685317055e+03 1.0000000000000000e+00 2.8956596666016896e+01 7.3015500218440810e+00 1.7295237004005685e+01 
3315 3316 2 1.0279999982666801e+00 -9.4586319079739542e+02 1.0000000000000000e+00 3.0467532828910461e+01 7.7451847067354418e+00 1.6473948221054201e+01 
2810 2811 2 1.0280000019839506e+00 -2.2369678781897064e+03 1.0000000000000000e+00 3.3102632874320939e+01 7.2886419843801207e+00 1.7578711438201292e+01 
3648 3649 2 1.0279999984316517e+00 1.2911138642868391e+03 1.0000000000000000e+00 3.1733802884381607e+01 7.0337633339038472e+00 1.7705331823683185e+01 
3602 3603 2 1.0280000013613844e+00 9.8365465203063604e+02 1.0000000000000000e+00 2.7490410248413045e+01 8.9303329671985576e+00 1.6567820258010620e+01 
2601 2602 2 1.0279999991845290e+00 1.4012018255446421e+02 1.0000000000000000e+00 2.6533565337185415e+01 9.1853591640642378e+00 1.6584702766195754e+01 
3061 3062 2 1.0279999991860607e+00 1.1427683354162150e+03 1.0000000000000000e+00 2.9135874190378821e+01 9.0151962049081025e+00 1.7885624397464408e+01 
1296 1297 2 1.0279999997970815e+00 -6.1895872475564101e+03 1.0000000000000000e+00 2.4720085732199145e+01 1.0674855252785884e+01 1.6069301965882445e+01 
3265 3266 2 1.0280000005524741e+00 -3.6884250675645330e+02 1.0000000000000000e+00 2.4878874749168055e+01 1.1903231211743520e+01 1.6900973751370785e+01 
2682 2683 2 1.0279999993114035e+00 -6.1757100618983150e+03 1.0000000000000000e+00 2.6618568881984402e+01 1.0550895837899009e+01 1.7282983926222848e+01 
1902 1903 2 1.0280000007429622e+00 3.4211340142454128e+03 1.0000000000000000e+00 2.7869664338758813e+01 1.1426582705924210e+01 1.6608975491416846e+01 
2815 2816 2 1.0279999995935583e+00 2.0649905076498217e+03 1.0000000000000000e+00 2.8437411077302581e+01 1.0290129545831750e+01 1.7975151543128536e+01 
1528 1529 2 1.0280000013763002e+00 -2.1987234918803324e+03 1.0000000000000000e+00 3.0077851057523411e+01 1.0379041955262833e+01 1.6606637540975029e+01 
3651 3652 2 1.0279999991449222e+00 -9.5522276645682064e+02 1.0000000000000000e+00 2.5787910248773461e+01 1.2312091913211297e+01 1.7144302188346874e+01 
3535 3536 2 1.0279999998366443e+00 -3.8172018842005616e+02 1.0000000000000000e+00 2.5129336619869282e+01 1.3715945007513865e+01 1.7174826073141645e+01 
2488 2489 2 1.0280000004578531e+00 4.0970789716306390e+03 1.0000000000000000e+00 2.9324716246599202e+01 1.2920322617072081e+01 1.7138436081294529e+01 
3287 3288 2 1.0279999992197859e+00 9.1646960480839175e+02 1.0000000000000000e+00 3.1429346672028544e+01 1.3833326376411408e+01 1.6143944344483781e+01 
887 888 2 1.0279999999108416e+00 -2.1957941299103131e+03 1.0000000000000000e+00 3.0273377541189074e+01 1.3147999189311992e+01 1.7905988959145283e+01 
53 54 2 1.0279999998264302e+00 9.1253250021964209e+02 1.0000000000000000e+00 3.2629771600581627e+01 1.3282249111285500e+01 1.6154308339027757e+01 
1561 1562 2 1.0280000010318764e+00 2.3654668548191307e+02 1.0000000000000000e+00 3.2058779910143556e+01 1.3852581036452319e+01 1.7800638243150704e+01 
2023 2024 2 1.0279999989302637e+00 2.3577355487816158e+02 1.0000000000000000e+00 3.2023422119833704e+01 1.2457687457127802e+01 1.7998880616865900e+01 
1478 1479 2 1.0280000001461664e+00 -2.0824934618211646e+03 1.0000000000000000e+00 2.5405052486811257e+01 1.4107885496964901e+01 1.7988967016942375e+01 
3652 3653 2 1.0280000010990076e+00 -1.6406791801831191e+03 1.0000000000000000e+00 2.9142555791192674e+01 1.5959405045740644e+01 1.7938439242113603e+01 
1721 1722 2 1.0279999997596507e+00 1.2556156913612281e+03 1.0000000000000000e+00 3.0068509391842312e+01 1.5570437750937543e+01 1.6035271492135781e+01 
3110 3111 2 1.0279999984072530e+00 -2.8911616411153909e+03 1.0000000000000000e+00 2.9936544263987994e+01 1.5522046394231532e+01 1.7921637925776025e+01 
2771 2772 2 1.0279999997577878e+00 -7.0000489282277999e+02 1.0000000000000000e+00 2.9752948931492284e+01 1.7573231675941827e+01 1.7979114927206858e+01 
456 457 2 1.0280000010476864e+00 9.9835301377267751e+02 1.0000000000000000e+00 3.1518191735855940e+01 1.6541193730101913e+01 1.6951212358906879e+01 
36 37 2 1.0279999988536130e+00 9.0024709503440999e+02 1.0000000000000000e+00 3.2075939473200428e+01 1.6639620581360330e+01 1.6651893686821559e+01 
923 924 2 1.0280000003130900e+00 6.6984114752447090e+02 1.0000000000000000e+00 2.7130789708240453e+01 1.8026105909811076e+01 1.6647103548253263e+01 
884 885 2 1.0279999998374636e+00 6.7453951846094333e+02 1.0000000000000000e+00 2.7684480000956249e+01 1.8313988125016738e+01 1.7399071993402480e+01 
3360 3361 2 1.0280000032268324e+00 2.6881135115311048e+02 1.0000000000000000e+00 3.0953274581892803e+01 5.8927496316200472e+00 1.8041935776563776e+01 
1802 1803 2 1.0280000014803379e+00 -2.7242565619635288e+03 1.0000000000000000e+00 2.7796932188688974e+01 7.3849017408195605e+00 1.8899231598763791e+01 
788 789 2 1.0280000011834729e+00 -1.4301091127955067e+03 1.0000000000000000e+00 2.8384114687878359e+01 6.1173697730451435e+00 1.8076850775346834e+01 
1255 1256 2 1.0279999982638151e+00 -2.2840897259042522e+03 1.0000000000000000e+00 2.4700959233543315e+01 9.6726245832471669e+00 1.9016787196173556e+01 
1842 1843 2 1.0279999996629492e+00 -2.1335112598537989e+02 1.0000000000000000e+00 2.7093200102424248e+01 8.4549315075603015e+00 1.9335044887892209e+01 
620 621 2 1.0279999998686637e+00 -1.4239015336932666e+03 1.0000000000000000e+00 2.6968668987111361e+01 9.6283424897564718e+00 1.8503594075176395e+01 
374 375 2 1.0280000001252554e+00 4.2868746405849777e+02 1.0000000000000000e+00 2.9769929378202598e+01 8.4669700941569843e+00 1.9545664552595429e+01 
2394 2395 2 1.0280000009278800e+00 2.6119144948907621e+02 1.0000000000000000e+00 3.0440119488944962e+01 9.4944122029808078e+00 1.8110320874955558e+01 
1757 1758 2 1.0279999997460538e+00 -2.1373897949481488e+03 1.0000000000000000e+00 2.9968028959800961e+01 9.8066032560666940e+00 1.9582297984841301e+01 
636 637 2 1.0280000024311144e+00 1.1111216525744965e+03 1.0000000000000000e+00 3.2971073166962306e+01 9.8849629795730856e+00 1.9330014941948729e+01 
307 308 2 1.0280000026973235e+00 1.1024661172636117e+03 1.0000000000000000e+00 2.4907767118498157e+01 1.0093443419757145e+01 1.8633621816449782e+01 
2977 2978 2 1.0280000006271117e+00 1.1521407413623676e+03 1.0000000000000000e+00 2.8120321682825725e+01 1.0978841540921021e+01 1.9341628029702314e+01 
385 386 2 1.0279999988346438e+00 1.2941126304687114e+03 1.0000000000000000e+00 3.1107908212576366e+01 1.1270651404126520e+01 1.8098354169262112e+01 
474 475 2 1.0280000018598949e+00 2.8537527505001555e+02 1.0000000000000000e+00 3.1185545702814693e+01 1.1838823519980822e+01 1.9348003039186509e+01 
3534 3535 2 1.0279999988810955e+00 -1.8926260685232469e+03 1.0000000000000000e+00 2.9752284825516568e+01 1.1508790608081583e+01 1.9808658698379809e+01 
49 50 2 1.0279999991328184e+00 1.2936731550389875e+03 1.0000000000000000e+00 3.1818511064730906e+01 1.0213662776180035e+01 1.9264306704674937e+01 
1892 1893 2 1.0280000001607408e+00 -5.8329624361660422e+02 1.0000000000000000e+00 2.5606028969449149e+01 1.3964896055351177e+01 1.9488507047215467e+01 
2231 2232 2 1.0279999995621922e+00 -2.7090693417713210e+03 1.0000000000000000e+00 2.8250549140476046e+01 1.2391577028980260e+01 1.8532264433040847e+01 