LAMMPS data file via write_data, version 30 Jul 2016, timestep = 50400000

384 atoms
2 atom types

0.0000000000000000e+00 2.0000000000000000e+01 xlo xhi
0.0000000000000000e+00 2.0000000000000000e+01 ylo yhi
0.0000000000000000e+00 2.0000000000000000e+01 zlo zhi

Masses

1 3.89
2 6.28

Atoms # meso-molecular

1 1 2 1.5000000000000000e+00 0.0000000000000000e+00 1.0000000000000000e+00 4.8499999999999996e+00 9.5999999999999996e-01 1.8700000000000001e+00 
2 1 2 1.5000000000000000e+00 0.0000000000000000e+00 1.0000000000000000e+00 4.7000000000000002e+00 1.5300000000000000e+00 2.6800000000000002e+00 
9 1 2 1.5000000000000000e+00 0.0000000000000000e+00 1.0000000000000000e+00 5.6200000000000001e+00 3.5000000000000000e+00 7.2999999999999998e-01 
17 1 2 1.5000000000000000e+00 0.0000000000000000e+00 1.0000000000000000e+00 5.5099999999999998e+00 6.0700000000000003e+00 8.7000000000000000e-01 
18 1 2 1.5000000000000000e+00 0.0000000000000000e+00 1.0000000000000000e+00 5.2999999999999998e+00 5.3300000000000001e+00 2.6699999999999999e+00 
25 1 2 1.5000000000000000e+00 0.0000000000000000e+00 1.0000000000000000e+00 5.7000000000000002e+00 9.0099999999999998e+00 8.0000000000000004e-01 
3 1 2 1.5000000000000000e+00 0.0000000000000000e+00 1.0000000000000000e+00 4.8399999999999999e+00 1.6899999999999999e+00 6.0700000000000003e+00 
11 1 2 1.5000000000000000e+00 0.0000000000000000e+00 1.0000000000000000e+00 4.0199999999999996e+00 2.4100000000000001e+00 5.1299999999999999e+00 
10 1 2 1.5000000000000000e+00 0.0000000000000000e+00 1.0000000000000000e+00 4.1900000000000004e+00 3.8300000000000001e+00 3.7200000000000002e+00 
19 1 2 1.5000000000000000e+00 0.0000000000000000e+00 1.0000000000000000e+00 5.4699999999999998e+00 5.2000000000000002e+00 5.6799999999999997e+00 
26 1 2 1.5000000000000000e+00 0.0000000000000000e+00 1.0000000000000000e+00 5.1600000000000001e+00 9.1199999999999992e+00 4.1100000000000003e+00 
27 1 2 1.5000000000000000e+00 0.0000000000000000e+00 1.0000000000000000e+00 4.9800000000000004e+00 8.4299999999999997e+00 6.2400000000000002e+00 
4 1 2 1.5000000000000000e+00 0.0000000000000000e+00 1.0000000000000000e+00 5.6900000000000004e+00 1.6399999999999999e+00 7.3700000000000001e+00 
12 1 2 1.5000000000000000e+00 0.0000000000000000e+00 1.0000000000000000e+00 4.1799999999999997e+00 3.9500000000000002e+00 8.6899999999999995e+00 
20 1 2 1.5000000000000000e+00 0.0000000000000000e+00 1.0000000000000000e+00 4.9800000000000004e+00 4.9400000000000004e+00 9.1500000000000004e+00 
28 1 2 1.5000000000000000e+00 0.0000000000000000e+00 1.0000000000000000e+00 4.5599999999999996e+00 9.1199999999999992e+00 8.2799999999999994e+00 
91 1 2 1.5000000000000000e+00 0.0000000000000000e+00 1.0000000000000000e+00 6.5999999999999996e+00 8.5199999999999996e+00 6.7699999999999996e+00 
100 1 2 1.5000000000000000e+00 0.0000000000000000e+00 1.0000000000000000e+00 6.4600000000000000e+00 9.8399999999999999e+00 8.3300000000000001e+00 
5 1 2 1.5000000000000000e+00 0.0000000000000000e+00 1.0000000000000000e+00 5.0700000000000003e+00 6.8000000000000005e-01 1.0070000000000000e+01 
6 1 2 1.5000000000000000e+00 0.0000000000000000e+00 1.0000000000000000e+00 4.0099999999999998e+00 1.9800000000000000e+00 1.2150000000000000e+01 
13 1 2 1.5000000000000000e+00 0.0000000000000000e+00 1.0000000000000000e+00 4.3799999999999999e+00 3.3100000000000001e+00 1.0730000000000000e+01 
14 1 2 1.5000000000000000e+00 0.0000000000000000e+00 1.0000000000000000e+00 4.0899999999999999e+00 3.9199999999999999e+00 1.2010000000000000e+01 
21 1 2 1.5000000000000000e+00 0.0000000000000000e+00 1.0000000000000000e+00 5.2300000000000004e+00 6.3200000000000003e+00 1.0440000000000000e+01 
29 1 2 1.5000000000000000e+00 0.0000000000000000e+00 1.0000000000000000e+00 4.8399999999999999e+00 7.9600000000000000e+00 1.1390000000000001e+01 
30 1 2 1.5000000000000000e+00 0.0000000000000000e+00 1.0000000000000000e+00 4.5999999999999996e+00 7.6600000000000001e+00 1.2300000000000001e+01 
7 1 2 1.5000000000000000e+00 0.0000000000000000e+00 1.0000000000000000e+00 5.4800000000000004e+00 1.8200000000000001e+00 1.4990000000000000e+01 
15 1 2 1.5000000000000000e+00 0.0000000000000000e+00 1.0000000000000000e+00 4.5599999999999996e+00 2.7700000000000000e+00 1.4400000000000000e+01 
79 1 2 1.5000000000000000e+00 0.0000000000000000e+00 1.0000000000000000e+00 6.4299999999999997e+00 3.0400000000000000e+00 1.5240000000000000e+01 
22 1 2 1.5000000000000000e+00 0.0000000000000000e+00 1.0000000000000000e+00 4.1799999999999997e+00 5.7199999999999998e+00 1.3500000000000000e+01 
23 1 2 1.5000000000000000e+00 0.0000000000000000e+00 1.0000000000000000e+00 5.2599999999999998e+00 5.6699999999999999e+00 1.6359999999999999e+01 
87 1 2 1.5000000000000000e+00 0.0000000000000000e+00 1.0000000000000000e+00 6.5800000000000001e+00 6.1799999999999997e+00 1.5050000000000001e+01 
31 1 2 1.5000000000000000e+00 0.0000000000000000e+00 1.0000000000000000e+00 4.4299999999999997e+00 7.7500000000000000e+00 1.6030000000000001e+01 
8 1 2 1.5000000000000000e+00 0.0000000000000000e+00 1.0000000000000000e+00 5.9800000000000004e+00 1.4000000000000001e-01 1.6949999999999999e+01 
16 1 2 1.5000000000000000e+00 0.0000000000000000e+00 1.0000000000000000e+00 5.7699999999999996e+00 3.8700000000000001e+00 1.7649999999999999e+01 
24 1 2 1.5000000000000000e+00 0.0000000000000000e+00 1.0000000000000000e+00 4.0099999999999998e+00 6.0199999999999996e+00 1.7180000000000000e+01 
32 1 2 1.5000000000000000e+00 0.0000000000000000e+00 1.0000000000000000e+00 4.4500000000000002e+00 7.9699999999999998e+00 1.6800000000000001e+01 
33 1 2 1.5000000000000000e+00 0.0000000000000000e+00 1.0000000000000000e+00 5.4000000000000004e+00 1.0970000000000001e+01 1.6599999999999999e+00 
34 1 2 1.5000000000000000e+00 0.0000000000000000e+00 1.0000000000000000e+00 4.0400000000000000e+00 1.0380000000000001e+01 2.4800000000000000e+00 
41 1 2 1.5000000000000000e+00 0.0000000000000000e+00 1.0000000000000000e+00 5.6399999999999997e+00 1.2100000000000000e+01 1.7999999999999999e-01 
42 1 2 1.5000000000000000e+00 0.0000000000000000e+00 1.0000000000000000e+00 4.3200000000000003e+00 1.2240000000000000e+01 2.7300000000000000e+00 
49 1 2 1.5000000000000000e+00 0.0000000000000000e+00 1.0000000000000000e+00 4.5300000000000002e+00 1.5970000000000001e+01 1.7500000000000000e+00 
50 1 2 1.5000000000000000e+00 0.0000000000000000e+00 1.0000000000000000e+00 5.8399999999999999e+00 1.6219999999999999e+01 2.8700000000000001e+00 
105 1 2 1.5000000000000000e+00 0.0000000000000000e+00 1.0000000000000000e+00 6.5700000000000003e+00 1.3570000000000000e+01 7.2999999999999998e-01 
57 1 2 1.5000000000000000e+00 0.0000000000000000e+00 1.0000000000000000e+00 5.4699999999999998e+00 1.8230000000000000e+01 8.9999999999999997e-02 
58 1 2 1.5000000000000000e+00 0.0000000000000000e+00 1.0000000000000000e+00 5.3700000000000001e+00 1.6829999999999998e+01 3.2000000000000002e+00 
35 1 2 1.5000000000000000e+00 0.0000000000000000e+00 1.0000000000000000e+00 5.7300000000000004e+00 1.1070000000000000e+01 6.1200000000000001e+00 
43 1 2 1.5000000000000000e+00 0.0000000000000000e+00 1.0000000000000000e+00 4.1600000000000001e+00 1.2869999999999999e+01 6.3600000000000003e+00 
99 1 2 1.5000000000000000e+00 0.0000000000000000e+00 1.0000000000000000e+00 6.5700000000000003e+00 1.0109999999999999e+01 4.9800000000000004e+00 
106 1 2 1.5000000000000000e+00 0.0000000000000000e+00 1.0000000000000000e+00 6.5000000000000000e+00 1.2930000000000000e+01 3.9600000000000000e+00 
51 1 2 1.5000000000000000e+00 0.0000000000000000e+00 1.0000000000000000e+00 5.1600000000000001e+00 1.5850000000000000e+01 5.2300000000000004e+00 
59 1 2 1.5000000000000000e+00 0.0000000000000000e+00 1.0000000000000000e+00 5.2900000000000000e+00 1.8750000000000000e+01 5.4600000000000000e+00 
36 1 2 1.5000000000000000e+00 0.0000000000000000e+00 1.0000000000000000e+00 4.5099999999999998e+00 1.1330000000000000e+01 7.9000000000000004e+00 
44 1 2 1.5000000000000000e+00 0.0000000000000000e+00 1.0000000000000000e+00 4.9800000000000004e+00 1.3609999999999999e+01 8.0500000000000007e+00 
52 1 2 1.5000000000000000e+00 0.0000000000000000e+00 1.0000000000000000e+00 5.5999999999999996e+00 1.5140000000000001e+01 8.9700000000000006e+00 
60 1 2 1.5000000000000000e+00 0.0000000000000000e+00 1.0000000000000000e+00 4.8300000000000001e+00 1.8010000000000002e+01 8.3699999999999992e+00 
37 1 2 1.5000000000000000e+00 0.0000000000000000e+00 1.0000000000000000e+00 5.2699999999999996e+00 1.0840000000000000e+01 1.1010000000000000e+01 
38 1 2 1.5000000000000000e+00 0.0000000000000000e+00 1.0000000000000000e+00 4.4400000000000004e+00 1.0170000000000000e+01 1.2230000000000000e+01 
45 1 2 1.5000000000000000e+00 0.0000000000000000e+00 1.0000000000000000e+00 4.8099999999999996e+00 1.3500000000000000e+01 1.1130000000000001e+01 
53 1 2 1.5000000000000000e+00 0.0000000000000000e+00 1.0000000000000000e+00 5.7500000000000000e+00 1.5960000000000001e+01 1.1490000000000000e+01 
61 1 2 1.5000000000000000e+00 0.0000000000000000e+00 1.0000000000000000e+00 5.4500000000000002e+00 1.7879999999999999e+01 1.1270000000000000e+01 
39 1 2 1.5000000000000000e+00 0.0000000000000000e+00 1.0000000000000000e+00 5.7500000000000000e+00 1.0100000000000000e+01 1.4550000000000001e+01 
46 1 2 1.5000000000000000e+00 0.0000000000000000e+00 1.0000000000000000e+00 5.3099999999999996e+00 1.3310000000000000e+01 1.3900000000000000e+01 
47 1 2 1.5000000000000000e+00 0.0000000000000000e+00 1.0000000000000000e+00 4.5899999999999999e+00 1.3359999999999999e+01 1.6390000000000001e+01 
54 1 2 1.5000000000000000e+00 0.0000000000000000e+00 1.0000000000000000e+00 5.3700000000000001e+00 1.5850000000000000e+01 1.3770000000000000e+01 
55 1 2 1.5000000000000000e+00 0.0000000000000000e+00 1.0000000000000000e+00 5.9600000000000000e+00 1.5090000000000000e+01 1.6329999999999998e+01 
62 1 2 1.5000000000000000e+00 0.0000000000000000e+00 1.0000000000000000e+00 4.8399999999999999e+00 1.8520000000000000e+01 1.3400000000000000e+01 
63 1 2 1.5000000000000000e+00 0.0000000000000000e+00 1.0000000000000000e+00 5.1399999999999997e+00 1.8059999999999999e+01 1.4760000000000000e+01 
127 1 2 1.5000000000000000e+00 0.0000000000000000e+00 1.0000000000000000e+00 6.4199999999999999e+00 1.7219999999999999e+01 1.5609999999999999e+01 
40 1 2 1.5000000000000000e+00 0.0000000000000000e+00 1.0000000000000000e+00 4.2300000000000004e+00 1.1490000000000000e+01 1.7579999999999998e+01 
48 1 2 1.5000000000000000e+00 0.0000000000000000e+00 1.0000000000000000e+00 4.5800000000000001e+00 1.3100000000000000e+01 1.6859999999999999e+01 
56 1 2 1.5000000000000000e+00 0.0000000000000000e+00 1.0000000000000000e+00 5.0300000000000002e+00 1.5949999999999999e+01 1.7489999999999998e+01 
64 1 2 1.5000000000000000e+00 0.0000000000000000e+00 1.0000000000000000e+00 4.9199999999999999e+00 1.7829999999999998e+01 1.8440000000000001e+01 
65 1 2 1.5000000000000000e+00 0.0000000000000000e+00 1.0000000000000000e+00 7.7500000000000000e+00 1.3100000000000001e+00 5.5000000000000004e-01 
66 1 2 1.5000000000000000e+00 0.0000000000000000e+00 1.0000000000000000e+00 8.0299999999999994e+00 1.9700000000000000e+00 3.2400000000000002e+00 
129 1 2 1.5000000000000000e+00 0.0000000000000000e+00 1.0000000000000000e+00 1.0520000000000000e+01 1.6699999999999999e+00 1.9399999999999999e+00 
193 1 2 1.5000000000000000e+00 0.0000000000000000e+00 1.0000000000000000e+00 1.2029999999999999e+01 3.4999999999999998e-01 1.3500000000000001e+00 
194 1 2 1.5000000000000000e+00 0.0000000000000000e+00 1.0000000000000000e+00 1.1300000000000001e+01 1.1000000000000001e+00 3.2900000000000000e+00 
201 1 2 1.5000000000000000e+00 0.0000000000000000e+00 1.0000000000000000e+00 1.2650000000000000e+01 2.8300000000000001e+00 1.5100000000000000e+00 
73 1 2 1.5000000000000000e+00 0.0000000000000000e+00 1.0000000000000000e+00 8.3800000000000008e+00 4.0300000000000002e+00 1.8700000000000001e+00 
74 1 2 1.5000000000000000e+00 0.0000000000000000e+00 1.0000000000000000e+00 7.8499999999999996e+00 3.9399999999999999e+00 3.2400000000000002e+00 
81 1 2 1.5000000000000000e+00 0.0000000000000000e+00 1.0000000000000000e+00 7.3200000000000003e+00 5.7599999999999998e+00 1.3999999999999999e+00 
137 1 2 1.5000000000000000e+00 0.0000000000000000e+00 1.0000000000000000e+00 9.5199999999999996e+00 3.7599999999999998e+00 1.3600000000000001e+00 
145 1 2 1.5000000000000000e+00 0.0000000000000000e+00 1.0000000000000000e+00 1.0220000000000001e+01 4.7999999999999998e+00 5.8999999999999997e-01 
202 1 2 1.5000000000000000e+00 0.0000000000000000e+00 1.0000000000000000e+00 1.1539999999999999e+01 3.6299999999999999e+00 2.9399999999999999e+00 
209 1 2 1.5000000000000000e+00 0.0000000000000000e+00 1.0000000000000000e+00 1.2330000000000000e+01 4.9299999999999997e+00 1.5400000000000000e+00 
210 1 2 1.5000000000000000e+00 0.0000000000000000e+00 1.0000000000000000e+00 1.2480000000000000e+01 5.5499999999999998e+00 2.6099999999999999e+00 
89 1 2 1.5000000000000000e+00 0.0000000000000000e+00 1.0000000000000000e+00 7.0800000000000001e+00 7.7800000000000002e+00 1.7000000000000000e+00 
153 1 2 1.5000000000000000e+00 0.0000000000000000e+00 1.0000000000000000e+00 9.9700000000000006e+00 8.1999999999999993e+00 1.2000000000000000e-01 
217 1 2 1.5000000000000000e+00 0.0000000000000000e+00 1.0000000000000000e+00 1.2420000000000000e+01 7.6699999999999999e+00 1.3000000000000000e+00 
218 1 2 1.5000000000000000e+00 0.0000000000000000e+00 1.0000000000000000e+00 1.2480000000000000e+01 7.4199999999999999e+00 2.6699999999999999e+00 
67 1 2 1.5000000000000000e+00 0.0000000000000000e+00 1.0000000000000000e+00 8.0800000000000001e+00 1.1699999999999999e+00 5.3499999999999996e+00 
130 1 2 1.5000000000000000e+00 0.0000000000000000e+00 1.0000000000000000e+00 8.9700000000000006e+00 4.6999999999999997e-01 4.0899999999999999e+00 
131 1 2 1.5000000000000000e+00 0.0000000000000000e+00 1.0000000000000000e+00 8.9900000000000002e+00 1.5400000000000000e+00 6.0099999999999998e+00 
195 1 2 1.5000000000000000e+00 0.0000000000000000e+00 1.0000000000000000e+00 1.2380000000000001e+01 8.9999999999999997e-02 6.3799999999999999e+00 
203 1 2 1.5000000000000000e+00 0.0000000000000000e+00 1.0000000000000000e+00 1.1990000000000000e+01 2.9100000000000001e+00 6.1900000000000004e+00 
75 1 2 1.5000000000000000e+00 0.0000000000000000e+00 1.0000000000000000e+00 7.9299999999999997e+00 3.3700000000000001e+00 6.4199999999999999e+00 
82 1 2 1.5000000000000000e+00 0.0000000000000000e+00 1.0000000000000000e+00 7.9600000000000000e+00 5.0800000000000001e+00 4.3899999999999997e+00 
83 1 2 1.5000000000000000e+00 0.0000000000000000e+00 1.0000000000000000e+00 7.7500000000000000e+00 5.2999999999999998e+00 6.6399999999999997e+00 
139 1 2 1.5000000000000000e+00 0.0000000000000000e+00 1.0000000000000000e+00 9.1799999999999997e+00 3.4800000000000000e+00 5.3499999999999996e+00 
146 1 2 1.5000000000000000e+00 0.0000000000000000e+00 1.0000000000000000e+00 9.7899999999999991e+00 5.0300000000000002e+00 3.6099999999999999e+00 
138 1 2 1.5000000000000000e+00 0.0000000000000000e+00 1.0000000000000000e+00 1.0230000000000000e+01 4.3799999999999999e+00 3.5000000000000000e+00 
147 1 2 1.5000000000000000e+00 0.0000000000000000e+00 1.0000000000000000e+00 1.0400000000000000e+01 5.5000000000000000e+00 4.8700000000000001e+00 
211 1 2 1.5000000000000000e+00 0.0000000000000000e+00 1.0000000000000000e+00 1.1500000000000000e+01 6.6100000000000003e+00 5.9400000000000004e+00 
90 1 2 1.5000000000000000e+00 0.0000000000000000e+00 1.0000000000000000e+00 7.8799999999999999e+00 8.4900000000000002e+00 3.7400000000000002e+00 
155 1 2 1.5000000000000000e+00 0.0000000000000000e+00 1.0000000000000000e+00 9.5899999999999999e+00 7.7199999999999998e+00 5.5099999999999998e+00 
154 1 2 1.5000000000000000e+00 0.0000000000000000e+00 1.0000000000000000e+00 1.0740000000000000e+01 8.2699999999999996e+00 3.3900000000000001e+00 
219 1 2 1.5000000000000000e+00 0.0000000000000000e+00 1.0000000000000000e+00 1.1900000000000000e+01 7.9000000000000004e+00 5.3899999999999997e+00 
68 1 2 1.5000000000000000e+00 0.0000000000000000e+00 1.0000000000000000e+00 7.1399999999999997e+00 7.0000000000000007e-02 7.2400000000000002e+00 
77 1 2 1.5000000000000000e+00 0.0000000000000000e+00 1.0000000000000000e+00 7.0300000000000002e+00 3.0099999999999998e+00 9.9100000000000001e+00 
132 1 2 1.5000000000000000e+00 0.0000000000000000e+00 1.0000000000000000e+00 1.0220000000000001e+01 9.1000000000000003e-01 7.3099999999999996e+00 
196 1 2 1.5000000000000000e+00 0.0000000000000000e+00 1.0000000000000000e+00 1.2490000000000000e+01 1.5100000000000000e+00 7.8799999999999999e+00 
76 1 2 1.5000000000000000e+00 0.0000000000000000e+00 1.0000000000000000e+00 8.0899999999999999e+00 4.3600000000000003e+00 8.5199999999999996e+00 
84 1 2 1.5000000000000000e+00 0.0000000000000000e+00 1.0000000000000000e+00 6.7900000000000000e+00 5.2800000000000002e+00 8.7200000000000006e+00 
140 1 2 1.5000000000000000e+00 0.0000000000000000e+00 1.0000000000000000e+00 9.2899999999999991e+00 4.3200000000000003e+00 8.2300000000000004e+00 
148 1 2 1.5000000000000000e+00 0.0000000000000000e+00 1.0000000000000000e+00 8.9299999999999997e+00 5.4600000000000000e+00 8.1500000000000004e+00 
204 1 2 1.5000000000000000e+00 0.0000000000000000e+00 1.0000000000000000e+00 1.2910000000000000e+01 4.3799999999999999e+00 7.6200000000000001e+00 
212 1 2 1.5000000000000000e+00 0.0000000000000000e+00 1.0000000000000000e+00 1.2810000000000000e+01 6.2800000000000002e+00 7.3200000000000003e+00 
92 1 2 1.5000000000000000e+00 0.0000000000000000e+00 1.0000000000000000e+00 8.0899999999999999e+00 8.9800000000000004e+00 9.0000000000000000e+00 
156 1 2 1.5000000000000000e+00 0.0000000000000000e+00 1.0000000000000000e+00 1.0740000000000000e+01 8.8200000000000003e+00 7.9900000000000002e+00 
157 1 2 1.5000000000000000e+00 0.0000000000000000e+00 1.0000000000000000e+00 1.0050000000000001e+01 8.4399999999999995e+00 9.9000000000000004e+00 
220 1 2 1.5000000000000000e+00 0.0000000000000000e+00 1.0000000000000000e+00 1.2460000000000001e+01 9.1899999999999995e+00 8.7500000000000000e+00 
69 1 2 1.5000000000000000e+00 0.0000000000000000e+00 1.0000000000000000e+00 7.0099999999999998e+00 7.9000000000000004e-01 1.0949999999999999e+01 
133 1 2 1.5000000000000000e+00 0.0000000000000000e+00 1.0000000000000000e+00 9.5700000000000003e+00 1.0200000000000000e+00 1.1500000000000000e+01 
134 1 2 1.5000000000000000e+00 0.0000000000000000e+00 1.0000000000000000e+00 9.8599999999999994e+00 5.1000000000000001e-01 1.2570000000000000e+01 
197 1 2 1.5000000000000000e+00 0.0000000000000000e+00 1.0000000000000000e+00 1.1810000000000000e+01 1.7200000000000000e+00 1.0130000000000001e+01 
78 1 2 1.5000000000000000e+00 0.0000000000000000e+00 1.0000000000000000e+00 8.0899999999999999e+00 4.0000000000000000e+00 1.2900000000000000e+01 
85 1 2 1.5000000000000000e+00 0.0000000000000000e+00 1.0000000000000000e+00 6.7400000000000002e+00 5.3200000000000003e+00 1.0369999999999999e+01 
86 1 2 1.5000000000000000e+00 0.0000000000000000e+00 1.0000000000000000e+00 7.1799999999999997e+00 5.8799999999999999e+00 1.3080000000000000e+01 
149 1 2 1.5000000000000000e+00 0.0000000000000000e+00 1.0000000000000000e+00 9.2500000000000000e+00 5.7900000000000000e+00 1.1490000000000000e+01 
141 1 2 1.5000000000000000e+00 0.0000000000000000e+00 1.0000000000000000e+00 1.0340000000000000e+01 4.0999999999999996e+00 1.1560000000000000e+01 
150 1 2 1.5000000000000000e+00 0.0000000000000000e+00 1.0000000000000000e+00 1.0180000000000000e+01 5.6200000000000001e+00 1.3130000000000001e+01 
205 1 2 1.5000000000000000e+00 0.0000000000000000e+00 1.0000000000000000e+00 1.1800000000000001e+01 3.6000000000000001e+00 1.1390000000000001e+01 
213 1 2 1.5000000000000000e+00 0.0000000000000000e+00 1.0000000000000000e+00 1.2880000000000001e+01 5.2699999999999996e+00 1.0850000000000000e+01 
214 1 2 1.5000000000000000e+00 0.0000000000000000e+00 1.0000000000000000e+00 1.2630000000000001e+01 6.6100000000000003e+00 1.2060000000000000e+01 
93 1 2 1.5000000000000000e+00 0.0000000000000000e+00 1.0000000000000000e+00 7.0300000000000002e+00 7.2500000000000000e+00 1.1060000000000000e+01 
94 1 2 1.5000000000000000e+00 0.0000000000000000e+00 1.0000000000000000e+00 7.1799999999999997e+00 7.2800000000000002e+00 1.2710000000000001e+01 
158 1 2 1.5000000000000000e+00 0.0000000000000000e+00 1.0000000000000000e+00 8.9800000000000004e+00 8.9199999999999999e+00 1.2630000000000001e+01 
221 1 2 1.5000000000000000e+00 0.0000000000000000e+00 1.0000000000000000e+00 1.2539999999999999e+01 8.6500000000000004e+00 1.1270000000000000e+01 
222 1 2 1.5000000000000000e+00 0.0000000000000000e+00 1.0000000000000000e+00 1.1690000000000000e+01 7.6299999999999999e+00 1.2650000000000000e+01 
70 1 2 1.5000000000000000e+00 0.0000000000000000e+00 1.0000000000000000e+00 7.9299999999999997e+00 1.3100000000000001e+00 1.3740000000000000e+01 
71 1 2 1.5000000000000000e+00 0.0000000000000000e+00 1.0000000000000000e+00 7.1900000000000004e+00 1.2600000000000000e+00 1.4460000000000001e+01 
135 1 2 1.5000000000000000e+00 0.0000000000000000e+00 1.0000000000000000e+00 9.4800000000000004e+00 5.9999999999999998e-01 1.5800000000000001e+01 
142 1 2 1.5000000000000000e+00 0.0000000000000000e+00 1.0000000000000000e+00 8.9399999999999995e+00 2.8399999999999999e+00 1.3390000000000001e+01 
198 1 2 1.5000000000000000e+00 0.0000000000000000e+00 1.0000000000000000e+00 1.2810000000000000e+01 3.7000000000000000e-01 1.3710000000000001e+01 
199 1 2 1.5000000000000000e+00 0.0000000000000000e+00 1.0000000000000000e+00 1.1990000000000000e+01 2.8999999999999998e-01 1.5039999999999999e+01 
151 1 2 1.5000000000000000e+00 0.0000000000000000e+00 1.0000000000000000e+00 9.3599999999999994e+00 5.5899999999999999e+00 1.6199999999999999e+01 
143 1 2 1.5000000000000000e+00 0.0000000000000000e+00 1.0000000000000000e+00 1.0410000000000000e+01 3.9100000000000001e+00 1.6050000000000001e+01 
206 1 2 1.5000000000000000e+00 0.0000000000000000e+00 1.0000000000000000e+00 1.1940000000000000e+01 4.1600000000000001e+00 1.3900000000000000e+01 
207 1 2 1.5000000000000000e+00 0.0000000000000000e+00 1.0000000000000000e+00 1.2240000000000000e+01 3.4300000000000002e+00 1.5960000000000001e+01 
215 1 2 1.5000000000000000e+00 0.0000000000000000e+00 1.0000000000000000e+00 1.2029999999999999e+01 4.9600000000000000e+00 1.5090000000000000e+01 
95 1 2 1.5000000000000000e+00 0.0000000000000000e+00 1.0000000000000000e+00 6.9100000000000001e+00 7.5999999999999996e+00 1.5730000000000000e+01 
159 1 2 1.5000000000000000e+00 0.0000000000000000e+00 1.0000000000000000e+00 9.5600000000000005e+00 8.0000000000000000e+00 1.6210000000000001e+01 
223 1 2 1.5000000000000000e+00 0.0000000000000000e+00 1.0000000000000000e+00 1.3130000000000001e+01 7.3099999999999996e+00 1.5810000000000000e+01 
230 1 2 1.5000000000000000e+00 0.0000000000000000e+00 1.0000000000000000e+00 1.2330000000000000e+01 9.8800000000000008e+00 1.3670000000000000e+01 
231 1 2 1.5000000000000000e+00 0.0000000000000000e+00 1.0000000000000000e+00 1.2289999999999999e+01 9.6500000000000004e+00 1.5510000000000000e+01 
72 1 2 1.5000000000000000e+00 0.0000000000000000e+00 1.0000000000000000e+00 8.2300000000000004e+00 6.6000000000000003e-01 1.8160000000000000e+01 
80 1 2 1.5000000000000000e+00 0.0000000000000000e+00 1.0000000000000000e+00 8.2200000000000006e+00 3.1899999999999999e+00 1.7190000000000001e+01 
136 1 2 1.5000000000000000e+00 0.0000000000000000e+00 1.0000000000000000e+00 9.7100000000000009e+00 9.6999999999999997e-01 1.8789999999999999e+01 
200 1 2 1.5000000000000000e+00 0.0000000000000000e+00 1.0000000000000000e+00 1.1760000000000000e+01 1.6299999999999999e+00 1.7489999999999998e+01 
88 1 2 1.5000000000000000e+00 0.0000000000000000e+00 1.0000000000000000e+00 6.7699999999999996e+00 6.2699999999999996e+00 1.8370000000000001e+01 
152 1 2 1.5000000000000000e+00 0.0000000000000000e+00 1.0000000000000000e+00 9.1400000000000006e+00 5.5999999999999996e+00 1.8780000000000001e+01 
144 1 2 1.5000000000000000e+00 0.0000000000000000e+00 1.0000000000000000e+00 1.0010000000000000e+01 4.0499999999999998e+00 1.8420000000000002e+01 
208 1 2 1.5000000000000000e+00 0.0000000000000000e+00 1.0000000000000000e+00 1.1520000000000000e+01 3.6699999999999999e+00 1.7870000000000001e+01 
216 1 2 1.5000000000000000e+00 0.0000000000000000e+00 1.0000000000000000e+00 1.2609999999999999e+01 6.3399999999999999e+00 1.7149999999999999e+01 
96 1 2 1.5000000000000000e+00 0.0000000000000000e+00 1.0000000000000000e+00 7.5199999999999996e+00 8.1699999999999999e+00 1.7750000000000000e+01 
160 1 2 1.5000000000000000e+00 0.0000000000000000e+00 1.0000000000000000e+00 9.4600000000000009e+00 7.4400000000000004e+00 1.8039999999999999e+01 
224 1 2 1.5000000000000000e+00 0.0000000000000000e+00 1.0000000000000000e+00 1.3190000000000000e+01 8.1899999999999995e+00 1.6879999999999999e+01 
97 1 2 1.5000000000000000e+00 0.0000000000000000e+00 1.0000000000000000e+00 7.6200000000000001e+00 1.1400000000000000e+01 1.2300000000000000e+00 
161 1 2 1.5000000000000000e+00 0.0000000000000000e+00 1.0000000000000000e+00 9.9600000000000009e+00 1.0750000000000000e+01 1.6000000000000001e+00 
162 1 2 1.5000000000000000e+00 0.0000000000000000e+00 1.0000000000000000e+00 1.0130000000000001e+01 1.1010000000000000e+01 2.8999999999999999e+00 
225 1 2 1.5000000000000000e+00 0.0000000000000000e+00 1.0000000000000000e+00 1.3170000000000000e+01 1.1350000000000000e+01 1.7300000000000000e+00 
233 1 2 1.5000000000000000e+00 0.0000000000000000e+00 1.0000000000000000e+00 1.2220000000000001e+01 1.3240000000000000e+01 1.3899999999999999e+00 
113 1 2 1.5000000000000000e+00 0.0000000000000000e+00 1.0000000000000000e+00 7.1299999999999999e+00 1.5619999999999999e+01 3.2000000000000001e-01 
177 1 2 1.5000000000000000e+00 0.0000000000000000e+00 1.0000000000000000e+00 9.3300000000000001e+00 1.5580000000000000e+01 9.3999999999999995e-01 
169 1 2 1.5000000000000000e+00 0.0000000000000000e+00 1.0000000000000000e+00 1.0080000000000000e+01 1.3690000000000000e+01 5.9999999999999998e-01 
241 1 2 1.5000000000000000e+00 0.0000000000000000e+00 1.0000000000000000e+00 1.2410000000000000e+01 1.5590000000000000e+01 1.8700000000000001e+00 
242 1 2 1.5000000000000000e+00 0.0000000000000000e+00 1.0000000000000000e+00 1.2920000000000000e+01 1.5100000000000000e+01 2.9500000000000002e+00 
121 1 2 1.5000000000000000e+00 0.0000000000000000e+00 1.0000000000000000e+00 7.7400000000000002e+00 1.7469999999999999e+01 1.6000000000000000e-01 
185 1 2 1.5000000000000000e+00 0.0000000000000000e+00 1.0000000000000000e+00 9.6300000000000008e+00 1.7260000000000002e+01 1.9700000000000000e+00 
249 1 2 1.5000000000000000e+00 0.0000000000000000e+00 1.0000000000000000e+00 1.1750000000000000e+01 1.6940000000000001e+01 8.1999999999999995e-01 
250 1 2 1.5000000000000000e+00 0.0000000000000000e+00 1.0000000000000000e+00 1.2100000000000000e+01 1.7460000000000001e+01 3.0499999999999998e+00 
98 1 2 1.5000000000000000e+00 0.0000000000000000e+00 1.0000000000000000e+00 8.1400000000000006e+00 1.1109999999999999e+01 3.6499999999999999e+00 
171 1 2 1.5000000000000000e+00 0.0000000000000000e+00 1.0000000000000000e+00 9.1300000000000008e+00 1.2080000000000000e+01 6.1200000000000001e+00 
163 1 2 1.5000000000000000e+00 0.0000000000000000e+00 1.0000000000000000e+00 1.0619999999999999e+01 1.1250000000000000e+01 4.9400000000000004e+00 
170 1 2 1.5000000000000000e+00 0.0000000000000000e+00 1.0000000000000000e+00 1.0670000000000000e+01 1.2619999999999999e+01 3.7700000000000000e+00 
226 1 2 1.5000000000000000e+00 0.0000000000000000e+00 1.0000000000000000e+00 1.1640000000000001e+01 1.1359999999999999e+01 3.6400000000000001e+00 
227 1 2 1.5000000000000000e+00 0.0000000000000000e+00 1.0000000000000000e+00 1.1980000000000000e+01 1.1440000000000000e+01 5.9199999999999999e+00 
234 1 2 1.5000000000000000e+00 0.0000000000000000e+00 1.0000000000000000e+00 1.3180000000000000e+01 1.2630000000000001e+01 4.1600000000000001e+00 
235 1 2 1.5000000000000000e+00 0.0000000000000000e+00 1.0000000000000000e+00 1.2060000000000000e+01 1.2960000000000001e+01 5.3600000000000003e+00 
107 1 2 1.5000000000000000e+00 0.0000000000000000e+00 1.0000000000000000e+00 7.0800000000000001e+00 1.3750000000000000e+01 6.4600000000000000e+00 
114 1 2 1.5000000000000000e+00 0.0000000000000000e+00 1.0000000000000000e+00 8.2500000000000000e+00 1.4440000000000000e+01 4.3799999999999999e+00 
115 1 2 1.5000000000000000e+00 0.0000000000000000e+00 1.0000000000000000e+00 8.1300000000000008e+00 1.5550000000000001e+01 5.5700000000000003e+00 
178 1 2 1.5000000000000000e+00 0.0000000000000000e+00 1.0000000000000000e+00 9.4000000000000004e+00 1.4590000000000000e+01 4.3499999999999996e+00 
179 1 2 1.5000000000000000e+00 0.0000000000000000e+00 1.0000000000000000e+00 9.4000000000000004e+00 1.6149999999999999e+01 5.8600000000000003e+00 
243 1 2 1.5000000000000000e+00 0.0000000000000000e+00 1.0000000000000000e+00 1.2640000000000001e+01 1.5029999999999999e+01 6.1299999999999999e+00 
122 1 2 1.5000000000000000e+00 0.0000000000000000e+00 1.0000000000000000e+00 6.6699999999999999e+00 1.7570000000000000e+01 3.4100000000000001e+00 
123 1 2 1.5000000000000000e+00 0.0000000000000000e+00 1.0000000000000000e+00 7.6500000000000004e+00 1.7260000000000002e+01 5.9800000000000004e+00 
187 1 2 1.5000000000000000e+00 0.0000000000000000e+00 1.0000000000000000e+00 8.8699999999999992e+00 1.8750000000000000e+01 5.8499999999999996e+00 
186 1 2 1.5000000000000000e+00 0.0000000000000000e+00 1.0000000000000000e+00 1.0199999999999999e+01 1.7539999999999999e+01 3.3799999999999999e+00 
251 1 2 1.5000000000000000e+00 0.0000000000000000e+00 1.0000000000000000e+00 1.1380000000000001e+01 1.8270000000000000e+01 5.5000000000000000e+00 
108 1 2 1.5000000000000000e+00 0.0000000000000000e+00 1.0000000000000000e+00 6.9400000000000004e+00 1.3010000000000000e+01 8.4000000000000004e+00 
164 1 2 1.5000000000000000e+00 0.0000000000000000e+00 1.0000000000000000e+00 9.0299999999999994e+00 1.1109999999999999e+01 8.8800000000000008e+00 