LAMMPS data file via write_data, version 30 Jul 2016, timestep = 1000000

2080 atoms
8 atom types

0.0000000000000000e+00 4.0000000000000000e+01 xlo xhi
0.0000000000000000e+00 4.0000000000000000e+01 ylo yhi
0.0000000000000000e+00 1.0000000000000000e+02 zlo zhi

Masses

1 3.896
2 4.306
3 20.064
4 8.378
5 8.378
6 8.378
7 8.378
8 8.378

Atoms # meso-molecular

1 2 4 2.2559723595316457e+00 0.0000000000000000e+00 1.0000000000000000e+00 0.0000000000000000e+00 0.0000000000000000e+00 2.5000000000000000e+00 
2 2 4 2.2559723595316457e+00 0.0000000000000000e+00 1.0000000000000000e+00 0.0000000000000000e+00 2.0000000000000000e+00 2.5000000000000000e+00 
3 2 4 2.2559723595316457e+00 -5.2881445890727513e-03 1.0000000000000000e+00 0.0000000000000000e+00 4.0000000000000000e+00 2.5000000000000000e+00 
4 2 4 2.2559723595316457e+00 -1.1447171738515217e-01 1.0000000000000000e+00 0.0000000000000000e+00 6.0000000000000000e+00 2.5000000000000000e+00 
5 2 4 2.2559723595316457e+00 -4.4459708080321514e-01 1.0000000000000000e+00 0.0000000000000000e+00 8.0000000000000000e+00 2.5000000000000000e+00 
6 2 4 2.2559723595316457e+00 -9.3896225329480720e-01 1.0000000000000000e+00 0.0000000000000000e+00 1.0000000000000000e+01 2.5000000000000000e+00 
7 2 4 2.2559723595316457e+00 -1.4033127168678925e+00 1.0000000000000000e+00 0.0000000000000000e+00 1.2000000000000000e+01 2.5000000000000000e+00 
8 2 4 2.2559723595316457e+00 -1.7194045647688805e+00 1.0000000000000000e+00 0.0000000000000000e+00 1.4000000000000000e+01 2.5000000000000000e+00 
9 2 4 2.2559723595316457e+00 -1.9318723671887610e+00 1.0000000000000000e+00 0.0000000000000000e+00 1.6000000000000000e+01 2.5000000000000000e+00 
10 2 4 2.2559723595316457e+00 -2.0834344931948614e+00 1.0000000000000000e+00 0.0000000000000000e+00 1.8000000000000000e+01 2.5000000000000000e+00 
21 2 4 2.2559723595316457e+00 -1.5141911904137750e-03 1.0000000000000000e+00 2.0000000000000000e+00 0.0000000000000000e+00 2.5000000000000000e+00 
22 2 4 2.2559723595316457e+00 -3.0952717689192005e-01 1.0000000000000000e+00 2.0000000000000000e+00 2.0000000000000000e+00 2.5000000000000000e+00 
23 2 4 2.2559723595316457e+00 -2.0172452234951188e+00 1.0000000000000000e+00 2.0000000000000000e+00 4.0000000000000000e+00 2.5000000000000000e+00 
24 2 4 2.2559723595316457e+00 -6.4593016756479003e+00 1.0000000000000000e+00 2.0000000000000000e+00 6.0000000000000000e+00 2.5000000000000000e+00 
25 2 4 2.2559723595316457e+00 -1.4516844977223538e+01 1.0000000000000000e+00 2.0000000000000000e+00 8.0000000000000000e+00 2.5000000000000000e+00 
26 2 4 2.2559723595316457e+00 -2.5355638629385968e+01 1.0000000000000000e+00 2.0000000000000000e+00 1.0000000000000000e+01 2.5000000000000000e+00 
27 2 4 2.2559723595316457e+00 -3.6032555047200454e+01 1.0000000000000000e+00 2.0000000000000000e+00 1.2000000000000000e+01 2.5000000000000000e+00 
28 2 4 2.2559723595316457e+00 -4.3903464226620514e+01 1.0000000000000000e+00 2.0000000000000000e+00 1.4000000000000000e+01 2.5000000000000000e+00 
29 2 4 2.2559723595316457e+00 -4.8182686569630306e+01 1.0000000000000000e+00 2.0000000000000000e+00 1.6000000000000000e+01 2.5000000000000000e+00 
30 2 4 2.2559723595316457e+00 -4.9738515724861557e+01 1.0000000000000000e+00 2.0000000000000000e+00 1.8000000000000000e+01 2.5000000000000000e+00 
41 2 4 2.2559723595316457e+00 -9.0446955030627796e-01 1.0000000000000000e+00 4.0000000000000000e+00 0.0000000000000000e+00 2.5000000000000000e+00 
42 2 4 2.2559723595316457e+00 -5.9222060660665443e+00 1.0000000000000000e+00 4.0000000000000000e+00 2.0000000000000000e+00 2.5000000000000000e+00 
43 2 4 2.2559723595316457e+00 -2.1248438545307192e+01 1.0000000000000000e+00 4.0000000000000000e+00 4.0000000000000000e+00 2.5000000000000000e+00 
44 2 4 2.2559723595316457e+00 -5.4422267676207667e+01 1.0000000000000000e+00 4.0000000000000000e+00 6.0000000000000000e+00 2.5000000000000000e+00 
45 2 4 2.2559723595316457e+00 -1.0667719732502934e+02 1.0000000000000000e+00 4.0000000000000000e+00 8.0000000000000000e+00 2.5000000000000000e+00 
46 2 4 2.2559723595316457e+00 -1.7022343951037021e+02 1.0000000000000000e+00 4.0000000000000000e+00 1.0000000000000000e+01 2.5000000000000000e+00 
47 2 4 2.2559723595316457e+00 -2.3186493570766723e+02 1.0000000000000000e+00 4.0000000000000000e+00 1.2000000000000000e+01 2.5000000000000000e+00 
48 2 4 2.2559723595316457e+00 -2.7988645228390465e+02 1.0000000000000000e+00 4.0000000000000000e+00 1.4000000000000000e+01 2.5000000000000000e+00 
49 2 4 2.2559723595316457e+00 -3.0829021877888988e+02 1.0000000000000000e+00 4.0000000000000000e+00 1.6000000000000000e+01 2.5000000000000000e+00 
50 2 4 2.2559723595316457e+00 -3.1938322328615391e+02 1.0000000000000000e+00 4.0000000000000000e+00 1.8000000000000000e+01 2.5000000000000000e+00 
61 2 4 2.2559723595316457e+00 -8.9311074512261772e+00 1.0000000000000000e+00 6.0000000000000000e+00 0.0000000000000000e+00 2.5000000000000000e+00 
62 2 4 2.2559723595316457e+00 -3.5161707149364588e+01 1.0000000000000000e+00 6.0000000000000000e+00 2.0000000000000000e+00 2.5000000000000000e+00 
63 2 4 2.2559723595316457e+00 -1.0409297296172970e+02 1.0000000000000000e+00 6.0000000000000000e+00 4.0000000000000000e+00 2.5000000000000000e+00 
64 2 4 2.2559723595316457e+00 -2.3023764189108027e+02 1.0000000000000000e+00 6.0000000000000000e+00 6.0000000000000000e+00 2.5000000000000000e+00 
65 2 4 2.2559723595316457e+00 -4.1007991411576955e+02 1.0000000000000000e+00 6.0000000000000000e+00 8.0000000000000000e+00 2.5000000000000000e+00 
66 2 4 2.2559723595316457e+00 -6.2115105142762570e+02 1.0000000000000000e+00 6.0000000000000000e+00 1.0000000000000000e+01 2.5000000000000000e+00 
67 2 4 2.2559723595316457e+00 -8.3194306777886845e+02 1.0000000000000000e+00 6.0000000000000000e+00 1.2000000000000000e+01 2.5000000000000000e+00 
68 2 4 2.2559723595316457e+00 -1.0091355489073480e+03 1.0000000000000000e+00 6.0000000000000000e+00 1.4000000000000000e+01 2.5000000000000000e+00 
69 2 4 2.2559723595316457e+00 -1.1305175539127554e+03 1.0000000000000000e+00 6.0000000000000000e+00 1.6000000000000000e+01 2.5000000000000000e+00 
70 2 4 2.2559723595316457e+00 -1.1909172217072555e+03 1.0000000000000000e+00 6.0000000000000000e+00 1.8000000000000000e+01 2.5000000000000000e+00 
81 2 4 2.2559723595316457e+00 -4.0282837704735265e+01 1.0000000000000000e+00 8.0000000000000000e+00 0.0000000000000000e+00 2.5000000000000000e+00 
82 2 4 2.2559723595316457e+00 -1.2525914216919237e+02 1.0000000000000000e+00 8.0000000000000000e+00 2.0000000000000000e+00 2.5000000000000000e+00 
83 2 4 2.2559723595316457e+00 -3.2081670361853969e+02 1.0000000000000000e+00 8.0000000000000000e+00 4.0000000000000000e+00 2.5000000000000000e+00 
84 2 4 2.2559723595316457e+00 -6.4339524279425200e+02 1.0000000000000000e+00 8.0000000000000000e+00 6.0000000000000000e+00 2.5000000000000000e+00 
85 2 4 2.2559723595316457e+00 -1.0822847713183801e+03 1.0000000000000000e+00 8.0000000000000000e+00 8.0000000000000000e+00 2.5000000000000000e+00 
86 2 4 2.2559723595316457e+00 -1.6000046207247835e+03 1.0000000000000000e+00 8.0000000000000000e+00 1.0000000000000000e+01 2.5000000000000000e+00 
87 2 4 2.2559723595316457e+00 -2.1333582578974888e+03 1.0000000000000000e+00 8.0000000000000000e+00 1.2000000000000000e+01 2.5000000000000000e+00 
88 2 4 2.2559723595316457e+00 -2.6060856938541856e+03 1.0000000000000000e+00 8.0000000000000000e+00 1.4000000000000000e+01 2.5000000000000000e+00 
89 2 4 2.2559723595316457e+00 -2.9544407390170591e+03 1.0000000000000000e+00 8.0000000000000000e+00 1.6000000000000000e+01 2.5000000000000000e+00 
90 2 4 2.2559723595316457e+00 -3.1378835618919379e+03 1.0000000000000000e+00 8.0000000000000000e+00 1.8000000000000000e+01 2.5000000000000000e+00 
101 2 4 2.2559723595316457e+00 -1.1917174406665373e+02 1.0000000000000000e+00 1.0000000000000000e+01 0.0000000000000000e+00 2.5000000000000000e+00 
102 2 4 2.2559723595316457e+00 -3.1418804902758524e+02 1.0000000000000000e+00 1.0000000000000000e+01 2.0000000000000000e+00 2.5000000000000000e+00 
103 2 4 2.2559723595316457e+00 -7.2380831531620311e+02 1.0000000000000000e+00 1.0000000000000000e+01 4.0000000000000000e+00 2.5000000000000000e+00 
104 2 4 2.2559723595316457e+00 -1.3667170886138565e+03 1.0000000000000000e+00 1.0000000000000000e+01 6.0000000000000000e+00 2.5000000000000000e+00 
105 2 4 2.2559723595316457e+00 -2.2347660768274063e+03 1.0000000000000000e+00 1.0000000000000000e+01 8.0000000000000000e+00 2.5000000000000000e+00 
106 2 4 2.2559723595316457e+00 -3.2704417190910481e+03 1.0000000000000000e+00 1.0000000000000000e+01 1.0000000000000000e+01 2.5000000000000000e+00 
107 2 4 2.2559723595316457e+00 -4.3557522194244102e+03 1.0000000000000000e+00 1.0000000000000000e+01 1.2000000000000000e+01 2.5000000000000000e+00 
108 2 4 2.2559723595316457e+00 -5.3414616640210588e+03 1.0000000000000000e+00 1.0000000000000000e+01 1.4000000000000000e+01 2.5000000000000000e+00 
109 2 4 2.2559723595316457e+00 -6.0911302685094579e+03 1.0000000000000000e+00 1.0000000000000000e+01 1.6000000000000000e+01 2.5000000000000000e+00 
110 2 4 2.2559723595316457e+00 -6.4976255707576202e+03 1.0000000000000000e+00 1.0000000000000000e+01 1.8000000000000000e+01 2.5000000000000000e+00 
121 2 4 2.2559723595316457e+00 -2.6130676341356173e+02 1.0000000000000000e+00 1.2000000000000000e+01 0.0000000000000000e+00 2.5000000000000000e+00 
122 2 4 2.2559723595316457e+00 -6.0658248251823170e+02 1.0000000000000000e+00 1.2000000000000000e+01 2.0000000000000000e+00 2.5000000000000000e+00 
123 2 4 2.2559723595316457e+00 -1.3053510508190125e+03 1.0000000000000000e+00 1.2000000000000000e+01 4.0000000000000000e+00 2.5000000000000000e+00 
124 2 4 2.2559723595316457e+00 -2.3866842853688945e+03 1.0000000000000000e+00 1.2000000000000000e+01 6.0000000000000000e+00 2.5000000000000000e+00 
125 2 4 2.2559723595316457e+00 -3.8491446846381059e+03 1.0000000000000000e+00 1.2000000000000000e+01 8.0000000000000000e+00 2.5000000000000000e+00 
126 2 4 2.2559723595316457e+00 -5.6013446718883833e+03 1.0000000000000000e+00 1.2000000000000000e+01 1.0000000000000000e+01 2.5000000000000000e+00 
127 2 4 2.2559723595316457e+00 -7.4480271262502583e+03 1.0000000000000000e+00 1.2000000000000000e+01 1.2000000000000000e+01 2.5000000000000000e+00 
128 2 4 2.2559723595316457e+00 -9.1454239042664649e+03 1.0000000000000000e+00 1.2000000000000000e+01 1.4000000000000000e+01 2.5000000000000000e+00 
129 2 4 2.2559723595316457e+00 -1.0455415561760763e+04 1.0000000000000000e+00 1.2000000000000000e+01 1.6000000000000000e+01 2.5000000000000000e+00 
130 2 4 2.2559723595316457e+00 -1.1173340742412827e+04 1.0000000000000000e+00 1.2000000000000000e+01 1.8000000000000000e+01 2.5000000000000000e+00 
141 2 4 2.2559723595316457e+00 -4.5034635126747810e+02 1.0000000000000000e+00 1.4000000000000000e+01 0.0000000000000000e+00 2.5000000000000000e+00 
142 2 4 2.2559723595316457e+00 -9.5754243885484698e+02 1.0000000000000000e+00 1.4000000000000000e+01 2.0000000000000000e+00 2.5000000000000000e+00 
143 2 4 2.2559723595316457e+00 -1.9795025612415366e+03 1.0000000000000000e+00 1.4000000000000000e+01 4.0000000000000000e+00 2.5000000000000000e+00 
144 2 4 2.2559723595316457e+00 -3.5580044877040900e+03 1.0000000000000000e+00 1.4000000000000000e+01 6.0000000000000000e+00 2.5000000000000000e+00 
145 2 4 2.2559723595316457e+00 -5.6961084338136616e+03 1.0000000000000000e+00 1.4000000000000000e+01 8.0000000000000000e+00 2.5000000000000000e+00 
146 2 4 2.2559723595316457e+00 -8.2605711946559568e+03 1.0000000000000000e+00 1.4000000000000000e+01 1.0000000000000000e+01 2.5000000000000000e+00 
147 2 4 2.2559723595316457e+00 -1.0971613389499758e+04 1.0000000000000000e+00 1.4000000000000000e+01 1.2000000000000000e+01 2.5000000000000000e+00 
148 2 4 2.2559723595316457e+00 -1.3476396308599738e+04 1.0000000000000000e+00 1.4000000000000000e+01 1.4000000000000000e+01 2.5000000000000000e+00 
149 2 4 2.2559723595316457e+00 -1.5415466573885307e+04 1.0000000000000000e+00 1.4000000000000000e+01 1.6000000000000000e+01 2.5000000000000000e+00 
150 2 4 2.2559723595316457e+00 -1.6477337477285757e+04 1.0000000000000000e+00 1.4000000000000000e+01 1.8000000000000000e+01 2.5000000000000000e+00 
161 2 4 2.2559723595316457e+00 -6.3469056933428146e+02 1.0000000000000000e+00 1.6000000000000000e+01 0.0000000000000000e+00 2.5000000000000000e+00 
162 2 4 2.2559723595316457e+00 -1.2800247420955275e+03 1.0000000000000000e+00 1.6000000000000000e+01 2.0000000000000000e+00 2.5000000000000000e+00 
163 2 4 2.2559723595316457e+00 -2.5875857185224236e+03 1.0000000000000000e+00 1.6000000000000000e+01 4.0000000000000000e+00 2.5000000000000000e+00 
164 2 4 2.2559723595316457e+00 -4.6103278299285648e+03 1.0000000000000000e+00 1.6000000000000000e+01 6.0000000000000000e+00 2.5000000000000000e+00 
165 2 4 2.2559723595316457e+00 -7.3517983756414505e+03 1.0000000000000000e+00 1.6000000000000000e+01 8.0000000000000000e+00 2.5000000000000000e+00 
166 2 4 2.2559723595316457e+00 -1.0641756223087676e+04 1.0000000000000000e+00 1.6000000000000000e+01 1.0000000000000000e+01 2.5000000000000000e+00 
167 2 4 2.2559723595316457e+00 -1.4126772520433431e+04 1.0000000000000000e+00 1.6000000000000000e+01 1.2000000000000000e+01 2.5000000000000000e+00 
168 2 4 2.2559723595316457e+00 -1.7351661767089612e+04 1.0000000000000000e+00 1.6000000000000000e+01 1.4000000000000000e+01 2.5000000000000000e+00 
169 2 4 2.2559723595316457e+00 -1.9846005488556752e+04 1.0000000000000000e+00 1.6000000000000000e+01 1.6000000000000000e+01 2.5000000000000000e+00 
170 2 4 2.2559723595316457e+00 -2.1209138718444345e+04 1.0000000000000000e+00 1.6000000000000000e+01 1.8000000000000000e+01 2.5000000000000000e+00 
181 2 4 2.2559723595316457e+00 -7.4924985210342493e+02 1.0000000000000000e+00 1.8000000000000000e+01 0.0000000000000000e+00 2.5000000000000000e+00 
182 2 4 2.2559723595316457e+00 -1.4745855508395207e+03 1.0000000000000000e+00 1.8000000000000000e+01 2.0000000000000000e+00 2.5000000000000000e+00 
183 2 4 2.2559723595316457e+00 -2.9512776454618070e+03 1.0000000000000000e+00 1.8000000000000000e+01 4.0000000000000000e+00 2.5000000000000000e+00 
184 2 4 2.2559723595316457e+00 -5.2382852964829071e+03 1.0000000000000000e+00 1.8000000000000000e+01 6.0000000000000000e+00 2.5000000000000000e+00 
185 2 4 2.2559723595316457e+00 -8.3386652950270000e+03 1.0000000000000000e+00 1.8000000000000000e+01 8.0000000000000000e+00 2.5000000000000000e+00 
186 2 4 2.2559723595316457e+00 -1.2061401535413410e+04 1.0000000000000000e+00 1.8000000000000000e+01 1.0000000000000000e+01 2.5000000000000000e+00 
187 2 4 2.2559723595316457e+00 -1.6008799319780319e+04 1.0000000000000000e+00 1.8000000000000000e+01 1.2000000000000000e+01 2.5000000000000000e+00 
188 2 4 2.2559723595316457e+00 -1.9662217650341725e+04 1.0000000000000000e+00 1.8000000000000000e+01 1.4000000000000000e+01 2.5000000000000000e+00 
189 2 4 2.2559723595316457e+00 -2.2485025965984092e+04 1.0000000000000000e+00 1.8000000000000000e+01 1.6000000000000000e+01 2.5000000000000000e+00 
190 2 4 2.2559723595316457e+00 -2.4026610215003049e+04 1.0000000000000000e+00 1.8000000000000000e+01 1.8000000000000000e+01 2.5000000000000000e+00 
1607 1209 2 1.0270873578677915e+00 6.1789405763904861e+03 1.0000000000000000e+00 1.9007458770782520e+01 1.1323478139595940e+01 6.9479752738916005e+01 
799 401 2 1.0279523380962416e+00 1.1048314974700217e+04 1.0000000000000000e+00 1.9227594292371823e+01 1.2179105512264222e+01 7.4609534081632916e+01 
873 475 2 1.0317293667492762e+00 4.5692651786220458e+03 1.0000000000000000e+00 1.5760777352058939e+01 1.8582481265601839e+01 7.1454034988814740e+01 
1870 1472 2 1.0263869410343329e+00 1.8015118513476598e+04 1.0000000000000000e+00 1.9104523687058180e+01 1.7705075399468573e+01 7.3429503712831291e+01 
1132 734 2 1.0270754161243225e+00 -4.1015779232194027e+03 1.0000000000000000e+00 1.7915922742316489e+01 1.3442204566345227e+01 7.5850431208351253e+01 
1895 1497 2 1.0285014349917248e+00 -1.3681681610173995e+04 1.0000000000000000e+00 1.7011505797737556e+01 1.4232065419756543e+01 7.6016952873647867e+01 
714 316 2 1.0309544273175686e+00 -1.2902225329977113e+04 1.0000000000000000e+00 1.5842639864236830e+01 1.8175652735838607e+01 7.2785679160631503e+01 
689 291 2 1.0318915276154177e+00 3.6509240691928353e+04 1.0000000000000000e+00 1.8094552257616503e+01 1.7801446424132244e+01 7.3770633341897593e+01 
519 121 2 1.0271989822913727e+00 9.7323383235471611e+03 1.0000000000000000e+00 1.7082992628677662e+01 1.6532836200395323e+01 7.5183534340763160e+01 
1974 1576 2 1.0292576034152048e+00 -8.8723265919345649e+03 1.0000000000000000e+00 1.5614721689421419e+01 1.2395255501613569e+01 7.5523129586297884e+01 
501 103 2 1.0348405943070096e+00 -2.6712454028836537e+03 1.0000000000000000e+00 1.7093648483035690e+01 1.3422495244765093e+01 7.5921814496696783e+01 
1063 665 2 1.0292059840099204e+00 4.7682270188638258e+03 1.0000000000000000e+00 1.3723107016963491e+01 1.4695554330305360e+01 7.4310987546948851e+01 
1472 1074 2 1.0301575457623868e+00 6.6474526170613517e+03 1.0000000000000000e+00 1.6702887111951668e+01 1.3583618862168322e+01 7.5997734158309356e+01 
1507 1109 2 1.0295234349394493e+00 -1.4403267615602904e+03 1.0000000000000000e+00 1.8757961190732669e+01 1.5308640474770430e+01 6.7097423198496443e+01 
1268 870 2 1.0267506876899257e+00 -5.5663045466362628e+03 1.0000000000000000e+00 1.8926885958783458e+01 1.8780653197129006e+01 7.2169630137862583e+01 
2011 1613 2 1.0266091436032345e+00 -6.3592501483842516e+03 1.0000000000000000e+00 1.9277515417809092e+01 1.8892982994075830e+01 7.1758155052531635e+01 
1890 1492 2 1.0309661356358681e+00 -1.2919310145177582e+04 1.0000000000000000e+00 1.7303852879238445e+01 1.5786437081626694e+01 7.5560823038579983e+01 
731 333 2 1.0268627254630656e+00 -2.2894555078341578e+04 1.0000000000000000e+00 1.7845424964431785e+01 1.4967517030495584e+01 7.5794186434211852e+01 
1464 1066 2 1.0284428553411185e+00 1.4209386717543670e+04 1.0000000000000000e+00 1.4827130852291349e+01 1.1299144806566346e+01 7.4324692206281114e+01 
1319 921 2 1.0275011154484088e+00 -5.1145654560669054e+03 1.0000000000000000e+00 1.8120386785819168e+01 1.7620213542983166e+01 7.4032671725191321e+01 
740 342 2 1.0250719302834228e+00 1.3691989014622481e+04 1.0000000000000000e+00 1.6430038081433590e+01 1.3710958633140557e+01 6.7224451969557265e+01 
1875 1477 2 1.0274043101011923e+00 1.0634468777452028e+04 1.0000000000000000e+00 1.8858982103845836e+01 1.7402349084150757e+01 7.3901398098930585e+01 
526 128 2 1.0308515201987822e+00 -4.5672722958106006e+03 1.0000000000000000e+00 1.7984120712217727e+01 1.9835876547892017e+01 7.0249631544676149e+01 
1097 699 2 1.0246464083367204e+00 -5.5064116406261492e+03 1.0000000000000000e+00 1.7273448481355448e+01 1.6674226402171925e+01 7.5102206161020092e+01 
1842 1444 2 1.0240200224493585e+00 -7.3338475386923919e+03 1.0000000000000000e+00 1.9646410068747350e+01 1.4825387526495975e+01 7.4844919820584124e+01 
1993 1595 2 1.0298937541126567e+00 -1.1237245077526253e+04 1.0000000000000000e+00 1.9051590230479924e+01 1.2477632946312644e+01 6.8407292764524485e+01 
965 567 2 1.0312525394154721e+00 6.6274530344631121e+03 1.0000000000000000e+00 1.8292892205320630e+01 1.6774425680926299e+01 7.4698927264764293e+01 
763 365 2 1.0284256153390854e+00 3.6612407429085888e+03 1.0000000000000000e+00 1.7103309214571290e+01 1.5082313511777784e+01 7.5865868588961291e+01 
1951 1553 2 1.0244331560026398e+00 -3.9592652553112721e+03 1.0000000000000000e+00 1.9835876499431311e+01 1.8808719286262733e+01 7.1363319368515789e+01 
1411 1013 2 1.0277720460944877e+00 9.2431873769430294e+03 1.0000000000000000e+00 1.6634865663972167e+01 1.8027556406505525e+01 7.3578236889033093e+01 
1727 1329 2 1.0320771367023733e+00 -3.3932705987274107e+03 1.0000000000000000e+00 1.7505799014321184e+01 1.8575052170627647e+01 6.7238053179031155e+01 
1344 946 2 1.0282419400755918e+00 2.7396289807870460e+02 1.0000000000000000e+00 1.7647742208237077e+01 1.9255485329974771e+01 7.1618384926452890e+01 
552 154 2 1.0302758376351144e+00 -1.2602275481002865e+04 1.0000000000000000e+00 1.6683639502430900e+01 1.4445182003738529e+01 7.5978032855879363e+01 
779 381 2 1.0257423845474649e+00 2.7892214493022975e+03 1.0000000000000000e+00 1.9981640312917374e+01 1.5737999047531197e+01 7.4147161475139967e+01 
1555 1157 2 1.0341138314694642e+00 1.0711411234992260e+04 1.0000000000000000e+00 1.8979903447849320e+01 1.1790341849578050e+01 7.4434843525493790e+01 
435 37 2 1.0269413144475368e+00 -4.3201698941116219e+03 1.0000000000000000e+00 1.5796755229223576e+01 1.7957394413337013e+01 7.3256515100053846e+01 
1233 835 2 1.0268395022268844e+00 -9.1378812985437689e+03 1.0000000000000000e+00 1.9258658245547494e+01 1.7149300895770910e+01 7.3859665604152269e+01 
1583 1185 2 1.0254341709569743e+00 1.0619848080434194e+04 1.0000000000000000e+00 1.4939882386082333e+01 1.2653659990278650e+01 7.5357954482657945e+01 
1430 1032 2 1.0312520396334881e+00 5.1120560898716476e+03 1.0000000000000000e+00 1.8908693510971013e+01 1.2152472471150933e+01 7.4822334118237748e+01 
495 97 2 1.0225711648573299e+00 -6.4568993397530512e+03 1.0000000000000000e+00 1.7487964004768351e+01 1.4809667772434025e+01 6.6889769869196016e+01 
1976 1578 2 1.0317988829722016e+00 -8.8115145119889221e+03 1.0000000000000000e+00 1.9257936487943660e+01 1.9831513383933650e+01 7.0122497888594225e+01 
1515 1117 2 1.0281485544157274e+00 1.1264333093720359e+03 1.0000000000000000e+00 1.7776508601761652e+01 1.2972608117440448e+01 7.5784180235982916e+01 
478 80 2 1.0343278157768423e+00 -4.8913686297173863e+03 1.0000000000000000e+00 1.4885173301744356e+01 1.1607471073925439e+01 6.9036334171706585e+01 
1576 1178 2 1.0263705889948185e+00 -8.6073685696095981e+03 1.0000000000000000e+00 1.6461552070387999e+01 1.3214456098452484e+01 7.5974882505650868e+01 
1963 1565 2 1.0280409926861496e+00 -1.1699992786186933e+04 1.0000000000000000e+00 1.9581073825365138e+01 1.6250441771043178e+01 7.4252852425201837e+01 
1764 1366 2 1.0303444036015312e+00 -4.0750582816709361e+03 1.0000000000000000e+00 1.9408031522539137e+01 1.7098282569554762e+01 7.3720910537894241e+01 
858 460 2 1.0313818854526848e+00 2.1631952177919997e+04 1.0000000000000000e+00 1.9576889968093042e+01 1.2366974601904710e+01 7.4307922036233776e+01 
1892 1494 2 1.0290279370127868e+00 -8.7114212510195812e+03 1.0000000000000000e+00 1.6576999999960613e+01 1.5079868129536598e+01 7.5853680789925448e+01 
1713 1315 2 1.0283909373782387e+00 4.5285610067446441e+03 1.0000000000000000e+00 1.7487035895733172e+01 1.7572679720912490e+01 7.4211941190511453e+01 
1649 1251 2 1.0275087539064973e+00 -2.8682528734772814e+03 1.0000000000000000e+00 1.8164534443793805e+01 1.3118976754694486e+01 7.5698708524252652e+01 
1964 1566 2 1.0302898694309948e+00 -1.2390390178721140e+04 1.0000000000000000e+00 1.4921878686164844e+01 1.3777030937903984e+01 7.5500648517551909e+01 
437 39 2 1.0274921267416728e+00 -6.6133718681770015e+03 1.0000000000000000e+00 1.8628660601406185e+01 1.5946931003001179e+01 7.5122272694748546e+01 
1412 1014 2 1.0305750099647084e+00 1.0758985100982582e+04 1.0000000000000000e+00 1.7338001601372429e+01 1.4090634912970392e+01 7.5973861372850962e+01 
1446 1048 2 1.0265329609176663e+00 8.1424405227983270e+03 1.0000000000000000e+00 1.3407561835136677e+01 1.1790021582503545e+01 7.2380467707259598e+01 
1894 1496 2 1.0315149196622815e+00 -1.3683951015263123e+04 1.0000000000000000e+00 1.7469887112417187e+01 1.0008776484061855e+01 7.1425698830982640e+01 
797 399 2 1.0264090523311633e+00 3.0865226922781162e+03 1.0000000000000000e+00 1.8174593465645135e+01 1.1634062803404206e+01 7.4986593884126592e+01 
1147 749 2 1.0285311455365431e+00 1.9568539205202242e+03 1.0000000000000000e+00 1.5392001304086282e+01 1.1079031395546295e+01 6.9162434704503809e+01 
1324 926 2 1.0277960011919767e+00 -4.0824554680046549e+03 1.0000000000000000e+00 1.8497561046898905e+01 1.1237983283716845e+01 6.9140965929674579e+01 
855 457 2 1.0286861910267278e+00 1.8882810590303234e+04 1.0000000000000000e+00 1.9036345153512247e+01 1.8042936606047920e+01 7.3049237254447348e+01 
910 512 2 1.0303336077145142e+00 9.2037685323790811e+02 1.0000000000000000e+00 1.8842347245694121e+01 1.4535159933828252e+01 7.5420199953151894e+01 
1056 658 2 1.0291255101324974e+00 5.0214390775667507e+03 1.0000000000000000e+00 1.7659532425923882e+01 1.5252624599735208e+01 7.5734120972804263e+01 
538 140 2 1.0284645110105677e+00 -8.7801756947019312e+03 1.0000000000000000e+00 1.4780435544464915e+01 1.1074704151438274e+01 7.3999797272497574e+01 
1653 1255 2 1.0336213024708034e+00 -3.4972256248566327e+03 1.0000000000000000e+00 1.9229507378183310e+01 1.3307696719920864e+01 7.5048857568511423e+01 
1140 742 2 1.0327271615801308e+00 1.3212239312574082e+04 1.0000000000000000e+00 1.5118274126178720e+01 1.4218540383087655e+01 7.5562724188317901e+01 
1265 867 2 1.0288471108597792e+00 -5.5992155787207239e+03 1.0000000000000000e+00 1.7508132195884894e+01 1.3880904406666223e+01 7.5965848646062000e+01 
1628 1230 2 1.0234043089217535e+00 1.2240196309267412e+03 1.0000000000000000e+00 1.5254293726450729e+01 1.0843443361936734e+01 7.4185103226930806e+01 
549 151 2 1.0263138389547026e+00 -1.2590103548917807e+04 1.0000000000000000e+00 1.7506590014482295e+01 1.8572789423106240e+01 7.2906720591178569e+01 
1102 704 2 1.0290307073702596e+00 -3.2163263289879455e+03 1.0000000000000000e+00 1.4548319734943624e+01 1.7685293299464998e+01 7.1200463448347648e+01 
992 594 2 1.0252747817553387e+00 1.3355248958655837e+04 1.0000000000000000e+00 1.5413753520499014e+01 1.3392956132318091e+01 7.5765176757552737e+01 
941 543 2 1.0250411580741776e+00 7.4178295748030969e+03 1.0000000000000000e+00 1.6750302246019643e+01 1.0312156864008537e+01 7.3820417792802715e+01 
952 554 2 1.0300598663443110e+00 8.7553744234777569e+03 1.0000000000000000e+00 1.7649133726690732e+01 1.4401158210596538e+01 7.5904552207006162e+01 
2077 1679 2 1.0294084169547146e+00 -2.4132452979115820e+04 1.0000000000000000e+00 1.8511265463420983e+01 1.8026444212296976e+01 7.3372868229547933e+01 
1028 630 2 1.0298844982822697e+00 1.9742599391275729e+04 1.0000000000000000e+00 1.8447226305978827e+01 1.3120275658200184e+01 7.5548272973039829e+01 
1251 853 2 1.0292388311934364e+00 -1.5148098313206552e+04 1.0000000000000000e+00 1.7530903163419502e+01 1.8921558273240269e+01 7.2241182682231937e+01 
1230 832 2 1.0234305961582073e+00 -8.1295948073893105e+03 1.0000000000000000e+00 1.7567424211658807e+01 1.5277876382578244e+01 7.5804518033966090e+01 
816 418 2 1.0310514925573731e+00 -3.5420858590289899e+03 1.0000000000000000e+00 1.9238385228453801e+01 1.4105454483134084e+01 7.5172357215499986e+01 
1008 610 2 1.0294027701435122e+00 7.1766964906244011e+03 1.0000000000000000e+00 1.9235341831749764e+01 1.1705422888774425e+01 7.4164476112102378e+01 
1930 1532 2 1.0282223318800223e+00 -1.0964582078101095e+04 1.0000000000000000e+00 1.6573450722024248e+01 1.0248648509797258e+01 7.3605442776683887e+01 
581 183 2 1.0321914513700954e+00 -7.5078960544012407e+03 1.0000000000000000e+00 1.7361879126243917e+01 1.9671712853964202e+01 7.0055176929077930e+01 
1673 1275 2 1.0252120375079681e+00 2.6024500822886926e+03 1.0000000000000000e+00 1.6895186031073049e+01 1.5033948210469013e+01 7.5918836029329697e+01 
906 508 2 1.0250711601101736e+00 9.2737576908931896e+03 1.0000000000000000e+00 1.5461811323070256e+01 1.0439999441178177e+01 7.3611873736803844e+01 
2072 1674 2 1.0284556073396960e+00 -2.2803655280502717e+04 1.0000000000000000e+00 1.3474499606076426e+01 1.2492971017056167e+01 6.9968950074690568e+01 
1076 678 2 1.0313514164892219e+00 9.0672229892725682e+03 1.0000000000000000e+00 1.7297180355053271e+01 1.7019760053726202e+01 7.4735565369357175e+01 
585 187 2 1.0280421257602430e+00 -4.0796971492153789e+03 1.0000000000000000e+00 1.7848695795933601e+01 1.7615217028228685e+01 7.4108088529052708e+01 
954 556 2 1.0274211173854704e+00 1.5607692699707086e+04 1.0000000000000000e+00 1.7071594399403093e+01 1.7612819849482005e+01 7.4194200306266580e+01 
1937 1539 2 1.0241157097282625e+00 -1.9138692328263864e+04 1.0000000000000000e+00 1.9053332649425755e+01 1.6372796113583025e+01 7.4661910629574578e+01 
500 102 2 1.0280768108252440e+00 1.3611745045018421e+02 1.0000000000000000e+00 1.9156290492675708e+01 1.7493491392527183e+01 7.3587169537978824e+01 
1648 1250 2 1.0317095291110161e+00 1.4383172350391740e+04 1.0000000000000000e+00 1.9487231598795788e+01 1.1514792161958633e+01 7.3512514672812813e+01 
861 463 2 1.0324175839821648e+00 1.5533666612771425e+04 1.0000000000000000e+00 1.6838716797632227e+01 1.3336730700278705e+01 7.5946310379138126e+01 
715 317 2 1.0317311971455558e+00 -1.2918372101258368e+04 1.0000000000000000e+00 1.8488376679619925e+01 1.0731367803824133e+01 7.3542178975949952e+01 
2010 1612 2 1.0235047294162416e+00 -6.3431666015615310e+03 1.0000000000000000e+00 1.4807730067138593e+01 1.2561253078329111e+01 7.5265951375971511e+01 
2008 1610 2 1.0330273989410312e+00 -1.1949077450256422e+04 1.0000000000000000e+00 1.9225543099354127e+01 1.7334915183213354e+01 6.7007777471352156e+01 
1909 1511 2 1.0281003807495368e+00 -2.8402858407881642e+04 1.0000000000000000e+00 1.9347325746724962e+01 1.9815095157632815e+01 6.6771616225910378e+01 
904 506 2 1.0254082099896455e+00 -2.4440408042325489e+04 1.0000000000000000e+00 1.8213980066405998e+01 1.9369814341599518e+01 7.1499271030296157e+01 
1512 1114 2 1.0242956929327371e+00 7.1716224905313666e+03 1.0000000000000000e+00 1.9552586764931441e+01 1.1781514211314029e+01 7.3933294948725788e+01 
1084 686 2 1.0325173453658583e+00 1.5353185600774139e+04 1.0000000000000000e+00 1.4519928144090079e+01 1.5047883663761645e+01 6.8207570499376899e+01 
588 190 2 1.0304858140375088e+00 -4.0675484760499303e+03 1.0000000000000000e+00 1.3702951177814667e+01 1.6540694672310124e+01 7.2169294243998891e+01 
1687 1289 2 1.0331092247242337e+00 -1.2436135775845678e+03 1.0000000000000000e+00 1.5520342666671473e+01 1.1902055190141249e+01 6.8384213426655279e+01 