LAMMPS data file via write_data, version 30 Jul 2016, timestep = 50000000

4620 atoms
8 atom types

0.0000000000000000e+00 1.0000000000000000e+02 xlo xhi
0.0000000000000000e+00 4.0000000000000000e+01 ylo yhi
0.0000000000000000e+00 4.0000000000000000e+01 zlo zhi

Masses

1 3.896
2 5.36
3 20.064
4 8.378
5 8.378
6 8.378
7 8.378
8 8.378

Atoms # meso-molecular

4164 4165 2 1.0279999999999996e+00 -2.9843998017531348e+01 1.0000000000000000e+00 1.2973147277187447e+01 3.0055816393171235e+00 1.4367937294813350e-02 
4165 4166 2 1.0279999999999996e+00 -1.7363370004261355e+01 1.0000000000000000e+00 1.4434275156186754e+01 3.4370448248972902e+00 3.7133284165135477e-01 
2854 2855 2 1.0280000000000000e+00 8.5387236180852881e+01 1.0000000000000000e+00 3.0107775208422151e+01 8.9195016278689074e+00 1.3804154931819830e+00 
2850 2851 2 1.0280000000000000e+00 1.4532848731276069e+01 1.0000000000000000e+00 2.7315653158629917e+01 2.1692725426971489e+00 2.0019129781647451e+00 
2853 2854 2 1.0280000000000000e+00 -9.8361475171319270e+00 1.0000000000000000e+00 3.1147976036218431e+01 9.9785997864081803e+00 1.8751603068717517e+00 
2849 2850 2 1.0280000000000000e+00 5.5542746411879563e+01 1.0000000000000000e+00 2.7546623693191506e+01 3.2677149493140281e+00 3.0921221295445722e+00 
2397 2398 2 1.0279999999999998e+00 1.5221937148000848e+02 1.0000000000000000e+00 2.6032199616194628e+01 5.7540213054418041e+00 3.4109123060360078e+00 
379 380 2 1.0279999999999996e+00 5.3698438447881607e+00 1.0000000000000000e+00 8.1497506915610582e+00 6.2358426587604932e+00 4.0656624808195385e+00 
714 715 2 1.0279999999999998e+00 -2.1616211567626749e+02 1.0000000000000000e+00 2.7721691596957900e+01 1.7175580995288229e+01 4.0111973552471456e+00 
2641 2642 2 1.0279999999999998e+00 7.7000314258032034e+01 1.0000000000000000e+00 2.3317365280342532e+01 5.1784319173967148e+00 5.6423098404163810e+00 
2860 2861 2 1.0279999999999998e+00 -2.4067328240090802e+02 1.0000000000000000e+00 2.6178550295777743e+01 5.6911470785857636e+00 4.9675456644171927e+00 
421 422 2 1.0279999999999996e+00 -5.4569662322132004e+01 1.0000000000000000e+00 9.4131161713881504e+00 6.6276367682735433e+00 4.9016553889081234e+00 
3913 3914 2 1.0280000000000000e+00 -4.4621823597881303e+01 1.0000000000000000e+00 3.2883316344703147e+01 7.1170228300324432e+00 5.2992944194234095e+00 
3156 3157 2 1.0280000000000000e+00 -6.6209983335607944e+01 1.0000000000000000e+00 3.1058462268069018e+00 7.8744811741010361e+00 5.4090461019287481e+00 
756 757 2 1.0279999999999998e+00 -1.5881639262169010e+01 1.0000000000000000e+00 2.7082002560969212e+01 1.5995341641754798e+01 4.8151327431043569e+00 
2640 2641 2 1.0279999999999998e+00 4.9520290147380891e+01 1.0000000000000000e+00 2.1997842351929208e+01 5.7503687546742670e+00 6.2589350084064224e+00 
2820 2821 2 1.0280000000000000e+00 -6.5449660718604591e+01 1.0000000000000000e+00 3.1215451008056396e+00 7.9265621451947155e+00 6.9728620182204901e+00 
3485 3486 2 1.0280000000004077e+00 -1.9869012836233470e+01 1.0000000000000000e+00 7.9205301700208626e+00 9.3785799764302027e+00 7.5932238663346263e+00 
3158 3159 2 1.0279999999999998e+00 4.6804962582695936e+01 1.0000000000000000e+00 2.4268257336499435e+00 1.3861896226752046e+01 7.6166821591113525e+00 
1790 1791 2 1.0280000000000005e+00 4.6454896264971111e+01 1.0000000000000000e+00 2.2053943433423715e+01 9.5015169963292734e-01 9.1172586506352324e+00 
3176 3177 2 1.0280000000000005e+00 4.6429795068391975e+01 1.0000000000000000e+00 2.2748917262745053e+01 2.3199734944050650e+00 8.8187980512792361e+00 
3609 3610 2 1.0279999999999994e+00 -4.6399946231430306e+01 1.0000000000000000e+00 2.7775367736983121e+01 6.8484275171980329e+00 9.1854675639266503e+00 
2562 2563 2 1.0279999999996121e+00 3.5161192380653489e+01 1.0000000000000000e+00 8.5538230800495842e+00 8.3612549667305984e+00 8.5996685322771054e+00 
3483 3484 2 1.0279999999993359e+00 -5.0547997424422135e+01 1.0000000000000000e+00 8.8214227648969867e+00 1.1150878528259572e+01 8.9975456819059225e+00 
3157 3158 2 1.0279999999999998e+00 2.3594932684793406e+01 1.0000000000000000e+00 3.9346931125412770e+00 1.3720296045387402e+01 8.0100833011472528e+00 
4112 4113 2 1.0279999999999994e+00 -1.1655158850876495e+02 1.0000000000000000e+00 2.6498283470414535e+01 7.0351591467103347e+00 1.0070151788305571e+01 
4408 4409 2 1.0279999999998102e+00 2.4025368978196678e+02 1.0000000000000000e+00 7.8008702537407073e+00 1.0138614299965969e+01 9.6533989031470977e+00 
4451 4452 2 1.0279999999986558e+00 -2.8103003303720214e+01 1.0000000000000000e+00 9.5444218821778932e+00 9.6036137502724266e+00 1.0383018827928842e+01 
209 210 2 1.0280000000012952e+00 -3.0445287778904959e+01 1.0000000000000000e+00 9.7584572429687988e+00 1.1131551784798150e+01 1.0722810258173814e+01 
592 593 2 1.0279999999999996e+00 1.1604335891253548e+01 1.0000000000000000e+00 4.2980859530050503e-01 1.2795183952656437e+01 1.0599117544064605e+01 
129 130 2 1.0279999999999996e+00 -8.2594724446371828e+01 1.0000000000000000e+00 1.2262418451025270e+00 1.2150043813889814e+01 1.1781474250902370e+01 
3853 3854 2 1.0279999999999996e+00 -1.3314342863200444e+01 1.0000000000000000e+00 1.0342248760359118e+01 1.3137044467722529e+01 1.2195437519485349e+01 
2118 2119 2 1.0280000000000018e+00 8.2801839411708357e+01 1.0000000000000000e+00 3.3027476068955416e+01 1.2560608653386289e+01 1.0952844625207183e+01 
3616 3617 2 1.0280000000000007e+00 6.3160899561549869e+01 1.0000000000000000e+00 1.3217329885510777e+01 1.3942664995908251e+01 1.1972951948211827e+01 
2794 2795 2 1.0280000000000000e+00 -4.5870353315722898e+00 1.0000000000000000e+00 5.5783732349262589e+00 1.2277523601592579e+00 1.3269029359847373e+01 
4366 4367 2 1.0279998090008533e+00 4.4798503561776897e+01 1.0000000000000000e+00 4.6398550356859216e+00 9.8773323004029443e+00 1.2907847117317749e+01 
3895 3896 2 1.0279999999999996e+00 4.1813590483297830e+01 1.0000000000000000e+00 1.1365684126277264e+01 1.1993577936812166e+01 1.2501286251243521e+01 
3617 3618 2 1.0280000000000007e+00 9.1253593523404362e+01 1.0000000000000000e+00 1.3477800947686989e+01 1.3374332876197352e+01 1.3407396973200926e+01 
2793 2794 2 1.0280000000000000e+00 -3.8323438374071710e+00 1.0000000000000000e+00 4.1823249664435265e+00 1.5152640937441710e+00 1.3914680455532675e+01 
3738 3739 2 1.0280001905910952e+00 -1.2045734718390216e+02 1.0000000000000000e+00 5.4414627697675924e+00 9.0323795006596619e+00 1.4066522915104871e+01 
4365 4366 2 1.0280001905910334e+00 3.0748822639842508e+01 1.0000000000000000e+00 3.6732222823562517e+00 1.0438881924443184e+01 1.4294263753486650e+01 
3822 3823 2 1.0279998090008233e+00 -5.7755563018247024e+01 1.0000000000000000e+00 5.0865876973051254e+00 1.0415080151297834e+01 1.5131450397511305e+01 
3108 3109 2 1.0280000000000000e+00 1.0435715979166471e+01 1.0000000000000000e+00 2.1050386443070074e+01 1.9730180041272472e+01 1.4203763559866101e+01 
4494 4495 2 1.0280000000000000e+00 2.3753691927172468e+01 1.0000000000000000e+00 2.1682314558088535e+01 1.8633699286382946e+01 1.5124022172348688e+01 
378 379 2 1.0279999999999994e+00 -5.6850349037986163e+01 1.0000000000000000e+00 3.0497094628454114e+01 5.2989558811545665e+00 1.5539657799556732e+01 
337 338 2 1.0279999999999994e+00 -5.7238980892177906e+01 1.0000000000000000e+00 3.1965197590450451e+01 5.6559784179267476e+00 1.5946705344023730e+01 
2073 2074 2 1.0279999999897702e+00 -4.5926993240260217e+01 1.0000000000000000e+00 3.3161308286664472e+01 9.7691105566311247e+00 1.6547467216016134e+01 
2933 2934 2 1.0279999999999994e+00 -1.9165204225077127e+02 1.0000000000000000e+00 2.1258233213139910e+01 1.2240106287779811e+01 1.5598486974570724e+01 
3815 3816 2 1.0279999999999994e+00 3.2454385569377131e+01 1.0000000000000000e+00 2.0965312510384344e+01 1.3609605729461503e+01 1.6296446746601315e+01 
1002 1003 2 1.0280000000000002e+00 -3.0711593865274075e+01 1.0000000000000000e+00 1.9921454333092896e+01 2.6336642772434624e+00 1.9932649797145189e+01 
1597 1598 2 1.0280000000000000e+00 4.4261860776390350e+01 1.0000000000000000e+00 3.0882531851013422e+01 2.6521086055954446e+00 1.9736334373758989e+01 
1215 1216 2 1.0279999999999987e+00 -5.6072208068731655e+01 1.0000000000000000e+00 2.8919239849095757e+01 1.3787555460192539e+01 1.9124462312709916e+01 
1135 1136 2 1.0280000000000000e+00 7.8126282413766631e+01 1.0000000000000000e+00 3.0651702729973902e+01 1.2553585769481685e+00 2.0402882478996883e+01 
1045 1046 2 1.0280000000000002e+00 1.4077875046951005e+01 1.0000000000000000e+00 1.9006411454528088e+01 1.7482530952188247e+00 2.0842167620706569e+01 
4248 4249 2 1.0280000000000007e+00 4.6738014338983120e+01 1.0000000000000000e+00 2.3799256138462901e+01 1.0534725740978589e+01 2.0907373030307340e+01 
4111 4112 2 1.0279999999999987e+00 -1.5212889621448721e+02 1.0000000000000000e+00 2.8839118821962401e+01 1.2648690632947281e+01 2.0194530828514864e+01 
4585 4586 2 1.0280000000000000e+00 -1.6703547074705028e+01 1.0000000000000000e+00 3.2429275462787821e+01 1.6299693845946887e+01 2.1292674351009335e+01 
2497 2498 2 1.0280000000000020e+00 8.2629673857092854e+01 1.0000000000000000e+00 2.7272512051824631e+01 5.1792591749545036e-01 2.2346463019678513e+01 
462 463 2 1.0280000000000002e+00 -5.4300741789548042e+01 1.0000000000000000e+00 7.0931549805138516e+00 5.7762036180145966e+00 2.3049108039977636e+01 
420 421 2 1.0280000000000002e+00 5.6881254847491771e+00 1.0000000000000000e+00 8.3633020603862498e+00 5.8030308476555890e+00 2.2135606098280917e+01 
803 804 2 1.0280000000000007e+00 9.7468136004229763e+01 1.0000000000000000e+00 3.2140575803456422e+01 4.8090927499298024e+00 2.2482156195772099e+01 
4206 4207 2 1.0280000000000007e+00 -2.1825833495693253e+01 1.0000000000000000e+00 2.3688789205261326e+01 9.7112794896953059e+00 2.2233349059562322e+01 
4584 4585 2 1.0280000000000000e+00 -3.0694897679412229e+01 1.0000000000000000e+00 3.1342861903348336e+01 1.6100149793555047e+01 2.2400991476774042e+01 
674 675 2 1.0279999999999987e+00 -8.7855378907683644e+01 1.0000000000000000e+00 2.2362696751644457e+01 4.0207727672484528e-01 2.4540813878922286e+01 
2442 2443 2 1.0279999999999994e+00 7.4680216626616058e+01 1.0000000000000000e+00 2.5221233265026964e+01 5.7948985822959589e+00 2.3919878262575153e+01 
2443 2444 2 1.0279999999999994e+00 6.0613679412249809e+01 1.0000000000000000e+00 2.6569773579918348e+01 5.1086831819414407e+00 2.3521096936945167e+01 
383 384 2 1.0280000000000007e+00 -3.7513765425055368e+01 1.0000000000000000e+00 3.3092746398731066e+01 5.1367996869771826e+00 2.3679844979700384e+01 
3528 3529 2 1.0280000000000000e+00 4.6995366503106723e+01 1.0000000000000000e+00 2.9476178500400518e+01 1.8474277476046284e+00 2.5284815976655416e+01 
3487 3488 2 1.0280000000000000e+00 4.5135071833076680e+01 1.0000000000000000e+00 2.2615887848397421e+01 1.0263761045145408e+01 2.5740622497490623e+01 
4157 4158 2 1.0279999999999996e+00 -8.7342564211133890e+01 1.0000000000000000e+00 2.7973663817800926e-01 7.1524286169278486e-02 2.6814179200690337e+01 
2646 2647 2 1.0280000000000000e+00 2.4335779013794610e+02 1.0000000000000000e+00 2.8495914648470286e+01 1.4194468013345867e+00 2.6426916757003180e+01 
4536 4537 2 1.0280000006503827e+00 -6.2621344618975343e+01 1.0000000000000000e+00 3.2918712328522702e+01 4.9020211502335922e+00 2.6617030740966104e+01 
3989 3990 2 1.0279999994310709e+00 -7.7144243122905340e+00 1.0000000000000000e+00 3.1996727474058371e+01 5.6041993531025840e+00 2.7691623007652723e+01 
2605 2606 2 1.0280000000000000e+00 2.4381171749937903e+02 1.0000000000000000e+00 2.3552890854566741e+01 1.0250825569511118e+01 2.6993753433243963e+01 
1348 1349 2 1.0279999999999996e+00 -1.0941320307210965e+02 1.0000000000000000e+00 3.2821800996940148e+01 1.9044139348812202e+01 2.6461588631681423e+01 
709 710 2 1.0280000000000014e+00 -2.8404214412515117e+01 1.0000000000000000e+00 3.1589673200242494e+01 1.3485467582433801e+01 2.9115662980993488e+01 
3953 3954 2 1.0280000000000007e+00 -5.8514540915244226e+01 1.0000000000000000e+00 2.3518359895510553e+01 1.9734717719273942e+01 2.8126680071934146e+01 
3995 3996 2 1.0280000000000007e+00 -1.9914553214601995e+01 1.0000000000000000e+00 2.4964482668435657e+01 1.9192050857656966e+01 2.7876239050588900e+01 
710 711 2 1.0280000000000014e+00 -3.2735968722706886e+01 1.0000000000000000e+00 3.0153080935832115e+01 1.3729586667665428e+01 2.9685827553993413e+01 
4237 4238 2 1.0280000000000002e+00 -2.6048351383044928e+01 1.0000000000000000e+00 2.8177097496675536e+01 2.5421605363338822e+00 3.2301576788002805e+01 
4279 4280 2 1.0280000000000002e+00 5.1859684652195163e+01 1.0000000000000000e+00 2.9477314196653865e+01 1.7142280579102189e+00 3.2032423585326370e+01 
1217 1218 2 1.0279999999999980e+00 5.7791241252929083e+01 1.0000000000000000e+00 2.4286504483666285e+01 7.0121990414070412e+00 3.1325504048174558e+01 
508 509 2 1.0280000000000002e+00 -1.6199594680722322e+02 1.0000000000000000e+00 1.5797299256356844e+01 1.9900325301692806e+01 3.1865129114495360e+01 
2183 2184 2 1.0279999999999980e+00 -6.0107970852503492e+00 1.0000000000000000e+00 2.4437773595655717e+01 6.9648097949957783e+00 3.2882215651948613e+01 
881 882 2 1.0279999999999987e+00 1.3638559319779139e+02 1.0000000000000000e+00 2.6084880119894400e+01 1.0660344024436137e+01 3.2701067749251742e+01 
419 420 2 1.0279999999999987e+00 -8.7113233491947938e+01 1.0000000000000000e+00 2.4673458889333261e+01 1.0876352359734657e+01 3.3341153377308743e+01 
1511 1512 2 1.0280000000000018e+00 5.9120051338403940e+01 1.0000000000000000e+00 5.1818577039636837e-01 1.4752825232733986e+01 3.3236919179194665e+01 
3194 3195 2 1.0279999999999991e+00 -3.4875849871732072e+01 1.0000000000000000e+00 1.0923193023418669e+01 1.6239200936080287e+01 3.3529481439762954e+01 
507 508 2 1.0280000000000002e+00 -2.8224668182395668e+01 1.0000000000000000e+00 1.4444140365051801e+01 1.9711506453775112e+01 3.2627879112722439e+01 
3860 3861 2 1.0280000000000000e+00 -1.8532579918419444e+01 1.0000000000000000e+00 9.5445755795867964e+00 2.1518804203389914e+00 3.4535964322044492e+01 
3902 3903 2 1.0280000000000000e+00 -5.9058705029223894e+01 1.0000000000000000e+00 1.0934943791936613e+01 1.7795075409759433e+00 3.5149718161172459e+01 
2521 2522 2 1.0280000000000000e+00 3.5438910904683823e+01 1.0000000000000000e+00 1.7189032710220225e+01 1.7082052980182112e+00 3.4245290250161922e+01 
3446 3447 2 1.0280000000000000e+00 -1.9059411889481154e+01 1.0000000000000000e+00 1.8161912415167134e+01 2.9326173553148243e+00 3.4192381877560223e+01 
1435 1436 2 1.0279999999999991e+00 1.2179329225887660e+01 1.0000000000000000e+00 1.3453923976019937e+01 9.2054274953118664e+00 3.5138715794264321e+01 
2563 2564 2 1.0279999999999998e+00 1.4230091105651972e+01 1.0000000000000000e+00 3.1763811949155723e+01 1.1652376930142895e+01 3.4593837385855124e+01 
3153 3154 2 1.0279999999999998e+00 8.6005698028235898e+01 1.0000000000000000e+00 2.2921898440431129e+01 1.3596068947779305e+01 3.5210147191906692e+01 
3154 3155 2 1.0279999999999998e+00 -8.6975913759841887e+00 1.0000000000000000e+00 2.2617978756820516e+01 1.4878694879940134e+01 3.4366949322895593e+01 
2732 2733 2 1.0279999999999991e+00 -6.4290523308996868e+01 1.0000000000000000e+00 1.1630464393773234e+01 1.7399944670584961e+01 3.4304671928434736e+01 
1436 1437 2 1.0279999999999991e+00 5.1817752634762130e+01 1.0000000000000000e+00 1.3509804447538130e+01 9.5373061881606880e+00 3.6666856170138914e+01 
2479 2480 2 1.0279999999999998e+00 1.6197497976014571e+01 1.0000000000000000e+00 3.1187628866776883e+01 1.1861689488305213e+01 3.6033518048647480e+01 
84 85 2 1.0280000000000007e+00 7.3053967964381350e+00 1.0000000000000000e+00 1.7875182003710201e+01 9.2543822385766745e+00 3.8342421118289302e+01 
42 43 2 1.0280000000000007e+00 -5.2999464796992584e+01 1.0000000000000000e+00 1.7090231547130141e+01 1.0235320919982504e+01 3.7409634333284920e+01 
2230 2231 2 1.0280000000000014e+00 -7.1166828967623530e+01 1.0000000000000000e+00 3.2129447542909176e+01 9.9971121643061469e+00 3.8292468229618358e+01 
1894 1895 2 1.0280000000000000e+00 -7.1130436143738393e+01 1.0000000000000000e+00 3.2424819198116431e+01 1.0297574160102283e+01 3.9962210874768815e+01 
503 504 2 1.0280000000000000e+00 -8.6843498032413834e+01 1.0000000000000000e+00 1.0708247589289847e+01 3.2271580048547953e+01 1.0048169790219472e+00 
965 966 2 1.0280000000000000e+00 -4.9659037398108872e+01 1.0000000000000000e+00 1.2155221606258905e+01 3.2583478468565090e+01 1.5122267464185868e+00 
2649 2650 2 1.0280000000000018e+00 1.5198826205496087e+02 1.0000000000000000e+00 2.0258936365537561e+01 3.4448477195031366e+01 1.1855259469133925e+00 
1807 1808 2 1.0280000000000000e+00 5.9998973186617192e+01 1.0000000000000000e+00 2.8829725204898509e+00 3.6893108418275254e+01 2.7487942460749308e+00 
47 48 2 1.0280000000000000e+00 -3.6786729301431563e+01 1.0000000000000000e+00 6.6406698616849633e+00 3.3516855974622580e+01 4.4510772233339626e+00 
1304 1305 2 1.0280000000000000e+00 -1.3597105078897886e+02 1.0000000000000000e+00 1.7987676849260552e+00 3.7023841882312368e+01 3.8694582180858133e+00 
551 552 2 1.0280000000000000e+00 9.6220990964884209e+01 1.0000000000000000e+00 5.2635006999555012e+00 3.2826481920200095e+01 4.7254271225573810e+00 
2691 2692 2 1.0279999999999998e+00 -2.2685108164235992e+01 1.0000000000000000e+00 2.1558061637645658e+01 2.1049684470793984e+01 6.3590192414195723e+00 
2733 2734 2 1.0279999999999998e+00 -1.2704845861660125e+01 1.0000000000000000e+00 2.1516496846233910e+01 2.1914953507745558e+01 7.6621159239608430e+00 
2902 2903 2 1.0280000000000000e+00 -2.4394024854044766e+01 1.0000000000000000e+00 3.2328380493183083e+01 3.5229760461851008e+01 6.4538777510493635e+00 
3608 3609 2 1.0280000000000014e+00 1.1183798626057428e+02 1.0000000000000000e+00 3.1482585391394515e+01 2.0956516175537189e+01 9.6470496033341036e+00 
1214 1215 2 1.0280000000000014e+00 8.2924039209521908e+01 1.0000000000000000e+00 3.1339927971869592e+01 2.2508402616172742e+01 9.7876783282385826e+00 
4413 4414 2 1.0280000000000002e+00 4.5392689300510355e+01 1.0000000000000000e+00 1.3472287244938286e+01 2.5379118966965279e+01 1.0234906017088962e+01 
422 423 2 1.0280000000000000e+00 -3.6295539870121743e+01 1.0000000000000000e+00 2.1610398447001185e+01 3.6916259937391061e+01 1.0275395971208992e+01 
423 424 2 1.0280000000000000e+00 -5.0558197946649926e+01 1.0000000000000000e+00 2.2779266090081663e+01 3.5944071269946960e+01 1.0645634718634245e+01 
838 839 2 1.0280000000000002e+00 4.7810977207482409e+01 1.0000000000000000e+00 1.3554310025369340e+01 3.9428805271344231e+01 1.0126107098053970e+01 
842 843 2 1.0279999999999996e+00 1.3736608231298962e+02 1.0000000000000000e+00 5.8666091534206046e+00 2.0237204606165641e+01 1.1147634320166139e+01 
380 381 2 1.0279999999999996e+00 -8.7152884928098985e+01 1.0000000000000000e+00 7.2067039704964069e+00 2.1042035785720802e+01 1.1077836355262489e+01 
4417 4418 2 1.0280000000000002e+00 -8.8931559774089060e+00 1.0000000000000000e+00 1.2426993276262827e+01 2.4983719562226192e+01 1.1330122403025984e+01 
1054 1055 2 1.0280000000000007e+00 -2.2104774450907377e+02 1.0000000000000000e+00 4.7391490651526267e+00 3.7842681703395009e+01 1.1251114875774812e+01 
1257 1258 2 1.0280000000000002e+00 -2.2147869868626356e+02 1.0000000000000000e+00 1.2846987036524089e+01 3.9893950190565008e+01 1.1442090948948952e+01 
2985 2986 2 1.0280000000000020e+00 -2.3095615917205291e+02 1.0000000000000000e+00 2.8531595341666392e+01 2.0964126999154278e+01 1.3639025158538594e+01 
2523 2524 2 1.0280000000000020e+00 1.9511497451900817e+02 1.0000000000000000e+00 3.0005137682732556e+01 2.1490320533820281e+01 1.3655530775860971e+01 
88 89 2 1.0279999999999996e+00 -9.6397155060529798e+01 1.0000000000000000e+00 3.9284213098679857e+00 2.6360472006621222e+01 1.3112841994064116e+01 
1429 1430 2 1.0280000000000002e+00 -8.3748369906040324e+01 1.0000000000000000e+00 2.6612551364574387e+01 3.3355991327826167e+01 1.3020940105645060e+01 
549 550 2 1.0280000000000007e+00 4.8295736205428312e+01 1.0000000000000000e+00 4.9995738858189300e+00 3.8496000211105347e+01 1.2648910619975775e+01 
4369 4370 2 1.0279999999999996e+00 -1.8779368482520812e+02 1.0000000000000000e+00 1.0932494274555923e+01 2.5409206384200228e+01 1.5212067270605104e+01 
550 551 2 1.0279999999999996e+00 7.7383098965912239e+01 1.0000000000000000e+00 3.0677156436341777e+00 2.7373905775196665e+01 1.3937837057725872e+01 
2816 2817 2 1.0280000000000000e+00 -1.0297922486260256e+02 1.0000000000000000e+00 2.2850793888751920e+01 2.6756451572859117e+01 1.5179290330615084e+01 
967 968 2 1.0280000000000002e+00 -7.9857661002924534e+00 1.0000000000000000e+00 2.5831673893804705e+01 3.2440480209865051e+01 1.4021214503386100e+01 
3407 3408 2 1.0280000000000000e+00 8.3644292048534624e+01 1.0000000000000000e+00 2.6314596500615579e+01 2.3833296367809428e+01 1.6407736938034979e+01 
3406 3407 2 1.0280000000000000e+00 -5.5118560847645369e+01 1.0000000000000000e+00 2.7654438698254328e+01 2.4591356637599503e+01 1.6127296899818901e+01 
4328 4329 2 1.0279999999999996e+00 -3.2646292297669198e+01 1.0000000000000000e+00 1.2378867260805935e+01 2.4997649076636151e+01 1.5644623474443522e+01 
2859 2860 2 1.0280000000000000e+00 -5.8503196819348332e+01 1.0000000000000000e+00 2.2615471358274888e+01 2.7779415986451408e+01 1.6339741198776220e+01 
1096 1097 2 1.0280000000000002e+00 -5.5501240553530735e+01 1.0000000000000000e+00 1.6510212569855216e+01 2.0686984025359560e+01 1.7569911712185863e+01 
1010 1011 2 1.0279999999999987e+00 4.6689739011385250e+01 1.0000000000000000e+00 2.9064239552141487e+01 2.0910375792330697e+01 1.7555498454541844e+01 
126 127 2 1.0279999999999987e+00 -6.2499045045207879e+01 1.0000000000000000e+00 3.1910241893551884e+01 2.0415865555453010e+01 1.7145506464328754e+01 
1097 1098 2 1.0280000000000002e+00 8.4132107363650078e+01 1.0000000000000000e+00 1.6281392993959834e+01 2.2159537072066929e+01 1.7092723878558296e+01 
1472 1473 2 1.0279999999999987e+00 5.9134803779689463e+01 1.0000000000000000e+00 2.8890230661204505e+01 2.2385396613116860e+01 1.7063041769782181e+01 
4073 4074 2 1.0279999997017841e+00 -2.5200907828055335e+01 1.0000000000000000e+00 3.0589793246766526e+01 3.5953634763090605e+01 1.9397482552118049e+01 
4031 4032 2 1.0280000002193248e+00 -1.3442444030527102e+02 1.0000000000000000e+00 3.1954545619412333e+01 3.5667441405007303e+01 1.8644030274430566e+01 
1684 1685 2 1.0280000000000002e+00 -2.6247342158571637e+01 1.0000000000000000e+00 1.2883965305161638e+00 3.7799180452846279e+01 1.8683957925443892e+01 
1642 1643 2 1.0280000000000002e+00 2.9500033441835932e+01 1.0000000000000000e+00 2.2567277886083335e+00 3.8996796341967539e+01 1.8960598231560333e+01 
1599 1600 2 1.0280000004786649e+00 -2.3064003878270756e+02 1.0000000000000000e+00 3.1861735645713008e+01 3.4919187969231189e+01 2.0427229506409837e+01 
3072 3073 2 1.0279999991336035e+00 -1.3584246651633191e+02 1.0000000000000000e+00 3.2235327509022596e+01 3.2020141054651077e+01 2.2585456572144572e+01 
3071 3072 2 1.0280000008754973e+00 2.6477790715539179e+01 1.0000000000000000e+00 3.1086705330322346e+01 3.2865145910083712e+01 2.1932549814473475e+01 
715 716 2 1.0280000000243794e+00 -1.3995494475785796e+01 1.0000000000000000e+00 3.2954967567039908e+01 3.3692256895813799e+01 2.1599901788266319e+01 
800 801 2 1.0279999997696874e+00 -2.5750001117557581e+01 1.0000000000000000e+00 3.2589473768979580e+01 3.5579764316526294e+01 2.1870218046733346e+01 
2496 2497 2 1.0280000000000014e+00 8.3064483944880294e+01 1.0000000000000000e+00 2.5903120279748684e+01 3.9804960755635676e+01 2.2601268739369445e+01 
3948 3949 2 1.0280000002254486e+00 -2.1909436133290609e+02 1.0000000000000000e+00 3.2592220918730447e+01 2.3231481764948256e+01 2.4306874262050336e+01 
2178 2179 2 1.0280000000000000e+00 4.9404185490840462e+01 1.0000000000000000e+00 1.1818263326713485e+00 2.6586696868339267e+01 2.4450186733850114e+01 
2179 2180 2 1.0280000000000000e+00 7.9884826822670661e+01 1.0000000000000000e+00 2.1792509682231476e+00 2.7785263707938594e+01 2.4319570005788538e+01 
1553 1554 2 1.0280000005953798e+00 -3.2690186709942054e+01 1.0000000000000000e+00 3.1926965621807256e+01 3.4888055670943068e+01 2.3304682253732938e+01 
1972 1973 2 1.0279999996837403e+00 1.5454949732795995e+02 1.0000000000000000e+00 3.3173670110275083e+01 3.4957868584501291e+01 2.4433142934402287e+01 
3990 3991 2 1.0279999975350367e+00 -1.6775896631032342e+01 1.0000000000000000e+00 3.2959596282198824e+01 2.5180247236626013e+01 2.4969968461626063e+01 
3867 3868 2 1.0280000001994529e+00 1.1285551420941191e+02 1.0000000000000000e+00 3.2454313623207256e+01 3.1060225634073845e+01 2.5635702340747244e+01 
3825 3826 2 1.0279999990576041e+00 7.9311210187240334e+01 1.0000000000000000e+00 3.2290889697345619e+01 3.2657998020880868e+01 2.5171627719696588e+01 
3908 3909 2 1.0279999999999985e+00 -8.3107252105802615e+01 1.0000000000000000e+00 2.1983059662066083e+01 3.8908189700128837e+01 2.4810359220100445e+01 
169 170 2 1.0279999999999991e+00 -1.1741507474637539e+01 1.0000000000000000e+00 1.9141000768979037e+01 2.1032110579990082e+01 2.6479632954686693e+01 
632 633 2 1.0279999999999991e+00 -6.9389211693313140e+00 1.0000000000000000e+00 1.9197368987958530e+01 2.0014603402534892e+01 2.7667059108162576e+01 
4160 4161 2 1.0279999999999991e+00 -3.6306969481321588e+01 1.0000000000000000e+00 1.9265168380158070e+01 2.4708886613752689e+01 2.7501933154190255e+01 
4161 4162 2 1.0279999999999991e+00 -5.0023482232347263e+01 1.0000000000000000e+00 1.9795477460409728e+01 2.5832539448819176e+01 2.6550799258310203e+01 
2984 2985 2 1.0279999994917881e+00 -8.9846832978894383e+01 1.0000000000000000e+00 3.0920420170839421e+01 2.9640570017947919e+01 2.7142634774910992e+01 
2522 2523 2 1.0280000002676202e+00 -7.4182408850506391e+01 1.0000000000000000e+00 3.2743579717510052e+01 2.9570772858849281e+01 2.6518561388277064e+01 
1262 1263 2 1.0279999991915267e+00 4.6572171321132274e+01 1.0000000000000000e+00 2.7170507464005667e+01 3.1658172816683095e+01 2.7558845333611213e+01 
3909 3910 2 1.0279999993880509e+00 2.9436775375509686e+01 1.0000000000000000e+00 3.0776684421230410e+01 3.1141563170169771e+01 2.7636405368810404e+01 
3910 3911 2 1.0280000043146738e+00 -7.0649108773139929e+01 1.0000000000000000e+00 3.3220642501327930e+01 3.2336605306471938e+01 2.6977585055693599e+01 
675 676 2 1.0279999971306868e+00 3.1115742753007112e+01 1.0000000000000000e+00 3.2548063160023226e+01 3.3951674417877953e+01 2.6316326596912919e+01 
4284 4285 2 1.0280000000000000e+00 -6.0883236802480454e+01 1.0000000000000000e+00 1.1891217685953743e+01 3.6641834118017989e+01 2.7104658149363491e+01 
4243 4244 2 1.0280000000000000e+00 -6.2378593917659231e+01 1.0000000000000000e+00 1.3400927617872444e+01 3.6872960529519197e+01 2.7445004451847996e+01 
1138 1139 2 1.0279999997987501e+00 -5.2051484884825825e+01 1.0000000000000000e+00 3.2800135520709411e+01 3.6375978971391838e+01 2.7491102659888014e+01 
3695 3696 2 1.0279999999999994e+00 -4.9898431558658913e+01 1.0000000000000000e+00 1.4640664277772011e+00 3.9049526807789739e+01 2.6777257582414975e+01 
1598 1599 2 1.0280000015439916e+00 -9.0300835701732098e+01 1.0000000000000000e+00 2.8919448604335880e+01 3.1744860648548652e+01 2.8208571652376268e+01 
2900 2901 2 1.0280000000000002e+00 -3.2455540339509199e+01 1.0000000000000000e+00 1.3405959814479608e+01 3.3737269230501944e+01 2.8271737616991782e+01 
1724 1725 2 1.0280000005860492e+00 5.9050816340988348e+01 1.0000000000000000e+00 2.6702384004720344e+01 3.2921840371028914e+01 2.8427728314406409e+01 
2060 2061 2 1.0279999984623847e+00 -7.3950016717913087e+01 1.0000000000000000e+00 3.0036793855734405e+01 3.2898758229356389e+01 2.8094649534745233e+01 
2939 2940 2 1.0280000000000002e+00 -3.2275132279308082e+01 1.0000000000000000e+00 1.1922323400137723e+01 3.4014824121314930e+01 2.8684369868357098e+01 
3283 3284 2 1.0279999994755018e+00 -2.5934565530962963e+01 1.0000000000000000e+00 2.8127356542676839e+01 3.4126485095958301e+01 2.8509816592474348e+01 
3324 3325 2 1.0280000005158041e+00 1.8785255539895921e+01 1.0000000000000000e+00 2.9356037404299766e+01 3.5091898683605514e+01 2.8869361932897053e+01 
759 760 2 1.0279999998688147e+00 7.9773432011753258e+01 1.0000000000000000e+00 3.1644471339134036e+01 3.4821571262797541e+01 2.9148185600618632e+01 
717 718 2 1.0280000001020890e+00 1.1332060316634275e+02 1.0000000000000000e+00 3.1621316417260054e+01 3.6444222209947341e+01 2.8781788818658953e+01 
1050 1051 2 1.0279999999999991e+00 -6.2734396800605978e+01 1.0000000000000000e+00 2.2271282690884135e+01 3.3624148580163585e+01 2.9414148477964751e+01 
3993 3994 2 1.0279999998999316e+00 7.9774474532909025e+01 1.0000000000000000e+00 3.0149378553874801e+01 3.3692235721692455e+01 2.9818049188720366e+01 
3951 3952 2 1.0280000001717409e+00 1.1365193404021969e+02 1.0000000000000000e+00 3.1734628109388289e+01 3.3308824623935806e+01 3.0063565753421926e+01 
1512 1513 2 1.0279999999999991e+00 -7.4215407667715681e+01 1.0000000000000000e+00 2.1048921430095099e+01 3.4357507770125132e+01 3.0059513761245050e+01 
3399 3400 2 1.0280000000000018e+00 -2.2198124624460405e+02 1.0000000000000000e+00 6.5952477513868342e+00 2.0277487201315207e+01 3.0804166294437458e+01 
3820 3821 2 1.0280000000000018e+00 4.7451002572497245e+01 1.0000000000000000e+00 7.3409523394752911e+00 2.0089830382747866e+01 3.2166953397396412e+01 
4497 4498 2 1.0280030486964062e+00 -4.7385335308396051e+01 1.0000000000000000e+00 2.4523553751969263e+01 2.3401779187675356e+01 3.2591783611113271e+01 
4539 4540 2 1.0279969575287420e+00 -4.1795902187173766e+01 1.0000000000000000e+00 2.5311418088370957e+01 2.4526948610143531e+01 3.3341296799025244e+01 
3486 3487 2 1.0279969592950662e+00 7.7408339760627442e+01 1.0000000000000000e+00 2.5535280738977399e+01 2.1402420048682661e+01 3.5273950191905449e+01 
3946 3947 2 1.0280030504627304e+00 1.7070731984288159e+01 1.0000000000000000e+00 2.4428439320241537e+01 2.2071079567650511e+01 3.4392869624497379e+01 
2610 2611 2 1.0280000000000005e+00 7.8077401187083154e+01 1.0000000000000000e+00 3.2831580883622365e+01 2.8254716565839058e+01 3.5293496580523488e+01 