LAMMPS data file via write_data, version 30 Jul 2016, timestep = 50400000

2772 atoms
8 atom types

0.0000000000000000e+00 1.0000000000000000e+02 xlo xhi
0.0000000000000000e+00 4.0000000000000000e+01 ylo yhi
0.0000000000000000e+00 4.0000000000000000e+01 zlo zhi

Masses

1 3.896
2 5.36
3 20.064
4 8.378
5 8.378
6 8.378
7 8.378
8 8.378

Atoms # meso-molecular

2523 2524 2 1.0280000000000000e+00 -1.2005357247107258e+04 1.0000000000000000e+00 2.7858143884651965e-01 1.9448190885722230e+01 1.3151102948387459e+01 
213 214 2 1.0280000000000002e+00 -1.2007623579232493e+04 1.0000000000000000e+00 2.7874600536620875e-01 1.9450082379395795e+01 1.3151073757066499e+01 
928 929 2 1.0280000000000000e+00 -6.6057035293111148e+03 1.0000000000000000e+00 4.4384298932438615e-01 1.9151323814149169e+01 1.3147766421037208e+01 
1348 1349 2 1.0280000000000000e+00 -6.6054465998068445e+03 1.0000000000000000e+00 4.7776536902394862e-01 1.9125927991947648e+01 1.3148533023746060e+01 
591 592 2 1.0279999999999982e+00 -7.8359155849414692e+03 1.0000000000000000e+00 2.3279597238494310e+00 1.8851759650966933e+01 1.3177702183142626e+01 
759 760 2 1.0280000000000016e+00 -7.8359284738250335e+03 1.0000000000000000e+00 2.3346156636419759e+00 1.8851664999812424e+01 1.3170646618044515e+01 
1180 1181 2 1.0280000000000016e+00 -8.4708904811676239e+03 1.0000000000000000e+00 4.2867337325442989e+00 1.8316340724990443e+01 1.3169304249173992e+01 
1096 1097 2 1.0280000000000020e+00 -8.4708910220603630e+03 1.0000000000000000e+00 4.2867562462556110e+00 1.8316310988219779e+01 1.3166131735658336e+01 
2439 2440 2 1.0279999999999989e+00 -2.7076950298345605e+02 1.0000000000000000e+00 4.7737582018382474e+00 1.8413204048064962e+01 1.3074950905174489e+01 
2607 2608 2 1.0279999999999987e+00 -2.7079529796396241e+02 1.0000000000000000e+00 4.7747655824658102e+00 1.8414374460056226e+01 1.3251390388513745e+01 
1597 1598 2 1.0279999999999998e+00 -1.6953349245981237e+04 1.0000000000000000e+00 5.3372459901635656e+00 1.8918399272731076e+01 1.3132983081097285e+01 
2243 2244 2 1.0280000000000826e+00 -1.9563838888845512e+03 1.0000000000000000e+00 2.0867959481583497e+01 7.5375553024619471e-02 3.3845062394170064e+01 
1278 1279 2 1.0279999999959542e+00 -2.6414846696282802e+03 1.0000000000000000e+00 2.0182725375898922e+01 4.4284277098645047e-01 3.5418667325875774e+01 
1990 1991 2 1.0279999999952272e+00 4.8013341374063708e+02 1.0000000000000000e+00 1.9829593370583403e+01 1.7118381434922617e-01 3.4560716488025349e+01 
844 845 2 1.0279999999955280e+00 -2.3537234194015491e+03 1.0000000000000000e+00 1.9727921014152717e+01 3.0393718183614137e-03 3.4580822955115082e+01 
886 887 2 1.0280000000001923e+00 1.8142603865818392e+03 1.0000000000000000e+00 2.3075525984938409e+01 1.7846774511984206e-01 3.5926642228897002e+01 
921 922 2 1.0280000000006884e+00 1.8295300780764651e+03 1.0000000000000000e+00 2.2916600728226289e+01 1.7786399350533072e-01 3.5913420350317438e+01 
1266 1267 2 1.0279999999945251e+00 1.2610085719900708e+03 1.0000000000000000e+00 2.7812392741923357e+01 4.1178166420978557e-01 3.6936291058305187e+01 
1871 1872 2 1.0279999999943343e+00 -6.9765187340602079e+03 1.0000000000000000e+00 2.8126058658636968e+01 4.0540619810671658e-01 3.7014083956738403e+01 
1770 1771 2 1.0280000000015386e+00 9.1707734912973660e+02 1.0000000000000000e+00 2.8640655833770378e+01 3.4558546916850125e-01 3.7209478046689036e+01 
269 270 2 1.0279999999998108e+00 7.0664022544101108e+03 1.0000000000000000e+00 2.8019105325623158e+01 4.6436140491756195e-01 3.7879619878264279e+01 
1547 1548 2 1.0280000000036829e+00 9.8765775433750678e+03 1.0000000000000000e+00 3.3044953883946413e+01 1.1978062681836656e+00 3.8078076213800841e+01 
1777 1778 2 1.0279999999748255e+00 1.6957258219935420e+03 1.0000000000000000e+00 3.1293149416332803e+01 2.1222657894893596e-01 3.8376144263470572e+01 
944 945 2 1.0279999999911311e+00 -1.5930532262852439e+03 1.0000000000000000e+00 3.0906472289143380e+01 9.0491117980135316e-02 3.8183390436911161e+01 
1362 1363 2 1.0280000000638831e+00 -1.8980909237965861e+03 1.0000000000000000e+00 3.1733933663800364e+01 4.7450854078074180e-02 3.8960011014777272e+01 
1374 1375 2 1.0280000000094149e+00 -3.8926015761961830e+03 1.0000000000000000e+00 3.0929130094234118e+01 4.4734682577280624e-02 3.9232330499419461e+01 
1390 1391 2 1.0280000000000002e+00 -6.6024286443392093e+03 1.0000000000000000e+00 1.8178296746097999e+00 2.0463475665711893e+01 1.3132454691935948e+01 
1810 1811 2 1.0279999999999989e+00 -6.6012545752582164e+03 1.0000000000000000e+00 1.8980632370167707e+00 2.0469699648630503e+01 1.3142537766979880e+01 
1977 1978 2 1.0279999999999996e+00 -7.8328493713154348e+03 1.0000000000000000e+00 3.1404249524945849e+00 2.0724265507347770e+01 1.3186451534915394e+01 
2145 2146 2 1.0279999999999996e+00 -7.8328353792210219e+03 1.0000000000000000e+00 3.1450528789013226e+00 2.0726910696769234e+01 1.3180208926834000e+01 
1642 1643 2 1.0280000000000007e+00 -8.4716485083172774e+03 1.0000000000000000e+00 4.8835042403340481e+00 2.1291642719057069e+01 1.3175345942557760e+01 
1558 1559 2 1.0280000000000007e+00 -8.4716489440189416e+03 1.0000000000000000e+00 4.8835551725444439e+00 2.1291678647361827e+01 1.3171518952396855e+01 
297 298 2 1.0279999999999998e+00 -2.7188987994265074e+02 1.0000000000000000e+00 5.3315698958439546e+00 2.1052110249493595e+01 1.3273890197023547e+01 
129 130 2 1.0279999999999998e+00 -2.7185579862599548e+02 1.0000000000000000e+00 5.3319177898653241e+00 2.1053161141813735e+01 1.3061382068372124e+01 
1135 1136 2 1.0279999999999998e+00 -1.6953208239913809e+04 1.0000000000000000e+00 5.6664543075689471e+00 2.0321345801264066e+01 1.3140665742485837e+01 
604 605 2 1.0280000000044816e+00 4.7926209314600885e+02 1.0000000000000000e+00 3.1281133411028046e+00 3.2697649618184080e+01 1.9996000411094872e+01 
2665 2666 2 1.0279999999982110e+00 -1.8806426064154739e+03 1.0000000000000000e+00 1.3857099470551593e+00 3.1083633300629742e+01 2.1012765774811456e+01 
942 943 2 1.0280000000019478e+00 -1.9066553309796759e+03 1.0000000000000000e+00 2.4586182229265936e+00 3.0592023743553092e+01 2.2046758388454769e+01 
1361 1362 2 1.0279999999985210e+00 -6.2403298803723101e+02 1.0000000000000000e+00 3.2375952047100038e+00 3.0535232252758881e+01 2.1803702970260055e+01 
2574 2575 2 1.0279999999984553e+00 8.2280790814698521e+03 1.0000000000000000e+00 3.8550375719854379e+00 3.0681361528732097e+01 2.2212523774330801e+01 
1110 1111 2 1.0279999999893865e+00 -9.4285779901636015e+03 1.0000000000000000e+00 3.4311373112827592e-01 3.1728512078555891e+01 2.0059639736570819e+01 
363 364 2 1.0280000000001128e+00 6.8675340876501906e+01 1.0000000000000000e+00 1.4784715947349818e+00 3.2390939170831530e+01 2.0225540864581856e+01 
1691 1692 2 1.0280000000056979e+00 3.9035475034842611e+03 1.0000000000000000e+00 1.7380222217983154e+00 3.2413901500413765e+01 2.0244545903765555e+01 
2369 2370 2 1.0280000000099454e+00 -8.3156069237059273e+02 1.0000000000000000e+00 1.2263206963744999e+00 3.2317430589209870e+01 2.1915882627305233e+01 
777 778 2 1.0280000000021998e+00 2.2012052600719026e+03 1.0000000000000000e+00 3.6736652214228727e+00 3.2689091863207601e+01 2.0009124915754995e+01 
481 482 2 1.0279999999997844e+00 -6.6343503465355843e+03 1.0000000000000000e+00 4.2087457146154232e+00 3.2663439557534645e+01 2.0400120398499851e+01 
1867 1868 2 1.0279999999997511e+00 -6.5999767402807583e+03 1.0000000000000000e+00 4.2127000890319222e+00 3.2664066496428610e+01 2.0407464962557086e+01 
1874 1875 2 1.0279999999997922e+00 -6.9701023013385457e+03 1.0000000000000000e+00 4.2169502288986260e+00 3.2695355236920186e+01 2.0446729831793704e+01 
1225 1226 2 1.0279999999977902e+00 -5.6425923530222562e+01 1.0000000000000000e+00 4.4233354818197217e+00 3.1557830160666622e+01 2.1766520602948102e+01 
267 268 2 1.0279999999996003e+00 5.2620616079598713e+03 1.0000000000000000e+00 3.7276815438808044e+00 3.2375748476656646e+01 2.2770624830041605e+01 
1403 1404 2 1.0280000000011311e+00 -6.3039963587998591e+02 1.0000000000000000e+00 3.0426733968836146e+00 3.2487421291564644e+01 2.2797858132862228e+01 
1046 1047 2 1.0280000000011527e+00 -6.5645696943946970e+00 1.0000000000000000e+00 2.6940691824723260e+00 3.1067028459961293e+01 2.3344238779428082e+01 
436 437 2 1.0280000000007432e+00 1.0758993860202958e+04 1.0000000000000000e+00 3.2059654863057925e+00 3.1174652960315267e+01 2.3492312519141031e+01 
1816 1817 2 1.0280000000016549e+00 -9.2184983793443862e+03 1.0000000000000000e+00 3.0130508272440131e+00 3.1653409410979393e+01 2.3499498194157677e+01 
1447 1448 2 1.0280000000017875e+00 3.7156764527848600e+03 1.0000000000000000e+00 2.0983664501897966e+01 3.9657549188496972e+01 3.3855332877108928e+01 
2441 2442 2 1.0280000000035321e+00 2.1281687992474572e+03 1.0000000000000000e+00 2.1251451323631169e+01 3.9678190460114799e+01 3.3919589072145506e+01 
981 982 2 1.0280000000072029e+00 6.7687926174700851e+03 1.0000000000000000e+00 2.1691853540677048e+01 3.9675855856243231e+01 3.4209466520990304e+01 
395 396 2 1.0280000000011102e+00 -7.9517749138372483e+02 1.0000000000000000e+00 1.6627384541711276e+01 3.7988541957854032e+01 3.5906153846711781e+01 
1236 1237 2 1.0279999999998359e+00 5.6616068331517590e+02 1.0000000000000000e+00 1.6485071245737863e+01 3.8518121471313592e+01 3.6114829322775620e+01 
103 104 2 1.0279999999984946e+00 -1.8642071996785558e+03 1.0000000000000000e+00 1.6716696254416608e+01 3.8731378671606187e+01 3.6627560355267640e+01 
2663 2664 2 1.0280000000011660e+00 -1.3898044897111790e+03 1.0000000000000000e+00 1.6919405128332009e+01 3.7702221409085915e+01 3.5902232745185536e+01 
1406 1407 2 1.0279999999992562e+00 -1.6691568854475090e+03 1.0000000000000000e+00 1.7021215651989451e+01 3.9195989075100769e+01 3.5963901171494328e+01 
1765 1766 2 1.0280000000007474e+00 -4.8784240694885157e+03 1.0000000000000000e+00 1.7556811492107244e+01 3.7532255533233794e+01 3.5940612484335361e+01 
941 942 2 1.0280000000013381e+00 -6.3951775376871865e+02 1.0000000000000000e+00 1.8837578084177071e+01 3.7951696720590171e+01 3.6377473866397452e+01 
59 60 2 1.0280000000021374e+00 -8.6796452897826771e+02 1.0000000000000000e+00 1.9015615235595572e+01 3.8089347309742976e+01 3.6424031881724282e+01 
2705 2706 2 1.0279999999991478e+00 -8.2337394578533053e+02 1.0000000000000000e+00 1.7990279013088081e+01 3.9595482164267771e+01 3.6488152739517446e+01 
101 102 2 1.0280000000034188e+00 -1.4105943715491069e+03 1.0000000000000000e+00 1.9384800286504376e+01 3.9298150139181544e+01 3.6795634216629473e+01 
2294 2295 2 1.0280000000070484e+00 -7.0104725152901374e+03 1.0000000000000000e+00 1.9473603254990930e+01 3.8811920088808456e+01 3.6761829122697591e+01 
1700 1701 2 1.0280000000011682e+00 3.7118121164912873e+03 1.0000000000000000e+00 1.9986610858788850e+01 3.9831206005063152e+01 3.6345604315380207e+01 
988 989 2 1.0280000000055178e+00 6.1237053050295244e+03 1.0000000000000000e+00 2.1935355317123044e+01 3.9178637061145601e+01 3.7013761181875154e+01 
1759 1760 2 1.0280000000086351e+00 1.2330338704985743e+03 1.0000000000000000e+00 2.2591773394758615e+01 3.9090006298154947e+01 3.5258537811968452e+01 
1740 1741 2 1.0280000000016212e+00 -2.6127813725923097e+03 1.0000000000000000e+00 2.4317194167132374e+01 3.8986692673161144e+01 3.5599998355368982e+01 
985 986 2 1.0280000000004170e+00 3.7271220321372675e+03 1.0000000000000000e+00 2.4634099448326445e+01 3.9842261047497097e+01 3.5820664755508545e+01 
1748 1749 2 1.0279999999962610e+00 -3.6019353783711279e+02 1.0000000000000000e+00 2.5098027947581173e+01 3.8830765802624022e+01 3.6937535330951881e+01 
1743 1744 2 1.0279999999993685e+00 2.5659696055176041e+03 1.0000000000000000e+00 2.5486773712165817e+01 3.8908998122375294e+01 3.6497674164886156e+01 
2165 2166 2 1.0280000000261349e+00 2.9872132941517179e+03 1.0000000000000000e+00 2.6000204205677854e+01 3.9609690035875268e+01 3.6383323362227074e+01 
1853 1854 2 1.0280000000262777e+00 4.9715980356454711e+03 1.0000000000000000e+00 2.6001840115689443e+01 3.9616942697679598e+01 3.6387048654952871e+01 
2493 2494 2 1.0280000000005522e+00 5.2163828967138379e+03 1.0000000000000000e+00 2.2636264280367094e+01 3.8543188487574504e+01 3.7202214810900152e+01 
2411 2412 2 1.0280000000001732e+00 -1.4372698737482342e+03 1.0000000000000000e+00 2.2722283481546445e+01 3.8521168782512810e+01 3.7232316146803193e+01 
2757 2758 2 1.0279999999976657e+00 1.0711257427842831e+04 1.0000000000000000e+00 2.2698145536767825e+01 3.9201866972315202e+01 3.7499147973084995e+01 
270 271 2 1.0279999999972036e+00 4.7950461850940828e+03 1.0000000000000000e+00 2.3776821336302312e+01 3.8781577512631713e+01 3.7498644812171406e+01 
1476 1477 2 1.0280000000105740e+00 1.2013805968447145e+03 1.0000000000000000e+00 2.7258635349434737e+01 3.9456332239761409e+01 3.7597371165044208e+01 
2509 2510 2 1.0280000000245049e+00 8.1491273716307405e+03 1.0000000000000000e+00 2.9528898303638559e+01 3.9315972271541085e+01 3.8368967074278856e+01 
2025 2026 2 1.0280000000103640e+00 -2.7252250303470291e+03 1.0000000000000000e+00 3.0028655593316781e+01 3.9749417362842301e+01 3.9124646005810810e+01 
772 773 2 1.0280000000094895e+00 5.0759383567898169e+02 1.0000000000000000e+00 3.0078945711605069e+01 3.9736863448633052e+01 3.9135652755251868e+01 
1875 1876 2 1.0280000000170171e+00 -7.0586902421687428e+03 1.0000000000000000e+00 2.8005348371922103e+01 3.9405690914681081e+01 3.7844606213736867e+01 
1057 1058 2 1.0279999999945086e+00 -5.3813028601439122e+01 1.0000000000000000e+00 3.4479435539245614e+01 1.0434286703600686e+00 5.9471798236462858e-01 
590 591 2 1.0280000000092859e+00 7.8437469961955930e+00 1.0000000000000000e+00 3.4839064907712000e+01 2.3396311601053341e-01 1.6843429753570249e+00 
2273 2274 2 1.0280000000167993e+00 5.0108837508785700e+03 1.0000000000000000e+00 3.3627541677134879e+01 1.7093442011448540e-01 3.0384442323898303e-01 
1572 1573 2 1.0279999999931102e+00 -9.4607223810960131e+03 1.0000000000000000e+00 3.4783547874580705e+01 1.3641035477980961e+00 1.0059623620691935e-01 
1825 1826 2 1.0280000000206959e+00 2.2374941669038144e+03 1.0000000000000000e+00 3.3484465926449808e+01 1.8561351596200595e-01 1.3621866399496621e-01 
4 5 2 1.0280000000016412e+00 4.3359400412720252e+03 1.0000000000000000e+00 3.6776404135812918e+01 9.8990606619154331e-01 2.5657451133620977e+00 
2373 2374 2 1.0280000000134424e+00 8.3626484222539318e+02 1.0000000000000000e+00 3.8390173736588849e+01 2.4756179782958845e+00 1.8395124587770968e+00 
2580 2581 2 1.0280000000097780e+00 4.7625745639368388e+03 1.0000000000000000e+00 3.8759576939076403e+01 2.6964211540428740e+00 1.2936062445484267e+00 
909 910 2 1.0280000000166485e+00 -7.0946294785949704e+03 1.0000000000000000e+00 3.8482610997229990e+01 2.4446881477780060e+00 1.2404091818688421e+00 
2753 2754 2 1.0280000000173799e+00 1.3297353421584394e+04 1.0000000000000000e+00 3.7218582477693737e+01 1.1536149040512589e+00 9.8891648215922634e-01 
1392 1393 2 1.0279999999972922e+00 3.5211791790625284e+03 1.0000000000000000e+00 3.7113300351085812e+01 1.2328991709793896e-01 1.2231199273391478e-02 
2288 2289 2 1.0279999999982956e+00 -6.8564400097492398e+03 1.0000000000000000e+00 3.9471052894317779e+01 2.8061719294273910e+00 2.1771885544668197e+00 
2759 2760 2 1.0279999999629896e+00 1.0030135799701038e+04 1.0000000000000000e+00 3.9686201293473147e+01 8.0176468501162901e-01 2.1616741956298378e+00 
449 450 2 1.0280000000008862e+00 1.0035665308295094e+04 1.0000000000000000e+00 4.0255516553662041e+01 8.8062860032387658e-01 2.1422576318057978e+00 
1072 1073 2 1.0279999999946221e+00 2.6546196408979872e+03 1.0000000000000000e+00 4.1184108747752738e+01 2.0935444392106928e+00 2.4623195282777638e-01 
1363 1364 2 1.0280000000107630e+00 2.2327275891981244e+03 1.0000000000000000e+00 4.1765829334028183e+01 2.7271054474863106e+00 1.6177914192014928e+00 
2370 2371 2 1.0280000000035034e+00 -4.2327353985897230e+02 1.0000000000000000e+00 4.4598794749410231e+01 2.6953843650666234e+00 2.2294334421629496e+00 
60 61 2 1.0280000000117966e+00 -4.3703986700578355e+02 1.0000000000000000e+00 4.4622088328932868e+01 3.8725116829950218e-01 9.8329619196895957e-01 
2291 2292 2 1.0279999999982985e+00 -6.8429111094317577e+03 1.0000000000000000e+00 4.4788498534733186e+01 2.8187516862592754e+00 2.1506143489338374e+00 
1026 1027 2 1.0280000000126557e+00 -2.6367592687494625e+03 1.0000000000000000e+00 4.6641376867998346e+01 2.3174869324595364e+00 2.3256401548675334e+00 
979 980 2 1.0280000000087723e+00 1.6937556624824751e+03 1.0000000000000000e+00 4.6460376298286185e+01 2.4300759192160801e+00 2.3275865737291741e+00 
2465 2466 2 1.0279999999558525e+00 -6.5552809926182654e+03 1.0000000000000000e+00 4.6503117363222046e+01 7.6503718336211268e-01 8.6980469426416995e-01 
902 903 2 1.0280000000153782e+00 -6.9012476996648038e+03 1.0000000000000000e+00 4.5998130606913413e+01 4.5758159470021781e-01 2.7368195329079441e+00 
2480 2481 2 1.0279999999970240e+00 -1.3537328183039526e+03 1.0000000000000000e+00 4.5373100576163488e+01 1.4581422296450011e-01 2.5941991224609047e+00 
204 205 2 1.0279999999710385e+00 8.6126588853180219e+03 1.0000000000000000e+00 4.7917831048529074e+01 2.0380393147665736e+00 1.1895028488935215e+00 
1839 1840 2 1.0280000000092635e+00 -9.1925678123887956e+03 1.0000000000000000e+00 4.8375605779112625e+01 1.8697908643383916e+00 1.8071236196550404e+00 
2333 2334 2 1.0280000000132692e+00 1.3338836821188677e+04 1.0000000000000000e+00 4.9359761688134292e+01 1.6115674946783636e+00 1.7040286764340888e+00 
1701 1702 2 1.0279999999663993e+00 2.6599260771003724e+03 1.0000000000000000e+00 4.8741330704358433e+01 1.6724303754015237e+00 3.0260873542503519e-01 
185 186 2 1.0280000000666163e+00 7.0380177762233179e+03 1.0000000000000000e+00 5.0331294565026170e+01 1.1273186718660895e+00 1.7420160021923843e+00 
858 859 2 1.0280000000260547e+00 -1.2708778589370760e+02 1.0000000000000000e+00 5.2274261475383845e+01 1.8965766225704852e+00 2.5852931305031719e+00 
1666 1667 2 1.0280000000521126e+00 -1.7490675710313994e+03 1.0000000000000000e+00 5.1872370668557878e+01 1.7517622899867189e+00 2.0302730965213578e+00 
905 906 2 1.0279999999450122e+00 -6.8713600361847157e+03 1.0000000000000000e+00 5.2286100488126763e+01 7.7350029316104896e-01 2.7136226090726550e+00 
805 806 2 1.0280000000021394e+00 -8.8813327347264603e+03 1.0000000000000000e+00 5.2591594019405775e+01 3.6016131570824139e-01 9.8853368928903740e-01 
2395 2396 2 1.0279999999973253e+00 -4.8702624026266185e+03 1.0000000000000000e+00 5.2808506918298505e+01 3.5219618260070684e-01 9.1183165172394920e-01 
2481 2482 2 1.0279999999966494e+00 -4.2624038117500177e+03 1.0000000000000000e+00 5.2909013354528462e+01 3.3152108057093987e-01 8.7680283532166059e-01 
1519 1520 2 1.0279999999928295e+00 -6.2257628533996467e+01 1.0000000000000000e+00 5.3476011085268325e+01 2.6068274084527356e+00 1.2485739821665256e+00 
1071 1072 2 1.0280000000595113e+00 2.6612081731499402e+03 1.0000000000000000e+00 5.4849945140111807e+01 7.5400558132396156e-01 5.0826879161605332e-01 
443 444 2 1.0279999999595357e+00 1.3320631216303744e+04 1.0000000000000000e+00 5.5637969480905454e+01 2.0630108516521952e+00 6.7796686067240575e-01 
376 377 2 1.0280000000073610e+00 -3.7753237605451059e+03 1.0000000000000000e+00 5.5663762534990198e+01 6.2632958390412452e-01 2.9208697441028419e-01 
2495 2496 2 1.0280000000009237e+00 7.0512222000971578e+03 1.0000000000000000e+00 5.7345719873061448e+01 1.6311339383736922e+00 1.9575933694414793e+00 
191 192 2 1.0279999999856593e+00 8.7150561748935088e+03 1.0000000000000000e+00 5.8264123061813386e+01 1.2205655488515206e+00 2.2983963138702261e+00 
492 493 2 1.0279999999931912e+00 -3.3408332394116160e+03 1.0000000000000000e+00 5.7469458999649660e+01 2.4518194009499705e+00 1.7747057503177246e+00 
107 108 2 1.0280000000292056e+00 -2.5526469555757449e+03 1.0000000000000000e+00 5.7525880127617370e+01 9.7085183045348766e-01 1.4108389570182909e+00 
1739 1740 2 1.0280000000031528e+00 -3.5503831474344054e+02 1.0000000000000000e+00 5.8501596105116839e+01 8.8701412443876171e-01 3.4057605744526032e-01 
1240 1241 2 1.0279999999689435e+00 2.6598904767702534e+03 1.0000000000000000e+00 5.8596436550047308e+01 1.1164644633443439e+00 2.2556133361579350e-01 
2620 2621 2 1.0279999999754827e+00 -2.3817138647869451e+03 1.0000000000000000e+00 5.9533808736723763e+01 3.3210317475190970e-01 2.6495195466737731e+00 
625 626 2 1.0279999999953124e+00 -3.5930906555568936e+03 1.0000000000000000e+00 6.2613734161536833e+01 2.4709987803450861e+00 2.8249400035054215e+00 
380 381 2 1.0280000000025655e+00 -2.6253342665659397e+02 1.0000000000000000e+00 6.3534223457717360e+01 2.0502586357739148e+00 1.7509932555558156e+00 
5 6 2 1.0279999999934977e+00 3.9532094517160940e+03 1.0000000000000000e+00 6.3087444462261480e+01 1.5210223996595509e+00 7.1919403192819809e-01 
1491 1492 2 1.0280000000179312e+00 2.6080168771691292e+03 1.0000000000000000e+00 6.2058790111098205e+01 2.1136158649153539e-01 1.9314429377384545e-02 
188 189 2 1.0279999999648304e+00 8.7335612006728225e+03 1.0000000000000000e+00 6.5833551389388788e+01 5.4427172841188753e-01 1.2644060063765892e+00 
209 210 2 1.0279999999834277e+00 -1.4039955156117294e+03 1.0000000000000000e+00 6.5947028213926941e+01 5.9772480640855785e-01 1.0806098628875469e+00 
1325 1326 2 1.0279999999844938e+00 7.7077121606462370e+03 1.0000000000000000e+00 6.5220683591640309e+01 5.1504092896776310e-01 2.6914001419521134e+00 
170 171 2 1.0279999999991434e+00 -1.3749795393506865e+03 1.0000000000000000e+00 3.9368566350274207e+01 2.8813354131135007e+00 2.0928729705930205e+00 
199 200 2 1.0280000000029839e+00 8.1587341439605461e+03 1.0000000000000000e+00 4.0349854060513344e+01 3.0039420692382035e+00 1.3711811283114839e+00 
128 129 2 1.0280000000128162e+00 -4.2314120356911030e+02 1.0000000000000000e+00 4.2268759750672977e+01 2.9431419780984274e+00 1.4051038696091915e+00 
930 931 2 1.0280000000141967e+00 3.5211988904066939e+03 1.0000000000000000e+00 4.2427229434203966e+01 3.0343684939405415e+00 1.3377899996759199e+00 
2496 2497 2 1.0280000000032636e+00 4.7955848763741742e+03 1.0000000000000000e+00 4.3712527349032250e+01 3.8841797491256567e+00 3.2117688563840452e-01 
1823 1824 2 1.0280000000037370e+00 -6.3039690574435076e+02 1.0000000000000000e+00 4.3536017537224851e+01 3.8306701190656613e+00 3.1818541573314774e-01 
1826 1827 2 1.0279999999918339e+00 -1.6619754269633281e+03 1.0000000000000000e+00 4.5211896374720332e+01 2.8692896420040959e+00 2.2044623035328716e+00 
183 184 2 1.0280000000006071e+00 5.2626860999608143e+03 1.0000000000000000e+00 4.5308570732397889e+01 4.0108758634406421e+00 4.3927897786411918e-01 
353 354 2 1.0280000000115226e+00 -1.4075842501430132e+03 1.0000000000000000e+00 4.5791819031366558e+01 3.9713001429383854e+00 5.0761089393139357e-02 
171 172 2 1.0280000000147660e+00 -4.2514360474896021e+03 1.0000000000000000e+00 5.2842371807189735e+01 3.1568611302645606e+00 2.4424261984545934e+00 
85 86 2 1.0280000000110583e+00 -4.8527413732263249e+03 1.0000000000000000e+00 5.2909383486589164e+01 3.2864057343744344e+00 2.4382320481071478e+00 
2191 2192 2 1.0279999999996712e+00 -8.8603325996871281e+03 1.0000000000000000e+00 5.3376497768631928e+01 3.9069449956319500e+00 2.0524770726646171e+00 
1307 1308 2 1.0280000000036307e+00 5.6014622926106349e+03 1.0000000000000000e+00 5.4599596594878790e+01 4.4826501778184751e+00 1.9793985604372346e+00 
1329 1330 2 1.0280000000204921e+00 7.8996914539565187e+03 1.0000000000000000e+00 5.5247614055766164e+01 4.4242653223982362e+00 1.9452994731140572e+00 
1350 1351 2 1.0280000000064990e+00 3.5106498412439578e+03 1.0000000000000000e+00 5.4050128151624200e+01 3.9120469535141207e+00 3.6450810785634069e-01 
354 355 2 1.0280000000021190e+00 -1.1938811775559443e+03 1.0000000000000000e+00 5.4940074678055048e+01 5.6646835431421909e+00 1.6560912411476836e-01 
2649 2650 2 1.0279999999845082e+00 -3.7819721778931216e+03 1.0000000000000000e+00 5.5695952096696153e+01 3.3821181213958855e+00 5.3788134158996337e-01 
255 256 2 1.0280000000001353e+00 -4.2102206673849141e+03 1.0000000000000000e+00 5.8208622181812622e+01 5.0341258058702643e+00 3.5031066481219336e-01 
2675 2676 2 1.0280000000058882e+00 -1.2701624988011877e+03 1.0000000000000000e+00 5.8581429737637286e+01 4.0365220863504483e+00 1.1210159551167753e+00 
501 502 2 1.0280000000092302e+00 1.7193011185407818e+03 1.0000000000000000e+00 5.8682427004896439e+01 4.7611924320455419e+00 2.4465211006110152e+00 
1404 1405 2 1.0279999999938112e+00 -1.9234060271676465e+03 1.0000000000000000e+00 5.8973497417635116e+01 3.7827103621804241e+00 9.1207189846085746e-01 
2013 2014 2 1.0280000000005234e+00 1.5443010497702285e+03 1.0000000000000000e+00 6.1001794439473151e+01 5.6806944915370110e+00 2.7378043529417799e+00 
2467 2468 2 1.0279999999823977e+00 -1.8914531475032375e+03 1.0000000000000000e+00 6.0606846651787379e+01 3.8309836892393285e+00 1.4988803973522293e+00 
1484 1485 2 1.0279999999978853e+00 -2.4475763040417633e+02 1.0000000000000000e+00 6.2853805127709357e+01 3.0168222145687196e+00 2.1189423020725879e+00 
468 469 2 1.0279999999936256e+00 5.7138149164052684e+03 1.0000000000000000e+00 6.2598961154060405e+01 3.0921890364142373e+00 2.3658075601804387e+00 
1824 1825 2 1.0280000000199232e+00 -1.8977418660525082e+03 1.0000000000000000e+00 6.1966068721236454e+01 3.1650433787791772e+00 2.8569908828509455e-01 
2423 2424 2 1.0280000000173342e+00 -1.2568856472226175e+03 1.0000000000000000e+00 6.2087591804143393e+01 3.1354891025907485e+00 2.0273374050128415e-01 
1933 1934 2 1.0279999999852152e+00 6.3973211344844333e+02 1.0000000000000000e+00 6.5708940836507097e+01 5.6064032651728564e+00 1.1000270922928232e+00 
1397 1398 2 1.0279999999854632e+00 2.0767568108136436e+02 1.0000000000000000e+00 6.5880386641945847e+01 5.3269773710075050e+00 1.0190513559547791e+00 
2289 2290 2 1.0279999999845000e+00 -9.0302406357149848e+03 1.0000000000000000e+00 6.5960275700720402e+01 5.3197046365009619e+00 9.9449713398943518e-01 
2157 2158 2 1.0280000000058789e+00 1.5183951484465433e+03 1.0000000000000000e+00 5.5661403532024273e+01 6.3500597550075968e+00 1.2467021940420643e-01 
102 103 2 1.0280000000002363e+00 -1.2086268777541682e+03 1.0000000000000000e+00 5.6052498220453074e+01 7.1045382765005307e+00 1.4930240056094652e+00 
618 619 2 1.0279999999976135e+00 1.4093406797735754e+03 1.0000000000000000e+00 5.7978836429046225e+01 5.9370451233523509e+00 2.4304410041731450e+00 
1989 1990 2 1.0280000000056695e+00 1.5176519572453653e+03 1.0000000000000000e+00 5.6464213776920367e+01 6.1102753377581083e+00 2.0770173964369123e+00 
99 100 2 1.0280000000014629e+00 -3.6320478524935425e+02 1.0000000000000000e+00 5.7024382997593435e+01 6.2925083659866266e+00 2.2709006522110999e+00 
2290 2291 2 1.0280000000002634e+00 -9.0256693250133358e+03 1.0000000000000000e+00 5.7285488107883850e+01 6.3604537030589006e+00 2.3224252285457436e+00 
409 410 2 1.0280000000050280e+00 8.3517684560093039e+03 1.0000000000000000e+00 5.7927131434472585e+01 8.0261481778336208e+00 1.1373780663623567e+00 
351 352 2 1.0280000000033860e+00 -3.6709531178680777e+02 1.0000000000000000e+00 5.6074555908501367e+01 7.4887341576632007e+00 2.2663094256020047e-01 
1870 1871 2 1.0280000000032079e+00 -9.0296909787695731e+03 1.0000000000000000e+00 5.6046770600477316e+01 7.1829118196881572e+00 1.5417128781982267e-01 
993 994 2 1.0279999999920546e+00 7.8988495717340229e+03 1.0000000000000000e+00 5.8018137066420074e+01 7.4611099099293448e+00 1.5212126481090515e-01 
1327 1328 2 1.0280000000012506e+00 5.9956377171942067e+03 1.0000000000000000e+00 5.9801435797686217e+01 6.4279918643746647e+00 1.4829176501458846e-01 
2723 2724 2 1.0279999999806602e+00 5.6789979057475921e+03 1.0000000000000000e+00 6.1153378111622430e+01 6.1311525068035397e+00 2.2036273516940046e+00 
54 55 2 1.0280000000255507e+00 8.3453731881747008e+03 1.0000000000000000e+00 6.3199095103124669e+01 5.9995944968283101e+00 9.3299474808964433e-01 
1318 1319 2 1.0280000000065614e+00 7.9405649890778750e+03 1.0000000000000000e+00 6.2220398775866947e+01 6.7099442311047373e+00 2.3648043077645418e+00 
968 969 2 1.0280000000081670e+00 -2.2659654416499288e+03 1.0000000000000000e+00 6.2616557220752149e+01 6.2217566067238659e+00 2.2440547757937255e+00 
606 607 2 1.0279999999984542e+00 -1.6764437861252034e+01 1.0000000000000000e+00 6.3279973239540013e+01 6.9242771601955093e+00 2.2532931453466891e+00 
408 409 2 1.0279999999818334e+00 3.8508214931684306e+03 1.0000000000000000e+00 6.3715537985465183e+01 6.7562859683544065e+00 2.0458286623627671e+00 
1502 1503 2 1.0279999999896035e+00 5.9639250107614880e+03 1.0000000000000000e+00 6.3573297429668436e+01 8.1243231000207015e+00 1.4547891549061578e+00 
1291 1292 2 1.0279999999904386e+00 5.1713106925873017e+03 1.0000000000000000e+00 6.3498408903415658e+01 8.3981513320988750e+00 1.2055992090081658e+00 
1097 1098 2 1.0279999999689851e+00 -1.4282908907900604e+04 1.0000000000000000e+00 6.5311846033280688e+01 5.9433669350866891e+00 1.1728546093371204e+00 
1272 1273 2 1.0279999999991929e+00 5.1714019022316697e+03 1.0000000000000000e+00 5.6952773551895817e+01 9.7604106959225234e+00 1.3652783675792646e+00 
1733 1734 2 1.0279999999925740e+00 5.9540381816490262e+03 1.0000000000000000e+00 5.8074683725405542e+01 1.1087036451259941e+01 1.9073080580021227e+00 
1481 1482 2 1.0279999999967684e+00 5.9526884273476207e+03 1.0000000000000000e+00 5.7721366062214003e+01 1.1082190395111599e+01 1.3421311200308252e+00 
781 782 2 1.0280000000006480e+00 -8.4073002986881306e+01 1.0000000000000000e+00 5.6615687195728505e+01 9.7643515436207196e+00 5.1331103966946801e-01 
358 359 2 1.0280000000001706e+00 -3.5055116924183949e+03 1.0000000000000000e+00 5.7372251526569393e+01 1.0446664619774538e+01 2.4354554335875356e-01 
1749 1750 2 1.0280000000021396e+00 1.3683951747317283e+03 1.0000000000000000e+00 5.6648851113124515e+01 9.6195310699390131e+00 2.2932872585730829e-01 
1863 1864 2 1.0280000000033804e+00 -7.3277085099261785e+03 1.0000000000000000e+00 5.8453931909051917e+01 1.0954489583396652e+01 4.6707310905031152e-01 