LAMMPS data file via write_data, version 30 Jul 2016, timestep = 50000000

2772 atoms
8 atom types

0.0000000000000000e+00 1.0000000000000000e+02 xlo xhi
0.0000000000000000e+00 4.0000000000000000e+01 ylo yhi
0.0000000000000000e+00 4.0000000000000000e+01 zlo zhi

Masses

1 3.896
2 5.36
3 20.064
4 8.378
5 8.378
6 8.378
7 8.378
8 8.378

Atoms # meso-molecular

2523 2524 2 1.0280000000000000e+00 -1.2005357247107258e+04 1.0000000000000000e+00 3.1565937210353590e-01 1.9446398098292608e+01 1.3150500871421398e+01 
213 214 2 1.0279999999999998e+00 -1.2007623579232493e+04 1.0000000000000000e+00 3.1582393862322383e-01 1.9448289591966173e+01 1.3150471680100438e+01 
928 929 2 1.0280000000000002e+00 -6.6057035293111148e+03 1.0000000000000000e+00 4.8092092258140673e-01 1.9149531026719547e+01 1.3147164344071147e+01 
1348 1349 2 1.0280000000000007e+00 -6.6054465998068445e+03 1.0000000000000000e+00 5.1484330228097230e-01 1.9124135204518026e+01 1.3147930946779999e+01 
591 592 2 1.0279999999999980e+00 -7.8359155849414692e+03 1.0000000000000000e+00 2.3650376571064546e+00 1.8849966863537311e+01 1.3177100106176566e+01 
759 760 2 1.0280000000000014e+00 -7.8359284738250335e+03 1.0000000000000000e+00 2.3716935968989996e+00 1.8849872212382802e+01 1.3170044541078454e+01 
1180 1181 2 1.0280000000000018e+00 -8.4708904811676239e+03 1.0000000000000000e+00 4.3238116658013217e+00 1.8314547937560821e+01 1.3168702172207931e+01 
1096 1097 2 1.0280000000000020e+00 -8.4708910220603630e+03 1.0000000000000000e+00 4.3238341795126347e+00 1.8314518200790157e+01 1.3165529658692275e+01 
2439 2440 2 1.0279999999999991e+00 -2.7076950298345605e+02 1.0000000000000000e+00 4.8108361350952684e+00 1.8411411260635340e+01 1.3074348828208429e+01 
2607 2608 2 1.0279999999999991e+00 -2.7079529796396241e+02 1.0000000000000000e+00 4.8118435157228330e+00 1.8412581672626605e+01 1.3250788311547684e+01 
1597 1598 2 1.0279999999999998e+00 -1.6953349245981237e+04 1.0000000000000000e+00 5.3743239234205875e+00 1.8916606485301454e+01 1.3132381004131224e+01 
2243 2244 2 1.0280000000001108e+00 -1.9563838888845512e+03 1.0000000000000000e+00 2.0866786942045650e+01 7.5540520649876763e-02 3.3844987359399248e+01 
1278 1279 2 1.0279999999956315e+00 -2.6414846696282802e+03 1.0000000000000000e+00 2.0181552388804093e+01 4.4300781253279425e-01 3.5418592045817910e+01 
1990 1991 2 1.0279999999948719e+00 4.8013341374063708e+02 1.0000000000000000e+00 1.9828420209893522e+01 1.7134867848121113e-01 3.4560640831710529e+01 
844 845 2 1.0279999999951546e+00 -2.3537234194015491e+03 1.0000000000000000e+00 1.9726747799478840e+01 3.2040883002710705e-03 3.4580747262918429e+01 
886 887 2 1.0280000000001945e+00 1.8142603865818392e+03 1.0000000000000000e+00 2.3074353718527846e+01 1.7863513527704469e-01 3.5926568424689926e+01 
921 922 2 1.0280000000007292e+00 1.8295300780764651e+03 1.0000000000000000e+00 2.2915428385926901e+01 1.7803119996942812e-01 3.5913346426916561e+01 
1266 1267 2 1.0279999999941043e+00 1.2610085719900708e+03 1.0000000000000000e+00 2.7811219375281095e+01 4.1195584395024082e-01 3.6936222806209130e+01 
1871 1872 2 1.0279999999939013e+00 -6.9765187340602079e+03 1.0000000000000000e+00 2.8124885441387573e+01 4.0558086467240645e-01 3.7014016043078747e+01 
1770 1771 2 1.0280000000017095e+00 9.1707734912973660e+02 1.0000000000000000e+00 2.8639482713505764e+01 3.4576083068989039e-01 3.7209411145966541e+01 
269 270 2 1.0279999999998410e+00 7.0664022544101108e+03 1.0000000000000000e+00 2.8017932456245106e+01 4.6453629080692882e-01 3.7879552136872128e+01 
1547 1548 2 1.0280000000037626e+00 9.8765775433750678e+03 1.0000000000000000e+00 3.3043781483308180e+01 1.1979943358997773e+00 3.8078020488600117e+01 
1777 1778 2 1.0279999999724927e+00 1.6957258219935420e+03 1.0000000000000000e+00 3.1291977779023423e+01 2.1240971232806993e-01 3.8376082029501880e+01 
944 945 2 1.0279999999902774e+00 -1.5930532262852439e+03 1.0000000000000000e+00 3.0905300388806040e+01 9.0672992443272885e-02 3.8183327662572289e+01 
1362 1363 2 1.0280000000690639e+00 -1.8980909237965861e+03 1.0000000000000000e+00 3.1732760806571356e+01 4.7635686856503087e-02 3.8959948975898918e+01 
1374 1375 2 1.0280000000102942e+00 -3.8926015761961830e+03 1.0000000000000000e+00 3.0927958445315319e+01 4.4916901483390122e-02 3.9232266668631979e+01 
1390 1391 2 1.0280000000000014e+00 -6.6024286443392093e+03 1.0000000000000000e+00 1.8549076078668270e+00 2.0461682878282272e+01 1.3131852614969887e+01 
1810 1811 2 1.0280000000000000e+00 -6.6012545752582164e+03 1.0000000000000000e+00 1.9351411702737822e+00 2.0467906861200881e+01 1.3141935690013819e+01 
1977 1978 2 1.0280000000000002e+00 -7.8328493713154348e+03 1.0000000000000000e+00 3.1775028857515970e+00 2.0722472719918148e+01 1.3185849457949333e+01 
2145 2146 2 1.0280000000000000e+00 -7.8328353792210219e+03 1.0000000000000000e+00 3.1821308121583334e+00 2.0725117909339613e+01 1.3179606849867939e+01 
1642 1643 2 1.0280000000000005e+00 -8.4716485083172774e+03 1.0000000000000000e+00 4.9205821735910629e+00 2.1289849931627447e+01 1.3174743865591699e+01 
1558 1559 2 1.0280000000000005e+00 -8.4716489440189416e+03 1.0000000000000000e+00 4.9206331058014587e+00 2.1289885859932205e+01 1.3170916875430795e+01 
297 298 2 1.0280000000000000e+00 -2.7188987994265074e+02 1.0000000000000000e+00 5.3686478291009676e+00 2.1050317462063973e+01 1.3273288120057487e+01 
129 130 2 1.0280000000000000e+00 -2.7185579862599548e+02 1.0000000000000000e+00 5.3689957231223371e+00 2.1051368354384113e+01 1.3060779991406063e+01 
1135 1136 2 1.0280000000000000e+00 -1.6953208239913809e+04 1.0000000000000000e+00 5.7035322408259637e+00 2.0319553013834444e+01 1.3140063665519776e+01 
604 605 2 1.0280000000048228e+00 4.7926209314600885e+02 1.0000000000000000e+00 3.1271780327790037e+00 3.2698051017405341e+01 1.9996137646812812e+01 
2665 2666 2 1.0279999999981211e+00 -1.8806426064154739e+03 1.0000000000000000e+00 1.3847739311464422e+00 3.1084034009713331e+01 2.1012901384123388e+01 
942 943 2 1.0280000000021206e+00 -1.9066553309796759e+03 1.0000000000000000e+00 2.4576831658868996e+00 3.0592425739923449e+01 2.2046894975150234e+01 
1361 1362 2 1.0279999999984160e+00 -6.2403298803723101e+02 1.0000000000000000e+00 3.2366601046416030e+00 3.0535634106400739e+01 2.1803839684968914e+01 
2574 2575 2 1.0279999999983385e+00 8.2280790814698521e+03 1.0000000000000000e+00 3.8541026413124011e+00 3.0681763474900208e+01 2.2212660642769141e+01 
1110 1111 2 1.0279999999885687e+00 -9.4285779901636015e+03 1.0000000000000000e+00 3.4217683732716853e-01 3.1728911537111031e+01 2.0059774200008206e+01 
363 364 2 1.0280000000000920e+00 6.8675340876501906e+01 1.0000000000000000e+00 1.4775355233249516e+00 3.2391339577067974e+01 2.0225676852251308e+01 
1691 1692 2 1.0280000000060974e+00 3.9035475034842611e+03 1.0000000000000000e+00 1.7370863238928991e+00 3.2414301949120990e+01 2.0244682345637077e+01 
2369 2370 2 1.0280000000107348e+00 -8.3156069237059273e+02 1.0000000000000000e+00 1.2253850225365799e+00 3.2317830532389692e+01 2.1916017362535428e+01 
777 778 2 1.0280000000023699e+00 2.2012052600719026e+03 1.0000000000000000e+00 3.6727298117156866e+00 3.2689493521873118e+01 2.0009262089471832e+01 
481 482 2 1.0279999999997729e+00 -6.6343503465355843e+03 1.0000000000000000e+00 4.2078103991943694e+00 3.2663841417245990e+01 2.0400257403920296e+01 
1867 1868 2 1.0279999999997351e+00 -6.5999767402807583e+03 1.0000000000000000e+00 4.2117647757133518e+00 3.2664468357732098e+01 2.0407601966833379e+01 
1874 1875 2 1.0279999999997798e+00 -6.9701023013385457e+03 1.0000000000000000e+00 4.2160149157789837e+00 3.2695757097829421e+01 2.0446866834715809e+01 
1225 1226 2 1.0279999999976221e+00 -5.6425923530222562e+01 1.0000000000000000e+00 4.4224006447176256e+00 3.1558232168866319e+01 2.1766657516772490e+01 
267 268 2 1.0279999999995817e+00 5.2620616079598713e+03 1.0000000000000000e+00 3.7267464373000507e+00 3.2376150509728717e+01 2.2770761639650544e+01 
1403 1404 2 1.0280000000012088e+00 -6.3039963587998591e+02 1.0000000000000000e+00 3.0417382484246756e+00 3.2487823057856779e+01 2.2797994697436305e+01 
1046 1047 2 1.0280000000012346e+00 -6.5645696943946970e+00 1.0000000000000000e+00 2.6931342259220421e+00 3.1067430597806389e+01 2.3344375343982943e+01 
436 437 2 1.0280000000007934e+00 1.0758993860202958e+04 1.0000000000000000e+00 3.2050304741163473e+00 3.1175055123747260e+01 2.3492449184339605e+01 
1816 1817 2 1.0280000000017850e+00 -9.2184983793443862e+03 1.0000000000000000e+00 3.0121158186696766e+00 3.1653811450724177e+01 2.3499634715265817e+01 
1447 1448 2 1.0280000000019325e+00 3.7156764527848600e+03 1.0000000000000000e+00 2.0982491957100660e+01 3.9657714304499258e+01 3.3855258047363115e+01 
2441 2442 2 1.0280000000037905e+00 2.1281687992474572e+03 1.0000000000000000e+00 2.1250278685262920e+01 3.9678355694026855e+01 3.3919514437910593e+01 
981 982 2 1.0280000000077361e+00 6.7687926174700851e+03 1.0000000000000000e+00 2.1690680614971509e+01 3.9676021398773642e+01 3.4209392193700140e+01 
395 396 2 1.0280000000011538e+00 -7.9517749138372483e+02 1.0000000000000000e+00 1.6626211062320341e+01 3.7988705583135122e+01 3.5906076961949530e+01 
1236 1237 2 1.0279999999997933e+00 5.6616068331517590e+02 1.0000000000000000e+00 1.6483897670540809e+01 3.8518285025125095e+01 3.6114752399360874e+01 
103 104 2 1.0279999999983274e+00 -1.8642071996785558e+03 1.0000000000000000e+00 1.6715522626322663e+01 3.8731542293195695e+01 3.6627483533574846e+01 
2663 2664 2 1.0280000000011917e+00 -1.3898044897111790e+03 1.0000000000000000e+00 1.6918231637845846e+01 3.7702385125486401e+01 3.5902155884754762e+01 
1406 1407 2 1.0279999999991616e+00 -1.6691568854475090e+03 1.0000000000000000e+00 1.7020042076129553e+01 3.9196152732820238e+01 3.5963824344588730e+01 
1765 1766 2 1.0280000000008178e+00 -4.8784240694885157e+03 1.0000000000000000e+00 1.7555637966194812e+01 3.7532419363526479e+01 3.5940535685314877e+01 
941 942 2 1.0280000000014733e+00 -6.3951775376871865e+02 1.0000000000000000e+00 1.8836404478184949e+01 3.7951860883065997e+01 3.6377397286010876e+01 
59 60 2 1.0280000000022826e+00 -8.6796452897826771e+02 1.0000000000000000e+00 1.9014441591435400e+01 3.8089511552428704e+01 3.6423955342131450e+01 
2705 2706 2 1.0279999999990219e+00 -8.2337394578533053e+02 1.0000000000000000e+00 1.7989105526600426e+01 3.9595645975742876e+01 3.6488076218849358e+01 
101 102 2 1.0280000000036773e+00 -1.4105943715491069e+03 1.0000000000000000e+00 1.9383626784724996e+01 3.9298314169934493e+01 3.6795557758511030e+01 
2294 2295 2 1.0280000000075600e+00 -7.0104725152901374e+03 1.0000000000000000e+00 1.9472429552893367e+01 3.8812084460452752e+01 3.6761752444769918e+01 
1700 1701 2 1.0280000000012370e+00 3.7118121164912873e+03 1.0000000000000000e+00 1.9985437639534901e+01 3.9831370445506401e+01 3.6345528580106276e+01 
988 989 2 1.0280000000059073e+00 6.1237053050295244e+03 1.0000000000000000e+00 2.1934182764671011e+01 3.9178804106676886e+01 3.7013686264091774e+01 
1759 1760 2 1.0280000000092901e+00 1.2330338704985743e+03 1.0000000000000000e+00 2.2590600705906741e+01 3.9090173785636907e+01 3.5258464156471014e+01 
1740 1741 2 1.0280000000017506e+00 -2.6127813725923097e+03 1.0000000000000000e+00 2.4316022539819734e+01 3.8986861899466255e+01 3.5599926082217031e+01 
985 986 2 1.0280000000004963e+00 3.7271220321372675e+03 1.0000000000000000e+00 2.4632928096692265e+01 3.9842430047631197e+01 3.5820592775924716e+01 
1748 1749 2 1.0279999999959557e+00 -3.6019353783711279e+02 1.0000000000000000e+00 2.5096856800090944e+01 3.8830936121770932e+01 3.6937463298402839e+01 
1743 1744 2 1.0279999999993210e+00 2.5659696055176041e+03 1.0000000000000000e+00 2.5485602349839557e+01 3.8909169116937008e+01 3.6497602757817575e+01 
2165 2166 2 1.0280000000281677e+00 2.9872132941517179e+03 1.0000000000000000e+00 2.5999031833040441e+01 3.9609860872129133e+01 3.6383253756117526e+01 
1853 1854 2 1.0280000000283107e+00 4.9715980356454711e+03 1.0000000000000000e+00 2.6000667744453857e+01 3.9617113507967908e+01 3.6386979044188465e+01 
2493 2494 2 1.0280000000005440e+00 5.2163828967138379e+03 1.0000000000000000e+00 2.2635091700245411e+01 3.8543356359191314e+01 3.7202140564558320e+01 
2411 2412 2 1.0280000000001552e+00 -1.4372698737482342e+03 1.0000000000000000e+00 2.2721110922515706e+01 3.8521336692479942e+01 3.7232241960004636e+01 
2757 2758 2 1.0279999999974825e+00 1.0711257427842831e+04 1.0000000000000000e+00 2.2696972927013658e+01 3.9202034788832627e+01 3.7499073945170032e+01 
270 271 2 1.0279999999969636e+00 4.7950461850940828e+03 1.0000000000000000e+00 2.3775649455389406e+01 3.8781746083860000e+01 3.7498571452649678e+01 
1476 1477 2 1.0280000000113494e+00 1.2013805968447145e+03 1.0000000000000000e+00 2.7257462851918813e+01 3.9456506886343838e+01 3.7597301678973103e+01 
2509 2510 2 1.0280000000264418e+00 8.1491273716307405e+03 1.0000000000000000e+00 2.9527726447378118e+01 3.9316153643389775e+01 3.8368901682408676e+01 
2025 2026 2 1.0280000000112364e+00 -2.7252250303470291e+03 1.0000000000000000e+00 3.0027484169235940e+01 3.9749598328957639e+01 3.9124580406380304e+01 
772 773 2 1.0280000000102791e+00 5.0759383567898169e+02 1.0000000000000000e+00 3.0077774248136727e+01 3.9737044525914747e+01 3.9135587265200137e+01 
1875 1876 2 1.0280000000183540e+00 -7.0586902421687428e+03 1.0000000000000000e+00 2.8004175830532159e+01 3.9405867588577678e+01 3.7844537713532901e+01 
1057 1058 2 1.0279999999940879e+00 -5.3813028601439122e+01 1.0000000000000000e+00 3.4478263266559367e+01 1.0436196020742274e+00 5.9466312048053127e-01 
590 591 2 1.0280000000100673e+00 7.8437469961955930e+00 1.0000000000000000e+00 3.4837893842486913e+01 2.3415546464105028e-01 1.6842875915354436e+00 
2273 2274 2 1.0280000000181497e+00 5.0108837508785700e+03 1.0000000000000000e+00 3.3626369954530404e+01 1.7112475611420649e-01 3.0378726864290184e-01 
1572 1573 2 1.0279999999925817e+00 -9.4607223810960131e+03 1.0000000000000000e+00 3.4782375754346425e+01 1.3642946389408257e+00 1.0054175642211140e-01 
1825 1826 2 1.0280000000223124e+00 2.2374941669038144e+03 1.0000000000000000e+00 3.3483294344749112e+01 1.8580356344255330e-01 1.3616123681237444e-01 
4 5 2 1.0280000000017597e+00 4.3359400412720252e+03 1.0000000000000000e+00 3.6775233057943808e+01 9.9010072620297784e-01 2.5656916336853248e+00 
2373 2374 2 1.0280000000144300e+00 8.3626484222539318e+02 1.0000000000000000e+00 3.8389003393220783e+01 2.4758137927813437e+00 1.8394603272685102e+00 
2580 2581 2 1.0280000000105141e+00 4.7625745639368388e+03 1.0000000000000000e+00 3.8758406226832442e+01 2.6966169777238336e+00 1.2935552684244422e+00 
909 910 2 1.0280000000179195e+00 -7.0946294785949704e+03 1.0000000000000000e+00 3.8481440676174245e+01 2.4448837274093353e+00 1.2403582493389602e+00 
2753 2754 2 1.0280000000186869e+00 1.3297353421584394e+04 1.0000000000000000e+00 3.7217411871410334e+01 1.1538091707163669e+00 9.8886435375925974e-01 
1392 1393 2 1.0279999999970983e+00 3.5211791790625284e+03 1.0000000000000000e+00 3.7112129210031704e+01 1.2348443965402342e-01 1.2179028557324599e-02 
2288 2289 2 1.0279999999981282e+00 -6.8564400097492398e+03 1.0000000000000000e+00 3.9469882009536242e+01 2.8063690805082722e+00 2.1771372115645855e+00 
2759 2760 2 1.0279999999601257e+00 1.0030135799701038e+04 1.0000000000000000e+00 3.9685030969042515e+01 8.0196176304048816e-01 2.1616241829429486e+00 
449 450 2 1.0280000000010325e+00 1.0035665308295094e+04 1.0000000000000000e+00 4.0254346614874997e+01 8.8082645791799707e-01 2.1422076026238588e+00 
1072 1073 2 1.0279999999941374e+00 2.6546196408979872e+03 1.0000000000000000e+00 4.1182938755951241e+01 2.0937430312561727e+00 2.4618272069175623e-01 
1363 1364 2 1.0280000000115330e+00 2.2327275891981244e+03 1.0000000000000000e+00 4.1764659744812093e+01 2.7273039680355566e+00 1.6177423302959064e+00 
2370 2371 2 1.0280000000037153e+00 -4.2327353985897230e+02 1.0000000000000000e+00 4.4597625526549741e+01 2.6955861148747018e+00 2.2293873890422331e+00 
60 61 2 1.0280000000128553e+00 -4.3703986700578355e+02 1.0000000000000000e+00 4.4620919092110036e+01 3.8745234342425983e-01 9.8325136337393049e-01 
2291 2292 2 1.0279999999981131e+00 -6.8429111094317577e+03 1.0000000000000000e+00 4.4787329358380283e+01 2.8189538061999184e+00 2.1505686579206174e+00 
1026 1027 2 1.0280000000136955e+00 -2.6367592687494625e+03 1.0000000000000000e+00 4.6640208674254538e+01 2.3176903689962223e+00 2.3255970279489007e+00 
979 980 2 1.0280000000094600e+00 1.6937556624824751e+03 1.0000000000000000e+00 4.6459208124005031e+01 2.4302792840864389e+00 2.3275431739901298e+00 
2465 2466 2 1.0279999999525773e+00 -6.5552809926182654e+03 1.0000000000000000e+00 4.6501949646686690e+01 7.6524183541833768e-01 8.6976141266081697e-01 
902 903 2 1.0280000000166476e+00 -6.9012476996648038e+03 1.0000000000000000e+00 4.5996962567411195e+01 4.5778551539229262e-01 2.7367747592461984e+00 
2480 2481 2 1.0279999999968716e+00 -1.3537328183039526e+03 1.0000000000000000e+00 4.5371932156482707e+01 1.4601668174910815e-01 2.5941540249197139e+00 
204 205 2 1.0279999999685745e+00 8.6126588853180219e+03 1.0000000000000000e+00 4.7916664282378989e+01 2.0382454128763992e+00 1.1894626961932517e+00 
1839 1840 2 1.0280000000100986e+00 -9.1925678123887956e+03 1.0000000000000000e+00 4.8374439832167241e+01 1.8699967718325297e+00 1.8070841649842182e+00 
2333 2334 2 1.0280000000143381e+00 1.3338836821188677e+04 1.0000000000000000e+00 4.9358596694726721e+01 1.6117749277754787e+00 1.7039905179279071e+00 
1701 1702 2 1.0279999999639782e+00 2.6599260771003724e+03 1.0000000000000000e+00 4.8740165021259166e+01 1.6726362186722594e+00 3.0256868061584191e-01 
185 186 2 1.0280000000716289e+00 7.0380177762233179e+03 1.0000000000000000e+00 5.0330129248152844e+01 1.1275282456130973e+00 1.7419802832456568e+00 
858 859 2 1.0280000000278615e+00 -1.2708778589370760e+02 1.0000000000000000e+00 5.2273096652254004e+01 1.8967912428877374e+00 2.5852585021094616e+00 
1666 1667 2 1.0280000000560172e+00 -1.7490675710313994e+03 1.0000000000000000e+00 5.1871206814779811e+01 1.7519754771258533e+00 2.0302396372424538e+00 
905 906 2 1.0279999999409011e+00 -6.8713600361847157e+03 1.0000000000000000e+00 5.2284935360684884e+01 7.7371542114091163e-01 2.7135896932065569e+00 
805 806 2 1.0280000000021805e+00 -8.8813327347264603e+03 1.0000000000000000e+00 5.2590430728140930e+01 3.6037780156799137e-01 9.8850043190437054e-01 
2395 2396 2 1.0279999999969722e+00 -4.8702624026266185e+03 1.0000000000000000e+00 5.2807343808325754e+01 3.5241288141084864e-01 9.1179849699610294e-01 
2481 2482 2 1.0279999999962186e+00 -4.2624038117500177e+03 1.0000000000000000e+00 5.2907850381179308e+01 3.3173786552135409e-01 8.7676975780064270e-01 
1519 1520 2 1.0279999999923495e+00 -6.2257628533996467e+01 1.0000000000000000e+00 5.3474846645333677e+01 2.6070435046095239e+00 1.2485428632210587e+00 
1071 1072 2 1.0280000000638632e+00 2.6612081731499402e+03 1.0000000000000000e+00 5.4848784488434241e+01 7.5422391560522595e-01 5.0823777759952982e-01 
443 444 2 1.0279999999565395e+00 1.3320631216303744e+04 1.0000000000000000e+00 5.5636808060166828e+01 2.0632287645850522e+00 6.7793783918847961e-01 
376 377 2 1.0280000000079075e+00 -3.7753237605451059e+03 1.0000000000000000e+00 5.5662602041351342e+01 6.2654903123159245e-01 2.9205718771049055e-01 
2495 2496 2 1.0280000000008080e+00 7.0512222000971578e+03 1.0000000000000000e+00 5.7344558793785311e+01 1.6313540310039305e+00 1.9575651157008613e+00 
191 192 2 1.0279999999842007e+00 8.7150561748935088e+03 1.0000000000000000e+00 5.8262962119145747e+01 1.2207866590764058e+00 2.2983690635571139e+00 
492 493 2 1.0279999999924090e+00 -3.3408332394116160e+03 1.0000000000000000e+00 5.7468297658327344e+01 2.4520397975448915e+00 1.7746778399284580e+00 
107 108 2 1.0280000000313871e+00 -2.5526469555757449e+03 1.0000000000000000e+00 5.7524720281337032e+01 9.7107327548892020e-01 1.4108101893307028e+00 
1739 1740 2 1.0280000000033138e+00 -3.5503831474344054e+02 1.0000000000000000e+00 5.8500438141818599e+01 8.8723697427315518e-01 3.4054909258102734e-01 
1240 1241 2 1.0279999999664107e+00 2.6598904767702534e+03 1.0000000000000000e+00 5.8595279138208632e+01 1.1166872203216929e+00 2.2553446551392431e-01 
2620 2621 2 1.0279999999734617e+00 -2.3817138647869451e+03 1.0000000000000000e+00 5.9532648384898643e+01 3.3232622158487940e-01 2.6494929286515814e+00 
625 626 2 1.0279999999948450e+00 -3.5930906555568936e+03 1.0000000000000000e+00 6.2612574709502290e+01 2.4712249147375758e+00 2.8249183566197758e+00 
380 381 2 1.0280000000022973e+00 -2.6253342665659397e+02 1.0000000000000000e+00 6.3533066024444473e+01 2.0504867663331319e+00 1.7509739001639235e+00 
5 6 2 1.0279999999930090e+00 3.9532094517160940e+03 1.0000000000000000e+00 6.3086288959547446e+01 1.5212504186028077e+00 7.1917419213233580e-01 
1491 1492 2 1.0280000000202314e+00 2.6080168771691292e+03 1.0000000000000000e+00 6.2057636590618557e+01 2.1159022834398500e-01 1.9293001293652912e-02 
188 189 2 1.0279999999634024e+00 8.7335612006728225e+03 1.0000000000000000e+00 6.5832400900402419e+01 5.4451009207814005e-01 1.2643973541515900e+00 
209 210 2 1.0279999999832203e+00 -1.4039955156117294e+03 1.0000000000000000e+00 6.5945878586740761e+01 5.9796314858763988e-01 1.0806014996855473e+00 
1325 1326 2 1.0279999999842850e+00 7.7077121606462370e+03 1.0000000000000000e+00 6.5219530555943891e+01 5.1527349310280224e-01 2.6913869183845280e+00 
170 171 2 1.0279999999990428e+00 -1.3749795393506865e+03 1.0000000000000000e+00 3.9367395406793378e+01 2.8815323893471914e+00 2.0928215357334978e+00 
199 200 2 1.0280000000031855e+00 8.1587341439605461e+03 1.0000000000000000e+00 4.0348683779644041e+01 3.0041394300362114e+00 1.3711309038158126e+00 
128 129 2 1.0280000000137846e+00 -4.2314120356911030e+02 1.0000000000000000e+00 4.2267589989823421e+01 2.9433406489117133e+00 1.4050554575890757e+00 
930 931 2 1.0280000000152845e+00 3.5211988904066939e+03 1.0000000000000000e+00 4.2426059589655154e+01 3.0345671626615669e+00 1.3377417656404298e+00 
2496 2497 2 1.0280000000034935e+00 4.7955848763741742e+03 1.0000000000000000e+00 4.3711357831996288e+01 3.8843800442242404e+00 3.2113075555300291e-01 
1823 1824 2 1.0280000000040039e+00 -6.3039690574435076e+02 1.0000000000000000e+00 4.3534848004386355e+01 3.8308702331445303e+00 3.1813912671105576e-01 
1826 1827 2 1.0279999999911398e+00 -1.6619754269633281e+03 1.0000000000000000e+00 4.5210727551987937e+01 2.8694924920865610e+00 2.2044172740218757e+00 
183 184 2 1.0280000000005960e+00 5.2626860999608143e+03 1.0000000000000000e+00 4.5307402069594225e+01 4.0110780240845889e+00 4.3923447329229459e-01 
353 354 2 1.0280000000123617e+00 -1.4075842501430132e+03 1.0000000000000000e+00 4.5790650361151883e+01 3.9715024200993976e+00 5.0717325779247403e-02 
171 172 2 1.0280000000159264e+00 -4.2514360474896021e+03 1.0000000000000000e+00 5.2841207978147182e+01 3.1570756900051431e+00 2.4423936547462795e+00 
85 86 2 1.0280000000119003e+00 -4.8527413732263249e+03 1.0000000000000000e+00 5.2908219554861851e+01 3.2866203523563153e+00 2.4381997288046389e+00 
2191 2192 2 1.0279999999995595e+00 -8.8603325996871281e+03 1.0000000000000000e+00 5.3375333540468453e+01 3.9071604777199451e+00 2.0524460691546387e+00 
1307 1308 2 1.0280000000039848e+00 5.6014622926106349e+03 1.0000000000000000e+00 5.4598432930543595e+01 4.4828671563072424e+00 1.9793684308661448e+00 
1329 1330 2 1.0280000000220051e+00 7.8996914539565187e+03 1.0000000000000000e+00 5.5246450061705950e+01 4.4244826738328777e+00 1.9452695439888830e+00 
1350 1351 2 1.0280000000072549e+00 3.5106498412439578e+03 1.0000000000000000e+00 5.4048965647602593e+01 3.9122645566971377e+00 3.6447830812594778e-01 
354 355 2 1.0280000000023304e+00 -1.1938811775559443e+03 1.0000000000000000e+00 5.4938911927927215e+01 5.6649014052427775e+00 1.6557996187386728e-01 
2649 2650 2 1.0279999999835254e+00 -3.7819721778931216e+03 1.0000000000000000e+00 5.5694790406259941e+01 3.3823367487225555e+00 5.3785176897417175e-01 
255 256 2 1.0280000000002716e+00 -4.2102206673849141e+03 1.0000000000000000e+00 5.8207460003786359e+01 5.0343467948413840e+00 3.5028364976581444e-01 
2675 2676 2 1.0280000000062066e+00 -1.2701624988011877e+03 1.0000000000000000e+00 5.8580268349564115e+01 4.0367436582969480e+00 1.1209891767801456e+00 
501 502 2 1.0280000000096552e+00 1.7193011185407818e+03 1.0000000000000000e+00 5.8681264242665740e+01 4.7614136905099880e+00 2.4464938268729535e+00 
1404 1405 2 1.0279999999932734e+00 -1.9234060271676465e+03 1.0000000000000000e+00 5.8972336592327423e+01 3.7829320293874673e+00 9.1204525512488022e-01 
2013 2014 2 1.0280000000006742e+00 1.5443010497702285e+03 1.0000000000000000e+00 6.1000631352109927e+01 5.6809175682981108e+00 2.7377786725300859e+00 
2467 2468 2 1.0279999999809792e+00 -1.8914531475032375e+03 1.0000000000000000e+00 6.0605686019572580e+01 3.8312065608306343e+00 1.4988546209584130e+00 
1484 1485 2 1.0279999999973393e+00 -2.4475763040417633e+02 1.0000000000000000e+00 6.2852645930227318e+01 3.0170488375915290e+00 2.1189204290996804e+00 
468 469 2 1.0279999999927689e+00 5.7138149164052684e+03 1.0000000000000000e+00 6.2597801595516408e+01 3.0924152428811924e+00 2.3657854005166907e+00 
1824 1825 2 1.0280000000207317e+00 -1.8977418660525082e+03 1.0000000000000000e+00 6.1964910263651070e+01 3.1652691935470125e+00 2.8567636330097035e-01 
2423 2424 2 1.0280000000180063e+00 -1.2568856472226175e+03 1.0000000000000000e+00 6.2086433394271104e+01 3.1357152912314366e+00 2.0271109808047905e-01 
1933 1934 2 1.0279999999837535e+00 6.3973211344844333e+02 1.0000000000000000e+00 6.5707783822542396e+01 5.6066374306873232e+00 1.1000138676185058e+00 
1397 1398 2 1.0279999999839851e+00 2.0767568108136436e+02 1.0000000000000000e+00 6.5879230172306137e+01 5.3272116630431068e+00 1.0190387390648166e+00 
2289 2290 2 1.0279999999828577e+00 -9.0302406357149848e+03 1.0000000000000000e+00 6.5959119517242272e+01 5.3199391371974167e+00 9.9448470360474961e-01 
2157 2158 2 1.0280000000064367e+00 1.5183951484465433e+03 1.0000000000000000e+00 5.5660240132490550e+01 6.3502780654387179e+00 1.2464165493173120e-01 
102 103 2 1.0280000000006431e+00 -1.2086268777541682e+03 1.0000000000000000e+00 5.6051334027642660e+01 7.1047570849607498e+00 1.4929951172390958e+00 
618 619 2 1.0279999999972504e+00 1.4093406797735754e+03 1.0000000000000000e+00 5.7977672607377023e+01 5.9372653552968844e+00 2.4304131901859636e+00 
1989 1990 2 1.0280000000061014e+00 1.5176519572453653e+03 1.0000000000000000e+00 5.6463049881369585e+01 6.1104942847374959e+00 2.0769883380158425e+00 
99 100 2 1.0280000000014917e+00 -3.6320478524935425e+02 1.0000000000000000e+00 5.7023218906484047e+01 6.2927277407649003e+00 2.2708720576620185e+00 
2290 2291 2 1.0280000000002303e+00 -9.0256693250133358e+03 1.0000000000000000e+00 5.7284324010490025e+01 6.3606732933875900e+00 2.3223968169559832e+00 
409 410 2 1.0280000000054537e+00 8.3517684560093039e+03 1.0000000000000000e+00 5.7925966613142741e+01 8.0263682612050644e+00 1.1373494375704509e+00 
351 352 2 1.0280000000037812e+00 -3.6709531178680777e+02 1.0000000000000000e+00 5.6073391698811704e+01 7.4889530036011518e+00 2.2660232683891435e-01 
1870 1871 2 1.0280000000035718e+00 -9.0296909787695731e+03 1.0000000000000000e+00 5.6045606515792706e+01 7.1831306183274233e+00 1.5414275668338012e-01 
993 994 2 1.0279999999914995e+00 7.8988495717340229e+03 1.0000000000000000e+00 5.8016973111329847e+01 7.4613303047858652e+00 1.5209310851093824e-01 
1327 1328 2 1.0280000000013669e+00 5.9956377171942067e+03 1.0000000000000000e+00 5.9800273583260797e+01 6.4282139124752851e+00 1.4826575882881407e-01 
2723 2724 2 1.0279999999792255e+00 5.6789979057475921e+03 1.0000000000000000e+00 6.1152215074463804e+01 6.1313761220135587e+00 2.2036017228325142e+00 
54 55 2 1.0280000000274192e+00 8.3453731881747008e+03 1.0000000000000000e+00 6.3197933217613013e+01 5.9998223622497875e+00 9.3297383769454822e-01 
1318 1319 2 1.0280000000068918e+00 7.9405649890778750e+03 1.0000000000000000e+00 6.2219235674878419e+01 6.7101687691079945e+00 2.3647800761342435e+00 
968 969 2 1.0280000000085263e+00 -2.2659654416499288e+03 1.0000000000000000e+00 6.2615394327465616e+01 6.2219819993000369e+00 2.2440313306598356e+00 
606 607 2 1.0279999999980221e+00 -1.6764437861252034e+01 1.0000000000000000e+00 6.3278810292367396e+01 6.9245031480722199e+00 2.2532712302991134e+00 
408 409 2 1.0279999999799549e+00 3.8508214931684306e+03 1.0000000000000000e+00 6.3714376084269183e+01 6.7565128401297727e+00 2.0458086631286938e+00 
1502 1503 2 1.0279999999888962e+00 5.9639250107614880e+03 1.0000000000000000e+00 6.3572134702103355e+01 8.1245493078680067e+00 1.4547657994557144e+00 
1291 1292 2 1.0279999999897742e+00 5.1713106925873017e+03 1.0000000000000000e+00 6.3497245889233945e+01 8.3983772563992893e+00 1.2055749349058942e+00 
1097 1098 2 1.0279999999661695e+00 -1.4282908907900604e+04 1.0000000000000000e+00 6.5310687937837102e+01 5.9436005837722483e+00 1.1728407698939558e+00 
1272 1273 2 1.0279999999991043e+00 5.1714019022316697e+03 1.0000000000000000e+00 5.6951607659066092e+01 9.7606304153021224e+00 1.3652485728998893e+00 
1733 1734 2 1.0279999999921456e+00 5.9540381816490262e+03 1.0000000000000000e+00 5.8073517067706447e+01 1.1087257295479219e+01 1.9072776049317428e+00 
1481 1482 2 1.0279999999965317e+00 5.9526884273476207e+03 1.0000000000000000e+00 5.7720199620096253e+01 1.1082410922804122e+01 1.3421005733747611e+00 
781 782 2 1.0280000000006961e+00 -8.4073002986881306e+01 1.0000000000000000e+00 5.6614521572711617e+01 9.7645710478944974e+00 5.1328133699310963e-01 
358 359 2 1.0280000000000671e+00 -3.5055116924183949e+03 1.0000000000000000e+00 5.7371085595616947e+01 1.0446884541734184e+01 2.4351560880978027e-01 
1749 1750 2 1.0280000000024228e+00 1.3683951747317283e+03 1.0000000000000000e+00 5.6647685636704352e+01 9.6197504756593961e+00 2.2929917329256516e-01 
1863 1864 2 1.0280000000038896e+00 -7.3277085099261785e+03 1.0000000000000000e+00 5.8452765814534551e+01 1.0954710137622554e+01 4.6704305375774074e-01 