LAMMPS data file via write_data, version 30 Jul 2016, timestep = 1000000

2080 atoms
8 atom types

0.0000000000000000e+00 4.0000000000000000e+01 xlo xhi
0.0000000000000000e+00 4.0000000000000000e+01 ylo yhi
0.0000000000000000e+00 1.0000000000000000e+02 zlo zhi

Masses

1 3.896
2 4.306
3 20.064
4 8.378
5 8.378
6 8.378
7 8.378
8 8.378

Atoms # meso-molecular

1 2 4 2.2559723595316457e+00 0.0000000000000000e+00 1.0000000000000000e+00 0.0000000000000000e+00 0.0000000000000000e+00 2.5000000000000000e+00 
2 2 4 2.2559723595316457e+00 0.0000000000000000e+00 1.0000000000000000e+00 0.0000000000000000e+00 2.0000000000000000e+00 2.5000000000000000e+00 
3 2 4 2.2559723595316457e+00 0.0000000000000000e+00 1.0000000000000000e+00 0.0000000000000000e+00 4.0000000000000000e+00 2.5000000000000000e+00 
4 2 4 2.2559723595316457e+00 0.0000000000000000e+00 1.0000000000000000e+00 0.0000000000000000e+00 6.0000000000000000e+00 2.5000000000000000e+00 
5 2 4 2.2559723595316457e+00 0.0000000000000000e+00 1.0000000000000000e+00 0.0000000000000000e+00 8.0000000000000000e+00 2.5000000000000000e+00 
21 2 4 2.2559723595316457e+00 0.0000000000000000e+00 1.0000000000000000e+00 2.0000000000000000e+00 0.0000000000000000e+00 2.5000000000000000e+00 
22 2 4 2.2559723595316457e+00 0.0000000000000000e+00 1.0000000000000000e+00 2.0000000000000000e+00 2.0000000000000000e+00 2.5000000000000000e+00 
23 2 4 2.2559723595316457e+00 0.0000000000000000e+00 1.0000000000000000e+00 2.0000000000000000e+00 4.0000000000000000e+00 2.5000000000000000e+00 
24 2 4 2.2559723595316457e+00 0.0000000000000000e+00 1.0000000000000000e+00 2.0000000000000000e+00 6.0000000000000000e+00 2.5000000000000000e+00 
25 2 4 2.2559723595316457e+00 0.0000000000000000e+00 1.0000000000000000e+00 2.0000000000000000e+00 8.0000000000000000e+00 2.5000000000000000e+00 
41 2 4 2.2559723595316457e+00 0.0000000000000000e+00 1.0000000000000000e+00 4.0000000000000000e+00 0.0000000000000000e+00 2.5000000000000000e+00 
42 2 4 2.2559723595316457e+00 0.0000000000000000e+00 1.0000000000000000e+00 4.0000000000000000e+00 2.0000000000000000e+00 2.5000000000000000e+00 
43 2 4 2.2559723595316457e+00 0.0000000000000000e+00 1.0000000000000000e+00 4.0000000000000000e+00 4.0000000000000000e+00 2.5000000000000000e+00 
44 2 4 2.2559723595316457e+00 0.0000000000000000e+00 1.0000000000000000e+00 4.0000000000000000e+00 6.0000000000000000e+00 2.5000000000000000e+00 
45 2 4 2.2559723595316457e+00 0.0000000000000000e+00 1.0000000000000000e+00 4.0000000000000000e+00 8.0000000000000000e+00 2.5000000000000000e+00 
61 2 4 2.2559723595316457e+00 0.0000000000000000e+00 1.0000000000000000e+00 6.0000000000000000e+00 0.0000000000000000e+00 2.5000000000000000e+00 
62 2 4 2.2559723595316457e+00 0.0000000000000000e+00 1.0000000000000000e+00 6.0000000000000000e+00 2.0000000000000000e+00 2.5000000000000000e+00 
63 2 4 2.2559723595316457e+00 0.0000000000000000e+00 1.0000000000000000e+00 6.0000000000000000e+00 4.0000000000000000e+00 2.5000000000000000e+00 
64 2 4 2.2559723595316457e+00 -7.3955706186296238e-02 1.0000000000000000e+00 6.0000000000000000e+00 6.0000000000000000e+00 2.5000000000000000e+00 
65 2 4 2.2559723595316457e+00 -1.3399880591445059e+00 1.0000000000000000e+00 6.0000000000000000e+00 8.0000000000000000e+00 2.5000000000000000e+00 
81 2 4 2.2559723595316457e+00 0.0000000000000000e+00 1.0000000000000000e+00 8.0000000000000000e+00 0.0000000000000000e+00 2.5000000000000000e+00 
82 2 4 2.2559723595316457e+00 0.0000000000000000e+00 1.0000000000000000e+00 8.0000000000000000e+00 2.0000000000000000e+00 2.5000000000000000e+00 
83 2 4 2.2559723595316457e+00 -2.2024501835286596e+00 1.0000000000000000e+00 8.0000000000000000e+00 4.0000000000000000e+00 2.5000000000000000e+00 
84 2 4 2.2559723595316457e+00 -1.8717111250481995e+01 1.0000000000000000e+00 8.0000000000000000e+00 6.0000000000000000e+00 2.5000000000000000e+00 
85 2 4 2.2559723595316457e+00 -6.1107178363192503e+01 1.0000000000000000e+00 8.0000000000000000e+00 8.0000000000000000e+00 2.5000000000000000e+00 
101 2 4 2.2559723595316457e+00 0.0000000000000000e+00 1.0000000000000000e+00 1.0000000000000000e+01 0.0000000000000000e+00 2.5000000000000000e+00 
102 2 4 2.2559723595316457e+00 -2.2024854591494076e+00 1.0000000000000000e+00 1.0000000000000000e+01 2.0000000000000000e+00 2.5000000000000000e+00 
103 2 4 2.2559723595316457e+00 -3.3813147892433342e+01 1.0000000000000000e+00 1.0000000000000000e+01 4.0000000000000000e+00 2.5000000000000000e+00 
104 2 4 2.2559723595316457e+00 -1.5302473938593639e+02 1.0000000000000000e+00 1.0000000000000000e+01 6.0000000000000000e+00 2.5000000000000000e+00 
105 2 4 2.2559723595316457e+00 -3.9526774798130077e+02 1.0000000000000000e+00 1.0000000000000000e+01 8.0000000000000000e+00 2.5000000000000000e+00 
121 2 4 2.2559723595316457e+00 -7.3957619995265303e-02 1.0000000000000000e+00 1.2000000000000000e+01 0.0000000000000000e+00 2.5000000000000000e+00 
122 2 4 2.2559723595316457e+00 -1.8619958670857631e+01 1.0000000000000000e+00 1.2000000000000000e+01 2.0000000000000000e+00 2.5000000000000000e+00 
123 2 4 2.2559723595316457e+00 -1.5200766762849554e+02 1.0000000000000000e+00 1.2000000000000000e+01 4.0000000000000000e+00 2.5000000000000000e+00 
124 2 4 2.2559723595316457e+00 -5.5274668207885861e+02 1.0000000000000000e+00 1.2000000000000000e+01 6.0000000000000000e+00 2.5000000000000000e+00 
125 2 4 2.2559723595316457e+00 -1.2901887882173758e+03 1.0000000000000000e+00 1.2000000000000000e+01 8.0000000000000000e+00 2.5000000000000000e+00 
141 2 4 2.2559723595316457e+00 -1.3371049857210373e+00 1.0000000000000000e+00 1.4000000000000000e+01 0.0000000000000000e+00 2.5000000000000000e+00 
142 2 4 2.2559723595316457e+00 -6.0028909975328894e+01 1.0000000000000000e+00 1.4000000000000000e+01 2.0000000000000000e+00 2.5000000000000000e+00 
143 2 4 2.2559723595316457e+00 -3.8702587854536944e+02 1.0000000000000000e+00 1.4000000000000000e+01 4.0000000000000000e+00 2.5000000000000000e+00 
144 2 4 2.2559723595316457e+00 -1.2717035322353968e+03 1.0000000000000000e+00 1.4000000000000000e+01 6.0000000000000000e+00 2.5000000000000000e+00 
145 2 4 2.2559723595316457e+00 -2.8279676784755293e+03 1.0000000000000000e+00 1.4000000000000000e+01 8.0000000000000000e+00 2.5000000000000000e+00 
161 2 4 2.2559723595316457e+00 -3.7119259223331813e+00 1.0000000000000000e+00 1.6000000000000000e+01 0.0000000000000000e+00 2.5000000000000000e+00 
162 2 4 2.2559723595316457e+00 -1.1660820581323543e+02 1.0000000000000000e+00 1.6000000000000000e+01 2.0000000000000000e+00 2.5000000000000000e+00 
163 2 4 2.2559723595316457e+00 -6.8140145980310399e+02 1.0000000000000000e+00 1.6000000000000000e+01 4.0000000000000000e+00 2.5000000000000000e+00 
164 2 4 2.2559723595316457e+00 -2.1334401106869695e+03 1.0000000000000000e+00 1.6000000000000000e+01 6.0000000000000000e+00 2.5000000000000000e+00 
165 2 4 2.2559723595316457e+00 -4.6348549266999971e+03 1.0000000000000000e+00 1.6000000000000000e+01 8.0000000000000000e+00 2.5000000000000000e+00 
181 2 4 2.2559723595316457e+00 -5.2662864196432508e+00 1.0000000000000000e+00 1.8000000000000000e+01 0.0000000000000000e+00 2.5000000000000000e+00 
182 2 4 2.2559723595316457e+00 -1.5902207004551298e+02 1.0000000000000000e+00 1.8000000000000000e+01 2.0000000000000000e+00 2.5000000000000000e+00 
183 2 4 2.2559723595316457e+00 -8.9391659288163567e+02 1.0000000000000000e+00 1.8000000000000000e+01 4.0000000000000000e+00 2.5000000000000000e+00 
184 2 4 2.2559723595316457e+00 -2.7408294174562097e+03 1.0000000000000000e+00 1.8000000000000000e+01 6.0000000000000000e+00 2.5000000000000000e+00 
185 2 4 2.2559723595316457e+00 -5.8945179870338570e+03 1.0000000000000000e+00 1.8000000000000000e+01 8.0000000000000000e+00 2.5000000000000000e+00 
6 2 4 2.2559723595316457e+00 0.0000000000000000e+00 1.0000000000000000e+00 0.0000000000000000e+00 1.0000000000000000e+01 2.5000000000000000e+00 
7 2 4 2.2559723595316457e+00 0.0000000000000000e+00 1.0000000000000000e+00 0.0000000000000000e+00 1.2000000000000000e+01 2.5000000000000000e+00 
8 2 4 2.2559723595316457e+00 0.0000000000000000e+00 1.0000000000000000e+00 0.0000000000000000e+00 1.4000000000000000e+01 2.5000000000000000e+00 
9 2 4 2.2559723595316457e+00 0.0000000000000000e+00 1.0000000000000000e+00 0.0000000000000000e+00 1.6000000000000000e+01 2.5000000000000000e+00 
10 2 4 2.2559723595316457e+00 0.0000000000000000e+00 1.0000000000000000e+00 0.0000000000000000e+00 1.8000000000000000e+01 2.5000000000000000e+00 
26 2 4 2.2559723595316457e+00 0.0000000000000000e+00 1.0000000000000000e+00 2.0000000000000000e+00 1.0000000000000000e+01 2.5000000000000000e+00 
27 2 4 2.2559723595316457e+00 0.0000000000000000e+00 1.0000000000000000e+00 2.0000000000000000e+00 1.2000000000000000e+01 2.5000000000000000e+00 
28 2 4 2.2559723595316457e+00 0.0000000000000000e+00 1.0000000000000000e+00 2.0000000000000000e+00 1.4000000000000000e+01 2.5000000000000000e+00 
29 2 4 2.2559723595316457e+00 0.0000000000000000e+00 1.0000000000000000e+00 2.0000000000000000e+00 1.6000000000000000e+01 2.5000000000000000e+00 
30 2 4 2.2559723595316457e+00 0.0000000000000000e+00 1.0000000000000000e+00 2.0000000000000000e+00 1.8000000000000000e+01 2.5000000000000000e+00 
46 2 4 2.2559723595316457e+00 0.0000000000000000e+00 1.0000000000000000e+00 4.0000000000000000e+00 1.0000000000000000e+01 2.5000000000000000e+00 
47 2 4 2.2559723595316457e+00 0.0000000000000000e+00 1.0000000000000000e+00 4.0000000000000000e+00 1.2000000000000000e+01 2.5000000000000000e+00 
48 2 4 2.2559723595316457e+00 0.0000000000000000e+00 1.0000000000000000e+00 4.0000000000000000e+00 1.4000000000000000e+01 2.5000000000000000e+00 
49 2 4 2.2559723595316457e+00 0.0000000000000000e+00 1.0000000000000000e+00 4.0000000000000000e+00 1.6000000000000000e+01 2.5000000000000000e+00 
50 2 4 2.2559723595316457e+00 0.0000000000000000e+00 1.0000000000000000e+00 4.0000000000000000e+00 1.8000000000000000e+01 2.5000000000000000e+00 
66 2 4 2.2559723595316457e+00 -3.7753045214837533e+00 1.0000000000000000e+00 6.0000000000000000e+00 1.0000000000000000e+01 2.5000000000000000e+00 
67 2 4 2.2559723595316457e+00 -5.5450682081232738e+00 1.0000000000000000e+00 6.0000000000000000e+00 1.2000000000000000e+01 2.5000000000000000e+00 
68 2 4 2.2559723595316457e+00 -6.0747336326327837e+00 1.0000000000000000e+00 6.0000000000000000e+00 1.4000000000000000e+01 2.5000000000000000e+00 
69 2 4 2.2559723595316457e+00 -6.2654407607108240e+00 1.0000000000000000e+00 6.0000000000000000e+00 1.6000000000000000e+01 2.5000000000000000e+00 
70 2 4 2.2559723595316457e+00 -6.3206665062774157e+00 1.0000000000000000e+00 6.0000000000000000e+00 1.8000000000000000e+01 2.5000000000000000e+00 
86 2 4 2.2559723595316457e+00 -1.2158274536905100e+02 1.0000000000000000e+00 8.0000000000000000e+00 1.0000000000000000e+01 2.5000000000000000e+00 
87 2 4 2.2559723595316457e+00 -1.7548012411546915e+02 1.0000000000000000e+00 8.0000000000000000e+00 1.2000000000000000e+01 2.5000000000000000e+00 
88 2 4 2.2559723595316457e+00 -2.0570812220684041e+02 1.0000000000000000e+00 8.0000000000000000e+00 1.4000000000000000e+01 2.5000000000000000e+00 
89 2 4 2.2559723595316457e+00 -2.1649819198828297e+02 1.0000000000000000e+00 8.0000000000000000e+00 1.6000000000000000e+01 2.5000000000000000e+00 
90 2 4 2.2559723595316457e+00 -2.1968596106465876e+02 1.0000000000000000e+00 8.0000000000000000e+00 1.8000000000000000e+01 2.5000000000000000e+00 
106 2 4 2.2559723595316457e+00 -7.1586751177947099e+02 1.0000000000000000e+00 1.0000000000000000e+01 1.0000000000000000e+01 2.5000000000000000e+00 
107 2 4 2.2559723595316457e+00 -1.0092449700571442e+03 1.0000000000000000e+00 1.0000000000000000e+01 1.2000000000000000e+01 2.5000000000000000e+00 
108 2 4 2.2559723595316457e+00 -1.1945023897928208e+03 1.0000000000000000e+00 1.0000000000000000e+01 1.4000000000000000e+01 2.5000000000000000e+00 
109 2 4 2.2559723595316457e+00 -1.2730972511258117e+03 1.0000000000000000e+00 1.0000000000000000e+01 1.6000000000000000e+01 2.5000000000000000e+00 
110 2 4 2.2559723595316457e+00 -1.2960048812021266e+03 1.0000000000000000e+00 1.0000000000000000e+01 1.8000000000000000e+01 2.5000000000000000e+00 
126 2 4 2.2559723595316457e+00 -2.2333989028106880e+03 1.0000000000000000e+00 1.2000000000000000e+01 1.0000000000000000e+01 2.5000000000000000e+00 
127 2 4 2.2559723595316457e+00 -3.1052658310208494e+03 1.0000000000000000e+00 1.2000000000000000e+01 1.2000000000000000e+01 2.5000000000000000e+00 
128 2 4 2.2559723595316457e+00 -3.6833121223605813e+03 1.0000000000000000e+00 1.2000000000000000e+01 1.4000000000000000e+01 2.5000000000000000e+00 
129 2 4 2.2559723595316457e+00 -3.9471899101290346e+03 1.0000000000000000e+00 1.2000000000000000e+01 1.6000000000000000e+01 2.5000000000000000e+00 
130 2 4 2.2559723595316457e+00 -4.0253399149481888e+03 1.0000000000000000e+00 1.2000000000000000e+01 1.8000000000000000e+01 2.5000000000000000e+00 
146 2 4 2.2559723595316457e+00 -4.7944011055436895e+03 1.0000000000000000e+00 1.4000000000000000e+01 1.0000000000000000e+01 2.5000000000000000e+00 
147 2 4 2.2559723595316457e+00 -6.6273399875731593e+03 1.0000000000000000e+00 1.4000000000000000e+01 1.2000000000000000e+01 2.5000000000000000e+00 
148 2 4 2.2559723595316457e+00 -7.8719532437302823e+03 1.0000000000000000e+00 1.4000000000000000e+01 1.4000000000000000e+01 2.5000000000000000e+00 
149 2 4 2.2559723595316457e+00 -8.4587178277343683e+03 1.0000000000000000e+00 1.4000000000000000e+01 1.6000000000000000e+01 2.5000000000000000e+00 
150 2 4 2.2559723595316457e+00 -8.6327513206486747e+03 1.0000000000000000e+00 1.4000000000000000e+01 1.8000000000000000e+01 2.5000000000000000e+00 
166 2 4 2.2559723595316457e+00 -7.7868274791220028e+03 1.0000000000000000e+00 1.6000000000000000e+01 1.0000000000000000e+01 2.5000000000000000e+00 
167 2 4 2.2559723595316457e+00 -1.0750129683437139e+04 1.0000000000000000e+00 1.6000000000000000e+01 1.2000000000000000e+01 2.5000000000000000e+00 
168 2 4 2.2559723595316457e+00 -1.2794104877541937e+04 1.0000000000000000e+00 1.6000000000000000e+01 1.4000000000000000e+01 2.5000000000000000e+00 
169 2 4 2.2559723595316457e+00 -1.3771229278835210e+04 1.0000000000000000e+00 1.6000000000000000e+01 1.6000000000000000e+01 2.5000000000000000e+00 
170 2 4 2.2559723595316457e+00 -1.4055973198637243e+04 1.0000000000000000e+00 1.6000000000000000e+01 1.8000000000000000e+01 2.5000000000000000e+00 
186 2 4 2.2559723595316457e+00 -9.8694535092413535e+03 1.0000000000000000e+00 1.8000000000000000e+01 1.0000000000000000e+01 2.5000000000000000e+00 
187 2 4 2.2559723595316457e+00 -1.3628048834996920e+04 1.0000000000000000e+00 1.8000000000000000e+01 1.2000000000000000e+01 2.5000000000000000e+00 
188 2 4 2.2559723595316457e+00 -1.6244423679485690e+04 1.0000000000000000e+00 1.8000000000000000e+01 1.4000000000000000e+01 2.5000000000000000e+00 
189 2 4 2.2559723595316457e+00 -1.7505303454500634e+04 1.0000000000000000e+00 1.8000000000000000e+01 1.6000000000000000e+01 2.5000000000000000e+00 
190 2 4 2.2559723595316457e+00 -1.7867449202538864e+04 1.0000000000000000e+00 1.8000000000000000e+01 1.8000000000000000e+01 2.5000000000000000e+00 
606 208 2 1.0279381285916822e+00 4.4680732221423841e+03 1.0000000000000000e+00 1.9045406343048956e+01 3.9002528947055701e+00 2.4190108809407182e+01 
671 273 2 1.0280120444962813e+00 -5.1215270353758970e+03 1.0000000000000000e+00 1.7955381183363802e+01 1.2640414951082437e+00 2.4628700537382507e+01 
953 555 2 1.0280882804643510e+00 5.3906305574217567e+03 1.0000000000000000e+00 1.9941153326341947e+01 5.0458962539711019e+00 2.3922396016560715e+01 
1073 675 2 1.0279287664214669e+00 -1.0113901133729019e+04 1.0000000000000000e+00 1.9237238739675565e+01 4.2989510419465500e+00 2.4137081595766340e+01 
1740 1342 2 1.0279049945081964e+00 6.9960906088570737e+03 1.0000000000000000e+00 1.8535565968901626e+01 6.3170482009948306e-02 2.4006967601697625e+01 
1132 734 2 1.0280232108095251e+00 3.8857633626046027e+03 1.0000000000000000e+00 1.9166771802861977e+01 7.6154742594497886e+00 2.4395713532429308e+01 
1859 1461 2 1.0278054405808630e+00 3.9254222183351790e+03 1.0000000000000000e+00 1.9185962536278392e+01 1.1709249043516635e+01 2.4489166283924110e+01 
1296 898 2 1.0278636141952739e+00 4.8761412332225555e+03 1.0000000000000000e+00 1.8748922788588608e+01 1.5635841148041465e+01 2.4941312853007453e+01 
1910 1512 2 1.0279056603808905e+00 3.6937153527099476e+03 1.0000000000000000e+00 1.9274563853153278e+01 1.3015372986788732e+01 2.4424967199937793e+01 
1690 1292 2 1.0279964445620613e+00 -1.1154971403494797e+03 1.0000000000000000e+00 1.9693697802079981e+01 1.0585353431216721e+01 2.3501043959726218e+01 
979 581 2 1.0279065859237568e+00 1.3353420593577891e+03 1.0000000000000000e+00 1.8223173832477602e+01 6.1140070968850244e+00 2.5606727402204612e+01 
862 464 2 1.0279978504298193e+00 1.6619079140315655e+03 1.0000000000000000e+00 1.7947155889574326e+01 6.3761889930596833e+00 2.6175767885819965e+01 
942 544 2 1.0280312174932793e+00 9.2833517681704889e+03 1.0000000000000000e+00 1.7844498812811324e+01 6.0472146864349590e+00 2.6210791649556150e+01 
1312 914 2 1.0278919913289997e+00 8.9965671549207527e+03 1.0000000000000000e+00 1.9918867567834003e+01 2.7657800383924620e+00 2.6483411079053550e+01 
1400 1002 2 1.0279519642435351e+00 8.4535489425652013e+03 1.0000000000000000e+00 1.9894651435488584e+01 3.6829260289937262e+00 2.7040800974507359e+01 
2067 1669 2 1.0280871136255543e+00 -1.2066065992465432e+04 1.0000000000000000e+00 1.9799718693315352e+01 3.2147568751961293e+00 2.7042585295377386e+01 
2066 1668 2 1.0280607631314815e+00 -1.2059766607314203e+04 1.0000000000000000e+00 1.7309115560743805e+01 5.6595430685426606e+00 2.6988862382340884e+01 
1751 1353 2 1.0280241303126749e+00 9.2968753259659331e+02 1.0000000000000000e+00 1.5868054356525207e+01 2.3848933360615901e-01 2.8988615211749295e+01 
1563 1165 2 1.0280052301426850e+00 1.3086482333146017e+04 1.0000000000000000e+00 1.9951750169561532e+01 5.2082190106235258e+00 2.7433613927276664e+01 
611 213 2 1.0278736819630787e+00 -3.0857135358304589e+02 1.0000000000000000e+00 1.9857844219499089e+01 4.8332028211041882e+00 2.7545549758442434e+01 
734 336 2 1.0278748674780731e+00 3.7574606230297622e+03 1.0000000000000000e+00 1.7888210278185085e+01 8.3435902176686323e+00 2.7438791743037832e+01 
899 501 2 1.0279216837313145e+00 1.2233307640921719e+04 1.0000000000000000e+00 1.6527702864373037e+01 4.6192451966424315e+00 2.7891561535878736e+01 
568 170 2 1.0280765630408903e+00 -1.0212859332106875e+04 1.0000000000000000e+00 1.6883009446679281e+01 5.7337674094736872e+00 2.8122699203644778e+01 
1565 1167 2 1.0279819062107036e+00 1.0527123366971144e+04 1.0000000000000000e+00 1.7410082313507793e+01 7.7118522400664169e+00 2.8289003115793804e+01 
1986 1588 2 1.0279378538604660e+00 -8.8530950435926604e+02 1.0000000000000000e+00 1.7789091642747817e+01 9.1340713309062131e+00 2.8159430950125039e+01 
955 557 2 1.0280107541490218e+00 6.8341408510195615e+03 1.0000000000000000e+00 1.9314297966529008e+01 5.4085234918641349e+00 2.8752675562223025e+01 
2032 1634 2 1.0279307908186759e+00 -6.1747645922637421e+03 1.0000000000000000e+00 1.8995963652230813e+01 3.3948951073938591e+00 2.8741931736041209e+01 
1516 1118 2 1.0279543837729794e+00 2.7317567937163271e+03 1.0000000000000000e+00 1.8765547954776782e+01 3.1909039095377705e+00 2.9001302796707296e+01 
1211 813 2 1.0278150036484202e+00 4.4789315270329498e+03 1.0000000000000000e+00 1.7212296318544649e+01 8.2975079124304596e+00 2.9073827551594118e+01 
1765 1367 2 1.0280509808842899e+00 4.0436648832311010e+02 1.0000000000000000e+00 1.6498398857668967e+01 4.4555996611619815e+00 2.9657879953781787e+01 
1708 1310 2 1.0279817702023557e+00 7.6638411534913585e+03 1.0000000000000000e+00 1.6870530037171214e+01 4.9198453248839327e+00 3.0052607008998081e+01 
421 23 2 1.0280304856704519e+00 -2.6196919794786595e+03 1.0000000000000000e+00 1.7041417053547310e+01 5.8454473379682153e+00 3.0260320394631286e+01 
1942 1544 2 1.0280063427054642e+00 1.4100939943880612e+03 1.0000000000000000e+00 1.5745968524935725e+01 1.1288401008227478e+00 2.9037950691643857e+01 
670 272 2 1.0279198647511969e+00 -5.1362274010586907e+03 1.0000000000000000e+00 1.6967902242872128e+01 6.8201809449749300e+00 3.0471255270404576e+01 
1405 1007 2 1.0280724863622599e+00 5.6409138905450436e+03 1.0000000000000000e+00 1.6000125515471712e+01 1.7938467883995137e+00 2.9408950754428947e+01 
1220 822 2 1.0280076623324366e+00 1.7311304377753081e+03 1.0000000000000000e+00 1.5816393095835682e+01 8.9599689456897591e-01 2.9097717461906242e+01 
1019 621 2 1.0280289118622983e+00 1.7593795826138053e+03 1.0000000000000000e+00 1.7446545934465860e+01 1.0739048856705711e+00 2.9350180774334298e+01 
1090 692 2 1.0280405181834789e+00 -6.8069225184994039e+03 1.0000000000000000e+00 1.7491652400720508e+01 5.0337152679411350e+00 3.0294604808388026e+01 
1440 1042 2 1.0280655854067793e+00 1.7311630821993117e+03 1.0000000000000000e+00 1.7239598629338662e+01 2.4141255011642699e+00 2.9883709672226651e+01 
1656 1258 2 1.0279642039046815e+00 -1.0592839919417468e+03 1.0000000000000000e+00 1.7359460308378470e+01 5.2112929572599960e+00 3.0320495063661458e+01 
1597 1199 2 1.0280750621032511e+00 2.6693200263407975e+03 1.0000000000000000e+00 1.7095592674675842e+01 4.9905746317509152e+00 3.0204270734509574e+01 
1860 1462 2 1.0280573512720141e+00 -6.0079714635414557e+03 1.0000000000000000e+00 1.6374389766986930e+01 9.3501811008358278e+00 3.1238644878732455e+01 
1451 1053 2 1.0279982982941205e+00 6.4359101233608690e+03 1.0000000000000000e+00 1.7081906175159471e+01 4.6490147052035997e+00 3.0175163095243899e+01 
697 299 2 1.0280027877598654e+00 1.0935621222829332e+04 1.0000000000000000e+00 1.6599076201121648e+01 1.6297929220878637e+00 2.9701695389945506e+01 
897 499 2 1.0280393746346712e+00 6.9675687041905385e+03 1.0000000000000000e+00 1.7077658467095677e+01 3.5353354187482791e+00 3.0085644493559201e+01 
807 409 2 1.0280192253356477e+00 -6.5161471571173195e+02 1.0000000000000000e+00 1.6705166482733723e+01 3.7811253624054713e+00 2.9978296670687744e+01 
892 494 2 1.0280626725382858e+00 5.9314392063300056e+03 1.0000000000000000e+00 1.6350515337416269e+01 2.1975991573896754e+00 2.9716362842882610e+01 
1510 1112 2 1.0280973260031550e+00 3.7009416112095585e+02 1.0000000000000000e+00 1.6322204528644185e+01 1.1748631829434117e+00 2.9509586033362098e+01 
1127 729 2 1.0279887720322958e+00 2.0808913095446605e+03 1.0000000000000000e+00 1.6855609339900518e+01 3.0199503730718185e+00 2.9996613016033056e+01 
1775 1377 2 1.0281450015583475e+00 -2.1562517942351260e+03 1.0000000000000000e+00 1.5994113329148368e+01 9.7743344938249355e-01 2.9279082579213139e+01 
1189 791 2 1.0280315961758395e+00 3.3160935299118278e+03 1.0000000000000000e+00 1.7224751574843186e+01 4.2019630339660612e+00 3.0168325713544679e+01 
556 158 2 1.0279027359944202e+00 -3.4720757508366009e+03 1.0000000000000000e+00 1.7203775791156080e+01 4.1056072620843986e+00 3.0158484113989456e+01 
762 364 2 1.0280665976437766e+00 6.7550416705978923e+03 1.0000000000000000e+00 1.6287194047637499e+01 1.1062667276839016e+00 2.9478721182402179e+01 
485 87 2 1.0280047535770573e+00 -9.1560443407358016e+03 1.0000000000000000e+00 1.7559575899722432e+01 5.6977255565168532e+00 3.0456777308384162e+01 
1472 1074 2 1.0280376027432250e+00 2.2512195509129829e+03 1.0000000000000000e+00 1.6765240394314166e+01 2.4934764328079848e+00 2.9906685842802943e+01 
1997 1599 2 1.0280029268153374e+00 -9.1451142599118066e+03 1.0000000000000000e+00 1.6816367689038717e+01 2.9482607736622559e+00 2.9979870509153319e+01 
1018 620 2 1.0279055870497871e+00 1.7714635852963779e+03 1.0000000000000000e+00 1.7034685271257640e+01 3.5992789999459123e+00 3.0088658368085255e+01 
1616 1218 2 1.0280919017023751e+00 2.9370981236636703e+02 1.0000000000000000e+00 1.6497583739282224e+01 3.1610593528726763e+00 2.9856603100757965e+01 
505 107 2 1.0280825072325930e+00 -4.8892881221337793e+03 1.0000000000000000e+00 1.6110144554707848e+01 1.9950105973359991e+00 2.9527734366951606e+01 
1748 1350 2 1.0280929254307607e+00 2.4780427454606947e+03 1.0000000000000000e+00 1.6196605093855279e+01 2.0021591926304874e+00 2.9596710732570731e+01 
1460 1062 2 1.0279936622902317e+00 5.3346807697100194e+03 1.0000000000000000e+00 1.7416388052454728e+01 5.1629350421830749e+00 3.0317905221566310e+01 
672 274 2 1.0280952583290917e+00 -8.0267735056155034e+03 1.0000000000000000e+00 1.7304160936833512e+01 4.8503998045080685e+00 3.0251964691990153e+01 
1776 1378 2 1.0279822000639027e+00 -3.8462945526595909e+03 1.0000000000000000e+00 1.6950286964539504e+01 3.5148233214851157e+00 3.0064412379617558e+01 
1081 683 2 1.0279840120060937e+00 3.8594318644704066e+02 1.0000000000000000e+00 1.7117436362162429e+01 4.3877662392624703e+00 3.0167771939611136e+01 
787 389 2 1.0279824134634235e+00 4.0532358673915969e+03 1.0000000000000000e+00 1.6865204572996053e+01 3.5437931184967639e+00 3.0044078699076685e+01 
739 341 2 1.0280476896088506e+00 4.6299605132732613e+03 1.0000000000000000e+00 1.6826981136549392e+01 3.3822792441110807e+00 3.0020972371651599e+01 
1450 1052 2 1.0279591609894256e+00 6.4448078137507464e+03 1.0000000000000000e+00 1.6949924127735137e+01 3.8607158889085014e+00 3.0088294979543750e+01 
1265 867 2 1.0279257378002744e+00 5.2250020456274415e+03 1.0000000000000000e+00 1.6777582035290013e+01 3.2030646446390065e+00 2.9994648403181891e+01 
2075 1677 2 1.0279489820708994e+00 -4.7338835312963893e+03 1.0000000000000000e+00 1.6525906348512994e+01 1.8579494218432173e+00 2.9736457486574388e+01 
1334 936 2 1.0279394277120300e+00 -1.8925025031190410e+02 1.0000000000000000e+00 1.6988377928375581e+01 4.0699175886081367e+00 3.0111596445356604e+01 
1080 682 2 1.0280074836916362e+00 1.2809668464521587e+03 1.0000000000000000e+00 1.6894538743593269e+01 3.7231006145501975e+00 3.0062875050457041e+01 
1926 1528 2 1.0279922746622085e+00 -1.1808168674735396e+04 1.0000000000000000e+00 1.7142227449223910e+01 4.7149039974313451e+00 3.0201170606666025e+01 
1538 1140 2 1.0279608374184999e+00 1.6729008967272573e+04 1.0000000000000000e+00 1.7055979886738992e+01 4.3959076381592803e+00 3.0150910340191135e+01 
1032 634 2 1.0280491380919348e+00 1.2716924794129354e+04 1.0000000000000000e+00 1.6689547349330226e+01 3.0354731246623787e+00 2.9949797382204395e+01 
484 86 2 1.0279476953600202e+00 -1.5013615388571918e+04 1.0000000000000000e+00 1.6737591656311796e+01 3.1717650570232596e+00 2.9978593161269153e+01 
574 176 2 1.0279148330558017e+00 9.6330300479711093e+02 1.0000000000000000e+00 1.6952619208835980e+01 3.9520830653937598e+00 3.0094635780453736e+01 
1430 1032 2 1.0280150403686992e+00 3.8556937802112479e+03 1.0000000000000000e+00 1.6796917505637140e+01 3.3914084987034094e+00 3.0012175472478894e+01 
1252 854 2 1.0279890305021671e+00 3.6905004417522372e+02 1.0000000000000000e+00 1.6599676352160607e+01 2.6516850261676650e+00 2.9882730072278523e+01 
792 394 2 1.0280034862902885e+00 -7.1202242990690263e+02 1.0000000000000000e+00 1.6787076130540893e+01 3.4504195925598151e+00 3.0011973299576056e+01 
711 313 2 1.0277823332664955e+00 3.5275069190827389e+03 1.0000000000000000e+00 1.6619484691559560e+01 3.4304222070079220e+00 2.9936295323850072e+01 
2078 1680 2 1.0279843989204946e+00 -1.9795180942328159e+03 1.0000000000000000e+00 1.6334935266260729e+01 2.6471299067975753e+00 2.9740914136779377e+01 
717 319 2 1.0280841497044371e+00 3.6168873353363256e+03 1.0000000000000000e+00 1.6737541345696300e+01 3.3763888495869292e+00 2.9987874494120678e+01 
1009 611 2 1.0279886486238885e+00 2.6598222301803471e+03 1.0000000000000000e+00 1.7155106111513440e+01 4.6762608369813137e+00 3.0201698681120710e+01 
1158 760 2 1.0279525153069102e+00 1.7660111632760306e+03 1.0000000000000000e+00 1.6483863578038129e+01 2.1899936146594494e+00 2.9780282222106514e+01 
1386 988 2 1.0279028584412806e+00 -3.6957145514703589e+03 1.0000000000000000e+00 1.6263544128727094e+01 1.3489857027372201e+00 2.9530173130948963e+01 
847 449 2 1.0280412480638221e+00 1.2509417876182388e+04 1.0000000000000000e+00 1.7194724485961341e+01 4.8203503622286368e+00 3.0225986895173410e+01 
786 388 2 1.0280219131384669e+00 4.0460960918336259e+03 1.0000000000000000e+00 1.6412303233585664e+01 2.1764727823454173e+00 2.9746180367304351e+01 
1435 1037 2 1.0280832985665627e+00 5.5778665125815287e+03 1.0000000000000000e+00 1.6323207469465999e+01 2.0164025957906806e+00 2.9678262711914567e+01 
2012 1614 2 1.0279810564387872e+00 -9.5035616751970610e+03 1.0000000000000000e+00 1.6417521269526453e+01 2.2792665081871908e+00 2.9762286903405936e+01 
1688 1290 2 1.0279631123483126e+00 -4.1796958714952171e+02 1.0000000000000000e+00 1.7446372024076584e+01 6.2215213322351808e+00 3.0644853234865700e+01 
2052 1654 2 1.0279491462884123e+00 2.9917576694977583e+03 1.0000000000000000e+00 1.6278170447208858e+01 2.1257675648444274e+00 2.9667349118072597e+01 
1541 1143 2 1.0280451295400548e+00 6.3509244800490733e+03 1.0000000000000000e+00 1.6244436001320725e+01 1.5917835941298786e+00 2.9567865930331973e+01 
720 322 2 1.0280680119320655e+00 3.6119411727246143e+03 1.0000000000000000e+00 1.6234466699458878e+01 1.7938861664993306e+00 2.9595605797094393e+01 
796 398 2 1.0280552047538316e+00 -7.0141860796355440e+03 1.0000000000000000e+00 1.6312453407970278e+01 2.0611648349053668e+00 2.9678627876740599e+01 
1213 815 2 1.0280311681067311e+00 8.4428721850337970e+03 1.0000000000000000e+00 1.5927639174400422e+01 9.7268434934011616e-01 2.9224879124763742e+01 
1756 1358 2 1.0279597649021688e+00 -5.1051023457030278e+03 1.0000000000000000e+00 1.6039873243368145e+01 1.2841101035248537e+00 2.9379612174104771e+01 
1381 983 2 1.0280324702533379e+00 8.4409076786870719e+03 1.0000000000000000e+00 1.6009294085736091e+01 1.3122427920901178e+00 2.9358719699639657e+01 
539 141 2 1.0279076088053707e+00 -2.0034752789449165e+03 1.0000000000000000e+00 1.7161927726538025e+01 4.5665392757240459e+00 3.0195167211912054e+01 
1627 1229 2 1.0280070837370368e+00 4.0504279295984024e+03 1.0000000000000000e+00 1.7450999099300425e+01 6.3902972525425366e+00 3.0729450919950121e+01 