LAMMPS data file via write_data, version 30 Jul 2016, timestep = 500000000

180 atoms
2 atom types

0.0000000000000000e+00 2.0000000000000000e+01 xlo xhi
0.0000000000000000e+00 2.0000000000000000e+01 ylo yhi
0.0000000000000000e+00 2.0000000000000000e+01 zlo zhi

Masses

1 3.896
2 4.31

Atoms # meso-molecular

79 1 2 1.0280000000000062e+00 -2.1430775936683677e+07 1.0000000000000000e+00 3.0922630834809428e-01 2.5728230091900199e+00 1.5687202887639133e+00 
43 1 2 1.0280000000000029e+00 -2.0417616196302019e+07 1.0000000000000000e+00 1.9279359921436995e-01 2.5910383249010787e+00 1.5795612703047799e+00 
120 1 2 1.0279999999999998e+00 -2.4230612031066373e+07 1.0000000000000000e+00 6.9362828275943822e-01 2.8045624880829498e+00 1.4625325279400745e+00 
80 1 2 1.0280000000000025e+00 -1.5756540578965403e+07 1.0000000000000000e+00 6.7780677353126251e-01 3.3366170834055278e+00 1.2962735798482949e+00 
11 1 2 1.0284007585601720e+00 -2.3736999541392554e+07 1.0000000000000000e+00 4.7488104504127078e+00 5.1319483292650148e+00 1.1356393522002783e+01 
88 1 2 1.0284007585601735e+00 -1.2657476738727733e+07 1.0000000000000000e+00 4.7488104504127122e+00 5.1319483292650370e+00 1.1356393522002758e+01 
87 1 2 1.0272742249362501e+00 -1.9932818595223684e+07 1.0000000000000000e+00 4.2612473973942961e+00 5.4091963820056321e+00 1.1994385756557371e+01 
58 1 2 1.0272742249362512e+00 -2.1500907640667394e+07 1.0000000000000000e+00 4.2612473973942890e+00 5.4091963820056295e+00 1.1994385756557351e+01 
52 1 2 1.0272742249362501e+00 -2.0924749515955430e+07 1.0000000000000000e+00 4.2612473973942926e+00 5.4091963820056312e+00 1.1994385756557365e+01 
51 1 2 1.0272742249362523e+00 -2.1948512171370093e+07 1.0000000000000000e+00 4.2612473973943006e+00 5.4091963820056419e+00 1.1994385756557362e+01 
12 1 2 1.0272742249362496e+00 -2.3883224364182796e+07 1.0000000000000000e+00 4.2612473973942970e+00 5.4091963820056375e+00 1.1994385756557376e+01 
5 1 2 1.0285228983822026e+00 -2.2890173074054182e+07 1.0000000000000000e+00 6.4820580345758119e+00 6.6829560363752369e+00 1.1077559868047295e+01 
82 1 2 1.0285228983822019e+00 -1.3645541646061797e+07 1.0000000000000000e+00 6.4820580345758056e+00 6.6829560363752458e+00 1.1077559868047292e+01 
16 1 2 1.0285228983821990e+00 -1.3125669821481887e+07 1.0000000000000000e+00 6.4820580345758074e+00 6.6829560363752600e+00 1.1077559868047304e+01 
17 1 2 1.0285228983822030e+00 -1.2649193789061112e+07 1.0000000000000000e+00 6.4820580345758163e+00 6.6829560363752272e+00 1.1077559868047301e+01 
22 1 2 1.0285228983822026e+00 -1.3412881307666821e+07 1.0000000000000000e+00 6.4820580345758012e+00 6.6829560363752298e+00 1.1077559868047294e+01 
10 1 2 1.0280000000000009e+00 -2.0751821423933543e+07 1.0000000000000000e+00 1.1600149439250127e+00 3.6112423591240335e+00 1.6519660472864633e+01 
18 1 2 1.0280000000000009e+00 -1.1776778274700319e+07 1.0000000000000000e+00 1.1612194024133811e+00 3.6479528774468513e+00 1.6524604582173477e+01 
31 1 2 1.0280000000000007e+00 -1.8439675554637201e+07 1.0000000000000000e+00 1.1615557587669250e+00 3.6558267355483638e+00 1.6526172022776084e+01 
25 1 2 1.0280000000000007e+00 -1.7594168444097407e+07 1.0000000000000000e+00 1.1616163104529622e+00 3.6557462475601388e+00 1.6526174007449693e+01 
36 1 2 1.0280000000000005e+00 -2.0054690295867592e+07 1.0000000000000000e+00 1.1614000386919614e+00 3.6560428739809012e+00 1.6526168857757092e+01 
67 1 2 1.0280000000000009e+00 -1.2483571381394144e+07 1.0000000000000000e+00 1.1379459667019176e+00 3.6505338510994800e+00 1.6519020129257648e+01 
151 1 2 1.0279999999999996e+00 -1.6218795438398499e+07 1.0000000000000000e+00 5.3057622803461502e-01 3.0721356442533119e+00 1.9224559367339154e+01 
162 1 2 1.0279999999999998e+00 -1.7840560507833268e+07 1.0000000000000000e+00 5.3058719249267960e-01 3.0721413120317158e+00 1.9224560487133832e+01 
157 1 2 1.0279999999999998e+00 -1.7052547660448782e+07 1.0000000000000000e+00 5.3057511471725305e-01 3.0721344808436055e+00 1.9224559466894689e+01 
49 1 2 1.0280000000000031e+00 -2.4355640426136315e+07 1.0000000000000000e+00 6.5893887187597144e-01 3.4107628431492385e+00 1.8131855295374120e+01 
19 1 2 1.0279999999999991e+00 -2.9378990517964553e+07 1.0000000000000000e+00 6.5894441636103085e-01 3.4108195149846265e+00 1.8131857179786369e+01 
27 1 2 1.0279999999999840e+00 -1.9014719506575648e+07 1.0000000000000000e+00 4.9125212465481143e+00 1.2094255153252927e+01 6.3961811540124929e+00 
20 1 2 1.0280000000000158e+00 -2.3149749252027191e+07 1.0000000000000000e+00 4.9125212465417292e+00 1.2094255153270186e+01 6.3961811540287679e+00 
26 1 2 1.0279999999999931e+00 -1.8990459545567974e+07 1.0000000000000000e+00 6.2796695895220980e+00 1.2515493820519564e+01 5.1711174405952516e+00 
57 1 2 1.0279999999999860e+00 -2.4719852391442403e+07 1.0000000000000000e+00 6.2796695843622512e+00 1.2515493812529520e+01 5.1711174389577081e+00 
56 1 2 1.0280000000000120e+00 -2.0045488256078519e+07 1.0000000000000000e+00 6.2796695920057521e+00 1.2515493827567610e+01 5.1711174398429796e+00 
15 1 2 1.0280000000000111e+00 -2.1375290072739121e+07 1.0000000000000000e+00 4.9125212464997583e+00 1.2094255153292757e+01 6.3961811540105060e+00 
62 1 2 1.0279999999999934e+00 -1.8582164367491368e+07 1.0000000000000000e+00 6.2796695916763765e+00 1.2515493826787040e+01 5.1711174398685378e+00 
21 1 2 1.0279999999999994e+00 -2.0886292271277662e+07 1.0000000000000000e+00 4.9125212465236299e+00 1.2094255153276960e+01 6.3961811540168565e+00 
14 1 2 1.0280000000000009e+00 -2.1408321142639138e+07 1.0000000000000000e+00 5.4399022513519624e+00 1.3862584909534375e+01 6.0192087455271270e+00 
68 1 2 1.0280000000000078e+00 -1.6859194163665701e+07 1.0000000000000000e+00 5.4398525359276313e+00 1.3862602794816192e+01 6.0190663553179808e+00 
33 1 2 1.0280000000000078e+00 -1.6957416283579420e+07 1.0000000000000000e+00 5.4398525359276313e+00 1.3862602794816192e+01 6.0190663553179808e+00 
32 1 2 1.0280000000000078e+00 -1.8319590556820497e+07 1.0000000000000000e+00 5.4398525359276313e+00 1.3862602794816192e+01 6.0190663553179808e+00 
123 1 2 1.0279999999999976e+00 -1.2611208623855645e+07 1.0000000000000000e+00 3.0638392018596439e+00 1.0098670848446366e+01 7.9678060685576995e+00 
165 1 2 1.0279999999999976e+00 -2.0157628788251951e+07 1.0000000000000000e+00 3.0638392018596439e+00 1.0098670848446366e+01 7.9678060685576995e+00 
160 1 2 1.0279999999999976e+00 -2.2008446606515680e+07 1.0000000000000000e+00 3.0638392018596439e+00 1.0098670848446366e+01 7.9678060685576995e+00 
159 1 2 1.0279999999999976e+00 -1.6479120764338767e+07 1.0000000000000000e+00 3.0638392018596439e+00 1.0098670848446366e+01 7.9678060685576995e+00 
166 1 2 1.0279999999999976e+00 -2.1670595203909203e+07 1.0000000000000000e+00 3.0638392018596439e+00 1.0098670848446366e+01 7.9678060685576995e+00 
152 1 2 1.0279999999999976e+00 -1.7155148358327113e+07 1.0000000000000000e+00 3.0638392018596439e+00 1.0098670848446366e+01 7.9678060685576995e+00 
158 1 2 1.0279999999999976e+00 -1.7427288168262769e+07 1.0000000000000000e+00 3.0638392018596439e+00 1.0098670848446366e+01 7.9678060685576995e+00 
38 1 2 1.0279999999999996e+00 -1.8021277456775170e+07 1.0000000000000000e+00 8.6200474621546430e+00 1.9402490349555848e-01 8.6322088758059738e+00 
3 1 2 1.0279999999999994e+00 -2.2606607353300322e+07 1.0000000000000000e+00 8.6212956413263218e+00 1.9626379905891078e-01 8.6308373666372944e+00 
39 1 2 1.0279999999999998e+00 -1.8907132895014606e+07 1.0000000000000000e+00 7.7367668095694722e+00 6.6548455260526607e-01 8.5877494573054705e+00 
45 1 2 1.0279999999999987e+00 -2.2298382314078286e+07 1.0000000000000000e+00 8.6254665061756555e+00 2.0401676721391587e-01 8.6258156101078072e+00 
76 1 2 1.0280000000000005e+00 -1.9872539238021538e+07 1.0000000000000000e+00 7.7282609924486385e+00 6.4934950444936756e-01 8.5911478861196322e+00 
40 1 2 1.0279999999999987e+00 -1.8223615110969044e+07 1.0000000000000000e+00 7.7262172133993570e+00 6.4538569085817687e-01 8.5943136173343042e+00 
75 1 2 1.0280000000000007e+00 -1.7446761728862431e+07 1.0000000000000000e+00 7.7311571336689564e+00 6.5518062776253261e-01 8.5918110818015823e+00 
9 1 2 1.0279999999999996e+00 -2.3051608821542680e+07 1.0000000000000000e+00 8.6293573285182923e+00 2.1177806502269619e-01 8.6221095679581943e+00 
4 1 2 1.0274378326781493e+00 -2.1464059161856633e+07 1.0000000000000000e+00 8.2873177187342790e+00 6.9898845434322903e+00 9.7610136050107208e+00 
46 1 2 1.0274378326781539e+00 -1.3986016328994237e+07 1.0000000000000000e+00 8.2873177187342915e+00 6.9898845434322956e+00 9.7610136050107670e+00 
47 1 2 1.0274378326781537e+00 -1.5989050170639636e+07 1.0000000000000000e+00 8.2873177187342861e+00 6.9898845434322823e+00 9.7610136050107581e+00 
53 1 2 1.0274378326781499e+00 -1.5050090525182085e+07 1.0000000000000000e+00 8.2873177187342844e+00 6.9898845434322956e+00 9.7610136050107332e+00 
41 1 2 1.0274378326781544e+00 -2.2050774775481150e+07 1.0000000000000000e+00 8.2873177187343270e+00 6.9898845434323125e+00 9.7610136050108238e+00 
6 1 2 1.0274378326781564e+00 -2.2114199997724771e+07 1.0000000000000000e+00 8.2873177187342968e+00 6.9898845434323018e+00 9.7610136050107936e+00 
23 1 2 1.0280000000000042e+00 -2.0412191684576202e+07 1.0000000000000000e+00 1.1698038193282857e+01 5.5199110113311765e+00 1.7160546998322936e+01 
24 1 2 1.0280000000000249e+00 -2.2234242997164503e+07 1.0000000000000000e+00 1.0582417989154051e+01 5.6743257573931469e+00 1.6958019091463530e+01 
30 1 2 1.0279999999999796e+00 -2.1989634925205074e+07 1.0000000000000000e+00 1.0582417989160989e+01 5.6743257573300863e+00 1.6958019091472064e+01 
103 1 2 1.0280000000000091e+00 -1.7195022502129272e+07 1.0000000000000000e+00 1.1267508874338334e+01 4.8337849872920460e+00 1.7454965631048296e+01 
139 1 2 1.0280000000000038e+00 -1.5139212329474762e+07 1.0000000000000000e+00 1.1267508876430048e+01 4.8337849884098967e+00 1.7454965636753183e+01 
98 1 2 1.0280000000000018e+00 -1.7211149468490191e+07 1.0000000000000000e+00 1.1267508829534554e+01 4.8337849633050336e+00 1.7454965508311147e+01 
104 1 2 1.0279999999999907e+00 -1.8597082440334450e+07 1.0000000000000000e+00 1.1267508882155429e+01 4.8337849914606901e+00 1.7454965652254756e+01 
77 1 2 1.0280000000000011e+00 -2.2668585379077666e+07 1.0000000000000000e+00 1.0944524813298223e+01 5.5494228535316328e+00 1.8138041468110195e+01 
90 1 2 1.0279999999999996e+00 -2.6120883604347024e+07 1.0000000000000000e+00 1.1612487107242478e+01 8.3344758040604852e+00 1.7011969531507745e+01 
126 1 2 1.0279999999999996e+00 -2.2362996496988684e+07 1.0000000000000000e+00 1.1612487107242478e+01 8.3344758040604852e+00 1.7011969531507745e+01 
86 1 2 1.0279999999999796e+00 -1.8597941196563207e+07 1.0000000000000000e+00 1.0657920073119429e+01 7.8264721680053215e+00 1.8209296058403595e+01 
96 1 2 1.0279999999999996e+00 -1.4626039226949165e+07 1.0000000000000000e+00 1.1612487107242478e+01 8.3344758040604852e+00 1.7011969531507745e+01 
59 1 2 1.0279999999999900e+00 -1.6064655075192366e+07 1.0000000000000000e+00 1.0530914210414229e+01 7.6105273961537279e+00 1.8170844847488471e+01 
95 1 2 1.0279999999999996e+00 -1.7851708064008623e+07 1.0000000000000000e+00 1.1612487107242478e+01 8.3344758040604852e+00 1.7011969531507745e+01 
89 1 2 1.0279999999999996e+00 -1.6779269772626709e+07 1.0000000000000000e+00 1.1612487107242478e+01 8.3344758040604852e+00 1.7011969531507745e+01 
113 1 2 1.0280000000000078e+00 -2.2984984325482566e+07 1.0000000000000000e+00 1.0596323085420595e+01 7.7525918689414377e+00 1.8188835348694862e+01 
60 1 2 1.0279999999999732e+00 -1.9194804962911636e+07 1.0000000000000000e+00 1.0649408645246837e+01 7.7759515299277826e+00 1.8219923910108832e+01 
64 1 2 1.0280000000000034e+00 -1.8654850561016247e+07 1.0000000000000000e+00 9.5866663700857870e+00 1.5481909798838489e+01 9.0646098518788971e+00 
63 1 2 1.0280000000000071e+00 -1.6675624191933608e+07 1.0000000000000000e+00 9.5868958562093258e+00 1.5481022282655514e+01 9.0643778379722306e+00 
69 1 2 1.0279999999999805e+00 -1.9614987378982667e+07 1.0000000000000000e+00 9.5868056034225955e+00 1.5481390009047526e+01 9.0645837554454580e+00 
70 1 2 1.0279999999999969e+00 -1.7071363872423880e+07 1.0000000000000000e+00 9.5866442393679296e+00 1.5482010434098765e+01 9.0647187570294996e+00 
99 1 2 1.0280000000000034e+00 -1.9404831082281712e+07 1.0000000000000000e+00 9.5867585871414338e+00 1.5481536279809053e+01 9.0644205563011759e+00 
100 1 2 1.0280000000000087e+00 -1.7729742488520406e+07 1.0000000000000000e+00 1.1295866974583902e+01 1.5943721683959662e+01 8.9864233505516964e+00 
142 1 2 1.0279999999999883e+00 -1.5190658126459252e+07 1.0000000000000000e+00 1.1296102740559798e+01 1.5942844699853865e+01 8.9864051071774274e+00 
105 1 2 1.0280000000000014e+00 -1.8261791722634345e+07 1.0000000000000000e+00 1.1295912797082421e+01 1.5943548170439060e+01 8.9863992576844200e+00 
141 1 2 1.0279999999999978e+00 -1.7974015010696147e+07 1.0000000000000000e+00 1.1295831120103980e+01 1.5943845571559311e+01 8.9863726954246790e+00 
106 1 2 1.0279999999999945e+00 -1.6710736294454861e+07 1.0000000000000000e+00 1.1295832257713046e+01 1.5943857891714186e+01 8.9864705912263432e+00 
54 1 2 1.0279999999999994e+00 -1.2702225651886173e+07 1.0000000000000000e+00 9.7514071944964069e+00 1.6056128615483608e+01 1.8856496655301054e+01 
78 1 2 1.0280000000000007e+00 -1.8964146930778034e+07 1.0000000000000000e+00 9.7357500637207135e+00 1.6065874256111666e+01 1.8867668265379255e+01 
48 1 2 1.0279999999999996e+00 -1.2660666707748521e+07 1.0000000000000000e+00 9.7373623489304784e+00 1.6060345519013662e+01 1.8855647039227829e+01 
116 1 2 1.0279999999999998e+00 -1.9099261024348706e+07 1.0000000000000000e+00 9.7685640429990972e+00 1.6061762685758694e+01 1.8876471687806333e+01 
109 1 2 1.0279999999999998e+00 -2.5635249208889194e+07 1.0000000000000000e+00 9.7624410341267840e+00 1.6069242382364056e+01 1.8887297586524660e+01 
121 1 2 1.0280000000000007e+00 -1.6563889912992109e+07 1.0000000000000000e+00 9.7461186488275349e+00 1.6062390505776584e+01 1.8868483449481246e+01 
42 1 2 1.0280000000000000e+00 -1.7204063498173889e+07 1.0000000000000000e+00 9.7222065158926956e+00 1.6068027434427194e+01 1.8856698249739125e+01 
1 1 2 1.0279999999999991e+00 -2.3407246130826354e+07 1.0000000000000000e+00 1.0657214362972095e+01 1.8914386236205630e+01 1.7562412817253779e+01 
7 1 2 1.0279999999999991e+00 -2.0001990500829536e+07 1.0000000000000000e+00 1.0657219601447085e+01 1.8914378948749860e+01 1.7562400893516273e+01 
2 1 2 1.0280000000000000e+00 -2.0491100540628534e+07 1.0000000000000000e+00 1.0660507568643663e+01 1.8903530169104222e+01 1.7545553269209979e+01 
84 1 2 1.0279999999999980e+00 -2.2396703754136294e+07 1.0000000000000000e+00 1.0663311134909842e+01 1.8918763859079430e+01 1.7580999233237396e+01 
73 1 2 1.0279999999999982e+00 -2.1278249530903134e+07 1.0000000000000000e+00 1.0637100956525394e+01 1.8918616173853703e+01 1.7560669825874502e+01 
44 1 2 1.0280000000000005e+00 -1.6329371829004526e+07 1.0000000000000000e+00 1.0637482698716759e+01 1.8925715489648791e+01 1.7581277584036087e+01 
114 1 2 1.0280000000000009e+00 -2.0962885632690135e+07 1.0000000000000000e+00 1.0661824285189098e+01 1.8901889781873084e+01 1.7544051616577683e+01 
81 1 2 1.0279999999999982e+00 -1.5439320033510406e+07 1.0000000000000000e+00 1.9914123313742536e+01 2.1993719184175284e+00 9.7474132697854143e-01 
122 1 2 1.0279999999999969e+00 -2.1771874441548917e+07 1.0000000000000000e+00 1.9919029903527495e+01 2.2249620028833905e+00 1.0744093704836495e+00 
37 1 2 1.0280000000000016e+00 -2.5137374647945508e+07 1.0000000000000000e+00 1.9827184946815070e+01 3.6342690210547564e+00 6.8607442142598096e-01 
13 1 2 1.0280000000000038e+00 -3.0224215012057286e+07 1.0000000000000000e+00 1.9923360116662263e+01 3.6995665690039354e+00 6.1604672092055179e-01 
153 1 2 1.0154972261737549e+00 -1.5691272668469232e+07 1.0000000000000000e+00 1.6501911246951195e+01 2.5350627626406328e+00 8.6671593046814710e+00 
117 1 2 1.0154972261737549e+00 -1.3084927689806899e+07 1.0000000000000000e+00 1.6501911246951185e+01 2.5350627626406324e+00 8.6671593046814674e+00 
154 1 2 1.0154972261737549e+00 -1.5187421238230264e+07 1.0000000000000000e+00 1.6501911246951192e+01 2.5350627626406332e+00 8.6671593046814746e+00 
148 1 2 1.0154972261737549e+00 -1.6874247470038876e+07 1.0000000000000000e+00 1.6501911246951188e+01 2.5350627626406332e+00 8.6671593046814692e+00 
111 1 2 1.0154972261737549e+00 -1.8283308675460644e+07 1.0000000000000000e+00 1.6501911246951185e+01 2.5350627626406332e+00 8.6671593046814746e+00 
147 1 2 1.0154972261737549e+00 -1.7969495194495320e+07 1.0000000000000000e+00 1.6501911246951188e+01 2.5350627626406328e+00 8.6671593046814710e+00 
112 1 2 1.0154972261737549e+00 -1.5722251457099218e+07 1.0000000000000000e+00 1.6501911246951195e+01 2.5350627626406328e+00 8.6671593046814710e+00 
8 1 2 1.1808799552916576e+00 -1.7038596811092518e+07 1.0000000000000000e+00 1.3565096735874548e+01 6.4517431950670936e+00 1.0485685211992855e+01 
55 1 2 1.1808799552916576e+00 -2.4208070161819015e+07 1.0000000000000000e+00 1.3565096735874548e+01 6.4517431950670936e+00 1.0485685211992855e+01 
91 1 2 1.1808799552916576e+00 -2.1317707812144548e+07 1.0000000000000000e+00 1.3565096735874548e+01 6.4517431950670936e+00 1.0485685211992855e+01 
97 1 2 1.1808799552916576e+00 -2.5251439980923627e+07 1.0000000000000000e+00 1.3565096735874548e+01 6.4517431950670936e+00 1.0485685211992855e+01 
61 1 2 1.1808799552916576e+00 -2.4171039683121536e+07 1.0000000000000000e+00 1.3565096735874548e+01 6.4517431950670936e+00 1.0485685211992855e+01 
66 1 2 1.1808799552916576e+00 -1.5968332631797932e+07 1.0000000000000000e+00 1.3565096735874548e+01 6.4517431950670936e+00 1.0485685211992855e+01 
50 1 2 1.1808799552916576e+00 -1.7591613007925164e+07 1.0000000000000000e+00 1.3565096735874548e+01 6.4517431950670936e+00 1.0485685211992855e+01 
124 1 2 8.2110613154004830e-01 -1.8477397696566623e+07 1.0000000000000000e+00 1.5040408193942573e+01 7.5058688586439866e+00 1.0873030990249491e+01 
125 1 2 8.2110613154004830e-01 -1.6482110762124594e+07 1.0000000000000000e+00 1.5040408193942573e+01 7.5058688586439866e+00 1.0873030990249491e+01 
161 1 2 8.2110613154004830e-01 -1.8901228256612778e+07 1.0000000000000000e+00 1.5040408193942573e+01 7.5058688586439866e+00 1.0873030990249491e+01 
140 1 2 1.0279999999999980e+00 -1.2614850079420306e+07 1.0000000000000000e+00 1.8005378836483246e+01 1.9188727615228295e+01 1.7144997276833049e+00 
175 1 2 1.0279999999999980e+00 -1.7047779237594672e+07 1.0000000000000000e+00 1.8005378836483246e+01 1.9188727615228295e+01 1.7144997276833049e+00 
145 1 2 1.0279999999999980e+00 -1.7344967452720199e+07 1.0000000000000000e+00 1.8005378836483246e+01 1.9188727615228295e+01 1.7144997276833049e+00 
29 1 2 1.0280000000000047e+00 -1.1001183580630116e+07 1.0000000000000000e+00 1.8969170169922716e+01 1.8528335044265482e+01 9.0974583348603644e-01 
34 1 2 1.0279999999999965e+00 -1.1231864999984708e+07 1.0000000000000000e+00 1.8969170170212379e+01 1.8528335044261837e+01 9.0974583385428942e-01 
35 1 2 1.0279999999999965e+00 -1.3567864048472580e+07 1.0000000000000000e+00 1.8969170170212379e+01 1.8528335044261837e+01 9.0974583385428942e-01 
28 1 2 1.0279999999999965e+00 -1.0293447369749701e+07 1.0000000000000000e+00 1.8969170170212379e+01 1.8528335044261837e+01 9.0974583385428942e-01 
115 1 2 1.0279999999999980e+00 -1.9260241678448968e+07 1.0000000000000000e+00 1.7969779656817870e+01 1.9163288308530348e+01 1.6835640394962172e+00 
74 1 2 1.0279999999999976e+00 -2.5321483522562668e+07 1.0000000000000000e+00 1.8721572307169815e+01 1.9551161640899473e+01 1.0279999886838498e+00 
128 1 2 1.0280000000381380e+00 -2.1247446199602488e+07 1.0000000000000000e+00 1.9740092143348143e+01 1.5023339387873007e+01 6.1581069950437364e+00 
134 1 2 1.0280000000381380e+00 -1.9199235241805241e+07 1.0000000000000000e+00 1.9740092143348143e+01 1.5023339387873007e+01 6.1581069950437364e+00 
129 1 2 1.0280000000381380e+00 -1.9032471441844244e+07 1.0000000000000000e+00 1.9740092143348143e+01 1.5023339387873007e+01 6.1581069950437364e+00 
164 1 2 1.0280000000381380e+00 -2.2152117672179334e+07 1.0000000000000000e+00 1.9740092143348143e+01 1.5023339387873007e+01 6.1581069950437364e+00 
92 1 2 1.0280000000381380e+00 -1.4749811697802238e+07 1.0000000000000000e+00 1.9740092143348143e+01 1.5023339387873007e+01 6.1581069950437364e+00 
93 1 2 1.0280000000381380e+00 -1.4566707409584399e+07 1.0000000000000000e+00 1.9740092143348143e+01 1.5023339387873007e+01 6.1581069950437364e+00 
110 1 2 1.0279999999618510e+00 -2.5993223193687636e+07 1.0000000000000000e+00 1.8802660971915959e+01 1.7064145256610026e+01 5.4371637646566899e+00 
176 1 2 1.0279999999618497e+00 -1.5870001574765600e+07 1.0000000000000000e+00 1.8802655678689320e+01 1.7064141974981194e+01 5.4371613576743227e+00 
170 1 2 1.0279999999618497e+00 -1.9852550422885731e+07 1.0000000000000000e+00 1.8802655678689320e+01 1.7064141974981194e+01 5.4371613576743227e+00 
177 1 2 1.0279999999618497e+00 -1.7007678664532799e+07 1.0000000000000000e+00 1.8802655678689320e+01 1.7064141974981194e+01 5.4371613576743227e+00 
171 1 2 1.0279999999618497e+00 -2.0719128941231932e+07 1.0000000000000000e+00 1.8802655678689320e+01 1.7064141974981194e+01 5.4371613576743227e+00 
146 1 2 1.0279999999618843e+00 -1.1245421524236595e+07 1.0000000000000000e+00 1.8802629159355515e+01 1.7064125447381048e+01 5.4371490580987274e+00 
130 1 2 1.0279999999999925e+00 -1.2780714104253698e+07 1.0000000000000000e+00 1.4403047735028315e+01 1.2283181157079262e+01 1.1541007315605929e+01 
131 1 2 1.0279999999999925e+00 -1.1719936687637862e+07 1.0000000000000000e+00 1.4403047735028315e+01 1.2283181157079262e+01 1.1541007315605929e+01 
136 1 2 1.0279999999999925e+00 -1.5351605724828662e+07 1.0000000000000000e+00 1.4403047735028315e+01 1.2283181157079262e+01 1.1541007315605929e+01 
94 1 2 1.0279999999999925e+00 -1.9143159815441892e+07 1.0000000000000000e+00 1.4403047735028315e+01 1.2283181157079262e+01 1.1541007315605929e+01 
135 1 2 1.0279999999999925e+00 -1.3953194182311302e+07 1.0000000000000000e+00 1.4403047735028315e+01 1.2283181157079262e+01 1.1541007315605929e+01 
107 1 2 1.0279999999999769e+00 -1.8727107664267480e+07 1.0000000000000000e+00 1.4926757510059161e+01 1.2167733448179280e+01 1.2590398244173182e+01 
101 1 2 1.0279999999999725e+00 -1.9664846809060745e+07 1.0000000000000000e+00 1.5574278182158789e+01 1.3430949138923685e+01 1.1533530849163304e+01 
71 1 2 1.0280000000000176e+00 -2.2868817115482800e+07 1.0000000000000000e+00 1.5969401415966470e+01 1.3529904973462545e+01 1.2779766054839463e+01 
65 1 2 1.0280000000000118e+00 -2.1648321963202618e+07 1.0000000000000000e+00 1.5972553803255845e+01 1.3532800765969791e+01 1.2775493198941037e+01 
102 1 2 1.0280000000000342e+00 -1.8764293981765389e+07 1.0000000000000000e+00 1.5969535641323327e+01 1.3530073187032615e+01 1.2779558204396359e+01 
108 1 2 1.0279999999999849e+00 -2.0546346152303904e+07 1.0000000000000000e+00 1.5970846855188892e+01 1.3531382514273167e+01 1.2777722898443731e+01 
72 1 2 1.0280000000000125e+00 -2.2377772678921454e+07 1.0000000000000000e+00 1.5969766023871358e+01 1.3530344877935372e+01 1.2779211400635843e+01 
172 1 2 1.0280000000000014e+00 -2.2926566951821167e+07 1.0000000000000000e+00 1.7782901070778440e+01 1.5796769574064296e+01 1.1352662996205323e+01 
179 1 2 1.0280000000000014e+00 -2.2052433625397723e+07 1.0000000000000000e+00 1.7782901070778440e+01 1.5796769574064296e+01 1.1352662996205323e+01 
178 1 2 1.0280000000000014e+00 -2.0435903949692432e+07 1.0000000000000000e+00 1.7782901070778440e+01 1.5796769574064296e+01 1.1352662996205323e+01 
167 1 2 1.0280000000000014e+00 -1.9456470483544491e+07 1.0000000000000000e+00 1.7782901070778440e+01 1.5796769574064296e+01 1.1352662996205323e+01 
137 1 2 1.0280000000000014e+00 -1.9800684586440921e+07 1.0000000000000000e+00 1.7782901070778440e+01 1.5796769574064296e+01 1.1352662996205323e+01 
143 1 2 1.0280000000000014e+00 -2.0128653216949143e+07 1.0000000000000000e+00 1.7782901070778440e+01 1.5796769574064296e+01 1.1352662996205323e+01 
173 1 2 1.0280000000000014e+00 -2.0664429816168997e+07 1.0000000000000000e+00 1.7782901070778440e+01 1.5796769574064296e+01 1.1352662996205323e+01 
119 1 2 1.0280000000000000e+00 -1.1510602346827943e+07 1.0000000000000000e+00 1.4617780722240962e+01 1.8020702946588806e+01 1.2680483148750110e+01 
155 1 2 1.0280000000000000e+00 -1.3045402501017157e+07 1.0000000000000000e+00 1.4661183212725549e+01 1.7789067526679698e+01 1.2760415254814422e+01 
150 1 2 1.0279999999999998e+00 -1.6331780553713910e+07 1.0000000000000000e+00 1.4274108952776638e+01 1.7779661902003944e+01 1.3099193909541754e+01 
156 1 2 1.0280000000000000e+00 -2.2091808545332853e+07 1.0000000000000000e+00 1.5160806722645503e+01 1.8022172574919953e+01 1.3190867181642645e+01 
149 1 2 1.0279999999999998e+00 -1.5887293952941274e+07 1.0000000000000000e+00 1.4675964743067853e+01 1.8542061255702460e+01 1.3294778561919966e+01 
85 1 2 1.0280000000000005e+00 -1.3961508773287686e+07 1.0000000000000000e+00 1.4205510086428477e+01 1.8093995669063521e+01 1.3334259746293846e+01 
118 1 2 1.0280000000000000e+00 -1.4796378324103178e+07 1.0000000000000000e+00 1.5128096686029137e+01 1.8150491598200624e+01 1.3336218489347491e+01 
83 1 2 1.0280000000000002e+00 -2.3723860153195471e+07 1.0000000000000000e+00 1.4633872574364153e+01 1.8143660208768789e+01 1.3655166984963120e+01 
163 1 2 1.0154972261737549e+00 -1.8454007582583427e+07 1.0000000000000000e+00 1.5783669952263367e+01 1.1734374322367573e+01 1.9444188647010179e+01 
169 1 2 1.0154972261737549e+00 -1.8416362188080307e+07 1.0000000000000000e+00 1.5783669952263367e+01 1.1734374322367573e+01 1.9444188647010179e+01 
132 1 2 1.0154972261737549e+00 -2.0771472274784971e+07 1.0000000000000000e+00 1.5783669952263361e+01 1.1734374322367577e+01 1.9444188647010179e+01 
138 1 2 1.0154972261737549e+00 -2.5172667811024211e+07 1.0000000000000000e+00 1.5783669952263365e+01 1.1734374322367579e+01 1.9444188647010179e+01 
168 1 2 1.0154972261737549e+00 -2.1107644422401972e+07 1.0000000000000000e+00 1.5783669952263365e+01 1.1734374322367577e+01 1.9444188647010179e+01 
127 1 2 1.0154972261737549e+00 -2.3150998003043324e+07 1.0000000000000000e+00 1.5783669952263365e+01 1.1734374322367577e+01 1.9444188647010179e+01 
133 1 2 1.0154972261737549e+00 -2.2771188315074887e+07 1.0000000000000000e+00 1.5783669952263365e+01 1.1734374322367577e+01 1.9444188647010179e+01 
144 1 2 4.3521309693160926e-01 -1.5479485866980031e+07 1.0000000000000000e+00 1.7335126386189081e+01 1.5748512839526828e+01 1.7344829284492086e+01 
174 1 2 4.3521309693160926e-01 -1.6119577638638534e+07 1.0000000000000000e+00 1.7335126386189081e+01 1.5748512839526828e+01 1.7344829284492086e+01 
180 1 2 4.3521309693160926e-01 -1.6551233470080234e+07 1.0000000000000000e+00 1.7335126386189081e+01 1.5748512839526828e+01 1.7344829284492086e+01 

Velocities

79 1.3437132638822321e-12 -1.0663859196022316e-11 1.2032089645353090e-11
43 -5.1409106034413003e-13 -6.2818440594041184e-12 1.7162789614602865e-12
120 3.0089625275312833e-12 -4.5421657513054011e-12 2.2749255012810173e-12
80 -1.6186793652299024e-12 -7.5553783658854628e-12 -3.0892708422928217e-12
11 -3.7137008467834698e-01 -1.8982229438062856e+00 -1.1682191966915481e+00
88 -3.7137008467829502e-01 -1.8982229438102611e+00 -1.1682191966951934e+00
87 1.0851473851040667e+00 1.1120488185631476e+00 -6.4002511296385775e-02
58 1.0851473851038906e+00 1.1120488185631445e+00 -6.4002511295845083e-02
52 1.0851473851033553e+00 1.1120488185630262e+00 -6.4002511295679715e-02
51 1.0851473851013917e+00 1.1120488185626027e+00 -6.4002511294316292e-02
12 1.0851473851036044e+00 1.1120488185630346e+00 -6.4002511296182396e-02
5 -6.2547167607829934e-01 -3.0070091949111921e-01 3.0373202130793892e-01
82 -6.2547167607798393e-01 -3.0070091949202166e-01 3.0373202130713672e-01
16 -6.2547167607818877e-01 -3.0070091949226818e-01 3.0373202130717414e-01
17 -6.2547167607813814e-01 -3.0070091949117633e-01 3.0373202130754323e-01
22 -6.2547167607866538e-01 -3.0070091949047140e-01 3.0373202130876253e-01
10 1.7605465423582117e-12 8.9277064982776601e-13 -5.6999471803165036e-12
18 4.0256933910426009e-13 3.7061614006729966e-13 -1.0249728009407976e-12
31 -2.2054037712840264e-12 -1.5532539870655886e-12 7.6768416662441781e-12
25 -9.5278771837284999e-13 -6.6197374307044578e-13 3.4788700849388385e-12
36 -4.4897407035677918e-12 -3.1967685589075686e-12 1.5361302492043529e-11
67 1.0461997474172440e-12 7.3168600288298959e-13 -3.0585230580368270e-12
151 1.4092027583203267e-12 -1.7751789419876375e-12 -2.7019454586934449e-12
162 1.5297682653940996e-12 -1.9815422175428118e-12 -3.0811876387051819e-12
157 2.3385089300491998e-12 -3.3644935256070730e-12 -5.6228140853600138e-12
49 1.6028616552506697e-13 6.8233436729534017e-13 -5.5226784572386898e-12
19 3.9056705990863590e-12 -1.2466358628959098e-13 -8.4812521589870670e-12
27 4.1580674626701431e-11 2.8123639277224389e-11 -3.6349979118658590e-11
20 -2.5084641447099974e-11 -5.0911983357781939e-11 1.9912058204322056e-11
26 -3.5671485951337420e-11 -1.8399418763338350e-11 3.1525119540664189e-11
57 -3.2497864918470500e-11 -1.9842762892433532e-11 2.8537401171299726e-11
56 4.4983929695108280e-11 -5.5081040833370494e-11 -4.4405717613100765e-11
15 -2.4422828090214562e-11 -5.0127365000498263e-11 1.9353522371126971e-11
62 1.5725338343624443e-11 -4.1774400939160151e-11 -1.6861016331382753e-11
21 3.4033409604866169e-11 1.9175916141867236e-11 -2.9980482480680984e-11
14 -5.3129228347051190e-12 -4.4957905712723746e-11 2.1923716149278850e-12
68 -1.8072699658104478e-11 6.3222205106339821e-11 2.0278079450651131e-11
33 -1.8072699658104478e-11 6.3222205106339821e-11 2.0278079450651131e-11
32 -1.8072699658104478e-11 6.3222205106339821e-11 2.0278079450651131e-11
123 5.8406414208344126e-12 6.3041009658848848e-12 -4.9653593872101590e-12
165 5.8406414208344126e-12 6.3041009658848848e-12 -4.9653593872101590e-12
160 5.8406414208344126e-12 6.3041009658848848e-12 -4.9653593872101590e-12