LAMMPS data file via write_data, version 30 Jul 2016, timestep = 500400000

180 atoms
2 atom types

0.0000000000000000e+00 2.0000000000000000e+01 xlo xhi
0.0000000000000000e+00 2.0000000000000000e+01 ylo yhi
0.0000000000000000e+00 2.0000000000000000e+01 zlo zhi

Masses

1 3.896
2 4.31

Atoms # meso-molecular

79 1 2 1.0280000000000031e+00 -2.1430775936683677e+07 1.0000000000000000e+00 3.0922630834783538e-01 2.5728230091900199e+00 1.5687202887639495e+00 
43 1 2 1.0279999999999987e+00 -2.0417616196302019e+07 1.0000000000000000e+00 1.9279359921441155e-01 2.5910383249010787e+00 1.5795612703047972e+00 
120 1 2 1.0279999999999980e+00 -2.4230612031066373e+07 1.0000000000000000e+00 6.9362828275923916e-01 2.8045624880829498e+00 1.4625325279402177e+00 
80 1 2 1.0280000000000020e+00 -1.5756540578965403e+07 1.0000000000000000e+00 6.7780677353144492e-01 3.3366170834055278e+00 1.2962735798481018e+00 
11 1 2 1.0283825248181746e+00 -2.3734417829124786e+07 1.0000000000000000e+00 4.7407478042899349e+00 5.1257547246396911e+00 1.1358491485997959e+01 
88 1 2 1.0283825248181775e+00 -1.2654895026457079e+07 1.0000000000000000e+00 4.7407478042899296e+00 5.1257547246396920e+00 1.1358491485997975e+01 
87 1 2 1.0282340570732087e+00 -1.9937359218015168e+07 1.0000000000000000e+00 4.2636671952423431e+00 5.3981512911663128e+00 1.1983636965485397e+01 
58 1 2 1.0282340570732085e+00 -2.1505448263458885e+07 1.0000000000000000e+00 4.2636671952423422e+00 5.3981512911663163e+00 1.1983636965485399e+01 
52 1 2 1.0282340570732047e+00 -2.0929290138746928e+07 1.0000000000000000e+00 4.2636671952423395e+00 5.3981512911663216e+00 1.1983636965485426e+01 
51 1 2 1.0282340570732105e+00 -2.1953052794161584e+07 1.0000000000000000e+00 4.2636671952423457e+00 5.3981512911663057e+00 1.1983636965485386e+01 
12 1 2 1.0282340570732131e+00 -2.3887764986974288e+07 1.0000000000000000e+00 4.2636671952423697e+00 5.3981512911663083e+00 1.1983636965485401e+01 
5 1 2 1.0272835904150297e+00 -2.2888236650343463e+07 1.0000000000000000e+00 6.4855333529076971e+00 6.6936214030824344e+00 1.1082925692577748e+01 
82 1 2 1.0272835904150306e+00 -1.3643605222351274e+07 1.0000000000000000e+00 6.4855333529077015e+00 6.6936214030824157e+00 1.1082925692577758e+01 
16 1 2 1.0272835904150330e+00 -1.3123733397771357e+07 1.0000000000000000e+00 6.4855333529077361e+00 6.6936214030823953e+00 1.1082925692577767e+01 
17 1 2 1.0272835904150326e+00 -1.2647257365350585e+07 1.0000000000000000e+00 6.4855333529077024e+00 6.6936214030823837e+00 1.1082925692577767e+01 
22 1 2 1.0272835904150297e+00 -1.3410944883956295e+07 1.0000000000000000e+00 6.4855333529076953e+00 6.6936214030824299e+00 1.1082925692577753e+01 
10 1 2 1.0280000000000000e+00 -2.0751821423933543e+07 1.0000000000000000e+00 1.1600149439250127e+00 3.6112423591240335e+00 1.6519660472864633e+01 
18 1 2 1.0280000000000000e+00 -1.1776778274700319e+07 1.0000000000000000e+00 1.1612194024133811e+00 3.6479528774468513e+00 1.6524604582173477e+01 
31 1 2 1.0279999999999998e+00 -1.8439675554637201e+07 1.0000000000000000e+00 1.1615557587669250e+00 3.6558267355483638e+00 1.6526172022776084e+01 
25 1 2 1.0280000000000000e+00 -1.7594168444097407e+07 1.0000000000000000e+00 1.1616163104529622e+00 3.6557462475601388e+00 1.6526174007449693e+01 
36 1 2 1.0279999999999996e+00 -2.0054690295867592e+07 1.0000000000000000e+00 1.1614000386919614e+00 3.6560428739809012e+00 1.6526168857757092e+01 
67 1 2 1.0280000000000000e+00 -1.2483571381394144e+07 1.0000000000000000e+00 1.1379459667019176e+00 3.6505338510994800e+00 1.6519020129257648e+01 
151 1 2 1.0279999999999982e+00 -1.6218795438398499e+07 1.0000000000000000e+00 5.3057622803461502e-01 3.0721356442533119e+00 1.9224559367339154e+01 
162 1 2 1.0279999999999982e+00 -1.7840560507833268e+07 1.0000000000000000e+00 5.3058719249267960e-01 3.0721413120317158e+00 1.9224560487133832e+01 
157 1 2 1.0279999999999982e+00 -1.7052547660448782e+07 1.0000000000000000e+00 5.3057511471725305e-01 3.0721344808436055e+00 1.9224559466894689e+01 
49 1 2 1.0279999999999996e+00 -2.4355640426136315e+07 1.0000000000000000e+00 6.5893887187592626e-01 3.4107628431492385e+00 1.8131855295374120e+01 
19 1 2 1.0279999999999989e+00 -2.9378990517964553e+07 1.0000000000000000e+00 6.5894441636103362e-01 3.4108195149846265e+00 1.8131857179786369e+01 
27 1 2 1.0279999999999978e+00 -1.9014719506575648e+07 1.0000000000000000e+00 4.9125212465484385e+00 1.2094255153251888e+01 6.3961811540115505e+00 
20 1 2 1.0280000000000142e+00 -2.3149749252027191e+07 1.0000000000000000e+00 4.9125212465415293e+00 1.2094255153270105e+01 6.3961811540286231e+00 
26 1 2 1.0280000000000031e+00 -1.8990459545567974e+07 1.0000000000000000e+00 6.2796695895228165e+00 1.2515493820519689e+01 5.1711174405964524e+00 
57 1 2 1.0280000000000191e+00 -2.4719852391442403e+07 1.0000000000000000e+00 6.2796695843617165e+00 1.2515493812529549e+01 5.1711174389577037e+00 
56 1 2 1.0280000000000027e+00 -2.0045488256078519e+07 1.0000000000000000e+00 6.2796695920057308e+00 1.2515493827567836e+01 5.1711174398432780e+00 
15 1 2 1.0279999999999931e+00 -2.1375290072739121e+07 1.0000000000000000e+00 4.9125212464988843e+00 1.2094255153293336e+01 6.3961811540105797e+00 
62 1 2 1.0280000000000016e+00 -1.8582164367491368e+07 1.0000000000000000e+00 6.2796695916763534e+00 1.2515493826787175e+01 5.1711174398689401e+00 
21 1 2 1.0279999999999880e+00 -2.0886292271277662e+07 1.0000000000000000e+00 4.9125212465229477e+00 1.2094255153278082e+01 6.3961811540178761e+00 
14 1 2 1.0279999999999745e+00 -2.1408321142639138e+07 1.0000000000000000e+00 5.4399022513523203e+00 1.3862584909534725e+01 6.0192087455268553e+00 
68 1 2 1.0279999999999998e+00 -1.6859194163665701e+07 1.0000000000000000e+00 5.4398525359277157e+00 1.3862602794816299e+01 6.0190663553187367e+00 
33 1 2 1.0279999999999998e+00 -1.6957416283579420e+07 1.0000000000000000e+00 5.4398525359277157e+00 1.3862602794816299e+01 6.0190663553187367e+00 
32 1 2 1.0279999999999998e+00 -1.8319590556820497e+07 1.0000000000000000e+00 5.4398525359277157e+00 1.3862602794816299e+01 6.0190663553187367e+00 
123 1 2 1.0280000000000009e+00 -1.2611208623855645e+07 1.0000000000000000e+00 3.0638392018595471e+00 1.0098670848446366e+01 7.9678060685576995e+00 
165 1 2 1.0280000000000009e+00 -2.0157628788251951e+07 1.0000000000000000e+00 3.0638392018595471e+00 1.0098670848446366e+01 7.9678060685576995e+00 
160 1 2 1.0280000000000009e+00 -2.2008446606515680e+07 1.0000000000000000e+00 3.0638392018595471e+00 1.0098670848446366e+01 7.9678060685576995e+00 
159 1 2 1.0280000000000009e+00 -1.6479120764338767e+07 1.0000000000000000e+00 3.0638392018595471e+00 1.0098670848446366e+01 7.9678060685576995e+00 
166 1 2 1.0280000000000009e+00 -2.1670595203909203e+07 1.0000000000000000e+00 3.0638392018595471e+00 1.0098670848446366e+01 7.9678060685576995e+00 
152 1 2 1.0280000000000009e+00 -1.7155148358327113e+07 1.0000000000000000e+00 3.0638392018595471e+00 1.0098670848446366e+01 7.9678060685576995e+00 
158 1 2 1.0280000000000009e+00 -1.7427288168262769e+07 1.0000000000000000e+00 3.0638392018595471e+00 1.0098670848446366e+01 7.9678060685576995e+00 
38 1 2 1.0279999999999998e+00 -1.8021277456775170e+07 1.0000000000000000e+00 8.6200474621546430e+00 1.9402490349551152e-01 8.6322088758059738e+00 
3 1 2 1.0280000000000000e+00 -2.2606607353300322e+07 1.0000000000000000e+00 8.6212956413263218e+00 1.9626379905886945e-01 8.6308373666372944e+00 
39 1 2 1.0280000000000002e+00 -1.8907132895014606e+07 1.0000000000000000e+00 7.7367668095694722e+00 6.6548455260521866e-01 8.5877494573054705e+00 
45 1 2 1.0279999999999998e+00 -2.2298382314078286e+07 1.0000000000000000e+00 8.6254665061756555e+00 2.0401676721387749e-01 8.6258156101078072e+00 
76 1 2 1.0280000000000016e+00 -1.9872539238021538e+07 1.0000000000000000e+00 7.7282609924486385e+00 6.4934950444931505e-01 8.5911478861196322e+00 
40 1 2 1.0280000000000005e+00 -1.8223615110969044e+07 1.0000000000000000e+00 7.7262172133993570e+00 6.4538569085811748e-01 8.5943136173343042e+00 
75 1 2 1.0279999999999994e+00 -1.7446761728862431e+07 1.0000000000000000e+00 7.7311571336689564e+00 6.5518062776250097e-01 8.5918110818015823e+00 
9 1 2 1.0280000000000000e+00 -2.3051608821542680e+07 1.0000000000000000e+00 8.6293573285182923e+00 2.1177806502265287e-01 8.6221095679581943e+00 
4 1 2 1.0286737011600535e+00 -2.1463644202956013e+07 1.0000000000000000e+00 8.2850926706251595e+00 6.9922655150840498e+00 9.7648000891306808e+00 
46 1 2 1.0286737011600429e+00 -1.3985601370090444e+07 1.0000000000000000e+00 8.2850926706252483e+00 6.9922655150840365e+00 9.7648000891307287e+00 
47 1 2 1.0286737011600531e+00 -1.5988635211735839e+07 1.0000000000000000e+00 8.2850926706251524e+00 6.9922655150840525e+00 9.7648000891306683e+00 
53 1 2 1.0286737011600440e+00 -1.5049675566278292e+07 1.0000000000000000e+00 8.2850926706252270e+00 6.9922655150840463e+00 9.7648000891307092e+00 
41 1 2 1.0286737011600535e+00 -2.2050359816580538e+07 1.0000000000000000e+00 8.2850926706251524e+00 6.9922655150840436e+00 9.7648000891306701e+00 
6 1 2 1.0286737011600473e+00 -2.2113785038824167e+07 1.0000000000000000e+00 8.2850926706252093e+00 6.9922655150840436e+00 9.7648000891307056e+00 
23 1 2 1.0279999999999945e+00 -2.0412191684576202e+07 1.0000000000000000e+00 1.1698038193282812e+01 5.5199110113312324e+00 1.7160546998322936e+01 
24 1 2 1.0279999999999978e+00 -2.2234242997164503e+07 1.0000000000000000e+00 1.0582417989153292e+01 5.6743257573940475e+00 1.6958019091463530e+01 
30 1 2 1.0279999999999969e+00 -2.1989634925205074e+07 1.0000000000000000e+00 1.0582417989159955e+01 5.6743257573327499e+00 1.6958019091472064e+01 
103 1 2 1.0280000000000182e+00 -1.7195022502129272e+07 1.0000000000000000e+00 1.1267508874338334e+01 4.8337849872923435e+00 1.7454965631048296e+01 
139 1 2 1.0279999999999974e+00 -1.5139212329474762e+07 1.0000000000000000e+00 1.1267508876430048e+01 4.8337849884101303e+00 1.7454965636753183e+01 
98 1 2 1.0280000000000082e+00 -1.7211149468490191e+07 1.0000000000000000e+00 1.1267508829534554e+01 4.8337849633053196e+00 1.7454965508311147e+01 
104 1 2 1.0280000000000000e+00 -1.8597082440334450e+07 1.0000000000000000e+00 1.1267508882155429e+01 4.8337849914609894e+00 1.7454965652254756e+01 
77 1 2 1.0279999999999931e+00 -2.2668585379077666e+07 1.0000000000000000e+00 1.0944524813298223e+01 5.5494228535286370e+00 1.8138041468109275e+01 
90 1 2 1.0279999999999967e+00 -2.6120883604347024e+07 1.0000000000000000e+00 1.1612487107242478e+01 8.3344758040604852e+00 1.7011969531507745e+01 
126 1 2 1.0279999999999967e+00 -2.2362996496988684e+07 1.0000000000000000e+00 1.1612487107242478e+01 8.3344758040604852e+00 1.7011969531507745e+01 
86 1 2 1.0280000000000094e+00 -1.8597941196563207e+07 1.0000000000000000e+00 1.0657920073119682e+01 7.8264721680054974e+00 1.8209296058403595e+01 
96 1 2 1.0279999999999967e+00 -1.4626039226949165e+07 1.0000000000000000e+00 1.1612487107242478e+01 8.3344758040604852e+00 1.7011969531507745e+01 
59 1 2 1.0279999999999909e+00 -1.6064655075192366e+07 1.0000000000000000e+00 1.0530914210414473e+01 7.6105273961551498e+00 1.8170844847488471e+01 
95 1 2 1.0279999999999967e+00 -1.7851708064008623e+07 1.0000000000000000e+00 1.1612487107242478e+01 8.3344758040604852e+00 1.7011969531507745e+01 
89 1 2 1.0279999999999967e+00 -1.6779269772626709e+07 1.0000000000000000e+00 1.1612487107242478e+01 8.3344758040604852e+00 1.7011969531507745e+01 
113 1 2 1.0279999999999847e+00 -2.2984984325482566e+07 1.0000000000000000e+00 1.0596323085419398e+01 7.7525918689387128e+00 1.8188835348694862e+01 
60 1 2 1.0279999999999943e+00 -1.9194804962911636e+07 1.0000000000000000e+00 1.0649408645247053e+01 7.7759515299280402e+00 1.8219923910108832e+01 
64 1 2 1.0279999999999792e+00 -1.8654850561016247e+07 1.0000000000000000e+00 9.5866663700858243e+00 1.5481909798838489e+01 9.0646098518788971e+00 
63 1 2 1.0280000000000022e+00 -1.6675624191933608e+07 1.0000000000000000e+00 9.5868958562094235e+00 1.5481022282655514e+01 9.0643778379722306e+00 
69 1 2 1.0279999999999843e+00 -1.9614987378982667e+07 1.0000000000000000e+00 9.5868056034227198e+00 1.5481390009047526e+01 9.0645837554454580e+00 
70 1 2 1.0280000000000240e+00 -1.7071363872423880e+07 1.0000000000000000e+00 9.5866442393681250e+00 1.5482010434098765e+01 9.0647187570294996e+00 
99 1 2 1.0279999999999769e+00 -1.9404831082281712e+07 1.0000000000000000e+00 9.5867585871414640e+00 1.5481536279809053e+01 9.0644205563011759e+00 
100 1 2 1.0279999999999820e+00 -1.7729742488520406e+07 1.0000000000000000e+00 1.1295866974584083e+01 1.5943721683959662e+01 8.9864233505516964e+00 
142 1 2 1.0280000000000082e+00 -1.5190658126459252e+07 1.0000000000000000e+00 1.1296102740559833e+01 1.5942844699853865e+01 8.9864051071774274e+00 
105 1 2 1.0279999999999923e+00 -1.8261791722634345e+07 1.0000000000000000e+00 1.1295912797082547e+01 1.5943548170439060e+01 8.9863992576844200e+00 
141 1 2 1.0279999999999867e+00 -1.7974015010696147e+07 1.0000000000000000e+00 1.1295831120104111e+01 1.5943845571559311e+01 8.9863726954246790e+00 
106 1 2 1.0279999999999976e+00 -1.6710736294454861e+07 1.0000000000000000e+00 1.1295832257713133e+01 1.5943857891714186e+01 8.9864705912263432e+00 
54 1 2 1.0279999999999994e+00 -1.2702225651886173e+07 1.0000000000000000e+00 9.7514071944964069e+00 1.6056128615483608e+01 1.8856496655301054e+01 
78 1 2 1.0280000000000007e+00 -1.8964146930778034e+07 1.0000000000000000e+00 9.7357500637207135e+00 1.6065874256111666e+01 1.8867668265379255e+01 
48 1 2 1.0279999999999996e+00 -1.2660666707748521e+07 1.0000000000000000e+00 9.7373623489304784e+00 1.6060345519013662e+01 1.8855647039227829e+01 
116 1 2 1.0279999999999998e+00 -1.9099261024348706e+07 1.0000000000000000e+00 9.7685640429990972e+00 1.6061762685758694e+01 1.8876471687806333e+01 
109 1 2 1.0279999999999998e+00 -2.5635249208889194e+07 1.0000000000000000e+00 9.7624410341267840e+00 1.6069242382364056e+01 1.8887297586524660e+01 
121 1 2 1.0280000000000007e+00 -1.6563889912992109e+07 1.0000000000000000e+00 9.7461186488275349e+00 1.6062390505776584e+01 1.8868483449481246e+01 
42 1 2 1.0280000000000000e+00 -1.7204063498173889e+07 1.0000000000000000e+00 9.7222065158926956e+00 1.6068027434427194e+01 1.8856698249739125e+01 
1 1 2 1.0279999999999991e+00 -2.3407246130826354e+07 1.0000000000000000e+00 1.0657214362972095e+01 1.8914386236205630e+01 1.7562412817253779e+01 
7 1 2 1.0279999999999991e+00 -2.0001990500829536e+07 1.0000000000000000e+00 1.0657219601447085e+01 1.8914378948749860e+01 1.7562400893516273e+01 
2 1 2 1.0280000000000000e+00 -2.0491100540628534e+07 1.0000000000000000e+00 1.0660507568643663e+01 1.8903530169104222e+01 1.7545553269209979e+01 
84 1 2 1.0279999999999980e+00 -2.2396703754136294e+07 1.0000000000000000e+00 1.0663311134909842e+01 1.8918763859079430e+01 1.7580999233237396e+01 
73 1 2 1.0279999999999982e+00 -2.1278249530903134e+07 1.0000000000000000e+00 1.0637100956525394e+01 1.8918616173853703e+01 1.7560669825874502e+01 
44 1 2 1.0280000000000005e+00 -1.6329371829004526e+07 1.0000000000000000e+00 1.0637482698716759e+01 1.8925715489648791e+01 1.7581277584036087e+01 
114 1 2 1.0280000000000009e+00 -2.0962885632690135e+07 1.0000000000000000e+00 1.0661824285189098e+01 1.8901889781873084e+01 1.7544051616577683e+01 
81 1 2 1.0280000000000020e+00 -1.5439320033510406e+07 1.0000000000000000e+00 1.9914123313742536e+01 2.1993719184175227e+00 9.7474132697851334e-01 
122 1 2 1.0280000000000016e+00 -2.1771874441548917e+07 1.0000000000000000e+00 1.9919029903527495e+01 2.2249620028833856e+00 1.0744093704836279e+00 
37 1 2 1.0280000000000020e+00 -2.5137374647945508e+07 1.0000000000000000e+00 1.9827184946815070e+01 3.6342690210547630e+00 6.8607442142600927e-01 
13 1 2 1.0279999999999947e+00 -3.0224215012057286e+07 1.0000000000000000e+00 1.9923360116662263e+01 3.6995665690039643e+00 6.1604672092058688e-01 
153 1 2 1.0154972261737549e+00 -1.5691272668469232e+07 1.0000000000000000e+00 1.6501911246951195e+01 2.5350627626406328e+00 8.6671593046814710e+00 
117 1 2 1.0154972261737549e+00 -1.3084927689806899e+07 1.0000000000000000e+00 1.6501911246951185e+01 2.5350627626406324e+00 8.6671593046814674e+00 
154 1 2 1.0154972261737549e+00 -1.5187421238230264e+07 1.0000000000000000e+00 1.6501911246951192e+01 2.5350627626406332e+00 8.6671593046814746e+00 
148 1 2 1.0154972261737549e+00 -1.6874247470038876e+07 1.0000000000000000e+00 1.6501911246951188e+01 2.5350627626406332e+00 8.6671593046814692e+00 
111 1 2 1.0154972261737549e+00 -1.8283308675460644e+07 1.0000000000000000e+00 1.6501911246951185e+01 2.5350627626406332e+00 8.6671593046814746e+00 
147 1 2 1.0154972261737549e+00 -1.7969495194495320e+07 1.0000000000000000e+00 1.6501911246951188e+01 2.5350627626406328e+00 8.6671593046814710e+00 
112 1 2 1.0154972261737549e+00 -1.5722251457099218e+07 1.0000000000000000e+00 1.6501911246951195e+01 2.5350627626406328e+00 8.6671593046814710e+00 
8 1 2 1.1808799552916576e+00 -1.7038596811092518e+07 1.0000000000000000e+00 1.3565096735874548e+01 6.4517431950670936e+00 1.0485685211992855e+01 
55 1 2 1.1808799552916576e+00 -2.4208070161819015e+07 1.0000000000000000e+00 1.3565096735874548e+01 6.4517431950670936e+00 1.0485685211992855e+01 
91 1 2 1.1808799552916576e+00 -2.1317707812144548e+07 1.0000000000000000e+00 1.3565096735874548e+01 6.4517431950670936e+00 1.0485685211992855e+01 
97 1 2 1.1808799552916576e+00 -2.5251439980923627e+07 1.0000000000000000e+00 1.3565096735874548e+01 6.4517431950670936e+00 1.0485685211992855e+01 
61 1 2 1.1808799552916576e+00 -2.4171039683121536e+07 1.0000000000000000e+00 1.3565096735874548e+01 6.4517431950670936e+00 1.0485685211992855e+01 
66 1 2 1.1808799552916576e+00 -1.5968332631797932e+07 1.0000000000000000e+00 1.3565096735874548e+01 6.4517431950670936e+00 1.0485685211992855e+01 
50 1 2 1.1808799552916576e+00 -1.7591613007925164e+07 1.0000000000000000e+00 1.3565096735874548e+01 6.4517431950670936e+00 1.0485685211992855e+01 
124 1 2 8.2110613154004830e-01 -1.8477397696566623e+07 1.0000000000000000e+00 1.5040408193942573e+01 7.5058688586439866e+00 1.0873030990249491e+01 
125 1 2 8.2110613154004830e-01 -1.6482110762124594e+07 1.0000000000000000e+00 1.5040408193942573e+01 7.5058688586439866e+00 1.0873030990249491e+01 
161 1 2 8.2110613154004830e-01 -1.8901228256612778e+07 1.0000000000000000e+00 1.5040408193942573e+01 7.5058688586439866e+00 1.0873030990249491e+01 
140 1 2 1.0279999999999998e+00 -1.2614850079420306e+07 1.0000000000000000e+00 1.8005378836483246e+01 1.9188727615228295e+01 1.7144997276835900e+00 
175 1 2 1.0279999999999998e+00 -1.7047779237594672e+07 1.0000000000000000e+00 1.8005378836483246e+01 1.9188727615228295e+01 1.7144997276835900e+00 
145 1 2 1.0279999999999998e+00 -1.7344967452720199e+07 1.0000000000000000e+00 1.8005378836483246e+01 1.9188727615228295e+01 1.7144997276835900e+00 
29 1 2 1.0279999999999927e+00 -1.1001183580630116e+07 1.0000000000000000e+00 1.8969170169922716e+01 1.8528335044265482e+01 9.0974583348625171e-01 
34 1 2 1.0280000000000020e+00 -1.1231864999984708e+07 1.0000000000000000e+00 1.8969170170212379e+01 1.8528335044261837e+01 9.0974583385461227e-01 
35 1 2 1.0280000000000020e+00 -1.3567864048472580e+07 1.0000000000000000e+00 1.8969170170212379e+01 1.8528335044261837e+01 9.0974583385461227e-01 
28 1 2 1.0280000000000020e+00 -1.0293447369749701e+07 1.0000000000000000e+00 1.8969170170212379e+01 1.8528335044261837e+01 9.0974583385461227e-01 
115 1 2 1.0279999999999985e+00 -1.9260241678448968e+07 1.0000000000000000e+00 1.7969779656817870e+01 1.9163288308530348e+01 1.6835640394965123e+00 
74 1 2 1.0279999999999998e+00 -2.5321483522562668e+07 1.0000000000000000e+00 1.8721572307169815e+01 1.9551161640899473e+01 1.0279999886841447e+00 
128 1 2 1.0280000000381364e+00 -2.1247446199602488e+07 1.0000000000000000e+00 1.9740092143348143e+01 1.5023339387877778e+01 6.1581069950437364e+00 
134 1 2 1.0280000000381364e+00 -1.9199235241805241e+07 1.0000000000000000e+00 1.9740092143348143e+01 1.5023339387877778e+01 6.1581069950437364e+00 
129 1 2 1.0280000000381364e+00 -1.9032471441844244e+07 1.0000000000000000e+00 1.9740092143348143e+01 1.5023339387877778e+01 6.1581069950437364e+00 
164 1 2 1.0280000000381364e+00 -2.2152117672179334e+07 1.0000000000000000e+00 1.9740092143348143e+01 1.5023339387877778e+01 6.1581069950437364e+00 
92 1 2 1.0280000000381364e+00 -1.4749811697802238e+07 1.0000000000000000e+00 1.9740092143348143e+01 1.5023339387877778e+01 6.1581069950437364e+00 
93 1 2 1.0280000000381364e+00 -1.4566707409584399e+07 1.0000000000000000e+00 1.9740092143348143e+01 1.5023339387877778e+01 6.1581069950437364e+00 
110 1 2 1.0279999999618561e+00 -2.5993223193687636e+07 1.0000000000000000e+00 1.8802660971772951e+01 1.7064145256469025e+01 5.4371637644299753e+00 
176 1 2 1.0279999999618628e+00 -1.5870001574765600e+07 1.0000000000000000e+00 1.8802655678689320e+01 1.7064141974965782e+01 5.4371613576172830e+00 
170 1 2 1.0279999999618628e+00 -1.9852550422885731e+07 1.0000000000000000e+00 1.8802655678689320e+01 1.7064141974965782e+01 5.4371613576172830e+00 
177 1 2 1.0279999999618628e+00 -1.7007678664532799e+07 1.0000000000000000e+00 1.8802655678689320e+01 1.7064141974965782e+01 5.4371613576172830e+00 
171 1 2 1.0279999999618628e+00 -2.0719128941231932e+07 1.0000000000000000e+00 1.8802655678689320e+01 1.7064141974965782e+01 5.4371613576172830e+00 
146 1 2 1.0279999999618668e+00 -1.1245421524236595e+07 1.0000000000000000e+00 1.8802629160776601e+01 1.7064125448276489e+01 5.4371490587715945e+00 
130 1 2 1.0279999999999954e+00 -1.2780714104253698e+07 1.0000000000000000e+00 1.4403047735028592e+01 1.2283181157079262e+01 1.1541007315605929e+01 
131 1 2 1.0279999999999954e+00 -1.1719936687637862e+07 1.0000000000000000e+00 1.4403047735028592e+01 1.2283181157079262e+01 1.1541007315605929e+01 
136 1 2 1.0279999999999954e+00 -1.5351605724828662e+07 1.0000000000000000e+00 1.4403047735028592e+01 1.2283181157079262e+01 1.1541007315605929e+01 
94 1 2 1.0279999999999954e+00 -1.9143159815441892e+07 1.0000000000000000e+00 1.4403047735028592e+01 1.2283181157079262e+01 1.1541007315605929e+01 
135 1 2 1.0279999999999954e+00 -1.3953194182311302e+07 1.0000000000000000e+00 1.4403047735028592e+01 1.2283181157079262e+01 1.1541007315605929e+01 
107 1 2 1.0280000000000076e+00 -1.8727107664267480e+07 1.0000000000000000e+00 1.4926757510058904e+01 1.2167733448179007e+01 1.2590398244172761e+01 
101 1 2 1.0279999999999763e+00 -1.9664846809060745e+07 1.0000000000000000e+00 1.5574278182159809e+01 1.3430949138923626e+01 1.1533530849163771e+01 
71 1 2 1.0279999999999969e+00 -2.2868817115482800e+07 1.0000000000000000e+00 1.5969401415966653e+01 1.3529904973462545e+01 1.2779766054839699e+01 
65 1 2 1.0279999999999740e+00 -2.1648321963202618e+07 1.0000000000000000e+00 1.5972553803255046e+01 1.3532800765969791e+01 1.2775493198942142e+01 
102 1 2 1.0280000000000005e+00 -1.8764293981765389e+07 1.0000000000000000e+00 1.5969535641324070e+01 1.3530073187032615e+01 1.2779558204396210e+01 
108 1 2 1.0280000000000127e+00 -2.0546346152303904e+07 1.0000000000000000e+00 1.5970846855188904e+01 1.3531382514273167e+01 1.2777722898443891e+01 
72 1 2 1.0279999999999965e+00 -2.2377772678921454e+07 1.0000000000000000e+00 1.5969766023871209e+01 1.3530344877935372e+01 1.2779211400636326e+01 
172 1 2 1.0279999999999991e+00 -2.2926566951821167e+07 1.0000000000000000e+00 1.7782901070778440e+01 1.5796769574064296e+01 1.1352662996205323e+01 
179 1 2 1.0279999999999991e+00 -2.2052433625397723e+07 1.0000000000000000e+00 1.7782901070778440e+01 1.5796769574064296e+01 1.1352662996205323e+01 
178 1 2 1.0279999999999991e+00 -2.0435903949692432e+07 1.0000000000000000e+00 1.7782901070778440e+01 1.5796769574064296e+01 1.1352662996205323e+01 
167 1 2 1.0279999999999991e+00 -1.9456470483544491e+07 1.0000000000000000e+00 1.7782901070778440e+01 1.5796769574064296e+01 1.1352662996205323e+01 
137 1 2 1.0279999999999991e+00 -1.9800684586440921e+07 1.0000000000000000e+00 1.7782901070778440e+01 1.5796769574064296e+01 1.1352662996205323e+01 
143 1 2 1.0279999999999991e+00 -2.0128653216949143e+07 1.0000000000000000e+00 1.7782901070778440e+01 1.5796769574064296e+01 1.1352662996205323e+01 
173 1 2 1.0279999999999991e+00 -2.0664429816168997e+07 1.0000000000000000e+00 1.7782901070778440e+01 1.5796769574064296e+01 1.1352662996205323e+01 
119 1 2 1.0280000000000000e+00 -1.1510602346827943e+07 1.0000000000000000e+00 1.4617780722240962e+01 1.8020702946588806e+01 1.2680483148750110e+01 
155 1 2 1.0280000000000000e+00 -1.3045402501017157e+07 1.0000000000000000e+00 1.4661183212725549e+01 1.7789067526679698e+01 1.2760415254814422e+01 
150 1 2 1.0279999999999998e+00 -1.6331780553713910e+07 1.0000000000000000e+00 1.4274108952776638e+01 1.7779661902003944e+01 1.3099193909541754e+01 
156 1 2 1.0280000000000000e+00 -2.2091808545332853e+07 1.0000000000000000e+00 1.5160806722645503e+01 1.8022172574919953e+01 1.3190867181642645e+01 
149 1 2 1.0279999999999998e+00 -1.5887293952941274e+07 1.0000000000000000e+00 1.4675964743067853e+01 1.8542061255702460e+01 1.3294778561919966e+01 
85 1 2 1.0280000000000005e+00 -1.3961508773287686e+07 1.0000000000000000e+00 1.4205510086428477e+01 1.8093995669063521e+01 1.3334259746293846e+01 
118 1 2 1.0280000000000000e+00 -1.4796378324103178e+07 1.0000000000000000e+00 1.5128096686029137e+01 1.8150491598200624e+01 1.3336218489347491e+01 
83 1 2 1.0280000000000002e+00 -2.3723860153195471e+07 1.0000000000000000e+00 1.4633872574364153e+01 1.8143660208768789e+01 1.3655166984963120e+01 
163 1 2 1.0154972261737549e+00 -1.8454007582583427e+07 1.0000000000000000e+00 1.5783669952263367e+01 1.1734374322367573e+01 1.9444188647010179e+01 
169 1 2 1.0154972261737549e+00 -1.8416362188080307e+07 1.0000000000000000e+00 1.5783669952263367e+01 1.1734374322367573e+01 1.9444188647010179e+01 
132 1 2 1.0154972261737549e+00 -2.0771472274784971e+07 1.0000000000000000e+00 1.5783669952263361e+01 1.1734374322367577e+01 1.9444188647010179e+01 
138 1 2 1.0154972261737549e+00 -2.5172667811024211e+07 1.0000000000000000e+00 1.5783669952263365e+01 1.1734374322367579e+01 1.9444188647010179e+01 
168 1 2 1.0154972261737549e+00 -2.1107644422401972e+07 1.0000000000000000e+00 1.5783669952263365e+01 1.1734374322367577e+01 1.9444188647010179e+01 
127 1 2 1.0154972261737549e+00 -2.3150998003043324e+07 1.0000000000000000e+00 1.5783669952263365e+01 1.1734374322367577e+01 1.9444188647010179e+01 
133 1 2 1.0154972261737549e+00 -2.2771188315074887e+07 1.0000000000000000e+00 1.5783669952263365e+01 1.1734374322367577e+01 1.9444188647010179e+01 
144 1 2 4.3521309693160926e-01 -1.5479485866980031e+07 1.0000000000000000e+00 1.7335126386189081e+01 1.5748512839526828e+01 1.7344829284492086e+01 
174 1 2 4.3521309693160926e-01 -1.6119577638638534e+07 1.0000000000000000e+00 1.7335126386189081e+01 1.5748512839526828e+01 1.7344829284492086e+01 
180 1 2 4.3521309693160926e-01 -1.6551233470080234e+07 1.0000000000000000e+00 1.7335126386189081e+01 1.5748512839526828e+01 1.7344829284492086e+01 

Velocities

79 4.9787918385384979e-13 1.8016170972992281e-12 -1.6651263468522174e-12
43 -1.1229940228998819e-12 -1.9073234952296046e-12 8.5235961871433983e-12
120 -1.1707311063848309e-12 3.2527054491127983e-12 -6.3118333797060895e-12
80 3.3311051067768383e-12 6.5519839554292524e-12 -1.8644754006144331e-12
11 1.4971270207352740e+00 2.1303795530638436e+00 3.7918397010910465e-01
88 1.4971270207351957e+00 2.1303795530700746e+00 3.7918397011393573e-01
87 -1.1337295109043770e+00 -9.0693738408028102e-01 2.6675626754793397e-01
58 -1.1337295109042931e+00 -9.0693738408020896e-01 2.6675626754783255e-01
52 -1.1337295109039378e+00 -9.0693738408009539e-01 2.6675626754759518e-01
51 -1.1337295109047789e+00 -9.0693738408047608e-01 2.6675626754809012e-01
12 -1.1337295109041954e+00 -9.0693738408046398e-01 2.6675626754794451e-01
5 2.4252332391445913e-01 5.2204617515196079e-03 -2.0510940051943335e-01
82 2.4252332391469994e-01 5.2204617507102700e-03 -2.0510940052039536e-01
16 2.4252332391437800e-01 5.2204617508737686e-03 -2.0510940051999760e-01
17 2.4252332391469542e-01 5.2204617498007744e-03 -2.0510940052113213e-01
22 2.4252332391474110e-01 5.2204617509074881e-03 -2.0510940052024002e-01
10 1.5131547454129246e-12 1.1117588699389895e-13 -4.8214539983507603e-12
18 1.8624437630756247e-13 2.7641016519843398e-13 -8.1786149393749726e-14
31 -3.2373032197135862e-12 -2.0811547000839836e-12 1.1400437861129149e-11
25 -2.2640640643928990e-13 5.2534108385146358e-14 1.3242133481827791e-12
36 -5.5130606426936186e-12 -3.7159042892749729e-12 1.9051857274291134e-11
67 7.6914408671072170e-14 3.9532726620603398e-13 -6.5339508259626594e-13
151 -1.1538441843481731e-12 4.6370914993148085e-12 2.5043249533759163e-13
162 -8.2550943525401820e-13 4.0748655234677935e-12 -7.8261248529965782e-13
157 1.0083926618549222e-13 2.4913824856441008e-12 -3.6930388848194065e-12
49 4.0831460864962974e-13 -7.8531531710874902e-13 2.4681957426550294e-12
19 9.5080430432582079e-13 -9.0321001988706048e-13 2.0394711454286266e-12
27 4.3036259557821841e-11 1.6344510424123086e-11 -3.8381918404495355e-11
20 -2.9139826799943984e-11 -6.9224451973533108e-11 2.2530920591412793e-11
26 8.5218695262546157e-12 -7.4216133911206405e-12 -8.2340554513270307e-12
57 4.3142063363713565e-11 -2.3166679983436334e-11 -4.0826291076221721e-11
56 -4.4532186018775309e-11 1.6707066849337756e-11 4.1712235242158360e-11
15 -3.0501427388916770e-11 -7.0838708915890643e-11 2.3680040206585450e-11
62 -4.2595637399231551e-11 1.5826335791968092e-11 3.9889124520178508e-11
21 1.1842411713907514e-11 -2.0637616591589706e-11 -1.2055943595617186e-11
14 1.0134015354804571e-11 7.8004016021905740e-11 -4.6049500796373645e-12
68 1.6028108401651126e-11 2.7947503697164594e-11 -1.3001272272651754e-11
33 1.6028108401651126e-11 2.7947503697164594e-11 -1.3001272272651754e-11
32 1.6028108401651126e-11 2.7947503697164594e-11 -1.3001272272651754e-11
123 -2.5702667306555924e-12 -2.7764813318938818e-12 2.1849506949883650e-12
165 -2.5702667306555924e-12 -2.7764813318938818e-12 2.1849506949883650e-12
160 -2.5702667306555924e-12 -2.7764813318938818e-12 2.1849506949883650e-12