LAMMPS data file via write_data, version 30 Jul 2016, timestep = 50400000

180 atoms
2 atom types

0.0000000000000000e+00 2.0000000000000000e+01 xlo xhi
0.0000000000000000e+00 2.0000000000000000e+01 ylo yhi
0.0000000000000000e+00 2.0000000000000000e+01 zlo zhi

Masses

1 3.896
2 4.31

Atoms # meso-molecular

45 1 2 1.0280000000000400e+00 -6.3578706427686260e+00 1.0000000000000000e+00 1.0622989518513494e+01 7.4362790417405753e+00 6.2453484374334245e+00 
109 1 2 1.0280000000000360e+00 -1.0926044738106668e+02 1.0000000000000000e+00 1.0723596282035578e+01 7.5168019042478136e+00 6.1362540016504861e+00 
154 1 2 1.0280000000000260e+00 9.3148070866092922e+01 1.0000000000000000e+00 1.0794314912787383e+01 7.8830098782473188e+00 6.0569725833475871e+00 
30 1 2 1.0279999999999607e+00 6.3057836944372028e+01 1.0000000000000000e+00 1.0857164703167056e+01 7.5101376966165763e+00 6.0405275588334817e+00 
167 1 2 1.0279999999999729e+00 -9.3839336986493777e+01 1.0000000000000000e+00 1.0843937030659740e+01 7.3224245791267153e+00 6.0964604758618028e+00 
60 1 2 1.0279999999999616e+00 -7.9234995291598551e+01 1.0000000000000000e+00 1.0951440079634763e+01 7.6212079738824912e+00 5.9679566955027896e+00 
82 1 2 1.0279999999999554e+00 1.3575883162580917e+02 1.0000000000000000e+00 1.1008644332354878e+01 7.7035208728077293e+00 5.9310160646906187e+00 
117 1 2 1.0280000000000229e+00 9.4956151015369215e+01 1.0000000000000000e+00 1.1287816464232348e+01 8.1828928856423868e+00 5.8371188799655975e+00 
53 1 2 1.0279999999999807e+00 -1.0080538091455318e+02 1.0000000000000000e+00 1.1521820700526403e+01 8.6149761263284770e+00 5.8354293160232658e+00 
87 1 2 1.0279999999999825e+00 1.3618234749003170e+02 1.0000000000000000e+00 1.1948164658003959e+01 8.9925780005322764e+00 5.7876147318258981e+00 
5 1 2 1.0279999999999780e+00 -1.4118148136211406e+01 1.0000000000000000e+00 9.4036112241670615e+00 2.2236507732813462e+00 9.8046222311500539e+00 
59 1 2 1.0279999999999905e+00 -4.8546552801043603e+01 1.0000000000000000e+00 9.4099724041870623e+00 2.2206495865672449e+00 9.8094226727049403e+00 
2 1 2 1.0280000000000005e+00 3.6482504938014841e+01 1.0000000000000000e+00 9.7446688108778847e+00 2.0051683326189269e+00 9.4663750771530957e+00 
38 1 2 1.0279999999999914e+00 2.0184967423574072e+01 1.0000000000000000e+00 9.8182856423659235e+00 1.9879904689821053e+00 9.6427988722145646e+00 
4 1 2 1.0279999999999907e+00 -1.3795325109825751e+02 1.0000000000000000e+00 9.8927470039956180e+00 1.9994917967220889e+00 9.2676323292551004e+00 
7 1 2 1.0279999999999905e+00 -3.2949819512162279e+01 1.0000000000000000e+00 9.0575652948906935e+00 2.6580850800543083e+00 9.9996543536600733e+00 
47 1 2 1.0279999999999934e+00 -5.2375819175393900e+01 1.0000000000000000e+00 1.0408804956611375e+01 2.0100312031622929e+00 9.6378819625351149e+00 
147 1 2 1.0279999999999960e+00 5.7132868832008612e+01 1.0000000000000000e+00 1.0783415316571407e+01 2.2303538756496457e+00 9.4727459392262716e+00 
166 1 2 1.0279999999999858e+00 -1.5459886506012452e+02 1.0000000000000000e+00 1.0728543253188381e+01 2.2331026789854018e+00 9.1833608226198393e+00 
168 1 2 1.0279999999999860e+00 2.5354698123169907e+01 1.0000000000000000e+00 1.0918037275402973e+01 2.4421039447976147e+00 9.2176248741302107e+00 
17 1 2 1.0279999999999934e+00 -1.4075678680909374e+02 1.0000000000000000e+00 1.1045265963772312e+01 2.6981963489116865e+00 9.2359768117806773e+00 
97 1 2 1.0279999999999772e+00 -6.4903647902358208e-01 1.0000000000000000e+00 1.1094982955036739e+01 2.9444303031571892e+00 9.1572634043406715e+00 
123 1 2 1.0280000000000271e+00 1.2358504025620709e+02 1.0000000000000000e+00 8.9579283965955554e+00 5.2241210230932040e+00 9.3174559100542265e+00 
101 1 2 1.0280000000000216e+00 6.0463342846516952e+01 1.0000000000000000e+00 8.7265100143707830e+00 5.1512326380438465e+00 9.7974089983615400e+00 
120 1 2 1.0280000000000100e+00 1.8254386438061342e+01 1.0000000000000000e+00 8.6205018650413514e+00 4.8318360338152040e+00 9.7951667561112234e+00 
43 1 2 1.0280000000000040e+00 -4.7819788625833169e+01 1.0000000000000000e+00 8.8746450184293746e+00 4.9788009429281805e+00 9.2152286859441102e+00 
41 1 2 1.0279999999999689e+00 6.3249116006557472e+01 1.0000000000000000e+00 9.7515788119922888e+00 5.5439580209216839e+00 8.7365125640623180e+00 
153 1 2 1.0279999999999956e+00 -6.5470537363221695e+01 1.0000000000000000e+00 9.8623581929897757e+00 5.5759824043122039e+00 8.6859814168956646e+00 
91 1 2 1.0279999999999989e+00 8.4656778585543947e+01 1.0000000000000000e+00 9.9147527086274483e+00 5.5720549007060862e+00 8.6430149753237302e+00 
145 1 2 1.0279999999999845e+00 -1.5883599118962815e+02 1.0000000000000000e+00 1.0982775925393707e+01 6.1688632458874020e+00 7.1737061673363138e+00 
121 1 2 1.0280000000000633e+00 -4.3252800377708276e+00 1.0000000000000000e+00 1.1089279933204374e+01 3.6864285645839256e+00 8.9687170556805995e+00 
161 1 2 1.0280000000000371e+00 2.8265816401082269e+01 1.0000000000000000e+00 1.1093207544800434e+01 3.4838821380931444e+00 8.9773097181325010e+00 
49 1 2 1.0280000000000160e+00 1.9302475606176793e+02 1.0000000000000000e+00 1.1127900775738945e+01 3.4339315453628418e+00 9.0935833807205917e+00 
48 1 2 1.0279999999999432e+00 3.9496954538049906e+01 1.0000000000000000e+00 1.0620107909038515e+01 6.2269295106531635e+00 7.7443876658224315e+00 
12 1 2 1.0279999999999703e+00 1.3309040040714145e-02 1.0000000000000000e+00 1.0711400301136379e+01 6.0654387841550399e+00 8.2604303811371675e+00 
52 1 2 1.0279999999999818e+00 -3.0183112998476794e+01 1.0000000000000000e+00 1.3314164522246545e+01 6.3543387989862241e+00 7.9394931121304708e+00 
71 1 2 1.0279999999999947e+00 3.5261324390580512e+01 1.0000000000000000e+00 7.3977918735233326e+00 9.2003572614146591e+00 9.1045108163809996e+00 
139 1 2 1.0279999999999705e+00 -7.8749864815305813e+01 1.0000000000000000e+00 7.4803578751725377e+00 9.1812928688767883e+00 9.2325761371564319e+00 
150 1 2 1.0279999999999820e+00 1.0135624375336791e+02 1.0000000000000000e+00 7.0970330636337025e+00 9.3222033349336861e+00 8.3610255930146344e+00 
72 1 2 1.0279999999999843e+00 -1.0531319518130758e+02 1.0000000000000000e+00 7.1174547813604541e+00 9.2775740316446917e+00 8.2190147449890514e+00 
113 1 2 1.0279999999999956e+00 -3.9918929315550258e+01 1.0000000000000000e+00 7.1961497825013687e+00 9.5354292193543753e+00 9.0133637969206379e+00 
86 1 2 1.0279999999999991e+00 6.5497160783336454e+01 1.0000000000000000e+00 7.2470299059411953e+00 9.7577833834028311e+00 7.2144220131700258e+00 
74 1 2 1.0279999999999911e+00 -4.1551698052675349e+01 1.0000000000000000e+00 7.4727817169791031e+00 9.8052379372405305e+00 7.0148238321660275e+00 
50 1 2 1.0279999999999889e+00 3.0507933705522973e+01 1.0000000000000000e+00 7.3824636192863249e+00 9.8829704222937647e+00 7.0782961830193853e+00 
107 1 2 1.0279999999999332e+00 1.9913805105835443e+01 1.0000000000000000e+00 7.8232415380356795e+00 9.2023329820249398e+00 9.7594828259008537e+00 
98 1 2 1.0280000000000236e+00 1.4559420243046384e+02 1.0000000000000000e+00 7.3634734526467200e+00 9.8953769702380807e+00 7.0944077416679887e+00 
110 1 2 1.0279999999999561e+00 -3.0987132495610425e+01 1.0000000000000000e+00 7.9654642350155163e+00 9.1450161615269252e+00 9.7807628774732986e+00 
16 1 2 1.0279999999999159e+00 -9.9737810061270721e+01 1.0000000000000000e+00 1.3180809484524582e+01 8.0387448338980665e+00 8.5905528268308373e+00 
118 1 2 1.0280000000001259e+00 -5.2455270279498613e+01 1.0000000000000000e+00 1.0408108861776798e+01 6.8490847305089266e+00 7.5560210734429836e+00 
51 1 2 1.0279999999999065e+00 4.0098674243101065e+01 1.0000000000000000e+00 1.3118134757286608e+01 6.9414129946045913e+00 8.9267637055697637e+00 
164 1 2 1.0280000000000815e+00 2.8535105061866780e+01 1.0000000000000000e+00 1.0412699977372716e+01 6.9312131986884840e+00 6.9265615257492525e+00 
172 1 2 1.0279999999999965e+00 1.9365890036576349e+01 1.0000000000000000e+00 1.2534981325272353e+01 9.6281792943104456e+00 8.1630436050380197e+00 
162 1 2 1.0280000000000080e+00 -1.7466905346385985e+01 1.0000000000000000e+00 9.0559360122047021e+00 3.2200407537676266e+00 1.0456680532658988e+01 
122 1 2 1.0280000000000020e+00 -1.3526124532339099e+02 1.0000000000000000e+00 8.8067224501661112e+00 3.0928823438463513e+00 1.0010795807004667e+01 
67 1 2 1.0279999999999954e+00 4.3038524646093748e+01 1.0000000000000000e+00 8.2790304114899769e+00 5.9043947301979021e+00 1.2962694463368702e+01 
102 1 2 1.0279999999999960e+00 1.8147531758561755e+01 1.0000000000000000e+00 8.3649502950917736e+00 5.4394861451092664e+00 1.1880446032590823e+01 
61 1 2 1.0279999999999947e+00 -8.5643080553855413e+01 1.0000000000000000e+00 8.5179549614206671e+00 6.0955051671166665e+00 1.3157557458120019e+01 
20 1 2 1.0279999999999887e+00 -6.9434760680915588e+01 1.0000000000000000e+00 8.4652952270910067e+00 5.5266905235217489e+00 1.0773357569480718e+01 
40 1 2 1.0279999999999929e+00 9.0240052583130606e+01 1.0000000000000000e+00 8.7544337854062633e+00 6.1715452676882467e+00 1.3173467586063371e+01 
171 1 2 1.0279999999999729e+00 -9.6077127577594695e+01 1.0000000000000000e+00 8.8744339903597798e+00 6.4024967225243330e+00 1.3258082974661818e+01 
140 1 2 1.0279999999999745e+00 9.1484321501094840e+01 1.0000000000000000e+00 8.8941426787819964e+00 6.3679396136833546e+00 1.3238534371355311e+01 
175 1 2 1.0280000000000227e+00 2.6404989134573892e-01 1.0000000000000000e+00 8.6072614340544025e+00 5.3441724550687510e+00 1.0494290262441540e+01 
151 1 2 1.0279999999999874e+00 -8.3827846013317327e+01 1.0000000000000000e+00 8.8523260474949765e+00 5.3461064719445082e+00 1.1834427276882396e+01 
32 1 2 1.0280000000000100e+00 -1.5269168853238523e+02 1.0000000000000000e+00 8.6358660505647258e+00 5.1764571680737070e+00 1.0274596009177269e+01 
170 1 2 1.0279999999999467e+00 4.3897016739021126e+01 1.0000000000000000e+00 1.0489492828353015e+01 6.2220107982209827e+00 1.0753867250816707e+01 
128 1 2 1.0279999999999936e+00 -8.4316536350945228e+01 1.0000000000000000e+00 9.8890781707157167e+00 6.6972428670719504e+00 1.2890069122228519e+01 
8 1 2 1.0279999999999987e+00 -9.8083812948680666e+00 1.0000000000000000e+00 7.0174702776395677e+00 7.0851159682519729e+00 1.3088755397678883e+01 
18 1 2 1.0279999999999971e+00 -3.0670502533703548e+01 1.0000000000000000e+00 6.8333880040523853e+00 7.2029828249605954e+00 1.2863675868507926e+01 
156 1 2 1.0280000000000127e+00 9.5723257279198293e+01 1.0000000000000000e+00 7.0791200603660371e+00 8.3268464303077696e+00 1.1737763423583603e+01 
1 1 2 1.0279999999999918e+00 -1.1409970341835893e+02 1.0000000000000000e+00 6.7702519106021226e+00 7.6097275120382761e+00 1.2654563522546196e+01 
35 1 2 1.0280000000000011e+00 -8.9425252684477584e+01 1.0000000000000000e+00 6.7933579227368970e+00 7.3943099693939009e+00 1.2789292740057100e+01 
78 1 2 1.0279999999999996e+00 -2.0163848409307829e+02 1.0000000000000000e+00 6.8841481804681068e+00 7.4123584348773681e+00 1.2930951086735730e+01 
180 1 2 1.0280000000000178e+00 -1.2345613088535484e+02 1.0000000000000000e+00 7.0886532602493206e+00 8.3469998942972090e+00 1.1842992891394207e+01 
179 1 2 1.0280000000000231e+00 -1.5034921814780418e+02 1.0000000000000000e+00 7.6246529931190645e+00 8.5878201228528948e+00 1.1170391701168851e+01 
63 1 2 1.0279999999999987e+00 1.2027959538012409e+02 1.0000000000000000e+00 6.8167875478570048e+00 7.5365202604531492e+00 1.2789039640361485e+01 
173 1 2 1.0280000000000102e+00 -1.4703643030945642e+02 1.0000000000000000e+00 6.9691556271892816e+00 8.2210447345116009e+00 1.1908341210658225e+01 
57 1 2 1.0280000000000200e+00 -7.6496274226571845e+00 1.0000000000000000e+00 7.1355936391942514e+00 8.3882127566512512e+00 1.1880440095948741e+01 
119 1 2 1.0280000000000149e+00 1.5204992543637852e+02 1.0000000000000000e+00 7.0699632370773493e+00 8.3274048111871011e+00 1.1953330553501726e+01 
62 1 2 1.0279999999999483e+00 3.0074651254177269e+01 1.0000000000000000e+00 1.1156693154429032e+01 6.7175846829973329e+00 1.2646335749634174e+01 
33 1 2 1.0280000000000196e+00 -1.0585442703496679e+02 1.0000000000000000e+00 1.0932462589313614e+01 6.8303078320462793e+00 1.2705452282226481e+01 
125 1 2 1.0280000000000988e+00 7.5744057268918169e+01 1.0000000000000000e+00 1.1047217393710897e+01 6.8348495712920929e+00 1.2701943701495354e+01 
115 1 2 1.0279999999999825e+00 1.0734733760897051e+01 1.0000000000000000e+00 1.0884758239606239e+01 6.8411990034354480e+00 1.2710477054892802e+01 
146 1 2 1.0279999999999991e+00 -3.0373107598872110e+01 1.0000000000000000e+00 1.2094870537124908e+01 7.2023172298417135e+00 1.2595850671870959e+01 
84 1 2 1.0280000000000939e+00 1.3416802734302379e+02 1.0000000000000000e+00 1.0956729357735025e+01 6.9741501253852034e+00 1.2736111273784873e+01 
23 1 2 1.0280000000000107e+00 -2.1559173576054292e+01 1.0000000000000000e+00 1.1293429917958566e+01 9.4993541216474764e+00 1.2015662858335839e+01 
77 1 2 1.0280000000000862e+00 2.7358840175425900e+00 1.0000000000000000e+00 1.2689393111600088e+01 7.0672498038863294e+00 1.0616933300339044e+01 
100 1 2 1.0279999999999649e+00 -9.8544312152439261e+01 1.0000000000000000e+00 1.2611815222489994e+01 7.3047709933137082e+00 1.2214020098939953e+01 
24 1 2 1.0280000000000202e+00 -1.9180806875252938e+02 1.0000000000000000e+00 1.2786041494593718e+01 7.0029460592548647e+00 1.0901987491951848e+01 
103 1 2 1.0280000000000191e+00 8.0361491416551388e+01 1.0000000000000000e+00 1.2792418381122440e+01 6.9968984590202323e+00 1.0934063086356348e+01 
68 1 2 1.0279999999999601e+00 -7.9379446045907144e+01 1.0000000000000000e+00 1.2761257628262033e+01 7.3126352621635737e+00 1.1983189834038782e+01 
83 1 2 1.0280000000000451e+00 4.4679684210269727e+01 1.0000000000000000e+00 1.2848441437208820e+01 7.0463693577794393e+00 1.1111385100462291e+01 
157 1 2 1.0279999999999665e+00 1.6716030355932372e+01 1.0000000000000000e+00 1.2863884758218653e+01 7.5270348707002075e+00 1.1620969928811620e+01 
104 1 2 1.0279999999999736e+00 -2.3264451061664084e+02 1.0000000000000000e+00 1.2885535394480140e+01 7.3922835462274872e+00 1.1597021595460777e+01 
89 1 2 1.0279999999999867e+00 1.1644623750891914e+00 1.0000000000000000e+00 1.2894588234999755e+01 7.2141284094713720e+00 1.1491065506361398e+01 
34 1 2 1.0279999999999851e+00 -1.6891473180787578e+01 1.0000000000000000e+00 1.2904621665295236e+01 7.2859431619889730e+00 1.1440243468600061e+01 
90 1 2 1.0279999999999783e+00 7.2857923912204981e+01 1.0000000000000000e+00 7.4480585082541149e+00 6.8834106676320523e+00 1.3346052508493841e+01 
9 1 2 1.0279999999999676e+00 2.2040171504973625e+01 1.0000000000000000e+00 1.1781874118686675e+01 1.2588298570123145e+01 5.3608294795443179e+00 
58 1 2 1.0279999999999851e+00 1.8519450950666851e+01 1.0000000000000000e+00 1.2465143831390712e+01 1.2591721278213253e+01 3.9752717163329048e+00 
55 1 2 1.0280000000000133e+00 1.2195420530414900e+01 1.0000000000000000e+00 1.3068115264058822e+01 1.0809538685855555e+01 5.0610229244441660e+00 
129 1 2 1.0279999999999538e+00 -7.1878345599109306e+00 1.0000000000000000e+00 1.1771157157367059e+01 1.2082776163984953e+01 6.1544492040769878e+00 
70 1 2 1.0280000000000029e+00 -2.8377813329285182e+01 1.0000000000000000e+00 1.1917218435036425e+01 1.3444639114281658e+01 4.7841777761063433e+00 
158 1 2 1.0279999999999998e+00 -1.5957822679958576e+02 1.0000000000000000e+00 1.2030522881265798e+01 1.3474768935359133e+01 5.1442011225450557e+00 
136 1 2 1.0279999999999818e+00 -6.6980994890520577e+01 1.0000000000000000e+00 1.2853290022171342e+01 1.3471645426119220e+01 3.9189342323223735e+00 
75 1 2 1.0279999999999982e+00 6.8248104430274878e+01 1.0000000000000000e+00 1.2570816925998374e+01 1.3662040654193270e+01 4.0829301319967231e+00 
137 1 2 1.0280000000000038e+00 8.9068072789261038e+01 1.0000000000000000e+00 1.2397745004430222e+01 1.3743689006173051e+01 4.2606265081699650e+00 
79 1 2 1.0280000000000098e+00 8.8198967593529403e+01 1.0000000000000000e+00 1.2280912381135495e+01 1.3755250424731118e+01 4.4041541640931534e+00 
69 1 2 1.0280000000000087e+00 2.2501510926732358e+01 1.0000000000000000e+00 1.2533994676736324e+01 1.3733282535770238e+01 4.1839652555085118e+00 
92 1 2 1.0280000000000040e+00 1.5772531191341136e+02 1.0000000000000000e+00 1.2265485050678130e+01 1.3778408892282343e+01 4.5385692469187378e+00 
88 1 2 1.0280000000000036e+00 1.1168041731202406e+02 1.0000000000000000e+00 1.2406544436145866e+01 1.3772283216830008e+01 4.9336549872759798e+00 
15 1 2 1.0279999999999900e+00 4.0759671096393809e+01 1.0000000000000000e+00 1.2882271780020202e+01 1.3782550981584659e+01 4.6012219465179918e+00 
42 1 2 1.0280000000000025e+00 -1.4856371088431308e+02 1.0000000000000000e+00 1.2431767556062908e+01 1.3822610161133600e+01 4.4533795543877321e+00 
126 1 2 1.0280000000000353e+00 1.4796390598890351e+01 1.0000000000000000e+00 8.2889058262161530e+00 1.0235430407986001e+01 6.8887167987002123e+00 
27 1 2 1.0280000000000411e+00 8.7386415450045092e+01 1.0000000000000000e+00 7.9764939374943014e+00 1.0187144045309180e+01 6.8924219247016838e+00 
144 1 2 1.0280000000000402e+00 6.0534872840753593e+01 1.0000000000000000e+00 7.9399881260694016e+00 1.0249393638783689e+01 6.9300253510977958e+00 
132 1 2 1.0280000000000280e+00 5.1140923719128160e+01 1.0000000000000000e+00 7.9283425937962413e+00 1.0261628097677097e+01 6.9392160454444411e+00 
169 1 2 1.0279999999999776e+00 -2.2737482567757723e+01 1.0000000000000000e+00 7.7463642619268320e+00 1.0407369453004547e+01 9.2142454435692507e+00 
31 1 2 1.0280000000000422e+00 -1.1841738680404899e+02 1.0000000000000000e+00 7.6666260510907094e+00 1.0175296858996649e+01 6.9806458848341952e+00 
134 1 2 1.0280000000000142e+00 4.6449956185160858e+01 1.0000000000000000e+00 7.6792433858115299e+00 1.0018268469496443e+01 6.9228051729544138e+00 
73 1 2 1.0279999999998868e+00 -2.7870758451293149e+01 1.0000000000000000e+00 1.0390214916788128e+01 1.1106993124031124e+01 9.9137736893558177e+00 
127 1 2 1.0279999999999996e+00 1.1687385174075889e+02 1.0000000000000000e+00 1.3077177930246286e+01 1.0826615031971221e+01 7.5828230979794133e+00 
80 1 2 1.0279999999999974e+00 3.3833246345633491e+01 1.0000000000000000e+00 1.1852907021753868e+01 1.1532285430153578e+01 7.5688411896663998e+00 
14 1 2 1.0279999999998819e+00 6.5649429592979175e+01 1.0000000000000000e+00 1.0875444360181081e+01 1.0884952732876119e+01 7.3307473953825717e+00 
165 1 2 1.0280000000002387e+00 -7.0925806689814777e+01 1.0000000000000000e+00 1.0494914564842935e+01 1.0584822875232547e+01 8.6837598485360683e+00 
26 1 2 1.0279999999997740e+00 -9.2116308950137324e+01 1.0000000000000000e+00 1.0426649853931515e+01 1.0653622087449426e+01 8.1778618363935465e+00 
96 1 2 1.0280000000000935e+00 3.1070091274829746e+01 1.0000000000000000e+00 1.2680492215279980e+01 1.1699038816948191e+01 7.2073288564001965e+00 
46 1 2 1.0279999999999634e+00 -6.7042436052344897e+01 1.0000000000000000e+00 1.0405568691718486e+01 1.0160530824798641e+01 6.9284134895135878e+00 
64 1 2 1.0279999999998080e+00 1.7648900718668745e+02 1.0000000000000000e+00 1.0389868661302556e+01 1.0661136112594194e+01 7.9975183293402248e+00 
174 1 2 1.0280000000003937e+00 -1.3820492057549660e+02 1.0000000000000000e+00 1.0444027090975323e+01 1.0144819705049667e+01 9.3020321690871306e+00 
133 1 2 1.0280000000000828e+00 -8.3026863374544945e+01 1.0000000000000000e+00 1.2716466335710578e+01 1.1331482396449070e+01 7.5569768943811395e+00 
11 1 2 1.0280000000000780e+00 -4.9789761234248274e+01 1.0000000000000000e+00 1.2761487481022233e+01 1.1182476124069549e+01 7.6418213108927251e+00 
130 1 2 1.0279999999999774e+00 -1.1532800773708118e+02 1.0000000000000000e+00 1.2868624356145789e+01 1.0907289814879599e+01 7.7287369658412679e+00 
44 1 2 1.0280000000000482e+00 1.0761949208038598e+02 1.0000000000000000e+00 1.1933029937367280e+01 1.1549523942484415e+01 7.5710473585093654e+00 
108 1 2 1.0280000000000580e+00 5.1327112513113988e+01 1.0000000000000000e+00 1.2665879279303375e+01 1.1652685445334884e+01 7.2705377029497633e+00 
178 1 2 1.0280000000000142e+00 2.2248614804497106e+02 1.0000000000000000e+00 8.6051913314040167e+00 1.0165502686069329e+01 1.0709999951391321e+01 
10 1 2 1.0279999999999290e+00 -3.9062793261533670e+01 1.0000000000000000e+00 9.2663091730687803e+00 1.0909493218932308e+01 1.0505799142805170e+01 
116 1 2 1.0279999999999763e+00 2.7909439846888972e+01 1.0000000000000000e+00 9.4311221713989610e+00 1.0995132221479489e+01 1.0741748354985786e+01 
99 1 2 1.0279999999999638e+00 5.2557095032974814e+01 1.0000000000000000e+00 9.9543894207522037e+00 1.0913961501921962e+01 1.1644598087990531e+01 
54 1 2 1.0279999999999201e+00 2.2472306840872633e+00 1.0000000000000000e+00 9.9646635939142190e+00 1.1226626521725787e+01 1.0991276328373418e+01 
135 1 2 1.0279999999999925e+00 -1.9051597015406301e+01 1.0000000000000000e+00 1.1029050959522792e+01 1.0478383005949800e+01 1.1806348687773829e+01 
152 1 2 1.0279999999999860e+00 -1.0666530501990673e+02 1.0000000000000000e+00 1.0924043733029199e+01 1.0339669532923326e+01 1.1943689175258761e+01 
25 1 2 1.0280000000000151e+00 7.5790711560256256e+01 1.0000000000000000e+00 1.0430565677788136e+01 1.0982785117413382e+01 1.1700208000532379e+01 
81 1 2 1.0279999999999405e+00 2.3436924965672841e+02 1.0000000000000000e+00 1.0049110244692317e+01 1.1089848052888296e+01 1.1479575150656663e+01 
106 1 2 1.0279999999999756e+00 7.0980754064326455e+00 1.0000000000000000e+00 1.0952207705245815e+01 1.0586125532189264e+01 1.1802384263623585e+01 
22 1 2 1.0279999999999856e+00 -7.7902806514481455e+01 1.0000000000000000e+00 1.0971100414930588e+01 1.0437130114638219e+01 1.1873789609366288e+01 
148 1 2 1.0280000000000107e+00 -9.0007653473494400e+01 1.0000000000000000e+00 1.1124536497089260e+01 1.0393631986735686e+01 1.1763497584284165e+01 
112 1 2 1.0279999999999854e+00 1.0164396682054971e+02 1.0000000000000000e+00 1.1038601995756373e+01 1.0400508062329529e+01 1.1842117649169172e+01 
160 1 2 1.0280000000000105e+00 -1.4854499736607249e+01 1.0000000000000000e+00 1.1152819009834952e+01 1.0385035381278637e+01 1.1735613060385218e+01 
19 1 2 1.0280000000000353e+00 2.6942684410765651e+02 1.0000000000000000e+00 1.4272428654451843e+01 8.0764495311530791e+00 6.2201750126423985e+00 
76 1 2 1.0280000000000022e+00 7.7462385259391775e-01 1.0000000000000000e+00 1.4930828918205165e+01 9.7094576849842298e+00 5.0394858310884256e+00 
131 1 2 1.0279999999999287e+00 -2.0360071931677834e+02 1.0000000000000000e+00 1.4280185294772123e+01 8.9163233633637269e+00 5.8537579371779440e+00 
163 1 2 1.0280000000000260e+00 4.0446871051479491e+01 1.0000000000000000e+00 1.4257416815726414e+01 7.9741030812232241e+00 6.2461096561849807e+00 
28 1 2 1.0280000000000198e+00 4.7200389363170132e+01 1.0000000000000000e+00 1.5253672873024929e+01 9.8255524258868245e+00 4.7653620202458713e+00 
29 1 2 1.0280000000000353e+00 -2.7436093302872116e+01 1.0000000000000000e+00 1.4210909568604333e+01 7.3933601742929378e+00 6.5498740030386653e+00 
21 1 2 1.0280000000000464e+00 5.1614871850601176e+01 1.0000000000000000e+00 1.4231023155377086e+01 7.3778600432020465e+00 6.6011526131607132e+00 
141 1 2 1.0280000000000500e+00 -7.9843554206353645e+01 1.0000000000000000e+00 1.4172423089970444e+01 7.2336468632651112e+00 6.6476450030693917e+00 
93 1 2 1.0280000000000147e+00 1.1278210510878057e+02 1.0000000000000000e+00 1.5372254869113565e+01 9.8917656399075291e+00 4.6917752288022205e+00 
111 1 2 1.0279999999999905e+00 -1.0009715844043587e+01 1.0000000000000000e+00 1.3368600934860501e+01 6.3463084880050928e+00 7.7758631079326710e+00 
36 1 2 1.0280000000000349e+00 -1.4500472347618404e+02 1.0000000000000000e+00 1.3401099056911109e+01 6.3598375974497463e+00 7.7549597889463335e+00 
37 1 2 1.0280000000000147e+00 1.1851974758371205e+02 1.0000000000000000e+00 1.3374166426456837e+01 6.4806385928283552e+00 8.1898872258884303e+00 
39 1 2 1.0280000000000549e+00 3.5381050651387397e+01 1.0000000000000000e+00 1.4032893715461643e+01 6.9342742106113695e+00 7.7928619229608440e+00 
56 1 2 1.0280000000000475e+00 9.6794852586580504e+01 1.0000000000000000e+00 1.3841090575091508e+01 6.6957783075884327e+00 7.8072909049444945e+00 
13 1 2 1.0279999999999188e+00 2.9184421644017910e+01 1.0000000000000000e+00 1.3912899587806189e+01 8.2079981687976424e+00 8.0257717967577538e+00 
66 1 2 1.0280000000000524e+00 -1.2730499536534628e+01 1.0000000000000000e+00 1.4119486282126090e+01 7.0685992132287163e+00 6.7679072471067885e+00 
159 1 2 1.0279999999999494e+00 -1.8903327230715880e+02 1.0000000000000000e+00 1.4166798755720887e+01 9.4415321671653754e+00 6.9811888627397796e+00 
94 1 2 1.0280000000000080e+00 -9.2490063151749780e+01 1.0000000000000000e+00 1.5043575463499044e+01 1.1165132485828394e+01 3.2559381209684832e+00 
142 1 2 1.0279999999999976e+00 -7.1056473992307986e+01 1.0000000000000000e+00 1.5589163959939546e+01 1.0977020320804304e+01 3.3803193686181041e+00 
85 1 2 1.0279999999999820e+00 2.1173359626068634e+02 1.0000000000000000e+00 1.5542611202512147e+01 1.1118175135366259e+01 3.3908849378478094e+00 
138 1 2 1.0280000000000060e+00 -1.4634188119306089e+02 1.0000000000000000e+00 1.4380958064027036e+01 1.1190040766421207e+01 3.4213252126860842e+00 
149 1 2 1.0280000000000011e+00 -9.7261051605303280e+01 1.0000000000000000e+00 1.5671940100064234e+01 1.1065413624962181e+01 3.4782259763600321e+00 
176 1 2 1.0279999999999734e+00 9.7491401756861848e+01 1.0000000000000000e+00 1.5791156631668672e+01 1.0854239688282611e+01 3.5565212169146578e+00 
3 1 2 1.0280000000000022e+00 5.0425828903082490e+01 1.0000000000000000e+00 1.5802001667251739e+01 1.0811536645058260e+01 3.5679304792155153e+00 
65 1 2 1.0279999999999989e+00 6.5971749538323593e+01 1.0000000000000000e+00 1.5905877670664101e+01 1.0638436511487411e+01 3.8145401501792211e+00 
155 1 2 1.0280000000000054e+00 -8.9155538176793225e+00 1.0000000000000000e+00 1.5884429735403142e+01 1.0591566411952824e+01 3.7723508353394957e+00 
143 1 2 1.0280000000000038e+00 -1.4824618156901600e+01 1.0000000000000000e+00 1.5893944365043073e+01 1.0459823440363520e+01 4.1503504859755385e+00 
114 1 2 1.0280000000000056e+00 1.5746114724311914e+01 1.0000000000000000e+00 1.5739413529160604e+01 1.0155073434633193e+01 4.1908186500330880e+00 
105 1 2 1.0280000000000078e+00 -8.6217406888659724e+01 1.0000000000000000e+00 1.5010960274719366e+01 1.1787985077192474e+01 3.6157860038610679e+00 
177 1 2 1.0279999999999736e+00 4.0853488158524613e+01 1.0000000000000000e+00 1.3982414894114576e+01 1.0460899775182693e+01 6.4913477093336578e+00 
124 1 2 1.0279999999999987e+00 1.8829993699222410e+02 1.0000000000000000e+00 1.4079618542003900e+01 1.2080876491639851e+01 3.5797839901435249e+00 
6 1 2 1.0279999999999860e+00 3.6156439593317373e+02 1.0000000000000000e+00 1.3402600323352212e+01 1.3028182865334831e+01 3.8232037558898559e+00 
95 1 2 1.0279999999999683e+00 -8.5022110205898684e+01 1.0000000000000000e+00 1.3789305705038831e+01 1.0583129906110610e+01 6.7200203710242770e+00 

Velocities

45 -9.4296063806759475e-13 1.6820611483203060e-12 -3.8197950969201642e-12
109 -4.0700544938264902e-13 2.1409636120274911e-12 -3.8822343309607719e-12
154 4.7803077902793083e-13 3.1821438628313765e-12 -3.3264229634782000e-12
30 3.8319291807263138e-12 4.0680648773960938e-12 2.2945245198342268e-12
167 3.1161059757869305e-12 3.9528478857885210e-12 1.1761844970342977e-12
60 3.5330715150923090e-12 3.8692302075043790e-12 2.5783295826603764e-12
82 3.6538491382314750e-12 3.7772967402196804e-12 3.3673901948877859e-12
117 5.0916176438525754e-13 3.4412188653894189e-12 -3.5360820104605898e-12
53 1.5554832232176530e-12 2.1216654432898543e-12 1.2180276477200257e-12
87 4.6309313208615983e-13 1.1799310028762629e-12 1.1290579853788002e-12
5 2.5053579665992928e-12 3.7869943028680923e-14 1.0385453364479773e-12
59 1.5933429896156960e-12 -1.1981047243800514e-12 1.4241842521282434e-12
2 6.9845569337022209e-13 -2.1892794284910671e-12 1.9238828516584637e-12
38 9.2450874615097851e-13 -1.1039462119312544e-12 1.6986504366525818e-12
4 8.7270644447285467e-13 -1.0977308750211401e-12 2.3973326633825126e-12
7 1.9036939056927113e-12 -1.5218439906196723e-12 1.2341902011043969e-12
47 7.3622560725437157e-14 -1.5157687498886992e-12 1.6999717672196865e-12
147 -9.3284400848619199e-14 -2.0740311207380008e-12 1.9093773883202071e-12
166 -7.6457362811350814e-13 -1.1686158577797126e-12 2.5612504201540517e-12
168 -1.0640526214603205e-12 -1.5630095872139663e-12 2.3664120400710916e-12
17 -3.3202624219626820e-13 -2.2082567391219306e-12 2.0630221200634187e-12
97 -2.0819396918436180e-12 -1.8200685220027776e-12 2.5059194550996254e-12
123 -2.1659406147531385e-12 1.1113598618879269e-12 5.8259931311753008e-13
101 -1.9864825809221597e-12 6.6426903149818741e-13 1.4013733585367382e-12
120 -1.1831584927687608e-12 -1.9080503980324974e-13 1.8105570358054396e-12
43 -4.2862860394609461e-13 -2.8497846322207807e-13 1.6162379939573960e-12
41 1.6139616427755138e-12 -1.3902767611488715e-12 2.9722619452567735e-12
153 6.8557827612678328e-13 -3.8484667767119104e-13 1.8464678278344445e-12
91 6.2158954261155373e-13 -2.8161690644413854e-13 1.6979991369578935e-12
145 1.5891901971091236e-12 1.5595020763497838e-12 1.0035444364751767e-12
121 7.9777993254107354e-12 -1.6904716698267918e-12 -1.1270336227367385e-12
161 5.1128401093147455e-12 -2.2165553521087654e-12 -3.9642779711833927e-14
49 2.8592898498181006e-12 -2.1885261896100295e-12 1.2321866751837572e-12
48 3.4582150147995271e-12 1.5266646841085625e-12 1.6566910719586395e-12
12 1.6336454173822621e-12 -9.6214862667975844e-14 1.1784389010071759e-12
52 -6.2084916085703747e-15 2.2188969691883098e-12 7.2526702680248189e-13
71 2.5817880476437907e-12 3.7969498037800726e-12 3.4919416452639074e-12
139 3.7176768668098491e-12 4.8930686166869272e-12 2.7492788627906966e-12
150 4.4231514098221625e-12 4.1804229614535214e-12 4.6190582138646086e-12
72 4.0850777515102590e-12 4.1877583251910720e-12 4.8133162955017876e-12
113 3.2264523201025378e-12 3.2237391540834293e-12 3.8075099617776074e-12
86 2.9180454703099626e-12 3.1720645550823010e-12 3.9239267112973246e-12
74 3.7111184496785203e-12 3.3814021369488709e-12 3.9180711363318412e-12
50 3.8602960132030746e-12 3.3034801476421015e-12 4.2151655787146068e-12