LAMMPS data file via write_data, version 30 Jul 2016, timestep = 50000000

4620 atoms
8 atom types

0.0000000000000000e+00 1.0000000000000000e+02 xlo xhi
0.0000000000000000e+00 4.0000000000000000e+01 ylo yhi
0.0000000000000000e+00 4.0000000000000000e+01 zlo zhi

Masses

1 3.896
2 5.36
3 20.064
4 8.378
5 8.378
6 8.378
7 8.378
8 8.378

Atoms # meso-molecular

86 87 2 1.4411425104121596e+00 -1.0193668831623835e-04 1.0000000000000000e+00 1.3948063758144531e+00 1.0000000000000000e+01 7.0455084722628858e-01 
87 88 2 1.4411425104121596e+00 -1.0193678259865513e-04 1.0000000000000000e+00 3.5739774148084154e+00 1.0000000000000000e+01 7.0456457814241591e-01 
88 89 2 1.4411425104121596e+00 -1.0193692758491485e-04 1.0000000000000000e+00 5.8267641718556193e+00 1.0000000000000000e+01 7.0453603536220999e-01 
89 90 2 1.4411425104121596e+00 -1.0193705308390379e-04 1.0000000000000000e+00 7.9802408551370396e+00 1.0000000000000000e+01 7.0458014594513874e-01 
90 91 2 1.4411425104121596e+00 -1.0193717284866776e-04 1.0000000000000000e+00 1.0066188029877756e+01 1.0000000000000000e+01 7.0453179963447854e-01 
91 92 2 1.4411425104121596e+00 -1.0193732398485343e-04 1.0000000000000000e+00 1.2109145880049498e+01 1.0000000000000000e+01 7.0456504851742241e-01 
92 93 2 1.4411425104121596e+00 -1.0193747223010915e-04 1.0000000000000000e+00 1.4126757162717405e+01 1.0000000000000000e+01 7.0455622154203712e-01 
93 94 2 1.4411425104121596e+00 -1.0193760307527771e-04 1.0000000000000000e+00 1.6133300052189682e+01 1.0000000000000000e+01 7.0454849828071986e-01 
94 95 2 1.4411425104121596e+00 -1.0193771246729120e-04 1.0000000000000000e+00 1.8140434726932138e+01 1.0000000000000000e+01 7.0455868684258860e-01 
95 96 2 1.4411425104121596e+00 -1.0193779880730333e-04 1.0000000000000000e+00 2.0169699672919446e+01 1.0000000000000000e+01 7.0455311536954246e-01 
96 97 2 1.4411425104121596e+00 -1.0193785042610405e-04 1.0000000000000000e+00 2.2207206136361272e+01 1.0000000000000000e+01 7.0455484312199679e-01 
97 98 2 1.4411425104121596e+00 -1.0193789516980209e-04 1.0000000000000000e+00 2.4426793056162762e+01 1.0000000000000000e+01 7.0455450764019767e-01 
98 99 2 1.4411425104121596e+00 -1.0193794683356238e-04 1.0000000000000000e+00 2.6717741013783680e+01 1.0000000000000000e+01 7.0455455417532908e-01 
99 100 2 1.4411425104121596e+00 -1.0193794730514288e-04 1.0000000000000000e+00 2.8991450824322992e+01 1.0000000000000000e+01 7.0455455024599700e-01 
100 101 2 1.4411425104121596e+00 -1.0193795505222112e-04 1.0000000000000000e+00 3.1328495124249635e+01 1.0000000000000000e+01 7.0455455037060255e-01 
548 549 2 1.4411425104121596e+00 -1.0193668831623835e-04 1.0000000000000000e+00 1.3948063758144531e+00 1.2199999999999999e+01 7.0455084722628858e-01 
549 550 2 1.4411425104121596e+00 -1.0193678259865513e-04 1.0000000000000000e+00 3.5739774148084154e+00 1.2199999999999999e+01 7.0456457814241591e-01 
550 551 2 1.4411425104121596e+00 -1.0193692758491485e-04 1.0000000000000000e+00 5.8267641718556193e+00 1.2199999999999999e+01 7.0453603536220999e-01 
551 552 2 1.4411425104121596e+00 -1.0193705308390379e-04 1.0000000000000000e+00 7.9802408551370396e+00 1.2199999999999999e+01 7.0458014594513874e-01 
552 553 2 1.4411425104121596e+00 -1.0193717284866776e-04 1.0000000000000000e+00 1.0066188029877756e+01 1.2199999999999999e+01 7.0453179963447854e-01 
553 554 2 1.4411425104121596e+00 -1.0193732398485343e-04 1.0000000000000000e+00 1.2109145880049498e+01 1.2199999999999999e+01 7.0456504851742241e-01 
554 555 2 1.4411425104121596e+00 -1.0193747223010915e-04 1.0000000000000000e+00 1.4126757162717405e+01 1.2199999999999999e+01 7.0455622154203712e-01 
555 556 2 1.4411425104121596e+00 -1.0193760307527771e-04 1.0000000000000000e+00 1.6133300052189682e+01 1.2199999999999999e+01 7.0454849828071986e-01 
556 557 2 1.4411425104121596e+00 -1.0193771246729120e-04 1.0000000000000000e+00 1.8140434726932138e+01 1.2199999999999999e+01 7.0455868684258860e-01 
557 558 2 1.4411425104121596e+00 -1.0193779880730333e-04 1.0000000000000000e+00 2.0169699672919446e+01 1.2199999999999999e+01 7.0455311536954246e-01 
558 559 2 1.4411425104121596e+00 -1.0193785042610405e-04 1.0000000000000000e+00 2.2207206136361272e+01 1.2199999999999999e+01 7.0455484312199679e-01 
559 560 2 1.4411425104121596e+00 -1.0193789516980209e-04 1.0000000000000000e+00 2.4426793056162762e+01 1.2199999999999999e+01 7.0455450764019767e-01 
560 561 2 1.4411425104121596e+00 -1.0193794683356238e-04 1.0000000000000000e+00 2.6717741013783680e+01 1.2199999999999999e+01 7.0455455417532908e-01 
561 562 2 1.4411425104121596e+00 -1.0193794730514288e-04 1.0000000000000000e+00 2.8991450824322992e+01 1.2199999999999999e+01 7.0455455024599700e-01 
562 563 2 1.4411425104121596e+00 -1.0193795505222112e-04 1.0000000000000000e+00 3.1328495124249635e+01 1.2199999999999999e+01 7.0455455037060255e-01 
1010 1011 2 1.4411425104121596e+00 -1.0193668831623835e-04 1.0000000000000000e+00 1.3948063758144531e+00 1.4400000000000000e+01 7.0455084722628858e-01 
1011 1012 2 1.4411425104121596e+00 -1.0193678259865513e-04 1.0000000000000000e+00 3.5739774148084154e+00 1.4400000000000000e+01 7.0456457814241591e-01 
1012 1013 2 1.4411425104121596e+00 -1.0193692758491485e-04 1.0000000000000000e+00 5.8267641718556193e+00 1.4400000000000000e+01 7.0453603536220999e-01 
1013 1014 2 1.4411425104121596e+00 -1.0193705308390379e-04 1.0000000000000000e+00 7.9802408551370396e+00 1.4400000000000000e+01 7.0458014594513874e-01 
1014 1015 2 1.4411425104121596e+00 -1.0193717284866776e-04 1.0000000000000000e+00 1.0066188029877756e+01 1.4400000000000000e+01 7.0453179963447854e-01 
1015 1016 2 1.4411425104121596e+00 -1.0193732398485343e-04 1.0000000000000000e+00 1.2109145880049498e+01 1.4400000000000000e+01 7.0456504851742241e-01 
1016 1017 2 1.4411425104121596e+00 -1.0193747223010915e-04 1.0000000000000000e+00 1.4126757162717405e+01 1.4400000000000000e+01 7.0455622154203712e-01 
1017 1018 2 1.4411425104121596e+00 -1.0193760307527771e-04 1.0000000000000000e+00 1.6133300052189682e+01 1.4400000000000000e+01 7.0454849828071986e-01 
1018 1019 2 1.4411425104121596e+00 -1.0193771246729120e-04 1.0000000000000000e+00 1.8140434726932138e+01 1.4400000000000000e+01 7.0455868684258860e-01 
1019 1020 2 1.4411425104121596e+00 -1.0193779880730333e-04 1.0000000000000000e+00 2.0169699672919446e+01 1.4400000000000000e+01 7.0455311536954246e-01 
1020 1021 2 1.4411425104121596e+00 -1.0193785042610405e-04 1.0000000000000000e+00 2.2207206136361272e+01 1.4400000000000000e+01 7.0455484312199679e-01 
1021 1022 2 1.4411425104121596e+00 -1.0193789516980209e-04 1.0000000000000000e+00 2.4426793056162762e+01 1.4400000000000000e+01 7.0455450764019767e-01 
1022 1023 2 1.4411425104121596e+00 -1.0193794683356238e-04 1.0000000000000000e+00 2.6717741013783680e+01 1.4400000000000000e+01 7.0455455417532908e-01 
1023 1024 2 1.4411425104121596e+00 -1.0193794730514288e-04 1.0000000000000000e+00 2.8991450824322992e+01 1.4400000000000000e+01 7.0455455024599700e-01 
1024 1025 2 1.4411425104121596e+00 -1.0193795505222112e-04 1.0000000000000000e+00 3.1328495124249635e+01 1.4400000000000000e+01 7.0455455037060255e-01 
1472 1473 2 1.4411425104121596e+00 -1.0193668831623835e-04 1.0000000000000000e+00 1.3948063758144531e+00 1.6600000000000001e+01 7.0455084722628858e-01 
1473 1474 2 1.4411425104121596e+00 -1.0193678259865513e-04 1.0000000000000000e+00 3.5739774148084154e+00 1.6600000000000001e+01 7.0456457814241591e-01 
1474 1475 2 1.4411425104121596e+00 -1.0193692758491485e-04 1.0000000000000000e+00 5.8267641718556193e+00 1.6600000000000001e+01 7.0453603536220999e-01 
1475 1476 2 1.4411425104121596e+00 -1.0193705308390379e-04 1.0000000000000000e+00 7.9802408551370396e+00 1.6600000000000001e+01 7.0458014594513874e-01 
1476 1477 2 1.4411425104121596e+00 -1.0193717284866776e-04 1.0000000000000000e+00 1.0066188029877756e+01 1.6600000000000001e+01 7.0453179963447854e-01 
1477 1478 2 1.4411425104121596e+00 -1.0193732398485343e-04 1.0000000000000000e+00 1.2109145880049498e+01 1.6600000000000001e+01 7.0456504851742241e-01 
1478 1479 2 1.4411425104121596e+00 -1.0193747223010915e-04 1.0000000000000000e+00 1.4126757162717405e+01 1.6600000000000001e+01 7.0455622154203712e-01 
1479 1480 2 1.4411425104121596e+00 -1.0193760307527771e-04 1.0000000000000000e+00 1.6133300052189682e+01 1.6600000000000001e+01 7.0454849828071986e-01 
1480 1481 2 1.4411425104121596e+00 -1.0193771246729120e-04 1.0000000000000000e+00 1.8140434726932138e+01 1.6600000000000001e+01 7.0455868684258860e-01 
1481 1482 2 1.4411425104121596e+00 -1.0193779880730333e-04 1.0000000000000000e+00 2.0169699672919446e+01 1.6600000000000001e+01 7.0455311536954246e-01 
1482 1483 2 1.4411425104121596e+00 -1.0193785042610405e-04 1.0000000000000000e+00 2.2207206136361272e+01 1.6600000000000001e+01 7.0455484312199679e-01 
1483 1484 2 1.4411425104121596e+00 -1.0193789516980209e-04 1.0000000000000000e+00 2.4426793056162762e+01 1.6600000000000001e+01 7.0455450764019767e-01 
1484 1485 2 1.4411425104121596e+00 -1.0193794683356238e-04 1.0000000000000000e+00 2.6717741013783680e+01 1.6600000000000001e+01 7.0455455417532908e-01 
1485 1486 2 1.4411425104121596e+00 -1.0193794730514288e-04 1.0000000000000000e+00 2.8991450824322992e+01 1.6600000000000001e+01 7.0455455024599700e-01 
1486 1487 2 1.4411425104121596e+00 -1.0193795505222112e-04 1.0000000000000000e+00 3.1328495124249635e+01 1.6600000000000001e+01 7.0455455037060255e-01 
1934 1935 2 1.4411425104121596e+00 -1.0193668831623835e-04 1.0000000000000000e+00 1.3948063758144531e+00 1.8800000000000001e+01 7.0455084722628858e-01 
1935 1936 2 1.4411425104121596e+00 -1.0193678259865513e-04 1.0000000000000000e+00 3.5739774148084154e+00 1.8800000000000001e+01 7.0456457814241591e-01 
1936 1937 2 1.4411425104121596e+00 -1.0193692758491485e-04 1.0000000000000000e+00 5.8267641718556193e+00 1.8800000000000001e+01 7.0453603536220999e-01 
1937 1938 2 1.4411425104121596e+00 -1.0193705308390379e-04 1.0000000000000000e+00 7.9802408551370396e+00 1.8800000000000001e+01 7.0458014594513874e-01 
1938 1939 2 1.4411425104121596e+00 -1.0193717284866776e-04 1.0000000000000000e+00 1.0066188029877756e+01 1.8800000000000001e+01 7.0453179963447854e-01 
1939 1940 2 1.4411425104121596e+00 -1.0193732398485343e-04 1.0000000000000000e+00 1.2109145880049498e+01 1.8800000000000001e+01 7.0456504851742241e-01 
1940 1941 2 1.4411425104121596e+00 -1.0193747223010915e-04 1.0000000000000000e+00 1.4126757162717405e+01 1.8800000000000001e+01 7.0455622154203712e-01 
1941 1942 2 1.4411425104121596e+00 -1.0193760307527771e-04 1.0000000000000000e+00 1.6133300052189682e+01 1.8800000000000001e+01 7.0454849828071986e-01 
1942 1943 2 1.4411425104121596e+00 -1.0193771246729120e-04 1.0000000000000000e+00 1.8140434726932138e+01 1.8800000000000001e+01 7.0455868684258860e-01 
1943 1944 2 1.4411425104121596e+00 -1.0193779880730333e-04 1.0000000000000000e+00 2.0169699672919446e+01 1.8800000000000001e+01 7.0455311536954246e-01 
1944 1945 2 1.4411425104121596e+00 -1.0193785042610405e-04 1.0000000000000000e+00 2.2207206136361272e+01 1.8800000000000001e+01 7.0455484312199679e-01 
1945 1946 2 1.4411425104121596e+00 -1.0193789516980209e-04 1.0000000000000000e+00 2.4426793056162762e+01 1.8800000000000001e+01 7.0455450764019767e-01 
1946 1947 2 1.4411425104121596e+00 -1.0193794683356238e-04 1.0000000000000000e+00 2.6717741013783680e+01 1.8800000000000001e+01 7.0455455417532908e-01 
1947 1948 2 1.4411425104121596e+00 -1.0193794730514288e-04 1.0000000000000000e+00 2.8991450824322992e+01 1.8800000000000001e+01 7.0455455024599700e-01 
1948 1949 2 1.4411425104121596e+00 -1.0193795505222112e-04 1.0000000000000000e+00 3.1328495124249635e+01 1.8800000000000001e+01 7.0455455037060255e-01 
128 129 2 1.4411425104121596e+00 -1.0193669591512598e-04 1.0000000000000000e+00 1.3948058268921846e+00 1.0000000000000000e+01 3.1819417823664962e+00 
129 130 2 1.4411425104121596e+00 -1.0193679012110517e-04 1.0000000000000000e+00 3.5739278407523587e+00 1.0000000000000000e+01 3.1819389916905920e+00 
130 131 2 1.4411425104121596e+00 -1.0193693590296405e-04 1.0000000000000000e+00 5.8267636710434445e+00 1.0000000000000000e+01 3.1819478056146306e+00 
131 132 2 1.4411425104121596e+00 -1.0193706015731386e-04 1.0000000000000000e+00 7.9802226619971171e+00 1.0000000000000000e+01 3.1819299506107472e+00 
132 133 2 1.4411425104121596e+00 -1.0193718118302489e-04 1.0000000000000000e+00 1.0066239083675510e+01 1.0000000000000000e+01 3.1819530189682994e+00 
133 134 2 1.4411425104121596e+00 -1.0193733142839440e-04 1.0000000000000000e+00 1.2109199182701543e+01 1.0000000000000000e+01 3.1819357556827894e+00 
134 135 2 1.4411425104121596e+00 -1.0193747992985852e-04 1.0000000000000000e+00 1.4126788379421122e+01 1.0000000000000000e+01 3.1819399236437094e+00 
135 136 2 1.4411425104121596e+00 -1.0193761104523252e-04 1.0000000000000000e+00 1.6133311635873980e+01 1.0000000000000000e+01 3.1819449867820495e+00 
136 137 2 1.4411425104121596e+00 -1.0193772015838003e-04 1.0000000000000000e+00 1.8140440483743809e+01 1.0000000000000000e+01 3.1819389889369449e+00 
137 138 2 1.4411425104121596e+00 -1.0193780664443508e-04 1.0000000000000000e+00 2.0169703981417133e+01 1.0000000000000000e+01 3.1819420247971095e+00 
138 139 2 1.4411425104121596e+00 -1.0193785826619508e-04 1.0000000000000000e+00 2.2207207553740997e+01 1.0000000000000000e+01 3.1819411811368923e+00 
139 140 2 1.4411425104121596e+00 -1.0193790297749770e-04 1.0000000000000000e+00 2.4426794439409829e+01 1.0000000000000000e+01 3.1819413264757719e+00 
140 141 2 1.4411425104121596e+00 -1.0193795464477347e-04 1.0000000000000000e+00 2.6717749236165883e+01 1.0000000000000000e+01 3.1819413060417161e+00 
141 142 2 1.4411425104121596e+00 -1.0193795506057224e-04 1.0000000000000000e+00 2.8991450820064948e+01 1.0000000000000000e+01 3.1819413070889100e+00 
142 143 2 1.4411425104121596e+00 -1.0193796275316647e-04 1.0000000000000000e+00 3.1328495176114167e+01 1.0000000000000000e+01 3.1819413070889375e+00 
590 591 2 1.4411425104121596e+00 -1.0193669591512598e-04 1.0000000000000000e+00 1.3948058268921846e+00 1.2199999999999999e+01 3.1819417823664962e+00 
591 592 2 1.4411425104121596e+00 -1.0193679012110517e-04 1.0000000000000000e+00 3.5739278407523587e+00 1.2199999999999999e+01 3.1819389916905920e+00 
592 593 2 1.4411425104121596e+00 -1.0193693590296405e-04 1.0000000000000000e+00 5.8267636710434445e+00 1.2199999999999999e+01 3.1819478056146306e+00 
593 594 2 1.4411425104121596e+00 -1.0193706015731386e-04 1.0000000000000000e+00 7.9802226619971171e+00 1.2199999999999999e+01 3.1819299506107472e+00 
594 595 2 1.4411425104121596e+00 -1.0193718118302489e-04 1.0000000000000000e+00 1.0066239083675510e+01 1.2199999999999999e+01 3.1819530189682994e+00 
595 596 2 1.4411425104121596e+00 -1.0193733142839440e-04 1.0000000000000000e+00 1.2109199182701543e+01 1.2199999999999999e+01 3.1819357556827894e+00 
596 597 2 1.4411425104121596e+00 -1.0193747992985852e-04 1.0000000000000000e+00 1.4126788379421122e+01 1.2199999999999999e+01 3.1819399236437094e+00 
597 598 2 1.4411425104121596e+00 -1.0193761104523252e-04 1.0000000000000000e+00 1.6133311635873980e+01 1.2199999999999999e+01 3.1819449867820495e+00 
598 599 2 1.4411425104121596e+00 -1.0193772015838003e-04 1.0000000000000000e+00 1.8140440483743809e+01 1.2199999999999999e+01 3.1819389889369449e+00 
599 600 2 1.4411425104121596e+00 -1.0193780664443508e-04 1.0000000000000000e+00 2.0169703981417133e+01 1.2199999999999999e+01 3.1819420247971095e+00 
600 601 2 1.4411425104121596e+00 -1.0193785826619508e-04 1.0000000000000000e+00 2.2207207553740997e+01 1.2199999999999999e+01 3.1819411811368923e+00 
601 602 2 1.4411425104121596e+00 -1.0193790297749770e-04 1.0000000000000000e+00 2.4426794439409829e+01 1.2199999999999999e+01 3.1819413264757719e+00 
602 603 2 1.4411425104121596e+00 -1.0193795464477347e-04 1.0000000000000000e+00 2.6717749236165883e+01 1.2199999999999999e+01 3.1819413060417161e+00 
603 604 2 1.4411425104121596e+00 -1.0193795506057224e-04 1.0000000000000000e+00 2.8991450820064948e+01 1.2199999999999999e+01 3.1819413070889100e+00 
604 605 2 1.4411425104121596e+00 -1.0193796275316647e-04 1.0000000000000000e+00 3.1328495176114167e+01 1.2199999999999999e+01 3.1819413070889375e+00 
1052 1053 2 1.4411425104121596e+00 -1.0193669591512598e-04 1.0000000000000000e+00 1.3948058268921846e+00 1.4400000000000000e+01 3.1819417823664962e+00 
1053 1054 2 1.4411425104121596e+00 -1.0193679012110517e-04 1.0000000000000000e+00 3.5739278407523587e+00 1.4400000000000000e+01 3.1819389916905920e+00 
1054 1055 2 1.4411425104121596e+00 -1.0193693590296405e-04 1.0000000000000000e+00 5.8267636710434445e+00 1.4400000000000000e+01 3.1819478056146306e+00 
1055 1056 2 1.4411425104121596e+00 -1.0193706015731386e-04 1.0000000000000000e+00 7.9802226619971171e+00 1.4400000000000000e+01 3.1819299506107472e+00 
1056 1057 2 1.4411425104121596e+00 -1.0193718118302489e-04 1.0000000000000000e+00 1.0066239083675510e+01 1.4400000000000000e+01 3.1819530189682994e+00 
1057 1058 2 1.4411425104121596e+00 -1.0193733142839440e-04 1.0000000000000000e+00 1.2109199182701543e+01 1.4400000000000000e+01 3.1819357556827894e+00 
1058 1059 2 1.4411425104121596e+00 -1.0193747992985852e-04 1.0000000000000000e+00 1.4126788379421122e+01 1.4400000000000000e+01 3.1819399236437094e+00 
1059 1060 2 1.4411425104121596e+00 -1.0193761104523252e-04 1.0000000000000000e+00 1.6133311635873980e+01 1.4400000000000000e+01 3.1819449867820495e+00 
1060 1061 2 1.4411425104121596e+00 -1.0193772015838003e-04 1.0000000000000000e+00 1.8140440483743809e+01 1.4400000000000000e+01 3.1819389889369449e+00 
1061 1062 2 1.4411425104121596e+00 -1.0193780664443508e-04 1.0000000000000000e+00 2.0169703981417133e+01 1.4400000000000000e+01 3.1819420247971095e+00 
1062 1063 2 1.4411425104121596e+00 -1.0193785826619508e-04 1.0000000000000000e+00 2.2207207553740997e+01 1.4400000000000000e+01 3.1819411811368923e+00 
1063 1064 2 1.4411425104121596e+00 -1.0193790297749770e-04 1.0000000000000000e+00 2.4426794439409829e+01 1.4400000000000000e+01 3.1819413264757719e+00 
1064 1065 2 1.4411425104121596e+00 -1.0193795464477347e-04 1.0000000000000000e+00 2.6717749236165883e+01 1.4400000000000000e+01 3.1819413060417161e+00 
1065 1066 2 1.4411425104121596e+00 -1.0193795506057224e-04 1.0000000000000000e+00 2.8991450820064948e+01 1.4400000000000000e+01 3.1819413070889100e+00 
1066 1067 2 1.4411425104121596e+00 -1.0193796275316647e-04 1.0000000000000000e+00 3.1328495176114167e+01 1.4400000000000000e+01 3.1819413070889375e+00 
1514 1515 2 1.4411425104121596e+00 -1.0193669591512598e-04 1.0000000000000000e+00 1.3948058268921846e+00 1.6600000000000001e+01 3.1819417823664962e+00 
1515 1516 2 1.4411425104121596e+00 -1.0193679012110517e-04 1.0000000000000000e+00 3.5739278407523587e+00 1.6600000000000001e+01 3.1819389916905920e+00 
1516 1517 2 1.4411425104121596e+00 -1.0193693590296405e-04 1.0000000000000000e+00 5.8267636710434445e+00 1.6600000000000001e+01 3.1819478056146306e+00 
1517 1518 2 1.4411425104121596e+00 -1.0193706015731386e-04 1.0000000000000000e+00 7.9802226619971171e+00 1.6600000000000001e+01 3.1819299506107472e+00 
1518 1519 2 1.4411425104121596e+00 -1.0193718118302489e-04 1.0000000000000000e+00 1.0066239083675510e+01 1.6600000000000001e+01 3.1819530189682994e+00 
1519 1520 2 1.4411425104121596e+00 -1.0193733142839440e-04 1.0000000000000000e+00 1.2109199182701543e+01 1.6600000000000001e+01 3.1819357556827894e+00 
1520 1521 2 1.4411425104121596e+00 -1.0193747992985852e-04 1.0000000000000000e+00 1.4126788379421122e+01 1.6600000000000001e+01 3.1819399236437094e+00 
1521 1522 2 1.4411425104121596e+00 -1.0193761104523252e-04 1.0000000000000000e+00 1.6133311635873980e+01 1.6600000000000001e+01 3.1819449867820495e+00 
1522 1523 2 1.4411425104121596e+00 -1.0193772015838003e-04 1.0000000000000000e+00 1.8140440483743809e+01 1.6600000000000001e+01 3.1819389889369449e+00 
1523 1524 2 1.4411425104121596e+00 -1.0193780664443508e-04 1.0000000000000000e+00 2.0169703981417133e+01 1.6600000000000001e+01 3.1819420247971095e+00 
1524 1525 2 1.4411425104121596e+00 -1.0193785826619508e-04 1.0000000000000000e+00 2.2207207553740997e+01 1.6600000000000001e+01 3.1819411811368923e+00 
1525 1526 2 1.4411425104121596e+00 -1.0193790297749770e-04 1.0000000000000000e+00 2.4426794439409829e+01 1.6600000000000001e+01 3.1819413264757719e+00 
1526 1527 2 1.4411425104121596e+00 -1.0193795464477347e-04 1.0000000000000000e+00 2.6717749236165883e+01 1.6600000000000001e+01 3.1819413060417161e+00 
1527 1528 2 1.4411425104121596e+00 -1.0193795506057224e-04 1.0000000000000000e+00 2.8991450820064948e+01 1.6600000000000001e+01 3.1819413070889100e+00 
1528 1529 2 1.4411425104121596e+00 -1.0193796275316647e-04 1.0000000000000000e+00 3.1328495176114167e+01 1.6600000000000001e+01 3.1819413070889375e+00 
1976 1977 2 1.4411425104121596e+00 -1.0193669591512598e-04 1.0000000000000000e+00 1.3948058268921846e+00 1.8800000000000001e+01 3.1819417823664962e+00 
1977 1978 2 1.4411425104121596e+00 -1.0193679012110517e-04 1.0000000000000000e+00 3.5739278407523587e+00 1.8800000000000001e+01 3.1819389916905920e+00 
1978 1979 2 1.4411425104121596e+00 -1.0193693590296405e-04 1.0000000000000000e+00 5.8267636710434445e+00 1.8800000000000001e+01 3.1819478056146306e+00 
1979 1980 2 1.4411425104121596e+00 -1.0193706015731386e-04 1.0000000000000000e+00 7.9802226619971171e+00 1.8800000000000001e+01 3.1819299506107472e+00 
1980 1981 2 1.4411425104121596e+00 -1.0193718118302489e-04 1.0000000000000000e+00 1.0066239083675510e+01 1.8800000000000001e+01 3.1819530189682994e+00 
1981 1982 2 1.4411425104121596e+00 -1.0193733142839440e-04 1.0000000000000000e+00 1.2109199182701543e+01 1.8800000000000001e+01 3.1819357556827894e+00 
1982 1983 2 1.4411425104121596e+00 -1.0193747992985852e-04 1.0000000000000000e+00 1.4126788379421122e+01 1.8800000000000001e+01 3.1819399236437094e+00 
1983 1984 2 1.4411425104121596e+00 -1.0193761104523252e-04 1.0000000000000000e+00 1.6133311635873980e+01 1.8800000000000001e+01 3.1819449867820495e+00 
1984 1985 2 1.4411425104121596e+00 -1.0193772015838003e-04 1.0000000000000000e+00 1.8140440483743809e+01 1.8800000000000001e+01 3.1819389889369449e+00 
1985 1986 2 1.4411425104121596e+00 -1.0193780664443508e-04 1.0000000000000000e+00 2.0169703981417133e+01 1.8800000000000001e+01 3.1819420247971095e+00 
1986 1987 2 1.4411425104121596e+00 -1.0193785826619508e-04 1.0000000000000000e+00 2.2207207553740997e+01 1.8800000000000001e+01 3.1819411811368923e+00 
1987 1988 2 1.4411425104121596e+00 -1.0193790297749770e-04 1.0000000000000000e+00 2.4426794439409829e+01 1.8800000000000001e+01 3.1819413264757719e+00 
1988 1989 2 1.4411425104121596e+00 -1.0193795464477347e-04 1.0000000000000000e+00 2.6717749236165883e+01 1.8800000000000001e+01 3.1819413060417161e+00 
1989 1990 2 1.4411425104121596e+00 -1.0193795506057224e-04 1.0000000000000000e+00 2.8991450820064948e+01 1.8800000000000001e+01 3.1819413070889100e+00 
1990 1991 2 1.4411425104121596e+00 -1.0193796275316647e-04 1.0000000000000000e+00 3.1328495176114167e+01 1.8800000000000001e+01 3.1819413070889375e+00 
170 171 2 1.4411425104121596e+00 -1.0193679748430384e-04 1.0000000000000000e+00 1.3948056055977223e+00 1.0000000000000000e+01 9.1664012603578193e+00 
171 172 2 1.4411425104121596e+00 -1.0193689177405299e-04 1.0000000000000000e+00 3.5740384115477908e+00 1.0000000000000000e+01 9.1664208702545587e+00 
172 173 2 1.4411425104121596e+00 -1.0193703757462200e-04 1.0000000000000000e+00 5.8267688025077478e+00 1.0000000000000000e+01 9.1664041670340328e+00 
173 174 2 1.4411425104121596e+00 -1.0193716182545836e-04 1.0000000000000000e+00 7.9802498787014322e+00 1.0000000000000000e+01 9.1664101327986831e+00 
174 175 2 1.4411425104121596e+00 -1.0193728286469686e-04 1.0000000000000000e+00 1.0066218354281901e+01 1.0000000000000000e+01 9.1664121350894643e+00 
175 176 2 1.4411425104121596e+00 -1.0193743309559880e-04 1.0000000000000000e+00 1.2109198978182432e+01 1.0000000000000000e+01 9.1664091428997647e+00 
176 177 2 1.4411425104121596e+00 -1.0193758154424915e-04 1.0000000000000000e+00 1.4126782526450933e+01 1.0000000000000000e+01 9.1664087065245337e+00 
177 178 2 1.4411425104121596e+00 -1.0193771262481519e-04 1.0000000000000000e+00 1.6133305215767002e+01 1.0000000000000000e+01 9.1664121148394404e+00 
178 179 2 1.4411425104121596e+00 -1.0193782180887315e-04 1.0000000000000000e+00 1.8140440132145702e+01 1.0000000000000000e+01 9.1664087132747305e+00 
179 180 2 1.4411425104121596e+00 -1.0193790835535374e-04 1.0000000000000000e+00 2.0169703804267524e+01 1.0000000000000000e+01 9.1664105266195346e+00 
180 181 2 1.4411425104121596e+00 -1.0193795993046760e-04 1.0000000000000000e+00 2.2207205291378909e+01 1.0000000000000000e+01 9.1664099244557367e+00 
181 182 2 1.4411425104121596e+00 -1.0193800462551719e-04 1.0000000000000000e+00 2.4426794264661410e+01 1.0000000000000000e+01 9.1664100687241774e+00 
182 183 2 1.4411425104121596e+00 -1.0193805624080787e-04 1.0000000000000000e+00 2.6717732487347089e+01 1.0000000000000000e+01 9.1664100408978904e+00 
183 184 2 1.4411425104121596e+00 -1.0193805665911399e-04 1.0000000000000000e+00 2.8991450734100589e+01 1.0000000000000000e+01 9.1664100437518634e+00 
184 185 2 1.4411425104121596e+00 -1.0193806448883185e-04 1.0000000000000000e+00 3.1328494996711932e+01 1.0000000000000000e+01 9.1664100437260210e+00 
632 633 2 1.4411425104121596e+00 -1.0193679748430384e-04 1.0000000000000000e+00 1.3948056055977223e+00 1.2199999999999999e+01 9.1664012603578193e+00 
633 634 2 1.4411425104121596e+00 -1.0193689177405299e-04 1.0000000000000000e+00 3.5740384115477908e+00 1.2199999999999999e+01 9.1664208702545587e+00 
634 635 2 1.4411425104121596e+00 -1.0193703757462200e-04 1.0000000000000000e+00 5.8267688025077478e+00 1.2199999999999999e+01 9.1664041670340328e+00 
635 636 2 1.4411425104121596e+00 -1.0193716182545836e-04 1.0000000000000000e+00 7.9802498787014322e+00 1.2199999999999999e+01 9.1664101327986831e+00 
636 637 2 1.4411425104121596e+00 -1.0193728286469686e-04 1.0000000000000000e+00 1.0066218354281901e+01 1.2199999999999999e+01 9.1664121350894643e+00 
637 638 2 1.4411425104121596e+00 -1.0193743309559880e-04 1.0000000000000000e+00 1.2109198978182432e+01 1.2199999999999999e+01 9.1664091428997647e+00 
638 639 2 1.4411425104121596e+00 -1.0193758154424915e-04 1.0000000000000000e+00 1.4126782526450933e+01 1.2199999999999999e+01 9.1664087065245337e+00 
639 640 2 1.4411425104121596e+00 -1.0193771262481519e-04 1.0000000000000000e+00 1.6133305215767002e+01 1.2199999999999999e+01 9.1664121148394404e+00 
640 641 2 1.4411425104121596e+00 -1.0193782180887315e-04 1.0000000000000000e+00 1.8140440132145702e+01 1.2199999999999999e+01 9.1664087132747305e+00 
641 642 2 1.4411425104121596e+00 -1.0193790835535374e-04 1.0000000000000000e+00 2.0169703804267524e+01 1.2199999999999999e+01 9.1664105266195346e+00 
642 643 2 1.4411425104121596e+00 -1.0193795993046760e-04 1.0000000000000000e+00 2.2207205291378909e+01 1.2199999999999999e+01 9.1664099244557367e+00 
643 644 2 1.4411425104121596e+00 -1.0193800462551719e-04 1.0000000000000000e+00 2.4426794264661410e+01 1.2199999999999999e+01 9.1664100687241774e+00 
644 645 2 1.4411425104121596e+00 -1.0193805624080787e-04 1.0000000000000000e+00 2.6717732487347089e+01 1.2199999999999999e+01 9.1664100408978904e+00 
645 646 2 1.4411425104121596e+00 -1.0193805665911399e-04 1.0000000000000000e+00 2.8991450734100589e+01 1.2199999999999999e+01 9.1664100437518634e+00 
646 647 2 1.4411425104121596e+00 -1.0193806448883185e-04 1.0000000000000000e+00 3.1328494996711932e+01 1.2199999999999999e+01 9.1664100437260210e+00 
1094 1095 2 1.4411425104121596e+00 -1.0193679748430384e-04 1.0000000000000000e+00 1.3948056055977223e+00 1.4400000000000000e+01 9.1664012603578193e+00 
1095 1096 2 1.4411425104121596e+00 -1.0193689177405299e-04 1.0000000000000000e+00 3.5740384115477908e+00 1.4400000000000000e+01 9.1664208702545587e+00 
1096 1097 2 1.4411425104121596e+00 -1.0193703757462200e-04 1.0000000000000000e+00 5.8267688025077478e+00 1.4400000000000000e+01 9.1664041670340328e+00 
1097 1098 2 1.4411425104121596e+00 -1.0193716182545836e-04 1.0000000000000000e+00 7.9802498787014322e+00 1.4400000000000000e+01 9.1664101327986831e+00 
1098 1099 2 1.4411425104121596e+00 -1.0193728286469686e-04 1.0000000000000000e+00 1.0066218354281901e+01 1.4400000000000000e+01 9.1664121350894643e+00 
1099 1100 2 1.4411425104121596e+00 -1.0193743309559880e-04 1.0000000000000000e+00 1.2109198978182432e+01 1.4400000000000000e+01 9.1664091428997647e+00 
1100 1101 2 1.4411425104121596e+00 -1.0193758154424915e-04 1.0000000000000000e+00 1.4126782526450933e+01 1.4400000000000000e+01 9.1664087065245337e+00 
1101 1102 2 1.4411425104121596e+00 -1.0193771262481519e-04 1.0000000000000000e+00 1.6133305215767002e+01 1.4400000000000000e+01 9.1664121148394404e+00 
1102 1103 2 1.4411425104121596e+00 -1.0193782180887315e-04 1.0000000000000000e+00 1.8140440132145702e+01 1.4400000000000000e+01 9.1664087132747305e+00 
1103 1104 2 1.4411425104121596e+00 -1.0193790835535374e-04 1.0000000000000000e+00 2.0169703804267524e+01 1.4400000000000000e+01 9.1664105266195346e+00 
1104 1105 2 1.4411425104121596e+00 -1.0193795993046760e-04 1.0000000000000000e+00 2.2207205291378909e+01 1.4400000000000000e+01 9.1664099244557367e+00 
1105 1106 2 1.4411425104121596e+00 -1.0193800462551719e-04 1.0000000000000000e+00 2.4426794264661410e+01 1.4400000000000000e+01 9.1664100687241774e+00 
1106 1107 2 1.4411425104121596e+00 -1.0193805624080787e-04 1.0000000000000000e+00 2.6717732487347089e+01 1.4400000000000000e+01 9.1664100408978904e+00 
1107 1108 2 1.4411425104121596e+00 -1.0193805665911399e-04 1.0000000000000000e+00 2.8991450734100589e+01 1.4400000000000000e+01 9.1664100437518634e+00 
1108 1109 2 1.4411425104121596e+00 -1.0193806448883185e-04 1.0000000000000000e+00 3.1328494996711932e+01 1.4400000000000000e+01 9.1664100437260210e+00 
1556 1557 2 1.4411425104121596e+00 -1.0193679748430384e-04 1.0000000000000000e+00 1.3948056055977223e+00 1.6600000000000001e+01 9.1664012603578193e+00 