LAMMPS data file via write_data, version 30 Jul 2016, timestep = 50400000

180 atoms
2 atom types

0.0000000000000000e+00 2.0000000000000000e+01 xlo xhi
0.0000000000000000e+00 2.0000000000000000e+01 ylo yhi
0.0000000000000000e+00 2.0000000000000000e+01 zlo zhi

Masses

1 3.896
2 4.31

Atoms # meso-molecular

162 1 2 1.0280000000873966e+00 -9.7752407981095104e+01 1.0000000000000000e+00 2.4673431202282892e+00 3.7246683412486026e+00 3.9286104535365327e+00 
168 1 2 1.0280000000876515e+00 -9.7770451013736107e+01 1.0000000000000000e+00 2.3633502111011411e+00 3.7114550351018876e+00 3.9580215895428785e+00 
180 1 2 1.0280000000872420e+00 -1.2722861777916256e+02 1.0000000000000000e+00 2.4254039456466212e+00 3.6245323343708438e+00 3.9368577133186573e+00 
7 1 2 1.0279999998139908e+00 -9.8990406550895415e+01 1.0000000000000000e+00 4.8834827051183662e+00 5.4109395817647075e+00 2.9404644639791888e+00 
8 1 2 1.0279999998151108e+00 -9.9278592357351414e+01 1.0000000000000000e+00 4.9021192942302800e+00 5.3583022321917015e+00 3.0339316742806282e+00 
14 1 2 1.0279999998141138e+00 -7.6226060575766553e+01 1.0000000000000000e+00 4.9061955655209974e+00 5.3044637877750667e+00 2.9393857154051446e+00 
2 1 2 1.0279999998488998e+00 -1.1852252765969359e+02 1.0000000000000000e+00 4.6558170311642462e+00 1.7677125250244798e+00 6.5416493631182711e+00 
3 1 2 1.0279999998492115e+00 -1.3206316895306054e+02 1.0000000000000000e+00 4.6475594144756123e+00 1.7331838732082856e+00 6.6445751435852776e+00 
9 1 2 1.0279999998493385e+00 -7.9875077223962506e+01 1.0000000000000000e+00 4.6854769831580763e+00 1.8330521631966554e+00 6.6235343510267910e+00 
15 1 2 6.8774415317587634e-01 -7.7132767829375993e+01 1.0000000000000000e+00 5.0150000000000015e+00 8.9450000000000003e+00 7.5149999999999508e+00 
21 1 2 6.8774415317587634e-01 -7.7132767829375993e+01 1.0000000000000000e+00 5.0149999999999988e+00 8.9450000000000003e+00 7.5149999999999517e+00 
167 1 2 1.0280000001649832e+00 -1.1727828273645076e+02 1.0000000000000000e+00 2.5281975399391143e-01 6.2918778142579415e+00 8.1971806248926296e+00 
173 1 2 1.0280000001662009e+00 -7.6489384239288142e+01 1.0000000000000000e+00 2.9511588224116903e-01 6.3621250134956151e+00 8.1255531175363487e+00 
166 1 2 1.0280000001661331e+00 -1.1801934970535632e+02 1.0000000000000000e+00 2.1702395789443191e-01 6.2929663862465386e+00 8.0943623032344902e+00 
41 1 2 1.0292107439809910e+00 -8.4205659775814496e+01 1.0000000000000000e+00 4.8171979956849338e+00 2.2156530255423630e+00 1.0655924908028551e+01 
5 1 2 1.0292107439809910e+00 -8.5078170278464142e+01 1.0000000000000000e+00 4.8171979956849338e+00 2.2156530255423630e+00 1.0655924908028551e+01 
4 1 2 1.0268052581981675e+00 -5.5410382884228078e+01 1.0000000000000000e+00 4.9336120184874819e+00 2.2563836822156409e+00 1.0679792355933339e+01 
16 1 2 1.0280000322471279e+00 -7.8695532917781492e+01 1.0000000000000000e+00 6.5836136772542018e+00 7.3887398533985023e+00 1.1739228738856788e+01 
52 1 2 1.0280000322573779e+00 -7.7440784534111117e+01 1.0000000000000000e+00 6.5835073853083159e+00 7.3887282104005010e+00 1.1739223990610576e+01 
17 1 2 1.0279999684249650e+00 -6.9657141975230289e+01 1.0000000000000000e+00 6.5089901069493497e+00 7.5869594228427362e+00 1.2925419354015112e+01 
53 1 2 1.0279999684254084e+00 -7.1213207622810728e+01 1.0000000000000000e+00 6.5087889534229166e+00 7.5863425948327805e+00 1.2925509606045644e+01 
18 1 2 1.0279995461160194e+00 -4.7183758871095677e+01 1.0000000000000000e+00 5.1782647571952758e+00 9.3035065780080952e+00 1.7688658146811942e+01 
19 1 2 1.0280007168846186e+00 -1.1964388140271443e+02 1.0000000000000000e+00 6.3041769450274092e+00 9.1572928596903278e+00 1.7285114628360258e+01 
13 1 2 1.0280007168846186e+00 -1.1964388140271443e+02 1.0000000000000000e+00 6.3041769450274092e+00 9.1572928596903278e+00 1.7285114628360258e+01 
24 1 2 1.0279995461160061e+00 -1.5739582893907919e+02 1.0000000000000000e+00 5.1791780937721752e+00 9.3053186370841292e+00 1.7690540369179772e+01 
80 1 2 1.0279999999003995e+00 -1.1050373545935622e+02 1.0000000000000000e+00 3.7497205280923196e+00 3.0181726448697663e+00 1.9059161819327400e+01 
50 1 2 1.0279999999001996e+00 -9.0743954026259473e+01 1.0000000000000000e+00 3.7463440522112825e+00 2.9111790534409843e+00 1.9079039016050487e+01 
86 1 2 1.0279999999004990e+00 -1.2484601305834094e+02 1.0000000000000000e+00 3.7682595758600783e+00 2.9472377208939471e+00 1.8978671618605727e+01 
158 1 2 1.0267226635521118e+00 -7.1597840426991695e+01 1.0000000000000000e+00 4.6491228676328197e-02 8.0137336907573324e+00 1.9645819286963150e+01 
152 1 2 1.0291694466579633e+00 -1.3292936057783385e+02 1.0000000000000000e+00 1.1601445510794001e-01 8.1047972258534653e+00 1.9591722404119256e+01 
153 1 2 1.0291694466579633e+00 -1.3292936057783382e+02 1.0000000000000000e+00 1.1601445510794001e-01 8.1047972258534653e+00 1.9591722404119256e+01 
30 1 2 1.0279999999890075e+00 -9.6602320955657817e+01 1.0000000000000000e+00 3.5815263138058717e+00 1.4410438617633510e+01 2.1983944457201634e+00 
60 1 2 1.0279999999890002e+00 -1.2263967569051826e+02 1.0000000000000000e+00 3.5815345555667704e+00 1.4410441708180171e+01 2.1983874983742124e+00 
25 1 2 1.0280000000082217e+00 -8.0356563973395325e+01 1.0000000000000000e+00 4.3053240899724132e+00 1.4602371030160461e+01 3.1424213421868452e+00 
26 1 2 1.0280000000082217e+00 -8.0356847270054061e+01 1.0000000000000000e+00 4.3053240899724132e+00 1.4602371030160461e+01 3.1424213421868452e+00 
27 1 2 3.4387207658793817e-01 0.0000000000000000e+00 1.0000000000000000e+00 5.0199999999999996e+00 1.3380000000000001e+01 7.4900000000000002e+00 
33 1 2 1.0280000003352923e+00 -1.2258759426205178e+02 1.0000000000000000e+00 5.0874850169817307e+00 1.5937976201034488e+01 9.6715033881614243e+00 
34 1 2 1.0280000003361471e+00 -1.2374993104303350e+02 1.0000000000000000e+00 5.0598797953978041e+00 1.5986305392237577e+01 9.7650788749501096e+00 
28 1 2 1.0280000003338430e+00 -7.5997838875413834e+01 1.0000000000000000e+00 5.0454804725195821e+00 1.6038419657446550e+01 9.6705754698226762e+00 
22 1 2 6.8774415317587634e-01 -8.9779149955536013e+01 1.0000000000000000e+00 5.0499999999999927e+00 1.0565000000000003e+01 1.1895000000000000e+01 
23 1 2 6.8774415317587634e-01 -8.9779149955536013e+01 1.0000000000000000e+00 5.0500000000000069e+00 1.0564999999999998e+01 1.1895000000000000e+01 
157 1 2 1.0280000000528522e+00 -1.5646641055909114e+02 1.0000000000000000e+00 4.8509021237817196e+00 1.8151012794545853e+01 1.2967793689258718e+01 
163 1 2 1.0280000000528522e+00 -1.5646641055909114e+02 1.0000000000000000e+00 4.8509021237817196e+00 1.8151012794545853e+01 1.2967793689258718e+01 
35 1 2 1.0279999999487606e+00 -5.3438325873275502e+01 1.0000000000000000e+00 5.2775670084938868e+00 1.8523554312373861e+01 1.4031315173020541e+01 
29 1 2 1.0279999999516216e+00 -7.3161060479265231e+01 1.0000000000000000e+00 5.2775906231054783e+00 1.8523556869750589e+01 1.4031304803132862e+01 
36 1 2 6.8774415317587634e-01 -8.9141659457888082e+01 1.0000000000000000e+00 4.6307761022081682e+00 1.6674391901835328e+01 1.8983582557777741e+01 
31 1 2 6.8774415317587634e-01 -8.9144081272407945e+01 1.0000000000000000e+00 4.6307761022081673e+00 1.6674391901832493e+01 1.8983582557777741e+01 
119 1 2 1.0279919093378518e+00 -7.2387799021491048e+01 1.0000000000000000e+00 9.5706603016583252e+00 4.6523388914720132e-02 7.5712777240443019e-01 
73 1 2 1.0264398169496465e+00 -1.0321952753415344e+02 1.0000000000000000e+00 1.0060676681459979e+01 4.0836600875475687e-01 1.8002804856828691e+00 
43 1 2 1.0264398169496465e+00 -1.0367147006997628e+02 1.0000000000000000e+00 1.0060676681459979e+01 4.0836600875475687e-01 1.8002804856828691e+00 
85 1 2 1.0267927040336784e+00 -6.8266479972961960e+01 1.0000000000000000e+00 1.0719017565802263e+01 6.1486630380753864e+00 9.4542469212533453e-01 
79 1 2 1.0292044668987463e+00 -7.1917951679407523e+01 1.0000000000000000e+00 1.0824151755389661e+01 6.1145810712197228e+00 1.0054861300167155e+00 
115 1 2 1.0292044668987463e+00 -7.2368738257475712e+01 1.0000000000000000e+00 1.0824151755389661e+01 6.1145810712197228e+00 1.0054861300167155e+00 
49 1 2 3.4387207658793817e-01 0.0000000000000000e+00 1.0000000000000000e+00 8.1999999999999993e+00 8.0800000000000001e+00 1.5600000000000001e+00 
38 1 2 3.4387207658793817e-01 0.0000000000000000e+00 1.0000000000000000e+00 7.7599999999999998e+00 3.4999999999999998e-01 4.1900000000000004e+00 
74 1 2 1.0280000000353711e+00 -8.1827083276625899e+01 1.0000000000000000e+00 9.7402221051788764e+00 2.9332305776004635e+00 5.4368030380967687e+00 
44 1 2 1.0280000000353733e+00 -9.9245178490405294e+01 1.0000000000000000e+00 9.6678147647066268e+00 3.0057184222521793e+00 5.3999679851605249e+00 
45 1 2 1.0280000000353331e+00 -8.4552123216491040e+01 1.0000000000000000e+00 9.6840333086231496e+00 2.9945673017520198e+00 5.5070508644942464e+00 
69 1 2 1.0280000000688687e+00 -8.3729787630446424e+01 1.0000000000000000e+00 7.9159944159623112e+00 2.0728602493342123e+00 8.3980585115109534e+00 
39 1 2 1.0280000000688181e+00 -1.3151354212593594e+02 1.0000000000000000e+00 7.9614758253759872e+00 2.1639760507268266e+00 8.3595424924290906e+00 
106 1 2 1.0280000000688634e+00 -8.1609605023159659e+01 1.0000000000000000e+00 8.0238369395344584e+00 2.0865961037132270e+00 8.4040123342627293e+00 
46 1 2 1.0274774130946627e+00 -9.1304244195618594e+01 1.0000000000000000e+00 8.4772940884962296e+00 3.4563311619502226e+00 1.1883083866333598e+01 
47 1 2 1.0274774130946627e+00 -9.1406200017588688e+01 1.0000000000000000e+00 8.4772940884962296e+00 3.4563311619502226e+00 1.1883083866333598e+01 
81 1 2 1.0285371725356718e+00 -1.2394705790318220e+02 1.0000000000000000e+00 9.3091040785608854e+00 2.0682094129695550e+00 1.1677145352355733e+01 
82 1 2 1.0285371717695577e+00 -1.1418347993825589e+02 1.0000000000000000e+00 9.3091062560269329e+00 2.0682104941290564e+00 1.1677143389799431e+01 
57 1 2 1.0280000004441643e+00 -9.3749814706387895e+01 1.0000000000000000e+00 1.1972893335635085e+01 9.6381206591045192e+00 1.0796170743226915e+01 
51 1 2 1.0280000004444119e+00 -1.0841324937168427e+02 1.0000000000000000e+00 1.2018046144018022e+01 9.6560155525442717e+00 1.0698727800736954e+01 
93 1 2 1.0280000004439360e+00 -1.1518232939746490e+02 1.0000000000000000e+00 1.2062464412748948e+01 9.6994911946484201e+00 1.0788120285349851e+01 
77 1 2 6.8774415317587634e-01 -7.9903055825418932e+01 1.0000000000000000e+00 1.3029999999999999e+01 7.7500000000002667e-01 1.3635000000000000e+01 
113 1 2 6.8774415317587634e-01 -7.9903055825418932e+01 1.0000000000000000e+00 1.3029999999999999e+01 7.7500000000002667e-01 1.3635000000000000e+01 
118 1 2 1.0279927546297269e+00 -1.1288373919399244e+02 1.0000000000000000e+00 9.6013124229905795e+00 3.1263456074412068e+00 1.2157807193248210e+01 
58 1 2 1.0280000000000000e+00 -8.3949508305561906e+01 1.0000000000000000e+00 9.0104996472704908e+00 9.8947403582110383e+00 1.2035106104809888e+01 
94 1 2 1.0280000000000000e+00 -8.3697506831617574e+01 1.0000000000000000e+00 9.0104996472704908e+00 9.8947403582110383e+00 1.2035106104809888e+01 
11 1 2 1.0313489002931069e+00 -1.1258090168015991e+02 1.0000000000000000e+00 7.8936546566824051e+00 3.7296101274816431e+00 1.5439281327402400e+01 
12 1 2 1.0313489002931127e+00 -1.3616038529700040e+02 1.0000000000000000e+00 7.8936546566828030e+00 3.7296101274817897e+00 1.5439281327402922e+01 
10 1 2 1.0278409101855899e+00 -5.4026489858504704e+01 1.0000000000000000e+00 7.1743786216089438e+00 4.9565659578771228e+00 1.4661729167340793e+01 
6 1 2 1.0278407995910961e+00 -1.3815392133256501e+02 1.0000000000000000e+00 7.1743794245201764e+00 4.9565577055456886e+00 1.4661724767013141e+01 
89 1 2 1.0279999155278550e+00 -1.2906218952618656e+02 1.0000000000000000e+00 1.1099960374511255e+01 7.8605498343285589e+00 1.4775495111616086e+01 
88 1 2 1.0279999155279205e+00 -1.1635012303759584e+02 1.0000000000000000e+00 1.1100947737001166e+01 7.8597280101157807e+00 1.4775835267571109e+01 
90 1 2 1.0280001854270031e+00 -9.7368183837792046e+01 1.0000000000000000e+00 1.1256615305578430e+01 8.4724132504382528e+00 1.5801647837747831e+01 
96 1 2 1.0280001854270031e+00 -9.7367936897243581e+01 1.0000000000000000e+00 1.1256615305578430e+01 8.4724132504382528e+00 1.5801647837747831e+01 
42 1 2 6.8774415317587634e-01 -8.9865897119838166e+01 1.0000000000000000e+00 9.4004080501818557e+00 8.8999605846971197e-01 1.6587373357221452e+01 
78 1 2 6.8774415317587634e-01 -9.0758775490331701e+01 1.0000000000000000e+00 9.4004080501818503e+00 8.8999605846971197e-01 1.6587373357221463e+01 
48 1 2 1.0256901297314038e+00 -9.7063704080009927e+01 1.0000000000000000e+00 7.7658397853131040e+00 5.1765229658113547e+00 1.6172330936252070e+01 
54 1 2 1.0256901297314038e+00 -9.7814388894253952e+01 1.0000000000000000e+00 7.7658397853131040e+00 5.1765229658113547e+00 1.6172330936252070e+01 
55 1 2 6.8774415317587634e-01 -8.3854481466268226e+01 1.0000000000000000e+00 1.0266892786999849e+01 1.1180229048643710e+01 4.9927628150921671e-01 
91 1 2 6.8774415317587634e-01 -8.1045990870519461e+01 1.0000000000000000e+00 1.0266892786999854e+01 1.1180229048643447e+01 4.9927628150921666e-01 
61 1 2 1.0279999998465459e+00 -1.1959852132986910e+02 1.0000000000000000e+00 8.5810600337893845e+00 1.5162843858984546e+01 7.2851159439199098e-01 
67 1 2 1.0279999998462264e+00 -1.1188492641816454e+02 1.0000000000000000e+00 8.5920781369552870e+00 1.5263759911420825e+01 6.8915827068135893e-01 
97 1 2 1.0279999998468641e+00 -7.6992668221374117e+01 1.0000000000000000e+00 8.6799619728018662e+00 1.5201239958132192e+01 7.0405186525619079e-01 
37 1 2 1.0295593764095385e+00 -6.9950903947752408e+01 1.0000000000000000e+00 8.7569423432360622e+00 1.9497773550013125e+01 1.4364555629302662e+00 
1 1 2 1.0295593764095385e+00 -6.9950903947752423e+01 1.0000000000000000e+00 8.7569423432360622e+00 1.9497773550013125e+01 1.4364555629302662e+00 
62 1 2 1.0279999999756728e+00 -1.1704295885325536e+02 1.0000000000000000e+00 7.3018074020852488e+00 1.1685056007536771e+01 3.9957143178285226e+00 
92 1 2 1.0279999270539388e+00 -5.5680536017921497e+01 1.0000000000000000e+00 1.3049848745340377e+01 1.2990077206220924e+01 3.8760692064585895e+00 
130 1 2 1.0279999270541684e+00 -1.5980134915424520e+02 1.0000000000000000e+00 1.3049757226348007e+01 1.2990074633477501e+01 3.8748158948790890e+00 
98 1 2 1.0267927038711846e+00 -6.4338265869602921e+01 1.0000000000000000e+00 1.2358204092875916e+01 1.7931157944502360e+01 2.9955070950980160e+00 
104 1 2 1.0292044668174993e+00 -9.4498249197886338e+01 1.0000000000000000e+00 1.2339168771554011e+01 1.7930990374479997e+01 3.1198444732406334e+00 
105 1 2 1.0292044668174993e+00 -9.5194234745011968e+01 1.0000000000000000e+00 1.2339168771554011e+01 1.7930990374479997e+01 3.1198444732406334e+00 
56 1 2 1.0279999999757066e+00 -8.6266644040594485e+01 1.0000000000000000e+00 7.3553416635443813e+00 1.1592928840881807e+01 4.0180928770312558e+00 
20 1 2 1.0279999999757947e+00 -1.0809148609358056e+02 1.0000000000000000e+00 7.2464760770950329e+00 1.1594215551262266e+01 4.0189648635409618e+00 
68 1 2 6.8774415317587634e-01 -7.8115748013912821e+01 1.0000000000000000e+00 6.7450000000000001e+00 1.6780000000000001e+01 4.3200000000000003e+00 
32 1 2 6.8774415317587634e-01 -7.8115748013912821e+01 1.0000000000000000e+00 6.7450000000000001e+00 1.6780000000000001e+01 4.3200000000000003e+00 
142 1 2 1.0292044649808370e+00 -1.0147216574599487e+02 1.0000000000000000e+00 1.2217833104710657e+01 1.3586600697865700e+01 6.7297405648756534e+00 
143 1 2 1.0292044649808370e+00 -1.0036143763904350e+02 1.0000000000000000e+00 1.2217833104710657e+01 1.3586600697865700e+01 6.7297405648756534e+00 
76 1 2 1.0267927001978594e+00 -1.2569824326449552e+02 1.0000000000000000e+00 1.2097436934350634e+01 1.3577163721611290e+01 6.7649239823212977e+00 
99 1 2 1.0279999999976512e+00 -1.6684321436764452e+02 1.0000000000000000e+00 9.4841945388699926e+00 1.4292221394197153e+01 8.1886758485821218e+00 
100 1 2 1.0279999999976803e+00 -1.5369473258921795e+02 1.0000000000000000e+00 9.7785235547794720e+00 1.4481058295210149e+01 9.3416964534714122e+00 
63 1 2 1.0279999999978753e+00 -4.8064018453799953e+01 1.0000000000000000e+00 9.4930245972445384e+00 1.4304921064131795e+01 8.1845008850289709e+00 
64 1 2 1.0279999999978737e+00 -1.0766559233397575e+02 1.0000000000000000e+00 9.7862966261665552e+00 1.4467049783327681e+01 9.3418475295358121e+00 
122 1 2 1.0280000007467451e+00 -6.0131552411867652e+01 1.0000000000000000e+00 8.7966629838216885e+00 1.8618660017703757e+01 1.1174322065085324e+01 
129 1 2 1.0280000007450274e+00 -1.5613774646877349e+02 1.0000000000000000e+00 8.7966629591049621e+00 1.8618660018922345e+01 1.1174322073759141e+01 
59 1 2 1.0280000000000000e+00 -9.4541895691261573e+01 1.0000000000000000e+00 8.6516624480768805e+00 1.0375355033755250e+01 1.3080167562900558e+01 
95 1 2 1.0280000000000000e+00 -9.5644912136078858e+01 1.0000000000000000e+00 8.6516624480768805e+00 1.0375355033755250e+01 1.3080167562900558e+01 
65 1 2 1.0279642930594803e+00 -8.5835037234870754e+01 1.0000000000000000e+00 8.3275776439816287e+00 1.5297656219124422e+01 1.2796449876415258e+01 
70 1 2 1.0279642860884584e+00 -8.9429823149715773e+01 1.0000000000000000e+00 8.3275455111377923e+00 1.5407069108298369e+01 1.2795961051830631e+01 
71 1 2 1.0279642866975132e+00 -1.0330585716148926e+02 1.0000000000000000e+00 8.3093818626862053e+00 1.5351941645019940e+01 1.2703211352313339e+01 
123 1 2 1.0279999992500870e+00 -1.6419158629086328e+02 1.0000000000000000e+00 9.1694834912264138e+00 1.8314403488445123e+01 1.2279012466324414e+01 
110 1 2 1.0279999992529811e+00 -5.2415879928857123e+01 1.0000000000000000e+00 9.1695453960301041e+00 1.8314337081048919e+01 1.2278973279632803e+01 
87 1 2 1.0267927040556730e+00 -9.8401925800039749e+01 1.0000000000000000e+00 1.1289984925222956e+01 1.8162013026157357e+01 1.5665506759728393e+01 
101 1 2 1.0292044669097438e+00 -8.3658805654798584e+01 1.0000000000000000e+00 1.1378861260630973e+01 1.8250053025427576e+01 1.5652387687080594e+01 
107 1 2 1.0292044669097438e+00 -8.3857584437505793e+01 1.0000000000000000e+00 1.1378861260630973e+01 1.8250053025427576e+01 1.5652387687080594e+01 
66 1 2 6.8774415317587634e-01 -7.8339058836710791e+01 1.0000000000000000e+00 9.8599999999999621e+00 1.3070000000000002e+01 1.7504999999999924e+01 
102 1 2 6.8774415317587634e-01 -7.8339058836710791e+01 1.0000000000000000e+00 9.8600000000000385e+00 1.3069999999999997e+01 1.7505000000000077e+01 
72 1 2 3.4387207658793817e-01 2.4218145201011084e-03 1.0000000000000000e+00 7.2984477955841802e+00 1.7891216196332856e+01 1.7172834884446395e+01 
108 1 2 1.0279999998044320e+00 -1.3181401110787235e+02 1.0000000000000000e+00 1.2629904578020565e+01 1.7577319241139108e+01 1.8510077273646694e+01 
144 1 2 1.0279999998053158e+00 -7.8750063199744801e+01 1.0000000000000000e+00 1.2676856853463423e+01 1.7575624482448397e+01 1.8608295113581995e+01 
103 1 2 1.0279999998046567e+00 -1.2086350329729773e+02 1.0000000000000000e+00 1.2738451653319489e+01 1.7576747333817124e+01 1.8518523446047876e+01 
109 1 2 1.0279745085360825e+00 -5.5334698715348082e+01 1.0000000000000000e+00 1.5314086164439891e+01 1.9246607087801839e+00 1.0673642778706112e+00 
145 1 2 3.4387207658793817e-01 0.0000000000000000e+00 1.0000000000000000e+00 1.7899999999999999e+01 1.4000000000000001e-01 1.9700000000000000e+00 
116 1 2 1.0251038233836054e+00 -1.0062217981182083e+02 1.0000000000000000e+00 1.5823981486099521e+01 3.0265413320653427e+00 1.0706888302728770e+00 
151 1 2 1.0251038233836054e+00 -1.0062333576957870e+02 1.0000000000000000e+00 1.5823981486099521e+01 3.0265413320653427e+00 1.0706888302728770e+00 
126 1 2 1.0308913495649170e+00 -1.5801560430526587e+02 1.0000000000000000e+00 1.4880382015152575e+01 2.2233813749715825e+00 2.1317273191739745e+00 
121 1 2 1.0308913495649170e+00 -1.5873638184060835e+02 1.0000000000000000e+00 1.4880382015152575e+01 2.2233813749715825e+00 2.1317273191739745e+00 
146 1 2 6.8774415317587634e-01 -6.6135038132689644e+01 1.0000000000000000e+00 1.8298041682462379e+01 4.8811907676620120e-01 6.0129670536599802e+00 
147 1 2 6.8774415317587634e-01 -6.8081889185465556e+01 1.0000000000000000e+00 1.8298041682462436e+01 4.8811907676620125e-01 6.0129670536599802e+00 
164 1 2 1.0279999998617626e+00 -7.6302038651434430e+01 1.0000000000000000e+00 1.8104126559163923e+01 9.3999377653984482e+00 6.4400612459057855e+00 
165 1 2 1.0279999998610827e+00 -9.9712053253365937e+01 1.0000000000000000e+00 1.8127584527482259e+01 9.4185113621987817e+00 6.5447459032914930e+00 
159 1 2 1.0279999998598628e+00 -9.5444418631884020e+01 1.0000000000000000e+00 1.8098127807642197e+01 9.3188048663262464e+00 6.5124186915767250e+00 
148 1 2 1.0248898259022374e+00 -5.7940778256615395e+01 1.0000000000000000e+00 1.7616280606297281e+01 4.5024874628535039e-01 1.0491359308787302e+01 
112 1 2 1.0248898259857719e+00 -8.4487896602261742e+01 1.0000000000000000e+00 1.7616280655915517e+01 4.5024871618378526e-01 1.0491359322125048e+01 
125 1 2 1.0279833489894747e+00 -1.4038087318728239e+02 1.0000000000000000e+00 1.5387077160080253e+01 5.8919634790299220e+00 1.0642476739830947e+01 
131 1 2 1.0312993180428025e+00 -8.3552278927646483e+01 1.0000000000000000e+00 1.4622602484133816e+01 6.7813989243873758e+00 1.0816055911645920e+01 
124 1 2 1.0312993180440049e+00 -1.3678246831822526e+02 1.0000000000000000e+00 1.4622602483954417e+01 6.7813989238921364e+00 1.0816055911601673e+01 
154 1 2 1.0246803477069761e+00 -8.1281927160014760e+01 1.0000000000000000e+00 1.6215900459195357e+01 6.7641625335552469e+00 1.0466132454343773e+01 
160 1 2 1.0246803477069761e+00 -8.1281927160014732e+01 1.0000000000000000e+00 1.6215900459195357e+01 6.7641625335552469e+00 1.0466132454343773e+01 
149 1 2 3.4387207658793817e-01 7.7903065737986131e-03 1.0000000000000000e+00 1.8051228293295125e+01 1.2551326669013261e+00 1.3989010205041003e+01 
155 1 2 6.8774415317587634e-01 -8.9265535333494967e+01 1.0000000000000000e+00 1.8349068543894617e+01 4.1785788916126503e+00 1.5760861880426347e+01 
156 1 2 6.8774415317587634e-01 -8.9255282857566101e+01 1.0000000000000000e+00 1.8349068543897452e+01 4.1785788916126512e+00 1.5760861880426347e+01 
150 1 2 6.8774415317587634e-01 -8.8511907522309230e+01 1.0000000000000000e+00 1.6104999999997403e+01 1.2300000000000000e+00 1.7440000000000005e+01 
114 1 2 6.8774415317587634e-01 -8.8511907522309230e+01 1.0000000000000000e+00 1.6104999999997393e+01 1.2300000000000000e+00 1.7439999999999994e+01 
120 1 2 1.0279999997768909e+00 -1.1332984700297082e+02 1.0000000000000000e+00 1.3441465839390942e+01 5.7324378972633205e+00 1.8592879790022803e+01 
83 1 2 1.0279999997768066e+00 -1.7161191089241984e+02 1.0000000000000000e+00 1.3540272060688032e+01 5.7196089178552887e+00 1.8548983543371889e+01 
84 1 2 1.0279999997765741e+00 -1.1406170727346976e+02 1.0000000000000000e+00 1.3519350186916791e+01 5.6803954769423148e+00 1.8648375262350111e+01 
127 1 2 3.4387207658793817e-01 2.8082436552094938e+00 1.0000000000000000e+00 1.3396220465886241e+01 1.1149535858567004e+01 8.3142918870616145e-01 
133 1 2 1.0279999999984071e+00 -1.1608247781486237e+02 1.0000000000000000e+00 1.5939771221928304e+01 1.5876496339707913e+01 1.9463066592835780e+00 
175 1 2 1.0279999999975022e+00 -6.3998569860550248e+01 1.0000000000000000e+00 1.5939928676847581e+01 1.5873079039578677e+01 1.9525776586969197e+00 
169 1 2 3.4387207658793817e-01 5.0062126676184093e-02 1.0000000000000000e+00 1.8753025098600428e+01 1.4461603328187472e+01 1.5805734559161873e+00 
128 1 2 1.0280001684020934e+00 -1.0075988468036215e+02 1.0000000000000000e+00 1.3781039355752943e+01 1.3946180254500302e+01 3.8200837487011121e+00 
134 1 2 1.0280001684020934e+00 -1.0079454252786641e+02 1.0000000000000000e+00 1.3781039355752943e+01 1.3946180254500302e+01 3.8200837487011121e+00 
139 1 2 1.0279999999981362e+00 -1.2955775054022283e+02 1.0000000000000000e+00 1.4964709582437933e+01 1.6487197890357137e+01 2.3042760027603109e+00 
140 1 2 1.0279999999977951e+00 -1.0279112976508044e+02 1.0000000000000000e+00 1.4967186899021531e+01 1.6487218814029664e+01 2.3109760498152241e+00 
176 1 2 3.4387207658793817e-01 1.9468510644272021e+00 1.0000000000000000e+00 1.8003916634733493e+01 1.7923761846068011e+01 4.3140658916869752e+00 
170 1 2 1.0308731953718366e+00 -6.8336222236836164e+01 1.0000000000000000e+00 1.6749872450663574e+01 1.3264569625387827e+01 6.9224354364637106e+00 
171 1 2 1.0308731953718366e+00 -6.8336222236836051e+01 1.0000000000000000e+00 1.6749872450663574e+01 1.3264569625387827e+01 6.9224354364637106e+00 
135 1 2 1.0280132214241007e+00 -1.2461888203629626e+02 1.0000000000000000e+00 1.7869499767421562e+01 1.3646348635043715e+01 6.8185261353537312e+00 
172 1 2 1.0250895674360212e+00 -8.3786178946635388e+01 1.0000000000000000e+00 1.7675810792221430e+01 1.4210587079041458e+01 7.8759449051916359e+00 
136 1 2 1.0250895674249660e+00 -1.2036166882957895e+02 1.0000000000000000e+00 1.7675810792228091e+01 1.4210587079053735e+01 7.8759449052075485e+00 
141 1 2 6.8774415317587634e-01 -8.9931338547414313e+01 1.0000000000000000e+00 1.6529999999998903e+01 1.7304999999998582e+01 7.1499999999999995e+00 
177 1 2 6.8774415317587634e-01 -8.9931338547414313e+01 1.0000000000000000e+00 1.6530000000001738e+01 1.7305000000001417e+01 7.1500000000000004e+00 
111 1 2 1.0310788889100593e+00 -1.7574975611847950e+02 1.0000000000000000e+00 1.6382272943596991e+01 1.9384466304876025e+01 1.0543979286135217e+01 
117 1 2 1.0310788889100593e+00 -1.7536107211327209e+02 1.0000000000000000e+00 1.6382272943596991e+01 1.9384466304876025e+01 1.0543979286135217e+01 
178 1 2 1.0280015970789140e+00 -5.2314968299475083e+01 1.0000000000000000e+00 1.7559742758978505e+01 1.9238019758616637e+01 1.0551535522340224e+01 
179 1 2 1.0279999978672076e+00 -7.6764517201019672e+01 1.0000000000000000e+00 1.5317309197375209e+01 1.3282365572938328e+01 1.2857857734098895e+01 
161 1 2 1.0279999978675152e+00 -5.4933299174772500e+01 1.0000000000000000e+00 1.5317451592473184e+01 1.3282446641360574e+01 1.2857829094117937e+01 
137 1 2 1.0280000020960254e+00 -1.3141816196050638e+02 1.0000000000000000e+00 1.4696326044910718e+01 1.4282478169540660e+01 1.2600830965241489e+01 
138 1 2 1.0280000020960254e+00 -1.3252888929540129e+02 1.0000000000000000e+00 1.4696326044910718e+01 1.4282478169540660e+01 1.2600830965241489e+01 
132 1 2 3.4387207658793817e-01 0.0000000000000000e+00 1.0000000000000000e+00 1.4869999999999999e+01 1.1000000000000000e+01 1.6980000000000000e+01 
40 1 2 1.0280000008789332e+00 -1.5707447875404651e+02 1.0000000000000000e+00 1.6065064311263587e+01 1.3602840296796268e+01 1.7979147525577012e+01 
75 1 2 1.0280000008796921e+00 -1.8313236510844908e+02 1.0000000000000000e+00 1.6058165568760476e+01 1.3611964900012779e+01 1.8087421612523652e+01 
174 1 2 1.0280000008813341e+00 -5.0266606072742256e+01 1.0000000000000000e+00 1.6142999257795914e+01 1.3655003136628308e+01 1.8034458565840104e+01 

Velocities

162 1.3673875880146587e-10 1.0808050171506715e-10 -3.5214123151805332e-11
168 -1.5493210976665929e-10 6.9420620339967432e-11 4.7214843080289894e-11
180 1.8198748976606415e-11 -1.7749798769767540e-10 -1.2000526659779597e-11
7 8.1997881280869965e-11 -3.1430810808323597e-10 1.8653799723189591e-10
8 -2.9351413448091417e-11 -2.8974150826143890e-12 -3.8028890327346925e-10
14 -5.2646663089026502e-11 3.1719641612506366e-10 1.9375701423128529e-10
2 3.4808534060803405e-11 5.0328106636784219e-11 2.9888718356972124e-10
3 7.5565103806684409e-11 2.1963649154856514e-10 -2.0055648891413275e-10
9 -1.1036921376242197e-10 -2.6995927577353820e-10 -9.8325896451389521e-11
15 -2.2131769124004884e-13 1.6304166312761136e-322 6.2217489384993773e-14
21 2.2131769124004884e-13 -1.6304166312761136e-322 -6.2217489384993773e-14
167 -1.1642236047733552e-11 -1.2914183226329738e-10 3.1615898211247140e-10
173 2.1195766476378966e-10 2.4707101453320469e-10 -7.5592078349339367e-11
166 -2.0031385148076728e-10 -1.1792450595483565e-10 -2.4056677049966410e-10
41 7.7967937288688480e-06 2.7279233281192039e-06 1.5985150557342923e-06
5 7.7967937288688480e-06 2.7279233281192039e-06 1.5985150557342923e-06
4 -1.5593587457737696e-05 -5.4558466562384078e-06 -3.1970301114685847e-06
16 2.0660252048923865e-09 4.4582499632758015e-10 1.3587507068647232e-09
52 -2.2494609257620262e-09 3.8258181106631435e-11 1.5419681928093618e-09
17 -3.9756716891687828e-09 -1.2712049226127068e-08 3.8119995391298980e-10
53 4.1591073630773629e-09 1.2227964637455452e-08 -3.2819115435496832e-09
18 8.7889973106460007e-07 6.2407819116207156e-07 5.2984772132252165e-07
19 -5.2945900433729171e-07 6.9211019512133709e-08 1.9028569984927849e-07
13 -5.2945900433729171e-07 6.9211019512133709e-08 1.9028569984927849e-07
24 1.8001826413418293e-07 -7.6250020178943364e-07 -9.1041906377181008e-07
80 1.6434605442598239e-11 -1.9101768747821309e-10 -6.5779586013913124e-11
50 2.7165497912406359e-11 1.5309114517592572e-10 -1.2912902520317455e-10
86 -4.3600504508134792e-11 3.7928550161042574e-11 1.9490550461185683e-10
158 1.9752473652985811e-05 2.5872361943845676e-05 -1.5369644187571309e-05
152 -9.8762368264929054e-06 -1.2936180971922838e-05 7.6848220937856545e-06
153 -9.8762368264929054e-06 -1.2936180971922838e-05 7.6848220937856545e-06
30 -2.7783967706199107e-12 -7.3132808266182674e-13 -3.7299739983130362e-12
60 6.5807163709599404e-13 1.6893859025943320e-13 9.6710927303007027e-13
25 1.0601666845374914e-12 2.8119685324217808e-13 1.3814026969942224e-12
26 1.0601666845374914e-12 2.8119685324217808e-13 1.3814026969942224e-12
27 0.0000000000000000e+00 0.0000000000000000e+00 0.0000000000000000e+00
33 2.5187461017650172e-10 -5.3988863087610367e-10 -3.2687864353070040e-10
34 -4.5244368849624748e-11 -1.8315865129201688e-11 6.7283732551589518e-10
28 -2.0662458852243990e-10 5.5817683177929980e-10 -3.4594692502562030e-10
22 1.1803610216737874e-12 -4.4263538248009853e-13 -1.6304166312761136e-322
23 -1.1803610216737874e-12 4.4263538248009853e-13 1.6304166312761136e-322
157 -5.0634342819198004e-12 -4.4206472514137904e-12 -1.2619461529670358e-11