LAMMPS data file via write_data, version 30 Jul 2016, timestep = 50400000

180 atoms
2 atom types

0.0000000000000000e+00 2.0000000000000000e+01 xlo xhi
0.0000000000000000e+00 2.0000000000000000e+01 ylo yhi
0.0000000000000000e+00 2.0000000000000000e+01 zlo zhi

Masses

1 3.896
2 4.31

Atoms # meso-molecular

2 1 2 8.7042619386321851e-01 -3.3010134595479963e+02 1.0000000000000000e+00 6.3309785315945808e+00 1.8422611822553070e+00 5.6230808455692554e+00 
8 1 2 8.7042619386321851e-01 -2.7662896733712876e+02 1.0000000000000000e+00 6.3309785315929537e+00 1.8422611822555222e+00 5.6230808455692554e+00 
3 1 2 8.7042619386321851e-01 -3.2128805033992944e+02 1.0000000000000000e+00 6.3309785315941616e+00 1.8422611822556363e+00 5.6230808455727948e+00 
39 1 2 8.7042619386321851e-01 -3.0496999458916594e+02 1.0000000000000000e+00 6.3309785315951110e+00 1.8422611822555763e+00 5.6230808455692554e+00 
38 1 2 8.7042619386321851e-01 -3.0351236867681843e+02 1.0000000000000000e+00 6.3309785315926206e+00 1.8422611822557287e+00 5.6230808455692554e+00 
44 1 2 8.7042619386321851e-01 -3.1274751408193544e+02 1.0000000000000000e+00 6.3309785315941616e+00 1.8422611822554413e+00 5.6230808455664381e+00 
54 1 2 4.3521309693160926e-01 -2.3547486534513942e+02 1.0000000000000000e+00 5.7319889257994152e+00 6.4506859299007928e+00 1.6970155508743460e+01 
18 1 2 4.3521309693160926e-01 -2.8376221431883340e+02 1.0000000000000000e+00 5.7319889257989987e+00 6.4506859299012831e+00 1.6970155508743467e+01 
12 1 2 4.3521309693160926e-01 -2.5875248405382479e+02 1.0000000000000000e+00 5.7319889257992047e+00 6.4506859299012413e+00 1.6970155508743463e+01 
19 1 2 4.3521309693160926e-01 -3.0343598451049644e+02 1.0000000000000000e+00 4.9197468992939157e+00 1.1766031579031557e+01 1.6140364838257619e+00 
25 1 2 4.3521309693160926e-01 -3.2706829669767961e+02 1.0000000000000000e+00 4.9197468992939353e+00 1.1766031579031322e+01 1.6140364838256653e+00 
20 1 2 4.3521309693160926e-01 -2.5509069244318090e+02 1.0000000000000000e+00 4.9197468992939353e+00 1.1766031579030845e+01 1.6140364838256691e+00 
21 1 2 7.2535516155268209e-01 -3.0927496035832462e+02 1.0000000000000000e+00 5.3631901921531151e+00 1.4424700659987193e+01 5.9941850420243794e+00 
27 1 2 7.2535516155268209e-01 -3.6289069144177290e+02 1.0000000000000000e+00 5.3631901921530813e+00 1.4424700659986264e+01 5.9941850420255953e+00 
26 1 2 7.2535516155268209e-01 -3.3401965307181803e+02 1.0000000000000000e+00 5.3631901921522287e+00 1.4424700659986327e+01 5.9941850420252258e+00 
32 1 2 7.2535516155268209e-01 -3.3504679950807247e+02 1.0000000000000000e+00 5.3631901921534153e+00 1.4424700659986327e+01 5.9941850420244149e+00 
33 1 2 7.2535516155268209e-01 -3.1148666658694992e+02 1.0000000000000000e+00 5.3631901921536951e+00 1.4424700659988407e+01 5.9941850420255758e+00 
34 1 2 1.4507103231053642e-01 1.9198972499779320e+01 1.0000000000000000e+00 5.7346028491431289e+00 1.7573998568246846e+01 1.0084382931108419e+01 
35 1 2 2.9014206462107284e-01 -2.5066942474947570e+02 1.0000000000000000e+00 4.7040562589901338e+00 1.8523936769109611e+01 1.3961464505656785e+01 
5 1 2 2.9014206462107284e-01 -2.5418755141075729e+02 1.0000000000000000e+00 4.7040562589901338e+00 1.8523936769109614e+01 1.3961464505656787e+01 
31 1 2 5.8028412924214567e-01 -3.6582160257318350e+02 1.0000000000000000e+00 4.9012411258756412e+00 1.9146758560691506e+01 1.8727563845415421e+01 
6 1 2 5.8028412924214567e-01 -3.7325532893866102e+02 1.0000000000000000e+00 4.9012411258756412e+00 1.9146758560690586e+01 1.8727563845416661e+01 
36 1 2 5.8028412924214567e-01 -3.8241697585332116e+02 1.0000000000000000e+00 4.9012411258756430e+00 1.9146758560690184e+01 1.8727563845418345e+01 
1 1 2 5.8028412924214567e-01 -3.1171787628691095e+02 1.0000000000000000e+00 4.9012411258756412e+00 1.9146758560689019e+01 1.8727563845415421e+01 
73 1 2 1.0280307661501735e+00 -2.5968402844134664e+02 1.0000000000000000e+00 8.2014968407867670e+00 3.6988112805859292e+00 3.9865398977508093e-01 
79 1 2 1.0280010434108058e+00 -2.4160108297207958e+02 1.0000000000000000e+00 8.2016568334565640e+00 3.6988139337216257e+00 3.9846613251339713e-01 
37 1 2 1.0280205293910778e+00 -3.5852613733892815e+02 1.0000000000000000e+00 8.2027245364441548e+00 3.6981661211388683e+00 4.0468971879208326e-01 
43 1 2 1.0280219013971810e+00 -3.6219702529416946e+02 1.0000000000000000e+00 7.6269446066377338e+00 4.5004243389369964e+00 5.7297443658195168e-01 
49 1 2 1.0280528418838246e+00 -3.6177120449542963e+02 1.0000000000000000e+00 7.6592035012093378e+00 4.5173509122398423e+00 5.9676372728214189e-01 
7 1 2 1.0279250193843017e+00 -4.0379106634792151e+02 1.0000000000000000e+00 7.6271957982685592e+00 4.4998371591162263e+00 5.7950192062307715e-01 
48 1 2 1.0279441605315862e+00 -3.8862849620239029e+02 1.0000000000000000e+00 8.2185371390793680e+00 3.7029380392739850e+00 4.3778697103464775e-01 
13 1 2 1.0279971995245993e+00 -2.7477301722560463e+02 1.0000000000000000e+00 7.6458859265317942e+00 4.5107459056186476e+00 5.8900255657268474e-01 
85 1 2 5.8028412924214567e-01 -1.6593946195424368e+02 1.0000000000000000e+00 1.3246782985010382e+01 7.7245467155841361e+00 2.2823314785481386e+00 
86 1 2 5.8028412924214567e-01 -1.5120973727678273e+02 1.0000000000000000e+00 1.3246782985011464e+01 7.7245467155841663e+00 2.2823314785479516e+00 
122 1 2 5.8028412924214567e-01 -1.6670456544126080e+02 1.0000000000000000e+00 1.3246782985012228e+01 7.7245467155841663e+00 2.2823314785481386e+00 
121 1 2 5.8028412924214567e-01 -2.2490869459689696e+02 1.0000000000000000e+00 1.3246782985012228e+01 7.7245467155846130e+00 2.2823314785481386e+00 
74 1 2 7.2535516155268209e-01 -2.6467642661062553e+02 1.0000000000000000e+00 1.3088253711544658e+01 1.5495021276142293e+00 5.0287580172015627e+00 
75 1 2 7.2535516155268209e-01 -3.5066927798781603e+02 1.0000000000000000e+00 1.3088253711546708e+01 1.5495021276143213e+00 5.0287580172014623e+00 
80 1 2 7.2535516155268209e-01 -2.3392280701845939e+02 1.0000000000000000e+00 1.3088253711545825e+01 1.5495021276142975e+00 5.0287580172022182e+00 
110 1 2 7.2535516155268209e-01 -3.0314133478184971e+02 1.0000000000000000e+00 1.3088253711546351e+01 1.5495021276143321e+00 5.0287580172017918e+00 
111 1 2 7.2535516155268209e-01 -2.9747515107563004e+02 1.0000000000000000e+00 1.3088253711546351e+01 1.5495021276144492e+00 5.0287580172015325e+00 
50 1 2 1.0279632822316109e+00 -3.5501236675385860e+02 1.0000000000000000e+00 7.2360971334943756e+00 7.6637008300632914e+00 6.1250139368018788e+00 
56 1 2 1.0279730690531523e+00 -3.2427637781729715e+02 1.0000000000000000e+00 7.2356851552579569e+00 7.6598438901494772e+00 6.1154628830497968e+00 
57 1 2 1.0279501311782664e+00 -2.7993956267811268e+02 1.0000000000000000e+00 7.2231984297542073e+00 7.6800262907250332e+00 6.1494419873724819e+00 
51 1 2 1.0281092886541938e+00 -3.6148222093711342e+02 1.0000000000000000e+00 7.2434635160312899e+00 7.6797509330314808e+00 6.1933714348081290e+00 
45 1 2 1.0279547683870049e+00 -2.5893716545213152e+02 1.0000000000000000e+00 6.7580489798520729e+00 6.8449169148406401e+00 6.4506343979291385e+00 
9 1 2 1.0279824637608739e+00 -2.5546457161412664e+02 1.0000000000000000e+00 6.7579096357433963e+00 6.8447649741848897e+00 6.4496932816391945e+00 
15 1 2 1.0280286918800263e+00 -3.0455726661109117e+02 1.0000000000000000e+00 6.7816007346161138e+00 6.8184153234143441e+00 6.4060912647936528e+00 
14 1 2 1.0280283736469422e+00 -3.6235324918105334e+02 1.0000000000000000e+00 6.7205763397397682e+00 6.8591242436171891e+00 6.4233190757891414e+00 
87 1 2 1.0154972261737341e+00 -2.5692709466695129e+02 1.0000000000000000e+00 1.2600129428281994e+01 3.8689827373635857e+00 9.4326109747482345e+00 
82 1 2 1.0154972261736839e+00 -3.9548154059835713e+02 1.0000000000000000e+00 1.2600129698333088e+01 3.8689827372465255e+00 9.4326114795662193e+00 
118 1 2 1.0154972261737276e+00 -3.1437676161875919e+02 1.0000000000000000e+00 1.2600129370937436e+01 3.8689829040233330e+00 9.4326109882260010e+00 
76 1 2 1.0154972261736954e+00 -3.5098596429540487e+02 1.0000000000000000e+00 1.2600129004932143e+01 3.8689827376725034e+00 9.4326110921069954e+00 
112 1 2 1.0154972261737352e+00 -3.3777513691031049e+02 1.0000000000000000e+00 1.2600129523217621e+01 3.8689827107222414e+00 9.4326110927422882e+00 
81 1 2 1.0154972261737321e+00 -3.6498694461401635e+02 1.0000000000000000e+00 1.2600129427400663e+01 3.8689825961279927e+00 9.4326110450707024e+00 
117 1 2 1.0154972261737325e+00 -3.8688469810336659e+02 1.0000000000000000e+00 1.2600129512312991e+01 3.8689827372735102e+00 9.4326109814657642e+00 
40 1 2 1.0279790192554406e+00 -3.1168592276773541e+02 1.0000000000000000e+00 7.3046111619186345e+00 2.4232764145808541e+00 1.2048373719449357e+01 
4 1 2 1.0281161416422984e+00 -3.7463101425431506e+02 1.0000000000000000e+00 7.3029234347257352e+00 2.4243248229552838e+00 1.2049030010198406e+01 
46 1 2 1.0279471661446997e+00 -3.6575112369653260e+02 1.0000000000000000e+00 7.2783963441860697e+00 2.4703837456094733e+00 1.2041619548644009e+01 
10 1 2 1.0279462622119371e+00 -3.3592070061276485e+02 1.0000000000000000e+00 7.2826186890910289e+00 2.4608850685950832e+00 1.2042686125149725e+01 
11 1 2 1.0279246876632107e+00 -3.0977277191758498e+02 1.0000000000000000e+00 7.5084380846411163e+00 2.7444875958037551e+00 1.2975667281612228e+01 
47 1 2 1.0279363686406113e+00 -2.9307535315270098e+02 1.0000000000000000e+00 7.5365548047490192e+00 2.7149961543000187e+00 1.2978664019356078e+01 
41 1 2 1.0281238881290606e+00 -2.8465677702636521e+02 1.0000000000000000e+00 7.5401460961169224e+00 2.7094088251002675e+00 1.2978432177816385e+01 
42 1 2 1.0280037461790721e+00 -2.4054081482554352e+02 1.0000000000000000e+00 7.5554993326056641e+00 2.6966359411190552e+00 1.2977825080122985e+01 
52 1 2 1.0265492049358136e+00 -2.8704312192446588e+02 1.0000000000000000e+00 8.0705424913564698e+00 8.5348644289029156e+00 1.2525922904899334e+01 
58 1 2 1.0266214830155720e+00 -2.7566216172343371e+02 1.0000000000000000e+00 8.0703705665628220e+00 8.5348644312738600e+00 1.2525624999250068e+01 
94 1 2 1.0266405865461441e+00 -2.5967574767531511e+02 1.0000000000000000e+00 8.0699306441739918e+00 8.5349256147829600e+00 1.2525366660490880e+01 
88 1 2 1.0266298062269856e+00 -2.5316173878395986e+02 1.0000000000000000e+00 8.0670724273467282e+00 8.5358278624827317e+00 1.2524293608239482e+01 
59 1 2 1.0298463526683905e+00 -3.0245840699422729e+02 1.0000000000000000e+00 9.7329084098350815e+00 9.1491376603867991e+00 1.1359940274602614e+01 
17 1 2 1.0277688423515614e+00 -2.9253961521045034e+02 1.0000000000000000e+00 7.8058558386666226e+00 9.0364434447884801e+00 1.1230030232841129e+01 
22 1 2 1.0277688423515614e+00 -3.7205037117640512e+02 1.0000000000000000e+00 7.8058558386666226e+00 9.0364434447884801e+00 1.1230030232841129e+01 
16 1 2 1.0277688423515614e+00 -2.9094340323985330e+02 1.0000000000000000e+00 7.8058558386666226e+00 9.0364434447884801e+00 1.1230030232841129e+01 
90 1 2 1.0287508851332261e+00 -3.1693452416055050e+02 1.0000000000000000e+00 9.7272262788250288e+00 9.1490423858234742e+00 1.1331281752575823e+01 
95 1 2 1.0287535224853523e+00 -3.1094927240003358e+02 1.0000000000000000e+00 9.7272059580261629e+00 9.1491361467447661e+00 1.1331301734477449e+01 
89 1 2 1.0288209257912218e+00 -2.4322235038344397e+02 1.0000000000000000e+00 9.7269775579116011e+00 9.1491377415040240e+00 1.1331166960620358e+01 
53 1 2 1.0315186403327570e+00 -3.1225351173683015e+02 1.0000000000000000e+00 9.7183342657998715e+00 9.1480433617598909e+00 1.1326712315752818e+01 
77 1 2 5.8028412924214567e-01 -2.2232786805952594e+02 1.0000000000000000e+00 1.1362513205636480e+01 2.6609954184671003e+00 1.5592001099270192e+01 
78 1 2 5.8028412924214567e-01 -2.7489947653941948e+02 1.0000000000000000e+00 1.1362513205637777e+01 2.6609954184671003e+00 1.5592001099268188e+01 
83 1 2 5.8028412924214567e-01 -2.3902317054472047e+02 1.0000000000000000e+00 1.1362513205637129e+01 2.6609954184674041e+00 1.5592001099270192e+01 
84 1 2 5.8028412924214567e-01 -2.4733508450206659e+02 1.0000000000000000e+00 1.1362513205637129e+01 2.6609954184672024e+00 1.5592001099268188e+01 
63 1 2 1.0251686704086485e+00 -3.3365870909181035e+02 1.0000000000000000e+00 9.9827465163218729e+00 1.6112661604594628e+01 6.9192286005230574e+00 
99 1 2 1.0306610735230126e+00 -2.9849230442938006e+02 1.0000000000000000e+00 9.8383735115525077e+00 1.5768177947257657e+01 7.1447871289513412e+00 
93 1 2 1.0306710273903730e+00 -2.3628482533973866e+02 1.0000000000000000e+00 9.8406617355970614e+00 1.5766712448277097e+01 7.1453224846949688e+00 
92 1 2 1.0249818158731212e+00 -3.2248877403100289e+02 1.0000000000000000e+00 1.0055883275218132e+01 1.6183090675171474e+01 6.9253391780340507e+00 
62 1 2 1.0277884563018407e+00 -3.3128370508439184e+02 1.0000000000000000e+00 1.0051054462022737e+01 1.6195358263289815e+01 7.9205612463510136e+00 
105 1 2 1.0278776103671148e+00 -2.5584778705071804e+02 1.0000000000000000e+00 1.0051114170897401e+01 1.6195477589556226e+01 7.9201716096454007e+00 
69 1 2 1.0277360583673809e+00 -2.6285786331214081e+02 1.0000000000000000e+00 1.0051089370912491e+01 1.6195423534381124e+01 7.9207657148661585e+00 
98 1 2 1.0279895084776283e+00 -3.6131843637251922e+02 1.0000000000000000e+00 1.0225656391164357e+01 1.6549962692309119e+01 7.5259158158174158e+00 
64 1 2 8.7042619386321851e-01 -2.8276488971042488e+02 1.0000000000000000e+00 8.8985734124734392e+00 1.5114406100951307e+01 1.1644040160292777e+01 
71 1 2 8.7042619386321851e-01 -3.1143391044862722e+02 1.0000000000000000e+00 8.8985734124734392e+00 1.5114406100950434e+01 1.1644040160293640e+01 
70 1 2 8.7042619386321851e-01 -3.0555506521577672e+02 1.0000000000000000e+00 8.8985734124740219e+00 1.5114406100949591e+01 1.1644040160292018e+01 
100 1 2 8.7042619386321851e-01 -2.6607451758933820e+02 1.0000000000000000e+00 8.8985734124697782e+00 1.5114406100951198e+01 1.1644040160289109e+01 
28 1 2 8.7042619386321851e-01 -2.4301275206301813e+02 1.0000000000000000e+00 8.8985734124713254e+00 1.5114406100952428e+01 1.1644040160288325e+01 
101 1 2 8.7042619386321851e-01 -2.4184164528318018e+02 1.0000000000000000e+00 8.8985734124703377e+00 1.5114406100951246e+01 1.1644040160291343e+01 
106 1 2 4.3521309693160926e-01 -2.7681562322532835e+02 1.0000000000000000e+00 1.3046583079635095e+01 1.7431135940400054e+01 1.2123076806259652e+01 
143 1 2 4.3521309693160926e-01 -2.0708637471928654e+02 1.0000000000000000e+00 1.3046583079635116e+01 1.7431135940398047e+01 1.2123076806260238e+01 
142 1 2 4.3521309693160926e-01 -2.6510330350381264e+02 1.0000000000000000e+00 1.3046583079635264e+01 1.7431135940400058e+01 1.2123076806259315e+01 
139 1 2 1.0281662845173987e+00 -3.2016383907963689e+02 1.0000000000000000e+00 6.7889581929681091e+00 1.0684266036483347e+01 1.5859526376226960e+01 
103 1 2 1.0281662845173987e+00 -3.2434508599132459e+02 1.0000000000000000e+00 6.7889581929681091e+00 1.0684266036483347e+01 1.5859526376226960e+01 
97 1 2 1.0281662845173987e+00 -2.9391203830224123e+02 1.0000000000000000e+00 6.7889581929681091e+00 1.0684266036483347e+01 1.5859526376226960e+01 
61 1 2 1.0281662845173987e+00 -2.9102665343156644e+02 1.0000000000000000e+00 6.7889581929681091e+00 1.0684266036483347e+01 1.5859526376226960e+01 
67 1 2 1.0281662845173987e+00 -2.9515825687689056e+02 1.0000000000000000e+00 6.7889581929681091e+00 1.0684266036483347e+01 1.5859526376226960e+01 
68 1 2 1.0281662845173987e+00 -2.7291940747205661e+02 1.0000000000000000e+00 6.7889581929681091e+00 1.0684266036483347e+01 1.5859526376226960e+01 
108 1 2 5.8028412924214567e-01 -3.2112891508220628e+02 1.0000000000000000e+00 1.2670030350019482e+01 1.5965774513114789e+01 1.5867741351853645e+01 
102 1 2 5.8028412924214567e-01 -3.2797476107757865e+02 1.0000000000000000e+00 1.2670030350020168e+01 1.5965774513114788e+01 1.5867741351853589e+01 
107 1 2 5.8028412924214567e-01 -2.2804356229344936e+02 1.0000000000000000e+00 1.2670030350019482e+01 1.5965774513113997e+01 1.5867741351852604e+01 
144 1 2 5.8028412924214567e-01 -2.6839539317399169e+02 1.0000000000000000e+00 1.2670030350018797e+01 1.5965774513114788e+01 1.5867741351853589e+01 
55 1 2 1.0280151975720087e+00 -3.5615752307139138e+02 1.0000000000000000e+00 7.6483186371233893e+00 1.2257061410811350e+01 1.6999826122733491e+01 
91 1 2 1.0280151975720087e+00 -3.2877332215090809e+02 1.0000000000000000e+00 7.6483186371233893e+00 1.2257061410811350e+01 1.6999826122733491e+01 
96 1 2 1.0280151975720087e+00 -3.3196222467867113e+02 1.0000000000000000e+00 7.6483186371233893e+00 1.2257061410811350e+01 1.6999826122733491e+01 
104 1 2 1.0280151975720087e+00 -3.0700089788411395e+02 1.0000000000000000e+00 7.6483186371233893e+00 1.2257061410811350e+01 1.6999826122733491e+01 
66 1 2 1.0285314499758982e+00 -2.4414976959245894e+02 1.0000000000000000e+00 8.7224737979002747e+00 1.2361586520825851e+01 1.7891329906473459e+01 
72 1 2 1.0285314499758982e+00 -2.6130934966422905e+02 1.0000000000000000e+00 8.7224737979002747e+00 1.2361586520825851e+01 1.7891329906473459e+01 
23 1 2 1.0279008918020693e+00 -2.2537079701112896e+02 1.0000000000000000e+00 9.4334951895528558e+00 1.3612446146699787e+01 1.8836330027556592e+01 
24 1 2 1.0279008918020693e+00 -2.7898345315027564e+02 1.0000000000000000e+00 9.4334951895528558e+00 1.3612446146699787e+01 1.8836330027556592e+01 
30 1 2 1.0279008918020693e+00 -2.1925153232266678e+02 1.0000000000000000e+00 9.4334951895528558e+00 1.3612446146699787e+01 1.8836330027556592e+01 
29 1 2 1.0279008918020693e+00 -2.5823371521522824e+02 1.0000000000000000e+00 9.4334951895528558e+00 1.3612446146699787e+01 1.8836330027556592e+01 
60 1 2 1.0279008918020693e+00 -2.6072512297525856e+02 1.0000000000000000e+00 9.4334951895528558e+00 1.3612446146699787e+01 1.8836330027556592e+01 
65 1 2 1.0279008918020693e+00 -2.3683694457285728e+02 1.0000000000000000e+00 9.4334951895528558e+00 1.3612446146699787e+01 1.8836330027556592e+01 
109 1 2 1.4507103231053642e-01 6.6473943811095326e+00 1.0000000000000000e+00 1.4249819303997938e+01 9.8404000729933971e-01 3.7339900294326089e-01 
157 1 2 2.9014206462107284e-01 -1.7026101965240159e+02 1.0000000000000000e+00 1.7931202141060357e+01 9.3550875762856212e+00 7.6547630454378934e-01 
163 1 2 2.9014206462107284e-01 -1.5940371640519032e+02 1.0000000000000000e+00 1.7931202141060357e+01 9.3550875762856229e+00 7.6547630454378923e-01 
116 1 2 2.9014206462107284e-01 -1.9064775084963793e+02 1.0000000000000000e+00 1.6180120711236224e+01 4.2278538417763958e+00 4.3263451353476921e+00 
152 1 2 2.9014206462107284e-01 -1.9402527190255392e+02 1.0000000000000000e+00 1.6180120711236224e+01 4.2278538417763958e+00 4.3263451353476921e+00 
158 1 2 4.3521309693160926e-01 -2.2770089233172897e+02 1.0000000000000000e+00 1.8472271667534450e+01 8.5594039482194795e+00 6.0843103920428163e+00 
159 1 2 4.3521309693160926e-01 -2.3470479086189113e+02 1.0000000000000000e+00 1.8472271667532702e+01 8.5594039482194724e+00 6.0843103920424300e+00 
165 1 2 4.3521309693160926e-01 -2.3482043249864824e+02 1.0000000000000000e+00 1.8472271667533576e+01 8.5594039482194795e+00 6.0843103920424451e+00 
147 1 2 5.8028412924214567e-01 -2.7525690816385753e+02 1.0000000000000000e+00 1.7466808536196229e+01 2.4733657596127183e+00 9.0627576430476253e+00 
148 1 2 5.8028412924214567e-01 -2.9168316996158364e+02 1.0000000000000000e+00 1.7466808536196229e+01 2.4733657596128782e+00 9.0627576430489221e+00 
154 1 2 5.8028412924214567e-01 -2.4074919502696690e+02 1.0000000000000000e+00 1.7466808536197370e+01 2.4733657596126366e+00 9.0627576430489221e+00 
153 1 2 5.8028412924214567e-01 -3.0307157814480939e+02 1.0000000000000000e+00 1.7466808536196272e+01 2.4733657596126366e+00 9.0627576430476253e+00 
160 1 2 8.7042619386321851e-01 -3.1366293080941915e+02 1.0000000000000000e+00 1.5989634146086859e+01 8.5678980371506359e+00 9.4188735558147787e+00 
166 1 2 8.7042619386321851e-01 -3.2133519997843206e+02 1.0000000000000000e+00 1.5989634146088610e+01 8.5678980371490336e+00 9.4188735558131462e+00 
124 1 2 8.7042619386321851e-01 -2.9008887528073433e+02 1.0000000000000000e+00 1.5989634146089246e+01 8.5678980371512647e+00 9.4188735558155212e+00 
129 1 2 8.7042619386321851e-01 -2.4202155606023030e+02 1.0000000000000000e+00 1.5989634146091159e+01 8.5678980371522808e+00 9.4188735558166332e+00 
123 1 2 8.7042619386321851e-01 -2.8906864078248674e+02 1.0000000000000000e+00 1.5989634146089410e+01 8.5678980371478186e+00 9.4188735558154981e+00 
130 1 2 8.7042619386321851e-01 -3.4812639994347938e+02 1.0000000000000000e+00 1.5989634146088678e+01 8.5678980371482272e+00 9.4188735558146295e+00 
113 1 2 7.2535516155268209e-01 -3.4518985119596891e+02 1.0000000000000000e+00 1.5690016725421497e+01 1.7150240173902160e+00 1.5063255418490970e+01 
114 1 2 7.2535516155268209e-01 -3.0102481892978170e+02 1.0000000000000000e+00 1.5690016725423646e+01 1.7150240173904152e+00 1.5063255418490600e+01 
119 1 2 7.2535516155268209e-01 -2.6481136043561924e+02 1.0000000000000000e+00 1.5690016725423117e+01 1.7150240173902467e+00 1.5063255418492497e+01 
150 1 2 7.2535516155268209e-01 -2.4381190810925074e+02 1.0000000000000000e+00 1.5690016725423153e+01 1.7150240173904487e+00 1.5063255418491554e+01 
149 1 2 7.2535516155268209e-01 -2.5872170752271114e+02 1.0000000000000000e+00 1.5690016725424192e+01 1.7150240173901843e+00 1.5063255418491417e+01 
155 1 2 1.0280003170827035e+00 -3.3058474687458886e+02 1.0000000000000000e+00 1.6067797682383748e+01 5.9828327196363480e+00 1.6447690333157297e+01 
161 1 2 1.0280003197130558e+00 -3.4885373303000932e+02 1.0000000000000000e+00 1.6040668285303472e+01 6.0025267500997330e+00 1.6472781082250663e+01 
125 1 2 1.0280003198245131e+00 -2.0112454919837376e+02 1.0000000000000000e+00 1.6031925824106466e+01 6.0033875941542325e+00 1.6480872714528587e+01 
126 1 2 1.0280003124924275e+00 -3.8467617488631572e+02 1.0000000000000000e+00 1.6003827888628493e+01 6.0947836976221792e+00 1.6534655336387623e+01 
120 1 2 1.0279996768712296e+00 -3.2550611478340142e+02 1.0000000000000000e+00 1.6855564223582050e+01 5.7142407992272810e+00 1.7604186548397333e+01 
115 1 2 1.0279996768692730e+00 -3.2862441513330907e+02 1.0000000000000000e+00 1.6855519098386882e+01 5.7142281023765111e+00 1.7604207592972301e+01 
151 1 2 1.0279996768713098e+00 -2.6439977524265038e+02 1.0000000000000000e+00 1.6855357276722518e+01 5.7141963552267407e+00 1.7604287766165733e+01 
156 1 2 1.0279996768705917e+00 -3.3542964255498021e+02 1.0000000000000000e+00 1.6855030932809580e+01 5.7149576015025172e+00 1.7604732805757600e+01 
162 1 2 1.0280000084945227e+00 -3.8944278696431923e+02 1.0000000000000000e+00 1.6989384386683668e+01 6.2707718956096006e+00 1.6740402514820421e+01 
127 1 2 8.7042619386321851e-01 -1.9715675531132837e+02 1.0000000000000000e+00 1.5805958694366636e+01 1.2213524652674101e+01 2.8048472257943287e+00 
133 1 2 8.7042619386321851e-01 -2.0454625666218698e+02 1.0000000000000000e+00 1.5805958694368519e+01 1.2213524652674435e+01 2.8048472257943287e+00 
134 1 2 8.7042619386321851e-01 -2.9975411198891464e+02 1.0000000000000000e+00 1.5805958694366636e+01 1.2213524652675527e+01 2.8048472257946324e+00 
170 1 2 8.7042619386321851e-01 -2.4660670746446860e+02 1.0000000000000000e+00 1.5805958694370185e+01 1.2213524652674515e+01 2.8048472257939263e+00 
128 1 2 8.7042619386321851e-01 -3.1851469196541819e+02 1.0000000000000000e+00 1.5805958694370378e+01 1.2213524652675831e+01 2.8048472257939263e+00 
164 1 2 8.7042619386321851e-01 -2.9828259717402301e+02 1.0000000000000000e+00 1.5805958694369840e+01 1.2213524652675570e+01 2.8048472257939774e+00 
169 1 2 2.9014206462107284e-01 -1.2520001442701670e+02 1.0000000000000000e+00 1.7999453157895132e+01 1.5428171807689047e+01 1.4841744194276076e+00 
175 1 2 2.9014206462107284e-01 -1.5468033295381349e+02 1.0000000000000000e+00 1.7999453157895132e+01 1.5428171807689049e+01 1.4841744194276074e+00 
176 1 2 2.9014206462107284e-01 -2.3080998570236690e+02 1.0000000000000000e+00 1.8423837435954617e+01 1.9267830597867132e+01 4.3425343923766109e+00 
146 1 2 2.9014206462107284e-01 -2.3399411836573711e+02 1.0000000000000000e+00 1.8423837435954614e+01 1.9267830597867135e+01 4.3425343923766118e+00 
140 1 2 1.0154972261736146e+00 -2.7652229886285829e+02 1.0000000000000000e+00 1.6648211995111385e+01 1.5640757152518685e+01 7.4230069369049172e+00 
141 1 2 1.0154972261734161e+00 -3.3649544857971182e+02 1.0000000000000000e+00 1.6648210946072364e+01 1.5640757139606068e+01 7.4230069570627926e+00 
135 1 2 1.0154972261735977e+00 -3.8788217069905818e+02 1.0000000000000000e+00 1.6648211632991032e+01 1.5640757732697381e+01 7.4230065293487080e+00 
171 1 2 1.0154972261736348e+00 -4.2865475116325780e+02 1.0000000000000000e+00 1.6648211656926339e+01 1.5640757118077738e+01 7.4230065739495403e+00 
177 1 2 1.0154972261736175e+00 -4.5274073104769383e+02 1.0000000000000000e+00 1.6648211675255496e+01 1.5640757126150717e+01 7.4230063086304297e+00 
172 1 2 1.0154972261734962e+00 -4.2064354005479322e+02 1.0000000000000000e+00 1.6648212630216324e+01 1.5640757084415421e+01 7.4230065623547770e+00 
178 1 2 1.0154972261734836e+00 -2.7528828153492498e+02 1.0000000000000000e+00 1.6648212449332288e+01 1.5640757824672932e+01 7.4230062970531172e+00 
136 1 2 1.0280000000632461e+00 -2.2431852033423039e+02 1.0000000000000000e+00 1.5816389219295115e+01 1.2881216611282063e+01 1.4207294838397114e+01 
131 1 2 1.0279999999073794e+00 -3.1297180114461844e+02 1.0000000000000000e+00 1.5771528837793218e+01 1.2808432431523260e+01 1.4261631373992861e+01 
132 1 2 1.0279999999027254e+00 -3.9417311129172151e+02 1.0000000000000000e+00 1.6350766892505309e+01 1.2586095657081591e+01 1.5579997011649224e+01 
137 1 2 1.0279999999697240e+00 -2.7849763752603576e+02 1.0000000000000000e+00 1.5642179651730036e+01 1.2977111271360439e+01 1.4311094016071237e+01 
167 1 2 1.0279999999792222e+00 -3.4972309063796314e+02 1.0000000000000000e+00 1.6507148942906145e+01 1.2365544533414875e+01 1.4813719564424622e+01 
174 1 2 1.0279999998654690e+00 -3.3570622166753532e+02 1.0000000000000000e+00 1.6628341180795076e+01 1.3271793415255528e+01 1.5686056492415288e+01 
168 1 2 1.0279999998181570e+00 -3.8901907271675452e+02 1.0000000000000000e+00 1.6672953501194911e+01 1.3076125558529572e+01 1.5671432108257775e+01 
173 1 2 1.0280000001049665e+00 -3.2329342311060657e+02 1.0000000000000000e+00 1.6171870596248116e+01 1.3448406227192162e+01 1.4194368315607557e+01 
138 1 2 1.0280000001699523e+00 -2.9547795860089838e+02 1.0000000000000000e+00 1.6213668439772601e+01 1.3810627090466429e+01 1.5397430232944975e+01 
179 1 2 1.0280000002006684e+00 -2.5525149124260633e+02 1.0000000000000000e+00 1.6238572775739058e+01 1.3816507784065278e+01 1.5387381085808908e+01 
180 1 2 2.9014206462107284e-01 -2.4668179905401669e+02 1.0000000000000000e+00 1.7541195369090815e+01 1.8678994191530531e+01 1.8406365828380451e+01 
145 1 2 2.9014206462107284e-01 -2.3673503071884383e+02 1.0000000000000000e+00 1.7541195369090818e+01 1.8678994191530531e+01 1.8406365828380455e+01 

Velocities

2 -4.4243052088215288e-12 -5.1384388437014635e-13 1.4598280951145721e-12
8 3.6959489940170075e-12 -1.0282966636265597e-12 1.4598280951142147e-12
3 -2.6169275418143681e-13 1.3857961025069552e-12 -3.3154071934838083e-12
39 -2.8831955246250706e-12 4.7972731961461102e-13 1.4598280951147147e-12
38 4.1349372478304060e-12 -1.6169963188878566e-13 1.4598280951147771e-12
44 -2.6169275418105064e-13 -1.6168324223440125e-13 -2.5239051869095723e-12
54 -2.1956960941385548e-12 3.4753628468838945e-13 1.1569414864731716e-12
18 -3.1703006830311956e-13 -1.3642224778121928e-12 -1.1569414864727622e-12
12 2.5127261624246221e-12 1.0166861931018184e-12 1.8331025035594346e-25
19 3.7609408716300303e-12 -1.7335104607213777e-12 -5.5136325782301091e-13
25 -1.8804704358121273e-12 2.7458421159085221e-12 8.9924999123316579e-13
20 -1.8804704358122076e-12 -1.0123316551849861e-12 -3.4788673341322359e-13
21 3.8983768943637883e-13 1.3492028653649085e-12 -1.8815667543203411e-12
27 -3.2681139727775488e-12 -3.3523097815464747e-12 -2.8115661206446026e-12
26 3.5901645065829548e-12 2.2208824279371494e-12 1.5637105306121540e-12
32 1.3462373054161409e-12 2.2208824279380404e-12 -1.2348814740280314e-12
33 -2.0581255286771434e-12 -2.4386579397151683e-12 4.3643038184181914e-12
34 1.9762625833649862e-323 -1.9762625833649862e-323 1.9762625833649862e-323
35 -6.4228533959362051e-323 5.1139139754513313e-13 2.5569569877256656e-13
5 6.4228533959362051e-323 -5.1139139754513313e-13 -2.5569569877256656e-13
31 1.6233470134266372e-13 -4.8985140823428660e-12 -7.1073121429618800e-12
6 1.6233470134263893e-13 3.6278855649046525e-12 1.0270323939589173e-11
36 -4.8700410402743566e-13 -5.1326910365208676e-12 3.9443003461761192e-12
1 1.6233470134265417e-13 6.4033195539204479e-12 -7.1073121429629099e-12
73 -4.8784361347280821e-04 7.1878346812306545e-04 1.6170418477143324e-04
79 -2.8931507898000426e-05 4.7854565272888312e-05 -7.9981886713742971e-06
37 -3.2110286516308958e-04 4.7310901636527848e-04 8.9430290388158455e-05
43 3.5084976240426605e-04 -4.2841877783013230e-04 -8.3313976676988125e-05
49 7.8970672252030849e-04 -1.2552936082063973e-03 -3.2104913887984893e-04
7 -1.2604885408894681e-03 1.6811874885840142e-03 3.3649599628621013e-04
48 9.6050510286106391e-04 -1.2719694599930397e-03 -1.7577331162965697e-04
13 -2.6950603622491270e-06 3.4747307684136685e-05 5.0414441204424829e-07
85 6.7395047894082068e-12 4.3523063627188276e-12 -1.9303957553857885e-13
86 -3.8022231817058189e-12 -1.7325430689956861e-12 5.7911872661235145e-13
122 -1.4686408038610543e-12 -1.7325430689950169e-12 -1.9303957553913762e-13
121 -1.4686408038613277e-12 -8.8722022472428527e-13 -1.9303957553916289e-13
74 2.5977315207176401e-12 9.8930722798494684e-13 2.9331126533169063e-12
75 7.4445318663027151e-14 -3.0439211918196094e-13 -2.8962150128982979e-12
80 7.6927994236885901e-12 -5.0035235017212811e-13 -3.2061774152118685e-12
110 -5.1824881315388468e-12 2.4559198709605672e-13 2.7952181173024487e-12
111 -5.1824881315392822e-12 -4.3015474572842049e-13 3.7406165748612552e-13
50 5.2474238157888212e-04 8.6928664974517177e-04 -2.9565447644445606e-04