LAMMPS data file via write_data, version 30 Jul 2016, timestep = 50000000

180 atoms
2 atom types

0.0000000000000000e+00 2.0000000000000000e+01 xlo xhi
0.0000000000000000e+00 2.0000000000000000e+01 ylo yhi
0.0000000000000000e+00 2.0000000000000000e+01 zlo zhi

Masses

1 3.896
2 4.31

Atoms # meso-molecular

2 1 2 8.7042619386321851e-01 -3.3010134595479963e+02 1.0000000000000000e+00 6.3309785315893778e+00 1.8422611822556758e+00 5.6230808455720522e+00 
8 1 2 8.7042619386321851e-01 -2.7662896733712876e+02 1.0000000000000000e+00 6.3309785315891647e+00 1.8422611822550123e+00 5.6230808455720522e+00 
3 1 2 8.7042619386321851e-01 -3.2128805033992944e+02 1.0000000000000000e+00 6.3309785315869425e+00 1.8422611822551855e+00 5.6230808455693797e+00 
39 1 2 8.7042619386321851e-01 -3.0496999458916594e+02 1.0000000000000000e+00 6.3309785315898051e+00 1.8422611822551809e+00 5.6230808455720522e+00 
38 1 2 8.7042619386321851e-01 -3.0351236867681843e+02 1.0000000000000000e+00 6.3309785315880527e+00 1.8422611822552228e+00 5.6230808455720522e+00 
44 1 2 8.7042619386321851e-01 -3.1274751408193544e+02 1.0000000000000000e+00 6.3309785315869425e+00 1.8422611822551385e+00 5.6230808455682553e+00 
54 1 2 4.3521309693160926e-01 -2.3547486534513942e+02 1.0000000000000000e+00 5.7319889257990502e+00 6.4506859299011223e+00 1.6970155508743460e+01 
18 1 2 4.3521309693160926e-01 -2.8376221431883340e+02 1.0000000000000000e+00 5.7319889257988912e+00 6.4506859299013470e+00 1.6970155508743467e+01 
12 1 2 4.3521309693160926e-01 -2.5875248405382479e+02 1.0000000000000000e+00 5.7319889257994978e+00 6.4506859299017245e+00 1.6970155508743463e+01 
19 1 2 4.3521309693160926e-01 -3.0343598451049644e+02 1.0000000000000000e+00 4.9197468992946281e+00 1.1766031579031047e+01 1.6140364838253076e+00 
25 1 2 4.3521309693160926e-01 -3.2706829669767961e+02 1.0000000000000000e+00 4.9197468992939353e+00 1.1766031579030317e+01 1.6140364838251826e+00 
20 1 2 4.3521309693160926e-01 -2.5509069244318090e+02 1.0000000000000000e+00 4.9197468992939353e+00 1.1766031579029685e+01 1.6140364838252539e+00 
21 1 2 7.2535516155268209e-01 -3.0927496035832462e+02 1.0000000000000000e+00 5.3631901921526453e+00 1.4424700659980489e+01 5.9941850420258405e+00 
27 1 2 7.2535516155268209e-01 -3.6289069144177290e+02 1.0000000000000000e+00 5.3631901921537333e+00 1.4424700659983133e+01 5.9941850420247347e+00 
26 1 2 7.2535516155268209e-01 -3.3401965307181803e+02 1.0000000000000000e+00 5.3631901921532794e+00 1.4424700659982729e+01 5.9941850420234610e+00 
32 1 2 7.2535516155268209e-01 -3.3504679950807247e+02 1.0000000000000000e+00 5.3631901921536418e+00 1.4424700659982729e+01 5.9941850420241938e+00 
33 1 2 7.2535516155268209e-01 -3.1148666658694992e+02 1.0000000000000000e+00 5.3631901921545202e+00 1.4424700659982626e+01 5.9941850420238980e+00 
34 1 2 1.4507103231053642e-01 1.9198972499779320e+01 1.0000000000000000e+00 5.7346028491431289e+00 1.7573998568246846e+01 1.0084382931108419e+01 
35 1 2 2.9014206462107284e-01 -2.5066942474947570e+02 1.0000000000000000e+00 4.7040562589901338e+00 1.8523936769109611e+01 1.3961464505656785e+01 
5 1 2 2.9014206462107284e-01 -2.5418755141075729e+02 1.0000000000000000e+00 4.7040562589901338e+00 1.8523936769109614e+01 1.3961464505656787e+01 
31 1 2 5.8028412924214567e-01 -3.6582160257318350e+02 1.0000000000000000e+00 4.9012411258756412e+00 1.9146758560690234e+01 1.8727563845418313e+01 
6 1 2 5.8028412924214567e-01 -3.7325532893866102e+02 1.0000000000000000e+00 4.9012411258756412e+00 1.9146758560693410e+01 1.8727563845418754e+01 
36 1 2 5.8028412924214567e-01 -3.8241697585332116e+02 1.0000000000000000e+00 4.9012411258756430e+00 1.9146758560694920e+01 1.8727563845420814e+01 
1 1 2 5.8028412924214567e-01 -3.1171787628691095e+02 1.0000000000000000e+00 4.9012411258756412e+00 1.9146758560693200e+01 1.8727563845418313e+01 
73 1 2 1.0280000003379353e+00 -2.5968403309707611e+02 1.0000000000000000e+00 8.2015691487344888e+00 3.6987053654508966e+00 3.9863127724610203e-01 
79 1 2 1.0280000000234453e+00 -2.4160108581995195e+02 1.0000000000000000e+00 8.2016599148195670e+00 3.6988082640511530e+00 3.9846713232988124e-01 
37 1 2 1.0280000002233984e+00 -3.5852614097396975e+02 1.0000000000000000e+00 8.2027733228259105e+00 3.6980946043748157e+00 4.0467689370754478e-01 
43 1 2 1.0280000002235192e+00 -3.6219702930806443e+02 1.0000000000000000e+00 7.6268822074535043e+00 4.5004933129386027e+00 5.7298464480127742e-01 
49 1 2 1.0280000005721619e+00 -3.6177121299021599e+02 1.0000000000000000e+00 7.6590917442198698e+00 4.5175366200069789e+00 5.9681395066871534e-01 
7 1 2 1.0279999992111362e+00 -4.0379107953673167e+02 1.0000000000000000e+00 7.6273792739922319e+00 4.4995907023368131e+00 5.7945201536193491e-01 
48 1 2 1.0279999994150910e+00 -3.8862850461113379e+02 1.0000000000000000e+00 8.2183982825457083e+00 3.7031215678767393e+00 4.3781092194718646e-01 
13 1 2 1.0279999999959692e+00 -2.7477302046401900e+02 1.0000000000000000e+00 7.6458912878232388e+00 4.5107372535959627e+00 5.8900261711238466e-01 
85 1 2 5.8028412924214567e-01 -1.6593946195424368e+02 1.0000000000000000e+00 1.3246782985015733e+01 7.7245467155856220e+00 2.2823314785481386e+00 
86 1 2 5.8028412924214567e-01 -1.5120973727678273e+02 1.0000000000000000e+00 1.3246782985015511e+01 7.7245467155844780e+00 2.2823314785481967e+00 
122 1 2 5.8028412924214567e-01 -1.6670456544126080e+02 1.0000000000000000e+00 1.3246782985013633e+01 7.7245467155844780e+00 2.2823314785481386e+00 
121 1 2 5.8028412924214567e-01 -2.2490869459689696e+02 1.0000000000000000e+00 1.3246782985013633e+01 7.7245467155851921e+00 2.2823314785481386e+00 
74 1 2 7.2535516155268209e-01 -2.6467642661062553e+02 1.0000000000000000e+00 1.3088253711544418e+01 1.5495021276142849e+00 5.0287580172012341e+00 
75 1 2 7.2535516155268209e-01 -3.5066927798781603e+02 1.0000000000000000e+00 1.3088253711543892e+01 1.5495021276137211e+00 5.0287580172025148e+00 
80 1 2 7.2535516155268209e-01 -2.3392280701845939e+02 1.0000000000000000e+00 1.3088253711546537e+01 1.5495021276142458e+00 5.0287580172016950e+00 
110 1 2 7.2535516155268209e-01 -3.0314133478184971e+02 1.0000000000000000e+00 1.3088253711546209e+01 1.5495021276138381e+00 5.0287580172017510e+00 
111 1 2 7.2535516155268209e-01 -2.9747515107563004e+02 1.0000000000000000e+00 1.3088253711546209e+01 1.5495021276141576e+00 5.0287580172026551e+00 
50 1 2 1.0279999996270091e+00 -3.5501237356138927e+02 1.0000000000000000e+00 7.2360234237519565e+00 7.6635736440777542e+00 6.1250502891505985e+00 
56 1 2 1.0279999996937701e+00 -3.2427638388395559e+02 1.0000000000000000e+00 7.2356305297779082e+00 7.6597482566560409e+00 6.1154823661166100e+00 
57 1 2 1.0279999995922373e+00 -2.7993956993427418e+02 1.0000000000000000e+00 7.2230987952383687e+00 7.6798548639543149e+00 6.1494966790478092e+00 
51 1 2 1.0280000010858750e+00 -3.6148224514445405e+02 1.0000000000000000e+00 7.2436937687558833e+00 7.6801416908099256e+00 6.1933012487307746e+00 
45 1 2 1.0279999995988627e+00 -2.5893717155709282e+02 1.0000000000000000e+00 6.7581346074399846e+00 6.8450677374806359e+00 6.4505661678170725e+00 
9 1 2 1.0279999998620155e+00 -2.5546457541981300e+02 1.0000000000000000e+00 6.7579412353355028e+00 6.8448214470870878e+00 6.4496642114741114e+00 
15 1 2 1.0280000002632963e+00 -3.0455727124026276e+02 1.0000000000000000e+00 6.7815474599837380e+00 6.8183083112851612e+00 6.4061179800759520e+00 
14 1 2 1.0280000002697043e+00 -3.6235325385580433e+02 1.0000000000000000e+00 6.7205101042062356e+00 6.8590274486758220e+00 6.4233493197696347e+00 
87 1 2 1.0154972261737547e+00 -2.5692709468208767e+02 1.0000000000000000e+00 1.2600129424127854e+01 3.8689827372285359e+00 9.4326110804188374e+00 
82 1 2 1.0154972261737540e+00 -3.9548154064865844e+02 1.0000000000000000e+00 1.2600129453089584e+01 3.8689827372390675e+00 9.4326111351100934e+00 
118 1 2 1.0154972261737547e+00 -3.1437676163858123e+02 1.0000000000000000e+00 1.2600129417829475e+01 3.8689827557146952e+00 9.4326110819985534e+00 
76 1 2 1.0154972261737540e+00 -3.5098596433731882e+02 1.0000000000000000e+00 1.2600129378297323e+01 3.8689827372421752e+00 9.4326110935007641e+00 
112 1 2 1.0154972261737547e+00 -3.3777513692472917e+02 1.0000000000000000e+00 1.2600129434617834e+01 3.8689827342744181e+00 9.4326110935130352e+00 
81 1 2 1.0154972261737547e+00 -3.6498694463065033e+02 1.0000000000000000e+00 1.2600129424002548e+01 3.8689827215023396e+00 9.4326110882407583e+00 
117 1 2 1.0154972261737547e+00 -3.8688469811949693e+02 1.0000000000000000e+00 1.2600129433451741e+01 3.8689827372285359e+00 9.4326110811468276e+00 
40 1 2 1.0279999999270215e+00 -3.1168593310017303e+02 1.0000000000000000e+00 7.3046262393554118e+00 2.4233057283580406e+00 1.2048448567150857e+01 
4 1 2 1.0280000012639841e+00 -3.7463105019329583e+02 1.0000000000000000e+00 7.3028071981216085e+00 2.4241816402604393e+00 1.2048574810118831e+01 
46 1 2 1.0279999993994189e+00 -3.6575113977614404e+02 1.0000000000000000e+00 7.2784486844275333e+00 2.4704404354394920e+00 1.2041820051420222e+01 
10 1 2 1.0279999994088991e+00 -3.3592071647870040e+02 1.0000000000000000e+00 7.2826715252057905e+00 2.4609435548623506e+00 1.2042889873531417e+01 
11 1 2 1.0279999991904647e+00 -3.0977279315871107e+02 1.0000000000000000e+00 7.5083678888704011e+00 2.7443999496309588e+00 1.2975379543890510e+01 
47 1 2 1.0279999993540017e+00 -2.9307537033300798e+02 1.0000000000000000e+00 7.5364924008249048e+00 2.7149265321223344e+00 1.2978421766421432e+01 
41 1 2 1.0280000013058095e+00 -2.8465681481225988e+02 1.0000000000000000e+00 7.5402642902427353e+00 2.7095605369767077e+00 1.2978919427026282e+01 
42 1 2 1.0280000001453842e+00 -2.4054082570124223e+02 1.0000000000000000e+00 7.5555097209849205e+00 2.6966401904132629e+00 1.2977843922789758e+01 
52 1 2 1.0255820610837063e+00 -2.8704442620236432e+02 1.0000000000000000e+00 8.0214276400860580e+00 8.5421496687399099e+00 1.2499972531532890e+01 
58 1 2 1.0255663481065251e+00 -2.7566346155368677e+02 1.0000000000000000e+00 8.0329452216270170e+00 8.5409176676156680e+00 1.2506336199039737e+01 
94 1 2 1.0255557288510861e+00 -2.5967703431311713e+02 1.0000000000000000e+00 8.0431123227850048e+00 8.5395435256402799e+00 1.2511616681450556e+01 
88 1 2 1.0255388463502526e+00 -2.5316284871696621e+02 1.0000000000000000e+00 8.1197569950105315e+00 8.5279686099174370e+00 1.2545184411975285e+01 
59 1 2 1.0300345236232764e+00 -3.0245965127303219e+02 1.0000000000000000e+00 9.7188437475038469e+00 9.1421953390728472e+00 1.1309886473144813e+01 
17 1 2 1.0279701707828346e+00 -2.9254117992396101e+02 1.0000000000000000e+00 7.8167850729050095e+00 9.0437405773200226e+00 1.1213762212412334e+01 
22 1 2 1.0279701707828346e+00 -3.7205193588991580e+02 1.0000000000000000e+00 7.8167850729050095e+00 9.0437405773200226e+00 1.1213762212412334e+01 
16 1 2 1.0279701707828346e+00 -2.9094496795336397e+02 1.0000000000000000e+00 7.8167850729050095e+00 9.0437405773200226e+00 1.1213762212412334e+01 
90 1 2 1.0307662094825099e+00 -3.1693632803126383e+02 1.0000000000000000e+00 9.7339222466071966e+00 9.1424832972700081e+00 1.1362339595528503e+01 
95 1 2 1.0307644737502519e+00 -3.1095107256167802e+02 1.0000000000000000e+00 9.7339474911885357e+00 9.1423478679641264e+00 1.1362316003098375e+01 
89 1 2 1.0307205166872599e+00 -2.4322406067396872e+02 1.0000000000000000e+00 9.7341744572207656e+00 9.1422858860032150e+00 1.1362650509768020e+01 
53 1 2 1.0293941878138140e+00 -3.1225746766538941e+02 1.0000000000000000e+00 9.7396507750936934e+00 9.1431963738436899e+00 1.1370112866659689e+01 
77 1 2 5.8028412924214567e-01 -2.2232786805952594e+02 1.0000000000000000e+00 1.1362513205638219e+01 2.6609954184680213e+00 1.5592001099270304e+01 
78 1 2 5.8028412924214567e-01 -2.7489947653941948e+02 1.0000000000000000e+00 1.1362513205636038e+01 2.6609954184680213e+00 1.5592001099268076e+01 
83 1 2 5.8028412924214567e-01 -2.3902317054472047e+02 1.0000000000000000e+00 1.1362513205637129e+01 2.6609954184679223e+00 1.5592001099270304e+01 
84 1 2 5.8028412924214567e-01 -2.4733508450206659e+02 1.0000000000000000e+00 1.1362513205637129e+01 2.6609954184682181e+00 1.5592001099268076e+01 
63 1 2 1.0279999993129005e+00 -3.3365993762923591e+02 1.0000000000000000e+00 9.9851568019098007e+00 1.6116260174330517e+01 6.9303296896643536e+00 
99 1 2 1.0279999980771641e+00 -2.9849337896936782e+02 1.0000000000000000e+00 9.8350594425869975e+00 1.5761561813720641e+01 7.1356148216439967e+00 
93 1 2 1.0279999981091408e+00 -2.3628590281198177e+02 1.0000000000000000e+00 9.8374322684425817e+00 1.5759996469286172e+01 7.1361469106777831e+00 
92 1 2 1.0280000018430033e+00 -3.2248996560159458e+02 1.0000000000000000e+00 1.0055445097506960e+01 1.6183143244820268e+01 6.9373922486970114e+00 
62 1 2 1.0279999970941061e+00 -3.3128472604744201e+02 1.0000000000000000e+00 1.0052470403942349e+01 1.6198316544628501e+01 7.9192605638231397e+00 
105 1 2 1.0279999974298868e+00 -2.5584879066219696e+02 1.0000000000000000e+00 1.0052514456116233e+01 1.6198401679207450e+01 7.9192446370747707e+00 
69 1 2 1.0279999969024631e+00 -2.6285889520178853e+02 1.0000000000000000e+00 1.0052514058396540e+01 1.6198400910574737e+01 7.9192447831274260e+00 
98 1 2 1.0280000102400504e+00 -3.6132089333788917e+02 1.0000000000000000e+00 1.0225986904786129e+01 1.6550783918271023e+01 7.5248581241748758e+00 
64 1 2 8.7042619386321851e-01 -2.8276488971042488e+02 1.0000000000000000e+00 8.8985734124769262e+00 1.5114406100944604e+01 1.1644040160292541e+01 
71 1 2 8.7042619386321851e-01 -3.1143391044862722e+02 1.0000000000000000e+00 8.8985734124769262e+00 1.5114406100943123e+01 1.1644040160300074e+01 
70 1 2 8.7042619386321851e-01 -3.0555506521577672e+02 1.0000000000000000e+00 8.8985734124733096e+00 1.5114406100945088e+01 1.1644040160299035e+01 
100 1 2 8.7042619386321851e-01 -2.6607451758933820e+02 1.0000000000000000e+00 8.8985734124736116e+00 1.5114406100945592e+01 1.1644040160295591e+01 
28 1 2 8.7042619386321851e-01 -2.4301275206301813e+02 1.0000000000000000e+00 8.8985734124706166e+00 1.5114406100942679e+01 1.1644040160297809e+01 
101 1 2 8.7042619386321851e-01 -2.4184164528318018e+02 1.0000000000000000e+00 8.8985734124740841e+00 1.5114406100947829e+01 1.1644040160293992e+01 
106 1 2 4.3521309693160926e-01 -2.7681562322532835e+02 1.0000000000000000e+00 1.3046583079633757e+01 1.7431135940393609e+01 1.2123076806258675e+01 
143 1 2 4.3521309693160926e-01 -2.0708637471928654e+02 1.0000000000000000e+00 1.3046583079633411e+01 1.7431135940393052e+01 1.2123076806258645e+01 
142 1 2 4.3521309693160926e-01 -2.6510330350381264e+02 1.0000000000000000e+00 1.3046583079634612e+01 1.7431135940394594e+01 1.2123076806257263e+01 
139 1 2 1.0279480331379804e+00 -3.2016389567305532e+02 1.0000000000000000e+00 6.7811108081553160e+00 1.0684655834763140e+01 1.5853448835827244e+01 
103 1 2 1.0279480331379804e+00 -3.2434514258474303e+02 1.0000000000000000e+00 6.7811108081553160e+00 1.0684655834763140e+01 1.5853448835827244e+01 
97 1 2 1.0279480331379804e+00 -2.9391209489565966e+02 1.0000000000000000e+00 6.7811108081553160e+00 1.0684655834763140e+01 1.5853448835827244e+01 
61 1 2 1.0279480331379804e+00 -2.9102671002498488e+02 1.0000000000000000e+00 6.7811108081553160e+00 1.0684655834763140e+01 1.5853448835827244e+01 
67 1 2 1.0279480331379804e+00 -2.9515831347030900e+02 1.0000000000000000e+00 6.7811108081553160e+00 1.0684655834763140e+01 1.5853448835827244e+01 
68 1 2 1.0279480331379804e+00 -2.7291946406547504e+02 1.0000000000000000e+00 6.7811108081553160e+00 1.0684655834763140e+01 1.5853448835827244e+01 
108 1 2 5.8028412924214567e-01 -3.2112891508220628e+02 1.0000000000000000e+00 1.2670030350019482e+01 1.5965774513114789e+01 1.5867741351853656e+01 
102 1 2 5.8028412924214567e-01 -3.2797476107757865e+02 1.0000000000000000e+00 1.2670030350021117e+01 1.5965774513114788e+01 1.5867741351854113e+01 
107 1 2 5.8028412924214567e-01 -2.2804356229344936e+02 1.0000000000000000e+00 1.2670030350019482e+01 1.5965774513114068e+01 1.5867741351854574e+01 
144 1 2 5.8028412924214567e-01 -2.6839539317399169e+02 1.0000000000000000e+00 1.2670030350017848e+01 1.5965774513114788e+01 1.5867741351854113e+01 
55 1 2 1.0279421714943555e+00 -3.5615851059196211e+02 1.0000000000000000e+00 7.6604004616192567e+00 1.2238382802695007e+01 1.7004053457310963e+01 
91 1 2 1.0279421714943555e+00 -3.2877430967147882e+02 1.0000000000000000e+00 7.6604004616192567e+00 1.2238382802695007e+01 1.7004053457310963e+01 
96 1 2 1.0279421714943555e+00 -3.3196321219924187e+02 1.0000000000000000e+00 7.6604004616192567e+00 1.2238382802695007e+01 1.7004053457310963e+01 
104 1 2 1.0279421714943555e+00 -3.0700188540468469e+02 1.0000000000000000e+00 7.6604004616192567e+00 1.2238382802695007e+01 1.7004053457310963e+01 
66 1 2 1.0284562332845579e+00 -2.4415227487906637e+02 1.0000000000000000e+00 8.7284873361942790e+00 1.2365532047450927e+01 1.7896790240953880e+01 
72 1 2 1.0284562332845579e+00 -2.6131185495085572e+02 1.0000000000000000e+00 8.7284873361942790e+00 1.2365532047450927e+01 1.7896790240953880e+01 
23 1 2 1.0276816936566096e+00 -2.2537108773249608e+02 1.0000000000000000e+00 9.4312835119365506e+00 1.3623193578289118e+01 1.8837769233409773e+01 
24 1 2 1.0276816936566096e+00 -2.7898374387160538e+02 1.0000000000000000e+00 9.4312835119365506e+00 1.3623193578289118e+01 1.8837769233409773e+01 
30 1 2 1.0276816936566096e+00 -2.1925182304403390e+02 1.0000000000000000e+00 9.4312835119365506e+00 1.3623193578289118e+01 1.8837769233409773e+01 
29 1 2 1.0276816936566096e+00 -2.5823400593655799e+02 1.0000000000000000e+00 9.4312835119365506e+00 1.3623193578289118e+01 1.8837769233409773e+01 
60 1 2 1.0276816936566096e+00 -2.6072541369658830e+02 1.0000000000000000e+00 9.4312835119365506e+00 1.3623193578289118e+01 1.8837769233409773e+01 
65 1 2 1.0276816936566096e+00 -2.3683723529422440e+02 1.0000000000000000e+00 9.4312835119365506e+00 1.3623193578289118e+01 1.8837769233409773e+01 
109 1 2 1.4507103231053642e-01 6.6473943811095326e+00 1.0000000000000000e+00 1.4249819303997938e+01 9.8404000729933971e-01 3.7339900294326089e-01 
157 1 2 2.9014206462107284e-01 -1.7026101965240159e+02 1.0000000000000000e+00 1.7931202141060357e+01 9.3550875762856212e+00 7.6547630454378934e-01 
163 1 2 2.9014206462107284e-01 -1.5940371640519032e+02 1.0000000000000000e+00 1.7931202141060357e+01 9.3550875762856229e+00 7.6547630454378923e-01 
116 1 2 2.9014206462107284e-01 -1.9064775084963793e+02 1.0000000000000000e+00 1.6180120711236224e+01 4.2278538417763958e+00 4.3263451353476921e+00 
152 1 2 2.9014206462107284e-01 -1.9402527190255392e+02 1.0000000000000000e+00 1.6180120711236224e+01 4.2278538417763958e+00 4.3263451353476921e+00 
158 1 2 4.3521309693160926e-01 -2.2770089233172897e+02 1.0000000000000000e+00 1.8472271667535580e+01 8.5594039482194795e+00 6.0843103920409991e+00 
159 1 2 4.3521309693160926e-01 -2.3470479086189113e+02 1.0000000000000000e+00 1.8472271667531572e+01 8.5594039482184989e+00 6.0843103920404991e+00 
165 1 2 4.3521309693160926e-01 -2.3482043249864824e+02 1.0000000000000000e+00 1.8472271667533576e+01 8.5594039482194795e+00 6.0843103920407842e+00 
147 1 2 5.8028412924214567e-01 -2.7525690816385753e+02 1.0000000000000000e+00 1.7466808536194915e+01 2.4733657596130918e+00 9.0627576430493644e+00 
148 1 2 5.8028412924214567e-01 -2.9168316996158364e+02 1.0000000000000000e+00 1.7466808536194915e+01 2.4733657596131389e+00 9.0627576430471830e+00 
154 1 2 5.8028412924214567e-01 -2.4074919502696690e+02 1.0000000000000000e+00 1.7466808536192190e+01 2.4733657596131033e+00 9.0627576430471830e+00 
153 1 2 5.8028412924214567e-01 -3.0307157814480939e+02 1.0000000000000000e+00 1.7466808536196336e+01 2.4733657596131033e+00 9.0627576430493644e+00 
160 1 2 8.7042619386321851e-01 -3.1366293080941915e+02 1.0000000000000000e+00 1.5989634146099354e+01 8.5678980371421360e+00 9.4188735558209338e+00 
166 1 2 8.7042619386321851e-01 -3.2133519997843206e+02 1.0000000000000000e+00 1.5989634146095881e+01 8.5678980371446816e+00 9.4188735558188483e+00 
124 1 2 8.7042619386321851e-01 -2.9008887528073433e+02 1.0000000000000000e+00 1.5989634146095659e+01 8.5678980371423954e+00 9.4188735558164609e+00 
129 1 2 8.7042619386321851e-01 -2.4202155606023030e+02 1.0000000000000000e+00 1.5989634146100064e+01 8.5678980371426849e+00 9.4188735558192747e+00 
123 1 2 8.7042619386321851e-01 -2.8906864078248674e+02 1.0000000000000000e+00 1.5989634146099078e+01 8.5678980371410489e+00 9.4188735558201984e+00 
130 1 2 8.7042619386321851e-01 -3.4812639994347938e+02 1.0000000000000000e+00 1.5989634146099066e+01 8.5678980371395959e+00 9.4188735558170968e+00 
113 1 2 7.2535516155268209e-01 -3.4518985119596891e+02 1.0000000000000000e+00 1.5690016725420120e+01 1.7150240173909306e+00 1.5063255418493021e+01 
114 1 2 7.2535516155268209e-01 -3.0102481892978170e+02 1.0000000000000000e+00 1.5690016725421918e+01 1.7150240173906415e+00 1.5063255418492318e+01 
119 1 2 7.2535516155268209e-01 -2.6481136043561924e+02 1.0000000000000000e+00 1.5690016725419133e+01 1.7150240173909113e+00 1.5063255418493419e+01 
150 1 2 7.2535516155268209e-01 -2.4381190810925074e+02 1.0000000000000000e+00 1.5690016725418712e+01 1.7150240173906062e+00 1.5063255418492547e+01 
149 1 2 7.2535516155268209e-01 -2.5872170752271114e+02 1.0000000000000000e+00 1.5690016725418664e+01 1.7150240173910132e+00 1.5063255418492266e+01 
155 1 2 1.0279999991993622e+00 -3.3058474687721400e+02 1.0000000000000000e+00 1.6067797138154322e+01 5.9828318816887895e+00 1.6447689610698088e+01 
161 1 2 1.0279999991968489e+00 -3.4885373303232154e+02 1.0000000000000000e+00 1.6040667334218746e+01 6.0025261991811494e+00 1.6472780695695377e+01 
125 1 2 1.0279999991999009e+00 -2.0112454920078667e+02 1.0000000000000000e+00 1.6031924750276811e+01 6.0033870558796494e+00 1.6480872448213830e+01 
126 1 2 1.0279999992159616e+00 -3.8467617488921587e+02 1.0000000000000000e+00 1.6003826502675697e+01 6.0947844287165580e+00 1.6534655902973647e+01 
120 1 2 1.0280000007992787e+00 -3.2550611478539906e+02 1.0000000000000000e+00 1.6855564365274244e+01 5.7142413925863815e+00 1.7604185637422212e+01 
115 1 2 1.0280000008020223e+00 -3.2862441513530638e+02 1.0000000000000000e+00 1.6855519240644803e+01 5.7142286958843274e+00 1.7604206681751524e+01 
151 1 2 1.0280000007980978e+00 -2.6439977524464803e+02 1.0000000000000000e+00 1.6855357421040754e+01 5.7141969490752214e+00 1.7604286854061563e+01 
156 1 2 1.0280000008019023e+00 -3.3542964255697763e+02 1.0000000000000000e+00 1.6855031081213401e+01 5.7149581858096479e+00 1.7604731888072539e+01 
162 1 2 1.0279999999869207e+00 -3.8944278697946930e+02 1.0000000000000000e+00 1.6989387765109800e+01 6.2707707266327946e+00 1.6740406975549874e+01 
127 1 2 8.7042619386321851e-01 -1.9715675531132837e+02 1.0000000000000000e+00 1.5805958694367346e+01 1.2213524652667145e+01 2.8048472257926162e+00 
133 1 2 8.7042619386321851e-01 -2.0454625666218698e+02 1.0000000000000000e+00 1.5805958694360223e+01 1.2213524652665070e+01 2.8048472257926162e+00 
134 1 2 8.7042619386321851e-01 -2.9975411198891464e+02 1.0000000000000000e+00 1.5805958694367346e+01 1.2213524652667461e+01 2.8048472257930595e+00 
170 1 2 8.7042619386321851e-01 -2.4660670746446860e+02 1.0000000000000000e+00 1.5805958694361962e+01 1.2213524652672760e+01 2.8048472257921224e+00 
128 1 2 8.7042619386321851e-01 -3.1851469196541819e+02 1.0000000000000000e+00 1.5805958694363104e+01 1.2213524652669820e+01 2.8048472257921224e+00 
164 1 2 8.7042619386321851e-01 -2.9828259717402301e+02 1.0000000000000000e+00 1.5805958694358992e+01 1.2213524652668518e+01 2.8048472257928929e+00 
169 1 2 2.9014206462107284e-01 -1.2520001442701670e+02 1.0000000000000000e+00 1.7999453157895132e+01 1.5428171807689047e+01 1.4841744194276076e+00 
175 1 2 2.9014206462107284e-01 -1.5468033295381349e+02 1.0000000000000000e+00 1.7999453157895132e+01 1.5428171807689049e+01 1.4841744194276074e+00 
176 1 2 2.9014206462107284e-01 -2.3080998570236690e+02 1.0000000000000000e+00 1.8423837435954617e+01 1.9267830597867132e+01 4.3425343923766109e+00 
146 1 2 2.9014206462107284e-01 -2.3399411836573711e+02 1.0000000000000000e+00 1.8423837435954614e+01 1.9267830597867135e+01 4.3425343923766118e+00 
140 1 2 1.0154972261737534e+00 -2.7652229895340122e+02 1.0000000000000000e+00 1.6648211869850794e+01 1.5640757294654577e+01 7.4230066312544345e+00 
141 1 2 1.0154972261737512e+00 -3.3649544878829516e+02 1.0000000000000000e+00 1.6648211764075210e+01 1.5640757294077730e+01 7.4230066315966150e+00 
135 1 2 1.0154972261737532e+00 -3.8788217080052669e+02 1.0000000000000000e+00 1.6648211832079301e+01 1.5640757355478366e+01 7.4230065882662917e+00 
171 1 2 1.0154972261737536e+00 -4.2865475123954809e+02 1.0000000000000000e+00 1.6648211834613981e+01 1.5640757290856852e+01 7.4230065927437510e+00 
177 1 2 1.0154972261737534e+00 -4.5274073113604999e+02 1.0000000000000000e+00 1.6648211836462515e+01 1.5640757291712061e+01 7.4230065646345311e+00 
172 1 2 1.0154972261737520e+00 -4.2064354021783413e+02 1.0000000000000000e+00 1.6648211933799718e+01 1.5640757287673427e+01 7.4230065919808643e+00 
178 1 2 1.0154972261737520e+00 -2.7528828170533484e+02 1.0000000000000000e+00 1.6648211915023801e+01 1.5640757363684552e+01 7.4230065648280839e+00 
136 1 2 1.0280000000413514e+00 -2.2431852033423039e+02 1.0000000000000000e+00 1.5816389219285066e+01 1.2881216611262884e+01 1.4207294838347705e+01 
131 1 2 1.0279999999429954e+00 -3.1297180114461844e+02 1.0000000000000000e+00 1.5771528837877591e+01 1.2808432431615641e+01 1.4261631374017517e+01 
132 1 2 1.0279999999748159e+00 -3.9417311129172151e+02 1.0000000000000000e+00 1.6350766892574086e+01 1.2586095657414273e+01 1.5579997011726295e+01 
137 1 2 1.0279999999887559e+00 -2.7849763752603576e+02 1.0000000000000000e+00 1.5642179651917653e+01 1.2977111271228386e+01 1.4311094016009152e+01 
167 1 2 1.0279999999842180e+00 -3.4972309063796314e+02 1.0000000000000000e+00 1.6507148942882662e+01 1.2365544533389457e+01 1.4813719564446364e+01 
174 1 2 1.0280000000034535e+00 -3.3570622166753532e+02 1.0000000000000000e+00 1.6628341180656101e+01 1.3271793414864373e+01 1.5686056492187813e+01 
168 1 2 1.0279999999752498e+00 -3.8901907271675452e+02 1.0000000000000000e+00 1.6672953500906203e+01 1.3076125558537152e+01 1.5671432107991778e+01 
173 1 2 1.0280000000184206e+00 -3.2329342311060657e+02 1.0000000000000000e+00 1.6171870596150800e+01 1.3448406226935436e+01 1.4194368315258565e+01 
138 1 2 1.0280000000370089e+00 -2.9547795860089838e+02 1.0000000000000000e+00 1.6213668439864591e+01 1.3810627090617633e+01 1.5397430233353290e+01 
179 1 2 1.0280000000351825e+00 -2.5525149124260633e+02 1.0000000000000000e+00 1.6238572775890756e+01 1.3816507784298254e+01 1.5387381086237374e+01 
180 1 2 2.9014206462107284e-01 -2.4668179905401669e+02 1.0000000000000000e+00 1.7541195369090815e+01 1.8678994191530531e+01 1.8406365828380451e+01 
145 1 2 2.9014206462107284e-01 -2.3673503071884383e+02 1.0000000000000000e+00 1.7541195369090818e+01 1.8678994191530531e+01 1.8406365828380455e+01 

Velocities

2 6.1333254231466690e-12 4.5520101118045275e-13 4.7205788410557201e-12
8 6.4666558593708301e-12 1.3856128664138746e-13 4.7205788410554285e-12
3 -4.4159816770344682e-12 -1.2494758737327661e-12 -9.7962114548402166e-12
39 1.2217049076269449e-12 -1.8544582157233234e-13 4.7205788410554899e-12
38 -4.9897228360689815e-12 5.3605732103042033e-13 4.7205788410519396e-12
44 -4.4159816770400096e-12 3.0510207645289940e-13 -9.0861039093773258e-12
54 8.6439445136053688e-13 -2.2204596410935975e-12 8.0263490988498642e-13
18 -4.2761135347729217e-12 1.2919341589046992e-12 -8.0263490988498551e-13
12 3.4117190834120906e-12 9.2852548218857666e-13 1.0354001673730790e-26
19 1.3834457214700210e-12 5.6044204753877639e-12 9.9345114363052493e-13
25 -6.9172286073459305e-13 2.2774478164977777e-12 -9.7465636364767749e-13
20 -6.9172286073533238e-13 -7.8818682918853667e-12 -1.8794779982954056e-14
21 -4.0725671013026057e-13 -7.3838439579955153e-12 4.6994815799648836e-12
27 2.0302930217711368e-12 -3.7225052641463788e-12 2.0741751579377782e-12
26 -1.9665297098866533e-12 3.7252095297336414e-12 -4.0592837482585281e-12
32 -3.8118236044738769e-12 3.7252095297336616e-12 1.8849504279175321e-12
33 4.1553170027191911e-12 3.6559301626746444e-12 -4.5993234175608556e-12
34 1.9762625833649862e-323 -1.9762625833649862e-323 1.9762625833649862e-323
35 -6.4228533959362051e-323 3.4330960849002807e-13 1.7165480424501404e-13
5 6.4228533959362051e-323 -3.4330960849002807e-13 -1.7165480424501404e-13
31 1.0014818502034963e-13 -8.9704636880246690e-12 -2.5705337227130153e-13
6 1.0014818502036131e-13 4.3055928999331927e-12 -5.2613970034064461e-12
36 -3.0044455506106033e-13 1.4551278376872365e-11 5.7755037479418970e-12
1 1.0014818502035018e-13 -9.8864075887827102e-12 -2.5705337226690456e-13
73 -2.9427676114649853e-09 4.3384909702796155e-09 9.8332720632950777e-10
79 -2.0627258555701718e-10 3.3576476654772872e-10 -3.2374793263545225e-11
37 -1.9558770922510167e-09 2.8835963163517145e-09 5.5313810714987865e-10
43 2.1911808622820006e-09 -2.7054900650841856e-09 -5.3038077105305500e-10
49 4.7015197034577502e-09 -7.4640623865997253e-09 -1.9042503832438818e-09
7 -7.3609510443455363e-09 9.8134205767143595e-09 1.9619414173386147e-09
48 5.5185042464153281e-09 -7.3052105857201950e-09 -1.0121608899399185e-09
13 5.4663521463457147e-11 1.0349040751066297e-10 -1.9239893317581407e-11
85 7.9395238639299771e-12 1.5937477646226358e-12 -5.5847583911580401e-13
86 7.8018240397620771e-12 -3.1136094071054376e-12 1.6754275173475456e-12
122 -7.8706739518460901e-12 -3.1136094071060079e-12 -5.5847583911583652e-13
121 -7.8706739518460271e-12 4.6334710495890034e-12 -5.5847583911603978e-13
74 -8.0809744378734771e-12 6.1418711931520618e-13 -2.2573904107350431e-12
75 -4.4591041281936618e-12 -1.0736044617848001e-12 5.6583368935218625e-12
80 8.7593985078285043e-13 3.2950662545606454e-13 4.0059782367101997e-12
110 5.8320693576445623e-12 -3.5594790986415199e-13 1.7668928931945377e-12
111 5.8320693576402641e-12 4.8585862687760904e-13 -9.1738176126916091e-12
50 2.9252074737638502e-09 4.8342579470741803e-09 -1.6494121203258222e-09