LAMMPS data file via write_data, version 30 Jul 2016, timestep = 50400000

180 atoms
2 atom types

0.0000000000000000e+00 2.0000000000000000e+01 xlo xhi
0.0000000000000000e+00 2.0000000000000000e+01 ylo yhi
0.0000000000000000e+00 2.0000000000000000e+01 zlo zhi

Masses

1 3.896
2 4.31

Atoms # meso-molecular

92 1 2 1.0280000002425096e+00 2.2355724912182868e+01 1.0000000000000000e+00 7.5064469161453284e-01 2.3285373353548011e+00 1.3227498376831992e+00 
55 1 2 1.0280000002425096e+00 2.1989691124938364e+01 1.0000000000000000e+00 7.5064469161453284e-01 2.3285373353548011e+00 1.3227498376831992e+00 
61 1 2 1.0280000002425096e+00 2.2099966676225794e+01 1.0000000000000000e+00 7.5064469161453284e-01 2.3285373353548011e+00 1.3227498376831992e+00 
62 1 2 1.0280000002425096e+00 2.2332222078108416e+01 1.0000000000000000e+00 7.5064469161453284e-01 2.3285373353548011e+00 1.3227498376831992e+00 
104 1 2 1.0280000002425096e+00 2.3090400330693416e+01 1.0000000000000000e+00 7.5064469161453284e-01 2.3285373353548011e+00 1.3227498376831992e+00 
98 1 2 1.0280000002425096e+00 2.2044816159710912e+01 1.0000000000000000e+00 7.5064469161453284e-01 2.3285373353548011e+00 1.3227498376831992e+00 
179 1 2 1.0280007745481410e+00 2.2706874754951208e+01 1.0000000000000000e+00 4.0437336883665713e+00 1.6384385783222157e+01 1.2043810713680050e+00 
84 1 2 1.0280007745481410e+00 2.1084843661012783e+01 1.0000000000000000e+00 4.0437336883665713e+00 1.6384385783222157e+01 1.2043810713680050e+00 
173 1 2 1.0280007745481410e+00 2.2704042483606152e+01 1.0000000000000000e+00 4.0437336883665713e+00 1.6384385783222157e+01 1.2043810713680050e+00 
77 1 2 1.0280007745481410e+00 2.1062291197762903e+01 1.0000000000000000e+00 4.0437336883665713e+00 1.6384385783222157e+01 1.2043810713680050e+00 
78 1 2 1.0280007745481410e+00 2.1232735951245168e+01 1.0000000000000000e+00 4.0437336883665713e+00 1.6384385783222157e+01 1.2043810713680050e+00 
172 1 2 1.0280007745481410e+00 2.2733372562649329e+01 1.0000000000000000e+00 4.0437336883665713e+00 1.6384385783222157e+01 1.2043810713680050e+00 
40 1 2 1.0279973507081122e+00 1.8143454961807180e+01 1.0000000000000000e+00 6.0519312568766654e+00 1.6592203949813296e+01 2.0405386673731629e-01 
87 1 2 1.0279973507081122e+00 1.8599136004286429e+01 1.0000000000000000e+00 6.0519312568766654e+00 1.6592203949813296e+01 2.0405386673731629e-01 
115 1 2 1.0279973507081122e+00 1.8714422759896873e+01 1.0000000000000000e+00 6.0519312568766654e+00 1.6592203949813296e+01 2.0405386673731629e-01 
93 1 2 1.0279973507081122e+00 1.8463098578682647e+01 1.0000000000000000e+00 6.0519312568766654e+00 1.6592203949813296e+01 2.0405386673731629e-01 
4 1 2 1.0279973507081122e+00 1.8199876556506201e+01 1.0000000000000000e+00 6.0519312568766654e+00 1.6592203949813296e+01 2.0405386673731629e-01 
22 1 2 1.0279999999977689e+00 1.6597768031651206e+01 1.0000000000000000e+00 5.2064463271192238e+00 1.9295571617586489e+01 4.7731866361609185e+00 
18 1 2 1.0279999999977685e+00 1.6699549833426698e+01 1.0000000000000000e+00 5.2064463271190595e+00 1.9295571617586113e+01 4.7731866361637962e+00 
16 1 2 1.0279999999977689e+00 1.6453365305452689e+01 1.0000000000000000e+00 5.2064463271190595e+00 1.9295571617585882e+01 4.7731866361650255e+00 
23 1 2 1.0279999999977689e+00 1.6609955934854746e+01 1.0000000000000000e+00 5.2064463271192238e+00 1.9295571617586489e+01 4.7731866361609185e+00 
17 1 2 1.0279999999977689e+00 1.6292973593786748e+01 1.0000000000000000e+00 5.2064463271191261e+00 1.9295571617585821e+01 4.7731866361649793e+00 
54 1 2 1.0279999999977689e+00 1.7355185536220688e+01 1.0000000000000000e+00 5.2064463270870958e+00 1.9295571617570225e+01 4.7731866364226754e+00 
103 1 2 1.0279980252273486e+00 2.3185823473970956e+01 1.0000000000000000e+00 5.4236795754811400e+00 1.5708408330924689e+01 1.6054191731641492e+01 
133 1 2 1.0279980252273486e+00 2.3232304690155324e+01 1.0000000000000000e+00 5.4236795754811400e+00 1.5708408330924689e+01 1.6054191731641492e+01 
91 1 2 1.0279980252273486e+00 2.3252536726409453e+01 1.0000000000000000e+00 5.4236795754811400e+00 1.5708408330924689e+01 1.6054191731641492e+01 
147 1 2 1.0279980252273486e+00 2.2020146873039661e+01 1.0000000000000000e+00 5.4236795754811400e+00 1.5708408330924689e+01 1.6054191731641492e+01 
139 1 2 1.0279980252273486e+00 2.3673149021650808e+01 1.0000000000000000e+00 5.4236795754811400e+00 1.5708408330924689e+01 1.6054191731641492e+01 
97 1 2 1.0279980252273486e+00 2.2732185199127784e+01 1.0000000000000000e+00 5.4236795754811400e+00 1.5708408330924689e+01 1.6054191731641492e+01 
165 1 2 1.0280016781004169e+00 1.9796670903032091e+01 1.0000000000000000e+00 6.4611229546505440e+00 1.6503874252659756e+01 1.7710712042388295e+01 
96 1 2 1.0280016781004169e+00 1.9119382333881333e+01 1.0000000000000000e+00 6.4611229546505440e+00 1.6503874252659756e+01 1.7710712042388295e+01 
59 1 2 1.0280016781004169e+00 1.9491579032023221e+01 1.0000000000000000e+00 6.4611229546505440e+00 1.6503874252659756e+01 1.7710712042388295e+01 
60 1 2 1.0280016781004169e+00 1.9489218072521734e+01 1.0000000000000000e+00 6.4611229546505440e+00 1.6503874252659756e+01 1.7710712042388295e+01 
39 1 2 1.0279999999977691e+00 1.7821427457105909e+01 1.0000000000000000e+00 6.8900709839992533e+00 9.1861778519127635e-01 5.0806831231973621e+00 
38 1 2 1.0279999999977691e+00 1.7837562739173613e+01 1.0000000000000000e+00 6.8900709839992498e+00 9.1861778519127990e-01 5.0806831231973621e+00 
66 1 2 1.0279999999977691e+00 1.8586071490602109e+01 1.0000000000000000e+00 6.8900709839992533e+00 9.1861778519127635e-01 5.0806831231973621e+00 
170 1 2 1.0279999999977691e+00 1.6561805601010956e+01 1.0000000000000000e+00 6.8900709839992533e+00 9.1861778519127635e-01 5.0806831231973621e+00 
44 1 2 1.0279999999977691e+00 1.7934883167111455e+01 1.0000000000000000e+00 6.8900709839992533e+00 9.1861778519127635e-01 5.0806831231973621e+00 
159 1 2 1.0279999999977691e+00 1.7566311674266849e+01 1.0000000000000000e+00 6.8900709839992533e+00 9.1861778519127635e-01 5.0806831231973621e+00 
166 1 2 1.0280038904438682e+00 2.3853213509053269e+01 1.0000000000000000e+00 8.3420668922075372e+00 7.6986874888166188e+00 1.8281828987595997e+01 
126 1 2 1.0280038904438682e+00 2.2263279502908091e+01 1.0000000000000000e+00 8.3420668922075372e+00 7.6986874888166188e+00 1.8281828987595997e+01 
119 1 2 1.0280038904438682e+00 2.1910241797467073e+01 1.0000000000000000e+00 8.3420668922075372e+00 7.6986874888166188e+00 1.8281828987595997e+01 
90 1 2 1.0280038904438682e+00 2.2371583449515921e+01 1.0000000000000000e+00 8.3420668922075372e+00 7.6986874888166188e+00 1.8281828987595997e+01 
83 1 2 1.0280038904438682e+00 2.1476089284696773e+01 1.0000000000000000e+00 8.3420668922075372e+00 7.6986874888166188e+00 1.8281828987595997e+01 
82 1 2 1.0280038904438682e+00 2.1676436522981096e+01 1.0000000000000000e+00 8.3420668922075372e+00 7.6986874888166188e+00 1.8281828987595997e+01 
1 1 2 1.0280044880675223e+00 1.7911391739967417e+01 1.0000000000000000e+00 1.2596318964175911e+01 8.9360014567746902e+00 1.7901163199473739e+01 
7 1 2 1.0280044880675223e+00 1.7565766026397696e+01 1.0000000000000000e+00 1.2596318964175911e+01 8.9360014567746902e+00 1.7901163199473739e+01 
13 1 2 1.0280044880675223e+00 1.8208231624118262e+01 1.0000000000000000e+00 1.2596318964175911e+01 8.9360014567746902e+00 1.7901163199473739e+01 
43 1 2 1.0280044880675223e+00 1.7300495645239273e+01 1.0000000000000000e+00 1.2596318964175911e+01 8.9360014567746902e+00 1.7901163199473739e+01 
49 1 2 1.0280044880675223e+00 1.8093293042617521e+01 1.0000000000000000e+00 1.2596318964175911e+01 8.9360014567746902e+00 1.7901163199473739e+01 
153 1 2 1.0279970876785718e+00 1.7637322603266060e+01 1.0000000000000000e+00 1.0109426732151961e+01 7.2806685874940777e+00 1.9829429960248561e+01 
158 1 2 1.0279970876785718e+00 1.7713900106399208e+01 1.0000000000000000e+00 1.0109426732151961e+01 7.2806685874940777e+00 1.9829429960248561e+01 
157 1 2 1.0279970876785718e+00 1.8425993164139939e+01 1.0000000000000000e+00 1.0109426732151961e+01 7.2806685874940777e+00 1.9829429960248561e+01 
152 1 2 1.0279970876785718e+00 1.8676039957584877e+01 1.0000000000000000e+00 1.0109426732151961e+01 7.2806685874940777e+00 1.9829429960248561e+01 
141 1 2 1.0279970876785718e+00 1.7072432005661511e+01 1.0000000000000000e+00 1.0109426732151961e+01 7.2806685874940777e+00 1.9829429960248561e+01 
163 1 2 1.0279970876785718e+00 1.8595025698339370e+01 1.0000000000000000e+00 1.0109426732151961e+01 7.2806685874940777e+00 1.9829429960248561e+01 
143 1 2 1.0279862947121796e+00 2.3775535379208300e+01 1.0000000000000000e+00 9.4302886272558482e+00 1.1214981255569684e+01 1.1700509177586227e+01 
106 1 2 1.0279862947121796e+00 2.2474602915523175e+01 1.0000000000000000e+00 9.4302886272558482e+00 1.1214981255569684e+01 1.1700509177586227e+01 
136 1 2 1.0279862947121792e+00 2.2394999641197710e+01 1.0000000000000000e+00 9.4302886272558659e+00 1.1214981255569695e+01 1.1700509177586252e+01 
100 1 2 1.0280050465746113e+00 1.8524127309357496e+01 1.0000000000000000e+00 8.3420126250317548e+00 1.2049153387890350e+01 1.0145786647367103e+01 
58 1 2 1.0280050465746113e+00 1.8253819153610493e+01 1.0000000000000000e+00 8.3420126250317548e+00 1.2049153387890350e+01 1.0145786647367103e+01 
99 1 2 1.0280050465746113e+00 1.8154869337551368e+01 1.0000000000000000e+00 8.3420126250317548e+00 1.2049153387890350e+01 1.0145786647367103e+01 
137 1 2 1.0280050465746113e+00 1.8474821310896719e+01 1.0000000000000000e+00 8.3420126250317548e+00 1.2049153387890350e+01 1.0145786647367103e+01 
118 1 2 1.0280050465746113e+00 1.8267217175020175e+01 1.0000000000000000e+00 8.3420126250317548e+00 1.2049153387890350e+01 1.0145786647367103e+01 
117 1 2 1.0280050465746113e+00 1.7893386176175966e+01 1.0000000000000000e+00 8.3420126250317548e+00 1.2049153387890350e+01 1.0145786647367103e+01 
154 1 2 1.0280117482136433e+00 2.0476673088464540e+01 1.0000000000000000e+00 8.7498596777754258e+00 1.1893617082514254e+01 1.3032626664394000e+01 
148 1 2 1.0280117482136433e+00 2.0702992172778753e+01 1.0000000000000000e+00 8.7498596777754258e+00 1.1893617082514254e+01 1.3032626664394000e+01 
108 1 2 1.0280117482136435e+00 2.3812031120599269e+01 1.0000000000000000e+00 8.7498596777754223e+00 1.1893617082514236e+01 1.3032626664394012e+01 
135 1 2 1.0280117482136435e+00 2.1312674746470954e+01 1.0000000000000000e+00 8.7498596777754223e+00 1.1893617082514236e+01 1.3032626664394012e+01 
180 1 2 1.0279914132477863e+00 1.8124750693726927e+01 1.0000000000000000e+00 6.8772016618515996e+00 1.4199957683859916e+01 1.2275313149252547e+01 
111 1 2 1.0279914132477863e+00 1.8300028410231047e+01 1.0000000000000000e+00 6.8772016618515996e+00 1.4199957683859916e+01 1.2275313149252547e+01 
144 1 2 1.0279914132477863e+00 1.8115643972024607e+01 1.0000000000000000e+00 6.8772016618515996e+00 1.4199957683859916e+01 1.2275313149252547e+01 
174 1 2 1.0279914132477863e+00 1.7737922096080652e+01 1.0000000000000000e+00 6.8772016618515996e+00 1.4199957683859916e+01 1.2275313149252547e+01 
146 1 2 1.0279914132477863e+00 1.8435584429410778e+01 1.0000000000000000e+00 6.8772016618515996e+00 1.4199957683859916e+01 1.2275313149252547e+01 
73 1 2 1.0280073001554224e+00 1.8413057852459385e+01 1.0000000000000000e+00 8.2744417606832332e+00 1.4815810582171578e+01 1.3306681589891461e+01 
171 1 2 1.0280073001554224e+00 2.0118322882059193e+01 1.0000000000000000e+00 8.2744417606832332e+00 1.4815810582171578e+01 1.3306681589891461e+01 
79 1 2 1.0280073001554224e+00 1.6903793744680350e+01 1.0000000000000000e+00 8.2744417606832332e+00 1.4815810582171578e+01 1.3306681589891461e+01 
121 1 2 1.0280073001554224e+00 1.6927598562440515e+01 1.0000000000000000e+00 8.2744417606832084e+00 1.4815810582171581e+01 1.3306681589891488e+01 
37 1 2 1.0280073001554224e+00 1.8437950344914778e+01 1.0000000000000000e+00 8.2744417606832332e+00 1.4815810582171578e+01 1.3306681589891461e+01 
80 1 2 1.0280041149929180e+00 1.8889306583483599e+01 1.0000000000000000e+00 9.7595907428871111e+00 1.0050973785889440e+01 1.4175673755484922e+01 
8 1 2 1.0280041149929180e+00 1.6045818322590961e+01 1.0000000000000000e+00 9.7595907428871111e+00 1.0050973785889440e+01 1.4175673755484922e+01 
160 1 2 1.0280041149929180e+00 2.2419565828615525e+01 1.0000000000000000e+00 9.7595907428871111e+00 1.0050973785889440e+01 1.4175673755484922e+01 
107 1 2 1.0280041149929180e+00 1.7917524572643689e+01 1.0000000000000000e+00 9.7595907428871111e+00 1.0050973785889440e+01 1.4175673755484922e+01 
116 1 2 1.0280041149929180e+00 1.8361313904492224e+01 1.0000000000000000e+00 9.7595907428871111e+00 1.0050973785889440e+01 1.4175673755484922e+01 
86 1 2 1.0280041149929180e+00 1.8210131191364603e+01 1.0000000000000000e+00 9.7595907428871111e+00 1.0050973785889440e+01 1.4175673755484922e+01 
101 1 2 1.0279957223188732e+00 1.9025798986372774e+01 1.0000000000000000e+00 1.1463423089915054e+01 1.0589991450014889e+01 1.6599847797811986e+01 
71 1 2 1.0279957223188732e+00 1.8681356457591143e+01 1.0000000000000000e+00 1.1463423089915054e+01 1.0589991450014889e+01 1.6599847797811986e+01 
72 1 2 1.0279957223188732e+00 1.9182312435444864e+01 1.0000000000000000e+00 1.1463423089915054e+01 1.0589991450014889e+01 1.6599847797811986e+01 
65 1 2 1.0279957223188732e+00 1.9340877016870898e+01 1.0000000000000000e+00 1.1463423089915054e+01 1.0589991450014889e+01 1.6599847797811986e+01 
36 1 2 1.0279957223188732e+00 1.9137915549193913e+01 1.0000000000000000e+00 1.1463423089915054e+01 1.0589991450014889e+01 1.6599847797811986e+01 
42 1 2 1.0280045492429308e+00 1.9612936327582226e+01 1.0000000000000000e+00 9.9884415735621310e+00 1.0483692887570376e+01 1.8911422956424850e+01 
47 1 2 1.0280045492429308e+00 1.9716489182842615e+01 1.0000000000000000e+00 9.9884415735621310e+00 1.0483692887570376e+01 1.8911422956424850e+01 
64 1 2 1.0280045492429302e+00 2.0449700102517625e+01 1.0000000000000000e+00 9.9884415735621612e+00 1.0483692887570383e+01 1.8911422956424872e+01 
48 1 2 1.0280045492429308e+00 1.9689599715687695e+01 1.0000000000000000e+00 9.9884415735621310e+00 1.0483692887570376e+01 1.8911422956424850e+01 
41 1 2 1.0280045492429302e+00 1.9025818848153786e+01 1.0000000000000000e+00 9.9884415735621612e+00 1.0483692887570383e+01 1.8911422956424872e+01 
129 1 2 1.0279950456290201e+00 1.6801734756033767e+01 1.0000000000000000e+00 8.7042777143249594e+00 1.2192213127684388e+01 1.7642083425397111e+01 
134 1 2 1.0279950456290201e+00 1.6873909838538491e+01 1.0000000000000000e+00 8.7042777143249594e+00 1.2192213127684388e+01 1.7642083425397111e+01 
140 1 2 1.0279950456290201e+00 1.7695475705117602e+01 1.0000000000000000e+00 8.7042777143249594e+00 1.2192213127684388e+01 1.7642083425397111e+01 
14 1 2 1.0279950456290201e+00 1.6954033133028432e+01 1.0000000000000000e+00 8.7042777143249594e+00 1.2192213127684388e+01 1.7642083425397111e+01 
2 1 2 1.0279950456290201e+00 1.7632188409240008e+01 1.0000000000000000e+00 8.7042777143249594e+00 1.2192213127684388e+01 1.7642083425397111e+01 
109 1 2 1.0279950456290201e+00 1.7178908219842743e+01 1.0000000000000000e+00 8.7042777143249594e+00 1.2192213127684388e+01 1.7642083425397111e+01 
75 1 2 1.0279968773590384e+00 1.7796883783857773e+01 1.0000000000000000e+00 1.2034737057902491e+01 1.1977571969847244e+01 1.8824565458471689e+01 
89 1 2 1.0279968773590382e+00 2.1454753584733020e+01 1.0000000000000000e+00 1.2034737057900911e+01 1.1977571969846837e+01 1.8824565458472573e+01 
110 1 2 1.0279968773590384e+00 1.8528746453470809e+01 1.0000000000000000e+00 1.2034737057902491e+01 1.1977571969847244e+01 1.8824565458471689e+01 
94 1 2 1.0279968773590384e+00 2.1251590444803398e+01 1.0000000000000000e+00 1.2034737057900916e+01 1.1977571969846831e+01 1.8824565458472584e+01 
74 1 2 1.0279968773590384e+00 1.8238251599154879e+01 1.0000000000000000e+00 1.2034737057902491e+01 1.1977571969847244e+01 1.8824565458471689e+01 
12 1 2 1.0279988482325888e+00 2.2794416136721608e+01 1.0000000000000000e+00 7.7665618747449079e+00 1.4653413904041003e+01 1.8795913308265689e+01 
11 1 2 1.0279988482325888e+00 2.2932305304659891e+01 1.0000000000000000e+00 7.7665618747449079e+00 1.4653413904041003e+01 1.8795913308265689e+01 
6 1 2 1.0279988482325888e+00 2.2930976110933969e+01 1.0000000000000000e+00 7.7665618747449079e+00 1.4653413904041003e+01 1.8795913308265689e+01 
5 1 2 1.0279988482325888e+00 2.2350831252207577e+01 1.0000000000000000e+00 7.7665618747449079e+00 1.4653413904041003e+01 1.8795913308265689e+01 
124 1 2 1.0279988482293199e+00 2.3739822458777684e+01 1.0000000000000000e+00 7.7665618887942216e+00 1.4653413952461623e+01 1.8795913331215129e+01 
102 1 2 1.0279988482293194e+00 2.3576218508101313e+01 1.0000000000000000e+00 7.7665618887942136e+00 1.4653413952461630e+01 1.8795913331215143e+01 
30 1 2 1.0279999998333407e+00 1.7909131188132410e+01 1.0000000000000000e+00 1.5806216118601100e+01 3.4813981169285095e+00 3.2385822826494262e+00 
25 1 2 1.0279999998333407e+00 1.8175954963958173e+01 1.0000000000000000e+00 1.5806216118601100e+01 3.4813981169285095e+00 3.2385822826494262e+00 
138 1 2 1.0279999998333409e+00 2.1412044658746304e+01 1.0000000000000000e+00 1.5806216119904617e+01 3.4813981158387164e+00 3.2385822775293733e+00 
29 1 2 1.0279999998333407e+00 1.8093078035288460e+01 1.0000000000000000e+00 1.5806216118601100e+01 3.4813981169285095e+00 3.2385822826494262e+00 
19 1 2 1.0279999998333407e+00 1.8115162452036586e+01 1.0000000000000000e+00 1.5806216118601100e+01 3.4813981169285095e+00 3.2385822826494262e+00 
24 1 2 1.0279999998333407e+00 1.8483208391588960e+01 1.0000000000000000e+00 1.5806216118601100e+01 3.4813981169285095e+00 3.2385822826494262e+00 
176 1 2 1.0280000001072136e+00 2.1122567692154746e+01 1.0000000000000000e+00 1.7462764130886193e+01 3.9061706874408868e+00 3.0973896460398403e-01 
178 1 2 1.0280000001072136e+00 1.9387433419382987e+01 1.0000000000000000e+00 1.7462764130886193e+01 3.9061706874408868e+00 3.0973896460398403e-01 
175 1 2 1.0280000001072136e+00 2.0658922814749907e+01 1.0000000000000000e+00 1.7462764130886193e+01 3.9061706874408868e+00 3.0973896460398403e-01 
177 1 2 1.0280000001072136e+00 1.8800462140614819e+01 1.0000000000000000e+00 1.7462764130886193e+01 3.9061706874408868e+00 3.0973896460398403e-01 
112 1 2 1.0280000001072136e+00 1.9965246214101839e+01 1.0000000000000000e+00 1.7462764130886193e+01 3.9061706874408868e+00 3.0973896460398403e-01 
113 1 2 1.0280000001072136e+00 2.0350964112951480e+01 1.0000000000000000e+00 1.7462764130886193e+01 3.9061706874408868e+00 3.0973896460398403e-01 
151 1 2 1.0280000003140841e+00 1.9053539088430785e+01 1.0000000000000000e+00 1.9876416562915875e+01 2.6440277357758206e+00 6.0355977104310705e+00 
145 1 2 1.0280000003140841e+00 2.0558358147916994e+01 1.0000000000000000e+00 1.9876416562915875e+01 2.6440277357758206e+00 6.0355977104310705e+00 
20 1 2 1.0280000003140841e+00 1.8634390352945260e+01 1.0000000000000000e+00 1.9876416562915875e+01 2.6440277357758206e+00 6.0355977104310705e+00 
105 1 2 1.0280000003140841e+00 1.9363850323532720e+01 1.0000000000000000e+00 1.9876416562915875e+01 2.6440277357758206e+00 6.0355977104310705e+00 
76 1 2 1.0280000003140841e+00 1.8252604389107507e+01 1.0000000000000000e+00 1.9876416562915875e+01 2.6440277357758206e+00 6.0355977104310705e+00 
131 1 2 1.0279999997375859e+00 2.1703801340270694e+01 1.0000000000000000e+00 1.9829923830203423e+01 2.8603564305353162e+00 3.8369770320786012e+00 
123 1 2 1.0279999997375859e+00 1.9064053245792895e+01 1.0000000000000000e+00 1.9829923830203423e+01 2.8603564305353162e+00 3.8369770320786012e+00 
164 1 2 1.0279999997375859e+00 1.8435232165571083e+01 1.0000000000000000e+00 1.9829923830203423e+01 2.8603564305353162e+00 3.8369770320786012e+00 
122 1 2 1.0279999997375859e+00 1.9029343552996160e+01 1.0000000000000000e+00 1.9829923830203423e+01 2.8603564305353162e+00 3.8369770320786012e+00 
128 1 2 1.0279999997375859e+00 1.8894882188840537e+01 1.0000000000000000e+00 1.9829923830203423e+01 2.8603564305353162e+00 3.8369770320786012e+00 
120 1 2 1.0280000001641487e+00 2.3826717029511229e+01 1.0000000000000000e+00 1.7351532412940088e+01 5.1195777666820534e+00 3.5576237456884683e+00 
114 1 2 1.0280000001641487e+00 2.4272349028296514e+01 1.0000000000000000e+00 1.7351532412940088e+01 5.1195777666820534e+00 3.5576237456884683e+00 
150 1 2 1.0280000001641487e+00 2.3073630663238784e+01 1.0000000000000000e+00 1.7351532412940088e+01 5.1195777666820534e+00 3.5576237456884683e+00 
142 1 2 1.0279999998213465e+00 1.9332522998536422e+01 1.0000000000000000e+00 1.8580606479852037e+01 4.5531275101842681e+00 5.5943078961104824e+00 
169 1 2 1.0279999998213465e+00 2.1591124569472122e+01 1.0000000000000000e+00 1.8580606479852037e+01 4.5531275101842681e+00 5.5943078961104824e+00 
57 1 2 1.0279999998213465e+00 2.0095657428739887e+01 1.0000000000000000e+00 1.8580606479852037e+01 4.5531275101842681e+00 5.5943078961104824e+00 
70 1 2 1.0279999998213465e+00 2.0435998367325215e+01 1.0000000000000000e+00 1.8580606479852037e+01 4.5531275101842681e+00 5.5943078961104824e+00 
69 1 2 1.0279999998213465e+00 2.1289510969271102e+01 1.0000000000000000e+00 1.8580606479852037e+01 4.5531275101842681e+00 5.5943078961104824e+00 
56 1 2 1.0280000001641487e+00 2.3793505929472580e+01 1.0000000000000000e+00 1.7351532412940088e+01 5.1195777666820534e+00 3.5576237456884683e+00 
149 1 2 1.0280000001641487e+00 2.4042060308955225e+01 1.0000000000000000e+00 1.7351532412940088e+01 5.1195777666820534e+00 3.5576237456884683e+00 
50 1 2 1.0279999997216447e+00 1.9248422210170158e+01 1.0000000000000000e+00 1.7987803941447368e+01 2.8519950633467678e-01 1.5629902396897734e+01 
95 1 2 1.0279999997216447e+00 1.7575634771610652e+01 1.0000000000000000e+00 1.7987803941447368e+01 2.8519950633467678e-01 1.5629902396897734e+01 
51 1 2 1.0279999997216447e+00 1.8166089634502399e+01 1.0000000000000000e+00 1.7987803941447368e+01 2.8519950633467678e-01 1.5629902396897734e+01 
161 1 2 1.0279999997216447e+00 1.9046504071267677e+01 1.0000000000000000e+00 1.7987803941447368e+01 2.8519950633467678e-01 1.5629902396897734e+01 
125 1 2 1.0279999997216447e+00 1.9456599745527615e+01 1.0000000000000000e+00 1.7987803941447368e+01 2.8519950633467678e-01 1.5629902396897734e+01 
32 1 2 1.0280000003398981e+00 3.0430871303247876e+01 1.0000000000000000e+00 1.7105099249644734e+01 1.4337808766832671e+00 1.6770672339431464e+01 
67 1 2 1.0280000003398981e+00 3.1377821040877890e+01 1.0000000000000000e+00 1.7105099249644734e+01 1.4337808766832671e+00 1.6770672339431464e+01 
85 1 2 1.0280000003398981e+00 2.1567382967159467e+01 1.0000000000000000e+00 1.7105099249644734e+01 1.4337808766832671e+00 1.6770672339431464e+01 
31 1 2 1.0280000003398981e+00 3.0619811020032671e+01 1.0000000000000000e+00 1.7105099249644734e+01 1.4337808766832671e+00 1.6770672339431464e+01 
68 1 2 1.0280000003398981e+00 3.0748427198258803e+01 1.0000000000000000e+00 1.7105099249644734e+01 1.4337808766832671e+00 1.6770672339431464e+01 
28 1 2 1.0279999998908083e+00 1.5641662238318357e+01 1.0000000000000000e+00 1.9482534047728958e+01 1.1919572119469350e+00 1.9003374904938322e+01 
21 1 2 1.0279999998908083e+00 1.5645901961211731e+01 1.0000000000000000e+00 1.9482534047728958e+01 1.1919572119469350e+00 1.9003374904938322e+01 
35 1 2 1.0279999998908083e+00 1.5475613400484292e+01 1.0000000000000000e+00 1.9482534047728958e+01 1.1919572119469350e+00 1.9003374904938322e+01 
81 1 2 1.0279999998908083e+00 1.8156787750978193e+01 1.0000000000000000e+00 1.9482534047728958e+01 1.1919572119469350e+00 1.9003374904938322e+01 
34 1 2 1.0279999998908083e+00 1.5319554758454899e+01 1.0000000000000000e+00 1.9482534047728958e+01 1.1919572119469350e+00 1.9003374904938322e+01 
168 1 2 1.0279999997847902e+00 1.8442004343005419e+01 1.0000000000000000e+00 1.9579828673930585e+01 3.9233259063183112e+00 1.9441424417044807e+01 
127 1 2 1.0279999997847902e+00 1.8551400386260113e+01 1.0000000000000000e+00 1.9579828673930585e+01 3.9233259063183112e+00 1.9441424417044807e+01 
132 1 2 1.0279999997847902e+00 1.8544069100659065e+01 1.0000000000000000e+00 1.9579828673930585e+01 3.9233259063183112e+00 1.9441424417044807e+01 
53 1 2 1.0279999997847902e+00 1.9469995071363339e+01 1.0000000000000000e+00 1.9579828673930585e+01 3.9233259063183112e+00 1.9441424417044807e+01 
88 1 2 1.0279999997847902e+00 1.9665326922545152e+01 1.0000000000000000e+00 1.9579828673930585e+01 3.9233259063183112e+00 1.9441424417044807e+01 
3 1 2 1.0279993202707938e+00 1.6140088824599864e+01 1.0000000000000000e+00 1.3959946494127390e+01 1.0664020072067327e+01 1.8444982786776144e+01 
52 1 2 1.0279993202707938e+00 1.7936616486828914e+01 1.0000000000000000e+00 1.3959946494127390e+01 1.0664020072067327e+01 1.8444982786776144e+01 
10 1 2 1.0279993202707938e+00 1.7415703539557370e+01 1.0000000000000000e+00 1.3959946494127390e+01 1.0664020072067327e+01 1.8444982786776144e+01 
15 1 2 1.0279993202707938e+00 1.6396606666643944e+01 1.0000000000000000e+00 1.3959946494127390e+01 1.0664020072067327e+01 1.8444982786776144e+01 
9 1 2 1.0279993202707938e+00 1.6026842378537474e+01 1.0000000000000000e+00 1.3959946494127390e+01 1.0664020072067327e+01 1.8444982786776144e+01 
162 1 2 1.0279999999958271e+00 1.9064076695049366e+01 1.0000000000000000e+00 1.8423576793945625e+01 1.8051937844681223e+01 1.7724708761573922e+01 
156 1 2 1.0279999999958278e+00 1.8912665767522554e+01 1.0000000000000000e+00 1.8423576793945621e+01 1.8051937844681245e+01 1.7724708761573890e+01 
155 1 2 1.0279999999958278e+00 1.8880581342107650e+01 1.0000000000000000e+00 1.8423576793945642e+01 1.8051937844681230e+01 1.7724708761573918e+01 
63 1 2 1.0279999999958271e+00 1.8092742506527163e+01 1.0000000000000000e+00 1.8423575447871279e+01 1.8051937260871227e+01 1.7724709470592405e+01 
130 1 2 1.0279999999958283e+00 1.9107351808376983e+01 1.0000000000000000e+00 1.8423575447871297e+01 1.8051937260871224e+01 1.7724709470592416e+01 
167 1 2 1.0279999999958274e+00 1.8792666233153561e+01 1.0000000000000000e+00 1.8423575447871055e+01 1.8051937260871078e+01 1.7724709470592614e+01 
33 1 2 1.0279999998195180e+00 2.9855127725517942e+01 1.0000000000000000e+00 1.8452756399203349e+01 1.9414686177240263e+01 1.9596644726202651e+01 
27 1 2 1.0279999998195180e+00 3.0047732730273591e+01 1.0000000000000000e+00 1.8452756399203349e+01 1.9414686177240263e+01 1.9596644726202651e+01 
26 1 2 1.0279999998195180e+00 2.9989647770786942e+01 1.0000000000000000e+00 1.8452756399203349e+01 1.9414686177240263e+01 1.9596644726202651e+01 
45 1 2 1.0280000002733449e+00 2.3972539624559673e+01 1.0000000000000000e+00 1.7822719759549809e+01 1.9872071417085834e+01 1.9109565065975598e+01 
46 1 2 1.0280000002733449e+00 2.4007476623276460e+01 1.0000000000000000e+00 1.7822719759549809e+01 1.9872071417085834e+01 1.9109565065975598e+01 

Velocities

92 8.8064342831319989e-03 -3.3192376637416138e-01 -1.8714775048586796e-01
55 8.8064342831319989e-03 -3.3192376637416138e-01 -1.8714775048586796e-01
61 8.8064342831319989e-03 -3.3192376637416138e-01 -1.8714775048586796e-01
62 8.8064342831319989e-03 -3.3192376637416138e-01 -1.8714775048586796e-01
104 8.8064342831319989e-03 -3.3192376637416138e-01 -1.8714775048586796e-01
98 8.8064342831319989e-03 -3.3192376637416138e-01 -1.8714775048586796e-01
179 1.1993789656400361e-02 -3.2496950859106233e-01 -1.9071908578938959e-01
84 1.1993789656400361e-02 -3.2496950859106233e-01 -1.9071908578938959e-01
173 1.1993789656400361e-02 -3.2496950859106233e-01 -1.9071908578938959e-01
77 1.1993789656400361e-02 -3.2496950859106233e-01 -1.9071908578938959e-01
78 1.1993789656400361e-02 -3.2496950859106233e-01 -1.9071908578938959e-01
172 1.1993789656400361e-02 -3.2496950859106233e-01 -1.9071908578938959e-01
40 1.1994118873293118e-02 -3.2496812011069937e-01 -1.9071820353016827e-01
87 1.1994118873293118e-02 -3.2496812011069937e-01 -1.9071820353016827e-01
115 1.1994118873293118e-02 -3.2496812011069937e-01 -1.9071820353016827e-01
93 1.1994118873293118e-02 -3.2496812011069937e-01 -1.9071820353016827e-01
4 1.1994118873293118e-02 -3.2496812011069937e-01 -1.9071820353016827e-01
22 1.1565193037516248e-02 -3.2596781663739893e-01 -1.8927235055242692e-01
18 1.1565193037516328e-02 -3.2596781663739888e-01 -1.8927235055242689e-01
16 1.1565193037516245e-02 -3.2596781663739899e-01 -1.8927235055242689e-01
23 1.1565193037516248e-02 -3.2596781663739893e-01 -1.8927235055242692e-01
17 1.1565193037516245e-02 -3.2596781663739893e-01 -1.8927235055242692e-01
54 1.1565193037516255e-02 -3.2596781663739893e-01 -1.8927235055242692e-01
103 1.1988296410593053e-02 -3.2496163269305040e-01 -1.9070959136762322e-01
133 1.1988296410593053e-02 -3.2496163269305040e-01 -1.9070959136762322e-01
91 1.1988296410593053e-02 -3.2496163269305040e-01 -1.9070959136762322e-01
147 1.1988296410593053e-02 -3.2496163269305040e-01 -1.9070959136762322e-01
139 1.1988296410593053e-02 -3.2496163269305040e-01 -1.9070959136762322e-01
97 1.1988296410593053e-02 -3.2496163269305040e-01 -1.9070959136762322e-01
165 1.1994568076245788e-02 -3.2496129926926826e-01 -1.9071377768144285e-01
96 1.1994568076245788e-02 -3.2496129926926826e-01 -1.9071377768144285e-01
59 1.1994568076245788e-02 -3.2496129926926826e-01 -1.9071377768144285e-01
60 1.1994568076245788e-02 -3.2496129926926826e-01 -1.9071377768144285e-01
39 1.1565193037780617e-02 -3.2596781663631713e-01 -1.8927235055368857e-01
38 1.1565193037780617e-02 -3.2596781663631713e-01 -1.8927235055368857e-01
66 1.1565193037780617e-02 -3.2596781663631713e-01 -1.8927235055368857e-01
170 1.1565193037780617e-02 -3.2596781663631713e-01 -1.8927235055368857e-01
44 1.1565193037780617e-02 -3.2596781663631713e-01 -1.8927235055368857e-01
159 1.1565193037780617e-02 -3.2596781663631713e-01 -1.8927235055368857e-01
166 1.2049269406837978e-02 -3.2485498617746056e-01 -1.9072551345796276e-01
126 1.2049269406837978e-02 -3.2485498617746056e-01 -1.9072551345796276e-01
119 1.2049269406837978e-02 -3.2485498617746056e-01 -1.9072551345796276e-01
90 1.2049269406837978e-02 -3.2485498617746056e-01 -1.9072551345796276e-01
83 1.2049269406837978e-02 -3.2485498617746056e-01 -1.9072551345796276e-01