LAMMPS data file via write_data, version 30 Jul 2016, timestep = 50000000

180 atoms
2 atom types

0.0000000000000000e+00 2.0000000000000000e+01 xlo xhi
0.0000000000000000e+00 2.0000000000000000e+01 ylo yhi
0.0000000000000000e+00 2.0000000000000000e+01 zlo zhi

Masses

1 3.896
2 4.31

Atoms # meso-molecular

133 1 2 1.0279980562193267e+00 2.3232304690155324e+01 1.0000000000000000e+00 4.9445010340126272e+00 8.7069248156528509e+00 3.6824216808659624e+00 
91 1 2 1.0279980562193267e+00 2.3252536726409453e+01 1.0000000000000000e+00 4.9445010340126272e+00 8.7069248156528509e+00 3.6824216808659624e+00 
147 1 2 1.0279980562193267e+00 2.2020146873039661e+01 1.0000000000000000e+00 4.9445010340126272e+00 8.7069248156528509e+00 3.6824216808659624e+00 
139 1 2 1.0279980562193267e+00 2.3673149021650808e+01 1.0000000000000000e+00 4.9445010340126272e+00 8.7069248156528509e+00 3.6824216808659624e+00 
97 1 2 1.0279980562193267e+00 2.2732185199127784e+01 1.0000000000000000e+00 4.9445010340126272e+00 8.7069248156528509e+00 3.6824216808659624e+00 
103 1 2 1.0279980562193267e+00 2.3185823473970956e+01 1.0000000000000000e+00 4.9445010340126272e+00 8.7069248156528509e+00 3.6824216808659624e+00 
165 1 2 1.0280014353246136e+00 1.9796670899719651e+01 1.0000000000000000e+00 5.9816710810839311e+00 9.5023562990718826e+00 5.3391340153506279e+00 
60 1 2 1.0280014353246136e+00 1.9489218069209294e+01 1.0000000000000000e+00 5.9816710810839311e+00 9.5023562990718826e+00 5.3391340153506279e+00 
59 1 2 1.0280014353246136e+00 1.9491579028710781e+01 1.0000000000000000e+00 5.9816710810839311e+00 9.5023562990718826e+00 5.3391340153506279e+00 
96 1 2 1.0280014353246136e+00 1.9119382330568893e+01 1.0000000000000000e+00 5.9816710810839311e+00 9.5023562990718826e+00 5.3391340153506279e+00 
40 1 2 1.0279964913621229e+00 1.8143454958965009e+01 1.0000000000000000e+00 5.5724894125913957e+00 9.5910128040763212e+00 7.8326723690215703e+00 
87 1 2 1.0279964913621229e+00 1.8599136001444258e+01 1.0000000000000000e+00 5.5724894125913957e+00 9.5910128040763212e+00 7.8326723690215703e+00 
115 1 2 1.0279964913621229e+00 1.8714422757054702e+01 1.0000000000000000e+00 5.5724894125913957e+00 9.5910128040763212e+00 7.8326723690215703e+00 
93 1 2 1.0279964913621229e+00 1.8463098575840476e+01 1.0000000000000000e+00 5.5724894125913957e+00 9.5910128040763212e+00 7.8326723690215703e+00 
4 1 2 1.0279964913621229e+00 1.8199876553664030e+01 1.0000000000000000e+00 5.5724894125913957e+00 9.5910128040763212e+00 7.8326723690215703e+00 
179 1 2 1.0280012431625325e+00 2.2706874754951208e+01 1.0000000000000000e+00 3.5642980244115203e+00 9.3832908125245567e+00 8.8330278969560894e+00 
84 1 2 1.0280012431625325e+00 2.1084843661012783e+01 1.0000000000000000e+00 3.5642980244115203e+00 9.3832908125245567e+00 8.8330278969560894e+00 
173 1 2 1.0280012431625325e+00 2.2704042483606152e+01 1.0000000000000000e+00 3.5642980244115203e+00 9.3832908125245567e+00 8.8330278969560894e+00 
77 1 2 1.0280012431625325e+00 2.1062291197762903e+01 1.0000000000000000e+00 3.5642980244115203e+00 9.3832908125245567e+00 8.8330278969560894e+00 
78 1 2 1.0280012431625325e+00 2.1232735951245168e+01 1.0000000000000000e+00 3.5642980244115203e+00 9.3832908125245567e+00 8.8330278969560894e+00 
172 1 2 1.0280012431625325e+00 2.2733372562649329e+01 1.0000000000000000e+00 3.5642980244115203e+00 9.3832908125245567e+00 8.8330278969560894e+00 
180 1 2 1.0279894782760925e+00 1.8124750692072297e+01 1.0000000000000000e+00 6.3899854336786595e+00 7.2060000702859721e+00 1.9906416407989877e+01 
146 1 2 1.0279894782760925e+00 1.8435584427756147e+01 1.0000000000000000e+00 6.3899854336786595e+00 7.2060000702859721e+00 1.9906416407989877e+01 
174 1 2 1.0279894782760925e+00 1.7737922094426022e+01 1.0000000000000000e+00 6.3899854336786595e+00 7.2060000702859721e+00 1.9906416407989877e+01 
144 1 2 1.0279894782760925e+00 1.8115643970369977e+01 1.0000000000000000e+00 6.3899854336786595e+00 7.2060000702859721e+00 1.9906416407989877e+01 
111 1 2 1.0279894782760925e+00 1.8300028408576416e+01 1.0000000000000000e+00 6.3899854336786595e+00 7.2060000702859721e+00 1.9906416407989877e+01 
92 1 2 1.0280000003432241e+00 2.2355724912182868e+01 1.0000000000000000e+00 3.9838732534400617e-01 1.5605487915152072e+01 8.8086598140023806e+00 
98 1 2 1.0280000003432241e+00 2.2044816159710912e+01 1.0000000000000000e+00 3.9838732534400617e-01 1.5605487915152072e+01 8.8086598140023806e+00 
104 1 2 1.0280000003432241e+00 2.3090400330693416e+01 1.0000000000000000e+00 3.9838732534400617e-01 1.5605487915152072e+01 8.8086598140023806e+00 
62 1 2 1.0280000003432241e+00 2.2332222078108416e+01 1.0000000000000000e+00 3.9838732534400617e-01 1.5605487915152072e+01 8.8086598140023806e+00 
61 1 2 1.0280000003432241e+00 2.2099966676225794e+01 1.0000000000000000e+00 3.9838732534400617e-01 1.5605487915152072e+01 8.8086598140023806e+00 
55 1 2 1.0280000003432241e+00 2.1989691124938364e+01 1.0000000000000000e+00 3.9838732534400617e-01 1.5605487915152072e+01 8.8086598140023806e+00 
16 1 2 1.0279999999981801e+00 1.6453365305452689e+01 1.0000000000000000e+00 4.7438386081592352e+00 1.2334284211691898e+01 1.2344080616708222e+01 
18 1 2 1.0279999999981801e+00 1.6699549833426698e+01 1.0000000000000000e+00 4.7438386081592343e+00 1.2334284211692131e+01 1.2344080616706993e+01 
23 1 2 1.0279999999981806e+00 1.6609955934854746e+01 1.0000000000000000e+00 4.7438386081594004e+00 1.2334284211692506e+01 1.2344080616704115e+01 
17 1 2 1.0279999999981806e+00 1.6292973593786748e+01 1.0000000000000000e+00 4.7438386081593027e+00 1.2334284211691838e+01 1.2344080616708176e+01 
54 1 2 1.0279999999981806e+00 1.7355185536220688e+01 1.0000000000000000e+00 4.7438386081272723e+00 1.2334284211676241e+01 1.2344080616965872e+01 
22 1 2 1.0279999999981806e+00 1.6597768031651206e+01 1.0000000000000000e+00 4.7438386081594004e+00 1.2334284211692506e+01 1.2344080616704115e+01 
170 1 2 1.0279999999981806e+00 1.6561805601010956e+01 1.0000000000000000e+00 6.4274632650458301e+00 1.3957330379243379e+01 1.2651577103979008e+01 
44 1 2 1.0279999999981806e+00 1.7934883167111455e+01 1.0000000000000000e+00 6.4274632650458301e+00 1.3957330379243379e+01 1.2651577103979008e+01 
159 1 2 1.0279999999981806e+00 1.7566311674266849e+01 1.0000000000000000e+00 6.4274632650458301e+00 1.3957330379243379e+01 1.2651577103979008e+01 
39 1 2 1.0279999999981806e+00 1.7821427457105909e+01 1.0000000000000000e+00 6.4274632650458301e+00 1.3957330379243379e+01 1.2651577103979008e+01 
38 1 2 1.0279999999981804e+00 1.7837562739173613e+01 1.0000000000000000e+00 6.4274632650458274e+00 1.3957330379243382e+01 1.2651577103979008e+01 
66 1 2 1.0279999999981806e+00 1.8586071490602109e+01 1.0000000000000000e+00 6.4274632650458301e+00 1.3957330379243379e+01 1.2651577103979008e+01 
80 1 2 1.0280050855567839e+00 1.8889306515612166e+01 1.0000000000000000e+00 9.2726390545228288e+00 3.0561609802157399e+00 1.8061545337559592e+00 
8 1 2 1.0280050855567839e+00 1.6045818254719528e+01 1.0000000000000000e+00 9.2726390545228288e+00 3.0561609802157399e+00 1.8061545337559592e+00 
160 1 2 1.0280050855567839e+00 2.2419565760744092e+01 1.0000000000000000e+00 9.2726390545228288e+00 3.0561609802157399e+00 1.8061545337559592e+00 
107 1 2 1.0280050855567839e+00 1.7917524504772256e+01 1.0000000000000000e+00 9.2726390545228288e+00 3.0561609802157399e+00 1.8061545337559592e+00 
116 1 2 1.0280050855567839e+00 1.8361313836620791e+01 1.0000000000000000e+00 9.2726390545228288e+00 3.0561609802157399e+00 1.8061545337559592e+00 
86 1 2 1.0280050855567839e+00 1.8210131123493170e+01 1.0000000000000000e+00 9.2726390545228288e+00 3.0561609802157399e+00 1.8061545337559592e+00 
154 1 2 1.0280138822051492e+00 2.0476673082987759e+01 1.0000000000000000e+00 8.2629817603932860e+00 4.8995037368259711e+00 6.6361837054410955e-01 
148 1 2 1.0280138822051492e+00 2.0702992167301971e+01 1.0000000000000000e+00 8.2629817603932860e+00 4.8995037368259711e+00 6.6361837054410955e-01 
108 1 2 1.0280138822051492e+00 2.3812031115122487e+01 1.0000000000000000e+00 8.2629817603932825e+00 4.8995037368259498e+00 6.6361837054412331e-01 
135 1 2 1.0280138822051492e+00 2.1312674740994172e+01 1.0000000000000000e+00 8.2629817603932825e+00 4.8995037368259498e+00 6.6361837054412331e-01 
79 1 2 1.0280090170213891e+00 1.6903793744680350e+01 1.0000000000000000e+00 7.7874044965224183e+00 7.8215275178359756e+00 9.3778274973062126e-01 
171 1 2 1.0280090170213891e+00 2.0118322882059193e+01 1.0000000000000000e+00 7.7874044965224183e+00 7.8215275178359756e+00 9.3778274973062126e-01 
121 1 2 1.0280090170213891e+00 1.6927598562440515e+01 1.0000000000000000e+00 7.7874044965223925e+00 7.8215275178359756e+00 9.3778274973065301e-01 
37 1 2 1.0280090170213891e+00 1.8437950344914778e+01 1.0000000000000000e+00 7.7874044965224183e+00 7.8215275178359756e+00 9.3778274973062126e-01 
73 1 2 1.0280090170213891e+00 1.8413057852459385e+01 1.0000000000000000e+00 7.7874044965224183e+00 7.8215275178359756e+00 9.3778274973062126e-01 
166 1 2 1.0280102293677937e+00 2.3853213500998358e+01 1.0000000000000000e+00 7.8602903407537266e+00 6.9212029849853485e-01 5.9106384640095193e+00 
126 1 2 1.0280102293677937e+00 2.2263279494853180e+01 1.0000000000000000e+00 7.8602903407537266e+00 6.9212029849853485e-01 5.9106384640095193e+00 
119 1 2 1.0280102293677937e+00 2.1910241789412161e+01 1.0000000000000000e+00 7.8602903407537266e+00 6.9212029849853485e-01 5.9106384640095193e+00 
90 1 2 1.0280102293677937e+00 2.2371583441461009e+01 1.0000000000000000e+00 7.8602903407537266e+00 6.9212029849853485e-01 5.9106384640095193e+00 
83 1 2 1.0280102293677937e+00 2.1476089276641861e+01 1.0000000000000000e+00 7.8602903407537266e+00 6.9212029849853485e-01 5.9106384640095193e+00 
82 1 2 1.0280102293677937e+00 2.1676436514926184e+01 1.0000000000000000e+00 7.8602903407537266e+00 6.9212029849853485e-01 5.9106384640095193e+00 
49 1 2 1.0280052467490304e+00 1.8093293036534863e+01 1.0000000000000000e+00 1.2112335528062378e+01 1.9331351490952124e+00 5.5313526150909524e+00 
43 1 2 1.0280052467490304e+00 1.7300495639156615e+01 1.0000000000000000e+00 1.2112335528062378e+01 1.9331351490952124e+00 5.5313526150909524e+00 
13 1 2 1.0280052467490304e+00 1.8208231618035605e+01 1.0000000000000000e+00 1.2112335528062378e+01 1.9331351490952124e+00 5.5313526150909524e+00 
7 1 2 1.0280052467490304e+00 1.7565766020315039e+01 1.0000000000000000e+00 1.2112335528062378e+01 1.9331351490952124e+00 5.5313526150909524e+00 
1 1 2 1.0280052467490304e+00 1.7911391733884759e+01 1.0000000000000000e+00 1.2112335528062378e+01 1.9331351490952124e+00 5.5313526150909524e+00 
109 1 2 1.0279944822343487e+00 1.7178908203245395e+01 1.0000000000000000e+00 8.2217653472070733e+00 5.1889586447820628e+00 5.2713762649929965e+00 
2 1 2 1.0279944822343487e+00 1.7632188392642661e+01 1.0000000000000000e+00 8.2217653472070733e+00 5.1889586447820628e+00 5.2713762649929965e+00 
14 1 2 1.0279944822343487e+00 1.6954033116431084e+01 1.0000000000000000e+00 8.2217653472070733e+00 5.1889586447820628e+00 5.2713762649929965e+00 
140 1 2 1.0279944822343487e+00 1.7695475688520254e+01 1.0000000000000000e+00 8.2217653472070733e+00 5.1889586447820628e+00 5.2713762649929965e+00 
134 1 2 1.0279944822343487e+00 1.6873909821941144e+01 1.0000000000000000e+00 8.2217653472070733e+00 5.1889586447820628e+00 5.2713762649929965e+00 
129 1 2 1.0279944822343487e+00 1.6801734739436419e+01 1.0000000000000000e+00 8.2217653472070733e+00 5.1889586447820628e+00 5.2713762649929965e+00 
42 1 2 1.0280065577126813e+00 1.9612936302571562e+01 1.0000000000000000e+00 9.5052719135303025e+00 3.4799570225312593e+00 6.5409745595529465e+00 
41 1 2 1.0280065577126813e+00 1.9025818823143123e+01 1.0000000000000000e+00 9.5052719135303310e+00 3.4799570225312682e+00 6.5409745595529660e+00 
48 1 2 1.0280065577126813e+00 1.9689599690677031e+01 1.0000000000000000e+00 9.5052719135303025e+00 3.4799570225312593e+00 6.5409745595529465e+00 
64 1 2 1.0280065577126813e+00 2.0449700077506961e+01 1.0000000000000000e+00 9.5052719135303310e+00 3.4799570225312682e+00 6.5409745595529660e+00 
47 1 2 1.0280065577126813e+00 1.9716489157831951e+01 1.0000000000000000e+00 9.5052719135303025e+00 3.4799570225312593e+00 6.5409745595529465e+00 
101 1 2 1.0279946289521975e+00 1.9025798897644094e+01 1.0000000000000000e+00 1.0979166559835051e+01 3.5876870475613023e+00 4.2296509448994719e+00 
71 1 2 1.0279946289521975e+00 1.8681356368862463e+01 1.0000000000000000e+00 1.0979166559835051e+01 3.5876870475613023e+00 4.2296509448994719e+00 
72 1 2 1.0279946289521975e+00 1.9182312346716184e+01 1.0000000000000000e+00 1.0979166559835051e+01 3.5876870475613023e+00 4.2296509448994719e+00 
65 1 2 1.0279946289521975e+00 1.9340876928142219e+01 1.0000000000000000e+00 1.0979166559835051e+01 3.5876870475613023e+00 4.2296509448994719e+00 
36 1 2 1.0279946289521975e+00 1.9137915460465234e+01 1.0000000000000000e+00 1.0979166559835051e+01 3.5876870475613023e+00 4.2296509448994719e+00 
89 1 2 1.0279958431921661e+00 2.1454753578545446e+01 1.0000000000000000e+00 1.1550800579688964e+01 4.9745258919197877e+00 6.4549065914333070e+00 
75 1 2 1.0279958431921661e+00 1.7796883777670200e+01 1.0000000000000000e+00 1.1550800579690547e+01 4.9745258919201953e+00 6.4549065914324206e+00 
74 1 2 1.0279958431921661e+00 1.8238251592967305e+01 1.0000000000000000e+00 1.1550800579690547e+01 4.9745258919201953e+00 6.4549065914324206e+00 
94 1 2 1.0279958431921663e+00 2.1251590438615825e+01 1.0000000000000000e+00 1.1550800579688969e+01 4.9745258919197815e+00 6.4549065914333195e+00 
110 1 2 1.0279958431921661e+00 1.8528746447283236e+01 1.0000000000000000e+00 1.1550800579690547e+01 4.9745258919201953e+00 6.4549065914324206e+00 
102 1 2 1.0280003572915970e+00 2.3576218494339940e+01 1.0000000000000000e+00 7.2861457130488816e+00 7.6516435217082810e+00 6.4246705805136939e+00 
12 1 2 1.0280003572958563e+00 2.2794416122960236e+01 1.0000000000000000e+00 7.2861456989482800e+00 7.6516434732991367e+00 6.4246705575452117e+00 
11 1 2 1.0280003572958563e+00 2.2932305290898519e+01 1.0000000000000000e+00 7.2861456989482800e+00 7.6516434732991367e+00 6.4246705575452117e+00 
6 1 2 1.0280003572958563e+00 2.2930976097172596e+01 1.0000000000000000e+00 7.2861456989482800e+00 7.6516434732991367e+00 6.4246705575452117e+00 
5 1 2 1.0280003572958563e+00 2.2350831238446204e+01 1.0000000000000000e+00 7.2861456989482800e+00 7.6516434732991367e+00 6.4246705575452108e+00 
124 1 2 1.0280003572915974e+00 2.3739822445016312e+01 1.0000000000000000e+00 7.2861457130488914e+00 7.6516435217082792e+00 6.4246705805136797e+00 
158 1 2 1.0279911410929119e+00 1.7713900097562558e+01 1.0000000000000000e+00 9.6273420054780878e+00 2.7401535257472864e-01 7.4581301406031502e+00 
153 1 2 1.0279911410929119e+00 1.7637322594429410e+01 1.0000000000000000e+00 9.6273420054780878e+00 2.7401535257472864e-01 7.4581301406031502e+00 
163 1 2 1.0279911410929119e+00 1.8595025689502720e+01 1.0000000000000000e+00 9.6273420054780878e+00 2.7401535257472864e-01 7.4581301406031502e+00 
141 1 2 1.0279911410929119e+00 1.7072431996824861e+01 1.0000000000000000e+00 9.6273420054780878e+00 2.7401535257472864e-01 7.4581301406031502e+00 
152 1 2 1.0279911410929119e+00 1.8676039948748226e+01 1.0000000000000000e+00 9.6273420054780878e+00 2.7401535257472864e-01 7.4581301406031502e+00 
157 1 2 1.0279911410929119e+00 1.8425993155303289e+01 1.0000000000000000e+00 9.6273420054780878e+00 2.7401535257472864e-01 7.4581301406031502e+00 
100 1 2 1.0280057227500516e+00 1.8524127309357496e+01 1.0000000000000000e+00 7.8547298384341921e+00 5.0558896977704588e+00 1.7777209933206219e+01 
58 1 2 1.0280057227500516e+00 1.8253819153610493e+01 1.0000000000000000e+00 7.8547298384341921e+00 5.0558896977704588e+00 1.7777209933206219e+01 
99 1 2 1.0280057227500516e+00 1.8154869337551368e+01 1.0000000000000000e+00 7.8547298384341921e+00 5.0558896977704588e+00 1.7777209933206219e+01 
137 1 2 1.0280057227500516e+00 1.8474821310896719e+01 1.0000000000000000e+00 7.8547298384341921e+00 5.0558896977704588e+00 1.7777209933206219e+01 
118 1 2 1.0280057227500516e+00 1.8267217175020175e+01 1.0000000000000000e+00 7.8547298384341921e+00 5.0558896977704588e+00 1.7777209933206219e+01 
117 1 2 1.0280057227500516e+00 1.7893386176175966e+01 1.0000000000000000e+00 7.8547298384341921e+00 5.0558896977704588e+00 1.7777209933206219e+01 
143 1 2 1.0279841549222795e+00 2.3775535373523958e+01 1.0000000000000000e+00 8.9434648647427188e+00 4.2211248408226609e+00 1.9331657195839938e+01 
106 1 2 1.0279841549222795e+00 2.2474602909838833e+01 1.0000000000000000e+00 8.9434648647427188e+00 4.2211248408226609e+00 1.9331657195839938e+01 
136 1 2 1.0279841549222795e+00 2.2394999635513368e+01 1.0000000000000000e+00 8.9434648647427366e+00 4.2211248408226725e+00 1.9331657195839963e+01 
3 1 2 1.0279994987783314e+00 1.6140088824599864e+01 1.0000000000000000e+00 1.3476024354055124e+01 3.6606426042062745e+00 6.0752469042244952e+00 
9 1 2 1.0279994987783314e+00 1.6026842378537474e+01 1.0000000000000000e+00 1.3476024354055124e+01 3.6606426042062745e+00 6.0752469042244952e+00 
15 1 2 1.0279994987783314e+00 1.6396606666643944e+01 1.0000000000000000e+00 1.3476024354055124e+01 3.6606426042062745e+00 6.0752469042244952e+00 
10 1 2 1.0279994987783314e+00 1.7415703539557370e+01 1.0000000000000000e+00 1.3476024354055124e+01 3.6606426042062745e+00 6.0752469042244952e+00 
52 1 2 1.0279994987783314e+00 1.7936616486828914e+01 1.0000000000000000e+00 1.3476024354055124e+01 3.6606426042062745e+00 6.0752469042244952e+00 
50 1 2 1.0279999996089626e+00 1.9248422210170158e+01 1.0000000000000000e+00 1.7635546417295952e+01 1.3562150271120272e+01 3.1158123535193880e+00 
125 1 2 1.0279999996089626e+00 1.9456599745527615e+01 1.0000000000000000e+00 1.7635546417295952e+01 1.3562150271120272e+01 3.1158123535193880e+00 
161 1 2 1.0279999996089626e+00 1.9046504071267677e+01 1.0000000000000000e+00 1.7635546417295952e+01 1.3562150271120272e+01 3.1158123535193880e+00 
51 1 2 1.0279999996089626e+00 1.8166089634502399e+01 1.0000000000000000e+00 1.7635546417295952e+01 1.3562150271120272e+01 3.1158123535193880e+00 
95 1 2 1.0279999996089626e+00 1.7575634771610652e+01 1.0000000000000000e+00 1.7635546417295952e+01 1.3562150271120272e+01 3.1158123535193880e+00 
162 1 2 1.0279999999964005e+00 1.9064076695049366e+01 1.0000000000000000e+00 1.8071319287135825e+01 1.1328888551978640e+01 5.2106187256412317e+00 
156 1 2 1.0279999999964005e+00 1.8912665767522554e+01 1.0000000000000000e+00 1.8071319287135822e+01 1.1328888551978656e+01 5.2106187256412042e+00 
155 1 2 1.0279999999964000e+00 1.8880581342107650e+01 1.0000000000000000e+00 1.8071319287135843e+01 1.1328888551978643e+01 5.2106187256412291e+00 
63 1 2 1.0279999999963980e+00 1.8092742506527163e+01 1.0000000000000000e+00 1.8071317941061480e+01 1.1328887968168617e+01 5.2106194346597077e+00 
130 1 2 1.0279999999963982e+00 1.9107351808376983e+01 1.0000000000000000e+00 1.8071317941061498e+01 1.1328887968168614e+01 5.2106194346597174e+00 
167 1 2 1.0279999999963989e+00 1.8792666233153561e+01 1.0000000000000000e+00 1.8071317941061256e+01 1.1328887968168468e+01 5.2106194346599182e+00 
46 1 2 1.0280000003666128e+00 2.4007476623276460e+01 1.0000000000000000e+00 1.7470462281061426e+01 1.3149022110267374e+01 6.5954750176538246e+00 
45 1 2 1.0280000003666128e+00 2.3972539624559673e+01 1.0000000000000000e+00 1.7470462281061426e+01 1.3149022110267374e+01 6.5954750176538246e+00 
68 1 2 1.0280000004753955e+00 3.0748427198258803e+01 1.0000000000000000e+00 1.6752841739367902e+01 1.4710731623789252e+01 4.2565823037575594e+00 
31 1 2 1.0280000004753955e+00 3.0619811020032671e+01 1.0000000000000000e+00 1.6752841739367902e+01 1.4710731623789252e+01 4.2565823037575594e+00 
85 1 2 1.0280000004753955e+00 2.1567382967159467e+01 1.0000000000000000e+00 1.6752841739367902e+01 1.4710731623789252e+01 4.2565823037575594e+00 
67 1 2 1.0280000004753955e+00 3.1377821040877890e+01 1.0000000000000000e+00 1.6752841739367902e+01 1.4710731623789252e+01 4.2565823037575594e+00 
32 1 2 1.0280000004753955e+00 3.0430871303247876e+01 1.0000000000000000e+00 1.6752841739367902e+01 1.4710731623789252e+01 4.2565823037575594e+00 
34 1 2 1.0279999998367455e+00 1.5319554758454899e+01 1.0000000000000000e+00 1.9130276610167879e+01 1.4468907869306495e+01 6.4892848731681605e+00 
81 1 2 1.0279999998367455e+00 1.8156787750978193e+01 1.0000000000000000e+00 1.9130276610167879e+01 1.4468907869306495e+01 6.4892848731681605e+00 
35 1 2 1.0279999998367455e+00 1.5475613400484292e+01 1.0000000000000000e+00 1.9130276610167879e+01 1.4468907869306495e+01 6.4892848731681605e+00 
21 1 2 1.0279999998367455e+00 1.5645901961211731e+01 1.0000000000000000e+00 1.9130276610167879e+01 1.4468907869306495e+01 6.4892848731681605e+00 
28 1 2 1.0279999998367455e+00 1.5641662238318357e+01 1.0000000000000000e+00 1.9130276610167879e+01 1.4468907869306495e+01 6.4892848731681605e+00 
26 1 2 1.0279999997350646e+00 2.9989647770786942e+01 1.0000000000000000e+00 1.8100498911286000e+01 1.2691636861265739e+01 7.0825546985434267e+00 
27 1 2 1.0279999997350646e+00 3.0047732730273591e+01 1.0000000000000000e+00 1.8100498911286000e+01 1.2691636861265739e+01 7.0825546985434267e+00 
33 1 2 1.0279999997350646e+00 2.9855127725517942e+01 1.0000000000000000e+00 1.8100498911286000e+01 1.2691636861265739e+01 7.0825546985434267e+00 
113 1 2 1.0280000001480096e+00 2.0350964112951480e+01 1.0000000000000000e+00 1.7110506762053983e+01 1.7183121282222459e+01 7.7956489733329075e+00 
112 1 2 1.0280000001480096e+00 1.9965246214101839e+01 1.0000000000000000e+00 1.7110506762053983e+01 1.7183121282222459e+01 7.7956489733329075e+00 
177 1 2 1.0280000001480096e+00 1.8800462140614819e+01 1.0000000000000000e+00 1.7110506762053983e+01 1.7183121282222459e+01 7.7956489733329075e+00 
175 1 2 1.0280000001480096e+00 2.0658922814749907e+01 1.0000000000000000e+00 1.7110506762053983e+01 1.7183121282222459e+01 7.7956489733329075e+00 
178 1 2 1.0280000001480096e+00 1.9387433419382987e+01 1.0000000000000000e+00 1.7110506762053983e+01 1.7183121282222459e+01 7.7956489733329075e+00 
176 1 2 1.0280000001480096e+00 2.1122567692154746e+01 1.0000000000000000e+00 1.7110506762053983e+01 1.7183121282222459e+01 7.7956489733329075e+00 
127 1 2 1.0279999997048741e+00 1.8551400386260113e+01 1.0000000000000000e+00 1.9227571302790899e+01 1.7200276527039971e+01 6.9273344078313110e+00 
168 1 2 1.0279999997048741e+00 1.8442004343005419e+01 1.0000000000000000e+00 1.9227571302790899e+01 1.7200276527039971e+01 6.9273344078313110e+00 
88 1 2 1.0279999997048741e+00 1.9665326922545152e+01 1.0000000000000000e+00 1.9227571302790899e+01 1.7200276527039971e+01 6.9273344078313110e+00 
53 1 2 1.0279999997048741e+00 1.9469995071363339e+01 1.0000000000000000e+00 1.9227571302790899e+01 1.7200276527039971e+01 6.9273344078313110e+00 
132 1 2 1.0279999997048741e+00 1.8544069100659065e+01 1.0000000000000000e+00 1.9227571302790899e+01 1.7200276527039971e+01 6.9273344078313110e+00 
122 1 2 1.0279999996339533e+00 1.9029343552996160e+01 1.0000000000000000e+00 1.9477666533879304e+01 1.6137306917121844e+01 1.1322887029459624e+01 
128 1 2 1.0279999996339533e+00 1.8894882188840537e+01 1.0000000000000000e+00 1.9477666533879304e+01 1.6137306917121844e+01 1.1322887029459624e+01 
164 1 2 1.0279999996339533e+00 1.8435232165571083e+01 1.0000000000000000e+00 1.9477666533879304e+01 1.6137306917121844e+01 1.1322887029459624e+01 
123 1 2 1.0279999996339533e+00 1.9064053245792895e+01 1.0000000000000000e+00 1.9477666533879304e+01 1.6137306917121844e+01 1.1322887029459624e+01 
131 1 2 1.0279999996339533e+00 2.1703801340270694e+01 1.0000000000000000e+00 1.9477666533879304e+01 1.6137306917121844e+01 1.1322887029459624e+01 
30 1 2 1.0279999997688625e+00 1.7909131188132410e+01 1.0000000000000000e+00 1.5453958828321531e+01 1.6758348587191605e+01 1.0724492311789813e+01 
25 1 2 1.0279999997688625e+00 1.8175954963958173e+01 1.0000000000000000e+00 1.5453958828321531e+01 1.6758348587191605e+01 1.0724492311789813e+01 
138 1 2 1.0279999997688622e+00 2.1412044658746304e+01 1.0000000000000000e+00 1.5453958829625048e+01 1.6758348586101810e+01 1.0724492306669760e+01 
29 1 2 1.0279999997688625e+00 1.8093078035288460e+01 1.0000000000000000e+00 1.5453958828321531e+01 1.6758348587191605e+01 1.0724492311789813e+01 
19 1 2 1.0279999997688625e+00 1.8115162452036586e+01 1.0000000000000000e+00 1.5453958828321531e+01 1.6758348587191605e+01 1.0724492311789813e+01 
24 1 2 1.0279999997688625e+00 1.8483208391588960e+01 1.0000000000000000e+00 1.5453958828321531e+01 1.6758348587191605e+01 1.0724492311789813e+01 
56 1 2 1.0280000002232408e+00 2.3793505929472580e+01 1.0000000000000000e+00 1.6999275123150067e+01 1.8396528238509145e+01 1.1043533770786130e+01 
149 1 2 1.0280000002232408e+00 2.4042060308955225e+01 1.0000000000000000e+00 1.6999275123150067e+01 1.8396528238509145e+01 1.1043533770786130e+01 
114 1 2 1.0280000002232408e+00 2.4272349028296514e+01 1.0000000000000000e+00 1.6999275123150067e+01 1.8396528238509145e+01 1.1043533770786130e+01 
150 1 2 1.0280000002232408e+00 2.3073630663238784e+01 1.0000000000000000e+00 1.6999275123150067e+01 1.8396528238509145e+01 1.1043533770786130e+01 
120 1 2 1.0280000002232408e+00 2.3826717029511229e+01 1.0000000000000000e+00 1.6999275123150067e+01 1.8396528238509145e+01 1.1043533770786130e+01 
69 1 2 1.0279999997549794e+00 2.1289510969271102e+01 1.0000000000000000e+00 1.8228349189803087e+01 1.7830077987550283e+01 1.3080217927759197e+01 
142 1 2 1.0279999997549794e+00 1.9332522998536422e+01 1.0000000000000000e+00 1.8228349189803087e+01 1.7830077987550283e+01 1.3080217927759197e+01 
169 1 2 1.0279999997549794e+00 2.1591124569472122e+01 1.0000000000000000e+00 1.8228349189803087e+01 1.7830077987550283e+01 1.3080217927759197e+01 
57 1 2 1.0279999997549794e+00 2.0095657428739887e+01 1.0000000000000000e+00 1.8228349189803087e+01 1.7830077987550283e+01 1.3080217927759197e+01 
70 1 2 1.0279999997549794e+00 2.0435998367325215e+01 1.0000000000000000e+00 1.8228349189803087e+01 1.7830077987550283e+01 1.3080217927759197e+01 
105 1 2 1.0280000004418217e+00 1.9363850323532720e+01 1.0000000000000000e+00 1.9524159269530216e+01 1.5920978219633559e+01 1.3521507717509405e+01 
151 1 2 1.0280000004418217e+00 1.9053539088430785e+01 1.0000000000000000e+00 1.9524159269530216e+01 1.5920978219633559e+01 1.3521507717509405e+01 
145 1 2 1.0280000004418217e+00 2.0558358147916994e+01 1.0000000000000000e+00 1.9524159269530216e+01 1.5920978219633559e+01 1.3521507717509405e+01 
20 1 2 1.0280000004418217e+00 1.8634390352945260e+01 1.0000000000000000e+00 1.9524159269530216e+01 1.5920978219633559e+01 1.3521507717509405e+01 
76 1 2 1.0280000004418217e+00 1.8252604389107507e+01 1.0000000000000000e+00 1.9524159269530216e+01 1.5920978219633559e+01 1.3521507717509405e+01 

Velocities

133 1.1970071444400062e-02 -3.2496475424338817e-01 -1.9070155680192877e-01
91 1.1970071444400062e-02 -3.2496475424338817e-01 -1.9070155680192877e-01
147 1.1970071444400062e-02 -3.2496475424338817e-01 -1.9070155680192877e-01
139 1.1970071444400062e-02 -3.2496475424338817e-01 -1.9070155680192877e-01
97 1.1970071444400062e-02 -3.2496475424338817e-01 -1.9070155680192877e-01
103 1.1970071444400062e-02 -3.2496475424338817e-01 -1.9070155680192877e-01
165 1.1977486758578508e-02 -3.2496326194945607e-01 -1.9070703989556642e-01
60 1.1977486758578508e-02 -3.2496326194945607e-01 -1.9070703989556642e-01
59 1.1977486758578508e-02 -3.2496326194945607e-01 -1.9070703989556642e-01
96 1.1977486758578508e-02 -3.2496326194945607e-01 -1.9070703989556642e-01
40 1.1977567920073387e-02 -3.2497303732854610e-01 -1.9071240782643123e-01
87 1.1977567920073387e-02 -3.2497303732854610e-01 -1.9071240782643123e-01
115 1.1977567920073387e-02 -3.2497303732854610e-01 -1.9071240782643123e-01
93 1.1977567920073387e-02 -3.2497303732854610e-01 -1.9071240782643123e-01
4 1.1977567920073387e-02 -3.2497303732854610e-01 -1.9071240782643123e-01
179 1.1977651319338804e-02 -3.2497663171466523e-01 -1.9071283836903946e-01
84 1.1977651319338804e-02 -3.2497663171466523e-01 -1.9071283836903946e-01
173 1.1977651319338804e-02 -3.2497663171466523e-01 -1.9071283836903946e-01
77 1.1977651319338804e-02 -3.2497663171466523e-01 -1.9071283836903946e-01
78 1.1977651319338804e-02 -3.2497663171466523e-01 -1.9071283836903946e-01
172 1.1977651319338804e-02 -3.2497663171466523e-01 -1.9071283836903946e-01
180 1.2185219633048763e-02 -3.2516657129844878e-01 -1.9077701462723182e-01
146 1.2185219633048763e-02 -3.2516657129844878e-01 -1.9077701462723182e-01
174 1.2185219633048763e-02 -3.2516657129844878e-01 -1.9077701462723182e-01
144 1.2185219633048763e-02 -3.2516657129844878e-01 -1.9077701462723182e-01
111 1.2185219633048763e-02 -3.2516657129844878e-01 -1.9077701462723182e-01
92 8.8064340149734393e-03 -3.3192376237324372e-01 -1.8714774819524513e-01
98 8.8064340149734393e-03 -3.3192376237324372e-01 -1.8714774819524513e-01
104 8.8064340149734393e-03 -3.3192376237324372e-01 -1.8714774819524513e-01
62 8.8064340149734393e-03 -3.3192376237324372e-01 -1.8714774819524513e-01
61 8.8064340149734393e-03 -3.3192376237324372e-01 -1.8714774819524513e-01
55 8.8064340149734393e-03 -3.3192376237324372e-01 -1.8714774819524513e-01
16 1.1565192905335970e-02 -3.2596781283115356e-01 -1.8927234834421289e-01
18 1.1565192905336022e-02 -3.2596781283115356e-01 -1.8927234834421289e-01
23 1.1565192905335879e-02 -3.2596781283115372e-01 -1.8927234834421286e-01
17 1.1565192905335865e-02 -3.2596781283115372e-01 -1.8927234834421286e-01
54 1.1565192905335876e-02 -3.2596781283115372e-01 -1.8927234834421286e-01
22 1.1565192905335879e-02 -3.2596781283115372e-01 -1.8927234834421286e-01
170 1.1565192900103842e-02 -3.2596781283657172e-01 -1.8927234834550355e-01
44 1.1565192900103842e-02 -3.2596781283657172e-01 -1.8927234834550355e-01
159 1.1565192900103842e-02 -3.2596781283657172e-01 -1.8927234834550355e-01
39 1.1565192900103842e-02 -3.2596781283657172e-01 -1.8927234834550355e-01
38 1.1565192900103794e-02 -3.2596781283657184e-01 -1.8927234834550355e-01
66 1.1565192900103842e-02 -3.2596781283657172e-01 -1.8927234834550355e-01