LAMMPS data file via write_data, version 30 Jul 2016, timestep = 50000000

4620 atoms
8 atom types

0.0000000000000000e+00 1.0000000000000000e+02 xlo xhi
0.0000000000000000e+00 4.0000000000000000e+01 ylo yhi
0.0000000000000000e+00 4.0000000000000000e+01 zlo zhi

Masses

1 3.896
2 5.36
3 20.064
4 8.378
5 8.378
6 8.378
7 8.378
8 8.378

Atoms # meso-molecular

514 515 2 1.0280000000000007e+00 2.3283488978398111e+02 1.0000000000000000e+00 1.7621050287554525e+01 8.6846756131531198e+00 2.2076634663239032e+00 
671 672 2 1.0280000000000002e+00 -4.2611120828569085e+02 1.0000000000000000e+00 2.7769365140224235e+01 1.2712583383837190e+01 1.6942747373067437e+00 
1050 1051 2 1.0280000000000002e+00 -1.0889754641822005e+03 1.0000000000000000e+00 2.8689619091805127e+01 1.3038082639733977e+01 1.0988287561555323e+00 
976 977 2 1.0280000000000007e+00 -6.4410779163384632e+02 1.0000000000000000e+00 1.6697935493695674e+01 8.2580122576897246e+00 2.7303397293418303e+00 
635 636 2 1.0279999999999996e+00 4.2301169008323620e+02 1.0000000000000000e+00 1.3505555131373038e+01 4.8779460754313133e+00 5.0336115173011517e+00 
90 91 2 1.0279999999999996e+00 -1.3613179928831273e+03 1.0000000000000000e+00 1.2896459431455796e+01 5.8402367864267895e+00 5.1354546974011868e+00 
2356 2357 2 1.0280000000000007e+00 1.3317033004713676e+03 1.0000000000000000e+00 6.5627695597397091e+00 1.6893991744587375e+01 7.4443029623072254e+00 
3740 3741 2 1.0280000000000000e+00 -1.4641655312708502e+02 1.0000000000000000e+00 2.6224963526336722e+01 1.7636280024600218e+01 6.2188782349035279e+00 
3366 3367 2 1.0280000000000000e+00 -6.7354569038568542e+01 1.0000000000000000e+00 2.6759884017774979e+01 1.8586170222418275e+01 5.8739989844587290e+00 
3025 3026 2 1.0279999999999996e+00 -8.7952540762560830e+02 1.0000000000000000e+00 1.3285502310331780e+00 7.6002685814959214e-01 8.7455441682866333e+00 
2563 2564 2 1.0279999999999996e+00 -5.9852170820322522e+02 1.0000000000000000e+00 4.2024940407310263e-01 8.7763643641050459e-01 8.0610512082763233e+00 
4538 4539 2 1.0280000000000000e+00 -3.3102519823334774e+02 1.0000000000000000e+00 3.0244204899023192e+01 2.4841291894946829e+00 7.7541655160918248e+00 
4080 4081 2 1.0280000000000000e+00 -5.6267401390127361e+02 1.0000000000000000e+00 3.1204408987992689e+01 3.0614144234929372e+00 7.9824698822186635e+00 
3286 3287 2 1.0279999999999996e+00 -6.4305478450708574e+02 1.0000000000000000e+00 2.3873223486866681e+00 6.9204614423359718e+00 9.4315601639050470e+00 
3748 3749 2 1.0279999999999996e+00 2.3229690280173122e+02 1.0000000000000000e+00 2.6713845689151734e+00 6.9702767752001353e+00 8.3251243975321287e+00 
2982 2983 2 1.0279999999999994e+00 -8.7384853880551668e+02 1.0000000000000000e+00 2.9860980163337221e+01 1.1350938275000932e+01 9.1420977466043549e+00 
2520 2521 2 1.0279999999999994e+00 -5.9843565026075896e+02 1.0000000000000000e+00 3.1001893534218510e+01 1.1417046952927343e+01 9.1784204709771000e+00 
4332 4333 2 1.0280000000000007e+00 1.3381790674797853e+03 1.0000000000000000e+00 7.1312117623852336e+00 1.6430646149591499e+01 8.3215471354472701e+00 
4241 4242 2 1.0279999999999996e+00 -3.4971756009151477e+02 1.0000000000000000e+00 1.8990789981841608e+01 1.3482994344551347e+01 1.2416883040540490e+01 
1852 1853 2 1.0279999999999996e+00 -1.0650390897431139e+03 1.0000000000000000e+00 3.1248418421294694e+01 9.4706402766794895e+00 1.4221443362199633e+01 
83 84 2 1.0279999999999996e+00 -3.4911044698179921e+02 1.0000000000000000e+00 1.9621318914350933e+01 1.4386891360626676e+01 1.2721475336991848e+01 
1631 1632 2 1.0279999999999996e+00 2.4909251665575102e+03 1.0000000000000000e+00 1.7790412415478723e+01 3.3416157675104947e+00 1.5587384837149710e+01 
1630 1631 2 1.0279999999999996e+00 3.6688631467560863e+03 1.0000000000000000e+00 1.8863523858603067e+01 2.9490832620598968e+00 1.5628894839064994e+01 
806 807 2 1.0280000000000000e+00 4.5745881244171028e+02 1.0000000000000000e+00 2.0664216782191332e+01 4.8986173726576343e+00 1.7127350856047027e+01 
1893 1894 2 1.0279999999999996e+00 2.0761880085969671e+02 1.0000000000000000e+00 3.0900178844887666e+01 9.6267592687839052e+00 1.5299278727729497e+01 
383 384 2 1.0280000000000000e+00 -7.3703434791990276e+01 1.0000000000000000e+00 2.0288590129326213e+01 5.1741507848048247e+00 1.8171553410107595e+01 
1428 1429 2 1.0280000000000002e+00 -3.9788630630338980e+02 1.0000000000000000e+00 2.4874731567693818e+01 8.8733406519050462e+00 1.8629796674928638e+01 
1928 1929 2 1.0280000000000002e+00 -1.1369643349616495e+03 1.0000000000000000e+00 2.5460737082121941e+01 9.6708485451481270e+00 1.8057125988815272e+01 
2032 2033 2 1.0280000000000000e+00 1.1128096171151100e+02 1.0000000000000000e+00 1.1123343546525181e+01 1.9614239652414557e+01 1.9547599791534104e+01 
2031 2032 2 1.0280000000000000e+00 2.8486912722166750e+02 1.0000000000000000e+00 1.2177700654837610e+01 1.9314932213080368e+01 1.9873359154206927e+01 
3955 3956 2 1.0279999999999994e+00 1.3026211934505232e+03 1.0000000000000000e+00 7.4271391166217864e+00 3.6254652412598989e+00 2.0144473269020327e+01 
4500 4501 2 1.0279999999999994e+00 -1.3689333770527705e+03 1.0000000000000000e+00 8.1291992275381713e+00 2.8545042005022423e+00 2.0613625367760903e+01 
3572 3573 2 1.0280000000000000e+00 4.9530519353545151e+02 1.0000000000000000e+00 2.9372631628371188e+01 4.9202722666963039e+00 2.2438345266231433e+01 
541 542 2 1.0280002903828929e+00 -4.9358951116102736e+02 1.0000000000000000e+00 2.4595305057810535e+01 1.4013737552010406e+00 2.4387213278175029e+01 
1553 1554 2 1.0279997059423955e+00 -7.0362048055304354e+02 1.0000000000000000e+00 2.3700901182773926e+01 1.3448373299845557e+00 2.3677129046764623e+01 
372 373 2 1.0280000000000014e+00 -2.1105051963750739e+03 1.0000000000000000e+00 3.2718903345410683e-01 3.6547183578981732e+00 2.3660514921137494e+01 
3903 3904 2 1.0280002905288841e+00 -4.3130972607714460e+02 1.0000000000000000e+00 2.6444448880639705e+01 3.0045355038462569e+00 2.4659397574267391e+01 
1262 1263 2 1.0280000000000000e+00 5.0110305943169215e+02 1.0000000000000000e+00 2.8871701178930998e+01 5.6851173371788670e+00 2.3124970142303450e+01 
1887 1888 2 1.0280000000000005e+00 -1.0617018780900412e+03 1.0000000000000000e+00 5.8551984947769515e+00 9.1923394828454956e+00 2.4486096281692621e+01 
3359 3360 2 1.0279997060883868e+00 5.1711116921880910e+02 1.0000000000000000e+00 2.7078994875328664e+01 2.3649859482559927e+00 2.5363458665863032e+01 
1930 1931 2 1.0280000000000005e+00 2.0790369593589736e+02 1.0000000000000000e+00 5.5370812907914075e+00 8.4930308143250119e+00 2.5332938562237981e+01 
1000 1001 2 1.0280000000000025e+00 -4.0007383344097798e+02 1.0000000000000000e+00 1.2578378551300945e+01 2.1324455997126557e-01 2.7656582181139299e+01 
4364 4365 2 1.0280000000000000e+00 1.1972907394032637e+02 1.0000000000000000e+00 2.7922246891597641e+01 2.2980249459735091e+00 2.8697797039397035e+01 
206 207 2 1.0280000000000000e+00 1.1885408961825803e+02 1.0000000000000000e+00 2.7450463471450554e+01 3.1581363742217605e+00 2.8110428540982443e+01 
85 86 2 1.0280000000000000e+00 -1.0937905704614254e+03 1.0000000000000000e+00 3.2164719289819487e+01 1.6541681554343434e+01 2.9409918409153423e+01 
43 44 2 1.0280000000000000e+00 -3.2121727500810607e+02 1.0000000000000000e+00 3.1600728465580104e+01 1.7354585298720004e+01 2.9983045681241460e+01 
878 879 2 1.0280000000000002e+00 -4.7949962246587305e+01 1.0000000000000000e+00 1.4402101475088930e+01 4.8966859593322853e+00 3.2212020300379073e+01 
1805 1806 2 1.0280000000000002e+00 -3.0970898896306714e+01 1.0000000000000000e+00 1.5339621721870841e+01 4.7968963842329018e+00 3.1565127075005513e+01 
1681 1682 2 1.0280000000000002e+00 -6.1638510137448225e+02 1.0000000000000000e+00 6.2292631186961609e+00 9.8835218419921596e+00 3.2271505307625937e+01 
2228 2229 2 1.0280000000000002e+00 -1.1175199644106630e+02 1.0000000000000000e+00 7.3063913067351303e+00 1.0251113054587517e+01 3.2161757485719072e+01 
2559 2560 2 1.0280000000000007e+00 1.3156085572997986e+03 1.0000000000000000e+00 2.8541340232723655e+01 1.2257277850119749e+01 3.3258725523885040e+01 
2558 2559 2 1.0280000000000007e+00 -1.9064272881181441e+03 1.0000000000000000e+00 2.9026963436512073e+01 1.3284814624657390e+01 3.3384070242057732e+01 
4116 4117 2 1.0279999999999971e+00 -5.2420405443945853e+01 1.0000000000000000e+00 2.4921977636880847e+01 3.6288180842211033e+00 3.7085162164233950e+01 
1604 1605 2 1.0280000000000009e+00 2.4713536692990247e+03 1.0000000000000000e+00 1.6713917805850642e+01 1.6953301642494818e+01 3.5603561680076169e+01 
1605 1606 2 1.0280000000000009e+00 3.6026744652925472e+03 1.0000000000000000e+00 1.7792791035951279e+01 1.7108612961840880e+01 3.5948936787624383e+01 
1600 1601 2 1.0279999999999996e+00 4.6746991632646018e+02 1.0000000000000000e+00 2.3578328113496640e+00 1.8283732624461461e+01 3.6258093499059136e+01 
1136 1137 2 1.0279999999999996e+00 -4.5535316256689748e+02 1.0000000000000000e+00 3.3941220201317135e+00 1.8538530250067009e+01 3.6668649053407620e+01 
2139 2140 2 1.0279999999999982e+00 -5.5837744002818658e+02 1.0000000000000000e+00 1.9135465653345076e+01 2.2618121604111607e+00 3.9425491493702651e+01 
2104 2105 2 1.0279999999999982e+00 -5.6987493122001388e+02 1.0000000000000000e+00 1.8544688465836671e+01 2.3239320638196279e+00 3.8448508152094959e+01 
4074 4075 2 1.0279999999999971e+00 -1.8106949280408373e+03 1.0000000000000000e+00 2.5428622607299069e+01 3.9788665915073715e+00 3.8048567548252187e+01 
97 98 2 1.0280000000000000e+00 -3.5978554449673957e+03 1.0000000000000000e+00 1.8928095695878394e+01 2.7825165634893871e+01 4.9760576727196359e-01 
560 561 2 1.0280000000000000e+00 1.9324957086687498e+03 1.0000000000000000e+00 1.9585909782194339e+01 2.8649960713816249e+01 9.3847618257388432e-01 
2353 2354 2 1.0280000000000002e+00 -5.2620959401878258e+02 1.0000000000000000e+00 3.2095528988590964e+01 3.4969451127283222e+01 2.2430356755114889e+00 
4531 4532 2 1.0280000000000002e+00 -1.3516535558464525e+03 1.0000000000000000e+00 2.7554498286584039e+01 3.7261681902309782e+01 5.5458096357239695e-01 
3984 3985 2 1.0280000000000002e+00 1.2880054034606869e+03 1.0000000000000000e+00 2.8610488730089273e+01 3.7687494185270985e+01 6.5918067850378315e-01 
2670 2671 2 1.0280000000000000e+00 -9.2912637612397828e+02 1.0000000000000000e+00 2.3125702987868730e+00 2.2710558132672830e+01 4.1268465546968578e+00 
4139 4140 2 1.0280000000000000e+00 2.0196452427521453e+02 1.0000000000000000e+00 1.9288352729196243e+00 2.3746310890190475e+01 3.8313187680574341e+00 
4160 4161 2 1.0280000000000002e+00 -6.8720824530920140e+01 1.0000000000000000e+00 3.2736031899819658e+01 3.5117559191371612e+01 3.1785532004773747e+00 
2721 2722 2 1.0280000000000000e+00 -7.1223719207614113e+02 1.0000000000000000e+00 2.1961066588301030e+01 3.2495250252544082e+01 1.3777724275987218e+01 
2763 2764 2 1.0280000000000000e+00 -9.1375828421922517e+02 1.0000000000000000e+00 2.2065560460754106e+01 3.3379397637261498e+01 1.4495176330256948e+01 
1632 1633 2 1.0280000000000022e+00 7.6089365450296100e+02 1.0000000000000000e+00 3.0143322881812313e+01 2.7280887258561563e+01 1.6421656257684909e+01 
2094 2095 2 1.0280000000000022e+00 -2.3034182659262733e+03 1.0000000000000000e+00 3.1284568340277783e+01 2.7324487643487586e+01 1.6476709208786293e+01 
2222 2223 2 1.0279999999999969e+00 -3.0187884046233499e+01 1.0000000000000000e+00 9.8375606414810708e+00 2.3089627821013192e+01 1.8511503143423333e+01 
2684 2685 2 1.0279999999999969e+00 -3.1133016645042332e+01 1.0000000000000000e+00 1.0159745229947967e+01 2.4165497671305431e+01 1.8296854188976013e+01 
3188 3189 2 1.0280000000000005e+00 -8.8932104261623613e+02 1.0000000000000000e+00 2.2207483428834450e+01 2.2710007486680411e+01 1.9939845160548582e+01 
3917 3918 2 1.0279999999999996e+00 2.5175928119462328e+03 1.0000000000000000e+00 2.5406147218617171e+01 2.7873856508451478e+01 1.9343188758303818e+01 
3914 3915 2 1.0279999999999996e+00 4.0331400736465991e+02 1.0000000000000000e+00 2.6221497108778284e+01 2.8589992036166169e+01 1.9703365770365671e+01 
2064 2065 2 1.0279999999999996e+00 1.5532210892360886e+03 1.0000000000000000e+00 2.9559460725680079e+01 3.8858238435573277e+01 1.9510501012846348e+01 
2686 2687 2 1.0280000000000005e+00 -3.0055643847311148e+02 1.0000000000000000e+00 2.1993921368571637e+01 2.3827624778164950e+01 2.0052521039288468e+01 
4112 4113 2 1.0280000000000002e+00 -4.7664397996619684e+01 1.0000000000000000e+00 1.5125762852228121e+01 3.7443671509339573e+01 2.1318308995462246e+01 
3191 3192 2 1.0280000000000002e+00 -3.3360938067802138e+01 1.0000000000000000e+00 1.6085789333457743e+01 3.6931863180928573e+01 2.0966493123498307e+01 
1601 1602 2 1.0279999999999996e+00 -2.1035480751718896e+03 1.0000000000000000e+00 2.8628015118516771e+01 3.8780106882117508e+01 2.0169043007490203e+01 
1093 1094 2 1.0279999999999996e+00 -5.3519443100352510e+02 1.0000000000000000e+00 1.2080721987727079e+01 2.3060397297812607e+01 2.5365940671484459e+01 
637 638 2 1.0279999999999996e+00 1.3146207925836165e+03 1.0000000000000000e+00 1.2865395346580534e+01 2.2587634738471845e+01 2.6050160153704859e+01 
3771 3772 2 1.0280000000000002e+00 2.3828044414832056e+02 1.0000000000000000e+00 9.7513173589004616e+00 3.2178775775465134e+01 2.6707808570088030e+01 
3309 3310 2 1.0280000000000002e+00 -6.2020750679273078e+02 1.0000000000000000e+00 1.0782560673881804e+01 3.2286057987852821e+01 2.6225728940078387e+01 
2265 2266 2 1.0280000000000029e+00 1.3408403334973441e+03 1.0000000000000000e+00 1.5178006296102470e+01 3.1333792611306830e+01 2.6710174620041546e+01 
289 290 2 1.0280000000000029e+00 1.3708246636132108e+03 1.0000000000000000e+00 1.4538725958979297e+01 3.2014643543174046e+01 2.7369822766102725e+01 
2740 2741 2 1.0280000000000007e+00 -9.1680667285362586e+02 1.0000000000000000e+00 2.9164223775790212e+01 3.7001558265460453e+01 2.6571940590868770e+01 
538 539 2 1.0280000000000025e+00 -3.0864610606245901e+02 1.0000000000000000e+00 1.1958935136801887e+01 3.9380213731401959e+01 2.7177288416997087e+01 
2698 2699 2 1.0280000000000007e+00 -7.0068482588859433e+02 1.0000000000000000e+00 2.8670106242926011e+01 3.7862371522530800e+01 2.7139586094353888e+01 
461 462 2 1.0280000000000011e+00 -4.7962784773616789e+01 1.0000000000000000e+00 2.9521382503360405e+00 2.1763338505835605e+01 2.8965330935014254e+01 
1637 1638 2 1.0280000000000011e+00 1.2344968963204606e+03 1.0000000000000000e+00 2.8732374370357414e+00 2.1507603784405603e+01 2.7853689162061112e+01 
163 164 2 1.0279999999999996e+00 -1.2040802105772266e+02 1.0000000000000000e+00 1.3055560232635575e+01 3.0980040663677531e+01 3.4674500114541189e+01 
1345 1346 2 1.0279999999999996e+00 7.3564367202138419e+02 1.0000000000000000e+00 1.8502028035493957e+01 3.3457886726031433e+01 3.4838972598182600e+01 
883 884 2 1.0279999999999996e+00 1.9365482693875446e+01 1.0000000000000000e+00 1.8763076671949882e+01 3.3600698014292902e+01 3.3734965549831756e+01 
265 266 2 1.0279999999999994e+00 8.3930482845501297e+02 1.0000000000000000e+00 1.4855390058703236e+01 3.8138849638463832e+01 3.4331382528892483e+01 
331 332 2 1.0279999999999996e+00 -1.1757228741275105e+02 1.0000000000000000e+00 1.3025426719223731e+01 3.0709704392265589e+01 3.5785078022293405e+01 
347 348 2 1.0279999999999994e+00 -1.3219710087198343e+03 1.0000000000000000e+00 1.5240305553344671e+01 3.7725627752326197e+01 3.5325596164013497e+01 
2201 2202 2 1.0280000000000000e+00 -7.5467186510999409e+02 1.0000000000000000e+00 2.1366924470253608e+01 3.7705814338244025e+01 3.8218316590929433e+01 
2210 2211 2 1.0280000000000000e+00 -7.5242297347112276e+02 1.0000000000000000e+00 2.2303326555556218e+01 3.8037569251170211e+01 3.8784410955721206e+01 
3569 3570 2 1.0279999999999969e+00 3.6710455422444717e+01 1.0000000000000000e+00 3.7560926769513763e+01 3.7157063078499747e-01 3.6818276474635460e-02 
2907 2908 2 1.0280000000330365e+00 -1.6328897260535605e+03 1.0000000000000000e+00 4.5517491797587780e+01 1.2719361846164563e+00 1.5190884652882981e+00 
720 721 2 1.0279999996477989e+00 1.6688643368122785e+03 1.0000000000000000e+00 4.4890665435585973e+01 5.7240638571230762e-01 1.5831581896831826e-01 
1181 1182 2 1.0279999999265705e+00 4.4087376976209896e+02 1.0000000000000000e+00 4.3975876247429980e+01 2.3505159115923822e+00 8.1800651995059814e-01 
53 54 2 1.0279999997283296e+00 -2.8285576998317356e+02 1.0000000000000000e+00 4.7263727770488757e+01 4.1813573993326819e-01 2.4576801947503415e+00 
109 110 2 1.0279999998623979e+00 -1.1971500672293796e+03 1.0000000000000000e+00 4.8632616804651590e+01 7.9267761312665186e-01 2.2349181480531524e+00 
100 101 2 1.0280000006297902e+00 -8.3714889678400846e+02 1.0000000000000000e+00 4.7445862399345621e+01 9.6178536811094228e-01 5.4734833950452844e-01 
2906 2907 2 1.0279999999400076e+00 -2.2049961640510437e+03 1.0000000000000000e+00 4.6539498826601289e+01 2.2340968476232312e+00 2.3045641699650088e+00 
1480 1481 2 1.0280000002536478e+00 -4.9620427309922678e+02 1.0000000000000000e+00 4.7891021955932473e+01 2.4636588400872186e+00 1.6940829509614750e+00 
530 531 2 1.0279999995877445e+00 7.0912184795546000e+02 1.0000000000000000e+00 4.9167959796379648e+01 1.6034058997099647e+00 7.1925918887800055e-01 
1041 1042 2 1.0280000001332823e+00 -6.1873247010778846e+02 1.0000000000000000e+00 5.0364399222271842e+01 1.1669087561135445e+00 2.2519936194006751e-01 
496 497 2 1.0279999997871598e+00 -7.6654330942009847e+02 1.0000000000000000e+00 5.3082459497811847e+01 8.7991873295079492e-01 2.0889060097543934e+00 
596 597 2 1.0280000003107099e+00 -1.5735575548190609e+03 1.0000000000000000e+00 4.5220179506703360e+01 2.9937121231006456e+00 1.3423083841406949e+00 
135 136 2 1.0279999998204907e+00 -8.0782871670191867e+02 1.0000000000000000e+00 4.5320991415013864e+01 4.7012282862834818e+00 1.8556106682032605e+00 
1105 1106 2 1.0279999993740143e+00 1.3370793802825696e+02 1.0000000000000000e+00 4.8391112318095232e+01 4.1917553673805896e+00 1.5027978084889713e+00 
972 973 2 1.0280000001239862e+00 -5.3144151254458041e+02 1.0000000000000000e+00 4.6769065903185584e+01 4.5990211976114370e+00 8.3006761403687490e-01 
2010 2011 2 1.0279999998562053e+00 2.1788794613829104e+03 1.0000000000000000e+00 5.0930689156507327e+01 2.6666812464938805e+00 1.5869714977276765e+00 
1078 1079 2 1.0279999997594920e+00 -1.0169513727992112e+03 1.0000000000000000e+00 5.0359511164562853e+01 4.2579103958799447e+00 1.1891925719546521e+00 
3797 3798 2 1.0280000002372451e+00 4.5369596870969559e+01 1.0000000000000000e+00 4.9383639420891136e+01 3.7236073775877707e+00 9.7362014904368216e-02 
1001 1002 2 1.0279999997307183e+00 4.5990888452841909e+02 1.0000000000000000e+00 5.3281996018525639e+01 3.6180393175093291e+00 2.3327280244252346e+00 
996 997 2 1.0280000005389454e+00 -4.1738206828454281e+02 1.0000000000000000e+00 5.2281818016281356e+01 2.7649082575234729e+00 7.2472264539433473e-01 
1880 1881 2 1.0279999998770608e+00 -2.2148786255646542e+02 1.0000000000000000e+00 5.3458568405600928e+01 4.3178645822168642e+00 1.0166077480261453e+00 
2058 2059 2 1.0280000000000000e+00 -6.0002944516349294e+02 1.0000000000000000e+00 3.8980181127942558e+01 7.4885640522325234e+00 5.1978006166447166e-01 
1726 1727 2 1.0279999997559441e+00 1.4558067597428540e+03 1.0000000000000000e+00 4.4577893445486978e+01 6.3117717268953362e+00 9.6357578098967067e-01 
2188 2189 2 1.0280000002942982e+00 8.7289729431841670e+02 1.0000000000000000e+00 4.3845544102340128e+01 5.5666665621772271e+00 2.1617501444975173e-01 
1981 1982 2 1.0280000004049727e+00 2.0365100785613915e+03 1.0000000000000000e+00 4.7967666991900288e+01 5.9066391427195484e+00 1.5121989555142181e+00 
20 21 2 1.0279999998174383e+00 1.1613211153122529e+03 1.0000000000000000e+00 4.9667828222801859e+01 5.8446770095857312e+00 1.9300456723936457e+00 
529 530 2 1.0280000001407081e+00 3.7334409226642697e+02 1.0000000000000000e+00 5.0917027377783896e+01 6.3088240940597995e+00 7.9728309756608917e-01 
1066 1067 2 1.0280000002020289e+00 3.0885547259358827e+02 1.0000000000000000e+00 4.9139075115832732e+01 5.6962126247401770e+00 3.9329495181182605e-01 
63 64 2 1.0279999993753193e+00 2.5388275969049283e+02 1.0000000000000000e+00 4.9440159055707639e+01 7.3397365305983229e+00 9.0414546483729619e-01 
619 620 2 1.0279999995739630e+00 -1.6746779843384161e+03 1.0000000000000000e+00 5.1616371951511681e+01 5.8879838280136845e+00 2.4152217358733394e+00 
3641 3642 2 1.0279999999859424e+00 -1.0679896981140732e+03 1.0000000000000000e+00 5.2499202835860281e+01 5.6324966856241634e+00 7.5188547755090474e-01 
1542 1543 2 1.0279999998767049e+00 -2.5874958663679308e+02 1.0000000000000000e+00 5.3431285029908885e+01 7.0163134089224188e+00 2.2116390343440351e+00 
115 116 2 1.0280000004398486e+00 -1.1715157281306492e+03 1.0000000000000000e+00 5.4045642049182732e+01 5.6242193343858702e+00 1.8661826326470323e+00 
957 958 2 1.0279999999942886e+00 3.2807980132728585e+02 1.0000000000000000e+00 5.4899351284971559e+01 6.9482581518526629e+00 1.3560094955823760e+00 
1596 1597 2 1.0280000000000000e+00 -8.7838426063248039e+02 1.0000000000000000e+00 3.7891259927285979e+01 7.8353019122177789e+00 5.5714973750225694e-01 
1137 1138 2 1.0279999999852283e+00 -4.2690719362964364e+02 1.0000000000000000e+00 4.3223673359836177e+01 7.5676363864272655e+00 1.2926818974717045e+00 
1598 1599 2 1.0279999997331717e+00 1.2976707609925415e+03 1.0000000000000000e+00 4.2215064338097513e+01 8.2344964713585398e+00 8.5705676141557319e-01 
2606 2607 2 1.0280000006047931e+00 1.0631679964673463e+03 1.0000000000000000e+00 4.3718437057752574e+01 8.8274933086923202e+00 1.4761794954602020e-01 
129 130 2 1.0279999997629297e+00 1.3871181275849736e+02 1.0000000000000000e+00 4.5509518774835705e+01 9.1561556843952641e+00 7.4236521548496845e-02 
3029 3030 2 1.0279999997972664e+00 3.8333532595475799e+02 1.0000000000000000e+00 4.4290186388917974e+01 9.9155937041451772e+00 1.3485934548160519e+00 
1863 1864 2 1.0279999999447385e+00 5.9409086075757230e+01 1.0000000000000000e+00 4.8067477452968951e+01 7.5113228915360750e+00 1.8514246253048334e+00 
1438 1439 2 1.0280000003406771e+00 7.1740068962952273e+02 1.0000000000000000e+00 4.7890979142513899e+01 9.0176333608371806e+00 6.5227499435717085e-01 
1015 1016 2 1.0280000000350855e+00 -5.7587440358080198e+02 1.0000000000000000e+00 4.6707521625919604e+01 7.5449462921889561e+00 6.3923630341494908e-01 
1868 1869 2 1.0279999999406524e+00 -4.7635227636181799e+02 1.0000000000000000e+00 4.8701276640645681e+01 9.7756731142163584e+00 1.7359924787636540e+00 
67 68 2 1.0280000002087943e+00 6.0848378899804811e+02 1.0000000000000000e+00 5.1148536340099014e+01 7.6675127047010587e+00 2.4444874010580424e+00 
16 17 2 1.0280000000055372e+00 1.0646889441353758e+03 1.0000000000000000e+00 4.9897433728637381e+01 9.1609329539056787e+00 1.0750265095754519e+00 
1537 1538 2 1.0280000000091580e+00 -2.4248059141139979e+03 1.0000000000000000e+00 5.2428988107667415e+01 8.1588593058818031e+00 1.7926448325523519e+00 
533 534 2 1.0280000004663603e+00 4.9702375924869807e+02 1.0000000000000000e+00 5.2302837093269424e+01 9.7743722574364753e+00 1.9055244345375516e-01 
4021 4022 2 1.0280000000325320e+00 -1.7037582088935233e+03 1.0000000000000000e+00 5.3922047299174025e+01 9.3308788695898794e+00 2.4225448667441829e+00 
1013 1014 2 1.0279999998290386e+00 5.0684317270993745e+02 1.0000000000000000e+00 4.3193629758764224e+01 1.1516108324682831e+01 1.7284327681980520e+00 
550 551 2 1.0280000000646876e+00 -6.4360601630736687e+02 1.0000000000000000e+00 4.3222698405071277e+01 1.1679819533828876e+01 1.8813497846390320e-01 
2061 2062 2 1.0280000003061580e+00 -5.6035582127857015e+02 1.0000000000000000e+00 4.4613476469378952e+01 1.1180893467815229e+01 2.3328995080697243e+00 
2195 2196 2 1.0279999999012563e+00 -1.3744726453584053e+03 1.0000000000000000e+00 4.6116762343456145e+01 1.1198714142187743e+01 1.6925347565626070e+00 
1012 1013 2 1.0279999999561031e+00 1.0628462553329152e+03 1.0000000000000000e+00 4.4579128923644134e+01 1.2082069597146353e+01 2.5765318749158173e-01 
981 982 2 1.0279999999564549e+00 -8.0452521217345429e+02 1.0000000000000000e+00 4.7504891395981517e+01 1.2124205651674187e+01 1.3127869003147388e+00 
8 9 2 1.0280000004512606e+00 6.9790456230426230e+02 1.0000000000000000e+00 4.6464130753452054e+01 1.0806873494588611e+01 6.5762762826717863e-02 
1993 1994 2 1.0280000003120047e+00 1.0672434032215119e+02 1.0000000000000000e+00 5.0578719321357475e+01 1.0691262141832466e+01 1.9067111529587031e+00 
17 18 2 1.0279999999712539e+00 1.4582666040135359e+03 1.0000000000000000e+00 4.9083126684525858e+01 1.1490097124407994e+01 1.5173658578304667e+00 
1869 1870 2 1.0280000001558192e+00 -7.2268281729183946e+02 1.0000000000000000e+00 5.1205196594640761e+01 1.2013343463755882e+01 2.4767945234605651e+00 
1870 1871 2 1.0279999996575699e+00 -7.1542014469879803e+02 1.0000000000000000e+00 5.0745894535540650e+01 1.0209861386741617e+01 2.3667274370151037e-01 
1998 1999 2 1.0279999995201070e+00 -5.2518265124388037e+01 1.0000000000000000e+00 5.2474559815204486e+01 1.1033796207248495e+01 2.4070595054163415e+00 
446 447 2 1.0279999997755647e+00 1.4024166546503741e+03 1.0000000000000000e+00 5.3034188412957981e+01 1.0990541183309922e+01 7.1212120822425573e-01 
2257 2258 2 1.0279999996725022e+00 -9.0360303265037555e+02 1.0000000000000000e+00 5.4617101063838049e+01 1.0652601288078360e+01 2.4114896449411187e+00 
1798 1799 2 1.0279999999647658e+00 2.4644448316947883e+03 1.0000000000000000e+00 5.5776563046271271e+01 1.2015473881787472e+01 1.1888917462082789e+00 
491 492 2 1.0280000003085175e+00 4.5517202893970023e+02 1.0000000000000000e+00 5.3869795845643978e+01 1.2331076803862578e+01 3.0754594494375925e-01 
3484 3485 2 1.0280000002548182e+00 -1.8518014779827041e+02 1.0000000000000000e+00 5.7901619944461004e+01 1.0261533358818054e+01 1.3348710262629528e+00 
4198 4199 2 1.0279999997494589e+00 -9.4982120161785156e+02 1.0000000000000000e+00 5.7022349381071130e+01 1.0378217781176298e+01 6.0068061932996242e-01 
1215 1216 2 1.0279999999350886e+00 7.4255262282615672e+02 1.0000000000000000e+00 4.0623159305240641e+01 1.4821701213319894e+01 1.6729348712437702e+00 
305 306 2 1.0279999998975795e+00 3.0376377379975645e+02 1.0000000000000000e+00 4.5375817478477224e+01 1.2926635931528136e+01 2.0689699433975903e+00 
2523 2524 2 1.0280000001766250e+00 -5.6356223544930072e+02 1.0000000000000000e+00 4.3780075556640277e+01 1.3101005732037786e+01 1.7308043534949717e+00 
4255 4256 2 1.0280000000517944e+00 -3.6063880798505888e+03 1.0000000000000000e+00 4.5791958426846911e+01 1.4437004982036488e+01 6.9438740264802890e-01 
927 928 2 1.0279999999121738e+00 -1.3195084361777563e+03 1.0000000000000000e+00 4.4056794855011844e+01 1.4579310858352384e+01 1.8960263910435298e+00 
1902 1903 2 1.0279999997584410e+00 -8.3864339114570703e+02 1.0000000000000000e+00 4.6914700107473720e+01 1.3500460424578542e+01 9.9094322626195086e-01 
990 991 2 1.0279999997434419e+00 -4.5023617732711352e+02 1.0000000000000000e+00 4.9717066619823399e+01 1.2832453082239022e+01 1.0869436651130118e+00 
726 727 2 1.0280000000287153e+00 9.1532760530503401e+02 1.0000000000000000e+00 4.8751182658047320e+01 1.4068420163750359e+01 6.8399669571849198e-01 
2499 2500 2 1.0280000001327934e+00 3.4207474448425523e+02 1.0000000000000000e+00 5.0188767764074981e+01 1.4486014715328478e+01 2.5410611139242512e-01 
1962 1963 2 1.0280000000067731e+00 -9.3793367098435465e+02 1.0000000000000000e+00 5.1134351705342034e+01 1.2941244984248421e+01 2.3676571735177182e-01 
1750 1751 2 1.0280000001015928e+00 6.4086385170508822e+02 1.0000000000000000e+00 5.3011243596576968e+01 1.3787084233620414e+01 1.5752617091093555e+00 
2361 2362 2 1.0279999997305076e+00 8.5754787497466666e+01 1.0000000000000000e+00 5.2408907216892509e+01 1.4887950051499242e+01 2.3929508042129428e+00 
745 746 2 1.0279999997109033e+00 8.7222416886995234e+02 1.0000000000000000e+00 5.4925865924497202e+01 1.3620582179523245e+01 1.8063519450035894e+00 
2584 2585 2 1.0279999996359763e+00 3.1802349211534886e+02 1.0000000000000000e+00 5.5741137404474415e+01 1.4240005682296511e+01 2.0618682678621944e-01 
3732 3733 2 1.0280000002583076e+00 3.2163198597109094e-01 1.0000000000000000e+00 5.6298350279559031e+01 1.4909003523043557e+01 2.4433827047401460e+00 
1970 1971 2 1.0280000000423717e+00 -3.2001710383218011e+01 1.0000000000000000e+00 5.7084006716813924e+01 1.2675119889226311e+01 8.6688831138493072e-01 
2432 2433 2 1.0280000001672447e+00 -3.2486382333365924e+01 1.0000000000000000e+00 5.7093627828555462e+01 1.4087321652351369e+01 1.1461013239781450e+00 
3237 3238 2 1.0279999999959428e+00 -1.3214136955500931e+03 1.0000000000000000e+00 4.2790247032325354e+01 1.5288014071886206e+01 2.0136632356961668e+00 
1890 1891 2 1.0280000003929755e+00 1.7053414839516753e+02 1.0000000000000000e+00 4.1080723212173872e+01 1.6693165609612453e+01 2.1337352230469824e+00 
185 186 2 1.0280000004221423e+00 1.0165727462306479e+03 1.0000000000000000e+00 4.2975051469947452e+01 1.5761993165211845e+01 1.3214539331216354e-01 
3998 3999 2 1.0279999998610134e+00 -1.5657043486889465e+03 1.0000000000000000e+00 4.3991049964682738e+01 1.6699994286575620e+01 1.6846185940036544e+00 
2403 2404 2 1.0279999998871778e+00 -2.0340827260290444e+03 1.0000000000000000e+00 4.5750474860869502e+01 1.7043494500007057e+01 2.3967386681417948e+00 
4085 4086 2 1.0279999996180487e+00 1.6107089313434098e+01 1.0000000000000000e+00 4.4520430180056934e+01 1.5653272831278638e+01 1.6530690278557936e-01 
3374 3375 2 1.0280000002186569e+00 -3.7008674269759848e+02 1.0000000000000000e+00 4.6692065197855996e+01 1.5352777143244808e+01 1.8927689229049418e+00 
4301 4302 2 1.0280000000158767e+00 3.3365570046721848e+02 1.0000000000000000e+00 4.7632957160145786e+01 1.6649190675103526e+01 1.3748479354264243e+00 
4597 4598 2 1.0280000002850753e+00 6.2264296095809573e+02 1.0000000000000000e+00 5.0552114481810861e+01 1.5132074565729267e+01 1.8751597328922012e+00 
4088 4089 2 1.0279999995920079e+00 1.5203626211152539e+02 1.0000000000000000e+00 4.8790192226859631e+01 1.5359184863706441e+01 1.9610685916736534e+00 