LAMMPS data file via write_data, version 30 Jul 2016, timestep = 50400000

4620 atoms
8 atom types

0.0000000000000000e+00 1.0000000000000000e+02 xlo xhi
0.0000000000000000e+00 4.0000000000000000e+01 ylo yhi
0.0000000000000000e+00 4.0000000000000000e+01 zlo zhi

Masses

1 3.896
2 5.36
3 20.064
4 8.378
5 8.378
6 8.378
7 8.378
8 8.378

Atoms # meso-molecular

514 515 2 1.0279999999999994e+00 2.3283488978398111e+02 1.0000000000000000e+00 1.7118519008742467e+01 9.1537314928014144e+00 1.9702208199788802e+00 
976 977 2 1.0279999999999994e+00 -6.4410779163384632e+02 1.0000000000000000e+00 1.6195404214883617e+01 8.7270681373380192e+00 2.4928970829968127e+00 
671 672 2 1.0280000000000002e+00 -4.2611120828569085e+02 1.0000000000000000e+00 2.7394950847232447e+01 1.2690871091428752e+01 1.8698462343808888e+00 
1050 1051 2 1.0280000000000002e+00 -1.0889754641822005e+03 1.0000000000000000e+00 2.8315204798813340e+01 1.3016370347325539e+01 1.2744002532296774e+00 
90 91 2 1.0279999999999996e+00 -1.3613179928831273e+03 1.0000000000000000e+00 1.2164524787006812e+01 6.2486251918308149e+00 4.7424707529928440e+00 
635 636 2 1.0279999999999996e+00 4.2301169008323620e+02 1.0000000000000000e+00 1.2773620486924054e+01 5.2863344808353387e+00 4.6406275728928090e+00 
2356 2357 2 1.0280000000000000e+00 1.3317033004713676e+03 1.0000000000000000e+00 7.0709291303399509e+00 1.7328743790506515e+01 6.4233497170491551e+00 
4332 4333 2 1.0280000000000000e+00 1.3381790674797853e+03 1.0000000000000000e+00 7.6393713329854753e+00 1.6865398195510640e+01 7.3005938901892016e+00 
3740 3741 2 1.0280000000000000e+00 -1.4641655312708502e+02 1.0000000000000000e+00 2.5809720255457449e+01 1.8861606318363592e+01 6.0479915366893380e+00 
3366 3367 2 1.0280000000000000e+00 -6.7354569038568542e+01 1.0000000000000000e+00 2.6344640746895706e+01 1.9811496516181649e+01 5.7031122862445391e+00 
3025 3026 2 1.0280000000000005e+00 -8.7952540762560830e+02 1.0000000000000000e+00 1.7920311341519621e+00 1.5860885645526615e+00 8.7909704265971325e+00 
2563 2564 2 1.0280000000000005e+00 -5.9852170820322522e+02 1.0000000000000000e+00 8.8373030719270740e-01 1.7036981428198967e+00 8.1064774665868224e+00 
4538 4539 2 1.0279999999999994e+00 -3.3102519823334774e+02 1.0000000000000000e+00 3.0909313087991780e+01 3.4606779430074215e+00 8.4450971060779469e+00 
4080 4081 2 1.0279999999999994e+00 -5.6267401390127361e+02 1.0000000000000000e+00 3.1869517176961278e+01 4.0379631770056790e+00 8.6734014722047856e+00 
3286 3287 2 1.0279999999999969e+00 -6.4305478450708574e+02 1.0000000000000000e+00 2.9638618663249208e+00 6.9226343225228621e+00 8.7291461409465363e+00 
3748 3749 2 1.0279999999999969e+00 2.3229690280173122e+02 1.0000000000000000e+00 3.2479240866464520e+00 6.9724496553870257e+00 7.6227103745974958e+00 
2982 2983 2 1.0279999999999994e+00 -8.7384853880551668e+02 1.0000000000000000e+00 2.9864310052235172e+01 1.1855021124773589e+01 8.9230639649144958e+00 
2520 2521 2 1.0279999999999994e+00 -5.9843565026075896e+02 1.0000000000000000e+00 3.1005223423116462e+01 1.1921129802700001e+01 8.9593866892872409e+00 
4241 4242 2 1.0279999999999996e+00 -3.4971756009151477e+02 1.0000000000000000e+00 1.9103102355642768e+01 1.3370382877733167e+01 1.2424201401213516e+01 
1631 1632 2 1.0279999999999996e+00 2.4909251665575102e+03 1.0000000000000000e+00 1.7795402997648463e+01 3.7727215234041629e+00 1.4949620990083002e+01 
1630 1631 2 1.0279999999999996e+00 3.6688631467560863e+03 1.0000000000000000e+00 1.8868514440772806e+01 3.3801890179535650e+00 1.4991130991998286e+01 
1893 1894 2 1.0279999999999996e+00 2.0761880085969671e+02 1.0000000000000000e+00 3.0512715518397687e+01 9.9111444995260509e+00 1.4440344707997692e+01 
1852 1853 2 1.0279999999999996e+00 -1.0650390897431139e+03 1.0000000000000000e+00 3.0860955094804716e+01 9.7550255074216352e+00 1.3362509342467828e+01 
83 84 2 1.0279999999999996e+00 -3.4911044698179921e+02 1.0000000000000000e+00 1.9733631288152093e+01 1.4274279893808496e+01 1.2728793697664873e+01 
383 384 2 1.0280000000000000e+00 -7.3703434791990276e+01 1.0000000000000000e+00 2.0361884988574776e+01 6.9028749484458292e+00 1.6882131528840024e+01 
806 807 2 1.0280000000000000e+00 4.5745881244171028e+02 1.0000000000000000e+00 2.0737511641439895e+01 6.6273415362986388e+00 1.5837928974779455e+01 
1928 1929 2 1.0280000000000002e+00 -1.1369643349616495e+03 1.0000000000000000e+00 2.4869337247062649e+01 9.7574651989086565e+00 1.7334671245674684e+01 
3955 3956 2 1.0280000000000000e+00 1.3026211934505232e+03 1.0000000000000000e+00 7.8417734963088952e+00 4.6154361362761138e+00 1.9372000770964096e+01 
4500 4501 2 1.0280000000000000e+00 -1.3689333770527705e+03 1.0000000000000000e+00 8.5438336073465475e+00 3.8444750956288885e+00 1.9841152869704672e+01 
1428 1429 2 1.0280000000000002e+00 -3.9788630630338980e+02 1.0000000000000000e+00 2.4283331732634526e+01 8.9599573056655757e+00 1.7907341931788050e+01 
2032 2033 2 1.0280000000000000e+00 1.1128096171151100e+02 1.0000000000000000e+00 1.0303466563864564e+01 1.9909176554337950e+01 1.9327779394271566e+01 
2031 2032 2 1.0280000000000000e+00 2.8486912722166750e+02 1.0000000000000000e+00 1.1357823672176993e+01 1.9609869115003761e+01 1.9653538756944389e+01 
3572 3573 2 1.0280000000000000e+00 4.9530519353545151e+02 1.0000000000000000e+00 2.9149178493264778e+01 4.5931963977296730e+00 2.0916546934437545e+01 
1262 1263 2 1.0280000000000000e+00 5.0110305943169215e+02 1.0000000000000000e+00 2.8648248043824587e+01 5.3580414682122361e+00 2.1603171810509561e+01 
541 542 2 1.0279999999999985e+00 -4.9358950946458151e+02 1.0000000000000000e+00 2.3995976774690519e+01 1.6223607314269972e+00 2.4211541570672871e+01 
1553 1554 2 1.0279999999999985e+00 -7.0362048055304354e+02 1.0000000000000000e+00 2.3101568345380951e+01 1.5658305604153624e+00 2.3501463463135302e+01 
3903 3904 2 1.0280000000000000e+00 -4.3130972438075935e+02 1.0000000000000000e+00 2.7257600500340168e+01 3.0330457470463261e+00 2.4501422001754687e+01 
1887 1888 2 1.0280000000000005e+00 -1.0617018780900412e+03 1.0000000000000000e+00 5.3991914102397605e+00 9.8489412858184959e+00 2.4688879531084890e+01 
1000 1001 2 1.0280000000000038e+00 -4.0007383344097798e+02 1.0000000000000000e+00 1.2889147564668407e+01 6.4819046228732158e-01 2.5446992656457212e+01 
3359 3360 2 1.0280000000000000e+00 5.1711116921880910e+02 1.0000000000000000e+00 2.7892152658917826e+01 2.3934960159650025e+00 2.5205476486135677e+01 
1930 1931 2 1.0280000000000005e+00 2.0790369593589736e+02 1.0000000000000000e+00 5.0810742062542165e+00 9.1496326172980122e+00 2.5535721811630250e+01 
4364 4365 2 1.0280000000000000e+00 1.1972907394032637e+02 1.0000000000000000e+00 2.8178916467146681e+01 2.9437363432137431e+00 2.8716532189717061e+01 
206 207 2 1.0280000000000000e+00 1.1885408961825803e+02 1.0000000000000000e+00 2.7707133046999594e+01 3.8038477714619945e+00 2.8129163691302470e+01 
85 86 2 1.0280000000000000e+00 -1.0937905704614254e+03 1.0000000000000000e+00 3.2380000011069143e+01 1.6760466587100730e+01 2.8701918531051096e+01 
43 44 2 1.0280000000000000e+00 -3.2121727500810607e+02 1.0000000000000000e+00 3.1816009186829760e+01 1.7573370331477300e+01 2.9275045803139133e+01 
1805 1806 2 1.0280000000000002e+00 -3.0970898896306714e+01 1.0000000000000000e+00 1.5024854292682718e+01 5.7503203089317836e+00 3.0929390562683331e+01 
878 879 2 1.0280000000000002e+00 -4.7949962246587305e+01 1.0000000000000000e+00 1.4087334045900807e+01 5.8501098840311672e+00 3.1576283788056891e+01 
1681 1682 2 1.0280000000000027e+00 -6.1638510137448225e+02 1.0000000000000000e+00 6.2437237704034088e+00 1.1260458827756292e+01 3.2099142564170158e+01 
2228 2229 2 1.0280000000000027e+00 -1.1175199644106630e+02 1.0000000000000000e+00 7.3208519584334644e+00 1.1628050040351649e+01 3.1989394742175854e+01 
3020 3021 2 1.0279999999999676e+00 -2.1216586151714687e+03 1.0000000000000000e+00 9.4013467018073879e-03 1.9860770412045067e+01 3.2200705355367674e+01 
2559 2560 2 1.0280000000000007e+00 1.3156085572997986e+03 1.0000000000000000e+00 2.8218842811955369e+01 1.2287522142168314e+01 3.2808400025393929e+01 
2558 2559 2 1.0280000000000007e+00 -1.9064272881181441e+03 1.0000000000000000e+00 2.8704466015743787e+01 1.3315058916705954e+01 3.2933744743566621e+01 
4116 4117 2 1.0280000000000011e+00 -5.2420405443945853e+01 1.0000000000000000e+00 2.4727724524085652e+01 3.8665846915127928e+00 3.6904809168765141e+01 
1604 1605 2 1.0279999999999991e+00 2.4713536692990247e+03 1.0000000000000000e+00 1.6842799952405802e+01 1.6587806020815616e+01 3.5469059149007776e+01 
1605 1606 2 1.0279999999999991e+00 3.6026744652925472e+03 1.0000000000000000e+00 1.7921673182506442e+01 1.6743117340161678e+01 3.5814434256555991e+01 
1600 1601 2 1.0279999999999996e+00 4.6746991632646018e+02 1.0000000000000000e+00 1.7001220684145837e+00 1.8814014070237842e+01 3.5663486050980204e+01 
1136 1137 2 1.0279999999999996e+00 -4.5535316256689748e+02 1.0000000000000000e+00 2.7364112771966331e+00 1.9068811695843390e+01 3.6074041605328688e+01 
2139 2140 2 1.0279999999999982e+00 -5.5837744002818658e+02 1.0000000000000000e+00 1.8919283510580211e+01 2.0782658274342580e+00 3.9397575872599049e+01 
2104 2105 2 1.0279999999999982e+00 -5.6987493122001388e+02 1.0000000000000000e+00 1.8328506323071807e+01 2.1403857308427252e+00 3.8420592530991357e+01 
4074 4075 2 1.0280000000000011e+00 -1.8106949280408373e+03 1.0000000000000000e+00 2.5234369494503873e+01 4.2166331986372141e+00 3.7868214552842176e+01 
2353 2354 2 1.0279999999999996e+00 -5.2620959401878258e+02 1.0000000000000000e+00 3.2636522650548109e+01 3.4981130258545321e+01 1.6700506617626794e+00 
4531 4532 2 1.0280000000000000e+00 -1.3516535558464525e+03 1.0000000000000000e+00 2.7550559601827917e+01 3.7592016426133476e+01 6.1514640444446100e-02 
3984 3985 2 1.0280000000000000e+00 1.2880054034606869e+03 1.0000000000000000e+00 2.8606550045333151e+01 3.8017828709094680e+01 1.6611435537583757e-01 
2670 2671 2 1.0280000000000000e+00 -9.2912637612397828e+02 1.0000000000000000e+00 2.3802622530510216e+00 2.1966228237176054e+01 4.4843213518381795e+00 
4139 4140 2 1.0280000000000000e+00 2.0196452427521453e+02 1.0000000000000000e+00 1.9965272271837728e+00 2.3001980994693700e+01 4.1887935651987558e+00 
4160 4161 2 1.0279999999999996e+00 -6.8720824530920140e+01 1.0000000000000000e+00 3.3277025561776803e+01 3.5129238322633711e+01 2.6055681867285663e+00 
2721 2722 2 1.0280000000000000e+00 -7.1223719207614113e+02 1.0000000000000000e+00 2.1840042370808980e+01 3.3423595294983187e+01 1.3018603311498616e+01 
2763 2764 2 1.0280000000000000e+00 -9.1375828421922517e+02 1.0000000000000000e+00 2.1944536243262057e+01 3.4307742679700603e+01 1.3736055365768346e+01 
1632 1633 2 1.0280000000000022e+00 7.6089365450296100e+02 1.0000000000000000e+00 3.0025972345057657e+01 2.7423553742343813e+01 1.6136358925259692e+01 
2094 2095 2 1.0280000000000022e+00 -2.3034182659262733e+03 1.0000000000000000e+00 3.1167217803523126e+01 2.7467154127269836e+01 1.6191411876361077e+01 
2222 2223 2 1.0279999999999969e+00 -3.0187884046233499e+01 1.0000000000000000e+00 9.6963143358072674e+00 2.2939519011719522e+01 1.8395674438573614e+01 
2684 2685 2 1.0279999999999969e+00 -3.1133016645042332e+01 1.0000000000000000e+00 1.0018498924274164e+01 2.4015388862011761e+01 1.8181025484126295e+01 
3188 3189 2 1.0280000000000005e+00 -8.8932104261623613e+02 1.0000000000000000e+00 2.2003928484556411e+01 2.2610269196875493e+01 1.8280182890533677e+01 
2686 2687 2 1.0280000000000005e+00 -3.0055643847311148e+02 1.0000000000000000e+00 2.1790366424293598e+01 2.3727886488360031e+01 1.8392858769273563e+01 
3917 3918 2 1.0279999999999996e+00 2.5175928119462328e+03 1.0000000000000000e+00 2.5460922592897951e+01 2.9013163276490229e+01 1.9855568025851476e+01 
1601 1602 2 1.0279999999999996e+00 -2.1035480751718896e+03 1.0000000000000000e+00 2.8806387876858309e+01 3.9647655398343232e+01 1.9068752571660937e+01 
2064 2065 2 1.0279999999999996e+00 1.5532210892360886e+03 1.0000000000000000e+00 2.9737833484021618e+01 3.9725786951799002e+01 1.8410210577017082e+01 
3914 3915 2 1.0279999999999996e+00 4.0331400736465991e+02 1.0000000000000000e+00 2.6276272483059063e+01 2.9729298804204920e+01 2.0215745037913329e+01 
4112 4113 2 1.0280000000000002e+00 -4.7664397996619684e+01 1.0000000000000000e+00 1.5795577325270273e+01 3.7082806481879551e+01 2.1090269328312786e+01 
3191 3192 2 1.0280000000000002e+00 -3.3360938067802138e+01 1.0000000000000000e+00 1.6755603806499895e+01 3.6570998153468551e+01 2.0738453456348847e+01 
538 539 2 1.0280000000000025e+00 -3.0864610606245901e+02 1.0000000000000000e+00 1.2269704150169350e+01 3.9815159633718018e+01 2.4967698892314999e+01 
1637 1638 2 1.0280000000000011e+00 1.2344968963204606e+03 1.0000000000000000e+00 2.2496860835510555e+00 2.2536113362710296e+01 2.7223844971747024e+01 
1093 1094 2 1.0279999999999996e+00 -5.3519443100352510e+02 1.0000000000000000e+00 1.1717881262794767e+01 2.3327987515885262e+01 2.5088615426760335e+01 
637 638 2 1.0279999999999996e+00 1.3146207925836165e+03 1.0000000000000000e+00 1.2502554621648223e+01 2.2855224956544500e+01 2.5772834908980734e+01 
2265 2266 2 1.0280000000000018e+00 1.3408403334973441e+03 1.0000000000000000e+00 1.5130640567341064e+01 3.2228554036081341e+01 2.6189887603016434e+01 
3771 3772 2 1.0280000000000002e+00 2.3828044414832056e+02 1.0000000000000000e+00 9.7043494580428380e+00 3.2825473233715989e+01 2.7359582073167797e+01 
3309 3310 2 1.0280000000000002e+00 -6.2020750679273078e+02 1.0000000000000000e+00 1.0735592773024180e+01 3.2932755446103677e+01 2.6877502443158154e+01 
289 290 2 1.0280000000000018e+00 1.3708246636132108e+03 1.0000000000000000e+00 1.4491360230217891e+01 3.2909404967948561e+01 2.6849535749077614e+01 
2740 2741 2 1.0280000000000007e+00 -9.1680667285362586e+02 1.0000000000000000e+00 2.8720943925275257e+01 3.6948056534770267e+01 2.5703191959435834e+01 
2698 2699 2 1.0280000000000007e+00 -7.0068482588859433e+02 1.0000000000000000e+00 2.8226826392411056e+01 3.7808869791840614e+01 2.6270837462920952e+01 
461 462 2 1.0280000000000011e+00 -4.7962784773616789e+01 1.0000000000000000e+00 2.3285868968513546e+00 2.2791848084140298e+01 2.8335486744700166e+01 
163 164 2 1.0279999999999996e+00 -1.2040802105772266e+02 1.0000000000000000e+00 1.3249438352238716e+01 3.1586625304327530e+01 3.4639295908057903e+01 
883 884 2 1.0279999999999996e+00 1.9365482693875446e+01 1.0000000000000000e+00 1.9099383459523786e+01 3.4603890915132069e+01 3.4226456597514513e+01 
265 266 2 1.0279999999999994e+00 8.3930482845501297e+02 1.0000000000000000e+00 1.5153758577217516e+01 3.8719341609400068e+01 3.4505000326719802e+01 
331 332 2 1.0279999999999996e+00 -1.1757228741275105e+02 1.0000000000000000e+00 1.3219304838826872e+01 3.1316289032915588e+01 3.5749873815810119e+01 
1345 1346 2 1.0279999999999996e+00 7.3564367202138419e+02 1.0000000000000000e+00 1.8838334823067861e+01 3.4461079626870600e+01 3.5330463645865358e+01 
347 348 2 1.0279999999999994e+00 -1.3219710087198343e+03 1.0000000000000000e+00 1.5538674071858951e+01 3.8306119723262434e+01 3.5499213961840816e+01 
97 98 2 1.0280000000000018e+00 -3.5978554449673957e+03 1.0000000000000000e+00 1.9486045689996129e+01 2.8662227934069097e+01 3.9296484087312642e+01 
560 561 2 1.0280000000000018e+00 1.9324957086687498e+03 1.0000000000000000e+00 2.0143859776312073e+01 2.9487023013113252e+01 3.9737354502386729e+01 
2201 2202 2 1.0280000000000000e+00 -7.5467186510999409e+02 1.0000000000000000e+00 2.0756631772808660e+01 3.8189083155918823e+01 3.8558903069771375e+01 
2210 2211 2 1.0280000000000000e+00 -7.5242297347112276e+02 1.0000000000000000e+00 2.1693033858111271e+01 3.8520838068845009e+01 3.9124997434563149e+01 
2907 2908 2 1.0280000017849775e+00 -1.6328897260535605e+03 1.0000000000000000e+00 4.5518037159020842e+01 1.2475347399230663e+00 1.5380390989584769e+00 
720 721 2 1.0279999995380815e+00 1.6688643368122785e+03 1.0000000000000000e+00 4.4891206321596286e+01 5.4802446507389657e-01 1.7722036658283122e-01 
1181 1182 2 1.0279999989608879e+00 4.4087376976209896e+02 1.0000000000000000e+00 4.3976385766477669e+01 2.3260902594415143e+00 8.3690969272238180e-01 
53 54 2 1.0280000022429283e+00 -2.8285576998317356e+02 1.0000000000000000e+00 4.7264330695409747e+01 3.9375811045876802e-01 2.4766294685087642e+00 
109 110 2 1.0279999992960385e+00 -1.1971500672293796e+03 1.0000000000000000e+00 4.8633243582048671e+01 7.6826801320850624e-01 2.2538474167402525e+00 
100 101 2 1.0279999995454963e+00 -8.3714889678400846e+02 1.0000000000000000e+00 4.7446450840009980e+01 9.3738454164239471e-01 5.6624369133701613e-01 
2906 2907 2 1.0279999990388045e+00 -2.2049961640510437e+03 1.0000000000000000e+00 4.6540026723919958e+01 2.2096882575583994e+00 2.3235462254011430e+00 
1480 1481 2 1.0280000015097639e+00 -4.9620427309922678e+02 1.0000000000000000e+00 4.7891546756139405e+01 2.4392109752715614e+00 1.7130195373781052e+00 
530 531 2 1.0280000002259819e+00 7.0912184795546000e+02 1.0000000000000000e+00 4.9168570252235959e+01 1.5789566699063953e+00 7.3817147144990869e-01 
1041 1042 2 1.0279999996302009e+00 -6.1873247010778846e+02 1.0000000000000000e+00 5.0364996186694420e+01 1.1424897126136200e+00 2.4411273914655304e-01 
496 497 2 1.0279999993431983e+00 -7.6654330942009847e+02 1.0000000000000000e+00 5.3083109510467786e+01 8.5542126750881331e-01 2.1078289796784841e+00 
596 597 2 1.0280000010719634e+00 -1.5735575548190609e+03 1.0000000000000000e+00 4.5220688672970461e+01 2.9692994508903543e+00 1.3612531516271980e+00 
135 136 2 1.0280000011675272e+00 -8.0782871670191867e+02 1.0000000000000000e+00 4.5321440680723875e+01 4.6767370233792711e+00 1.8745446022170458e+00 
1105 1106 2 1.0280000008721657e+00 1.3370793802825696e+02 1.0000000000000000e+00 4.8391627819450143e+01 4.1672655078112157e+00 1.5217203159462562e+00 
972 973 2 1.0279999992728150e+00 -5.3144151254458041e+02 1.0000000000000000e+00 4.6769579341983693e+01 4.5745324462695454e+00 8.4900395263396389e-01 
2010 2011 2 1.0279999998235159e+00 2.1788794613829104e+03 1.0000000000000000e+00 5.0931212041656799e+01 2.6421805162003080e+00 1.6059066375889610e+00 
1078 1079 2 1.0280000005552508e+00 -1.0169513727992112e+03 1.0000000000000000e+00 5.0360044549133590e+01 4.2334099887342145e+00 1.2081131361766573e+00 
3797 3798 2 1.0279999994516311e+00 4.5369596870969559e+01 1.0000000000000000e+00 4.9384181040912793e+01 3.6991174149578767e+00 1.1628197411650346e-01 
1001 1002 2 1.0279999996920086e+00 4.5990888452841909e+02 1.0000000000000000e+00 5.3282513411933863e+01 3.5934971134601650e+00 2.3516281338097857e+00 
996 997 2 1.0280000001665148e+00 -4.1738206828454281e+02 1.0000000000000000e+00 5.2282375836499618e+01 2.7404429774964894e+00 7.4364481516335712e-01 
1880 1881 2 1.0280000006729604e+00 -2.2148786255646542e+02 1.0000000000000000e+00 5.3459086804803270e+01 4.2933122735547586e+00 1.0354941728860090e+00 
2058 2059 2 1.0280000000000000e+00 -6.0002944516349294e+02 1.0000000000000000e+00 3.8868535764765909e+01 7.4799160486748137e+00 3.3852210439871477e-01 
1726 1727 2 1.0280000002087761e+00 1.4558067597428540e+03 1.0000000000000000e+00 4.4578352457228142e+01 6.2872670063220770e+00 9.8250699562639521e-01 
2188 2189 2 1.0279999999877003e+00 8.7289729431841670e+02 1.0000000000000000e+00 4.3846007383486238e+01 5.5421709624160647e+00 2.3508928697512471e-01 
1981 1982 2 1.0280000005723242e+00 2.0365100785613915e+03 1.0000000000000000e+00 4.7968144779217617e+01 5.8821214843347223e+00 1.5311267018975185e+00 
1863 1864 2 1.0279999998095175e+00 5.9409086075757230e+01 1.0000000000000000e+00 4.8067941349183961e+01 7.4867752192910846e+00 1.8703501418277608e+00 
20 21 2 1.0279999994544504e+00 1.1613211153122529e+03 1.0000000000000000e+00 4.9668342243542448e+01 5.8201513151951199e+00 1.9489435863330844e+00 
529 530 2 1.0280000003354732e+00 3.7334409226642697e+02 1.0000000000000000e+00 5.0917547551475735e+01 6.2842977494823442e+00 8.1617880136409071e-01 
1066 1067 2 1.0279999998792444e+00 3.0885547259358827e+02 1.0000000000000000e+00 4.9139595352552895e+01 5.6716998024132028e+00 4.1220493819010412e-01 
63 64 2 1.0280000006375207e+00 2.5388275969049283e+02 1.0000000000000000e+00 4.9440652486030878e+01 7.3152043087224516e+00 9.2305458243865868e-01 
619 620 2 1.0280000001805354e+00 -1.6746779843384161e+03 1.0000000000000000e+00 5.1616873885807529e+01 5.8634256598685743e+00 2.4341129234885037e+00 
3641 3642 2 1.0279999993247304e+00 -1.0679896981140732e+03 1.0000000000000000e+00 5.2499709685179440e+01 5.6079834480475794e+00 7.7076880466467323e-01 
1542 1543 2 1.0279999998886480e+00 -2.5874958663679308e+02 1.0000000000000000e+00 5.3431786610113612e+01 6.9917340732809237e+00 2.2305208823405409e+00 
115 116 2 1.0280000007274495e+00 -1.1715157281306492e+03 1.0000000000000000e+00 5.4046174083171316e+01 5.5996434019811181e+00 1.8850754199567044e+00 
957 958 2 1.0279999998631242e+00 3.2807980132728585e+02 1.0000000000000000e+00 5.4899867132064479e+01 6.9236652223046322e+00 1.3748714623405129e+00 
1596 1597 2 1.0280000000000000e+00 -8.7838426063248039e+02 1.0000000000000000e+00 3.7779614564109330e+01 7.8266539086600693e+00 3.7589178023650005e-01 
1137 1138 2 1.0280000003903751e+00 -4.2690719362964364e+02 1.0000000000000000e+00 4.3224098623416673e+01 7.5430842819888806e+00 1.3116333289461046e+00 
1598 1599 2 1.0279999997752152e+00 1.2976707609925415e+03 1.0000000000000000e+00 4.2215500789052172e+01 8.2099454702315615e+00 8.7599796438588384e-01 
2606 2607 2 1.0279999999999678e+00 1.0631679964673463e+03 1.0000000000000000e+00 4.3718874850637370e+01 8.8029394475662670e+00 1.6654706199448036e-01 
129 130 2 1.0280000002329965e+00 1.3871181275849736e+02 1.0000000000000000e+00 4.5509989511090446e+01 9.1316113093531825e+00 9.3165466011299963e-02 
3029 3030 2 1.0280000002802323e+00 3.8333532595475799e+02 1.0000000000000000e+00 4.4290612915048698e+01 9.8910026614923279e+00 1.3675436184650227e+00 
1438 1439 2 1.0280000006275831e+00 7.1740068962952273e+02 1.0000000000000000e+00 4.7891452726349165e+01 8.9930918500072270e+00 6.7118572987947545e-01 
1015 1016 2 1.0280000001880509e+00 -5.7587440358080198e+02 1.0000000000000000e+00 4.6708015711451743e+01 7.5204121586322286e+00 6.5817023409598363e-01 
1868 1869 2 1.0279999998733138e+00 -4.7635227636181799e+02 1.0000000000000000e+00 4.8701757650141175e+01 9.7511060446894220e+00 1.7549080104324295e+00 
67 68 2 1.0280000001112617e+00 6.0848378899804811e+02 1.0000000000000000e+00 5.1149011117697668e+01 7.6429006011517293e+00 2.4633921247811563e+00 
16 17 2 1.0280000002029046e+00 1.0646889441353758e+03 1.0000000000000000e+00 4.9897927618935057e+01 9.1363699952691242e+00 1.0939108704777454e+00 
1537 1538 2 1.0280000002195619e+00 -2.4248059141139979e+03 1.0000000000000000e+00 5.2429487557873372e+01 8.1342535486820005e+00 1.8115287920311949e+00 
533 534 2 1.0280000002775975e+00 4.9702375924869807e+02 1.0000000000000000e+00 5.2303335535019002e+01 9.7498627533857327e+00 2.0945701118137672e-01 
4021 4022 2 1.0279999995689759e+00 -1.7037582088935233e+03 1.0000000000000000e+00 5.3922521966120563e+01 9.3062395640332749e+00 2.4414218062257373e+00 
1013 1014 2 1.0280000001337384e+00 5.0684317270993745e+02 1.0000000000000000e+00 4.3194020480708502e+01 1.1491483959653037e+01 1.7473739184344559e+00 
550 551 2 1.0279999997947729e+00 -6.4360601630736687e+02 1.0000000000000000e+00 4.3223114739060428e+01 1.1655208644492461e+01 2.0708473561404675e-01 
2061 2062 2 1.0280000002144518e+00 -5.6035582127857015e+02 1.0000000000000000e+00 4.4613887834563535e+01 1.1156277180529305e+01 2.3518568648824916e+00 
2195 2196 2 1.0279999998680491e+00 -1.3744726453584053e+03 1.0000000000000000e+00 4.6117183952678587e+01 1.1174083822393211e+01 1.7114711441665933e+00 
1012 1013 2 1.0280000000283482e+00 1.0628462553329152e+03 1.0000000000000000e+00 4.4579554753239918e+01 1.2057461440545712e+01 2.7659244316840043e-01 
981 982 2 1.0280000002768797e+00 -8.0452521217345429e+02 1.0000000000000000e+00 4.7505331325407191e+01 1.2099587909448241e+01 1.3317127680629539e+00 
8 9 2 1.0279999997126723e+00 6.9790456230426230e+02 1.0000000000000000e+00 4.6464583770378503e+01 1.0782295624005748e+01 8.4687053118139857e-02 
1993 1994 2 1.0280000006561441e+00 1.0672434032215119e+02 1.0000000000000000e+00 5.0579207141569228e+01 1.0666653539930078e+01 1.9256016553396789e+00 
17 18 2 1.0280000005195953e+00 1.4582666040135359e+03 1.0000000000000000e+00 4.9083585611141707e+01 1.1465501137243354e+01 1.5362864685650524e+00 
1869 1870 2 1.0279999999610232e+00 -7.2268281729183946e+02 1.0000000000000000e+00 5.1205673186272776e+01 1.1988719854247618e+01 2.4956945420270666e+00 
1870 1871 2 1.0279999997038278e+00 -7.1542014469879803e+02 1.0000000000000000e+00 5.0746382617968038e+01 1.0185312015362680e+01 2.5554862802141987e-01 
1998 1999 2 1.0280000001376279e+00 -5.2518265124388037e+01 1.0000000000000000e+00 5.2475037461083723e+01 1.1009173990422994e+01 2.4259507366716146e+00 
446 447 2 1.0280000001603993e+00 1.4024166546503741e+03 1.0000000000000000e+00 5.3034690793688824e+01 1.0966018912097944e+01 7.3103512191663311e-01 
2257 2258 2 1.0280000003005012e+00 -9.0360303265037555e+02 1.0000000000000000e+00 5.4617579484777302e+01 1.0627954008262915e+01 2.4303634766819986e+00 
1798 1799 2 1.0279999999223584e+00 2.4644448316947883e+03 1.0000000000000000e+00 5.5777062634294630e+01 1.1990874272579257e+01 1.2077606745255252e+00 
491 492 2 1.0279999999469600e+00 4.5517202893970023e+02 1.0000000000000000e+00 5.3870305292231741e+01 1.2306549344361715e+01 3.2644116993234784e-01 
3484 3485 2 1.0280000003131660e+00 -1.8518014779827041e+02 1.0000000000000000e+00 5.7902073362710659e+01 1.0236930794757809e+01 1.3537641555548385e+00 
4198 4199 2 1.0279999997122244e+00 -9.4982120161785156e+02 1.0000000000000000e+00 5.7022802165789649e+01 1.0353617427265773e+01 6.1957074178633620e-01 
1215 1216 2 1.0279999995536562e+00 7.4255262282615672e+02 1.0000000000000000e+00 4.0623530763785162e+01 1.4797028058543088e+01 1.6918985906839989e+00 
305 306 2 1.0279999999577716e+00 3.0376377379975645e+02 1.0000000000000000e+00 4.5376222932289174e+01 1.2901972507979682e+01 2.0879084117675459e+00 
2523 2524 2 1.0280000000067016e+00 -5.6356223544930072e+02 1.0000000000000000e+00 4.3780460239184080e+01 1.3076360495971949e+01 1.7497580849046559e+00 
4255 4256 2 1.0280000004705470e+00 -3.6063880798505888e+03 1.0000000000000000e+00 4.5792385133779135e+01 1.4412366648470142e+01 7.1334180211713472e-01 
927 928 2 1.0280000003496841e+00 -1.3195084361777563e+03 1.0000000000000000e+00 4.4057187394301614e+01 1.4554660640802862e+01 1.9149934771318189e+00 
1902 1903 2 1.0280000004803544e+00 -8.3864339114570703e+02 1.0000000000000000e+00 4.6915141937547212e+01 1.3475822009447299e+01 1.0098868236450882e+00 
990 991 2 1.0280000000849292e+00 -4.5023617732711352e+02 1.0000000000000000e+00 4.9717544395177420e+01 1.2807856779840861e+01 1.1058681087757929e+00 
726 727 2 1.0280000001810112e+00 9.1532760530503401e+02 1.0000000000000000e+00 4.8751644927010659e+01 1.4043792412990314e+01 7.0293386563376448e-01 
2499 2500 2 1.0280000001176475e+00 3.4207474448425523e+02 1.0000000000000000e+00 5.0189255270572588e+01 1.4461404127409137e+01 2.7303342861785312e-01 
1962 1963 2 1.0280000001100296e+00 -9.3793367098435465e+02 1.0000000000000000e+00 5.1134841774153145e+01 1.2916669007246517e+01 2.5568105634370403e-01 
1750 1751 2 1.0280000000227560e+00 6.4086385170508822e+02 1.0000000000000000e+00 5.3011728504423388e+01 1.3762413284631680e+01 1.5941389394582839e+00 
2361 2362 2 1.0280000002805121e+00 8.5754787497466666e+01 1.0000000000000000e+00 5.2409396819823911e+01 1.4863280100143394e+01 2.4118483755236744e+00 
745 746 2 1.0280000000575158e+00 8.7222416886995234e+02 1.0000000000000000e+00 5.4926358481544533e+01 1.3595930423220906e+01 1.8252187175806058e+00 
2584 2585 2 1.0279999999795870e+00 3.1802349211534886e+02 1.0000000000000000e+00 5.5741657131165098e+01 1.4215465281962562e+01 2.2505005177348886e-01 
3732 3733 2 1.0280000001408975e+00 3.2163198614406902e-01 1.0000000000000000e+00 5.6298849914322346e+01 1.4884351110084795e+01 2.4622571737781276e+00 
1970 1971 2 1.0279999999337639e+00 -3.2001710383218011e+01 1.0000000000000000e+00 5.7084504718088731e+01 1.2650515537138332e+01 8.8574969599581421e-01 
2432 2433 2 1.0280000001679854e+00 -3.2486382333365924e+01 1.0000000000000000e+00 5.7094142908877764e+01 1.4062721031300724e+01 1.1649567971853458e+00 
3530 3531 2 1.0280050349060088e+00 3.6068393714829917e+01 1.0000000000000000e+00 6.2724422818653991e+01 1.4508111509259196e+01 1.9193452531989088e-02 
3237 3238 2 1.0279999998047966e+00 -1.3214136955500931e+03 1.0000000000000000e+00 4.2790615189742006e+01 1.5263327345223844e+01 2.0326371077025440e+00 
1890 1891 2 1.0279999976780634e+00 1.7053414839516753e+02 1.0000000000000000e+00 4.1081092175393493e+01 1.6668483954501760e+01 2.1526965952265327e+00 
185 186 2 1.0279999994913218e+00 1.0165727462306479e+03 1.0000000000000000e+00 4.2975462304064557e+01 1.5737319464939590e+01 1.5112929503590367e-01 
3998 3999 2 1.0280000004415759e+00 -1.5657043486889465e+03 1.0000000000000000e+00 4.3991454032661515e+01 1.6675282852558777e+01 1.7036036911658266e+00 
2403 2404 2 1.0280000003645067e+00 -2.0340827260290444e+03 1.0000000000000000e+00 4.5750933152688191e+01 1.7018716544239233e+01 2.4157039679431209e+00 
4085 4086 2 1.0280000007025654e+00 1.6107089313434098e+01 1.0000000000000000e+00 4.4520858794602866e+01 1.5628615471309679e+01 1.8427136322182147e-01 
3374 3375 2 1.0279999988308415e+00 -3.7008674269759848e+02 1.0000000000000000e+00 4.6692513999332476e+01 1.5328091418247098e+01 1.9117280901973337e+00 
4301 4302 2 1.0279999999502702e+00 3.3365570046721848e+02 1.0000000000000000e+00 4.7633423512345964e+01 1.6624496108115142e+01 1.3938078044454369e+00 
4597 4598 2 1.0279999999312768e+00 6.2264296095809573e+02 1.0000000000000000e+00 5.0552614464993326e+01 1.5107404550473515e+01 1.8940784277876765e+00 
4088 4089 2 1.0280000007001842e+00 1.5203626211152539e+02 1.0000000000000000e+00 4.8790659937678960e+01 1.5334519409212954e+01 1.9800067736936315e+00 