LAMMPS data file via write_data, version 30 Jul 2016, timestep = 50000000

384 atoms
2 atom types

0.0000000000000000e+00 2.0000000000000000e+01 xlo xhi
0.0000000000000000e+00 2.0000000000000000e+01 ylo yhi
0.0000000000000000e+00 2.0000000000000000e+01 zlo zhi

Masses

1 3.89
2 2.094

Atoms # meso-molecular

65 1 2 7.9999999999999349e-01 -1.6842721723680887e+00 1.0000000000000000e+00 6.0325667497926805e+00 3.1319920582253369e-01 1.3262105348433078e+01 
4 1 2 7.9999999999998683e-01 -1.4938867273531155e+01 1.0000000000000000e+00 6.4691717947421354e+00 9.7484915991285492e-01 1.3279916495754543e+01 
63 1 2 7.9999999999999571e-01 -7.9029325269864316e+01 1.0000000000000000e+00 6.0468329551889060e+00 3.7615832349469719e-01 1.3280396291768355e+01 
142 1 2 7.9999999999999449e-01 1.3414045182892677e+01 1.0000000000000000e+00 5.9838799383985455e+00 2.4712314467841295e-01 1.3292603284389987e+01 
122 1 2 7.9999999999999416e-01 -9.9668205401279657e+00 1.0000000000000000e+00 5.9825801287895599e+00 2.4992290851492929e-01 1.3296397653700280e+01 
354 1 2 8.0000000000000704e-01 1.0860107850434538e+01 1.0000000000000000e+00 5.9664690903325273e+00 2.1105157975886096e-01 1.3299097138646179e+01 
140 1 2 7.9999999999999061e-01 -4.0270240850283784e+01 1.0000000000000000e+00 6.0571538026570328e+00 4.2459776803647192e-01 1.3302919550103219e+01 
167 1 2 8.0000000000007354e-01 -2.7512202075154299e+01 1.0000000000000000e+00 5.9335078945629718e+00 1.2322028187872448e-01 1.3305630756021149e+01 
32 1 2 8.0000000000000482e-01 -7.3084619651591211e+01 1.0000000000000000e+00 5.9657222362167630e+00 2.2120004001968863e-01 1.3306642430725022e+01 
121 1 2 8.0000000000011495e-01 -1.3470410638705278e+01 1.0000000000000000e+00 5.8972567998285088e+00 7.0516707388306468e-02 1.3344907248152833e+01 
293 1 2 8.0000000000003402e-01 -5.3442630216938262e+01 1.0000000000000000e+00 5.9261704605496694e+00 1.5721284813295508e-01 1.3341308128463933e+01 
147 1 2 8.0000000000001259e-01 -2.0748508213339839e+01 1.0000000000000000e+00 5.9682649092949545e+00 1.9704514517958831e+01 1.3262488356497450e+01 
30 1 2 8.0000000000003246e-01 -9.9402578175849166e-01 1.0000000000000000e+00 6.4170591559511241e+00 1.2979265868033504e+01 1.5863859127248341e+01 
89 1 2 8.0000000000003146e-01 -2.4334922876460341e-01 1.0000000000000000e+00 6.4677520940832842e+00 1.3046046699167794e+01 1.6225837606923999e+01 
260 1 2 7.9999999999992188e-01 1.1742728672845823e+01 1.0000000000000000e+00 5.8966045472795212e+00 1.4913443804428443e+01 1.4983861116757472e+01 
21 1 2 7.9999999999991800e-01 2.3213326530888656e+00 1.0000000000000000e+00 5.9031444852363784e+00 1.4899095867994845e+01 1.4988043441252707e+01 
251 1 2 7.9999999999994476e-01 1.0984261069514467e+01 1.0000000000000000e+00 5.9389628465932178e+00 1.4815318305695881e+01 1.5023081840599753e+01 
116 1 2 8.0000000000000193e-01 3.9252824656038499e+01 1.0000000000000000e+00 5.9635865343430021e+00 1.4752869420398474e+01 1.5055182932015772e+01 
7 1 2 8.0000000000004490e-01 -1.7596545735002856e+01 1.0000000000000000e+00 5.9991118639630248e+00 1.4661510317600586e+01 1.5096233015050808e+01 
168 1 2 8.0000000000004512e-01 -1.9885020804731617e+01 1.0000000000000000e+00 6.0815579849369916e+00 1.4424633286427404e+01 1.5203142885832996e+01 
45 1 2 7.9999999999993288e-01 -7.8542844068306890e+00 1.0000000000000000e+00 5.4735129411259891e+00 1.5796325904436443e+01 1.4561678718413892e+01 
5 1 2 8.0000000000004345e-01 -3.0819696444445789e+01 1.0000000000000000e+00 6.1391782073723169e+00 1.4195285454333206e+01 1.5330480243746326e+01 
376 1 2 8.0000000000004379e-01 -5.9637957653584095e+01 1.0000000000000000e+00 6.1932129972958858e+00 1.3981762210756473e+01 1.5400888099291381e+01 
372 1 2 8.0000000000003912e-01 -5.6928548939196034e+01 1.0000000000000000e+00 6.2559933025148817e+00 1.3600453410554675e+01 1.5571760708423392e+01 
229 1 2 8.0000000000004179e-01 -1.6215810627099877e+01 1.0000000000000000e+00 6.2253452334638357e+00 1.3795535463769284e+01 1.5484231737700711e+01 
278 1 2 8.0000000000003968e-01 1.7078269190032188e+01 1.0000000000000000e+00 6.2516949736573819e+00 1.3634067322489681e+01 1.5554197933531055e+01 
222 1 2 8.0000000000003779e-01 4.5070304151408301e+01 1.0000000000000000e+00 6.2818482053338807e+00 1.3470289838965577e+01 1.5622463805591703e+01 
29 1 2 8.0000000000001681e-01 -6.3850109800152786e+01 1.0000000000000000e+00 6.2672178854608909e+00 1.3984706737840021e+01 1.5779565460544527e+01 
264 1 2 7.9999999999993665e-01 -3.1713842148000526e-01 1.0000000000000000e+00 5.3607387101301764e+00 1.6067209903262668e+01 1.4431979968112230e+01 
235 1 2 7.9999999999993876e-01 3.3242746268458767e+01 1.0000000000000000e+00 5.2562331369110984e+00 1.6404906412126582e+01 1.4290849158726310e+01 
46 1 2 7.9999999999995108e-01 1.1939237159405266e+01 1.0000000000000000e+00 5.2431182412758401e+00 1.6462594846884492e+01 1.4266915962249964e+01 
39 1 2 7.9999999999997706e-01 -1.2027264378122549e+01 1.0000000000000000e+00 5.2260624892493048e+00 1.6548365099931331e+01 1.4232626640946217e+01 
357 1 2 7.9999999999997440e-01 -5.7378797078786037e-01 1.0000000000000000e+00 5.2250737469702653e+00 1.6551748925150363e+01 1.4233830311451754e+01 
317 1 2 8.0000000000016336e-01 2.0301462436535452e+01 1.0000000000000000e+00 5.7415717659301571e+00 1.9097762822973230e+01 1.3529012432637511e+01 
87 1 2 8.0000000000000737e-01 7.8574458054225769e+00 1.0000000000000000e+00 5.1964177556110105e+00 1.6767548477568649e+01 1.4148043379119970e+01 
297 1 2 8.0000000000000804e-01 1.9219501939478221e+01 1.0000000000000000e+00 5.1986247256764750e+00 1.6753623867103116e+01 1.4148345037533952e+01 
257 1 2 8.0000000000001215e-01 4.7372701017216010e-02 1.0000000000000000e+00 5.1890195284493013e+00 1.6873647198332357e+01 1.4110439610988278e+01 
289 1 2 8.0000000000001104e-01 -1.1251670962639054e+01 1.0000000000000000e+00 5.1971568443540832e+00 1.7096521088628453e+01 1.4004121374107946e+01 
268 1 2 8.0000000000001004e-01 -1.2451630234649318e+01 1.0000000000000000e+00 5.1959770547905659e+00 1.7129761743218111e+01 1.4003309264648145e+01 
228 1 2 8.0000000000000537e-01 -2.6607526415448504e+01 1.0000000000000000e+00 5.2151656919934757e+00 1.7283594129434498e+01 1.3940543383638351e+01 
55 1 2 7.9999999999999782e-01 -3.5972849847035981e+01 1.0000000000000000e+00 5.2533065848749017e+00 1.7455403320222452e+01 1.3866186450699550e+01 
111 1 2 7.9999999999999671e-01 2.1767027854211463e+01 1.0000000000000000e+00 5.2544931839869315e+00 1.7483521343102005e+01 1.3867625525833841e+01 
281 1 2 7.9999999999999383e-01 -2.8459099158059828e+00 1.0000000000000000e+00 5.2705208841973388e+00 1.7530746315494959e+01 1.3843027164304431e+01 
158 1 2 7.9999999999998195e-01 2.6803552888411293e+01 1.0000000000000000e+00 5.3693364295532948e+00 1.7881156744926624e+01 1.3760186683692769e+01 
238 1 2 7.9999999999997806e-01 2.5311975166239975e+01 1.0000000000000000e+00 5.3712659318170379e+00 1.7887766845978714e+01 1.3759282285798399e+01 
174 1 2 7.9999999999997484e-01 2.6588765414702078e+01 1.0000000000000000e+00 5.3879234225274786e+00 1.7938211180060154e+01 1.3750264600946727e+01 
292 1 2 7.9999999999996640e-01 1.9264889413456622e+01 1.0000000000000000e+00 5.4062660928529658e+00 1.7996889819315921e+01 1.3743064713657427e+01 
102 1 2 8.0000000000000238e-01 4.6864685128469688e+01 1.0000000000000000e+00 5.5393016376465187e+00 1.8334250885743394e+01 1.3691388638769544e+01 
336 1 2 8.0000000000009708e-01 -1.4537534336371557e+01 1.0000000000000000e+00 1.2351873366104924e+01 6.4951660964215012e+00 3.2568929238840552e+00 
154 1 2 8.0000000000002536e-01 2.8748717543086585e+01 1.0000000000000000e+00 1.1524917032116514e+01 6.7559144283754229e+00 3.1917805771165217e+00 
301 1 2 8.0000000000001614e-01 2.9016099519437461e+01 1.0000000000000000e+00 1.1144693007269217e+01 6.9305415662963590e+00 2.2381562133038622e+00 
369 1 2 8.0000000000002058e-01 2.5168709574694727e+01 1.0000000000000000e+00 1.1058413752259280e+01 7.1674694629449371e+00 1.7740139482756943e+00 
306 1 2 8.0000000000002192e-01 -1.3786224051389883e+01 1.0000000000000000e+00 1.1366780372504204e+01 7.4172498485440723e+00 2.9122426869348250e+00 
139 1 2 7.9999999999999039e-01 -4.5533751575745768e+01 1.0000000000000000e+00 1.1939140607045776e+01 7.4633207734564841e+00 1.7952194055048347e+00 
113 1 2 8.0000000000001337e-01 -9.9425880701515865e+00 1.0000000000000000e+00 1.0675427234034865e+01 8.1595562172863456e+00 9.7564408132454017e-01 
294 1 2 7.9999999999997695e-01 -3.3273293463940199e+01 1.0000000000000000e+00 1.0798497736114147e+01 8.3380441624412587e+00 7.8772908727247049e-01 
290 1 2 7.9999999999997717e-01 3.1893105444864609e+01 1.0000000000000000e+00 1.0802258603478855e+01 8.3360316786882418e+00 7.9102497418432560e-01 
75 1 2 7.9999999999997762e-01 2.8072371942259487e+01 1.0000000000000000e+00 1.0804650468304699e+01 8.3347646708507170e+00 7.9313432495473424e-01 
208 1 2 7.9999999999997751e-01 3.0649421079693695e+01 1.0000000000000000e+00 1.0804270915055254e+01 8.3349664949695548e+00 7.9280166638206773e-01 
312 1 2 7.9999999999997717e-01 -1.1877001890015473e+01 1.0000000000000000e+00 1.0803047544705203e+01 8.3356027785186217e+00 7.9170069326003534e-01 
35 1 2 7.9999999999997817e-01 -3.1612629922587367e+01 1.0000000000000000e+00 1.0806247467192334e+01 8.3339155960269746e+00 7.9453187489546706e-01 
253 1 2 7.9999999999997884e-01 7.3989081875369166e+01 1.0000000000000000e+00 1.0810129717868691e+01 8.3318747529678205e+00 7.9795721907777772e-01 
40 1 2 7.9999999999997917e-01 -3.7434820376796068e+01 1.0000000000000000e+00 1.0811306958613574e+01 8.3312597754210795e+00 7.9899875181714797e-01 
236 1 2 7.9999999999997906e-01 1.4790687314409141e+01 1.0000000000000000e+00 1.0810094651191266e+01 8.3318528477262159e+00 7.9785140296944268e-01 
259 1 2 7.9999999999998250e-01 4.0852183849391778e+01 1.0000000000000000e+00 1.0829670961937770e+01 8.3218987978581040e+00 8.1541769626238214e-01 
33 1 2 7.9999999999997695e-01 -4.6936432407421023e+01 1.0000000000000000e+00 1.0801394896672624e+01 8.3364169499837573e+00 7.9012195666220519e-01 
188 1 2 7.9999999999998972e-01 1.3031839601381172e+01 1.0000000000000000e+00 1.0940335762562812e+01 8.2727673884560513e+00 9.1988250010041728e-01 
212 1 2 7.9999999999998961e-01 -4.9475445549794244e+01 1.0000000000000000e+00 1.0947434112039117e+01 8.2698274785219859e+00 9.2669115861894857e-01 
331 1 2 7.9999999999999083e-01 -5.2829872215959838e+01 1.0000000000000000e+00 1.1000123126788484e+01 8.2496062511301567e+00 9.7960678783056909e-01 
18 1 2 8.0000000000004801e-01 -2.0911352977295287e+01 1.0000000000000000e+00 1.2351626652388717e+01 6.5077747079584212e+00 3.4825662913764592e+00 
300 1 2 8.0000000000003690e-01 5.7872062700225079e+01 1.0000000000000000e+00 1.2346422414003147e+01 6.5036425006616421e+00 3.4949768078173000e+00 
243 1 2 8.0000000000003291e-01 2.2316919549121337e+01 1.0000000000000000e+00 1.2342802288321364e+01 6.4999481069825729e+00 3.5013225222971021e+00 
6 1 2 8.0000000000002980e-01 1.8570997222421759e+01 1.0000000000000000e+00 1.2337825511456325e+01 6.4941564113913834e+00 3.5079036608180023e+00 
145 1 2 8.0000000000000582e-01 2.0349156847062137e+01 1.0000000000000000e+00 1.2335620355531757e+01 6.4986421874653750e+00 3.5208069734566814e+00 
313 1 2 7.9999999999998550e-01 -8.7433701924822209e+00 1.0000000000000000e+00 1.2334581121708419e+01 6.4972469560780208e+00 3.5217421571586978e+00 
217 1 2 7.9999999999995697e-01 2.7327225526504051e+01 1.0000000000000000e+00 1.2332409260308664e+01 6.4957608300406156e+00 3.5254584211333460e+00 
88 1 2 7.9999999999996574e-01 6.4324683636274372e+01 1.0000000000000000e+00 1.2330852895060383e+01 6.4949267395684807e+00 3.5283060197207163e+00 
136 1 2 7.9999999999995419e-01 1.6497070058588953e+01 1.0000000000000000e+00 1.2331233885739083e+01 6.4966772558882493e+00 3.5295653201777921e+00 
346 1 2 7.9999999999997395e-01 3.3843816117083151e+01 1.0000000000000000e+00 1.2329996274385593e+01 6.4979462547203459e+00 3.5340397033675721e+00 
100 1 2 7.9999999999996596e-01 2.1494707422214177e+01 1.0000000000000000e+00 1.2328934219860171e+01 6.4980779330518512e+00 3.5366358586003885e+00 
155 1 2 7.9999999999996252e-01 -1.7677933528447312e+01 1.0000000000000000e+00 1.2325033502829459e+01 6.4940242993754911e+00 3.5407167673823179e+00 
76 1 2 7.9999999999998073e-01 1.0255947208060869e+02 1.0000000000000000e+00 1.2318929963366530e+01 6.4890852791427376e+00 3.5477958334912603e+00 
162 1 2 7.9999999999996030e-01 -1.6196814068657460e+01 1.0000000000000000e+00 1.2312781726282763e+01 6.4947124332469759e+00 3.5645436351221087e+00 
211 1 2 7.9999999999996407e-01 -4.1135606473684518e+01 1.0000000000000000e+00 1.2310246062302697e+01 6.5043690118138464e+00 3.5759400513128150e+00 
335 1 2 7.9999999999999882e-01 -3.2806267450517154e+01 1.0000000000000000e+00 1.3291708562262956e+01 3.9926243813802476e+00 6.5839246528411364e+00 
49 1 2 7.9999999999998450e-01 -6.8278073249976558e+01 1.0000000000000000e+00 1.3197328961540421e+01 4.9510060638485189e+00 6.2120342631295333e+00 
200 1 2 7.9999999999998450e-01 2.1927057602439287e+01 1.0000000000000000e+00 1.3196042977914081e+01 4.9654139679112692e+00 6.2180409692510512e+00 
347 1 2 7.9999999999999005e-01 5.6556028761408399e+01 1.0000000000000000e+00 1.3217102667839496e+01 5.0560985348380942e+00 6.2852555836968413e+00 
310 1 2 8.0000000000000404e-01 5.7820573792595042e+01 1.0000000000000000e+00 1.3234469998381782e+01 5.1004569316230652e+00 6.3453973446534935e+00 
326 1 2 8.0000000000000826e-01 -8.6345133998881835e+01 1.0000000000000000e+00 1.3235040446230633e+01 5.1017445875147152e+00 6.3475302494758763e+00 
262 1 2 8.0000000000000215e-01 -5.7945720787869469e+01 1.0000000000000000e+00 1.3235254172945808e+01 5.1023103960904788e+00 6.3484634782507090e+00 
19 1 2 8.0000000000001159e-01 -1.7590755087969889e+01 1.0000000000000000e+00 1.3235977937937429e+01 5.1040479470069879e+00 6.3513791907297259e+00 
220 1 2 8.0000000000001004e-01 -7.3988522703260067e+00 1.0000000000000000e+00 1.3236423406630312e+01 5.1049916464402090e+00 6.3529980397356365e+00 
355 1 2 8.0000000000000626e-01 4.8923036348195311e+01 1.0000000000000000e+00 1.3236384241785199e+01 5.1048702004112192e+00 6.3527947953673713e+00 
320 1 2 8.0000000000000759e-01 3.0599918638364770e+01 1.0000000000000000e+00 1.3236659164607216e+01 5.1053997052993738e+00 6.3537161393448836e+00 
225 1 2 7.9999999999999860e-01 -1.8105625866008310e+01 1.0000000000000000e+00 1.3237467584926325e+01 5.1082426347758103e+00 6.3585156380797239e+00 
378 1 2 8.0000000000001159e-01 -3.1591589174746144e+01 1.0000000000000000e+00 1.1770352532726527e+01 6.8287786224832896e+00 3.4566322189702325e+00 
83 1 2 8.0000000000000027e-01 -1.1070316712846033e+01 1.0000000000000000e+00 1.3324492879439651e+01 3.8405710721198951e+00 6.7106273221630710e+00 
114 1 2 7.9999999999996818e-01 3.3667783549891624e+01 1.0000000000000000e+00 1.3259077732761947e+01 5.2313256961467482e+00 6.7352509856156324e+00 
150 1 2 8.0000000000000060e-01 2.0894233285872271e+01 1.0000000000000000e+00 1.3253040141173347e+01 3.7480414912026525e+00 6.8257247116501096e+00 
118 1 2 7.9999999999995841e-01 -2.1795194099015134e+01 1.0000000000000000e+00 1.2392762673542501e+01 5.7196255975574308e+00 9.9532930907416723e+00 
128 1 2 7.9999999999999483e-01 -4.9559738491171828e+01 1.0000000000000000e+00 1.3084049658944679e+01 5.3403289030610956e+00 8.0721411407697001e+00 
384 1 2 7.9999999999998117e-01 -4.0471544729764972e+01 1.0000000000000000e+00 1.2959162117934493e+01 5.3489032441109767e+00 8.4617608910995514e+00 
70 1 2 7.9999999999995886e-01 1.8040356698735252e+01 1.0000000000000000e+00 1.2352531959453378e+01 5.7390264583784747e+00 9.9927817063827789e+00 
169 1 2 8.0000000000000238e-01 1.2352277252788330e+01 1.0000000000000000e+00 1.2628358390836384e+01 5.4686185304948181e+00 9.4244350548637392e+00 
189 1 2 7.9999999999995197e-01 -1.1108725201113309e+01 1.0000000000000000e+00 1.2418817969847398e+01 5.6633959695395877e+00 9.8658182504608121e+00 
17 1 2 7.9999999999995819e-01 -3.2677917527537275e+01 1.0000000000000000e+00 1.2362415847108959e+01 5.7287483605224594e+00 9.9757233438828035e+00 
74 1 2 7.9999999999998594e-01 4.5998711152021443e+01 1.0000000000000000e+00 1.2501016673371153e+01 5.2030265947585299e+00 9.0606171573164414e+00 
67 1 2 7.9999999999991689e-01 -4.6399788679249355e+01 1.0000000000000000e+00 6.7279933871540818e+00 1.2663699679397897e+00 1.3323519181707447e+01 
247 1 2 8.0000000000005911e-01 2.8697849037514473e+01 1.0000000000000000e+00 7.5163376720218844e+00 2.1160946733756583e+00 1.3328424244692075e+01 
95 1 2 7.9999999999978721e-01 -4.0550748733244482e+01 1.0000000000000000e+00 6.7987800762454702e+00 1.3301192707385563e+00 1.3330415858544479e+01 
366 1 2 7.9999999999978211e-01 2.1723457226092691e+01 1.0000000000000000e+00 6.8069928886023705e+00 1.3371692726044182e+00 1.3331331821995034e+01 
176 1 2 8.0000000000001514e-01 3.9455513014759106e+01 1.0000000000000000e+00 1.2589023976532022e+01 1.9458115765151942e+00 1.3069630511293450e+01 
71 1 2 7.9999999999998495e-01 9.4048202502588030e+00 1.0000000000000000e+00 1.3225277927116027e+01 1.4237558312065641e+00 1.1475315135980228e+01 
156 1 2 8.0000000000001292e-01 -5.3127624583202262e+01 1.0000000000000000e+00 1.3264144700850430e+01 3.8921048169561265e+00 1.1905926482068695e+01 
135 1 2 8.0000000000001426e-01 3.1555867283761949e+00 1.0000000000000000e+00 1.2869349923365419e+01 4.2366877331790489e+00 1.1546418737572147e+01 
184 1 2 7.9999999999997051e-01 4.5907075653130164e-01 1.0000000000000000e+00 1.2982419269065369e+01 4.3234880349855231e+00 1.2263538120424698e+01 
14 1 2 7.9999999999996918e-01 -1.0451166066092489e+01 1.0000000000000000e+00 1.2793141610291105e+01 4.4914978725351107e+00 1.2448703515551840e+01 
56 1 2 7.9999999999996907e-01 -7.6157318979609641e+01 1.0000000000000000e+00 1.2691791093366957e+01 4.5175784982204821e+00 1.2616894655054443e+01 
296 1 2 8.0000000000010552e-01 4.7080513654074863e+01 1.0000000000000000e+00 1.1494640843825355e+01 6.1698507173689912e+00 1.2721326538386574e+01 
62 1 2 8.0000000000001059e-01 3.0028755648526680e+01 1.0000000000000000e+00 1.1867686846743563e+01 6.2569082795008635e+00 1.0935727526982697e+01 
255 1 2 8.0000000000002280e-01 3.7350262992119241e+01 1.0000000000000000e+00 1.1886601890430729e+01 6.2432905199243773e+00 1.0898859021276627e+01 
361 1 2 8.0000000000001614e-01 8.5127737242347283e+00 1.0000000000000000e+00 1.1904012916733649e+01 6.2310794389821398e+00 1.0866358538137403e+01 
246 1 2 8.0000000000001659e-01 7.8118452222236627e+01 1.0000000000000000e+00 1.1974635005775223e+01 6.1745370358261864e+00 1.0729848078098003e+01 
93 1 2 7.9999999999999039e-01 -4.3463025605284670e+01 1.0000000000000000e+00 1.2133399094774285e+01 6.0124380198881946e+00 1.0420108441268100e+01 
15 1 2 7.9999999999997740e-01 -3.9670984367322770e+00 1.0000000000000000e+00 1.2138397862740137e+01 6.0094336074058328e+00 1.0414312065654375e+01 
50 1 2 7.9999999999997884e-01 1.8737847836384187e+01 1.0000000000000000e+00 1.2144136150699302e+01 6.0028335139210638e+00 1.0403323807357125e+01 
360 1 2 7.9999999999997717e-01 7.9901202330510955e+01 1.0000000000000000e+00 1.2154816808793370e+01 5.9862864219045111e+00 1.0377247293803688e+01 
8 1 2 7.9999999999998539e-01 2.0124001436219928e+01 1.0000000000000000e+00 1.2161651079878595e+01 5.9760879184584406e+00 1.0361285928786643e+01 
337 1 2 7.9999999999992832e-01 -5.9798179322588908e+01 1.0000000000000000e+00 1.0325110062643892e+01 6.3116204211243030e+00 1.3295324721793973e+01 
117 1 2 7.9999999999999305e-01 -3.1813836260118333e+00 1.0000000000000000e+00 1.2170321477336524e+01 5.9694381630288804e+00 1.0349569432786216e+01 
31 1 2 7.9999999999998506e-01 -8.9456428903138772e+00 1.0000000000000000e+00 1.2179411024501469e+01 5.9582563125506010e+00 1.0331767356909472e+01 
20 1 2 8.0000000000001636e-01 -3.3629524226026739e+01 1.0000000000000000e+00 1.2187863289203783e+01 5.9462343558394384e+00 1.0313194199772035e+01 
132 1 2 7.9999999999997773e-01 -3.1316638364806455e+01 1.0000000000000000e+00 1.2200562216006897e+01 5.9247203944805538e+00 1.0281095134150357e+01 
295 1 2 8.0000000000010041e-01 -5.5529831177305700e-01 1.0000000000000000e+00 1.1027391048414756e+01 6.5455711562734269e+00 1.3241054378708329e+01 
69 1 2 7.9999999999996962e-01 5.1561516410780314e+01 1.0000000000000000e+00 1.0374009677230770e+01 9.2309379775915996e+00 1.2859717960963781e+01 
54 1 2 7.9999999999998439e-01 1.1399950365893348e+01 1.0000000000000000e+00 1.0502339434427869e+01 7.8829526969689416e+00 1.2362104745481011e+01 
216 1 2 7.9999999999997784e-01 1.3885219046884014e+01 1.0000000000000000e+00 1.0472725945390815e+01 9.5069851545076016e+00 1.3088138904201081e+01 
179 1 2 7.9999999999995530e-01 7.0295681057316855e+01 1.0000000000000000e+00 1.0332430490878643e+01 8.8305794235955801e+00 1.2647250467225343e+01 
108 1 2 7.9999999999997351e-01 1.0977971342469547e+02 1.0000000000000000e+00 1.0347560041319991e+01 8.5741066999934255e+00 1.2548384425561574e+01 
333 1 2 7.9999999999998650e-01 6.0898630531977332e+01 1.0000000000000000e+00 1.0570660757368374e+01 9.6371443270015131e+00 1.3259254692771208e+01 
230 1 2 7.9999999999992888e-01 2.2417665227452673e+01 1.0000000000000000e+00 6.8724038535726697e+00 1.4066006824487411e+00 1.3342703575958783e+01 
78 1 2 8.0000000000000060e-01 1.5135018153176951e+01 1.0000000000000000e+00 6.9000647899032099e+00 1.4494557910381756e+00 1.3348357790431386e+01 
304 1 2 7.9999999999988647e-01 1.7004870197502722e+01 1.0000000000000000e+00 6.9412407912196032e+00 1.5205128171317579e+00 1.3353676724045085e+01 
309 1 2 8.0000000000016613e-01 -3.3486869750398938e+01 1.0000000000000000e+00 7.0777328987511492e+00 1.7695194096245426e+00 1.3346177631803588e+01 
48 1 2 8.0000000000014460e-01 2.2618190257680704e+00 1.0000000000000000e+00 7.0904865253972327e+00 1.8013594248223264e+00 1.3346374643440017e+01 
381 1 2 8.0000000000005489e-01 -3.2234789073957828e+01 1.0000000000000000e+00 7.0934111895424472e+00 1.8754481815228623e+00 1.3373128097688536e+01 
239 1 2 8.0000000000006399e-01 3.9873709748516347e+01 1.0000000000000000e+00 7.2794819024278423e+00 2.3004796017781679e+00 1.3469039751765827e+01 
84 1 2 8.0000000000017202e-01 -1.6927301751504242e+01 1.0000000000000000e+00 8.3549685868320314e+00 3.2667307836068527e+00 1.3764938987584252e+01 
269 1 2 8.0000000000001870e-01 6.3224154979058191e+00 1.0000000000000000e+00 1.3310533208078526e+01 1.7419885787635845e+00 1.3595182824530257e+01 
186 1 2 8.0000000000000460e-01 -1.9002872345811042e+01 1.0000000000000000e+00 1.3125165839361198e+01 2.0179744204515528e+00 1.3933597097771900e+01 
159 1 2 7.9999999999999805e-01 6.5075497825719069e+01 1.0000000000000000e+00 1.3112103652915406e+01 2.1367761850243983e+00 1.4034513172675144e+01 
232 1 2 7.9999999999998916e-01 -3.6573579564985849e+01 1.0000000000000000e+00 1.2887185499963923e+01 2.3891265635577632e+00 1.4162536375068928e+01 
24 1 2 7.9999999999999560e-01 -1.1342736736335866e+01 1.0000000000000000e+00 1.2770765622561859e+01 3.3314092360775942e+00 1.4147860169093400e+01 
61 1 2 7.9999999999997107e-01 -6.9113866891809806e+01 1.0000000000000000e+00 1.3087234587693279e+01 2.4258761368772661e+00 1.4196021167368555e+01 
101 1 2 7.9999999999996829e-01 -1.8865367364580887e+01 1.0000000000000000e+00 1.2939909688247667e+01 2.4680219092650391e+00 1.4205695662362452e+01 
170 1 2 7.9999999999998650e-01 2.0408999159972886e+01 1.0000000000000000e+00 1.2860803252868413e+01 3.1905810628863076e+00 1.4208261922953044e+01 
80 1 2 7.9999999999996885e-01 3.0952436735033384e+01 1.0000000000000000e+00 1.2918111845416826e+01 2.5239726248785224e+00 1.4222207511679871e+01 
25 1 2 7.9999999999997018e-01 -5.6654570542533094e+01 1.0000000000000000e+00 1.2919943730899240e+01 2.5975500347940592e+00 1.4242846144728022e+01 
36 1 2 7.9999999999996962e-01 -7.0927619013575850e+01 1.0000000000000000e+00 1.2957276595273413e+01 2.9973455291572337e+00 1.4257288738005467e+01 
138 1 2 7.9999999999996718e-01 4.5302691327464849e+01 1.0000000000000000e+00 1.2764169885430158e+01 2.6176389290118665e+00 1.4216771898983206e+01 
41 1 2 7.9999999999997151e-01 -1.6551773707955515e+01 1.0000000000000000e+00 1.3009237423162801e+01 2.7147901966141426e+00 1.4266412787952769e+01 
298 1 2 7.9999999999996740e-01 6.7457128752842834e+00 1.0000000000000000e+00 1.2801949355109853e+01 3.0398955212453114e+00 1.4242284641779886e+01 
352 1 2 7.9999999999997307e-01 -1.1616099549926226e+01 1.0000000000000000e+00 8.6567871908691014e+00 3.8882094290504066e+00 1.3691095505535808e+01 
363 1 2 8.0000000000003357e-01 2.5123118191523570e+01 1.0000000000000000e+00 8.6273766172842397e+00 3.8136271113334264e+00 1.3722221457105237e+01 
348 1 2 7.9999999999998284e-01 -3.6309704188963849e+01 1.0000000000000000e+00 8.7176188814712496e+00 3.9348422469040942e+00 1.3691221033631258e+01 
85 1 2 7.9999999999998583e-01 -1.5900779423315099e+01 1.0000000000000000e+00 8.7183264727917198e+00 3.9316476003335468e+00 1.3693882685439004e+01 
240 1 2 7.9999999999998572e-01 3.3602440420479573e+00 1.0000000000000000e+00 8.7199360515447104e+00 3.9346270217392942e+00 1.3692617320384626e+01 
315 1 2 7.9999999999998772e-01 -5.4929776007865179e+01 1.0000000000000000e+00 8.7179591272318131e+00 3.9292971736741205e+00 1.3695305328584521e+01 
349 1 2 7.9999999999999527e-01 -3.2808459476349327e+01 1.0000000000000000e+00 8.7163561641921152e+00 3.9218407608040033e+00 1.3699349585736105e+01 
283 1 2 7.9999999999998506e-01 3.3919544326857412e+01 1.0000000000000000e+00 8.7251844926180375e+00 3.9329844879966611e+00 1.3696311291174613e+01 
157 1 2 7.9999999999998539e-01 -5.4503041499711138e+00 1.0000000000000000e+00 8.7251861342715156e+00 3.9308914972942768e+00 1.3697641038700453e+01 
3 1 2 7.9999999999997884e-01 1.1093269201672925e+01 1.0000000000000000e+00 8.7315808951144032e+00 3.9451040552048928e+00 1.3691206889271275e+01 
195 1 2 7.9999999999999183e-01 7.7175042711241053e+00 1.0000000000000000e+00 8.7262104009501282e+00 3.9309855400363056e+00 1.3698033628047224e+01 
2 1 2 7.9999999999998228e-01 -5.4089001755235671e+01 1.0000000000000000e+00 8.7325918347137677e+00 3.9398060978638485e+00 1.3695315039887934e+01 
104 1 2 7.9999999999996829e-01 -2.6260995206438260e+01 1.0000000000000000e+00 8.7371103966050274e+00 3.9467308972514252e+00 1.3692852458742566e+01 
152 1 2 7.9999999999998050e-01 1.8987590515164716e+00 1.0000000000000000e+00 8.7339715508676328e+00 3.9359455536297485e+00 1.3698330346298214e+01 
302 1 2 7.9999999999996940e-01 7.8784479465774631e+00 1.0000000000000000e+00 8.7390969035965060e+00 3.9470751506283470e+00 1.3693572464863308e+01 
362 1 2 7.9999999999996685e-01 -2.8516533454294347e+01 1.0000000000000000e+00 8.7412764999807742e+00 3.9503687767473119e+00 1.3692396757046168e+01 
124 1 2 7.9999999999997462e-01 1.4041589293988039e+00 1.0000000000000000e+00 8.7397204101443595e+00 3.9401124115684549e+00 1.3698219571388076e+01 
210 1 2 7.9999999999998406e-01 1.1922676360283098e+00 1.0000000000000000e+00 1.0298919617813628e+01 6.5281757025025948e+00 1.3355697372806560e+01 
267 1 2 8.0000000000000415e-01 4.5617675911157690e+01 1.0000000000000000e+00 1.0278423875437504e+01 6.5719702496984658e+00 1.3358611125514049e+01 
96 1 2 7.9999999999998039e-01 -2.0366176336587152e+01 1.0000000000000000e+00 1.0314353211239283e+01 6.5780475616460938e+00 1.3389856589716910e+01 
328 1 2 7.9999999999998794e-01 -2.7624393466566339e+01 1.0000000000000000e+00 1.2130223908365243e+01 4.1461055051246252e+00 1.3450283976402046e+01 
379 1 2 7.9999999999999560e-01 -1.5088579291028685e+01 1.0000000000000000e+00 1.2165016898309041e+01 4.0218140885177460e+00 1.3565917501233345e+01 
316 1 2 8.0000000000003746e-01 -3.8745874877036599e+01 1.0000000000000000e+00 1.2463380194268353e+01 3.7163074329257042e+00 1.3873207333087755e+01 
318 1 2 8.0000000000004035e-01 1.3405402321287426e+01 1.0000000000000000e+00 1.2578767097258989e+01 3.5919652331307317e+00 1.3979764341667204e+01 
323 1 2 8.0000000000003202e-01 1.3804644522058525e+00 1.0000000000000000e+00 1.2672552863906503e+01 3.5319414955351731e+00 1.4029573767845919e+01 
199 1 2 8.0000000000000560e-01 -3.3255797139504836e+01 1.0000000000000000e+00 1.0314655703376943e+01 6.6528865701102218e+00 1.3425737513855118e+01 
166 1 2 7.9999999999998606e-01 7.6679813022277656e+01 1.0000000000000000e+00 1.0631140488407294e+01 9.6838912230397636e+00 1.3359757769853106e+01 
11 1 2 7.9999999999999327e-01 -1.9148401232677728e+01 1.0000000000000000e+00 1.0663170575693313e+01 9.6989071745036615e+00 1.3408905699685775e+01 
196 1 2 7.9999999999998650e-01 1.6507775607769801e+02 1.0000000000000000e+00 1.0691006675572204e+01 9.7054070476340808e+00 1.3433118029847803e+01 
98 1 2 8.0000000000002724e-01 -1.2676341760935848e+01 1.0000000000000000e+00 1.0273875389930888e+01 6.7360311416870600e+00 1.3440345360282606e+01 
237 1 2 8.0000000000000260e-01 3.4779911839080363e+01 1.0000000000000000e+00 1.0333230610925048e+01 6.6773675112030304e+00 1.3448369478524246e+01 
165 1 2 8.0000000000000027e-01 2.8705062612857418e+01 1.0000000000000000e+00 1.0198076505586545e+01 6.8599984112580898e+00 1.3441380493832416e+01 
107 1 2 8.0000000000001381e-01 -2.4721819191328995e+00 1.0000000000000000e+00 1.0324280484615937e+01 6.6946981784959618e+00 1.3452097702319621e+01 
12 1 2 7.9999999999999261e-01 1.6285307185769753e+01 1.0000000000000000e+00 1.0735309690278477e+01 9.7113463132385505e+00 1.3508044312258765e+01 
97 1 2 7.9999999999998650e-01 1.4703326983753854e+01 1.0000000000000000e+00 1.0724240757712087e+01 9.7110052853702875e+00 1.3509803592131737e+01 
291 1 2 7.9999999999998572e-01 4.7659999104879290e+01 1.0000000000000000e+00 1.0752771107601076e+01 9.7087539662666664e+00 1.3548044897726546e+01 
191 1 2 7.9999999999999305e-01 2.2187477459982546e+01 1.0000000000000000e+00 1.0760683697191125e+01 9.7084060897283138e+00 1.3549484794906645e+01 
119 1 2 7.9999999999999805e-01 -2.7598436749350100e+01 1.0000000000000000e+00 1.0765349224994637e+01 9.7060214802250719e+00 1.3566842480094424e+01 