LAMMPS data file via write_data, version 30 Jul 2016, timestep = 50000000

3234 atoms
8 atom types

0.0000000000000000e+00 1.0000000000000000e+02 xlo xhi
0.0000000000000000e+00 4.0000000000000000e+01 ylo yhi
0.0000000000000000e+00 4.0000000000000000e+01 zlo zhi

Masses

1 3.896
2 5.36
3 20.064
4 8.378
5 8.378
6 8.378
7 8.378
8 8.378

Atoms # meso-molecular

225 226 2 1.0280000000298057e+00 3.5225360560800183e+01 1.0000000000000000e+00 2.9899182544057716e+01 1.0000000000000000e+01 1.3213325750933445e+00 
219 220 2 1.0280000000301579e+00 1.9950374899764631e+02 1.0000000000000000e+00 3.2612480923608331e+01 1.0000000000000000e+01 1.0254177846585051e+00 
687 688 2 1.0280000000298057e+00 3.5225360560800183e+01 1.0000000000000000e+00 2.9899182544057716e+01 1.3000000000000000e+01 1.3213325750933445e+00 
681 682 2 1.0280000000301579e+00 1.9950374899764631e+02 1.0000000000000000e+00 3.2612480923608331e+01 1.3000000000000000e+01 1.0254177846585051e+00 
1055 1056 2 1.0280000000000002e+00 1.2104501722337861e+02 1.0000000000000000e+00 2.0671234138316009e+01 1.6000000000000000e+01 1.3081823202605460e+00 
1221 1222 2 1.0280000000000000e+00 -2.9131951832652396e+02 1.0000000000000000e+00 2.7103844670450151e+01 1.6000000000000000e+01 1.3571631037603658e+00 
1140 1141 2 1.0279999999568952e+00 1.7714441842894541e+02 1.0000000000000000e+00 3.1457044586372067e+01 1.6000000000000000e+01 8.0132355115951426e-01 
1388 1389 2 1.0279999977095731e+00 -7.0430852408239545e+01 1.0000000000000000e+00 3.2758205023079789e+01 1.9000000000000000e+01 7.3906639857014544e-01 
247 248 2 1.0280000000000000e+00 1.7707568551422702e+02 1.0000000000000000e+00 4.4810730218272576e+00 1.0000000000000000e+01 2.5812808693881570e+00 
174 175 2 1.0280000000000002e+00 -1.5573171453407880e+01 1.0000000000000000e+00 1.4554616826658762e+01 1.0000000000000000e+01 2.8800361398742185e+00 
226 227 2 1.0279999999796130e+00 -1.1733055875873663e+02 1.0000000000000000e+00 3.1266080733456494e+01 1.0000000000000000e+01 2.2439506706969872e+00 
709 710 2 1.0280000000000000e+00 1.7707568551422702e+02 1.0000000000000000e+00 4.4810730218272576e+00 1.3000000000000000e+01 2.5812808693881570e+00 
636 637 2 1.0280000000000002e+00 -1.5573171453407880e+01 1.0000000000000000e+00 1.4554616826658762e+01 1.3000000000000000e+01 2.8800361398742185e+00 
688 689 2 1.0279999999796130e+00 -1.1733055875873663e+02 1.0000000000000000e+00 3.1266080733456494e+01 1.3000000000000000e+01 2.2439506706969872e+00 
1012 1013 2 1.0280000000000002e+00 -3.7692759875038262e-01 1.0000000000000000e+00 2.0506496844039464e+01 1.6000000000000000e+01 2.8642481048971438e+00 
1220 1221 2 1.0280000000000000e+00 -4.9195544537518231e+01 1.0000000000000000e+00 2.5892457303431687e+01 1.6000000000000000e+01 2.3476275146658474e+00 
1181 1182 2 1.0280000000592358e+00 -1.9947891776173465e+00 1.0000000000000000e+00 3.0549957592311387e+01 1.6000000000000000e+01 2.1896808858346746e+00 
1182 1183 2 1.0279999999552234e+00 -1.6515893531400316e+01 1.0000000000000000e+00 3.2300003246698736e+01 1.6000000000000000e+01 2.3427411449813387e+00 
1602 1603 2 1.0280000196343628e+00 1.7720404268549566e+02 1.0000000000000000e+00 3.1615279212264433e+01 1.9000000000000000e+01 2.1328295827960422e+00 
290 291 2 1.0280000000000000e+00 -2.2468303400465275e+00 1.0000000000000000e+00 5.6401505494090962e+00 1.0000000000000000e+01 3.6324794173785175e+00 
173 174 2 1.0280000000000002e+00 -2.5191394610475265e-01 1.0000000000000000e+00 1.3046834245217019e+01 1.0000000000000000e+01 3.2984507540347900e+00 
218 219 2 1.0280000000000002e+00 -4.6654382534054037e+01 1.0000000000000000e+00 1.8419181699060896e+01 1.0000000000000000e+01 4.4543874277393387e+00 
170 171 2 1.0279999999999996e+00 -2.2743761730867291e+01 1.0000000000000000e+00 2.5510641928529935e+01 1.0000000000000000e+01 4.2514258277544323e+00 
171 172 2 1.0279999999999996e+00 2.8101537990035274e+02 1.0000000000000000e+00 2.6948719186479959e+01 1.0000000000000000e+01 3.6346496103066350e+00 
223 224 2 1.0280000000236571e+00 1.1810737732931455e+02 1.0000000000000000e+00 3.1119399851564012e+01 1.0000000000000000e+01 4.1722123716669381e+00 
224 225 2 1.0279999999920706e+00 1.7674861110659509e+02 1.0000000000000000e+00 3.2690614490401479e+01 1.0000000000000000e+01 3.9602873988979264e+00 
752 753 2 1.0280000000000000e+00 -2.2468303400465275e+00 1.0000000000000000e+00 5.6401505494090962e+00 1.3000000000000000e+01 3.6324794173785175e+00 
635 636 2 1.0280000000000002e+00 -2.5191394610475265e-01 1.0000000000000000e+00 1.3046834245217019e+01 1.3000000000000000e+01 3.2984507540347900e+00 
680 681 2 1.0280000000000002e+00 -4.6654382534054037e+01 1.0000000000000000e+00 1.8419181699060896e+01 1.3000000000000000e+01 4.4543874277393387e+00 
632 633 2 1.0279999999999996e+00 -2.2743761730867291e+01 1.0000000000000000e+00 2.5510641928529935e+01 1.3000000000000000e+01 4.2514258277544323e+00 
633 634 2 1.0279999999999996e+00 2.8101537990035274e+02 1.0000000000000000e+00 2.6948719186479959e+01 1.3000000000000000e+01 3.6346496103066350e+00 
685 686 2 1.0280000000236571e+00 1.1810737732931455e+02 1.0000000000000000e+00 3.1119399851564012e+01 1.3000000000000000e+01 4.1722123716669381e+00 
686 687 2 1.0279999999920706e+00 1.7674861110659509e+02 1.0000000000000000e+00 3.2690614490401479e+01 1.3000000000000000e+01 3.9602873988979264e+00 
1258 1259 2 1.0280000000000005e+00 -2.9170952409401809e+02 1.0000000000000000e+00 1.5046227802351751e+01 1.6000000000000000e+01 3.6047211099678051e+00 
1259 1260 2 1.0280000000000005e+00 -4.9515397576644887e+01 1.0000000000000000e+00 1.6553121494440170e+01 1.6000000000000000e+01 3.1831164337764699e+00 
1304 1305 2 1.0280000000000009e+00 -6.5565187700396365e+01 1.0000000000000000e+00 2.2842078445013321e+01 1.6000000000000000e+01 4.3477379005229917e+00 
1261 1262 2 1.0280000000000000e+00 5.0811810287501714e+01 1.0000000000000000e+00 2.4460491289771188e+01 1.6000000000000000e+01 4.2799130037980211e+00 
1143 1144 2 1.0279999997262401e+00 1.9950509628792281e+02 1.0000000000000000e+00 3.3161065941898556e+01 1.6000000000000000e+01 4.0029708631783416e+00 
1769 1770 2 1.0279999999999996e+00 -5.3594669744910064e+01 1.0000000000000000e+00 5.2043507643082023e+00 1.9000000000000000e+01 3.3059485372286375e+00 
1643 1644 2 1.0279999906165389e+00 -1.9682416568127121e+00 1.0000000000000000e+00 3.0932176454292591e+01 1.9000000000000000e+01 3.6809615476827058e+00 
1644 1645 2 1.0279999976235972e+00 -1.6484268533246425e+01 1.0000000000000000e+00 3.2646539938736431e+01 1.9000000000000000e+01 3.6566038017474405e+00 
175 176 2 1.0280000000000000e+00 4.3145765199330057e+01 1.0000000000000000e+00 9.2331936806091761e+00 1.0000000000000000e+01 5.3633217587266024e+00 
259 260 2 1.0280000000000002e+00 4.3929821866239422e+01 1.0000000000000000e+00 1.7254195978798155e+01 1.0000000000000000e+01 5.4990344369372632e+00 
637 638 2 1.0280000000000000e+00 4.3145765199330057e+01 1.0000000000000000e+00 9.2331936806091761e+00 1.3000000000000000e+01 5.3633217587266024e+00 
721 722 2 1.0280000000000002e+00 4.3929821866239422e+01 1.0000000000000000e+00 1.7254195978798155e+01 1.3000000000000000e+01 5.4990344369372632e+00 
927 928 2 1.0280000000000009e+00 8.4709306766273642e+01 1.0000000000000000e+00 2.3114778298942269e+01 1.6000000000000000e+01 6.1529281812725491e+00 
929 930 2 1.0280000000000000e+00 2.8249817970306070e+00 1.0000000000000000e+00 2.4733191143700136e+01 1.6000000000000000e+01 6.0851032845475848e+00 
1149 1150 2 1.0280000003465777e+00 3.5222621750400890e+01 1.0000000000000000e+00 3.2185055723022039e+01 1.6000000000000000e+01 5.6141707720804446e+00 
1433 1434 2 1.0279999999999996e+00 -5.3632096822012571e+01 1.0000000000000000e+00 5.8450342996435261e+00 1.9000000000000000e+01 4.7335352105316995e+00 
1810 1811 2 1.0279999999999998e+00 2.7288092961733241e+01 1.0000000000000000e+00 1.5930925451251989e+01 1.9000000000000000e+01 6.0498164701547505e+00 
1555 1556 2 1.0279999999999996e+00 -9.7184977762141983e+01 1.0000000000000000e+00 2.7651668548656094e+01 1.9000000000000000e+01 4.8112738440425344e+00 
1513 1514 2 1.0279999999999996e+00 -1.1803388400964388e+02 1.0000000000000000e+00 2.9041640498726611e+01 1.9000000000000000e+01 5.5299233276292377e+00 
217 218 2 1.0280000000000000e+00 -1.5492734340682929e+02 1.0000000000000000e+00 8.9516198663045721e+00 1.0000000000000000e+01 6.9025408104993593e+00 
221 222 2 1.0279999999999996e+00 -1.4489604585792571e+02 1.0000000000000000e+00 2.6683851372636830e+01 1.0000000000000000e+01 7.5168367504012714e+00 
222 223 2 1.0279999999999996e+00 1.0991968228686517e+02 1.0000000000000000e+00 2.8137166766560469e+01 1.0000000000000000e+01 6.9368768655584905e+00 
679 680 2 1.0280000000000000e+00 -1.5492734340682929e+02 1.0000000000000000e+00 8.9516198663045721e+00 1.3000000000000000e+01 6.9025408104993593e+00 
683 684 2 1.0279999999999996e+00 -1.4489604585792571e+02 1.0000000000000000e+00 2.6683851372636830e+01 1.3000000000000000e+01 7.5168367504012714e+00 
684 685 2 1.0279999999999996e+00 1.0991968228686517e+02 1.0000000000000000e+00 2.8137166766560469e+01 1.3000000000000000e+01 6.9368768655584905e+00 
1260 1261 2 1.0280000000000007e+00 -1.1818934592501216e+02 1.0000000000000000e+00 2.7842805083717899e+01 1.6000000000000000e+01 7.1705794358628525e+00 
1724 1725 2 1.0279999999999998e+00 1.3840416150880296e+02 1.0000000000000000e+00 1.5384569570114582e+01 1.9000000000000000e+01 7.5160955545683690e+00 
383 384 2 1.0279999347834265e+00 -5.3597746571203992e+01 1.0000000000000000e+00 3.0808905492915212e+01 1.0000000000000000e+01 8.6558409597719415e+00 
845 846 2 1.0279999347834265e+00 -5.3597746571203992e+01 1.0000000000000000e+00 3.0808905492915212e+01 1.3000000000000000e+01 8.6558409597719415e+00 
1135 1136 2 1.0279999999999991e+00 1.4459131433520491e+02 1.0000000000000000e+00 2.1155385013626944e+01 1.6000000000000000e+01 8.8360807613417425e+00 
1136 1137 2 1.0279999999999991e+00 1.3708728830543458e+02 1.0000000000000000e+00 2.2711141752084067e+01 1.6000000000000000e+01 8.6684499974959230e+00 
1218 1219 2 1.0280000000000007e+00 -9.6369029114569770e+01 1.0000000000000000e+00 2.7211332167547130e+01 1.6000000000000000e+01 8.6022641282393018e+00 
969 970 2 1.0279999999999996e+00 -8.3817354695172739e+00 1.0000000000000000e+00 3.0542281156481302e+01 1.6000000000000000e+01 7.7888748769643179e+00 
972 973 2 1.0279999999999996e+00 1.0859368410015378e+02 1.0000000000000000e+00 3.1880810468662570e+01 1.6000000000000000e+01 8.5993182017402159e+00 
1559 1560 2 1.0279999999999996e+00 -2.2529667327751191e-01 1.0000000000000000e+00 1.1410194397355351e+01 1.9000000000000000e+01 8.3456702136583161e+00 
1560 1561 2 1.0279999999999996e+00 -1.5544105308612753e+01 1.0000000000000000e+00 1.2927422799567450e+01 1.9000000000000000e+01 7.9629208468878510e+00 
1472 1473 2 1.0279999999999994e+00 1.3845651212715325e+02 1.0000000000000000e+00 1.9447737926076588e+01 1.9000000000000000e+01 8.6495690875479241e+00 
1609 1610 2 1.0279999999999996e+00 1.1813925930494062e+02 1.0000000000000000e+00 2.2833718345179371e+01 1.9000000000000000e+01 8.1189500688215812e+00 
1610 1611 2 1.0279999999999996e+00 1.7677677506880508e+02 1.0000000000000000e+00 2.4371644805544378e+01 1.9000000000000000e+01 7.8303997183601188e+00 
336 337 2 1.0280000943010295e+00 -1.1819997273760677e+02 1.0000000000000000e+00 2.8869307726984484e+01 1.0000000000000000e+01 9.8459100499838783e+00 
47 48 2 1.0280000653624897e+00 -5.3631820237993267e+01 1.0000000000000000e+00 3.1143579973271290e+01 1.0000000000000000e+01 1.0184393993503232e+01 
798 799 2 1.0280000943010295e+00 -1.1819997273760677e+02 1.0000000000000000e+00 2.8869307726984484e+01 1.3000000000000000e+01 9.8459100499838783e+00 
509 510 2 1.0280000653624897e+00 -5.3631820237993267e+01 1.0000000000000000e+00 3.1143579973271290e+01 1.3000000000000000e+01 1.0184393993503232e+01 
1390 1391 2 1.0279999999999994e+00 2.7409500574872084e+01 1.0000000000000000e+00 1.9886124140398540e+01 1.9000000000000000e+01 1.0151666497616507e+01 
1557 1558 2 1.0280000000000007e+00 2.8104766757478774e+02 1.0000000000000000e+00 2.9067795816353104e+01 1.9000000000000000e+01 1.0643799501692353e+01 
294 295 2 1.0279999056771536e+00 -9.6385525800308670e+01 1.0000000000000000e+00 2.8650985869165066e+01 1.0000000000000000e+01 1.1395366573017185e+01 
384 385 2 1.0280001596270105e+00 1.0851445694642274e+02 1.0000000000000000e+00 3.3128941802168917e+01 1.0000000000000000e+01 1.1289355124300270e+01 
756 757 2 1.0279999056771536e+00 -9.6385525800308670e+01 1.0000000000000000e+00 2.8650985869165066e+01 1.3000000000000000e+01 1.1395366573017185e+01 
846 847 2 1.0280001596270105e+00 1.0851445694642274e+02 1.0000000000000000e+00 3.3128941802168917e+01 1.3000000000000000e+01 1.1289355124300270e+01 
1213 1214 2 1.0279999999999994e+00 -1.3571763543908796e+01 1.0000000000000000e+00 3.5707186308649366e+00 1.6000000000000000e+01 1.1405390056650175e+01 
1556 1557 2 1.0280000000000007e+00 -2.2719059647395767e+01 1.0000000000000000e+00 2.7705400975896321e+01 1.9000000000000000e+01 1.1413448383286420e+01 
1605 1606 2 1.0280000000000011e+00 1.9954331285961183e+02 1.0000000000000000e+00 3.1482789832188224e+01 1.9000000000000000e+01 1.1704559351769497e+01 
1606 1607 2 1.0280000000000011e+00 -3.1454653792566927e+02 1.0000000000000000e+00 3.3042929661188730e+01 1.9000000000000000e+01 1.1824737620223221e+01 
254 255 2 1.0279999998820195e+00 -2.2682232219096356e+01 1.0000000000000000e+00 2.5336892095403837e+01 1.0000000000000000e+01 1.3509020754338195e+01 
213 214 2 1.0280000000340124e+00 -1.2632838713691513e+02 1.0000000000000000e+00 2.6538827371331656e+01 1.0000000000000000e+01 1.2353370275985240e+01 
381 382 2 1.0279998404369053e+00 -8.4917072389995916e+00 1.0000000000000000e+00 3.1962040327702578e+01 1.0000000000000000e+01 1.2331862431686934e+01 
716 717 2 1.0279999998820195e+00 -2.2682232219096356e+01 1.0000000000000000e+00 2.5336892095403837e+01 1.3000000000000000e+01 1.3509020754338195e+01 
675 676 2 1.0280000000340124e+00 -1.2632838713691513e+02 1.0000000000000000e+00 2.6538827371331656e+01 1.3000000000000000e+01 1.2353370275985240e+01 
843 844 2 1.0279998404369053e+00 -8.4917072389995916e+00 1.0000000000000000e+00 3.1962040327702578e+01 1.3000000000000000e+01 1.2331862431686934e+01 
1384 1385 2 1.0279999999999994e+00 8.6713612561183368e+01 1.0000000000000000e+00 3.4393877108643038e+00 1.6000000000000000e+01 1.2964630670440767e+01 
1049 1050 2 1.0280000000000000e+00 1.3884803698250073e+02 1.0000000000000000e+00 2.2202306862565717e+01 1.6000000000000000e+01 1.3529441820786872e+01 
1146 1147 2 1.0280000000000005e+00 1.0992835090597188e+02 1.0000000000000000e+00 2.9099728474209357e+01 1.6000000000000000e+01 1.3825731002850080e+01 
1686 1687 2 1.0280000000000002e+00 -7.9279712058657651e+01 1.0000000000000000e+00 2.7388100145472993e+01 1.9000000000000000e+01 1.3799531520932822e+01 
1687 1688 2 1.0280000000000002e+00 4.8630704718047983e+00 1.0000000000000000e+00 2.8942648984815175e+01 1.9000000000000000e+01 1.3621046204051737e+01 
169 170 2 1.0280000000000000e+00 -9.7178230079173858e+01 1.0000000000000000e+00 3.0783660711020500e+00 1.0000000000000000e+01 1.5196934277920466e+01 
255 256 2 1.0280000001676819e+00 2.8083576793716418e+02 1.0000000000000000e+00 2.6999782574026085e+01 1.0000000000000000e+01 1.4035649279537555e+01 
419 420 2 1.0280000003348908e+00 -7.0047466159074702e+01 1.0000000000000000e+00 2.9799688469292374e+01 1.0000000000000000e+01 1.5161698044228579e+01 
340 341 2 1.0279999997144433e+00 -4.8505861572383896e-01 1.0000000000000000e+00 3.2709904779668250e+01 1.0000000000000000e+01 1.4699782563860197e+01 
631 632 2 1.0280000000000000e+00 -9.7178230079173858e+01 1.0000000000000000e+00 3.0783660711020500e+00 1.3000000000000000e+01 1.5196934277920466e+01 
717 718 2 1.0280000001676819e+00 2.8083576793716418e+02 1.0000000000000000e+00 2.6999782574026085e+01 1.3000000000000000e+01 1.4035649279537555e+01 
881 882 2 1.0280000003348908e+00 -7.0047466159074702e+01 1.0000000000000000e+00 2.9799688469292374e+01 1.3000000000000000e+01 1.5161698044228579e+01 
802 803 2 1.0279999997144433e+00 -4.8505861572383896e-01 1.0000000000000000e+00 3.2709904779668250e+01 1.3000000000000000e+01 1.4699782563860197e+01 
1050 1051 2 1.0280000000000000e+00 4.9174287190687963e+01 1.0000000000000000e+00 2.3000746132234198e+01 1.6000000000000000e+01 1.4875166099713848e+01 
1145 1146 2 1.0279999999999982e+00 -1.4488853649306321e+02 1.0000000000000000e+00 2.7668789823288797e+01 1.6000000000000000e+01 1.4483805331425481e+01 
1805 1806 2 1.0279999999999998e+00 -7.0047045469055718e+01 1.0000000000000000e+00 5.3724668774743574e+00 1.9000000000000000e+01 1.4022016730899921e+01 
1389 1390 2 1.0280000000000007e+00 8.4707803256070576e+01 1.0000000000000000e+00 8.9687227805431888e+00 1.9000000000000000e+01 1.5096863628015889e+01 
1391 1392 2 1.0280000000000007e+00 2.8235795337737990e+00 1.0000000000000000e+00 1.0527898321179286e+01 1.9000000000000000e+01 1.4964762395151100e+01 
1722 1723 2 1.0280000000000002e+00 -1.1818003919960665e+02 1.0000000000000000e+00 2.4013938437288239e+01 1.9000000000000000e+01 1.4146084643718762e+01 
127 128 2 1.0280000000000000e+00 -1.1802682067207439e+02 1.0000000000000000e+00 4.5500566888902876e+00 1.0000000000000000e+01 1.5728541113614238e+01 
211 212 2 1.0280000002848171e+00 1.4457094873203181e+02 1.0000000000000000e+00 2.6334344239929607e+01 1.0000000000000000e+01 1.5795495768589848e+01 
212 213 2 1.0279999996680589e+00 1.3706924769223860e+02 1.0000000000000000e+00 2.7932691112663086e+01 1.0000000000000000e+01 1.5750486433229131e+01 
83 84 2 1.0279999998352252e+00 -7.0245290302812322e+01 1.0000000000000000e+00 2.9874227191647822e+01 1.0000000000000000e+01 1.6743017710689507e+01 
299 300 2 1.0279999998870377e+00 1.2056472059684032e+02 1.0000000000000000e+00 3.1696936184255531e+01 1.0000000000000000e+01 1.6058410481169428e+01 
388 389 2 1.0280000002327641e+00 1.0720749859971912e+02 1.0000000000000000e+00 3.3228486600781835e+01 1.0000000000000000e+01 1.6895488820136485e+01 
589 590 2 1.0280000000000000e+00 -1.1802682067207439e+02 1.0000000000000000e+00 4.5500566888902876e+00 1.3000000000000000e+01 1.5728541113614238e+01 
673 674 2 1.0280000002848171e+00 1.4457094873203181e+02 1.0000000000000000e+00 2.6334344239929607e+01 1.3000000000000000e+01 1.5795495768589848e+01 
674 675 2 1.0279999996680589e+00 1.3706924769223860e+02 1.0000000000000000e+00 2.7932691112663086e+01 1.3000000000000000e+01 1.5750486433229131e+01 
545 546 2 1.0279999998352252e+00 -7.0245290302812322e+01 1.0000000000000000e+00 2.9874227191647822e+01 1.3000000000000000e+01 1.6743017710689507e+01 
761 762 2 1.0279999998870377e+00 1.2056472059684032e+02 1.0000000000000000e+00 3.1696936184255531e+01 1.3000000000000000e+01 1.6058410481169428e+01 
850 851 2 1.0280000002327641e+00 1.0720749859971912e+02 1.0000000000000000e+00 3.3228486600781835e+01 1.3000000000000000e+01 1.6895488820136485e+01 
1094 1095 2 1.0280000000000000e+00 -2.2753852945382498e+01 1.0000000000000000e+00 2.8255080507277818e+01 1.6000000000000000e+01 1.6391952790442687e+01 
1095 1096 2 1.0280000000000020e+00 2.8101037653176172e+02 1.0000000000000000e+00 2.9686019158198352e+01 1.6000000000000000e+01 1.5733878461867246e+01 
1305 1306 2 1.0280000002652880e+00 -8.4954822594330359e+00 1.0000000000000000e+00 3.2809163384150885e+01 1.6000000000000000e+01 1.5626662316960603e+01 
1469 1470 2 1.0279999999999998e+00 -7.0243298106156061e+01 1.0000000000000000e+00 5.3299648399485831e+00 1.9000000000000000e+01 1.5586201080344841e+01 
1680 1681 2 1.0280000000000002e+00 -9.6372888748439948e+01 1.0000000000000000e+00 2.3825835511430924e+01 1.9000000000000000e+01 1.5699499073781192e+01 
44 45 2 1.0280000000000002e+00 -6.4473959747917490e+01 1.0000000000000000e+00 1.6567667853234937e+01 1.0000000000000000e+01 1.7007759504861671e+01 
85 86 2 1.0280000000000002e+00 5.1257952810390506e+01 1.0000000000000000e+00 1.8086992669811966e+01 1.0000000000000000e+01 1.7382100531167154e+01 
506 507 2 1.0280000000000002e+00 -6.4473959747917490e+01 1.0000000000000000e+00 1.6567667853234937e+01 1.3000000000000000e+01 1.7007759504861671e+01 
547 548 2 1.0280000000000002e+00 5.1257952810390506e+01 1.0000000000000000e+00 1.8086992669811966e+01 1.3000000000000000e+01 1.7382100531167154e+01 
1147 1148 2 1.0280000000000007e+00 1.1810640018732673e+02 1.0000000000000000e+00 1.6974129706459593e+01 1.6000000000000000e+01 1.7221512443361270e+01 
1148 1149 2 1.0280000000000007e+00 1.7673938927893300e+02 1.0000000000000000e+00 1.8527337094749697e+01 1.6000000000000000e+01 1.7031707514017235e+01 
1010 1011 2 1.0280000000000000e+00 1.3845607478122736e+02 1.0000000000000000e+00 2.2225268404952324e+01 1.6000000000000000e+01 1.7276684546759292e+01 
1264 1265 2 1.0279999999881499e+00 -4.9365584951137326e-01 1.0000000000000000e+00 3.3273486898414681e+01 1.6000000000000000e+01 1.7652723587664571e+01 
1774 1775 2 1.0280000000707892e+00 1.0713682685548585e+02 1.0000000000000000e+00 3.3109427282114083e+01 1.9000000000000000e+01 1.7489097145649449e+01 
334 335 2 1.0279999999999996e+00 -2.9171020232085436e+02 1.0000000000000000e+00 1.1309465009816677e+01 1.0000000000000000e+01 1.9178388985150040e+01 
335 336 2 1.0279999999999996e+00 -4.9514703992754235e+01 1.0000000000000000e+00 1.2847458744385266e+01 1.0000000000000000e+01 1.8890197426165333e+01 
166 167 2 1.0280000000000000e+00 -2.9143326204077016e+02 1.0000000000000000e+00 2.6482575622937549e+01 1.0000000000000000e+01 1.9269050081788496e+01 
167 168 2 1.0280000000000000e+00 -4.9142462662477982e+01 1.0000000000000000e+00 2.8042156219743905e+01 1.0000000000000000e+01 1.9396280048020511e+01 
214 215 2 1.0280000001196501e+00 -3.7876037952615206e+01 1.0000000000000000e+00 3.1327150460362674e+01 1.0000000000000000e+01 1.9729055300520830e+01 
215 216 2 1.0279999998994145e+00 5.3190522219931154e+01 1.0000000000000000e+00 3.2386135376373375e+01 1.0000000000000000e+01 1.8488052240769282e+01 
796 797 2 1.0279999999999996e+00 -2.9171020232085436e+02 1.0000000000000000e+00 1.1309465009816677e+01 1.3000000000000000e+01 1.9178388985150040e+01 
797 798 2 1.0279999999999996e+00 -4.9514703992754235e+01 1.0000000000000000e+00 1.2847458744385266e+01 1.3000000000000000e+01 1.8890197426165333e+01 
628 629 2 1.0280000000000000e+00 -2.9143326204077016e+02 1.0000000000000000e+00 2.6482575622937549e+01 1.3000000000000000e+01 1.9269050081788496e+01 
629 630 2 1.0280000000000000e+00 -4.9142462662477982e+01 1.0000000000000000e+00 2.8042156219743905e+01 1.3000000000000000e+01 1.9396280048020511e+01 
676 677 2 1.0280000001196501e+00 -3.7876037952615206e+01 1.0000000000000000e+00 3.1327150460362674e+01 1.3000000000000000e+01 1.9729055300520830e+01 
677 678 2 1.0279999998994145e+00 5.3190522219931154e+01 1.0000000000000000e+00 3.2386135376373375e+01 1.3000000000000000e+01 1.8488052240769282e+01 
1097 1098 2 1.0279999999999943e+00 -2.5143197181968052e-01 1.0000000000000000e+00 1.1268779181505842e+01 1.6000000000000000e+01 1.9610123629507406e+01 
1098 1099 2 1.0279999999999943e+00 -1.5569833574679999e+01 1.0000000000000000e+00 1.2779198766005898e+01 1.6000000000000000e+01 1.9201330551042275e+01 
928 929 2 1.0280000000000000e+00 2.7420178881906509e+01 1.0000000000000000e+00 2.2840779000603639e+01 1.6000000000000000e+01 1.8715303957473338e+01 
1223 1224 2 1.0280000000942362e+00 1.2056682778926475e+02 1.0000000000000000e+00 3.2223973779930084e+01 1.6000000000000000e+01 1.9026291465589019e+01 
1677 1678 2 1.0280000000000000e+00 3.7987531532227784e+01 1.0000000000000000e+00 6.0453660162793943e+00 1.9000000000000000e+01 1.8919857099294489e+01 
1719 1720 2 1.0280000000000000e+00 -2.1768022602559910e+02 1.0000000000000000e+00 7.6015448502100682e+00 1.9000000000000000e+01 1.8756191161884054e+01 
1721 1722 2 1.0280000125327755e+00 -4.9515703736734842e+01 1.0000000000000000e+00 2.2196494567125132e+01 1.9000000000000000e+01 1.9717019157854100e+01 
1599 1600 2 1.0279999999163800e+00 -1.2633653429350665e+02 1.0000000000000000e+00 2.5311044011230887e+01 1.9000000000000000e+01 1.9860026577679445e+01 
300 301 2 1.0279999999999994e+00 -7.9330941244055509e+01 1.0000000000000000e+00 2.1255359810775371e+01 1.0000000000000000e+01 2.0932741191395632e+01 
301 302 2 1.0279999999999994e+00 4.8079160116016197e+00 1.0000000000000000e+00 2.2799768580979023e+01 1.0000000000000000e+01 2.1184297651778422e+01 
256 257 2 1.0280000000071505e+00 3.8356155217549194e+01 1.0000000000000000e+00 3.2588656746056003e+01 1.0000000000000000e+01 2.1015294600565223e+01 
762 763 2 1.0279999999999994e+00 -7.9330941244055509e+01 1.0000000000000000e+00 2.1255359810775371e+01 1.3000000000000000e+01 2.0932741191395632e+01 
763 764 2 1.0279999999999994e+00 4.8079160116016197e+00 1.0000000000000000e+00 2.2799768580979023e+01 1.3000000000000000e+01 2.1184297651778422e+01 
718 719 2 1.0280000000071505e+00 3.8356155217549194e+01 1.0000000000000000e+00 3.2588656746056003e+01 1.3000000000000000e+01 2.1015294600565223e+01 
1093 1094 2 1.0279999999999982e+00 -9.7179779537360758e+01 1.0000000000000000e+00 2.9586803183858869e+01 1.6000000000000000e+01 2.0745013841727740e+01 
1051 1052 2 1.0279999999999982e+00 -1.1802910908851447e+02 1.0000000000000000e+00 3.1031019468450172e+01 1.6000000000000000e+01 2.1347274935908313e+01 
1720 1721 2 1.0279999879485708e+00 -2.9169715888531482e+02 1.0000000000000000e+00 2.0693371803828068e+01 1.9000000000000000e+01 2.0151876800142102e+01 
1640 1641 2 1.0280000008043173e+00 -2.2697836651980133e+01 1.0000000000000000e+00 2.4076020577822096e+01 1.9000000000000000e+01 2.1017136874411502e+01 
1641 1642 2 1.0279999998802685e+00 2.8082281972900000e+02 1.0000000000000000e+00 2.5712852365757207e+01 1.9000000000000000e+01 2.1526536772037804e+01 
1642 1643 2 1.0280000014291300e+00 3.8360115225676395e+01 1.0000000000000000e+00 3.2457631787219633e+01 1.9000000000000000e+01 2.1032443433127632e+01 
298 299 2 1.0280000000348331e+00 -2.1779095009028202e+02 1.0000000000000000e+00 3.1469637407618663e+01 1.0000000000000000e+01 2.2348865902107018e+01 
760 761 2 1.0280000000348331e+00 -2.1779095009028202e+02 1.0000000000000000e+00 3.1469637407618663e+01 1.3000000000000000e+01 2.2348865902107018e+01 
1726 1727 2 1.0280000039306540e+00 -5.2155068834124996e-01 1.0000000000000000e+00 2.7344015781551860e+01 1.9000000000000000e+01 2.2626337699470064e+01 
1684 1685 2 1.0279999994957354e+00 -2.1779380485687130e+02 1.0000000000000000e+00 3.1460791278421649e+01 1.9000000000000000e+01 2.2340205727311588e+01 
125 126 2 1.0279999999999978e+00 1.3884224483219987e+02 1.0000000000000000e+00 2.0354344241589526e+01 1.0000000000000000e+01 2.3843534911054928e+01 
3 4 2 1.0280000000000009e+00 8.4707385947661436e+01 1.0000000000000000e+00 2.6490386413217895e+01 1.0000000000000000e+01 2.3715728319352703e+01 
5 6 2 1.0280000000000009e+00 2.8218674528408423e+00 1.0000000000000000e+00 2.8053121388234423e+01 1.0000000000000000e+01 2.3636113621574292e+01 
341 342 2 1.0280000000337468e+00 1.5559885189061875e+01 1.0000000000000000e+00 3.2865395792737239e+01 1.0000000000000000e+01 2.3265768989267027e+01 
587 588 2 1.0279999999999978e+00 1.3884224483219987e+02 1.0000000000000000e+00 2.0354344241589526e+01 1.3000000000000000e+01 2.3843534911054928e+01 
465 466 2 1.0280000000000009e+00 8.4707385947661436e+01 1.0000000000000000e+00 2.6490386413217895e+01 1.3000000000000000e+01 2.3715728319352703e+01 
467 468 2 1.0280000000000009e+00 2.8218674528408423e+00 1.0000000000000000e+00 2.8053121388234423e+01 1.3000000000000000e+01 2.3636113621574292e+01 
803 804 2 1.0280000000337468e+00 1.5559885189061875e+01 1.0000000000000000e+00 3.2865395792737239e+01 1.3000000000000000e+01 2.3265768989267027e+01 
1099 1100 2 1.0279999999999994e+00 4.3123464427303404e+01 1.0000000000000000e+00 3.4783365840083640e+00 1.6000000000000000e+01 2.4234596681330771e+01 
1347 1348 2 1.0279999984807850e+00 8.4944619828019370e+01 1.0000000000000000e+00 2.0644370078143531e+01 1.6000000000000000e+01 2.3147810121088540e+01 
1349 1350 2 1.0280000014186796e+00 3.1604030671943035e+00 1.0000000000000000e+00 2.2177232200620498e+01 1.6000000000000000e+01 2.3462155201180977e+01 
1139 1140 2 1.0279999998924525e+00 5.3189348202477603e+01 1.0000000000000000e+00 3.0833759953128183e+01 1.6000000000000000e+01 2.4079858534453848e+01 
1180 1181 2 1.0279999998847522e+00 3.8351343809153185e+01 1.0000000000000000e+00 3.3200180811201868e+01 1.6000000000000000e+01 2.3930822029778447e+01 
1590 1591 2 1.0279999215561180e+00 4.1659221875567340e+01 1.0000000000000000e+00 1.8590946037088663e+01 1.9000000000000000e+01 2.3963997888146451e+01 
1685 1686 2 1.0279999960113289e+00 1.2051015623483835e+02 1.0000000000000000e+00 2.6334298263735644e+01 1.9000000000000000e+01 2.3840543358056703e+01 
1604 1605 2 1.0280000011143964e+00 -4.6680322848125698e+01 1.0000000000000000e+00 3.0135534596991889e+01 1.9000000000000000e+01 2.3612043475439194e+01 
1727 1728 2 1.0280000040134032e+00 1.5555463916298416e+01 1.0000000000000000e+00 3.2743044453577269e+01 1.9000000000000000e+01 2.3761467574615850e+01 
126 127 2 1.0279999999999978e+00 4.9173958961981569e+01 1.0000000000000000e+00 2.0906901418313190e+01 1.0000000000000000e+01 2.5307488349075914e+01 
421 422 2 1.0280000000385197e+00 -2.6201344913452340e+02 1.0000000000000000e+00 3.1465067159939050e+01 1.0000000000000000e+01 2.6144998607195205e+01 
342 343 2 1.0280000000596388e+00 -1.1598042219243408e+02 1.0000000000000000e+00 3.2787313025206963e+01 1.0000000000000000e+01 2.5061806261839813e+01 
588 589 2 1.0279999999999978e+00 4.9173958961981569e+01 1.0000000000000000e+00 2.0906901418313190e+01 1.3000000000000000e+01 2.5307488349075914e+01 
883 884 2 1.0280000000385197e+00 -2.6201344913452340e+02 1.0000000000000000e+00 3.1465067159939050e+01 1.3000000000000000e+01 2.6144998607195205e+01 
804 805 2 1.0280000000596388e+00 -1.1598042219243408e+02 1.0000000000000000e+00 3.2787313025206963e+01 1.3000000000000000e+01 2.5061806261839813e+01 
1141 1142 2 1.0279999999999994e+00 -1.5495383764053835e+02 1.0000000000000000e+00 3.1105453760321442e+00 1.6000000000000000e+01 2.5755520324903213e+01 