LAMMPS data file via write_data, version 30 Jul 2016, timestep = 50400000

180 atoms
2 atom types

0.0000000000000000e+00 2.0000000000000000e+01 xlo xhi
0.0000000000000000e+00 2.0000000000000000e+01 ylo yhi
0.0000000000000000e+00 2.0000000000000000e+01 zlo zhi

Masses

1 3.896
2 4.31

Atoms # meso-molecular

56 1 2 1.0279999779071327e+00 -5.7466607834597028e+02 1.0000000000000000e+00 1.0396966922168682e+01 9.0367924405312223e+00 7.4231976829037061e+00 
91 1 2 1.0279999202788177e+00 -5.4866080618961200e+02 1.0000000000000000e+00 1.0883041155884694e+01 9.1727170964805982e+00 7.4530165933454837e+00 
19 1 2 1.0279999228807242e+00 -7.1419332750604258e+02 1.0000000000000000e+00 1.0875929371036115e+01 9.2615997200280198e+00 7.4353844148938402e+00 
55 1 2 1.0279999218184233e+00 -6.1491149301254643e+02 1.0000000000000000e+00 1.0888329434010291e+01 9.2833839732817456e+00 7.4378095114587683e+00 
128 1 2 1.0279998929268948e+00 -3.8224516642359379e+02 1.0000000000000000e+00 1.1346390448674581e+01 9.4515355281419602e+00 7.7885746601950734e+00 
164 1 2 1.0279998929268752e+00 -4.0304215598501014e+02 1.0000000000000000e+00 1.1346390438148740e+01 9.4515354926165625e+00 7.7885746414150674e+00 
127 1 2 1.0279998929268876e+00 -4.0643651830282482e+02 1.0000000000000000e+00 1.1346390482807960e+01 9.4515356400421968e+00 7.7885747206622744e+00 
170 1 2 1.0279998929269254e+00 -6.4098019962226965e+02 1.0000000000000000e+00 1.1346390650633618e+01 9.4515360238304709e+00 7.7885749961835460e+00 
133 1 2 1.0279998929269258e+00 -5.1327327511761075e+02 1.0000000000000000e+00 1.1346390629230950e+01 9.4515359947913247e+00 7.7885749636522688e+00 
163 1 2 1.0279998929268919e+00 -5.0026890221265637e+02 1.0000000000000000e+00 1.1346390482351483e+01 9.4515356361655591e+00 7.7885747195420976e+00 
169 1 2 1.0279998929269325e+00 -6.3815481422098662e+02 1.0000000000000000e+00 1.1346390634032353e+01 9.4515360059804223e+00 7.7885749715622214e+00 
177 1 2 1.0279998929269554e+00 -4.3930528973859731e+02 1.0000000000000000e+00 1.1346391410989012e+01 9.4515366333178648e+00 7.7885760966343689e+00 
140 1 2 1.0279998929269243e+00 -4.8551184360194225e+02 1.0000000000000000e+00 1.1346390704175118e+01 9.4515361325485561e+00 7.7885750822868740e+00 
134 1 2 1.0279998929269218e+00 -4.9677416152551933e+02 1.0000000000000000e+00 1.1346390697523193e+01 9.4515361066961905e+00 7.7885750699733922e+00 
103 1 2 1.0279998929269147e+00 -4.7780073000447453e+02 1.0000000000000000e+00 1.1346390677756840e+01 9.4515361039220895e+00 7.7885750430768059e+00 
176 1 2 1.0279998929269190e+00 -5.0667262846689385e+02 1.0000000000000000e+00 1.1346390704417042e+01 9.4515361332627386e+00 7.7885750827050630e+00 
139 1 2 1.0279998929269136e+00 -5.0172483177768021e+02 1.0000000000000000e+00 1.1346390682288828e+01 9.4515361042828179e+00 7.7885750492075347e+00 
175 1 2 1.0279998929269201e+00 -5.8241229167926087e+02 1.0000000000000000e+00 1.1346390687502389e+01 9.4515361177286437e+00 7.7885750579661712e+00 
25 1 2 1.0279999205860828e+00 -6.4986760772708851e+02 1.0000000000000000e+00 1.0900359275688768e+01 9.2971684521217721e+00 7.4413730537839555e+00 
61 1 2 1.0279999157872000e+00 -5.7093817339045324e+02 1.0000000000000000e+00 1.0937316694946480e+01 9.3055485276713679e+00 7.4564915947491883e+00 
67 1 2 1.0279999200757681e+00 -6.2526300255703222e+02 1.0000000000000000e+00 1.0906473929503214e+01 9.3085246680462159e+00 7.4430200001329130e+00 
97 1 2 1.0279999136836584e+00 -4.7395919983581484e+02 1.0000000000000000e+00 1.0955231133596959e+01 9.3097456537803680e+00 7.4644557518682859e+00 
27 1 2 1.0280000720550773e+00 -6.5831841007173648e+02 1.0000000000000000e+00 9.0570167007802951e+00 9.3113616490472939e+00 9.5536295898759036e+00 
52 1 2 1.0279998966635207e+00 -4.2928216469613147e+02 1.0000000000000000e+00 1.1097454720981240e+01 9.0429175878037871e+00 7.6123102528881530e+00 
16 1 2 1.0279999668316917e+00 -4.9576506041963529e+02 1.0000000000000000e+00 1.0289411084276272e+01 8.2551359299364027e+00 8.3216864490774007e+00 
21 1 2 1.0279999843597263e+00 -5.1052054586546672e+02 1.0000000000000000e+00 1.0006726897067752e+01 8.2554442827941088e+00 8.5258631994521448e+00 
58 1 2 1.0280000059714323e+00 -4.5789256038456472e+02 1.0000000000000000e+00 9.4689810623056214e+00 8.4649998443694443e+00 9.4213264176145941e+00 
20 1 2 1.0279999991003530e+00 -5.8798319193408429e+02 1.0000000000000000e+00 9.9878462210480361e+00 8.5495561365387758e+00 7.9031662712546664e+00 
92 1 2 1.0279999291998576e+00 -5.6429522311802600e+02 1.0000000000000000e+00 1.0794762115377475e+01 8.9816497160096969e+00 7.4843695583872227e+00 
22 1 2 1.0280000197577412e+00 -5.6309337472703487e+02 1.0000000000000000e+00 9.2725313827860454e+00 8.7459984153360786e+00 9.8748294675002235e+00 
57 1 2 1.0280000293303915e+00 -5.2549725777252161e+02 1.0000000000000000e+00 9.2309367856347517e+00 8.7673817223253394e+00 9.6783077618381235e+00 
93 1 2 1.0280000418859101e+00 -5.4460387434853055e+02 1.0000000000000000e+00 9.1572306673346002e+00 8.9402101466783144e+00 9.7809089652417089e+00 
26 1 2 1.0280000826915872e+00 -8.0284772857563655e+02 1.0000000000000000e+00 9.2210674662191128e+00 9.5234339468801039e+00 8.3511351510838150e+00 
62 1 2 1.0280000866157477e+00 -5.7238701983239514e+02 1.0000000000000000e+00 9.1907735029249622e+00 9.6343167429013157e+00 8.4923030997834879e+00 
99 1 2 1.0279999231292034e+00 -4.3334530984670607e+02 1.0000000000000000e+00 1.1545285170176120e+01 9.6550907696166401e+00 9.0097851545610510e+00 
63 1 2 1.0280000822659769e+00 -5.4603590487216297e+02 1.0000000000000000e+00 9.1556779530171841e+00 9.7091316302633253e+00 9.8206757892162848e+00 
100 1 2 1.0279999201708134e+00 -4.7331738919451112e+02 1.0000000000000000e+00 1.1235274193223734e+01 9.6986794478355449e+00 9.9672441392643165e+00 
31 1 2 1.0280000890611030e+00 -6.5013151955118008e+02 1.0000000000000000e+00 9.2368693395092158e+00 9.8054643381021140e+00 8.5204900100233125e+00 
98 1 2 1.0280000878545452e+00 -5.4044983546549736e+02 1.0000000000000000e+00 9.1707430245352821e+00 9.8670422330497836e+00 9.4161482121412767e+00 
106 1 2 1.0279999354553360e+00 -5.0327979079606962e+02 1.0000000000000000e+00 1.1253334798184158e+01 9.8648108447600826e+00 9.7466298975330155e+00 
32 1 2 1.0280000900872757e+00 -5.7662920064718003e+02 1.0000000000000000e+00 9.1852610283692808e+00 9.8832203695675425e+00 8.9380023033907605e+00 
68 1 2 1.0280000898978601e+00 -5.4661250131059046e+02 1.0000000000000000e+00 9.1909128480806412e+00 9.9057848906860055e+00 8.9977061544664512e+00 
33 1 2 1.0280000888485490e+00 -5.4058104270386923e+02 1.0000000000000000e+00 9.1972650654973016e+00 9.9325821517306121e+00 9.2098450334195885e+00 
69 1 2 1.0280000871295836e+00 -5.1809909532636368e+02 1.0000000000000000e+00 9.2114220517539724e+00 9.9373769764159423e+00 9.4387262265705640e+00 
89 1 2 1.0280000442456267e+00 -5.3320226091304346e+02 1.0000000000000000e+00 1.0178021838997767e+01 8.1542615188115164e+00 1.4611343279371642e+01 
96 1 2 1.0280000414043593e+00 -5.1629252940523338e+02 1.0000000000000000e+00 1.0208517559489412e+01 8.3397692848404947e+00 1.4557234095736318e+01 
162 1 2 1.0280000388657862e+00 -6.1192982080179434e+02 1.0000000000000000e+00 1.0232381974762690e+01 8.4906153299337674e+00 1.4375541431227720e+01 
125 1 2 1.0280000379487304e+00 -5.7440735280568674e+02 1.0000000000000000e+00 1.0236259857272563e+01 8.5347529452288544e+00 1.4307068772390615e+01 
161 1 2 1.0280000374005211e+00 -7.0907690294661859e+02 1.0000000000000000e+00 1.0238042704902696e+01 8.5558759425895712e+00 1.4261821679141443e+01 
132 1 2 1.0280000328209373e+00 -6.0916894099990566e+02 1.0000000000000000e+00 1.0216725936887480e+01 8.7386653976632935e+00 1.4171104154608557e+01 
131 1 2 1.0280000302414991e+00 -6.4101245911858859e+02 1.0000000000000000e+00 1.0207806981526014e+01 8.7929265808578876e+00 1.4066490971483745e+01 
167 1 2 1.0280000289820623e+00 -7.5602514005053092e+02 1.0000000000000000e+00 1.0200746334172281e+01 8.8206375996772906e+00 1.4038352139201455e+01 
168 1 2 1.0280000279815782e+00 -7.4608709961194165e+02 1.0000000000000000e+00 1.0192557089445582e+01 8.8478046653034408e+00 1.4031557269886969e+01 
138 1 2 1.0280000278624366e+00 -6.7003674944954423e+02 1.0000000000000000e+00 1.0190354821946912e+01 8.8541219974829239e+00 1.4037664847065836e+01 
165 1 2 1.0280000225880885e+00 -5.3612720328273895e+02 1.0000000000000000e+00 1.0186803613645674e+01 8.8589334960576291e+00 1.3833093053686136e+01 
129 1 2 1.0280000220703900e+00 -5.2434151690054409e+02 1.0000000000000000e+00 1.0182469969523215e+01 8.8726155821856469e+00 1.3832962689890214e+01 
174 1 2 1.0280000242858018e+00 -7.6450297910601432e+02 1.0000000000000000e+00 1.0173233685908313e+01 8.9057179926324839e+00 1.3949690317315063e+01 
166 1 2 1.0280000188044269e+00 -7.1155329738099169e+02 1.0000000000000000e+00 1.0161666912650825e+01 8.9273951947003667e+00 1.3804457947944639e+01 
137 1 2 1.0280000195253478e+00 -7.4479169929032525e+02 1.0000000000000000e+00 1.0158273112147336e+01 8.9392034635982327e+00 1.3839031904703251e+01 
180 1 2 1.0280000163674659e+00 -7.4473025970013236e+02 1.0000000000000000e+00 1.0140869580268232e+01 8.9761153082703409e+00 1.3800822306881317e+01 
173 1 2 1.0280000145516321e+00 -7.1535481860000220e+02 1.0000000000000000e+00 1.0137270831806573e+01 8.9804858520435200e+00 1.3766560530876916e+01 
130 1 2 1.0280000087007615e+00 -5.6382693414202038e+02 1.0000000000000000e+00 1.0128918900056435e+01 8.9835592685028836e+00 1.3663926333079209e+01 
179 1 2 1.0280000109158829e+00 -7.4256176143684877e+02 1.0000000000000000e+00 1.0123646439820043e+01 9.0031644456469184e+00 1.3718073833200190e+01 
143 1 2 1.0280000098085871e+00 -6.2647493162519777e+02 1.0000000000000000e+00 1.0115850448625325e+01 9.0180280273913791e+00 1.3713082011729442e+01 
172 1 2 1.0279999933162638e+00 -8.0167208962746940e+02 1.0000000000000000e+00 1.0083432655174580e+01 9.0461242385042731e+00 1.3526572222055860e+01 
178 1 2 1.0279999406227616e+00 -5.9333375802514536e+02 1.0000000000000000e+00 9.9922130692851940e+00 9.1107932901628423e+00 1.3220406521138106e+01 
136 1 2 1.0279999200268113e+00 -5.2034773261216344e+02 1.0000000000000000e+00 9.9747597095955971e+00 9.1117646141942181e+00 1.3145430538269121e+01 
171 1 2 1.0279998843895664e+00 -5.7164635814409485e+02 1.0000000000000000e+00 9.9394681248398946e+00 9.1252640970860650e+00 1.3047469526640930e+01 
142 1 2 1.0279998756454845e+00 -5.3146621377608892e+02 1.0000000000000000e+00 9.9306525764411422e+00 9.1294320352969365e+00 1.3028183992559969e+01 
135 1 2 1.0279998237694057e+00 -4.6007588288449739e+02 1.0000000000000000e+00 9.8984138549315830e+00 9.1320179428539525e+00 1.2928531391697788e+01 
94 1 2 1.0279996328329308e+00 -4.0698810238400290e+02 1.0000000000000000e+00 9.6353835837269468e+00 9.2031555115064325e+00 1.2684022812878549e+01 
141 1 2 1.0279998311714547e+00 -3.9361033363403152e+02 1.0000000000000000e+00 9.4906731379345395e+00 9.2985803552565702e+00 1.2893962986846644e+01 
28 1 2 1.0280000427383407e+00 -5.9302741898306249e+02 1.0000000000000000e+00 9.2190070107374993e+00 9.3616491252561929e+00 1.0409319135190218e+01 
64 1 2 1.0280000618964742e+00 -5.7675420964708530e+02 1.0000000000000000e+00 9.3204345765147583e+00 9.7385906601183034e+00 1.0359347008874664e+01 
70 1 2 1.0280000624375747e+00 -5.4664783632896786e+02 1.0000000000000000e+00 9.4254447178829839e+00 9.9083100145222947e+00 1.0322094583415478e+01 
126 1 2 1.0280000746163578e+00 -5.0761170044666875e+02 1.0000000000000000e+00 7.9988031989432997e+00 6.6004987083905506e+00 1.5438164522864932e+01 
95 1 2 1.0279999461241496e+00 -4.6629839725622088e+02 1.0000000000000000e+00 7.8525971341635170e+00 9.3095953192582783e+00 1.5474302231057312e+01 
40 1 2 1.0280000652760379e+00 -3.9675530566340041e+02 1.0000000000000000e+00 7.7381763237642147e+00 6.6511460292512128e+00 1.5645857782526921e+01 
41 1 2 1.0280000652760379e+00 -4.3543569254231608e+02 1.0000000000000000e+00 7.7381763237642147e+00 6.6511460292512128e+00 1.5645857782526921e+01 
47 1 2 1.0280000652760379e+00 -4.3750558076024981e+02 1.0000000000000000e+00 7.7381763237642147e+00 6.6511460292512128e+00 1.5645857782526921e+01 
77 1 2 1.0280000652760379e+00 -3.7855512258965388e+02 1.0000000000000000e+00 7.7381763237642147e+00 6.6511460292512128e+00 1.5645857782526921e+01 
4 1 2 1.0280000652760379e+00 -4.7208004616938263e+02 1.0000000000000000e+00 7.7381763237642147e+00 6.6511460292512128e+00 1.5645857782526921e+01 
10 1 2 1.0280000652760379e+00 -5.5412471172183189e+02 1.0000000000000000e+00 7.7381763237642147e+00 6.6511460292512128e+00 1.5645857782526921e+01 
5 1 2 1.0280000652760379e+00 -4.6510247402669171e+02 1.0000000000000000e+00 7.7381763237642147e+00 6.6511460292512128e+00 1.5645857782526921e+01 
42 1 2 1.0280000652760379e+00 -5.2199475162587908e+02 1.0000000000000000e+00 7.7381763237642147e+00 6.6511460292512128e+00 1.5645857782526921e+01 
11 1 2 1.0280000652760379e+00 -5.1535849785884943e+02 1.0000000000000000e+00 7.7381763237642147e+00 6.6511460292512128e+00 1.5645857782526921e+01 
6 1 2 1.0280000652760379e+00 -7.2398313908588830e+02 1.0000000000000000e+00 7.7381763237642147e+00 6.6511460292512128e+00 1.5645857782526921e+01 
12 1 2 1.0280000652760379e+00 -5.1240448589968958e+02 1.0000000000000000e+00 7.7381763237642147e+00 6.6511460292512128e+00 1.5645857782526921e+01 
48 1 2 1.0280000652760379e+00 -4.3197240659765697e+02 1.0000000000000000e+00 7.7381763237642147e+00 6.6511460292512128e+00 1.5645857782526921e+01 
71 1 2 1.0279999124592740e+00 -5.5410668887105101e+02 1.0000000000000000e+00 7.0064299363756968e+00 7.9908526900886265e+00 1.6334348467348697e+01 
35 1 2 1.0279999124352115e+00 -6.3395091577582855e+02 1.0000000000000000e+00 7.0065028434072758e+00 7.9912925744975700e+00 1.6334324388758429e+01 
107 1 2 1.0279999124024772e+00 -5.2958892757518163e+02 1.0000000000000000e+00 7.0065588911300765e+00 7.9918586030962055e+00 1.6334247955031231e+01 
36 1 2 1.0279999123718222e+00 -7.3196897037413692e+02 1.0000000000000000e+00 7.0066282757971177e+00 7.9924020905652418e+00 1.6334192738556744e+01 
65 1 2 1.0279999123212751e+00 -6.0772536556513478e+02 1.0000000000000000e+00 7.0068078741332664e+00 7.9933496132583404e+00 1.6334165485175820e+01 
72 1 2 1.0279999123174408e+00 -6.2939713060644431e+02 1.0000000000000000e+00 7.0067388988075239e+00 7.9933572432661455e+00 1.6334081230985010e+01 
108 1 2 1.0279999122446748e+00 -5.1950604125012501e+02 1.0000000000000000e+00 7.0068298053728242e+00 7.9945961358932145e+00 1.6333872018615335e+01 
102 1 2 1.0279999122111596e+00 -5.1311554337428254e+02 1.0000000000000000e+00 7.0069732056273599e+00 7.9952444105470963e+00 1.6333876096059143e+01 
30 1 2 1.0279999121952250e+00 -6.8272599822522295e+02 1.0000000000000000e+00 7.0070263270161055e+00 7.9955429319220315e+00 1.6333862370711827e+01 
66 1 2 1.0279999121900600e+00 -6.0976070812626278e+02 1.0000000000000000e+00 7.0071254438116037e+00 7.9957040093489082e+00 1.6333938977434254e+01 
24 1 2 1.0279999120893422e+00 -7.5715810187655859e+02 1.0000000000000000e+00 7.0073806057535366e+00 7.9975270318698364e+00 1.6333769526932954e+01 
34 1 2 1.0279999124459436e+00 -7.2510725779404265e+02 1.0000000000000000e+00 7.0065224936518753e+00 7.9911355437485829e+00 1.6334387517093088e+01 
29 1 2 1.0279999123503381e+00 -6.7571260349226338e+02 1.0000000000000000e+00 7.0067839784021633e+00 7.9928647398256967e+00 1.6334260726434081e+01 
101 1 2 1.0279999122144521e+00 -4.9886155452528510e+02 1.0000000000000000e+00 7.0071666636799943e+00 7.9953418475296401e+00 1.6334081747659322e+01 
59 1 2 1.0279999120838084e+00 -5.4976104406248487e+02 1.0000000000000000e+00 7.0076032868218192e+00 7.9977903306832738e+00 1.6333966305340301e+01 
60 1 2 1.0279999119631336e+00 -5.5421890296422373e+02 1.0000000000000000e+00 7.0079883591195093e+00 8.0000515002397012e+00 1.6333830862207826e+01 
23 1 2 1.0279999120047638e+00 -6.0012105478117564e+02 1.0000000000000000e+00 7.0080002219986604e+00 7.9993819915484172e+00 1.6334021708555692e+01 
54 1 2 1.0279999117324246e+00 -4.6564798546613173e+02 1.0000000000000000e+00 7.0088437697196211e+00 8.0045016889460854e+00 1.6333660353678887e+01 
53 1 2 1.0279999117073837e+00 -5.0733971627354714e+02 1.0000000000000000e+00 7.0089948624016900e+00 8.0050322618841445e+00 1.6333696707687395e+01 
17 1 2 1.0279999116865906e+00 -5.2498940027604078e+02 1.0000000000000000e+00 7.0090994800931510e+00 8.0054585199095190e+00 1.6333705660502368e+01 
18 1 2 1.0279999116467391e+00 -5.4864551166648312e+02 1.0000000000000000e+00 7.0092437159360577e+00 8.0062323156393127e+00 1.6333666897882267e+01 
90 1 2 1.0279999109907343e+00 -3.8961594376502575e+02 1.0000000000000000e+00 7.0114939902691553e+00 8.0190859515713360e+00 1.6332731604071046e+01 
15 1 2 1.0280000008290004e+00 -4.9357311811365008e+02 1.0000000000000000e+00 1.3322530656140652e+01 1.0930336566439275e+01 1.0941347856574557e+00 
51 1 2 1.0280000008092987e+00 -4.2342351761013970e+02 1.0000000000000000e+00 1.3318592046712741e+01 1.0918495416861349e+01 1.0636712551298886e+00 
50 1 2 1.0280000008558376e+00 -5.5219672752017732e+02 1.0000000000000000e+00 1.3311535136679879e+01 1.0910007440979461e+01 9.7861465394898450e-01 
14 1 2 1.0280000008667953e+00 -5.7849985061538041e+02 1.0000000000000000e+00 1.3310956337352088e+01 1.0898648890704010e+01 9.5745407527503112e-01 
87 1 2 1.0280000008334391e+00 -4.3698895236134160e+02 1.0000000000000000e+00 1.3314543420528901e+01 1.0874854707956459e+01 1.0072156836144379e+00 
49 1 2 1.0280000009866403e+00 -5.6250887509338361e+02 1.0000000000000000e+00 1.3319192540822071e+01 1.0846391452632529e+01 7.9641336256257256e-01 
9 1 2 1.0280000009534036e+00 -5.8548993796418131e+02 1.0000000000000000e+00 1.3315728882072637e+01 1.0845441429434358e+01 8.3915823628569997e-01 
45 1 2 1.0280000009356753e+00 -4.9623405599420238e+02 1.0000000000000000e+00 1.3315056272707835e+01 1.0843545413952693e+01 8.5297402839538761e-01 
13 1 2 1.0280000009885129e+00 -7.3841770410320828e+02 1.0000000000000000e+00 1.3319770536739327e+01 1.0841214693183005e+01 7.9473434133631371e-01 
85 1 2 1.0280000010108550e+00 -4.8960452640583833e+02 1.0000000000000000e+00 1.3323067924005752e+01 1.0837081636865101e+01 7.6856482092630440e-01 
43 1 2 1.0280000010134904e+00 -5.9843326535296671e+02 1.0000000000000000e+00 1.3324224294271826e+01 1.0826260093945127e+01 7.6708144161080605e-01 
73 1 2 1.0280000010267525e+00 -6.0495210104130183e+02 1.0000000000000000e+00 1.3326195934398811e+01 1.0824445869090441e+01 7.5335670285680278e-01 
44 1 2 1.0280000010131647e+00 -6.1516371313055993e+02 1.0000000000000000e+00 1.3324358473316694e+01 1.0823915072209797e+01 7.6780086301578432e-01 
8 1 2 1.0280000010127952e+00 -6.5375322293945783e+02 1.0000000000000000e+00 1.3324302040471089e+01 1.0823841352891233e+01 7.6831145071103912e-01 
7 1 2 1.0280000010156891e+00 -6.1038119883235402e+02 1.0000000000000000e+00 1.3324908213399889e+01 1.0823661698536856e+01 7.6364667466880087e-01 
74 1 2 1.0280000010151573e+00 -6.5208810582023852e+02 1.0000000000000000e+00 1.3324841020604023e+01 1.0823334241157568e+01 7.6442063284213679e-01 
37 1 2 1.0280000010163040e+00 -6.2011098962077972e+02 1.0000000000000000e+00 1.3325164963618262e+01 1.0822060111460141e+01 7.6286490823607089e-01 
39 1 2 1.0280000010117345e+00 -5.1863523943290761e+02 1.0000000000000000e+00 1.3324337017158374e+01 1.0821506687369675e+01 7.6987271620079922e-01 
38 1 2 1.0280000010151897e+00 -5.4218793463703753e+02 1.0000000000000000e+00 1.3325167509057822e+01 1.0820002139267224e+01 7.6443688206626315e-01 
1 1 2 1.0280000010162740e+00 -6.9881516187978684e+02 1.0000000000000000e+00 1.3325393329865486e+01 1.0819711183777365e+01 7.6290308086782788e-01 
3 1 2 1.0280000010141874e+00 -6.6092350087326929e+02 1.0000000000000000e+00 1.3325012550329944e+01 1.0819455417664400e+01 7.6609031651886783e-01 
2 1 2 1.0280000010152437e+00 -5.7420070018705928e+02 1.0000000000000000e+00 1.3325288159939422e+01 1.0818906888375777e+01 7.6435441690855266e-01 
104 1 2 1.0280000679797119e+00 -5.0131018422611601e+02 1.0000000000000000e+00 9.5756205924422328e+00 1.0267554791990962e+01 9.6913472561246330e+00 
105 1 2 1.0280000524550363e+00 -4.8342074281195409e+02 1.0000000000000000e+00 9.7111072112413019e+00 1.0220852672115974e+01 1.0099989273776151e+01 
113 1 2 3.5189241656666542e-01 -5.5650190385575615e+02 1.0000000000000000e+00 1.4489808724566705e+01 2.5614366800547308e+00 1.5798191977610328e+01 
114 1 2 3.5189241656666542e-01 -5.1433995731815958e+02 1.0000000000000000e+00 1.4489808724566736e+01 2.5614366800547406e+00 1.5798191977610362e+01 
120 1 2 3.5189241656666542e-01 -4.8524989739137879e+02 1.0000000000000000e+00 1.4489808724566689e+01 2.5614366800547210e+00 1.5798191977610262e+01 
150 1 2 3.5189241656666542e-01 -7.8864393798768754e+02 1.0000000000000000e+00 1.4489808724566693e+01 2.5614366800547361e+00 1.5798191977610298e+01 
156 1 2 3.5189241656666542e-01 -5.6236037022298467e+02 1.0000000000000000e+00 1.4489808724566730e+01 2.5614366800547210e+00 1.5798191977610330e+01 
109 1 2 3.5189241656666542e-01 -4.1052202083878501e+02 1.0000000000000000e+00 1.4489808724566744e+01 2.5614366800547308e+00 1.5798191977610362e+01 
119 1 2 3.5189241656666542e-01 -4.0440070714782269e+02 1.0000000000000000e+00 1.4489808724566734e+01 2.5614366800547210e+00 1.5798191977610330e+01 
78 1 2 3.5189241656666542e-01 -4.8945860113418269e+02 1.0000000000000000e+00 1.4489808724566734e+01 2.5614366800547308e+00 1.5798191977610362e+01 
84 1 2 3.5189241656666542e-01 -3.4079083415715093e+02 1.0000000000000000e+00 1.4489808724566734e+01 2.5614366800547210e+00 1.5798191977610298e+01 
144 1 2 3.5189241656666542e-01 -4.8258905602131546e+02 1.0000000000000000e+00 1.4489808724566693e+01 2.5614366800547295e+00 1.5798191977610262e+01 
83 1 2 3.5189241656666542e-01 -3.8657353359060181e+02 1.0000000000000000e+00 1.4489808724566734e+01 2.5614366800547210e+00 1.5798191977610330e+01 
155 1 2 3.5189241656666542e-01 -5.6728413998717258e+02 1.0000000000000000e+00 1.4489808724566728e+01 2.5614366800547210e+00 1.5798191977610330e+01 
149 1 2 3.5189241656666542e-01 -7.3346676316805383e+02 1.0000000000000000e+00 1.4489808724566693e+01 2.5614366800547295e+00 1.5798191977610285e+01 
157 1 2 1.0279999993874525e+00 -3.9696382484588753e+02 1.0000000000000000e+00 1.6035942492639276e+01 1.1475596582450150e+01 1.7304506647115839e-01 
158 1 2 1.0279999999065519e+00 -4.2869781521445117e+02 1.0000000000000000e+00 1.6125082204571967e+01 1.1341793873856401e+01 2.0944864677280056e-01 
121 1 2 1.0279999999233183e+00 -4.3001331210035681e+02 1.0000000000000000e+00 1.6065208896730233e+01 1.1291839275115795e+01 1.1250709175803861e-01 
122 1 2 1.0280000004414374e+00 -4.5114117151505377e+02 1.0000000000000000e+00 1.6202345042397727e+01 1.1230636718937202e+01 2.7474415698795951e-01 
75 1 2 1.0279999769229973e+00 -5.2199707192463529e+02 1.0000000000000000e+00 1.4735759367879073e+01 1.0706159699549724e+01 2.2853942921460360e+00 
115 1 2 1.0280000002101541e+00 -5.1269831917084775e+02 1.0000000000000000e+00 1.6042082413924923e+01 1.1152020900365597e+01 4.7966613461171710e-02 
151 1 2 1.0280000005361660e+00 -6.8732837321135776e+02 1.0000000000000000e+00 1.6152959819050761e+01 1.1134962840295753e+01 1.7619425924555868e-01 
116 1 2 1.0280000004742349e+00 -5.2103970188015967e+02 1.0000000000000000e+00 1.6130824353611352e+01 1.1133523438892233e+01 1.4701489704567139e-01 
124 1 2 1.0280000026869018e+00 -4.7607294814633468e+02 1.0000000000000000e+00 1.6035137717043707e+01 1.1124095546277561e+01 1.8449908841122395e+00 
80 1 2 1.0280000002250977e+00 -4.9976670218172904e+02 1.0000000000000000e+00 1.6011602940694075e+01 1.1123167540474554e+01 1.2148806604089318e-02 
152 1 2 1.0280000008911281e+00 -6.8151421179903105e+02 1.0000000000000000e+00 1.6258220718424909e+01 1.1121343859056056e+01 3.3775761917998393e-01 
160 1 2 1.0280000028918199e+00 -6.0012936257632782e+02 1.0000000000000000e+00 1.6135718969733638e+01 1.1066215995658146e+01 1.7394391915971472e+00 
145 1 2 1.0280000007479064e+00 -6.1316868944225439e+02 1.0000000000000000e+00 1.6146938478234770e+01 1.1060888727359210e+01 1.5789935062148366e-01 
123 1 2 1.0280000029263023e+00 -5.3233043837944183e+02 1.0000000000000000e+00 1.6272700288527936e+01 1.1028909555753456e+01 1.5339569749555932e+00 
159 1 2 1.0280000029004823e+00 -6.2130185091081228e+02 1.0000000000000000e+00 1.6332959389323609e+01 1.1025208298518654e+01 1.4034237651857304e+00 
146 1 2 1.0280000020975575e+00 -5.4025421932042752e+02 1.0000000000000000e+00 1.6406278220131892e+01 1.1001257200809615e+01 7.5298497128647190e-01 
110 1 2 1.0280000020061388e+00 -5.1959035248609814e+02 1.0000000000000000e+00 1.6395160417010324e+01 1.1000762473312237e+01 6.9153413984917544e-01 
118 1 2 1.0280000030576770e+00 -5.2283144232081088e+02 1.0000000000000000e+00 1.6100576059494141e+01 1.0995949122977116e+01 1.7858776412621726e+00 
154 1 2 1.0280000029502572e+00 -7.0252895956080124e+02 1.0000000000000000e+00 1.6344688722728165e+01 1.0997211429859139e+01 1.3738478874246516e+00 
153 1 2 1.0280000028675249e+00 -6.7255454981124080e+02 1.0000000000000000e+00 1.6377704034001955e+01 1.0996614571352422e+01 1.2699325568771220e+00 
117 1 2 1.0280000027690033e+00 -6.0229403897354291e+02 1.0000000000000000e+00 1.6395853938071973e+01 1.0996613209815324e+01 1.1934888687584537e+00 
147 1 2 1.0280000028269183e+00 -6.5691108945101223e+02 1.0000000000000000e+00 1.6390990970368886e+01 1.0988659900242093e+01 1.2161495438104812e+00 
111 1 2 1.0280000026863911e+00 -5.8388928368659970e+02 1.0000000000000000e+00 1.6412337132588103e+01 1.0986505061572084e+01 1.0912979803396508e+00 
148 1 2 1.0280000029439211e+00 -7.3428216254016445e+02 1.0000000000000000e+00 1.6370523683658476e+01 1.0985281239707595e+01 1.2953152915528654e+00 
88 1 2 1.0279999500376809e+00 -4.2742152250108035e+02 1.0000000000000000e+00 1.4423906980679954e+01 1.0811008898876262e+01 2.2467016748881141e+00 
81 1 2 1.0280000031087968e+00 -4.7406216586457617e+02 1.0000000000000000e+00 1.6024124936205617e+01 1.0961165680147305e+01 1.8671866634713705e+00 
82 1 2 1.0280000030944314e+00 -4.7279171368014130e+02 1.0000000000000000e+00 1.6007649141001846e+01 1.0959539791666908e+01 1.8831342592201696e+00 
112 1 2 1.0280000031310925e+00 -5.5251746213442595e+02 1.0000000000000000e+00 1.6082405276857791e+01 1.0956863363324706e+01 1.8060576375385171e+00 
76 1 2 1.0280000031347265e+00 -4.8690167052790838e+02 1.0000000000000000e+00 1.5845000111664879e+01 1.0899841847626872e+01 2.0145069671834537e+00 
46 1 2 1.0279999631823833e+00 -4.7080661686465777e+02 1.0000000000000000e+00 1.3713233932564611e+01 1.0820577523185909e+01 1.8423486194173126e+00 
86 1 2 1.0279999999269400e+00 -4.7205529356569207e+02 1.0000000000000000e+00 1.5090547568411999e+01 1.1156711951179034e+01 1.9576038194286497e+01 
79 1 2 1.0280000004811860e+00 -4.8022774106516920e+02 1.0000000000000000e+00 1.4444665214779125e+01 1.0977515066590705e+01 1.9597200281804859e+01 

Velocities

56 1.0285641666593960e-04 -1.8090540160645558e-03 1.5115025247500599e-03
91 7.2988149452710136e-05 -1.8047542274795840e-03 1.5424218374792686e-03
19 7.4036625332178570e-05 -1.8117381825144099e-03 1.5428614404739032e-03
55 7.2804894260480800e-05 -1.8133169510798424e-03 1.5433438901600507e-03
128 1.8550015591972172e-05 -1.8274876051851750e-03 1.5273858598671608e-03
164 1.8550015965781862e-05 -1.8274876018920521e-03 1.5273858620774145e-03
127 1.8550013759578556e-05 -1.8274876156219718e-03 1.5273858531903630e-03
170 1.8550002410227237e-05 -1.8274876510946708e-03 1.5273858242850318e-03
133 1.8550003924030077e-05 -1.8274876484929681e-03 1.5273858276554024e-03
163 1.8550013713706711e-05 -1.8274876152604533e-03 1.5273858533622761e-03
169 1.8550003791085308e-05 -1.8274876495040439e-03 1.5273858266877795e-03
177 1.8549928653438116e-05 -1.8274877050999253e-03 1.5273857245941768e-03
140 1.8549998331328282e-05 -1.8274876611384645e-03 1.5273858155774567e-03
134 1.8549998573662016e-05 -1.8274876587267938e-03 1.5273858170156813e-03
103 1.8550000712794285e-05 -1.8274876585624373e-03 1.5273858192716920e-03
176 1.8549998361636124e-05 -1.8274876611993037e-03 1.5273858155000310e-03
139 1.8550000239806801e-05 -1.8274876585712080e-03 1.5273858187456791e-03
175 1.8549999992846546e-05 -1.8274876598076250e-03 1.5273858177512619e-03
25 7.1562377175274849e-05 -1.8143078626676494e-03 1.5437521654981482e-03
61 6.7496247217483429e-05 -1.8147083453505831e-03 1.5448603803335538e-03
67 7.0937740204037700e-05 -1.8151755056838295e-03 1.5439206168535284e-03
97 6.5457752559944612e-05 -1.8149402424356878e-03 1.5452732866288830e-03
27 -3.1741427932323874e-05 -1.7700826424724521e-03 1.4927277542945744e-03
52 4.7560584117885522e-05 -1.7902214670904198e-03 1.5399343393286608e-03
16 7.8341193914655357e-05 -1.7668559462878080e-03 1.4884735044678747e-03
21 7.2959885805519474e-05 -1.7750499054726041e-03 1.4826403166769953e-03
58 1.6112817612707109e-05 -1.7661070858710560e-03 1.4862382242188535e-03
20 9.5522932226648033e-05 -1.8001683574390386e-03 1.4857932984883376e-03
92 8.0453140260490665e-05 -1.7935755384181340e-03 1.5349282582708076e-03
22 -2.4534012240077329e-05 -1.7530802074047771e-03 1.4959484361718102e-03
57 -1.4448202984446639e-05 -1.7660434663469872e-03 1.4927944070451879e-03
93 -2.9033980284451972e-05 -1.7634726155480952e-03 1.4964102419938129e-03
26 3.0513671935210374e-05 -1.7999624033825075e-03 1.4537484537477281e-03
62 2.1137811342214111e-05 -1.7916821585219184e-03 1.4565888316293686e-03
99 -2.3590883037281608e-05 -1.8196146167575062e-03 1.4647922859043273e-03
63 -4.8109992170583975e-05 -1.7450138473036956e-03 1.5026690983013422e-03
100 -7.3454517964736035e-05 -1.7849415506205823e-03 1.4555970688587675e-03
31 2.1144056959451891e-05 -1.7836107113488888e-03 1.4570277145231319e-03
98 -2.4842926228020392e-05 -1.7534662348450232e-03 1.4889386857021142e-03
106 -4.7301818225804717e-05 -1.8014800609114515e-03 1.4593022594918241e-03
32 -5.2933561902016668e-07 -1.7679151435463318e-03 1.4710790047447527e-03
68 -2.9387447475099241e-06 -1.7651711093416632e-03 1.4733103290207484e-03