LAMMPS data file via write_data, version 30 Jul 2016, timestep = 600000

512 atoms
8 atom types

0.0000000000000000e+00 4.0000000000000000e+01 xlo xhi
0.0000000000000000e+00 4.0000000000000000e+01 ylo yhi
0.0000000000000000e+00 1.0000000000000000e+02 zlo zhi

Masses

1 3.896
2 4.306
3 20.064
4 8.378
5 8.378
6 8.378
7 8.378
8 8.378

Atoms # meso-molecular

1 2 4 2.2559723595316457e+00 2.8647051901246705e+03 1.0000000000000000e+00 0.0000000000000000e+00 0.0000000000000000e+00 2.5000000000000000e+00 
2 2 4 2.2559723595316457e+00 9.2582631532830987e+02 1.0000000000000000e+00 0.0000000000000000e+00 2.0000000000000000e+00 2.5000000000000000e+00 
3 2 4 2.2559723595316457e+00 3.5133725614538299e+01 1.0000000000000000e+00 0.0000000000000000e+00 4.0000000000000000e+00 2.5000000000000000e+00 
4 2 4 2.2559723595316457e+00 1.4218523532174180e+02 1.0000000000000000e+00 0.0000000000000000e+00 6.0000000000000000e+00 2.5000000000000000e+00 
21 2 4 2.2559723595316457e+00 2.3313653872044879e+03 1.0000000000000000e+00 2.0000000000000000e+00 0.0000000000000000e+00 2.5000000000000000e+00 
22 2 4 2.2559723595316457e+00 8.4270905686805213e+02 1.0000000000000000e+00 2.0000000000000000e+00 2.0000000000000000e+00 2.5000000000000000e+00 
23 2 4 2.2559723595316457e+00 3.8354813648517700e+02 1.0000000000000000e+00 2.0000000000000000e+00 4.0000000000000000e+00 2.5000000000000000e+00 
24 2 4 2.2559723595316457e+00 2.2933355733035853e+02 1.0000000000000000e+00 2.0000000000000000e+00 6.0000000000000000e+00 2.5000000000000000e+00 
41 2 4 2.2559723595316457e+00 1.2036351157092349e+03 1.0000000000000000e+00 4.0000000000000000e+00 0.0000000000000000e+00 2.5000000000000000e+00 
42 2 4 2.2559723595316457e+00 5.7271584403937993e+02 1.0000000000000000e+00 4.0000000000000000e+00 2.0000000000000000e+00 2.5000000000000000e+00 
43 2 4 2.2559723595316457e+00 5.6568843493627014e+02 1.0000000000000000e+00 4.0000000000000000e+00 4.0000000000000000e+00 2.5000000000000000e+00 
44 2 4 2.2559723595316457e+00 2.5788918725069266e+02 1.0000000000000000e+00 4.0000000000000000e+00 6.0000000000000000e+00 2.5000000000000000e+00 
61 2 4 2.2559723595316457e+00 2.3464476521339941e+02 1.0000000000000000e+00 6.0000000000000000e+00 0.0000000000000000e+00 2.5000000000000000e+00 
62 2 4 2.2559723595316457e+00 8.5410651568167523e+01 1.0000000000000000e+00 6.0000000000000000e+00 2.0000000000000000e+00 2.5000000000000000e+00 
63 2 4 2.2559723595316457e+00 1.3132723384518846e+02 1.0000000000000000e+00 6.0000000000000000e+00 4.0000000000000000e+00 2.5000000000000000e+00 
64 2 4 2.2559723595316457e+00 8.0757580359457933e+01 1.0000000000000000e+00 6.0000000000000000e+00 6.0000000000000000e+00 2.5000000000000000e+00 
81 2 4 2.2559723595316457e+00 1.9069454895224682e+00 1.0000000000000000e+00 8.0000000000000000e+00 0.0000000000000000e+00 2.5000000000000000e+00 
82 2 4 2.2559723595316457e+00 9.6013732785788297e-01 1.0000000000000000e+00 8.0000000000000000e+00 2.0000000000000000e+00 2.5000000000000000e+00 
83 2 4 2.2559723595316457e+00 1.2235137607711213e-03 1.0000000000000000e+00 8.0000000000000000e+00 4.0000000000000000e+00 2.5000000000000000e+00 
84 2 4 2.2559723595316457e+00 6.5508825300773704e-02 1.0000000000000000e+00 8.0000000000000000e+00 6.0000000000000000e+00 2.5000000000000000e+00 
101 2 4 2.2559723595316457e+00 0.0000000000000000e+00 1.0000000000000000e+00 1.0000000000000000e+01 0.0000000000000000e+00 2.5000000000000000e+00 
102 2 4 2.2559723595316457e+00 0.0000000000000000e+00 1.0000000000000000e+00 1.0000000000000000e+01 2.0000000000000000e+00 2.5000000000000000e+00 
103 2 4 2.2559723595316457e+00 0.0000000000000000e+00 1.0000000000000000e+00 1.0000000000000000e+01 4.0000000000000000e+00 2.5000000000000000e+00 
104 2 4 2.2559723595316457e+00 -2.1191099368650622e-03 1.0000000000000000e+00 1.0000000000000000e+01 6.0000000000000000e+00 2.5000000000000000e+00 
121 2 4 2.2559723595316457e+00 0.0000000000000000e+00 1.0000000000000000e+00 1.2000000000000000e+01 0.0000000000000000e+00 2.5000000000000000e+00 
122 2 4 2.2559723595316457e+00 0.0000000000000000e+00 1.0000000000000000e+00 1.2000000000000000e+01 2.0000000000000000e+00 2.5000000000000000e+00 
123 2 4 2.2559723595316457e+00 -2.2732309800370782e-03 1.0000000000000000e+00 1.2000000000000000e+01 4.0000000000000000e+00 2.5000000000000000e+00 
124 2 4 2.2559723595316457e+00 -9.1948318381079815e+01 1.0000000000000000e+00 1.2000000000000000e+01 6.0000000000000000e+00 2.5000000000000000e+00 
141 2 4 2.2559723595316457e+00 0.0000000000000000e+00 1.0000000000000000e+00 1.4000000000000000e+01 0.0000000000000000e+00 2.5000000000000000e+00 
142 2 4 2.2559723595316457e+00 0.0000000000000000e+00 1.0000000000000000e+00 1.4000000000000000e+01 2.0000000000000000e+00 2.5000000000000000e+00 
143 2 4 2.2559723595316457e+00 -1.9328002420500297e+01 1.0000000000000000e+00 1.4000000000000000e+01 4.0000000000000000e+00 2.5000000000000000e+00 
144 2 4 2.2559723595316457e+00 -2.2424041906174520e+02 1.0000000000000000e+00 1.4000000000000000e+01 6.0000000000000000e+00 2.5000000000000000e+00 
161 2 4 2.2559723595316457e+00 0.0000000000000000e+00 1.0000000000000000e+00 1.6000000000000000e+01 0.0000000000000000e+00 2.5000000000000000e+00 
162 2 4 2.2559723595316457e+00 0.0000000000000000e+00 1.0000000000000000e+00 1.6000000000000000e+01 2.0000000000000000e+00 2.5000000000000000e+00 
163 2 4 2.2559723595316457e+00 -4.7044344002780868e+01 1.0000000000000000e+00 1.6000000000000000e+01 4.0000000000000000e+00 2.5000000000000000e+00 
164 2 4 2.2559723595316457e+00 -3.0038765857197421e+02 1.0000000000000000e+00 1.6000000000000000e+01 6.0000000000000000e+00 2.5000000000000000e+00 
181 2 4 2.2559723595316457e+00 0.0000000000000000e+00 1.0000000000000000e+00 1.8000000000000000e+01 0.0000000000000000e+00 2.5000000000000000e+00 
182 2 4 2.2559723595316457e+00 0.0000000000000000e+00 1.0000000000000000e+00 1.8000000000000000e+01 2.0000000000000000e+00 2.5000000000000000e+00 
183 2 4 2.2559723595316457e+00 -1.8611133776470794e+01 1.0000000000000000e+00 1.8000000000000000e+01 4.0000000000000000e+00 2.5000000000000000e+00 
184 2 4 2.2559723595316457e+00 -3.4369668743603154e+02 1.0000000000000000e+00 1.8000000000000000e+01 6.0000000000000000e+00 2.5000000000000000e+00 
201 2 4 2.2559723595316457e+00 0.0000000000000000e+00 1.0000000000000000e+00 2.0000000000000000e+01 0.0000000000000000e+00 2.5000000000000000e+00 
202 2 4 2.2559723595316457e+00 0.0000000000000000e+00 1.0000000000000000e+00 2.0000000000000000e+01 2.0000000000000000e+00 2.5000000000000000e+00 
203 2 4 2.2559723595316457e+00 -1.4436902410161014e+01 1.0000000000000000e+00 2.0000000000000000e+01 4.0000000000000000e+00 2.5000000000000000e+00 
204 2 4 2.2559723595316457e+00 -3.4939848578627704e+02 1.0000000000000000e+00 2.0000000000000000e+01 6.0000000000000000e+00 2.5000000000000000e+00 
221 2 4 2.2559723595316457e+00 0.0000000000000000e+00 1.0000000000000000e+00 2.2000000000000000e+01 0.0000000000000000e+00 2.5000000000000000e+00 
222 2 4 2.2559723595316457e+00 0.0000000000000000e+00 1.0000000000000000e+00 2.2000000000000000e+01 2.0000000000000000e+00 2.5000000000000000e+00 
223 2 4 2.2559723595316457e+00 -4.6222650823634282e+01 1.0000000000000000e+00 2.2000000000000000e+01 4.0000000000000000e+00 2.5000000000000000e+00 
224 2 4 2.2559723595316457e+00 -3.0513963280536632e+02 1.0000000000000000e+00 2.2000000000000000e+01 6.0000000000000000e+00 2.5000000000000000e+00 
241 2 4 2.2559723595316457e+00 0.0000000000000000e+00 1.0000000000000000e+00 2.4000000000000000e+01 0.0000000000000000e+00 2.5000000000000000e+00 
242 2 4 2.2559723595316457e+00 0.0000000000000000e+00 1.0000000000000000e+00 2.4000000000000000e+01 2.0000000000000000e+00 2.5000000000000000e+00 
243 2 4 2.2559723595316457e+00 -2.4278885900191582e+01 1.0000000000000000e+00 2.4000000000000000e+01 4.0000000000000000e+00 2.5000000000000000e+00 
244 2 4 2.2559723595316457e+00 -2.3334652922348494e+02 1.0000000000000000e+00 2.4000000000000000e+01 6.0000000000000000e+00 2.5000000000000000e+00 
261 2 4 2.2559723595316457e+00 0.0000000000000000e+00 1.0000000000000000e+00 2.6000000000000000e+01 0.0000000000000000e+00 2.5000000000000000e+00 
262 2 4 2.2559723595316457e+00 0.0000000000000000e+00 1.0000000000000000e+00 2.6000000000000000e+01 2.0000000000000000e+00 2.5000000000000000e+00 
263 2 4 2.2559723595316457e+00 -5.5729465974290050e-02 1.0000000000000000e+00 2.6000000000000000e+01 4.0000000000000000e+00 2.5000000000000000e+00 
264 2 4 2.2559723595316457e+00 -1.1309858020163878e+02 1.0000000000000000e+00 2.6000000000000000e+01 6.0000000000000000e+00 2.5000000000000000e+00 
281 2 4 2.2559723595316457e+00 0.0000000000000000e+00 1.0000000000000000e+00 2.8000000000000000e+01 0.0000000000000000e+00 2.5000000000000000e+00 
282 2 4 2.2559723595316457e+00 0.0000000000000000e+00 1.0000000000000000e+00 2.8000000000000000e+01 2.0000000000000000e+00 2.5000000000000000e+00 
283 2 4 2.2559723595316457e+00 0.0000000000000000e+00 1.0000000000000000e+00 2.8000000000000000e+01 4.0000000000000000e+00 2.5000000000000000e+00 
284 2 4 2.2559723595316457e+00 -1.3934703065467974e-01 1.0000000000000000e+00 2.8000000000000000e+01 6.0000000000000000e+00 2.5000000000000000e+00 
301 2 4 2.2559723595316457e+00 3.0731307406395469e-01 1.0000000000000000e+00 3.0000000000000000e+01 0.0000000000000000e+00 2.5000000000000000e+00 
302 2 4 2.2559723595316457e+00 1.3357061815028815e-01 1.0000000000000000e+00 3.0000000000000000e+01 2.0000000000000000e+00 2.5000000000000000e+00 
303 2 4 2.2559723595316457e+00 0.0000000000000000e+00 1.0000000000000000e+00 3.0000000000000000e+01 4.0000000000000000e+00 2.5000000000000000e+00 
304 2 4 2.2559723595316457e+00 1.8721368201497423e-03 1.0000000000000000e+00 3.0000000000000000e+01 6.0000000000000000e+00 2.5000000000000000e+00 
321 2 4 2.2559723595316457e+00 1.6006400562239529e+02 1.0000000000000000e+00 3.2000000000000000e+01 0.0000000000000000e+00 2.5000000000000000e+00 
322 2 4 2.2559723595316457e+00 5.0943112824476401e+01 1.0000000000000000e+00 3.2000000000000000e+01 2.0000000000000000e+00 2.5000000000000000e+00 
323 2 4 2.2559723595316457e+00 8.4064096710115066e+01 1.0000000000000000e+00 3.2000000000000000e+01 4.0000000000000000e+00 2.5000000000000000e+00 
324 2 4 2.2559723595316457e+00 5.4920907312898976e+01 1.0000000000000000e+00 3.2000000000000000e+01 6.0000000000000000e+00 2.5000000000000000e+00 
341 2 4 2.2559723595316457e+00 1.0262110386173515e+03 1.0000000000000000e+00 3.4000000000000000e+01 0.0000000000000000e+00 2.5000000000000000e+00 
342 2 4 2.2559723595316457e+00 5.0182915380074644e+02 1.0000000000000000e+00 3.4000000000000000e+01 2.0000000000000000e+00 2.5000000000000000e+00 
343 2 4 2.2559723595316457e+00 5.5915869728753410e+02 1.0000000000000000e+00 3.4000000000000000e+01 4.0000000000000000e+00 2.5000000000000000e+00 
344 2 4 2.2559723595316457e+00 2.5855764569920632e+02 1.0000000000000000e+00 3.4000000000000000e+01 6.0000000000000000e+00 2.5000000000000000e+00 
361 2 4 2.2559723595316457e+00 2.2502150728070401e+03 1.0000000000000000e+00 3.6000000000000000e+01 0.0000000000000000e+00 2.5000000000000000e+00 
362 2 4 2.2559723595316457e+00 9.2136614551970865e+02 1.0000000000000000e+00 3.6000000000000000e+01 2.0000000000000000e+00 2.5000000000000000e+00 
363 2 4 2.2559723595316457e+00 5.0402678575005319e+02 1.0000000000000000e+00 3.6000000000000000e+01 4.0000000000000000e+00 2.5000000000000000e+00 
364 2 4 2.2559723595316457e+00 2.7565544676855416e+02 1.0000000000000000e+00 3.6000000000000000e+01 6.0000000000000000e+00 2.5000000000000000e+00 
381 2 4 2.2559723595316457e+00 2.8606778249180779e+03 1.0000000000000000e+00 3.8000000000000000e+01 0.0000000000000000e+00 2.5000000000000000e+00 
382 2 4 2.2559723595316457e+00 9.8764330075818634e+02 1.0000000000000000e+00 3.8000000000000000e+01 2.0000000000000000e+00 2.5000000000000000e+00 
383 2 4 2.2559723595316457e+00 1.2010396219828135e+02 1.0000000000000000e+00 3.8000000000000000e+01 4.0000000000000000e+00 2.5000000000000000e+00 
384 2 4 2.2559723595316457e+00 1.7620335438520584e+02 1.0000000000000000e+00 3.8000000000000000e+01 6.0000000000000000e+00 2.5000000000000000e+00 
5 2 4 2.2559723595316457e+00 -1.4505177867084680e+02 1.0000000000000000e+00 0.0000000000000000e+00 8.0000000000000000e+00 2.5000000000000000e+00 
6 2 4 2.2559723595316457e+00 2.5798527357323434e+02 1.0000000000000000e+00 0.0000000000000000e+00 1.0000000000000000e+01 2.5000000000000000e+00 
7 2 4 2.2559723595316457e+00 1.2809297771038268e+03 1.0000000000000000e+00 0.0000000000000000e+00 1.2000000000000000e+01 2.5000000000000000e+00 
25 2 4 2.2559723595316457e+00 -6.5781062510217544e+02 1.0000000000000000e+00 2.0000000000000000e+00 8.0000000000000000e+00 2.5000000000000000e+00 
26 2 4 2.2559723595316457e+00 -7.8363528403772352e+02 1.0000000000000000e+00 2.0000000000000000e+00 1.0000000000000000e+01 2.5000000000000000e+00 
27 2 4 2.2559723595316457e+00 3.2222362027395114e+01 1.0000000000000000e+00 2.0000000000000000e+00 1.2000000000000000e+01 2.5000000000000000e+00 
45 2 4 2.2559723595316457e+00 -7.5564844880445003e+02 1.0000000000000000e+00 4.0000000000000000e+00 8.0000000000000000e+00 2.5000000000000000e+00 
46 2 4 2.2559723595316457e+00 -1.1209077261227396e+03 1.0000000000000000e+00 4.0000000000000000e+00 1.0000000000000000e+01 2.5000000000000000e+00 
47 2 4 2.2559723595316457e+00 -5.5351510278612989e+02 1.0000000000000000e+00 4.0000000000000000e+00 1.2000000000000000e+01 2.5000000000000000e+00 
65 2 4 2.2559723595316457e+00 -2.0095463676939943e+02 1.0000000000000000e+00 6.0000000000000000e+00 8.0000000000000000e+00 2.5000000000000000e+00 
66 2 4 2.2559723595316457e+00 -2.7776199680501099e+02 1.0000000000000000e+00 6.0000000000000000e+00 1.0000000000000000e+01 2.5000000000000000e+00 
67 2 4 2.2559723595316457e+00 9.9954098815121370e+01 1.0000000000000000e+00 6.0000000000000000e+00 1.2000000000000000e+01 2.5000000000000000e+00 
85 2 4 2.2559723595316457e+00 -1.1529599284677075e-01 1.0000000000000000e+00 8.0000000000000000e+00 8.0000000000000000e+00 2.5000000000000000e+00 
86 2 4 2.2559723595316457e+00 -2.0282469363144596e+01 1.0000000000000000e+00 8.0000000000000000e+00 1.0000000000000000e+01 2.5000000000000000e+00 
87 2 4 2.2559723595316457e+00 7.9700646619262983e+01 1.0000000000000000e+00 8.0000000000000000e+00 1.2000000000000000e+01 2.5000000000000000e+00 
105 2 4 2.2559723595316457e+00 -1.9347858853263855e+01 1.0000000000000000e+00 1.0000000000000000e+01 8.0000000000000000e+00 2.5000000000000000e+00 
106 2 4 2.2559723595316457e+00 -5.9558433632604888e+01 1.0000000000000000e+00 1.0000000000000000e+01 1.0000000000000000e+01 2.5000000000000000e+00 
107 2 4 2.2559723595316457e+00 -1.3780558775565459e+02 1.0000000000000000e+00 1.0000000000000000e+01 1.2000000000000000e+01 2.5000000000000000e+00 
125 2 4 2.2559723595316457e+00 -2.2339189770985243e+02 1.0000000000000000e+00 1.2000000000000000e+01 8.0000000000000000e+00 2.5000000000000000e+00 
126 2 4 2.2559723595316457e+00 -3.0969844357701027e+02 1.0000000000000000e+00 1.2000000000000000e+01 1.0000000000000000e+01 2.5000000000000000e+00 
127 2 4 2.2559723595316457e+00 -3.3450034249365410e+02 1.0000000000000000e+00 1.2000000000000000e+01 1.2000000000000000e+01 2.5000000000000000e+00 
145 2 4 2.2559723595316457e+00 -5.2620485660819793e+02 1.0000000000000000e+00 1.4000000000000000e+01 8.0000000000000000e+00 2.5000000000000000e+00 
146 2 4 2.2559723595316457e+00 -7.8914842391592128e+02 1.0000000000000000e+00 1.4000000000000000e+01 1.0000000000000000e+01 2.5000000000000000e+00 
147 2 4 2.2559723595316457e+00 5.2416767673892153e+01 1.0000000000000000e+00 1.4000000000000000e+01 1.2000000000000000e+01 2.5000000000000000e+00 
165 2 4 2.2559723595316457e+00 -9.8717597966524943e+02 1.0000000000000000e+00 1.6000000000000000e+01 8.0000000000000000e+00 2.5000000000000000e+00 
166 2 4 2.2559723595316457e+00 -1.2342680529457573e+03 1.0000000000000000e+00 1.6000000000000000e+01 1.0000000000000000e+01 2.5000000000000000e+00 
167 2 4 2.2559723595316457e+00 -2.1023410119327585e+02 1.0000000000000000e+00 1.6000000000000000e+01 1.2000000000000000e+01 2.5000000000000000e+00 
185 2 4 2.2559723595316457e+00 -1.4858212531384884e+03 1.0000000000000000e+00 1.8000000000000000e+01 8.0000000000000000e+00 2.5000000000000000e+00 
186 2 4 2.2559723595316457e+00 -2.1698245110608545e+03 1.0000000000000000e+00 1.8000000000000000e+01 1.0000000000000000e+01 2.5000000000000000e+00 
187 2 4 2.2559723595316457e+00 -1.0893227703088148e+03 1.0000000000000000e+00 1.8000000000000000e+01 1.2000000000000000e+01 2.5000000000000000e+00 
205 2 4 2.2559723595316457e+00 -1.5221036126384947e+03 1.0000000000000000e+00 2.0000000000000000e+01 8.0000000000000000e+00 2.5000000000000000e+00 
206 2 4 2.2559723595316457e+00 -2.2543529035469669e+03 1.0000000000000000e+00 2.0000000000000000e+01 1.0000000000000000e+01 2.5000000000000000e+00 
207 2 4 2.2559723595316457e+00 -1.1385502962612618e+03 1.0000000000000000e+00 2.0000000000000000e+01 1.2000000000000000e+01 2.5000000000000000e+00 
225 2 4 2.2559723595316457e+00 -1.0440859145404881e+03 1.0000000000000000e+00 2.2000000000000000e+01 8.0000000000000000e+00 2.5000000000000000e+00 
226 2 4 2.2559723595316457e+00 -1.3203007073312963e+03 1.0000000000000000e+00 2.2000000000000000e+01 1.0000000000000000e+01 2.5000000000000000e+00 
227 2 4 2.2559723595316457e+00 -3.1737481191575830e+02 1.0000000000000000e+00 2.2000000000000000e+01 1.2000000000000000e+01 2.5000000000000000e+00 
245 2 4 2.2559723595316457e+00 -5.7337173007369813e+02 1.0000000000000000e+00 2.4000000000000000e+01 8.0000000000000000e+00 2.5000000000000000e+00 
246 2 4 2.2559723595316457e+00 -8.3122542163932053e+02 1.0000000000000000e+00 2.4000000000000000e+01 1.0000000000000000e+01 2.5000000000000000e+00 
247 2 4 2.2559723595316457e+00 9.5803294627230969e+01 1.0000000000000000e+00 2.4000000000000000e+01 1.2000000000000000e+01 2.5000000000000000e+00 
265 2 4 2.2559723595316457e+00 -2.4433835890613918e+02 1.0000000000000000e+00 2.6000000000000000e+01 8.0000000000000000e+00 2.5000000000000000e+00 
266 2 4 2.2559723595316457e+00 -3.5783633074381521e+02 1.0000000000000000e+00 2.6000000000000000e+01 1.0000000000000000e+01 2.5000000000000000e+00 
267 2 4 2.2559723595316457e+00 -3.3197127905107135e+02 1.0000000000000000e+00 2.6000000000000000e+01 1.2000000000000000e+01 2.5000000000000000e+00 
285 2 4 2.2559723595316457e+00 -3.6789949653009415e+01 1.0000000000000000e+00 2.8000000000000000e+01 8.0000000000000000e+00 2.5000000000000000e+00 
286 2 4 2.2559723595316457e+00 -7.7755182947642936e+01 1.0000000000000000e+00 2.8000000000000000e+01 1.0000000000000000e+01 2.5000000000000000e+00 
287 2 4 2.2559723595316457e+00 -1.7492763874662319e+02 1.0000000000000000e+00 2.8000000000000000e+01 1.2000000000000000e+01 2.5000000000000000e+00 
305 2 4 2.2559723595316457e+00 -2.1909112508837659e-04 1.0000000000000000e+00 3.0000000000000000e+01 8.0000000000000000e+00 2.5000000000000000e+00 
306 2 4 2.2559723595316457e+00 -2.5155721314866906e+01 1.0000000000000000e+00 3.0000000000000000e+01 1.0000000000000000e+01 2.5000000000000000e+00 
307 2 4 2.2559723595316457e+00 6.8784110794932815e+01 1.0000000000000000e+00 3.0000000000000000e+01 1.2000000000000000e+01 2.5000000000000000e+00 
325 2 4 2.2559723595316457e+00 -1.5382456684642770e+02 1.0000000000000000e+00 3.2000000000000000e+01 8.0000000000000000e+00 2.5000000000000000e+00 
326 2 4 2.2559723595316457e+00 -2.0185461790610725e+02 1.0000000000000000e+00 3.2000000000000000e+01 1.0000000000000000e+01 2.5000000000000000e+00 
327 2 4 2.2559723595316457e+00 1.1571285530299096e+02 1.0000000000000000e+00 3.2000000000000000e+01 1.2000000000000000e+01 2.5000000000000000e+00 
345 2 4 2.2559723595316457e+00 -7.3709902640019482e+02 1.0000000000000000e+00 3.4000000000000000e+01 8.0000000000000000e+00 2.5000000000000000e+00 
346 2 4 2.2559723595316457e+00 -1.0538362955875712e+03 1.0000000000000000e+00 3.4000000000000000e+01 1.0000000000000000e+01 2.5000000000000000e+00 
347 2 4 2.2559723595316457e+00 -5.0785460182676763e+02 1.0000000000000000e+00 3.4000000000000000e+01 1.2000000000000000e+01 2.5000000000000000e+00 
365 2 4 2.2559723595316457e+00 -7.0295474698106659e+02 1.0000000000000000e+00 3.6000000000000000e+01 8.0000000000000000e+00 2.5000000000000000e+00 
366 2 4 2.2559723595316457e+00 -8.3108025692063870e+02 1.0000000000000000e+00 3.6000000000000000e+01 1.0000000000000000e+01 2.5000000000000000e+00 
367 2 4 2.2559723595316457e+00 -4.1271894174999368e+01 1.0000000000000000e+00 3.6000000000000000e+01 1.2000000000000000e+01 2.5000000000000000e+00 
385 2 4 2.2559723595316457e+00 -1.7872364789574652e+02 1.0000000000000000e+00 3.8000000000000000e+01 8.0000000000000000e+00 2.5000000000000000e+00 
386 2 4 2.2559723595316457e+00 2.1002701927679962e+02 1.0000000000000000e+00 3.8000000000000000e+01 1.0000000000000000e+01 2.5000000000000000e+00 
387 2 4 2.2559723595316457e+00 1.2339090235430522e+03 1.0000000000000000e+00 3.8000000000000000e+01 1.2000000000000000e+01 2.5000000000000000e+00 
8 2 4 2.2559723595316457e+00 1.3257112820888960e+03 1.0000000000000000e+00 0.0000000000000000e+00 1.4000000000000000e+01 2.5000000000000000e+00 
9 2 4 2.2559723595316457e+00 1.4925727397909814e+03 1.0000000000000000e+00 0.0000000000000000e+00 1.6000000000000000e+01 2.5000000000000000e+00 
10 2 4 2.2559723595316457e+00 1.4688330921965658e+03 1.0000000000000000e+00 0.0000000000000000e+00 1.8000000000000000e+01 2.5000000000000000e+00 
28 2 4 2.2559723595316457e+00 5.4208357368087911e+02 1.0000000000000000e+00 2.0000000000000000e+00 1.4000000000000000e+01 2.5000000000000000e+00 
29 2 4 2.2559723595316457e+00 1.0877422136422501e+03 1.0000000000000000e+00 2.0000000000000000e+00 1.6000000000000000e+01 2.5000000000000000e+00 
30 2 4 2.2559723595316457e+00 7.7295124758795441e+02 1.0000000000000000e+00 2.0000000000000000e+00 1.8000000000000000e+01 2.5000000000000000e+00 
48 2 4 2.2559723595316457e+00 7.8498982909689346e+02 1.0000000000000000e+00 4.0000000000000000e+00 1.4000000000000000e+01 2.5000000000000000e+00 
49 2 4 2.2559723595316457e+00 1.2674473117089087e+03 1.0000000000000000e+00 4.0000000000000000e+00 1.6000000000000000e+01 2.5000000000000000e+00 
50 2 4 2.2559723595316457e+00 -8.0807631559783729e+01 1.0000000000000000e+00 4.0000000000000000e+00 1.8000000000000000e+01 2.5000000000000000e+00 
68 2 4 2.2559723595316457e+00 1.5106906147775849e+03 1.0000000000000000e+00 6.0000000000000000e+00 1.4000000000000000e+01 2.5000000000000000e+00 
69 2 4 2.2559723595316457e+00 1.7301151008701377e+03 1.0000000000000000e+00 6.0000000000000000e+00 1.6000000000000000e+01 2.5000000000000000e+00 
70 2 4 2.2559723595316457e+00 3.0275068598147914e+02 1.0000000000000000e+00 6.0000000000000000e+00 1.8000000000000000e+01 2.5000000000000000e+00 
88 2 4 2.2559723595316457e+00 1.2937300121706076e+03 1.0000000000000000e+00 8.0000000000000000e+00 1.4000000000000000e+01 2.5000000000000000e+00 
89 2 4 2.2559723595316457e+00 1.7200133209631981e+03 1.0000000000000000e+00 8.0000000000000000e+00 1.6000000000000000e+01 2.5000000000000000e+00 
90 2 4 2.2559723595316457e+00 7.1022728693597151e+02 1.0000000000000000e+00 8.0000000000000000e+00 1.8000000000000000e+01 2.5000000000000000e+00 
108 2 4 2.2559723595316457e+00 3.4378332035381203e+02 1.0000000000000000e+00 1.0000000000000000e+01 1.4000000000000000e+01 2.5000000000000000e+00 
109 2 4 2.2559723595316457e+00 1.1212529594639998e+03 1.0000000000000000e+00 1.0000000000000000e+01 1.6000000000000000e+01 2.5000000000000000e+00 
110 2 4 2.2559723595316457e+00 1.4503237036123460e+03 1.0000000000000000e+00 1.0000000000000000e+01 1.8000000000000000e+01 2.5000000000000000e+00 
128 2 4 2.2559723595316457e+00 4.6157902229817104e+01 1.0000000000000000e+00 1.2000000000000000e+01 1.4000000000000000e+01 2.5000000000000000e+00 
129 2 4 2.2559723595316457e+00 1.5685196523491761e+03 1.0000000000000000e+00 1.2000000000000000e+01 1.6000000000000000e+01 2.5000000000000000e+00 
130 2 4 2.2559723595316457e+00 3.3650417476678504e+03 1.0000000000000000e+00 1.2000000000000000e+01 1.8000000000000000e+01 2.5000000000000000e+00 
148 2 4 2.2559723595316457e+00 1.5711418257454425e+03 1.0000000000000000e+00 1.4000000000000000e+01 1.4000000000000000e+01 2.5000000000000000e+00 
149 2 4 2.2559723595316457e+00 3.9635871393887924e+03 1.0000000000000000e+00 1.4000000000000000e+01 1.6000000000000000e+01 2.5000000000000000e+00 
150 2 4 2.2559723595316457e+00 6.4835378916634963e+03 1.0000000000000000e+00 1.4000000000000000e+01 1.8000000000000000e+01 2.5000000000000000e+00 
168 2 4 2.2559723595316457e+00 1.7248532476617729e+03 1.0000000000000000e+00 1.6000000000000000e+01 1.4000000000000000e+01 2.5000000000000000e+00 
169 2 4 2.2559723595316457e+00 4.4087246298411019e+03 1.0000000000000000e+00 1.6000000000000000e+01 1.6000000000000000e+01 2.5000000000000000e+00 
170 2 4 2.2559723595316457e+00 7.2004501724921447e+03 1.0000000000000000e+00 1.6000000000000000e+01 1.8000000000000000e+01 2.5000000000000000e+00 
188 2 4 2.2559723595316457e+00 5.6192561823008214e+02 1.0000000000000000e+00 1.8000000000000000e+01 1.4000000000000000e+01 2.5000000000000000e+00 
189 2 4 2.2559723595316457e+00 2.6567246976035640e+03 1.0000000000000000e+00 1.8000000000000000e+01 1.6000000000000000e+01 2.5000000000000000e+00 
190 2 4 2.2559723595316457e+00 4.9577441533023393e+03 1.0000000000000000e+00 1.8000000000000000e+01 1.8000000000000000e+01 2.5000000000000000e+00 
208 2 4 2.2559723595316457e+00 5.1350368229794276e+02 1.0000000000000000e+00 2.0000000000000000e+01 1.4000000000000000e+01 2.5000000000000000e+00 
209 2 4 2.2559723595316457e+00 2.5588619694527047e+03 1.0000000000000000e+00 2.0000000000000000e+01 1.6000000000000000e+01 2.5000000000000000e+00 
210 2 4 2.2559723595316457e+00 4.7855720066649665e+03 1.0000000000000000e+00 2.0000000000000000e+01 1.8000000000000000e+01 2.5000000000000000e+00 
228 2 4 2.2559723595316457e+00 1.5768932129307595e+03 1.0000000000000000e+00 2.2000000000000000e+01 1.4000000000000000e+01 2.5000000000000000e+00 
229 2 4 2.2559723595316457e+00 4.2288005186058153e+03 1.0000000000000000e+00 2.2000000000000000e+01 1.6000000000000000e+01 2.5000000000000000e+00 
230 2 4 2.2559723595316457e+00 7.0126560216710550e+03 1.0000000000000000e+00 2.2000000000000000e+01 1.8000000000000000e+01 2.5000000000000000e+00 
248 2 4 2.2559723595316457e+00 1.7240534164198646e+03 1.0000000000000000e+00 2.4000000000000000e+01 1.4000000000000000e+01 2.5000000000000000e+00 
249 2 4 2.2559723595316457e+00 4.2039981008002424e+03 1.0000000000000000e+00 2.4000000000000000e+01 1.6000000000000000e+01 2.5000000000000000e+00 
250 2 4 2.2559723595316457e+00 6.7813879116189528e+03 1.0000000000000000e+00 2.4000000000000000e+01 1.8000000000000000e+01 2.5000000000000000e+00 
268 2 4 2.2559723595316457e+00 1.3750865680199669e+02 1.0000000000000000e+00 2.6000000000000000e+01 1.4000000000000000e+01 2.5000000000000000e+00 
269 2 4 2.2559723595316457e+00 1.7692363591107885e+03 1.0000000000000000e+00 2.6000000000000000e+01 1.6000000000000000e+01 2.5000000000000000e+00 
270 2 4 2.2559723595316457e+00 3.6827635474415129e+03 1.0000000000000000e+00 2.6000000000000000e+01 1.8000000000000000e+01 2.5000000000000000e+00 
288 2 4 2.2559723595316457e+00 2.5531088773107371e+02 1.0000000000000000e+00 2.8000000000000000e+01 1.4000000000000000e+01 2.5000000000000000e+00 
289 2 4 2.2559723595316457e+00 1.0810033871911376e+03 1.0000000000000000e+00 2.8000000000000000e+01 1.6000000000000000e+01 2.5000000000000000e+00 
290 2 4 2.2559723595316457e+00 1.5511255157612807e+03 1.0000000000000000e+00 2.8000000000000000e+01 1.8000000000000000e+01 2.5000000000000000e+00 
308 2 4 2.2559723595316457e+00 1.2574952348075706e+03 1.0000000000000000e+00 3.0000000000000000e+01 1.4000000000000000e+01 2.5000000000000000e+00 
309 2 4 2.2559723595316457e+00 1.7048754139411035e+03 1.0000000000000000e+00 3.0000000000000000e+01 1.6000000000000000e+01 2.5000000000000000e+00 
310 2 4 2.2559723595316457e+00 7.2445653588197683e+02 1.0000000000000000e+00 3.0000000000000000e+01 1.8000000000000000e+01 2.5000000000000000e+00 
328 2 4 2.2559723595316457e+00 1.4849953530203725e+03 1.0000000000000000e+00 3.2000000000000000e+01 1.4000000000000000e+01 2.5000000000000000e+00 
329 2 4 2.2559723595316457e+00 1.7246200637868578e+03 1.0000000000000000e+00 3.2000000000000000e+01 1.6000000000000000e+01 2.5000000000000000e+00 
330 2 4 2.2559723595316457e+00 3.6582134813020127e+02 1.0000000000000000e+00 3.2000000000000000e+01 1.8000000000000000e+01 2.5000000000000000e+00 
348 2 4 2.2559723595316457e+00 8.4364955347709747e+02 1.0000000000000000e+00 3.4000000000000000e+01 1.4000000000000000e+01 2.5000000000000000e+00 
349 2 4 2.2559723595316457e+00 1.3030213747352238e+03 1.0000000000000000e+00 3.4000000000000000e+01 1.6000000000000000e+01 2.5000000000000000e+00 
350 2 4 2.2559723595316457e+00 -2.8383999662623246e+01 1.0000000000000000e+00 3.4000000000000000e+01 1.8000000000000000e+01 2.5000000000000000e+00 
368 2 4 2.2559723595316457e+00 4.8162337716469648e+02 1.0000000000000000e+00 3.6000000000000000e+01 1.4000000000000000e+01 2.5000000000000000e+00 
369 2 4 2.2559723595316457e+00 1.0016711985802374e+03 1.0000000000000000e+00 3.6000000000000000e+01 1.6000000000000000e+01 2.5000000000000000e+00 
370 2 4 2.2559723595316457e+00 6.6135142789652764e+02 1.0000000000000000e+00 3.6000000000000000e+01 1.8000000000000000e+01 2.5000000000000000e+00 
388 2 4 2.2559723595316457e+00 1.2674173449788173e+03 1.0000000000000000e+00 3.8000000000000000e+01 1.4000000000000000e+01 2.5000000000000000e+00 
389 2 4 2.2559723595316457e+00 1.4394661608071585e+03 1.0000000000000000e+00 3.8000000000000000e+01 1.6000000000000000e+01 2.5000000000000000e+00 
390 2 4 2.2559723595316457e+00 1.4344246815450997e+03 1.0000000000000000e+00 3.8000000000000000e+01 1.8000000000000000e+01 2.5000000000000000e+00 
495 97 2 1.0321005627415398e+00 4.1340191446331446e+04 1.0000000000000000e+00 7.6934528979267325e-01 1.6800994019762719e+01 1.6738939717732848e+01 