LAMMPS data file via write_data, version 30 Jul 2016, timestep = 50400000

1520 atoms
8 atom types

0.0000000000000000e+00 4.0000000000000000e+01 xlo xhi
0.0000000000000000e+00 4.0000000000000000e+01 ylo yhi
0.0000000000000000e+00 1.0000000000000000e+02 zlo zhi

Masses

1 3.896
2 5.36
3 20.064
4 8.378
5 8.378
6 8.378
7 8.378
8 8.378

Atoms # meso-molecular

375 376 2 1.0280000000000009e+00 -3.8699286324888794e+02 1.0000000000000000e+00 8.2238893493479956e+00 4.8137534299870843e+00 1.1652538968761263e+00 
276 277 2 1.0280000000000009e+00 7.6965604750748412e+02 1.0000000000000000e+00 8.6407377569723707e+00 3.7639645668947597e+00 1.3428876927796205e+00 
657 658 2 1.0280000000000000e+00 -1.2207727931383529e+03 1.0000000000000000e+00 1.9472536935398711e+01 9.8015823006193319e+00 9.5937279296175659e-01 
1233 1234 2 1.0279999999999985e+00 1.7339949514332397e+02 1.0000000000000000e+00 2.9022354312349448e+00 1.2680168723253642e+01 1.0885192329828759e+00 
1374 1375 2 1.0280000000000000e+00 -1.9139407992962163e+02 1.0000000000000000e+00 5.9467252226372773e+00 1.7370360082001326e+01 7.5387727731848223e-02 
1454 1455 2 1.0280000000000005e+00 2.7605835683611741e+02 1.0000000000000000e+00 1.9632073293284019e+01 6.2270426718052985e+00 2.3825844591840877e+00 
1194 1195 2 1.0280000000000014e+00 -1.1731241169354225e+03 1.0000000000000000e+00 5.2195413670088371e+00 8.2638479091781747e+00 1.9532536118982715e+00 
910 911 2 1.0280000000000014e+00 1.3426879814306521e+03 1.0000000000000000e+00 5.7121222744792384e+00 7.4939638741441961e+00 2.6402875554950715e+00 
1385 1386 2 1.0279999999999985e+00 -1.9447747025385900e+02 1.0000000000000000e+00 3.3237297317142502e+00 1.2705959099352489e+01 2.1510870795803947e+00 
190 191 2 1.0280000000000000e+00 7.2899439492785336e+02 1.0000000000000000e+00 1.3114502387067960e+01 1.7894581759829219e+01 3.0883463711400698e+00 
994 995 2 1.0280000000000000e+00 -1.8584891707142583e+02 1.0000000000000000e+00 1.1996637409974552e+01 1.7693255916603206e+01 3.2195668546631482e+00 
951 952 2 1.0280000000000000e+00 -8.2221746631178917e+02 1.0000000000000000e+00 6.8977274394695565e+00 1.0049984178373794e+01 3.6630418286315947e+00 
799 800 2 1.0280000000000000e+00 9.3828344892445983e+01 1.0000000000000000e+00 6.9928347180091412e+00 1.0647715246226978e+01 4.6331166677809392e+00 
406 407 2 1.0280000000000002e+00 7.6964983039252502e+02 1.0000000000000000e+00 7.6043491065998037e+00 1.3237272600098553e+01 6.4609352503292667e+00 
931 932 2 1.0280000000000007e+00 3.0819620903545829e+03 1.0000000000000000e+00 6.5709887073085653e+00 2.1488985826202534e+00 8.2493948482159283e+00 
134 135 2 1.0280000000000002e+00 5.0491567659213479e+02 1.0000000000000000e+00 6.6831416433354072e+00 1.3854432007740879e+01 6.7399766319257752e+00 
502 503 2 1.0279999794308785e+00 -6.4201919862293835e+02 1.0000000000000000e+00 1.1249269280497492e+01 1.7552826662753070e+01 6.6855167195980822e+00 
853 854 2 1.0280000203831843e+00 -8.5139050163529907e+02 1.0000000000000000e+00 1.1673460790157412e+01 1.7722221669814349e+01 7.7337247142823067e+00 
1364 1365 2 1.0280000000000007e+00 -5.8332903819536500e+02 1.0000000000000000e+00 5.5017318702962941e+00 2.4792009539991668e+00 8.4838371170641835e+00 
1369 1370 2 1.0279999999999996e+00 6.5175512815146203e+02 1.0000000000000000e+00 1.6268626981299875e+01 1.0280711293429722e+01 8.4507532520177584e+00 
1105 1106 2 1.0279999999999996e+00 -5.2375580503919446e+02 1.0000000000000000e+00 1.5587493986472893e+01 1.0059219701848660e+01 9.3420289308487572e+00 
665 666 2 1.0280000000000054e+00 -4.2585825914753752e+02 1.0000000000000000e+00 4.9251998012741574e+00 1.5369560032487509e+01 8.7977665441603499e+00 
561 562 2 1.0280000000000054e+00 -1.4590626990991755e+03 1.0000000000000000e+00 5.6446760453944167e+00 1.5841047312546797e+01 9.5510438479121742e+00 
932 933 2 1.0280000000000000e+00 1.5136241403875900e+02 1.0000000000000000e+00 1.8600420962772240e+01 1.8063794203584596e+01 9.9126610420135268e+00 
438 439 2 1.0280000000000000e+00 -1.0444950602796116e+03 1.0000000000000000e+00 1.7683886695829543e+01 1.8740011965491266e+01 9.8123241422184595e+00 
710 711 2 1.0280000000000000e+00 7.1946365724908219e+02 1.0000000000000000e+00 1.2095290215075291e+01 1.4300050081531612e+00 1.0103448108520492e+01 
724 725 2 1.0280000000000000e+00 3.2463791814660379e+02 1.0000000000000000e+00 1.3235916924503547e+01 1.4823869883986636e+00 1.0163446903034801e+01 
1469 1470 2 1.0280000000000085e+00 -1.5535658434646248e+03 1.0000000000000000e+00 8.5373667063644809e-01 1.0821071220137217e+01 1.0152461395619495e+01 
294 295 2 1.0280000000000014e+00 -1.0178917227600612e+03 1.0000000000000000e+00 1.8920569257382129e+00 1.2940795106724854e+01 1.1491879011403633e+01 
1312 1313 2 1.0280000204476298e+00 -1.0134401629708865e+03 1.0000000000000000e+00 1.2004829524626979e+01 1.7938605306597807e+01 1.0182686615495216e+01 
1213 1214 2 1.0279999794953238e+00 2.2683307443023114e+03 1.0000000000000000e+00 1.2801167335112730e+01 1.7415416362885939e+01 1.0814740826696806e+01 
527 528 2 1.0280000000000040e+00 -2.3796011727541926e+02 1.0000000000000000e+00 6.8009988915357988e+00 1.9482599863132947e+01 1.1123622494460639e+01 
920 921 2 1.0280000000000014e+00 2.7724134991867240e+03 1.0000000000000000e+00 2.9929912289167406e+00 1.2847809915800621e+01 1.1786277434993721e+01 
1001 1002 2 1.0279999898927399e+00 5.5273454279045945e+03 1.0000000000000000e+00 1.8627243099616820e+01 2.5624362957631406e+00 1.4688191586826285e+01 
899 900 2 1.0280000000000431e+00 -2.6821925388019019e+02 1.0000000000000000e+00 4.0838169237722854e-01 1.4889840588818281e+01 1.4839683103852964e+01 
720 721 2 1.0280000000000014e+00 1.3493637276031100e+03 1.0000000000000000e+00 7.7452491432610797e+00 1.8703407748446782e+01 1.4577135150022857e+01 
271 272 2 1.0280000000000014e+00 -9.1396702332459301e+02 1.0000000000000000e+00 7.9225145196760689e+00 1.9775171450625599e+01 1.4933887964272643e+01 
418 419 2 1.0280000101072075e+00 -8.4041741202130743e+02 1.0000000000000000e+00 1.9252343795723391e+01 2.8276015478854055e+00 1.5608142438483501e+01 
787 788 2 1.0279999999999994e+00 4.6786385898802166e+01 1.0000000000000000e+00 1.8092152157723866e+01 1.5902497999398717e+01 1.6395118643461569e+01 
1423 1424 2 1.0279999999999994e+00 -9.4861380987747580e+01 1.0000000000000000e+00 1.9035662457735302e+01 1.6434244843535314e+01 1.6028503552416694e+01 
1416 1417 2 1.0279999898841286e+00 -8.3633455992673362e+02 1.0000000000000000e+00 1.6883593241652740e+01 8.1036741000549162e-01 1.6772920059848829e+01 
257 258 2 1.0280000100985962e+00 -2.0955839072210074e+03 1.0000000000000000e+00 1.7966933600127227e+01 1.1487842779546513e+00 1.6911558986184424e+01 
1149 1150 2 1.0279999999999940e+00 -2.0805930248046175e+03 1.0000000000000000e+00 1.0145334433037334e+01 4.4889122371075691e+00 1.8050545039691105e+01 
37 38 2 1.0280000000000005e+00 -2.0039731549990258e+03 1.0000000000000000e+00 1.8231521652080037e+01 5.2897617397373438e+00 1.8021788472755627e+01 
573 574 2 1.0280000000000014e+00 2.5792158615702519e+03 1.0000000000000000e+00 1.2751780318946217e+01 1.0902361914615980e+01 1.8045360978240872e+01 
679 680 2 1.0280000000000000e+00 8.0679488210489035e+02 1.0000000000000000e+00 4.6396303099214604e+00 1.7739630603370571e+01 1.7495993225548787e+01 
52 53 2 1.0280000000000000e+00 -5.9070583114092369e+02 1.0000000000000000e+00 5.6294960401442466e+00 1.7171156355876295e+01 1.7562143686809971e+01 
555 556 2 1.0279999999999878e+00 -4.0729238962549630e+01 1.0000000000000000e+00 1.7382429326114135e+01 2.8096924032896671e+00 1.9417718817451867e+01 
86 87 2 1.0279999999999940e+00 5.4300911035843478e+02 1.0000000000000000e+00 9.8091137077923847e+00 4.4443387848073979e+00 1.9142489108187551e+01 
1271 1272 2 1.0280000000000005e+00 -8.2157561776346665e+02 1.0000000000000000e+00 1.7194113679823250e+01 5.1729956610282288e+00 1.8488182511546537e+01 
987 988 2 1.0280000000000056e+00 -1.1618943178592285e+03 1.0000000000000000e+00 1.3343502201694846e+00 7.3089434216134403e+00 1.9244795432647496e+01 
553 554 2 1.0280000000000014e+00 2.4767102463891697e+03 1.0000000000000000e+00 1.2867373143477650e+01 1.0859348162311484e+01 1.9182093635239987e+01 
1310 1311 2 1.0279999999999878e+00 5.4292755168587803e+02 1.0000000000000000e+00 1.7778868005614385e+01 2.1887204563034475e+00 2.0292134755041658e+01 
650 651 2 1.0280000000000000e+00 1.6229179150952498e+02 1.0000000000000000e+00 6.4794930299498468e+00 4.5284934144959905e+00 2.0815627696249216e+01 
654 655 2 1.0280000000000000e+00 1.3398864970260956e+03 1.0000000000000000e+00 7.5264833579010952e+00 4.9855288603432104e+00 2.0767639448995219e+01 
192 193 2 1.0280000000000056e+00 -2.1987446911065490e+03 1.0000000000000000e+00 1.9266534023178432e+00 7.2705334597614550e+00 2.0222074631600474e+01 
597 598 2 1.0280000000000011e+00 -1.3986197699172171e+03 1.0000000000000000e+00 6.0862752811856993e+00 9.4673881454710251e+00 2.0132976518303114e+01 
132 133 2 1.0280000000000011e+00 -1.3709422053587864e+03 1.0000000000000000e+00 5.0887915646643007e+00 9.7176084465433838e+00 2.0632765527450626e+01 
105 106 2 1.0280000000000000e+00 -9.8979075641655913e+02 1.0000000000000000e+00 9.7721254483910975e+00 1.6929157071369733e+01 2.3176467345584339e+01 
405 406 2 1.0280000000000000e+00 -3.0476081552444202e+02 1.0000000000000000e+00 1.0532087736374672e+01 1.7768176161302407e+01 2.3015603101483734e+01 
253 254 2 1.0279999999999980e+00 -1.1721683018495669e+03 1.0000000000000000e+00 1.5175203042760177e+01 3.1876313516978350e+00 2.4121409794628811e+01 
999 1000 2 1.0280000000000000e+00 -5.1010344216919236e+02 1.0000000000000000e+00 5.2586018256922866e+00 4.4765563712956657e+00 2.3803397418963822e+01 
848 849 2 1.0280000000000000e+00 -1.6798092627061060e+01 1.0000000000000000e+00 6.1564621512715370e+00 3.7818459071227810e+00 2.3939769058897344e+01 
522 523 2 1.0279999999999980e+00 -3.7574088984961975e+02 1.0000000000000000e+00 1.5087292165404698e+01 4.1583885817845161e+00 2.3523684861791160e+01 
1004 1005 2 1.0280000000000040e+00 2.1428951328920166e+03 1.0000000000000000e+00 1.3327697258160219e+01 1.1587844966858343e+01 2.4953492951050261e+01 
498 499 2 1.0280000000000040e+00 1.5706887925009687e+03 1.0000000000000000e+00 1.4044101687209455e+01 1.1377321615378403e+01 2.4087572845047973e+01 
696 697 2 1.0280000000000062e+00 -2.8327862982655688e+02 1.0000000000000000e+00 1.5026653910666425e+00 1.9952692606469089e+01 2.4794530596268448e+01 
506 507 2 1.0280000000000005e+00 2.0894108383336936e+02 1.0000000000000000e+00 2.7706716117647328e+00 1.4394572862592549e+01 2.6580311550809139e+01 
1267 1268 2 1.0280000000000000e+00 1.9247050073048886e+03 1.0000000000000000e+00 1.8121986939093016e+01 1.6360524114340553e+01 2.5293090594275043e+01 
812 813 2 1.0280000000000000e+00 -1.1481402713911925e+03 1.0000000000000000e+00 1.7520340004140905e+01 1.5388425656252705e+01 2.5313549599742061e+01 
852 853 2 1.0279999999999934e+00 -8.9753055440842513e+02 1.0000000000000000e+00 5.2177366261587927e+00 1.7449865054476408e+01 2.5608264989164208e+01 
1120 1121 2 1.0279999999999934e+00 2.1711927112065661e+02 1.0000000000000000e+00 5.9667048212331721e+00 1.6940185037038425e+01 2.6305865118213948e+01 
1221 1222 2 1.0280000000000005e+00 -8.9516443005273391e+02 1.0000000000000000e+00 1.4259256158953511e+01 9.0752135625659971e+00 2.6678819254590884e+01 
766 767 2 1.0280000000000005e+00 -1.4132075441583838e+03 1.0000000000000000e+00 1.5033459326975926e+01 8.9199494913334263e+00 2.7505786932476230e+01 
266 267 2 1.0279999999999996e+00 1.0207374493432005e+03 1.0000000000000000e+00 6.7323791430783562e+00 1.3731572576791143e+01 2.7206530897017270e+01 
1175 1176 2 1.0279999999999996e+00 -4.5294451706129067e+01 1.0000000000000000e+00 6.7303976484580144e+00 1.4717302428093715e+01 2.7785932097731266e+01 
138 139 2 1.0280000000000000e+00 2.4532600458957531e+03 1.0000000000000000e+00 1.0121401336759135e+01 1.4905240019012783e+01 2.7664877166910443e+01 
638 639 2 1.0280000000000005e+00 1.3144124051594937e+02 1.0000000000000000e+00 2.6544880846204921e+00 1.5182026038690790e+01 2.7401159832120523e+01 
141 142 2 1.0280000000000000e+00 9.3424029196520428e+02 1.0000000000000000e+00 1.0007359889664935e+01 1.5674468549371435e+01 2.8503122377982759e+01 
745 746 2 1.0280000000000002e+00 -1.5166146739959731e+02 1.0000000000000000e+00 1.5645603416083953e+00 3.4437055643151577e+00 3.1474551079295729e+01 
521 522 2 1.0280000000000000e+00 6.4113223236555405e+02 1.0000000000000000e+00 1.6425133712984799e+01 5.5861570458656837e+00 3.0658313610668561e+01 
1129 1130 2 1.0280000000000000e+00 -2.3417081230188760e+03 1.0000000000000000e+00 1.6597876667518232e+01 6.7163978116590108e+00 3.0667731702657608e+01 
830 831 2 1.0280000000000067e+00 -6.4524890823230157e+02 1.0000000000000000e+00 1.9408536621140851e+01 1.5359300022438475e+01 3.1591616098873359e+01 
1020 1021 2 1.0280000000000014e+00 -1.1965691674464265e+03 1.0000000000000000e+00 9.5527870597198241e+00 2.0800917016787572e+00 3.2548309366338607e+01 
564 565 2 1.0280000000000014e+00 -1.6305582666229507e+03 1.0000000000000000e+00 1.0567927992371857e+01 2.4221126250416671e+00 3.2948163830231508e+01 
593 594 2 1.0280000000000002e+00 6.2314320642820667e+02 1.0000000000000000e+00 2.3961939001836141e+00 3.7030660073752273e+00 3.2215152728150187e+01 
780 781 2 1.0280000000000054e+00 -2.4253544135999009e+03 1.0000000000000000e+00 8.3041778018454497e+00 5.5081535695772503e+00 3.2576292902278965e+01 
676 677 2 1.0280000000000056e+00 -6.5685488650626257e+02 1.0000000000000000e+00 6.4842593218519406e-01 8.6303923332719030e+00 3.1677046813812872e+01 
888 889 2 1.0280000000000067e+00 1.8655357822271044e+03 1.0000000000000000e+00 1.9818627492168343e+01 1.4539171937955116e+01 3.2274688876840891e+01 
353 354 2 1.0279999999999958e+00 -7.4141755042386990e+02 1.0000000000000000e+00 1.9437480860443138e+01 1.8809053116264760e+01 3.2638756980253817e+01 
1182 1183 2 1.0279999999999958e+00 -1.7477806112163935e+03 1.0000000000000000e+00 1.9973095395317969e+01 1.9754558259792535e+01 3.2283074381505863e+01 
55 56 2 1.0279999999999876e+00 7.0164188680681673e+02 1.0000000000000000e+00 1.9094808989403585e+01 1.0974118116259297e+00 3.3876643509965710e+01 
955 956 2 1.0279999999999876e+00 1.1238465950033763e+03 1.0000000000000000e+00 1.9454137523465928e+01 1.1166446410843229e+00 3.4961948130953949e+01 
545 546 2 1.0280000000000054e+00 3.5729731911998942e+03 1.0000000000000000e+00 7.7799454348155583e+00 5.9226120055202269e+00 3.3504073936625247e+01 
401 402 2 1.0280000000000049e+00 -1.0592413277731075e+03 1.0000000000000000e+00 1.6886088986999816e+01 6.5163811343490261e+00 3.4016633475768757e+01 
1025 1026 2 1.0280000000000025e+00 1.9662360581919609e+02 1.0000000000000000e+00 1.9495744984610297e+01 5.0316894254995246e+00 3.4609308318796216e+01 
1094 1095 2 1.0280000000000025e+00 -2.5815330803930628e+03 1.0000000000000000e+00 1.9788562333929040e+01 6.0813059640758640e+00 3.4955626293125732e+01 
1356 1357 2 1.0280000000000000e+00 3.3772330743385692e+03 1.0000000000000000e+00 4.2795296310249542e-01 3.2615063373523876e+00 3.5364497515847624e+01 
892 893 2 1.0280000000000000e+00 -4.0045015107561528e+02 1.0000000000000000e+00 1.1389300379204280e-01 4.3469502996008824e+00 3.5539285284970482e+01 
1504 1505 2 1.0280000000000049e+00 1.4566333468465501e+02 1.0000000000000000e+00 1.6927362412980084e+01 6.1401535760145469e+00 3.5095578491103758e+01 
1235 1236 2 1.0279999999999798e+00 -3.1144903456842593e+02 1.0000000000000000e+00 1.5851540534833335e+01 1.6094459250347288e+01 3.6282929149537360e+01 
383 384 2 1.0279999999999987e+00 -1.4008646831848637e+03 1.0000000000000000e+00 1.9736237187363947e+01 1.8980044935526625e+01 3.6500641273164320e+01 
84 85 2 1.0279999999999798e+00 9.7336933275880961e+02 1.0000000000000000e+00 1.6383745927508894e+01 1.6373684177903748e+01 3.7255638703976388e+01 
773 774 2 1.0280000000000129e+00 -1.6931843613363071e+02 1.0000000000000000e+00 1.3458917624313227e+00 1.7433797366269314e+01 3.6772651026821904e+01 
925 926 2 1.0280000000000129e+00 7.7078713675952713e+02 1.0000000000000000e+00 1.6590331352239540e+00 1.7149724165195749e+01 3.7835015330879628e+01 
1138 1139 2 1.0280000000000016e+00 -4.5190130888853184e+02 1.0000000000000000e+00 4.7130031796820795e+00 1.8013423162443793e+01 3.8170391976956004e+01 
1026 1027 2 1.0279999999999994e+00 -8.5882368060062436e+02 1.0000000000000000e+00 1.9059361424350133e+01 2.6871701012188014e+00 3.8440840713190838e+01 
874 875 2 1.0279999999999994e+00 2.4161496824738214e+02 1.0000000000000000e+00 1.9941999967450144e+01 3.3011182223371991e+00 3.8829929294709522e+01 
1488 1489 2 1.0279999999999638e+00 1.4528049744123715e+02 1.0000000000000000e+00 3.2694310887751510e-01 8.6893298526527261e+00 3.8865218561357473e+01 
322 323 2 1.0279999999999638e+00 -1.0488667439854396e+03 1.0000000000000000e+00 5.5814119018175923e-01 8.6531645321839594e+00 3.9984420301105729e+01 
128 129 2 1.0280000000000111e+00 1.1821433609435783e+03 1.0000000000000000e+00 9.7374264908465431e+00 8.9924609878653481e+00 3.9146329986414294e+01 
829 830 2 1.0280000000000016e+00 -4.5182300415070287e+01 1.0000000000000000e+00 4.4083562371730620e+00 1.9046174428358917e+01 3.8555084166413174e+01 
567 568 2 1.0280000000000005e+00 3.3002626208564050e+02 1.0000000000000000e+00 1.3432472866496093e+01 6.0663651157057128e+00 4.0138369437307674e+01 
563 564 2 1.0280000000000005e+00 -1.0394983651223861e+03 1.0000000000000000e+00 1.2845137846446621e+01 7.0390817710136977e+00 4.0265777836436897e+01 
68 69 2 1.0280000000000111e+00 1.8388289995965027e+02 1.0000000000000000e+00 1.0260811470233623e+01 8.5169035655157046e+00 4.0044821120960897e+01 
683 684 2 1.0279999999999991e+00 1.9461089856077035e+02 1.0000000000000000e+00 2.3033470042914010e+00 4.1580208511089092e+00 4.2919579237153471e+01 
682 683 2 1.0279999999999991e+00 6.9319033994804229e+01 1.0000000000000000e+00 3.3585476407909649e+00 4.4769512854875346e+00 4.3223236959295889e+01 
1059 1060 2 1.0279999999999936e+00 5.6451752549686728e+02 1.0000000000000000e+00 8.8052791077324581e+00 4.9199527131632879e+00 4.2945531105035229e+01 
1284 1285 2 1.0279999999999911e+00 -1.7995979611256494e+03 1.0000000000000000e+00 3.1858144030812592e+00 9.5498933672421273e+00 4.2972121952410859e+01 
1055 1056 2 1.0279999999999925e+00 -2.2273397295499954e+03 1.0000000000000000e+00 6.5920308919793245e+00 1.0616309655147850e+01 4.3180793428827883e+01 
763 764 2 1.0279999999999925e+00 7.4475087469922323e+02 1.0000000000000000e+00 7.2944838460353294e+00 1.1048554791439566e+01 4.2388898860751475e+01 
862 863 2 1.0280000000130718e+00 8.0089211874467719e+02 1.0000000000000000e+00 7.8425261292151021e+00 9.9517750236188651e-01 4.4105448601271661e+01 
252 253 2 1.0280000000000149e+00 -8.7133173925466053e+02 1.0000000000000000e+00 8.5064099399194664e+00 1.6632829663703177e+00 4.3452116786608570e+01 
183 184 2 1.0279999999999936e+00 5.2479906337517514e+02 1.0000000000000000e+00 8.7293668516707186e+00 4.9134558311148622e+00 4.4086393996605480e+01 
302 303 2 1.0279999999999996e+00 -7.0813998698814203e+02 1.0000000000000000e+00 1.7541750763536012e+01 8.0169141627351568e+00 4.3527090541869285e+01 
1362 1363 2 1.0279999999999911e+00 -6.4691646769175964e+02 1.0000000000000000e+00 3.3958986773717923e+00 9.5116542562803907e+00 4.4095409709642929e+01 
303 304 2 1.0279999999999996e+00 -8.0720194390885013e+02 1.0000000000000000e+00 1.7256976658482422e+01 9.1191017496943925e+00 4.3634138426961172e+01 
412 413 2 1.0279999999999843e+00 1.1863539629255833e+03 1.0000000000000000e+00 1.9989438261719464e+01 1.2565696771662267e+01 4.4178181927178933e+01 
1261 1262 2 1.0279999999999927e+00 -2.1359157380753868e+03 1.0000000000000000e+00 5.9668868824613002e+00 1.8571817861999577e+01 4.4633235659477791e+01 
1061 1062 2 1.0280000000000000e+00 3.0614309187753764e+02 1.0000000000000000e+00 3.4459186737145151e+00 3.0610725313732949e+00 4.5723395650594426e+01 
1354 1355 2 1.0280000000000000e+00 -5.1015647565919721e+01 1.0000000000000000e+00 4.1166920497111361e+00 3.9861115783235652e+00 4.5681696044718919e+01 
1093 1094 2 1.0279960966751593e+00 -9.3019112325562219e+02 1.0000000000000000e+00 1.9105585059160965e+01 4.3132874529961747e+00 4.5407123527653916e+01 
382 383 2 1.0279999999999927e+00 -1.5287985897471890e+03 1.0000000000000000e+00 6.6775864079181879e+00 1.7854165330719137e+01 4.5169196522154259e+01 
878 879 2 1.0279999999999949e+00 -9.3376344589120117e+02 1.0000000000000000e+00 5.3211927653650388e+00 1.3935245525064580e+01 4.8190216069251392e+01 
596 597 2 1.0280000000000034e+00 6.8979876142276350e+02 1.0000000000000000e+00 1.6010977819419892e+01 1.7861036269705320e+01 4.7205818114943881e+01 
842 843 2 1.0279999999999996e+00 9.8945956876300488e+02 1.0000000000000000e+00 5.9277183625200562e+00 1.9768801462122177e+01 4.8099889601695054e+01 
748 749 2 1.0280000000000034e+00 -2.5406993479233333e+02 1.0000000000000000e+00 1.5190114434785210e+01 1.8377211064228476e+01 4.7811722317540131e+01 
1131 1132 2 1.0279962367639532e+00 -6.9611676564555910e+02 1.0000000000000000e+00 1.9372262976048098e+01 4.2836385289243646e+00 4.8482226880744498e+01 
1519 1520 2 1.0279999999999938e+00 -1.5004332792229948e+03 1.0000000000000000e+00 1.4114785159921869e+01 5.4749726472398903e+00 4.9522678980922862e+01 
726 727 2 1.0279999999999949e+00 -9.5496036049178701e+02 1.0000000000000000e+00 5.4209652126517565e+00 1.4918782232930434e+01 4.8764736756869844e+01 
1449 1450 2 1.0279999999999996e+00 -2.4030822922692614e+01 1.0000000000000000e+00 6.2449503291131858e+00 1.8705239584003326e+01 4.8374795091350137e+01 
941 942 2 1.0279999999999938e+00 -2.3417238425127337e+01 1.0000000000000000e+00 1.4904197351422093e+01 5.9239716148231665e+00 5.0217374120159299e+01 
791 792 2 1.0280000000000038e+00 4.7708801206506848e+02 1.0000000000000000e+00 1.9787858929439935e+01 1.2717138804130689e+01 5.0305509870264430e+01 
542 543 2 1.0280000000000002e+00 -1.7995457693107291e+01 1.0000000000000000e+00 5.7755109456867659e+00 1.7355549102266621e+00 5.2722952616391282e+01 
693 694 2 1.0280000000000002e+00 -3.5342823772251290e+02 1.0000000000000000e+00 6.8125221737069808e+00 2.2132820873904602e+00 5.2661654373203937e+01 
795 796 2 1.0279999432733484e+00 8.5543284743308519e+01 1.0000000000000000e+00 1.5588956873619386e+01 2.9415992657558512e+00 5.1952567218258601e+01 
1028 1029 2 1.0280000566819347e+00 -1.9888977992237747e+02 1.0000000000000000e+00 1.2780674722599738e+01 4.2156251311119517e+00 5.3254511631104151e+01 
429 430 2 1.0280000568490164e+00 2.3642594151999697e+03 1.0000000000000000e+00 1.4561570476813218e+01 3.3974963858051179e+00 5.1742785742503472e+01 
1023 1024 2 1.0279999999999967e+00 6.1109902606485502e+02 1.0000000000000000e+00 2.4512522520860455e-01 5.8812936416620234e+00 5.3152149193220417e+01 
769 770 2 1.0280000000000000e+00 -3.9312487992275610e+03 1.0000000000000000e+00 1.7585438950599816e+01 1.4608057381628107e+01 5.3266934000602816e+01 
1441 1442 2 1.0280000000000000e+00 5.7255253095997114e+02 1.0000000000000000e+00 1.7573603615762210e+01 1.5246792435502215e+01 5.2318645820111009e+01 
1456 1457 2 1.0280000000000000e+00 3.5804966680982204e+02 1.0000000000000000e+00 9.1210010259588934e+00 1.9365169751020204e+01 5.1977867952664269e+01 
535 536 2 1.0279999431062667e+00 -6.4314072964553543e+02 1.0000000000000000e+00 1.3428105780547304e+01 4.3227032958905793e+00 5.4190855880047046e+01 
1222 1223 2 1.0280000000000018e+00 -3.5039930075503287e+02 1.0000000000000000e+00 2.4960893702588787e+00 1.1746226019310207e+01 5.4606905503623381e+01 
419 420 2 1.0279999999999894e+00 -1.2953844901090579e+03 1.0000000000000000e+00 1.4944660904870874e+01 1.4958194910922888e+01 5.3850267266572097e+01 
540 541 2 1.0279999999999894e+00 1.3222617272645721e+03 1.0000000000000000e+00 1.4051008795794248e+01 1.5170318789015734e+01 5.4531268284004916e+01 
1494 1495 2 1.0280000000000000e+00 1.2342602022332892e+02 1.0000000000000000e+00 7.3479199379299420e-01 3.1768962562856204e+00 5.5252377307190031e+01 
906 907 2 1.0280000000000000e+00 -7.6024756773265699e+02 1.0000000000000000e+00 1.1168283006708746e+00 4.2470211222001613e+00 5.5124885938708722e+01 
346 347 2 1.0279999999999963e+00 -5.8273388618376157e+02 1.0000000000000000e+00 1.0731689289833207e+01 8.1150324319976832e+00 5.6613775572575825e+01 
1249 1250 2 1.0280000000000158e+00 -9.6053682331709570e+02 1.0000000000000000e+00 2.1278621449421573e+00 1.1138518733452864e+01 5.5867406695092946e+01 
85 86 2 1.0280000000000100e+00 8.4222519102680826e+02 1.0000000000000000e+00 1.6239983690879687e+00 1.2450251361643025e+01 5.5522093075367373e+01 
73 74 2 1.0279999999999938e+00 6.8515745884662806e+02 1.0000000000000000e+00 5.3103292637463619e+00 1.7277799127419801e+01 5.6532463979609915e+01 
1285 1286 2 1.0280000000000091e+00 -1.3740862013063506e+03 1.0000000000000000e+00 9.8271463458975710e+00 1.9873876825118248e+01 5.5807138317881346e+01 
670 671 2 1.0279999999999963e+00 1.2864173782040307e+03 1.0000000000000000e+00 9.9443199842913916e+00 7.4665143001079199e+00 5.7130347761877154e+01 
1201 1202 2 1.0279999999999938e+00 2.4512392675604979e+03 1.0000000000000000e+00 5.4727694491228869e+00 1.6229953155748770e+01 5.6960254843568464e+01 
1415 1416 2 1.0280000000000475e+00 1.4968723689576805e+03 1.0000000000000000e+00 2.6544817850377746e-03 7.6806629496313950e-01 5.9515690826878469e+01 
647 648 2 1.0279999999999867e+00 3.5729298831915821e+02 1.0000000000000000e+00 5.0568805054613986e-01 6.2881171089180192e+00 5.9967086984080900e+01 
27 28 2 1.0279999999999996e+00 3.7189340973489220e+02 1.0000000000000000e+00 1.4775596503017377e+01 1.4573633217461760e+01 5.9041502626206153e+01 
327 328 2 1.0279999999999996e+00 -2.8522040699333484e+03 1.0000000000000000e+00 1.4048771430887481e+01 1.5432207089909028e+01 5.9246317756343103e+01 
621 622 2 1.0280000064888095e+00 -1.8941137178916190e+02 1.0000000000000000e+00 1.7162408715842176e+01 1.8830003779721185e+01 5.9355819725289116e+01 
495 496 2 1.0279999999999867e+00 -7.8850907701025562e+02 1.0000000000000000e+00 2.3956598023089060e-01 5.9690441653871664e+00 6.1032330861254799e+01 
330 331 2 1.0280000000000000e+00 -8.7350293011960798e+02 1.0000000000000000e+00 1.5660558913803778e+01 9.5791094165549229e+00 6.0631822672811488e+01 
181 182 2 1.0280000000000000e+00 -3.2425012285255787e+02 1.0000000000000000e+00 1.6422914783950603e+01 1.0412018130270821e+01 6.0811960451546391e+01 
109 110 2 1.0280000001281899e+00 6.3753670673282943e+02 1.0000000000000000e+00 8.5814237282243901e+00 1.8312402238097814e+01 6.1623528646168864e+01 
538 539 2 1.0279999995187665e+00 -6.5675014248309799e+02 1.0000000000000000e+00 9.5769087133556834e+00 1.7206299997682514e+01 6.1636074549872468e+01 
1277 1278 2 1.0279999999999903e+00 -1.7075207368762681e+03 1.0000000000000000e+00 1.9214547086720181e+01 1.7086587576166902e+01 6.0869179470197615e+01 
469 470 2 1.0279999939775972e+00 7.2796641302055775e+02 1.0000000000000000e+00 1.7380947733463991e+01 1.9108586506925960e+01 6.0487105416726109e+01 
700 701 2 1.0280000000000027e+00 -1.5402992538429244e+03 1.0000000000000000e+00 8.0266780970284906e+00 5.2945516629527694e+00 6.3079171909367872e+01 
655 656 2 1.0280000000000005e+00 6.0172876963185331e+02 1.0000000000000000e+00 1.1614086601888454e+01 8.1198667524785275e+00 6.1872394396281884e+01 
1392 1393 2 1.0279999999999876e+00 -9.1953066986035992e+02 1.0000000000000000e+00 1.8010853351544565e+01 7.9029844770976974e+00 6.2096597426278748e+01 
1411 1412 2 1.0279999999999876e+00 -4.8763286742309596e+01 1.0000000000000000e+00 1.8577523272273424e+01 8.0014227110068035e+00 6.3084812044924313e+01 
130 131 2 1.0280000000000005e+00 5.2951885801449419e+02 1.0000000000000000e+00 1.2149071493462863e+01 9.1188305059549926e+00 6.2024826684482477e+01 
625 626 2 1.0280000011551798e+00 -1.2152105022066289e+03 1.0000000000000000e+00 1.0105655124414127e+01 1.5865803915441129e+01 6.3223431782249982e+01 
701 702 2 1.0279999999984624e+00 -1.3518368457033430e+03 1.0000000000000000e+00 8.2560953925818410e+00 1.7083008930070346e+01 6.2788925654829619e+01 
524 525 2 1.0279999993411881e+00 4.9798882851351209e+02 1.0000000000000000e+00 1.0732687578266138e+01 1.7246265627882618e+01 6.2663793612126611e+01 
1461 1462 2 1.0280000000000085e+00 5.9759249409047163e+02 1.0000000000000000e+00 1.3767983019892057e+01 1.7841383558881482e+01 6.1993458930675025e+01 
1489 1490 2 1.0280000000000085e+00 2.8966786645566826e+03 1.0000000000000000e+00 1.4572794633797196e+01 1.7412732656909736e+01 6.2683321009514643e+01 
544 545 2 1.0279999999999903e+00 1.1464537552866836e+03 1.0000000000000000e+00 1.8750297629753845e+01 1.6852231186333910e+01 6.1887473406990765e+01 
507 508 2 1.0280000000122225e+00 -2.2559428095331901e+02 1.0000000000000000e+00 8.4759054678877277e+00 1.8367584809254538e+01 6.3172505217897516e+01 
1196 1197 2 1.0280000000000027e+00 -5.2113122591771707e+02 1.0000000000000000e+00 7.6326712020601928e+00 4.5050152798695722e+00 6.3806333434728003e+01 
1137 1138 2 1.0279985752960492e+00 2.0210371403083909e+03 1.0000000000000000e+00 4.5339857345958530e+00 1.2391985624628465e+01 6.3821043887445114e+01 
981 982 2 1.0280014259864656e+00 3.2742284507108880e+03 1.0000000000000000e+00 3.6340540798346721e+00 1.2987205226047626e+01 6.4199482457485516e+01 
912 913 2 1.0280000000000014e+00 -5.3745667662065557e+02 1.0000000000000000e+00 1.6909310176930362e+01 1.2169201607405643e+01 6.4042110106951426e+01 
908 909 2 1.0280000000000014e+00 -1.3992001570934399e+03 1.0000000000000000e+00 1.7662476619933436e+01 1.2943685120251159e+01 6.4416661324975479e+01 
398 399 2 1.0279999999130447e+00 -4.2394175262436347e+03 1.0000000000000000e+00 9.4448890626312298e+00 1.4517020901195421e+01 6.3905993151620649e+01 
680 681 2 1.0280000000000042e+00 6.4286712439524899e+02 1.0000000000000000e+00 5.5579065718971166e-01 1.5261179624834677e+01 6.4290959631974459e+01 
1466 1467 2 1.0280014268348270e+00 1.5538512549450559e+02 1.0000000000000000e+00 4.4502802745403516e+00 1.5267565101911117e+01 6.4526192786079775e+01 