LAMMPS data file via write_data, version 30 Jul 2016, timestep = 50000000

1520 atoms
8 atom types

0.0000000000000000e+00 4.0000000000000000e+01 xlo xhi
0.0000000000000000e+00 4.0000000000000000e+01 ylo yhi
0.0000000000000000e+00 1.0000000000000000e+02 zlo zhi

Masses

1 3.896
2 5.36
3 20.064
4 8.378
5 8.378
6 8.378
7 8.378
8 8.378

Atoms # meso-molecular

811 812 2 1.0280000000000118e+00 8.0478548463703214e+02 1.0000000000000000e+00 1.6251569027551941e+01 1.0537465987104879e+01 4.4997835996205660e-01 
1250 1251 2 1.0280000000000000e+00 -4.5631182369568694e+02 1.0000000000000000e+00 1.2890413623572575e+01 1.3181587669194775e+01 1.5923240142645467e+00 
962 963 2 1.0280000000000000e+00 6.9912694183874493e+01 1.0000000000000000e+00 1.3943668184780575e+01 1.2839856436426775e+01 1.3072843480702658e+00 
276 277 2 1.0279999999999991e+00 7.6965604750748412e+02 1.0000000000000000e+00 8.4382500123563062e+00 4.2908327946052314e+00 2.7872144446479519e+00 
375 376 2 1.0279999999999991e+00 -3.8699286324888794e+02 1.0000000000000000e+00 8.0214016047319312e+00 5.3406216576975432e+00 2.6095806487443602e+00 
1233 1234 2 1.0279999999999996e+00 1.7339949514332397e+02 1.0000000000000000e+00 3.3816157743007720e+00 1.2647336451951956e+01 3.1403771904879356e+00 
1334 1335 2 1.0280000000000005e+00 -1.0044847368978396e+03 1.0000000000000000e+00 5.5055806379492616e+00 1.7233340954039871e+01 1.7389653100252267e+00 
1374 1375 2 1.0280000000000005e+00 -1.9139407992962163e+02 1.0000000000000000e+00 6.5211831598703274e+00 1.7381274285586670e+01 2.2429893812200206e+00 
1454 1455 2 1.0280000000000007e+00 2.7605835683611741e+02 1.0000000000000000e+00 1.9738614077656575e+01 6.4262175944046529e+00 4.3909788606953501e+00 
1194 1195 2 1.0280000000000005e+00 -1.1731241169354225e+03 1.0000000000000000e+00 5.5380319541566720e+00 7.8440795303639232e+00 3.8732962253937351e+00 
910 911 2 1.0280000000000005e+00 1.3426879814306521e+03 1.0000000000000000e+00 6.0306128614089145e+00 7.0741954951544805e+00 4.5603301689503271e+00 
1385 1386 2 1.0279999999999996e+00 -1.9447747025385900e+02 1.0000000000000000e+00 3.8031100747800775e+00 1.2673126828050803e+01 4.2029450370854518e+00 
951 952 2 1.0280000000000027e+00 -8.2221746631178917e+02 1.0000000000000000e+00 7.3183160341768394e+00 1.0289310784195838e+01 5.5463494397576607e+00 
799 800 2 1.0280000000000027e+00 9.3828344892445983e+01 1.0000000000000000e+00 7.4134233127164242e+00 1.0887041852049022e+01 6.5164242789069995e+00 
1123 1124 2 1.0279999999999985e+00 -4.0427100094725356e+03 1.0000000000000000e+00 3.8861181919971977e-01 1.3108852264214272e+01 6.3837392818079248e+00 
994 995 2 1.0280000000000000e+00 -1.8584891707142583e+02 1.0000000000000000e+00 1.2503465048676686e+01 1.7722002186323365e+01 5.4561397915740573e+00 
190 191 2 1.0280000000000000e+00 7.2899439492785336e+02 1.0000000000000000e+00 1.3621330025770094e+01 1.7923328029549378e+01 5.3249193080509816e+00 
406 407 2 1.0279999999999994e+00 7.6964983039252502e+02 1.0000000000000000e+00 8.1675630137563271e+00 1.3785071996698210e+01 8.2755852143130539e+00 
134 135 2 1.0279999999999994e+00 5.0491567659213479e+02 1.0000000000000000e+00 7.2463555504919306e+00 1.4402231404340537e+01 8.5546265959095695e+00 
502 503 2 1.0280000000000020e+00 -6.4201920451329647e+02 1.0000000000000000e+00 1.1073014155533093e+01 1.7991484939170235e+01 8.3569670773695286e+00 
853 854 2 1.0280000000000020e+00 -8.5139054062557511e+02 1.0000000000000000e+00 1.1491789115419802e+01 1.8156548010411896e+01 9.4080402113344714e+00 
1364 1365 2 1.0280000000000000e+00 -5.8332903819536500e+02 1.0000000000000000e+00 5.8372989768426580e+00 2.5288042390341716e+00 1.0322541736647803e+01 
931 932 2 1.0280000000000000e+00 3.0819620903545829e+03 1.0000000000000000e+00 6.9065558138549292e+00 2.1985018676552581e+00 1.0088099467799541e+01 
1369 1370 2 1.0279999999999987e+00 6.5175512815146203e+02 1.0000000000000000e+00 1.6156631654509582e+01 1.0385648834752846e+01 1.0525520927559665e+01 
1105 1106 2 1.0279999999999987e+00 -5.2375580503919446e+02 1.0000000000000000e+00 1.5475498659682600e+01 1.0164157243171784e+01 1.1416796606390665e+01 
665 666 2 1.0279999999999947e+00 -4.2585825914753752e+02 1.0000000000000000e+00 4.9421914470534425e+00 1.5435804525045608e+01 1.0721166368551703e+01 
561 562 2 1.0279999999999947e+00 -1.4590626990991755e+03 1.0000000000000000e+00 5.6616676911737018e+00 1.5907291805104895e+01 1.1474443672303558e+01 
710 711 2 1.0280000000000000e+00 7.1946365724908219e+02 1.0000000000000000e+00 1.2047833038753250e+01 1.1882095834040474e+00 1.2352963678442645e+01 
724 725 2 1.0280000000000000e+00 3.2463791814660379e+02 1.0000000000000000e+00 1.3188459748181506e+01 1.2405915636495497e+00 1.2412962472956949e+01 
1469 1470 2 1.0280000000000000e+00 -1.5535658434646248e+03 1.0000000000000000e+00 1.1019056932128344e+00 1.0804386738086393e+01 1.2051898856870782e+01 
1030 1031 2 1.0280000000000000e+00 4.3179301433495914e+02 1.0000000000000000e+00 1.6021421979866307e-01 1.1443447638794360e+01 1.2162313310381673e+01 
294 295 2 1.0280000000000007e+00 -1.0178917227600612e+03 1.0000000000000000e+00 2.3477931350419512e+00 1.3281318964014408e+01 1.3227094174330620e+01 
1312 1313 2 1.0279999999999987e+00 -1.0134402385353430e+03 1.0000000000000000e+00 1.1959701780811875e+01 1.7618382054725974e+01 1.2057283570539587e+01 
1213 1214 2 1.0279999999999987e+00 2.2683307018400337e+03 1.0000000000000000e+00 1.2747705762502060e+01 1.7102717694557622e+01 1.2705753315362987e+01 
932 933 2 1.0279999999999996e+00 1.5136241403875900e+02 1.0000000000000000e+00 1.9011666900697982e+01 1.7950983848749249e+01 1.1868106891981400e+01 
527 528 2 1.0280000000000054e+00 -2.3796011727541926e+02 1.0000000000000000e+00 6.6738727614685311e+00 1.8889593155571930e+01 1.3056873141188245e+01 
438 439 2 1.0279999999999996e+00 -1.0444950602796116e+03 1.0000000000000000e+00 1.8095132633755284e+01 1.8627201610655920e+01 1.1767769992186325e+01 
920 921 2 1.0280000000000007e+00 2.7724134991867240e+03 1.0000000000000000e+00 3.4487274382205770e+00 1.3188333773090175e+01 1.3521492597920345e+01 
539 540 2 1.0280000000000054e+00 -7.4982857396769919e+02 1.0000000000000000e+00 6.9182630197233026e+00 1.9718770919422390e+01 1.3805278549416188e+01 
1001 1002 2 1.0279812386013139e+00 5.5273454210190230e+03 1.0000000000000000e+00 1.8795253850631774e+01 2.4940387382547575e+00 1.6700882727929557e+01 
418 419 2 1.0280189254620520e+00 -8.4041734701385883e+02 1.0000000000000000e+00 1.9419677141981616e+01 2.7629143519524084e+00 1.7620260064109100e+01 
899 900 2 1.0280000000000105e+00 -2.6821925388019019e+02 1.0000000000000000e+00 4.5959479747425241e-01 1.5231234883696509e+01 1.6705324877393181e+01 
720 721 2 1.0279999999999987e+00 1.3493637276031100e+03 1.0000000000000000e+00 7.7697633195499831e+00 1.8242143671912320e+01 1.6717997358170241e+01 
1423 1424 2 1.0280000000000014e+00 -9.4861380987747580e+01 1.0000000000000000e+00 1.8820561576273153e+01 1.6727838706001283e+01 1.7990836510253633e+01 
271 272 2 1.0279999999999987e+00 -9.1396702332459301e+02 1.0000000000000000e+00 7.9470286959649723e+00 1.9313907374091137e+01 1.7074750172420043e+01 
1416 1417 2 1.0279986287929523e+00 -8.3633456090772813e+02 1.0000000000000000e+00 1.6883096487310855e+01 1.1255703050412136e+00 1.8962619901015657e+01 
257 258 2 1.0280013951316531e+00 -2.0955839228281930e+03 1.0000000000000000e+00 1.7966362239593945e+01 1.4659390300783888e+00 1.9097019754410749e+01 
1149 1150 2 1.0280000000000076e+00 -2.0805930248046175e+03 1.0000000000000000e+00 1.0106663479309219e+01 3.8232005184211206e+00 1.9845497008677661e+01 
787 788 2 1.0280000000000014e+00 4.6786385898802166e+01 1.0000000000000000e+00 1.7877051276261717e+01 1.6196091861837594e+01 1.8357451601259203e+01 
679 680 2 1.0280000000000000e+00 8.0679488210489035e+02 1.0000000000000000e+00 5.0317633310868244e+00 1.7433516867055843e+01 1.9656442949928980e+01 
52 53 2 1.0280000000000000e+00 -5.9070583114092369e+02 1.0000000000000000e+00 6.0216290613096106e+00 1.6865042619561567e+01 1.9722593411190164e+01 
555 556 2 1.0279999999997911e+00 -4.0729238962549630e+01 1.0000000000000000e+00 1.7171564762245293e+01 2.3222233967164874e+00 2.1421435013547651e+01 
86 87 2 1.0280000000000076e+00 5.4300911035843478e+02 1.0000000000000000e+00 9.7704427540642698e+00 3.7786270661090553e+00 2.0937441077173595e+01 
1271 1272 2 1.0280000000000000e+00 -8.2157561776346665e+02 1.0000000000000000e+00 1.7054662760033853e+01 4.9233815247342436e+00 2.0794633104078425e+01 
37 38 2 1.0280000000000000e+00 -2.0039731549990258e+03 1.0000000000000000e+00 1.8092070732290640e+01 5.0401476034433585e+00 2.0328239065287512e+01 
987 988 2 1.0280000000000031e+00 -1.1618943178592285e+03 1.0000000000000000e+00 1.8004330544189768e+00 7.4779462838071193e+00 2.0945376288553931e+01 
573 574 2 1.0279999999999938e+00 2.5792158615702519e+03 1.0000000000000000e+00 1.3307640116603594e+01 1.1086602845039110e+01 2.0339585463677917e+01 
553 554 2 1.0279999999999938e+00 2.4767102463891697e+03 1.0000000000000000e+00 1.3423232941135026e+01 1.1043589092734614e+01 2.1476318120677046e+01 
1310 1311 2 1.0279999999997911e+00 5.4292755168587803e+02 1.0000000000000000e+00 1.7568003440709141e+01 1.7012514499664204e+00 2.2295850951775506e+01 
654 655 2 1.0280000000000000e+00 1.3398864970260956e+03 1.0000000000000000e+00 7.7584198805110942e+00 4.9350703017673272e+00 2.2757082290747963e+01 
650 651 2 1.0280000000000000e+00 1.6229179150952498e+02 1.0000000000000000e+00 6.7114295525598457e+00 4.4780348559201073e+00 2.2805070538001953e+01 
192 193 2 1.0280000000000031e+00 -2.1987446911065490e+03 1.0000000000000000e+00 2.3927362365249101e+00 7.4395363219551340e+00 2.1922655487532626e+01 
597 598 2 1.0279999999999920e+00 -1.3986197699172171e+03 1.0000000000000000e+00 6.0981660657204841e+00 9.6952164751840453e+00 2.1921486282577128e+01 
132 133 2 1.0279999999999920e+00 -1.3709422053587864e+03 1.0000000000000000e+00 5.1006823491990856e+00 9.9454367762564040e+00 2.2421275291724680e+01 
1279 1280 2 1.0280000000000000e+00 1.1873578144696658e+03 1.0000000000000000e+00 1.9981324226696451e+01 6.4337664018228349e+00 2.4446657738124383e+01 
105 106 2 1.0280000000000005e+00 -9.8979075641655913e+02 1.0000000000000000e+00 9.5088198086994176e+00 1.6820768620088817e+01 2.4923529387947873e+01 
405 406 2 1.0280000000000005e+00 -3.0476081552444202e+02 1.0000000000000000e+00 1.0268782096682992e+01 1.7659787710021490e+01 2.4762665143847272e+01 
253 254 2 1.0280000000000000e+00 -1.1721683018495669e+03 1.0000000000000000e+00 1.5132357050050860e+01 2.9419179082360780e+00 2.6093063207868465e+01 
999 1000 2 1.0279999999999996e+00 -5.1010344216919236e+02 1.0000000000000000e+00 5.4147493145867625e+00 4.2025932822809375e+00 2.5975827576060613e+01 
848 849 2 1.0279999999999996e+00 -1.6798092627061060e+01 1.0000000000000000e+00 6.3126096401660128e+00 3.5078828181080528e+00 2.6112199215994139e+01 
522 523 2 1.0280000000000000e+00 -3.7574088984961975e+02 1.0000000000000000e+00 1.5044446172695380e+01 3.9126751383043006e+00 2.5495338275000844e+01 
1092 1093 2 1.0280000000000000e+00 3.6857042970080829e+03 1.0000000000000000e+00 1.9763360744226596e+01 7.1749855197271089e+00 2.5289545130972066e+01 
498 499 2 1.0279999999999996e+00 1.5706887925009687e+03 1.0000000000000000e+00 1.3421175728927061e+01 1.1089446620780588e+01 2.6172392660788482e+01 
1221 1222 2 1.0280000000000076e+00 -8.9516443005273391e+02 1.0000000000000000e+00 1.4390112219518576e+01 9.0208120353718382e+00 2.8274171540259633e+01 
1004 1005 2 1.0279999999999996e+00 2.1428951328920166e+03 1.0000000000000000e+00 1.2704771299877825e+01 1.1299969972260529e+01 2.7038312766790781e+01 
812 813 2 1.0279999999999991e+00 -1.1481402713911925e+03 1.0000000000000000e+00 1.7768971741206258e+01 1.5028154034295197e+01 2.6921287537356438e+01 
1267 1268 2 1.0279999999999991e+00 1.9247050073048886e+03 1.0000000000000000e+00 1.8370618676158369e+01 1.6000252492383044e+01 2.6900828531889307e+01 
852 853 2 1.0279999999999980e+00 -8.9753055440842513e+02 1.0000000000000000e+00 4.8478442857571586e+00 1.7399917012329656e+01 2.7561607994151942e+01 
1120 1121 2 1.0279999999999980e+00 2.1711927112065661e+02 1.0000000000000000e+00 5.5968124808315380e+00 1.6890236994891673e+01 2.8259208123201667e+01 
766 767 2 1.0280000000000076e+00 -1.4132075441583838e+03 1.0000000000000000e+00 1.5164315387540992e+01 8.8655479641392674e+00 2.9101139218144962e+01 
506 507 2 1.0280000000000060e+00 2.0894108383336936e+02 1.0000000000000000e+00 2.8403394501962747e+00 1.4373585931288625e+01 2.8542384137225440e+01 
266 267 2 1.0280000000000007e+00 1.0207374493432005e+03 1.0000000000000000e+00 7.0972824488723294e+00 1.3669848366692497e+01 2.8820848475219019e+01 
1175 1176 2 1.0280000000000007e+00 -4.5294451706129067e+01 1.0000000000000000e+00 7.0953009542519876e+00 1.4655578217995069e+01 2.9400249675933011e+01 
638 639 2 1.0280000000000060e+00 1.3144124051594937e+02 1.0000000000000000e+00 2.7241559230520340e+00 1.5161039107386866e+01 2.9363232418536811e+01 
138 139 2 1.0280000000000014e+00 2.4532600458957531e+03 1.0000000000000000e+00 1.0208893028872552e+01 1.5005273329714303e+01 2.9193127807543210e+01 
141 142 2 1.0280000000000014e+00 9.3424029196520428e+02 1.0000000000000000e+00 1.0094851581778352e+01 1.5774501860072954e+01 3.0031373018615522e+01 
745 746 2 1.0279999999999985e+00 -1.5166146739959731e+02 1.0000000000000000e+00 1.7444859081581650e+00 3.1098233089624912e+00 3.2946729508828639e+01 
521 522 2 1.0280000000000000e+00 6.4113223236555405e+02 1.0000000000000000e+00 1.5786123076579653e+01 5.0622965815247420e+00 3.2503029149583050e+01 
1129 1130 2 1.0280000000000000e+00 -2.3417081230188760e+03 1.0000000000000000e+00 1.5958866031113084e+01 6.1925373473180692e+00 3.2512447241572104e+01 
676 677 2 1.0280000000000022e+00 -6.5685488650626257e+02 1.0000000000000000e+00 8.1384267125516219e-01 8.5996660879016424e+00 3.3103885418063904e+01 
1020 1021 2 1.0280000000000014e+00 -1.1965691674464265e+03 1.0000000000000000e+00 9.2355893981608030e+00 1.6308579759409987e+00 3.4412585234431397e+01 
564 565 2 1.0280000000000014e+00 -1.6305582666229507e+03 1.0000000000000000e+00 1.0250730330812836e+01 1.9728788992745945e+00 3.4812439698349372e+01 
593 594 2 1.0279999999999985e+00 6.2314320642820667e+02 1.0000000000000000e+00 2.5761194667182918e+00 3.3691837520434955e+00 3.3687331157692718e+01 
780 781 2 1.0279999999999916e+00 -2.4253544135999009e+03 1.0000000000000000e+00 8.2706770030968428e+00 4.8704921976944364e+00 3.4668667716318986e+01 
523 524 2 1.0280000000000022e+00 -6.5358648673710718e+02 1.0000000000000000e+00 1.4662553100369116e-01 7.7203069536512228e+00 3.3402083034123677e+01 
830 831 2 1.0279999999999931e+00 -6.4524890823230157e+02 1.0000000000000000e+00 1.9610136745823805e+01 1.5039922326237757e+01 3.4048258107666832e+01 
1182 1183 2 1.0280000000000018e+00 -1.7477806112163935e+03 1.0000000000000000e+00 1.9886894946938710e+01 1.9426889149458763e+01 3.4505238790801954e+01 
353 354 2 1.0280000000000018e+00 -7.4141755042386990e+02 1.0000000000000000e+00 1.9351280412063879e+01 1.8481384005930988e+01 3.4860921389549873e+01 
55 56 2 1.0279999999999985e+00 7.0164188680681673e+02 1.0000000000000000e+00 1.9064037751046211e+01 1.1378741030988500e+00 3.5635375719703660e+01 
1025 1026 2 1.0280000000000640e+00 1.9662360581919609e+02 1.0000000000000000e+00 1.9097876321156246e+01 4.6898888448817946e+00 3.6385601822918083e+01 
545 546 2 1.0279999999999916e+00 3.5729731911998942e+03 1.0000000000000000e+00 7.7464446362358919e+00 5.2849506336374130e+00 3.5596448750760757e+01 
401 402 2 1.0280000000000993e+00 -1.0592413277731075e+03 1.0000000000000000e+00 1.6851850244720200e+01 6.6159951830038830e+00 3.5620829245755182e+01 
46 47 2 1.0279999999999907e+00 1.4971538032504027e+03 1.0000000000000000e+00 1.4559987486842944e+01 1.9763695284062411e+01 3.5130001250213354e+01 
955 956 2 1.0279999999999985e+00 1.1238465950033763e+03 1.0000000000000000e+00 1.9423366285108553e+01 1.1571069325572432e+00 3.6720680340691878e+01 
1356 1357 2 1.0279999999999994e+00 3.3772330743385692e+03 1.0000000000000000e+00 4.8262846864777176e-01 2.7819342276839629e+00 3.7530798154651407e+01 
892 893 2 1.0279999999999994e+00 -4.0045015107561528e+02 1.0000000000000000e+00 1.6856850933727194e-01 3.8673781899324577e+00 3.7705585923774187e+01 
1504 1505 2 1.0280000000000993e+00 1.4566333468465501e+02 1.0000000000000000e+00 1.6893123670265808e+01 6.2397676230778103e+00 3.6699774260551635e+01 
1094 1095 2 1.0280000000000640e+00 -2.5815330803930628e+03 1.0000000000000000e+00 1.9390693670260642e+01 5.7395053839216903e+00 3.6731919796023512e+01 
1235 1236 2 1.0279999999999991e+00 -3.1144903456842593e+02 1.0000000000000000e+00 1.6071444319005622e+01 1.5826998746114304e+01 3.8398005500909321e+01 
84 85 2 1.0279999999999991e+00 9.7336933275880961e+02 1.0000000000000000e+00 1.6603649711224730e+01 1.6106223673670762e+01 3.9370715055598048e+01 
773 774 2 1.0280000000000007e+00 -1.6931843613363071e+02 1.0000000000000000e+00 1.1273430534346638e+00 1.7075497409341640e+01 3.8477281852062426e+01 
925 926 2 1.0280000000000007e+00 7.7078713675952713e+02 1.0000000000000000e+00 1.4404844262273022e+00 1.6791424208267728e+01 3.9539646156120078e+01 
1026 1027 2 1.0279999999999994e+00 -8.5882368060062436e+02 1.0000000000000000e+00 1.8556894264914551e+01 2.4989526004337863e+00 4.0567090447060508e+01 
874 875 2 1.0279999999999994e+00 2.4161496824738214e+02 1.0000000000000000e+00 1.9439532808014562e+01 3.1129007215521840e+00 4.0956179028579193e+01 
68 69 2 1.0280000000000111e+00 1.8388289995965027e+02 1.0000000000000000e+00 1.0515409144376665e+01 8.3319092651039597e+00 4.1220365003297587e+01 
128 129 2 1.0280000000000111e+00 1.1821433609435783e+03 1.0000000000000000e+00 9.9920241649895853e+00 8.8074666874536032e+00 4.0321873868750984e+01 
1138 1139 2 1.0280000000000080e+00 -4.5190130888853184e+02 1.0000000000000000e+00 4.5297346994681966e+00 1.7776426504412008e+01 4.0403929601779772e+01 
829 830 2 1.0280000000000080e+00 -4.5182300415070287e+01 1.0000000000000000e+00 4.2250877569591792e+00 1.8809177770327132e+01 4.0788621791236906e+01 
563 564 2 1.0280000000000000e+00 -1.0394983651223861e+03 1.0000000000000000e+00 1.3022027836391205e+01 6.5612164318923893e+00 4.2008325494900092e+01 
567 568 2 1.0280000000000000e+00 3.3002626208564050e+02 1.0000000000000000e+00 1.3609362856440677e+01 5.5884997765844044e+00 4.1880917095770862e+01 
390 391 2 1.0280000000000016e+00 -7.9612289932949579e+02 1.0000000000000000e+00 1.7201940957549539e+01 1.9848648159515893e+01 4.3071736438904466e+01 
1059 1060 2 1.0280000000000125e+00 5.6451752549686728e+02 1.0000000000000000e+00 8.5980081471597440e+00 4.7641287507188865e+00 4.4773288801611415e+01 
763 764 2 1.0280000000000107e+00 7.4475087469922323e+02 1.0000000000000000e+00 7.3916157375430585e+00 1.0738313523030948e+01 4.4353484709868283e+01 
862 863 2 1.0280000000338183e+00 8.0089211874467719e+02 1.0000000000000000e+00 7.7400212013665426e+00 5.6218019795837093e-01 4.5934255907662020e+01 
252 253 2 1.0279999999989851e+00 -8.7133173925466053e+02 1.0000000000000000e+00 8.4039014509165106e+00 1.2302823899159701e+00 4.5280927871803058e+01 
683 684 2 1.0279985670188001e+00 1.9461089854923245e+02 1.0000000000000000e+00 2.0491532301380539e+00 3.8477156547843596e+00 4.5125434651969464e+01 
682 683 2 1.0280014351686735e+00 6.9319034729609555e+01 1.0000000000000000e+00 3.1043333293903350e+00 4.1665478167171885e+00 4.5429276970481091e+01 
183 184 2 1.0280000000000125e+00 5.2479906337517514e+02 1.0000000000000000e+00 8.5220958910980045e+00 4.7576318686704608e+00 4.5914151693181630e+01 
302 303 2 1.0280000000000000e+00 -7.0813998698814203e+02 1.0000000000000000e+00 1.7215404061339957e+01 7.3795226343776452e+00 4.5596539145266675e+01 
1284 1285 2 1.0279999999999987e+00 -1.7995979611256494e+03 1.0000000000000000e+00 2.7741607248251294e+00 9.5885862589772088e+00 4.5227283035411546e+01 
1362 1363 2 1.0279999999999987e+00 -6.4691646769175964e+02 1.0000000000000000e+00 2.9842449991156625e+00 9.5503471480154722e+00 4.6350570792643602e+01 
303 304 2 1.0280000000000000e+00 -8.0720194390885013e+02 1.0000000000000000e+00 1.6930629956286346e+01 8.4817102213368809e+00 4.5703587030358499e+01 
1055 1056 2 1.0280000000000107e+00 -2.2273397295499954e+03 1.0000000000000000e+00 6.6891627834870535e+00 1.0306068386739232e+01 4.5145379277944642e+01 
412 413 2 1.0279999999999934e+00 1.1863539629255833e+03 1.0000000000000000e+00 1.9903723025921430e+01 1.2097917634281437e+01 4.6436504626194207e+01 
1261 1262 2 1.0280000000000022e+00 -2.1359157380753868e+03 1.0000000000000000e+00 6.0496991035061027e+00 1.8296108600356135e+01 4.6570296994357498e+01 
1061 1062 2 1.0279985657475907e+00 3.0614309186192753e+02 1.0000000000000000e+00 3.2533399044153928e+00 2.7155015962870008e+00 4.7712642371978248e+01 
1354 1355 2 1.0280014338974641e+00 -5.1015646835356016e+01 1.0000000000000000e+00 3.9240160980650414e+00 3.6406045263430920e+00 4.7670723863328533e+01 
1093 1094 2 1.0280000000000014e+00 -9.3019112326071115e+02 1.0000000000000000e+00 1.8612241320669050e+01 3.9549700326892765e+00 4.6927463482095042e+01 
1185 1186 2 1.0280000000000014e+00 -1.1475355637700804e+03 1.0000000000000000e+00 1.9636933802478023e+01 4.2920374010396456e+00 4.7306625616776579e+01 
382 383 2 1.0280000000000022e+00 -1.5287985897471890e+03 1.0000000000000000e+00 6.7603986289628439e+00 1.7578456069075695e+01 4.7106257857034123e+01 
596 597 2 1.0279999999999978e+00 6.8979876142276350e+02 1.0000000000000000e+00 1.6437635083960501e+01 1.7599640413989047e+01 4.9064943062994864e+01 
748 749 2 1.0279999999999978e+00 -2.5406993479233333e+02 1.0000000000000000e+00 1.5616771699369650e+01 1.8115815208512203e+01 4.9670847265650515e+01 
842 843 2 1.0280000000000016e+00 9.8945956876300488e+02 1.0000000000000000e+00 5.7677220199453698e+00 1.9734035433133180e+01 4.9936048898389288e+01 
1131 1132 2 1.0280000000000011e+00 -6.9611676565141420e+02 1.0000000000000000e+00 1.9112140893570903e+01 4.0023365276311464e+00 5.0499135736723197e+01 
1519 1520 2 1.0279999999999938e+00 -1.5004332792229948e+03 1.0000000000000000e+00 1.3764622843712434e+01 5.1048773708591240e+00 5.1273620341494258e+01 
878 879 2 1.0279999999999836e+00 -9.3376344589120117e+02 1.0000000000000000e+00 5.2495208486079843e+00 1.3785470339743803e+01 5.0112980549402806e+01 
726 727 2 1.0279999999999836e+00 -9.5496036049178701e+02 1.0000000000000000e+00 5.3492932958947019e+00 1.4769007047609657e+01 5.0687501237021301e+01 
1449 1450 2 1.0280000000000016e+00 -2.4030822922692614e+01 1.0000000000000000e+00 6.0849539865384994e+00 1.8670473555014329e+01 5.0210954388044357e+01 
941 942 2 1.0279999999999938e+00 -2.3417238425127337e+01 1.0000000000000000e+00 1.4554035035212658e+01 5.5538763384424001e+00 5.1968315480730695e+01 
791 792 2 1.0280000000000011e+00 4.7708801206506848e+02 1.0000000000000000e+00 1.9612429354201780e+01 1.2704849142575602e+01 5.2134978850399030e+01 
693 694 2 1.0280000000000002e+00 -3.5342823772251290e+02 1.0000000000000000e+00 6.6272233439157446e+00 2.2337432026814308e+00 5.4358398134496710e+01 
542 543 2 1.0280000000000002e+00 -1.7995457693107291e+01 1.0000000000000000e+00 5.5902121158955298e+00 1.7560160255176327e+00 5.4419696377684055e+01 
429 430 2 1.0280000929113773e+00 2.3642594046825693e+03 1.0000000000000000e+00 1.4265749154666935e+01 2.8452927017283565e+00 5.3863541009409694e+01 
795 796 2 1.0279999073935773e+00 8.5543284740562186e+01 1.0000000000000000e+00 1.5293101759423921e+01 2.3892349626783451e+00 5.4073139142792890e+01 
1028 1029 2 1.0280000926672774e+00 -1.9888979045146121e+02 1.0000000000000000e+00 1.2321067617108238e+01 4.0015630768013182e+00 5.4859212220998202e+01 
1441 1442 2 1.0280000000000042e+00 5.7255253095997114e+02 1.0000000000000000e+00 1.7622753051927617e+01 1.4949549533210684e+01 5.4549978977544235e+01 
1456 1457 2 1.0279999999999907e+00 3.5804966680982204e+02 1.0000000000000000e+00 9.2749345496644118e+00 1.9482250363958229e+01 5.4179302454825752e+01 
535 536 2 1.0279999071494774e+00 -6.4314072964553543e+02 1.0000000000000000e+00 1.2968065263810731e+01 4.1090879226396160e+00 5.5795804911071400e+01 
1023 1024 2 1.0279999999999720e+00 6.1109902606485502e+02 1.0000000000000000e+00 4.2089554107850027e-03 6.0785316173575037e+00 5.5108370494491680e+01 
1222 1223 2 1.0280000000000111e+00 -3.5039930075503287e+02 1.0000000000000000e+00 2.3987735378668638e+00 1.1666827886441816e+01 5.6384752248268271e+01 
419 420 2 1.0280000000000071e+00 -1.2953844901090579e+03 1.0000000000000000e+00 1.4963016750425526e+01 1.4818864077829634e+01 5.5804603100728556e+01 
769 770 2 1.0280000000000042e+00 -3.9312487992275610e+03 1.0000000000000000e+00 1.7634588386765223e+01 1.4310814479336569e+01 5.5498267158036029e+01 
540 541 2 1.0280000000000071e+00 1.3222617272645721e+03 1.0000000000000000e+00 1.4069364641348900e+01 1.5030987955922480e+01 5.6485604118161319e+01 
1494 1495 2 1.0280000000000056e+00 1.2342602022332892e+02 1.0000000000000000e+00 3.1366152271359810e-01 2.4969808988465796e+00 5.7157809209964540e+01 
906 907 2 1.0280000000000056e+00 -7.6024756773265699e+02 1.0000000000000000e+00 6.9569782960657800e-01 3.5671057647598472e+00 5.7030317841517885e+01 
1249 1250 2 1.0279999999999918e+00 -9.6053682331709570e+02 1.0000000000000000e+00 2.0305463125443497e+00 1.1059120600584473e+01 5.7645253439736173e+01 
85 86 2 1.0280000000000156e+00 8.4222519102680826e+02 1.0000000000000000e+00 1.5266825366917323e+00 1.2370853228774633e+01 5.7299939820008163e+01 
1285 1286 2 1.0279999999999974e+00 -1.3740862013063506e+03 1.0000000000000000e+00 9.4658821731873637e+00 1.9639458999543233e+01 5.7670951480722934e+01 
670 671 2 1.0279999999999982e+00 1.2864173782040307e+03 1.0000000000000000e+00 9.9654278599165398e+00 7.2139522562956060e+00 5.9042016512682771e+01 
346 347 2 1.0279999999999982e+00 -5.8273388618376157e+02 1.0000000000000000e+00 1.0752797165458356e+01 7.8624703881856055e+00 5.8525444323381748e+01 
1201 1202 2 1.0279999999999967e+00 2.4512392675604979e+03 1.0000000000000000e+00 5.0665945101068184e+00 1.5954495700509694e+01 5.9168662171477550e+01 
73 74 2 1.0279999999999967e+00 6.8515745884662806e+02 1.0000000000000000e+00 4.9041543247302934e+00 1.7002341672174314e+01 5.8740871307503312e+01 
27 28 2 1.0280000000000009e+00 3.7189340973489220e+02 1.0000000000000000e+00 1.4939257788785435e+01 1.4456904628000769e+01 6.1064119372462457e+01 
327 328 2 1.0280000000000009e+00 -2.8522040699333484e+03 1.0000000000000000e+00 1.4212432716655538e+01 1.5315478500448037e+01 6.1268934502599393e+01 
621 622 2 1.0280000211079157e+00 -1.8941137206591219e+02 1.0000000000000000e+00 1.7088804246067511e+01 1.8800726194189686e+01 6.1348647036712599e+01 
647 648 2 1.0280000000000031e+00 3.5729298831915821e+02 1.0000000000000000e+00 1.9745471633912981e-01 6.3452451484614052e+00 6.2356475122324142e+01 
330 331 2 1.0280000000000000e+00 -8.7350293011960798e+02 1.0000000000000000e+00 1.5450727721382316e+01 9.1733089260999012e+00 6.2517717815105534e+01 
181 182 2 1.0280000000000000e+00 -3.2425012285255787e+02 1.0000000000000000e+00 1.6213083591529141e+01 1.0006217639815800e+01 6.2697855593840437e+01 
1277 1278 2 1.0280000000000296e+00 -1.7075207368762681e+03 1.0000000000000000e+00 1.8920859215060780e+01 1.7101787963959804e+01 6.3078852929046995e+01 
469 470 2 1.0279999805045332e+00 7.2796641277951051e+02 1.0000000000000000e+00 1.7306286650395254e+01 1.9078079923133114e+01 6.2480300017349315e+01 
1392 1393 2 1.0280000000000398e+00 -9.1953066986035992e+02 1.0000000000000000e+00 1.8069588030531659e+01 7.8341190357482668e+00 6.4010891099871898e+01 
1411 1412 2 1.0280000000000398e+00 -4.8763286742309596e+01 1.0000000000000000e+00 1.8636257951260518e+01 7.9325572696500339e+00 6.4999105718518081e+01 
655 656 2 1.0280000000000000e+00 6.0172876963185331e+02 1.0000000000000000e+00 1.1714547927902055e+01 8.5276436907389677e+00 6.3768358099119475e+01 
130 131 2 1.0280000000000000e+00 5.2951885801449419e+02 1.0000000000000000e+00 1.2249532819476464e+01 9.5266074442154327e+00 6.3920790387320075e+01 
701 702 2 1.0279999999913536e+00 -1.3518368457033430e+03 1.0000000000000000e+00 8.2232587395419223e+00 1.6968089292821958e+01 6.4642923986591100e+01 
109 110 2 1.0280000001619518e+00 6.3753670673282943e+02 1.0000000000000000e+00 8.5486335035002661e+00 1.8197505316437898e+01 6.3477601806438742e+01 
538 539 2 1.0279999993618150e+00 -6.5675014248309799e+02 1.0000000000000000e+00 9.5439723778150469e+00 1.7091156800297771e+01 6.3489952943870939e+01 
524 525 2 1.0279999990744904e+00 4.9798882851351209e+02 1.0000000000000000e+00 1.0699479834129724e+01 1.7130913389844416e+01 6.4517831680520572e+01 
1461 1462 2 1.0280000000000193e+00 5.9759249409047163e+02 1.0000000000000000e+00 1.3558130884934002e+01 1.7819422086916838e+01 6.3853602273289447e+01 
1489 1490 2 1.0280000000000193e+00 2.8966786645566826e+03 1.0000000000000000e+00 1.4362942498839141e+01 1.7390771184945489e+01 6.4543464352129277e+01 
544 545 2 1.0280000000000296e+00 1.1464537552866836e+03 1.0000000000000000e+00 1.8456609758094906e+01 1.6867431574126812e+01 6.4097146865840273e+01 
1196 1197 2 1.0279999999999929e+00 -5.2113122591771707e+02 1.0000000000000000e+00 7.5560792284079081e+00 4.3085716849675650e+00 6.5784329929891285e+01 
700 701 2 1.0279999999999929e+00 -1.5402992538429244e+03 1.0000000000000000e+00 7.9500861233762068e+00 5.0981080680507622e+00 6.5057168404531126e+01 
1137 1138 2 1.0280000000000071e+00 2.0210371367403172e+03 1.0000000000000000e+00 4.4661744552436620e+00 1.2254245989896068e+01 6.5595628620310720e+01 
981 982 2 1.0280000000000071e+00 3.2742284444988400e+03 1.0000000000000000e+00 3.5709240300412666e+00 1.2856158250868928e+01 6.5974576273323876e+01 
912 913 2 1.0279999999999991e+00 -5.3745667662065557e+02 1.0000000000000000e+00 1.6603223930092994e+01 1.2398698093931348e+01 6.6395950176831235e+01 
398 399 2 1.0279999998288754e+00 -4.2394175262436347e+03 1.0000000000000000e+00 9.4110560431054555e+00 1.4401502529006304e+01 6.5759569007904688e+01 