LAMMPS data file via write_data, version 30 Jul 2016, timestep = 50000000

5620 atoms
8 atom types

0.0000000000000000e+00 1.0000000000000000e+02 xlo xhi
0.0000000000000000e+00 4.0000000000000000e+01 ylo yhi
0.0000000000000000e+00 4.0000000000000000e+01 zlo zhi

Masses

1 3.896
2 5.36
3 20.064
4 8.378
5 8.378
6 8.378
7 8.378
8 8.378

Atoms # meso-molecular

1 2 4 2.2559723595316457e+00 1.0968086045255014e+01 1.0000000000000000e+00 0.0000000000000000e+00 0.0000000000000000e+00 1.0000000000000000e+00 
2 2 4 2.2559723595316457e+00 -2.2333204578287985e-01 1.0000000000000000e+00 0.0000000000000000e+00 2.0000000000000000e+00 1.0000000000000000e+00 
21 2 4 2.2559723595316457e+00 1.0989088241508358e+00 1.0000000000000000e+00 2.0000000000000000e+00 0.0000000000000000e+00 1.0000000000000000e+00 
22 2 4 2.2559723595316457e+00 -1.1182605545971480e+00 1.0000000000000000e+00 2.0000000000000000e+00 2.0000000000000000e+00 1.0000000000000000e+00 
41 2 4 2.2559723595316457e+00 -1.0278796355471312e-02 1.0000000000000000e+00 4.0000000000000000e+00 0.0000000000000000e+00 1.0000000000000000e+00 
42 2 4 2.2559723595316457e+00 -6.4331087469782855e-03 1.0000000000000000e+00 4.0000000000000000e+00 2.0000000000000000e+00 1.0000000000000000e+00 
61 2 4 2.2559723595316457e+00 1.0321677721955500e-02 1.0000000000000000e+00 6.0000000000000000e+00 0.0000000000000000e+00 1.0000000000000000e+00 
62 2 4 2.2559723595316457e+00 1.6160709955495910e-02 1.0000000000000000e+00 6.0000000000000000e+00 2.0000000000000000e+00 1.0000000000000000e+00 
81 2 4 2.2559723595316457e+00 1.4176843318313825e-01 1.0000000000000000e+00 8.0000000000000000e+00 0.0000000000000000e+00 1.0000000000000000e+00 
82 2 4 2.2559723595316457e+00 2.7926644362241582e-01 1.0000000000000000e+00 8.0000000000000000e+00 2.0000000000000000e+00 1.0000000000000000e+00 
101 2 4 2.2559723595316457e+00 -1.0508784868814081e-01 1.0000000000000000e+00 1.0000000000000000e+01 0.0000000000000000e+00 1.0000000000000000e+00 
102 2 4 2.2559723595316457e+00 -3.9956134276994151e+00 1.0000000000000000e+00 1.0000000000000000e+01 2.0000000000000000e+00 1.0000000000000000e+00 
121 2 4 2.2559723595316457e+00 6.5490039222187619e+01 1.0000000000000000e+00 1.2000000000000000e+01 0.0000000000000000e+00 1.0000000000000000e+00 
122 2 4 2.2559723595316457e+00 2.4541917990587564e-01 1.0000000000000000e+00 1.2000000000000000e+01 2.0000000000000000e+00 1.0000000000000000e+00 
141 2 4 2.2559723595316457e+00 5.5713099527312139e+01 1.0000000000000000e+00 1.4000000000000000e+01 0.0000000000000000e+00 1.0000000000000000e+00 
142 2 4 2.2559723595316457e+00 -2.6668707010389228e+00 1.0000000000000000e+00 1.4000000000000000e+01 2.0000000000000000e+00 1.0000000000000000e+00 
161 2 4 2.2559723595316457e+00 -1.0874335659375358e+00 1.0000000000000000e+00 1.6000000000000000e+01 0.0000000000000000e+00 1.0000000000000000e+00 
162 2 4 2.2559723595316457e+00 2.8274056881748652e-02 1.0000000000000000e+00 1.6000000000000000e+01 2.0000000000000000e+00 1.0000000000000000e+00 
181 2 4 2.2559723595316457e+00 -2.4631056707133947e+01 1.0000000000000000e+00 1.8000000000000000e+01 0.0000000000000000e+00 1.0000000000000000e+00 
182 2 4 2.2559723595316457e+00 -3.7258699711637128e-01 1.0000000000000000e+00 1.8000000000000000e+01 2.0000000000000000e+00 1.0000000000000000e+00 
201 2 4 2.2559723595316457e+00 -4.4941853021542650e+00 1.0000000000000000e+00 2.0000000000000000e+01 0.0000000000000000e+00 1.0000000000000000e+00 
202 2 4 2.2559723595316457e+00 7.7860547752019773e+00 1.0000000000000000e+00 2.0000000000000000e+01 2.0000000000000000e+00 1.0000000000000000e+00 
221 2 4 2.2559723595316457e+00 -4.8545603044940329e+01 1.0000000000000000e+00 2.2000000000000000e+01 0.0000000000000000e+00 1.0000000000000000e+00 
222 2 4 2.2559723595316457e+00 4.4609181924199142e+00 1.0000000000000000e+00 2.2000000000000000e+01 2.0000000000000000e+00 1.0000000000000000e+00 
241 2 4 2.2559723595316457e+00 -4.7641818165243720e+01 1.0000000000000000e+00 2.4000000000000000e+01 0.0000000000000000e+00 1.0000000000000000e+00 
242 2 4 2.2559723595316457e+00 -5.5627781239239216e+00 1.0000000000000000e+00 2.4000000000000000e+01 2.0000000000000000e+00 1.0000000000000000e+00 
261 2 4 2.2559723595316457e+00 9.7532937340818350e+01 1.0000000000000000e+00 2.6000000000000000e+01 0.0000000000000000e+00 1.0000000000000000e+00 
262 2 4 2.2559723595316457e+00 -1.6449316894592677e+01 1.0000000000000000e+00 2.6000000000000000e+01 2.0000000000000000e+00 1.0000000000000000e+00 
281 2 4 2.2559723595316457e+00 -2.2406389709728272e+00 1.0000000000000000e+00 2.8000000000000000e+01 0.0000000000000000e+00 1.0000000000000000e+00 
282 2 4 2.2559723595316457e+00 3.7925678298175131e-01 1.0000000000000000e+00 2.8000000000000000e+01 2.0000000000000000e+00 1.0000000000000000e+00 
301 2 4 2.2559723595316457e+00 -4.8720977989007510e+00 1.0000000000000000e+00 3.0000000000000000e+01 0.0000000000000000e+00 1.0000000000000000e+00 
302 2 4 2.2559723595316457e+00 7.2145899803465516e+00 1.0000000000000000e+00 3.0000000000000000e+01 2.0000000000000000e+00 1.0000000000000000e+00 
321 2 4 2.2559723595316457e+00 -2.7573601780981178e+01 1.0000000000000000e+00 3.2000000000000000e+01 0.0000000000000000e+00 1.0000000000000000e+00 
322 2 4 2.2559723595316457e+00 2.8799408900399337e+00 1.0000000000000000e+00 3.2000000000000000e+01 2.0000000000000000e+00 1.0000000000000000e+00 
3 2 4 2.2559723595316457e+00 -5.3699714943596611e-03 1.0000000000000000e+00 0.0000000000000000e+00 4.0000000000000000e+00 1.0000000000000000e+00 
23 2 4 2.2559723595316457e+00 1.8642777308099105e+00 1.0000000000000000e+00 2.0000000000000000e+00 4.0000000000000000e+00 1.0000000000000000e+00 
43 2 4 2.2559723595316457e+00 6.3836721183484624e+00 1.0000000000000000e+00 4.0000000000000000e+00 4.0000000000000000e+00 1.0000000000000000e+00 
63 2 4 2.2559723595316457e+00 5.3673791438253815e+01 1.0000000000000000e+00 6.0000000000000000e+00 4.0000000000000000e+00 1.0000000000000000e+00 
83 2 4 2.2559723595316457e+00 8.1679769017624082e+00 1.0000000000000000e+00 8.0000000000000000e+00 4.0000000000000000e+00 1.0000000000000000e+00 
103 2 4 2.2559723595316457e+00 -6.4476539841009914e-02 1.0000000000000000e+00 1.0000000000000000e+01 4.0000000000000000e+00 1.0000000000000000e+00 
123 2 4 2.2559723595316457e+00 0.0000000000000000e+00 1.0000000000000000e+00 1.2000000000000000e+01 4.0000000000000000e+00 1.0000000000000000e+00 
143 2 4 2.2559723595316457e+00 0.0000000000000000e+00 1.0000000000000000e+00 1.4000000000000000e+01 4.0000000000000000e+00 1.0000000000000000e+00 
163 2 4 2.2559723595316457e+00 -2.5804602007073030e-01 1.0000000000000000e+00 1.6000000000000000e+01 4.0000000000000000e+00 1.0000000000000000e+00 
183 2 4 2.2559723595316457e+00 6.6091117692280349e+01 1.0000000000000000e+00 1.8000000000000000e+01 4.0000000000000000e+00 1.0000000000000000e+00 
203 2 4 2.2559723595316457e+00 1.7347886520055162e+01 1.0000000000000000e+00 2.0000000000000000e+01 4.0000000000000000e+00 1.0000000000000000e+00 
223 2 4 2.2559723595316457e+00 6.2769802744815493e+01 1.0000000000000000e+00 2.2000000000000000e+01 4.0000000000000000e+00 1.0000000000000000e+00 
243 2 4 2.2559723595316457e+00 -3.2612074420621376e+01 1.0000000000000000e+00 2.4000000000000000e+01 4.0000000000000000e+00 1.0000000000000000e+00 
263 2 4 2.2559723595316457e+00 4.7456018332299443e+00 1.0000000000000000e+00 2.6000000000000000e+01 4.0000000000000000e+00 1.0000000000000000e+00 
283 2 4 2.2559723595316457e+00 8.8493557628476054e+01 1.0000000000000000e+00 2.8000000000000000e+01 4.0000000000000000e+00 1.0000000000000000e+00 
303 2 4 2.2559723595316457e+00 5.1819931079765382e+01 1.0000000000000000e+00 3.0000000000000000e+01 4.0000000000000000e+00 1.0000000000000000e+00 
323 2 4 2.2559723595316457e+00 6.6208067218800309e+01 1.0000000000000000e+00 3.2000000000000000e+01 4.0000000000000000e+00 1.0000000000000000e+00 
4 2 4 2.2559723595316457e+00 -3.4052423238562987e-02 1.0000000000000000e+00 0.0000000000000000e+00 6.0000000000000000e+00 1.0000000000000000e+00 
5 2 4 2.2559723595316457e+00 -2.8107029161391307e-03 1.0000000000000000e+00 0.0000000000000000e+00 8.0000000000000000e+00 1.0000000000000000e+00 
24 2 4 2.2559723595316457e+00 1.1744934608417580e+01 1.0000000000000000e+00 2.0000000000000000e+00 6.0000000000000000e+00 1.0000000000000000e+00 
25 2 4 2.2559723595316457e+00 -3.2202846446787965e+00 1.0000000000000000e+00 2.0000000000000000e+00 8.0000000000000000e+00 1.0000000000000000e+00 
44 2 4 2.2559723595316457e+00 1.8495607626455403e+01 1.0000000000000000e+00 4.0000000000000000e+00 6.0000000000000000e+00 1.0000000000000000e+00 
45 2 4 2.2559723595316457e+00 -2.5665802686389863e+00 1.0000000000000000e+00 4.0000000000000000e+00 8.0000000000000000e+00 1.0000000000000000e+00 
64 2 4 2.2559723595316457e+00 1.1648425779384061e+02 1.0000000000000000e+00 6.0000000000000000e+00 6.0000000000000000e+00 1.0000000000000000e+00 
65 2 4 2.2559723595316457e+00 -2.3878511408917097e+03 1.0000000000000000e+00 6.0000000000000000e+00 8.0000000000000000e+00 1.0000000000000000e+00 
84 2 4 2.2559723595316457e+00 2.9781126830409072e+01 1.0000000000000000e+00 8.0000000000000000e+00 6.0000000000000000e+00 1.0000000000000000e+00 
85 2 4 2.2559723595316457e+00 -4.9208207866089579e+03 1.0000000000000000e+00 8.0000000000000000e+00 8.0000000000000000e+00 1.0000000000000000e+00 
104 2 4 2.2559723595316457e+00 0.0000000000000000e+00 1.0000000000000000e+00 1.0000000000000000e+01 6.0000000000000000e+00 1.0000000000000000e+00 
105 2 4 2.2559723595316457e+00 -5.0319644135964891e+03 1.0000000000000000e+00 1.0000000000000000e+01 8.0000000000000000e+00 1.0000000000000000e+00 
124 2 4 2.2559723595316457e+00 0.0000000000000000e+00 1.0000000000000000e+00 1.2000000000000000e+01 6.0000000000000000e+00 1.0000000000000000e+00 
125 2 4 2.2559723595316457e+00 -5.0308684574437775e+03 1.0000000000000000e+00 1.2000000000000000e+01 8.0000000000000000e+00 1.0000000000000000e+00 
144 2 4 2.2559723595316457e+00 0.0000000000000000e+00 1.0000000000000000e+00 1.4000000000000000e+01 6.0000000000000000e+00 1.0000000000000000e+00 
145 2 4 2.2559723595316457e+00 -5.0311528004087413e+03 1.0000000000000000e+00 1.4000000000000000e+01 8.0000000000000000e+00 1.0000000000000000e+00 
164 2 4 2.2559723595316457e+00 -2.6958849542877566e+01 1.0000000000000000e+00 1.6000000000000000e+01 6.0000000000000000e+00 1.0000000000000000e+00 
165 2 4 2.2559723595316457e+00 -5.0321313842227382e+03 1.0000000000000000e+00 1.6000000000000000e+01 8.0000000000000000e+00 1.0000000000000000e+00 
184 2 4 2.2559723595316457e+00 1.8012437818592994e+02 1.0000000000000000e+00 1.8000000000000000e+01 6.0000000000000000e+00 1.0000000000000000e+00 
185 2 4 2.2559723595316457e+00 -5.0331473868438561e+03 1.0000000000000000e+00 1.8000000000000000e+01 8.0000000000000000e+00 1.0000000000000000e+00 
204 2 4 2.2559723595316457e+00 1.3267936375566904e+02 1.0000000000000000e+00 2.0000000000000000e+01 6.0000000000000000e+00 1.0000000000000000e+00 
205 2 4 2.2559723595316457e+00 -4.9829010311758684e+03 1.0000000000000000e+00 2.0000000000000000e+01 8.0000000000000000e+00 1.0000000000000000e+00 
224 2 4 2.2559723595316457e+00 8.5817946990378843e+01 1.0000000000000000e+00 2.2000000000000000e+01 6.0000000000000000e+00 1.0000000000000000e+00 
225 2 4 2.2559723595316457e+00 -4.8730197365998774e+03 1.0000000000000000e+00 2.2000000000000000e+01 8.0000000000000000e+00 1.0000000000000000e+00 
244 2 4 2.2559723595316457e+00 -4.9005894283674415e+01 1.0000000000000000e+00 2.4000000000000000e+01 6.0000000000000000e+00 1.0000000000000000e+00 
245 2 4 2.2559723595316457e+00 -4.8448444605809273e+03 1.0000000000000000e+00 2.4000000000000000e+01 8.0000000000000000e+00 1.0000000000000000e+00 
264 2 4 2.2559723595316457e+00 4.5431375904258317e+01 1.0000000000000000e+00 2.6000000000000000e+01 6.0000000000000000e+00 1.0000000000000000e+00 
265 2 4 2.2559723595316457e+00 -5.0606737463899071e+03 1.0000000000000000e+00 2.6000000000000000e+01 8.0000000000000000e+00 1.0000000000000000e+00 
284 2 4 2.2559723595316457e+00 -1.7369404681420907e+01 1.0000000000000000e+00 2.8000000000000000e+01 6.0000000000000000e+00 1.0000000000000000e+00 
285 2 4 2.2559723595316457e+00 -5.1123097491381313e+03 1.0000000000000000e+00 2.8000000000000000e+01 8.0000000000000000e+00 1.0000000000000000e+00 
304 2 4 2.2559723595316457e+00 -1.0539131072623621e+02 1.0000000000000000e+00 3.0000000000000000e+01 6.0000000000000000e+00 1.0000000000000000e+00 
305 2 4 2.2559723595316457e+00 -5.0466569343330921e+03 1.0000000000000000e+00 3.0000000000000000e+01 8.0000000000000000e+00 1.0000000000000000e+00 
324 2 4 2.2559723595316457e+00 -3.2903774256354687e+01 1.0000000000000000e+00 3.2000000000000000e+01 6.0000000000000000e+00 1.0000000000000000e+00 
325 2 4 2.2559723595316457e+00 -5.0348183506758087e+03 1.0000000000000000e+00 3.2000000000000000e+01 8.0000000000000000e+00 1.0000000000000000e+00 
6 2 4 2.2559723595316457e+00 5.6163997979313249e+00 1.0000000000000000e+00 0.0000000000000000e+00 1.0000000000000000e+01 1.0000000000000000e+00 
26 2 4 2.2559723595316457e+00 0.0000000000000000e+00 1.0000000000000000e+00 2.0000000000000000e+00 1.0000000000000000e+01 1.0000000000000000e+00 
46 2 4 2.2559723595316457e+00 -1.7001735434959124e+02 1.0000000000000000e+00 4.0000000000000000e+00 1.0000000000000000e+01 1.0000000000000000e+00 
66 2 4 2.2559723595316457e+00 -1.4385885208398260e+04 1.0000000000000000e+00 6.0000000000000000e+00 1.0000000000000000e+01 1.0000000000000000e+00 
86 2 4 2.2559723595316457e+00 -3.0430319703374338e+04 1.0000000000000000e+00 8.0000000000000000e+00 1.0000000000000000e+01 1.0000000000000000e+00 
106 2 4 2.2559723595316457e+00 -3.0910308302616162e+04 1.0000000000000000e+00 1.0000000000000000e+01 1.0000000000000000e+01 1.0000000000000000e+00 
126 2 4 2.2559723595316457e+00 -3.0905893414275539e+04 1.0000000000000000e+00 1.2000000000000000e+01 1.0000000000000000e+01 1.0000000000000000e+00 
146 2 4 2.2559723595316457e+00 -3.0907937537662267e+04 1.0000000000000000e+00 1.4000000000000000e+01 1.0000000000000000e+01 1.0000000000000000e+00 
166 2 4 2.2559723595316457e+00 -3.0908004658464593e+04 1.0000000000000000e+00 1.6000000000000000e+01 1.0000000000000000e+01 1.0000000000000000e+00 
186 2 4 2.2559723595316457e+00 -3.0899815590192757e+04 1.0000000000000000e+00 1.8000000000000000e+01 1.0000000000000000e+01 1.0000000000000000e+00 
206 2 4 2.2559723595316457e+00 -3.1163506575843872e+04 1.0000000000000000e+00 2.0000000000000000e+01 1.0000000000000000e+01 1.0000000000000000e+00 
226 2 4 2.2559723595316457e+00 -3.1052814561484818e+04 1.0000000000000000e+00 2.2000000000000000e+01 1.0000000000000000e+01 1.0000000000000000e+00 
246 2 4 2.2559723595316457e+00 -3.0872969875144998e+04 1.0000000000000000e+00 2.4000000000000000e+01 1.0000000000000000e+01 1.0000000000000000e+00 
266 2 4 2.2559723595316457e+00 -3.0905852570320301e+04 1.0000000000000000e+00 2.6000000000000000e+01 1.0000000000000000e+01 1.0000000000000000e+00 
286 2 4 2.2559723595316457e+00 -3.0873938564663516e+04 1.0000000000000000e+00 2.8000000000000000e+01 1.0000000000000000e+01 1.0000000000000000e+00 
306 2 4 2.2559723595316457e+00 -3.0837712547376937e+04 1.0000000000000000e+00 3.0000000000000000e+01 1.0000000000000000e+01 1.0000000000000000e+00 
326 2 4 2.2559723595316457e+00 -3.0915285629581555e+04 1.0000000000000000e+00 3.2000000000000000e+01 1.0000000000000000e+01 1.0000000000000000e+00 
7 2 4 2.2559723595316457e+00 1.4967513967940089e-02 1.0000000000000000e+00 0.0000000000000000e+00 1.2000000000000000e+01 1.0000000000000000e+00 
8 2 4 2.2559723595316457e+00 -1.4252483031305367e+00 1.0000000000000000e+00 0.0000000000000000e+00 1.4000000000000000e+01 1.0000000000000000e+00 
27 2 4 2.2559723595316457e+00 1.1278356849925929e-06 1.0000000000000000e+00 2.0000000000000000e+00 1.2000000000000000e+01 1.0000000000000000e+00 
28 2 4 2.2559723595316457e+00 -5.1956053582113466e-05 1.0000000000000000e+00 2.0000000000000000e+00 1.4000000000000000e+01 1.0000000000000000e+00 
47 2 4 2.2559723595316457e+00 -1.7358829889705822e+02 1.0000000000000000e+00 4.0000000000000000e+00 1.2000000000000000e+01 1.0000000000000000e+00 
48 2 4 2.2559723595316457e+00 -1.7355014703183593e+02 1.0000000000000000e+00 4.0000000000000000e+00 1.4000000000000000e+01 1.0000000000000000e+00 
67 2 4 2.2559723595316457e+00 -1.7326292809904109e+04 1.0000000000000000e+00 6.0000000000000000e+00 1.2000000000000000e+01 1.0000000000000000e+00 
68 2 4 2.2559723595316457e+00 -1.7373229865821413e+04 1.0000000000000000e+00 6.0000000000000000e+00 1.4000000000000000e+01 1.0000000000000000e+00 
87 2 4 2.2559723595316457e+00 -3.6848710430805797e+04 1.0000000000000000e+00 8.0000000000000000e+00 1.2000000000000000e+01 1.0000000000000000e+00 
88 2 4 2.2559723595316457e+00 -3.6936119407449565e+04 1.0000000000000000e+00 8.0000000000000000e+00 1.4000000000000000e+01 1.0000000000000000e+00 
107 2 4 2.2559723595316457e+00 -3.7346130453360034e+04 1.0000000000000000e+00 1.0000000000000000e+01 1.2000000000000000e+01 1.0000000000000000e+00 
108 2 4 2.2559723595316457e+00 -3.7424209116806684e+04 1.0000000000000000e+00 1.0000000000000000e+01 1.4000000000000000e+01 1.0000000000000000e+00 
127 2 4 2.2559723595316457e+00 -3.7341698931385778e+04 1.0000000000000000e+00 1.2000000000000000e+01 1.2000000000000000e+01 1.0000000000000000e+00 
128 2 4 2.2559723595316457e+00 -3.7437811391667768e+04 1.0000000000000000e+00 1.2000000000000000e+01 1.4000000000000000e+01 1.0000000000000000e+00 
147 2 4 2.2559723595316457e+00 -3.7343928334180695e+04 1.0000000000000000e+00 1.4000000000000000e+01 1.2000000000000000e+01 1.0000000000000000e+00 
148 2 4 2.2559723595316457e+00 -3.7442009120939190e+04 1.0000000000000000e+00 1.4000000000000000e+01 1.4000000000000000e+01 1.0000000000000000e+00 
167 2 4 2.2559723595316457e+00 -3.7385222736551383e+04 1.0000000000000000e+00 1.6000000000000000e+01 1.2000000000000000e+01 1.0000000000000000e+00 
168 2 4 2.2559723595316457e+00 -3.7459601254833455e+04 1.0000000000000000e+00 1.6000000000000000e+01 1.4000000000000000e+01 1.0000000000000000e+00 
187 2 4 2.2559723595316457e+00 -3.7394620802405334e+04 1.0000000000000000e+00 1.8000000000000000e+01 1.2000000000000000e+01 1.0000000000000000e+00 
188 2 4 2.2559723595316457e+00 -3.7492369230600169e+04 1.0000000000000000e+00 1.8000000000000000e+01 1.4000000000000000e+01 1.0000000000000000e+00 
207 2 4 2.2559723595316457e+00 -3.7453189870293507e+04 1.0000000000000000e+00 2.0000000000000000e+01 1.2000000000000000e+01 1.0000000000000000e+00 
208 2 4 2.2559723595316457e+00 -3.7508834822850295e+04 1.0000000000000000e+00 2.0000000000000000e+01 1.4000000000000000e+01 1.0000000000000000e+00 
227 2 4 2.2559723595316457e+00 -3.7556721464318383e+04 1.0000000000000000e+00 2.2000000000000000e+01 1.2000000000000000e+01 1.0000000000000000e+00 
228 2 4 2.2559723595316457e+00 -3.7432852048169385e+04 1.0000000000000000e+00 2.2000000000000000e+01 1.4000000000000000e+01 1.0000000000000000e+00 
247 2 4 2.2559723595316457e+00 -3.7342978013500520e+04 1.0000000000000000e+00 2.4000000000000000e+01 1.2000000000000000e+01 1.0000000000000000e+00 
248 2 4 2.2559723595316457e+00 -3.7422760737982564e+04 1.0000000000000000e+00 2.4000000000000000e+01 1.4000000000000000e+01 1.0000000000000000e+00 
267 2 4 2.2559723595316457e+00 -3.7360146575912091e+04 1.0000000000000000e+00 2.6000000000000000e+01 1.2000000000000000e+01 1.0000000000000000e+00 
268 2 4 2.2559723595316457e+00 -3.7478547750298974e+04 1.0000000000000000e+00 2.6000000000000000e+01 1.4000000000000000e+01 1.0000000000000000e+00 
287 2 4 2.2559723595316457e+00 -3.7393904839490155e+04 1.0000000000000000e+00 2.8000000000000000e+01 1.2000000000000000e+01 1.0000000000000000e+00 
288 2 4 2.2559723595316457e+00 -3.7443871889176589e+04 1.0000000000000000e+00 2.8000000000000000e+01 1.4000000000000000e+01 1.0000000000000000e+00 
307 2 4 2.2559723595316457e+00 -3.7549122939760418e+04 1.0000000000000000e+00 3.0000000000000000e+01 1.2000000000000000e+01 1.0000000000000000e+00 
308 2 4 2.2559723595316457e+00 -3.7481394328131457e+04 1.0000000000000000e+00 3.0000000000000000e+01 1.4000000000000000e+01 1.0000000000000000e+00 
327 2 4 2.2559723595316457e+00 -3.7462785057574511e+04 1.0000000000000000e+00 3.2000000000000000e+01 1.2000000000000000e+01 1.0000000000000000e+00 
328 2 4 2.2559723595316461e+00 -3.7427380526701832e+04 1.0000000000000000e+00 3.2000000000000000e+01 1.4000000000000000e+01 1.0000000000000000e+00 
9 2 4 2.2559723595316457e+00 -7.3015994095064869e+00 1.0000000000000000e+00 0.0000000000000000e+00 1.6000000000000000e+01 1.0000000000000000e+00 
29 2 4 2.2559723595316457e+00 3.3243753281989696e-02 1.0000000000000000e+00 2.0000000000000000e+00 1.6000000000000000e+01 1.0000000000000000e+00 
49 2 4 2.2559723595316457e+00 -1.1585806683312290e+02 1.0000000000000000e+00 4.0000000000000000e+00 1.6000000000000000e+01 1.0000000000000000e+00 
69 2 4 2.2559723595316457e+00 -1.7311677880310093e+04 1.0000000000000000e+00 6.0000000000000000e+00 1.6000000000000000e+01 1.0000000000000000e+00 
89 2 4 2.2559723595316457e+00 -3.6931801259512555e+04 1.0000000000000000e+00 8.0000000000000000e+00 1.6000000000000000e+01 1.0000000000000000e+00 
109 2 4 2.2559723595316457e+00 -3.7426943570853189e+04 1.0000000000000000e+00 1.0000000000000000e+01 1.6000000000000000e+01 1.0000000000000000e+00 
129 2 4 2.2559723595316457e+00 -3.7413142766999248e+04 1.0000000000000000e+00 1.2000000000000000e+01 1.6000000000000000e+01 1.0000000000000000e+00 
149 2 4 2.2559723595316457e+00 -3.7470923755040589e+04 1.0000000000000000e+00 1.4000000000000000e+01 1.6000000000000000e+01 1.0000000000000000e+00 
169 2 4 2.2559723595316457e+00 -3.7449083252987351e+04 1.0000000000000000e+00 1.6000000000000000e+01 1.6000000000000000e+01 1.0000000000000000e+00 
189 2 4 2.2559723595316457e+00 -3.7416881504846031e+04 1.0000000000000000e+00 1.8000000000000000e+01 1.6000000000000000e+01 1.0000000000000000e+00 
209 2 4 2.2559723595316457e+00 -3.7364499995869148e+04 1.0000000000000000e+00 2.0000000000000000e+01 1.6000000000000000e+01 1.0000000000000000e+00 
229 2 4 2.2559723595316457e+00 -3.7465778351689922e+04 1.0000000000000000e+00 2.2000000000000000e+01 1.6000000000000000e+01 1.0000000000000000e+00 
249 2 4 2.2559723595316457e+00 -3.7387299437759888e+04 1.0000000000000000e+00 2.4000000000000000e+01 1.6000000000000000e+01 1.0000000000000000e+00 
269 2 4 2.2559723595316457e+00 -3.7405895846487772e+04 1.0000000000000000e+00 2.6000000000000000e+01 1.6000000000000000e+01 1.0000000000000000e+00 
289 2 4 2.2559723595316461e+00 -3.7402817617485583e+04 1.0000000000000000e+00 2.8000000000000000e+01 1.6000000000000000e+01 1.0000000000000000e+00 
309 2 4 2.2559723595316457e+00 -3.7322633785103601e+04 1.0000000000000000e+00 3.0000000000000000e+01 1.6000000000000000e+01 1.0000000000000000e+00 
329 2 4 2.2559723595316457e+00 -3.7354425483701641e+04 1.0000000000000000e+00 3.2000000000000000e+01 1.6000000000000000e+01 1.0000000000000000e+00 
10 2 4 2.2559723595316457e+00 7.1788306471903995e-01 1.0000000000000000e+00 0.0000000000000000e+00 1.8000000000000000e+01 1.0000000000000000e+00 
30 2 4 2.2559723595316457e+00 2.3085972564057453e+00 1.0000000000000000e+00 2.0000000000000000e+00 1.8000000000000000e+01 1.0000000000000000e+00 
50 2 4 2.2559723595316457e+00 -1.9120517628101837e+01 1.0000000000000000e+00 4.0000000000000000e+00 1.8000000000000000e+01 1.0000000000000000e+00 
70 2 4 2.2559723595316457e+00 -1.6962164371102535e+04 1.0000000000000000e+00 6.0000000000000000e+00 1.8000000000000000e+01 1.0000000000000000e+00 
90 2 4 2.2559723595316457e+00 -3.6870694519067030e+04 1.0000000000000000e+00 8.0000000000000000e+00 1.8000000000000000e+01 1.0000000000000000e+00 
110 2 4 2.2559723595316457e+00 -3.7558863947030077e+04 1.0000000000000000e+00 1.0000000000000000e+01 1.8000000000000000e+01 1.0000000000000000e+00 
130 2 4 2.2559723595316457e+00 -3.7501890797787390e+04 1.0000000000000000e+00 1.2000000000000000e+01 1.8000000000000000e+01 1.0000000000000000e+00 
150 2 4 2.2559723595316457e+00 -3.7453849239786374e+04 1.0000000000000000e+00 1.4000000000000000e+01 1.8000000000000000e+01 1.0000000000000000e+00 
170 2 4 2.2559723595316457e+00 -3.7527451497843533e+04 1.0000000000000000e+00 1.6000000000000000e+01 1.8000000000000000e+01 1.0000000000000000e+00 
190 2 4 2.2559723595316457e+00 -3.7467722147270193e+04 1.0000000000000000e+00 1.8000000000000000e+01 1.8000000000000000e+01 1.0000000000000000e+00 
210 2 4 2.2559723595316457e+00 -3.7760824069757087e+04 1.0000000000000000e+00 2.0000000000000000e+01 1.8000000000000000e+01 1.0000000000000000e+00 
230 2 4 2.2559723595316457e+00 -3.8323055546486059e+04 1.0000000000000000e+00 2.2000000000000000e+01 1.8000000000000000e+01 1.0000000000000000e+00 
250 2 4 2.2559723595316457e+00 -3.7907587888997790e+04 1.0000000000000000e+00 2.4000000000000000e+01 1.8000000000000000e+01 1.0000000000000000e+00 
270 2 4 2.2559723595316457e+00 -3.7543569681507470e+04 1.0000000000000000e+00 2.6000000000000000e+01 1.8000000000000000e+01 1.0000000000000000e+00 
290 2 4 2.2559723595316457e+00 -3.7313929903988974e+04 1.0000000000000000e+00 2.8000000000000000e+01 1.8000000000000000e+01 1.0000000000000000e+00 
310 2 4 2.2559723595316457e+00 -3.7020893023327153e+04 1.0000000000000000e+00 3.0000000000000000e+01 1.8000000000000000e+01 1.0000000000000000e+00 
330 2 4 2.2559723595316457e+00 -3.7069964800375536e+04 1.0000000000000000e+00 3.2000000000000000e+01 1.8000000000000000e+01 1.0000000000000000e+00 
3740 2742 2 1.0279999841004264e+00 7.5815500130286591e+03 1.0000000000000000e+00 3.3231047369016053e+01 8.2430294807213009e+00 5.0575125866476203e+00 
1510 512 2 1.0279999816654746e+00 -1.5003705439485868e+03 1.0000000000000000e+00 3.2588764351019023e+01 7.3099565545797596e+00 5.7075601069295363e+00 
2424 1426 2 1.0280000044262017e+00 -1.0130571765907935e+04 1.0000000000000000e+00 2.5684673947803788e+01 1.0044987868013315e+01 4.9872317889096047e+00 
4312 3314 2 1.0280000044716953e+00 1.2331733812386153e+03 1.0000000000000000e+00 2.5685433002025839e+01 1.0052626635214226e+01 4.9871972380381173e+00 
2002 1004 2 1.0280000044717079e+00 1.2300054598082556e+03 1.0000000000000000e+00 2.5685433316755589e+01 1.0052629602077793e+01 4.9871972233159152e+00 
3810 2812 2 1.0280000007285641e+00 -1.0107628995043091e+04 1.0000000000000000e+00 2.5985810830496334e+01 9.4579241608806068e+00 4.9629900917636594e+00 
5200 4202 2 1.0280000073234623e+00 5.8629604211260767e+03 1.0000000000000000e+00 2.6221065008979039e+01 1.0620636626224131e+01 5.0499172437901025e+00 
3685 2687 2 1.0279999936559547e+00 4.7400050840363365e+03 1.0000000000000000e+00 2.7669995143559888e+01 9.8024534947140562e+00 4.9816295395552013e+00 
3219 2221 2 1.0279999936358137e+00 9.5557005744261460e+03 1.0000000000000000e+00 2.7670240107860256e+01 9.8017877025908220e+00 4.9816153196367781e+00 
2798 1800 2 1.0279999936232027e+00 3.1965221162727116e+03 1.0000000000000000e+00 2.7670393235763477e+01 9.8013695983911244e+00 4.9816063145995244e+00 
1465 467 2 1.0280000106467428e+00 -7.0113870016315605e+03 1.0000000000000000e+00 2.9856009400876932e+01 8.8299783985751166e+00 4.9101742496658796e+00 
1420 422 2 1.0280000112078544e+00 -9.5989728002276695e+02 1.0000000000000000e+00 2.9859508727831354e+01 8.8320489208531505e+00 4.9098601546179657e+00 
2342 1344 2 1.0280000112878698e+00 1.3987737335090169e+04 1.0000000000000000e+00 2.9860003228125223e+01 8.8323450040796860e+00 4.9098146824308113e+00 
1461 463 2 1.0280000113754044e+00 1.0409949418739096e+04 1.0000000000000000e+00 2.9860543237515810e+01 8.8326693342253009e+00 4.9097647151657950e+00 
2598 1600 2 1.0279999963946416e+00 1.9194370078670247e+04 1.0000000000000000e+00 2.9998998438889210e+01 8.9552087862759464e+00 4.9062770310053745e+00 
3275 2277 2 1.0280000159612801e+00 1.7577903956818129e+04 1.0000000000000000e+00 3.0718895799337961e+01 1.1377560396285775e+01 5.6870130568746751e+00 
4541 3543 2 1.0279999976345617e+00 5.1415161018791214e+03 1.0000000000000000e+00 2.6444331215107624e+01 1.3981472050990222e+01 5.4404771287858127e+00 
2528 1530 2 1.0279999906495727e+00 -2.9094112223217326e+03 1.0000000000000000e+00 2.6608628183035673e+01 1.3920936688254217e+01 5.4812978534391750e+00 
1767 769 2 1.0279999803530750e+00 6.5236557433076186e+03 1.0000000000000000e+00 2.7290282370968296e+01 1.3680307988277443e+01 5.5154626176132853e+00 
4959 3961 2 1.0279999892571632e+00 2.2402252123389779e+04 1.0000000000000000e+00 2.8418704511609580e+01 1.3531192843446462e+01 4.9691825195634598e+00 
3919 2921 2 1.0279999906114599e+00 -1.9620025779602975e+03 1.0000000000000000e+00 2.8728452096364702e+01 1.3467388242525852e+01 4.9863163805563397e+00 
5332 4334 2 1.0280000225147607e+00 7.1001902334394163e+02 1.0000000000000000e+00 2.9182949590016538e+01 1.2884542977800773e+01 5.5650137237138146e+00 
4452 3454 2 1.0280000199514225e+00 9.8533879885803870e+01 1.0000000000000000e+00 2.9618501315363879e+01 1.2432112514950909e+01 5.5266026761197518e+00 
1655 657 2 1.0280000034382555e+00 3.6277586293963384e+02 1.0000000000000000e+00 3.0377472925097525e+01 1.1916661007916995e+01 5.4303248405698925e+00 
1279 281 2 1.0279999471557688e+00 1.4317865521883099e+04 1.0000000000000000e+00 3.2325325130291425e+01 1.2923648775981718e+01 5.3161774678934366e+00 
4929 3931 2 1.0279999439985026e+00 1.4027440486050213e+04 1.0000000000000000e+00 3.2343131178760686e+01 1.2763907831961090e+01 5.3366519337567535e+00 
3996 2998 2 1.0279999953859724e+00 -3.5475920495602809e+03 1.0000000000000000e+00 1.6108899996138813e+01 1.6203513249976659e+01 5.5034999140766443e+00 
4956 3958 2 1.0279999946832212e+00 1.8323959571444051e+04 1.0000000000000000e+00 1.6231866433549378e+01 1.6154252789949982e+01 5.4331942474345531e+00 
5546 4548 2 1.0279999944622829e+00 1.7820954688227892e+04 1.0000000000000000e+00 1.6294034587607854e+01 1.6133724215862788e+01 5.4025425419250563e+00 
2562 1564 2 1.0279999983323498e+00 3.8565690306431688e+03 1.0000000000000000e+00 1.5758610472526295e+01 1.6440603855475327e+01 5.7093794580691775e+00 