LAMMPS data file via write_data, version 30 Jul 2016, timestep = 50400000

5620 atoms
8 atom types

0.0000000000000000e+00 1.0000000000000000e+02 xlo xhi
0.0000000000000000e+00 4.0000000000000000e+01 ylo yhi
0.0000000000000000e+00 4.0000000000000000e+01 zlo zhi

Masses

1 3.896
2 5.36
3 20.064
4 8.378
5 8.378
6 8.378
7 8.378
8 8.378

Atoms # meso-molecular

1 2 4 2.2559723595316457e+00 1.0968086045255014e+01 1.0000000000000000e+00 0.0000000000000000e+00 0.0000000000000000e+00 1.0000000000000000e+00 
2 2 4 2.2559723595316457e+00 -2.2333204578287985e-01 1.0000000000000000e+00 0.0000000000000000e+00 2.0000000000000000e+00 1.0000000000000000e+00 
21 2 4 2.2559723595316457e+00 1.0989088241508358e+00 1.0000000000000000e+00 2.0000000000000000e+00 0.0000000000000000e+00 1.0000000000000000e+00 
22 2 4 2.2559723595316457e+00 -1.1182605545971480e+00 1.0000000000000000e+00 2.0000000000000000e+00 2.0000000000000000e+00 1.0000000000000000e+00 
41 2 4 2.2559723595316457e+00 -1.0278796355471312e-02 1.0000000000000000e+00 4.0000000000000000e+00 0.0000000000000000e+00 1.0000000000000000e+00 
42 2 4 2.2559723595316457e+00 -6.4331087469782855e-03 1.0000000000000000e+00 4.0000000000000000e+00 2.0000000000000000e+00 1.0000000000000000e+00 
61 2 4 2.2559723595316457e+00 1.0321677721955500e-02 1.0000000000000000e+00 6.0000000000000000e+00 0.0000000000000000e+00 1.0000000000000000e+00 
62 2 4 2.2559723595316457e+00 1.6160709955495910e-02 1.0000000000000000e+00 6.0000000000000000e+00 2.0000000000000000e+00 1.0000000000000000e+00 
81 2 4 2.2559723595316457e+00 1.4176843318313825e-01 1.0000000000000000e+00 8.0000000000000000e+00 0.0000000000000000e+00 1.0000000000000000e+00 
82 2 4 2.2559723595316457e+00 2.7926644362241582e-01 1.0000000000000000e+00 8.0000000000000000e+00 2.0000000000000000e+00 1.0000000000000000e+00 
101 2 4 2.2559723595316457e+00 -1.0508784868814081e-01 1.0000000000000000e+00 1.0000000000000000e+01 0.0000000000000000e+00 1.0000000000000000e+00 
102 2 4 2.2559723595316457e+00 -3.9956134276994151e+00 1.0000000000000000e+00 1.0000000000000000e+01 2.0000000000000000e+00 1.0000000000000000e+00 
121 2 4 2.2559723595316457e+00 6.5490039222187619e+01 1.0000000000000000e+00 1.2000000000000000e+01 0.0000000000000000e+00 1.0000000000000000e+00 
122 2 4 2.2559723595316457e+00 2.4541917990587564e-01 1.0000000000000000e+00 1.2000000000000000e+01 2.0000000000000000e+00 1.0000000000000000e+00 
141 2 4 2.2559723595316457e+00 5.5713099527312139e+01 1.0000000000000000e+00 1.4000000000000000e+01 0.0000000000000000e+00 1.0000000000000000e+00 
142 2 4 2.2559723595316457e+00 -2.6668707010389228e+00 1.0000000000000000e+00 1.4000000000000000e+01 2.0000000000000000e+00 1.0000000000000000e+00 
161 2 4 2.2559723595316457e+00 -1.0874335659375358e+00 1.0000000000000000e+00 1.6000000000000000e+01 0.0000000000000000e+00 1.0000000000000000e+00 
162 2 4 2.2559723595316457e+00 2.8274056881748652e-02 1.0000000000000000e+00 1.6000000000000000e+01 2.0000000000000000e+00 1.0000000000000000e+00 
181 2 4 2.2559723595316457e+00 -2.4631056707133947e+01 1.0000000000000000e+00 1.8000000000000000e+01 0.0000000000000000e+00 1.0000000000000000e+00 
182 2 4 2.2559723595316457e+00 -3.7258699711637128e-01 1.0000000000000000e+00 1.8000000000000000e+01 2.0000000000000000e+00 1.0000000000000000e+00 
201 2 4 2.2559723595316457e+00 -4.4941853021542650e+00 1.0000000000000000e+00 2.0000000000000000e+01 0.0000000000000000e+00 1.0000000000000000e+00 
202 2 4 2.2559723595316457e+00 7.7860547752019773e+00 1.0000000000000000e+00 2.0000000000000000e+01 2.0000000000000000e+00 1.0000000000000000e+00 
221 2 4 2.2559723595316457e+00 -4.8545603044940329e+01 1.0000000000000000e+00 2.2000000000000000e+01 0.0000000000000000e+00 1.0000000000000000e+00 
222 2 4 2.2559723595316457e+00 4.4609181924199142e+00 1.0000000000000000e+00 2.2000000000000000e+01 2.0000000000000000e+00 1.0000000000000000e+00 
241 2 4 2.2559723595316457e+00 -4.7641818165243720e+01 1.0000000000000000e+00 2.4000000000000000e+01 0.0000000000000000e+00 1.0000000000000000e+00 
242 2 4 2.2559723595316457e+00 -5.5627781239239216e+00 1.0000000000000000e+00 2.4000000000000000e+01 2.0000000000000000e+00 1.0000000000000000e+00 
261 2 4 2.2559723595316457e+00 9.7532937340818350e+01 1.0000000000000000e+00 2.6000000000000000e+01 0.0000000000000000e+00 1.0000000000000000e+00 
262 2 4 2.2559723595316457e+00 -1.6449316894592677e+01 1.0000000000000000e+00 2.6000000000000000e+01 2.0000000000000000e+00 1.0000000000000000e+00 
281 2 4 2.2559723595316457e+00 -2.2406389709728272e+00 1.0000000000000000e+00 2.8000000000000000e+01 0.0000000000000000e+00 1.0000000000000000e+00 
282 2 4 2.2559723595316457e+00 3.7925678298175131e-01 1.0000000000000000e+00 2.8000000000000000e+01 2.0000000000000000e+00 1.0000000000000000e+00 
301 2 4 2.2559723595316457e+00 -4.8720977989007510e+00 1.0000000000000000e+00 3.0000000000000000e+01 0.0000000000000000e+00 1.0000000000000000e+00 
302 2 4 2.2559723595316457e+00 7.2145899803465516e+00 1.0000000000000000e+00 3.0000000000000000e+01 2.0000000000000000e+00 1.0000000000000000e+00 
321 2 4 2.2559723595316457e+00 -2.7573601780981178e+01 1.0000000000000000e+00 3.2000000000000000e+01 0.0000000000000000e+00 1.0000000000000000e+00 
322 2 4 2.2559723595316457e+00 2.8799408900399337e+00 1.0000000000000000e+00 3.2000000000000000e+01 2.0000000000000000e+00 1.0000000000000000e+00 
3 2 4 2.2559723595316457e+00 -5.3699714943596611e-03 1.0000000000000000e+00 0.0000000000000000e+00 4.0000000000000000e+00 1.0000000000000000e+00 
23 2 4 2.2559723595316457e+00 1.8642777308099105e+00 1.0000000000000000e+00 2.0000000000000000e+00 4.0000000000000000e+00 1.0000000000000000e+00 
43 2 4 2.2559723595316457e+00 6.3836721183484624e+00 1.0000000000000000e+00 4.0000000000000000e+00 4.0000000000000000e+00 1.0000000000000000e+00 
63 2 4 2.2559723595316457e+00 5.3673791438253815e+01 1.0000000000000000e+00 6.0000000000000000e+00 4.0000000000000000e+00 1.0000000000000000e+00 
83 2 4 2.2559723595316457e+00 8.1679769017624082e+00 1.0000000000000000e+00 8.0000000000000000e+00 4.0000000000000000e+00 1.0000000000000000e+00 
103 2 4 2.2559723595316457e+00 -6.4476539841009914e-02 1.0000000000000000e+00 1.0000000000000000e+01 4.0000000000000000e+00 1.0000000000000000e+00 
123 2 4 2.2559723595316457e+00 0.0000000000000000e+00 1.0000000000000000e+00 1.2000000000000000e+01 4.0000000000000000e+00 1.0000000000000000e+00 
143 2 4 2.2559723595316457e+00 0.0000000000000000e+00 1.0000000000000000e+00 1.4000000000000000e+01 4.0000000000000000e+00 1.0000000000000000e+00 
163 2 4 2.2559723595316457e+00 -2.5804602007073030e-01 1.0000000000000000e+00 1.6000000000000000e+01 4.0000000000000000e+00 1.0000000000000000e+00 
183 2 4 2.2559723595316457e+00 6.6091117692280349e+01 1.0000000000000000e+00 1.8000000000000000e+01 4.0000000000000000e+00 1.0000000000000000e+00 
203 2 4 2.2559723595316457e+00 1.7347886520055162e+01 1.0000000000000000e+00 2.0000000000000000e+01 4.0000000000000000e+00 1.0000000000000000e+00 
223 2 4 2.2559723595316457e+00 6.2769802744815493e+01 1.0000000000000000e+00 2.2000000000000000e+01 4.0000000000000000e+00 1.0000000000000000e+00 
243 2 4 2.2559723595316457e+00 -3.2612074420621376e+01 1.0000000000000000e+00 2.4000000000000000e+01 4.0000000000000000e+00 1.0000000000000000e+00 
263 2 4 2.2559723595316457e+00 4.7456018332299443e+00 1.0000000000000000e+00 2.6000000000000000e+01 4.0000000000000000e+00 1.0000000000000000e+00 
283 2 4 2.2559723595316457e+00 8.8493557628476054e+01 1.0000000000000000e+00 2.8000000000000000e+01 4.0000000000000000e+00 1.0000000000000000e+00 
303 2 4 2.2559723595316457e+00 5.1819931079765382e+01 1.0000000000000000e+00 3.0000000000000000e+01 4.0000000000000000e+00 1.0000000000000000e+00 
323 2 4 2.2559723595316457e+00 6.6208067218800309e+01 1.0000000000000000e+00 3.2000000000000000e+01 4.0000000000000000e+00 1.0000000000000000e+00 
4 2 4 2.2559723595316457e+00 -3.4052423238562987e-02 1.0000000000000000e+00 0.0000000000000000e+00 6.0000000000000000e+00 1.0000000000000000e+00 
5 2 4 2.2559723595316457e+00 -2.8107029161391307e-03 1.0000000000000000e+00 0.0000000000000000e+00 8.0000000000000000e+00 1.0000000000000000e+00 
24 2 4 2.2559723595316457e+00 1.1744934608417580e+01 1.0000000000000000e+00 2.0000000000000000e+00 6.0000000000000000e+00 1.0000000000000000e+00 
25 2 4 2.2559723595316457e+00 -3.2202846446787965e+00 1.0000000000000000e+00 2.0000000000000000e+00 8.0000000000000000e+00 1.0000000000000000e+00 
44 2 4 2.2559723595316457e+00 1.8495607626455403e+01 1.0000000000000000e+00 4.0000000000000000e+00 6.0000000000000000e+00 1.0000000000000000e+00 
45 2 4 2.2559723595316457e+00 -2.5665802686389863e+00 1.0000000000000000e+00 4.0000000000000000e+00 8.0000000000000000e+00 1.0000000000000000e+00 
64 2 4 2.2559723595316457e+00 1.1648425779384061e+02 1.0000000000000000e+00 6.0000000000000000e+00 6.0000000000000000e+00 1.0000000000000000e+00 
65 2 4 2.2559723595316457e+00 -2.3878511408917097e+03 1.0000000000000000e+00 6.0000000000000000e+00 8.0000000000000000e+00 1.0000000000000000e+00 
84 2 4 2.2559723595316457e+00 2.9781126830409072e+01 1.0000000000000000e+00 8.0000000000000000e+00 6.0000000000000000e+00 1.0000000000000000e+00 
85 2 4 2.2559723595316457e+00 -4.9208207866089579e+03 1.0000000000000000e+00 8.0000000000000000e+00 8.0000000000000000e+00 1.0000000000000000e+00 
104 2 4 2.2559723595316457e+00 0.0000000000000000e+00 1.0000000000000000e+00 1.0000000000000000e+01 6.0000000000000000e+00 1.0000000000000000e+00 
105 2 4 2.2559723595316457e+00 -5.0319644135964891e+03 1.0000000000000000e+00 1.0000000000000000e+01 8.0000000000000000e+00 1.0000000000000000e+00 
124 2 4 2.2559723595316457e+00 0.0000000000000000e+00 1.0000000000000000e+00 1.2000000000000000e+01 6.0000000000000000e+00 1.0000000000000000e+00 
125 2 4 2.2559723595316457e+00 -5.0308684574437775e+03 1.0000000000000000e+00 1.2000000000000000e+01 8.0000000000000000e+00 1.0000000000000000e+00 
144 2 4 2.2559723595316457e+00 0.0000000000000000e+00 1.0000000000000000e+00 1.4000000000000000e+01 6.0000000000000000e+00 1.0000000000000000e+00 
145 2 4 2.2559723595316457e+00 -5.0311528004087413e+03 1.0000000000000000e+00 1.4000000000000000e+01 8.0000000000000000e+00 1.0000000000000000e+00 
164 2 4 2.2559723595316457e+00 -2.6958849542877566e+01 1.0000000000000000e+00 1.6000000000000000e+01 6.0000000000000000e+00 1.0000000000000000e+00 
165 2 4 2.2559723595316457e+00 -5.0321313842227382e+03 1.0000000000000000e+00 1.6000000000000000e+01 8.0000000000000000e+00 1.0000000000000000e+00 
184 2 4 2.2559723595316457e+00 1.8012437818592994e+02 1.0000000000000000e+00 1.8000000000000000e+01 6.0000000000000000e+00 1.0000000000000000e+00 
185 2 4 2.2559723595316457e+00 -5.0331473868438561e+03 1.0000000000000000e+00 1.8000000000000000e+01 8.0000000000000000e+00 1.0000000000000000e+00 
204 2 4 2.2559723595316457e+00 1.3267936375566904e+02 1.0000000000000000e+00 2.0000000000000000e+01 6.0000000000000000e+00 1.0000000000000000e+00 
205 2 4 2.2559723595316457e+00 -4.9829010311758684e+03 1.0000000000000000e+00 2.0000000000000000e+01 8.0000000000000000e+00 1.0000000000000000e+00 
224 2 4 2.2559723595316457e+00 8.5817946990378843e+01 1.0000000000000000e+00 2.2000000000000000e+01 6.0000000000000000e+00 1.0000000000000000e+00 
225 2 4 2.2559723595316457e+00 -4.8730197365998774e+03 1.0000000000000000e+00 2.2000000000000000e+01 8.0000000000000000e+00 1.0000000000000000e+00 
244 2 4 2.2559723595316457e+00 -4.9005894283674415e+01 1.0000000000000000e+00 2.4000000000000000e+01 6.0000000000000000e+00 1.0000000000000000e+00 
245 2 4 2.2559723595316457e+00 -4.8448444605809273e+03 1.0000000000000000e+00 2.4000000000000000e+01 8.0000000000000000e+00 1.0000000000000000e+00 
264 2 4 2.2559723595316457e+00 4.5431375904258317e+01 1.0000000000000000e+00 2.6000000000000000e+01 6.0000000000000000e+00 1.0000000000000000e+00 
265 2 4 2.2559723595316457e+00 -5.0606737463899071e+03 1.0000000000000000e+00 2.6000000000000000e+01 8.0000000000000000e+00 1.0000000000000000e+00 
284 2 4 2.2559723595316457e+00 -1.7369404681420907e+01 1.0000000000000000e+00 2.8000000000000000e+01 6.0000000000000000e+00 1.0000000000000000e+00 
285 2 4 2.2559723595316457e+00 -5.1123097491381313e+03 1.0000000000000000e+00 2.8000000000000000e+01 8.0000000000000000e+00 1.0000000000000000e+00 
304 2 4 2.2559723595316457e+00 -1.0539131072623621e+02 1.0000000000000000e+00 3.0000000000000000e+01 6.0000000000000000e+00 1.0000000000000000e+00 
305 2 4 2.2559723595316457e+00 -5.0466569343330921e+03 1.0000000000000000e+00 3.0000000000000000e+01 8.0000000000000000e+00 1.0000000000000000e+00 
324 2 4 2.2559723595316457e+00 -3.2903774256354687e+01 1.0000000000000000e+00 3.2000000000000000e+01 6.0000000000000000e+00 1.0000000000000000e+00 
325 2 4 2.2559723595316457e+00 -5.0348183506758087e+03 1.0000000000000000e+00 3.2000000000000000e+01 8.0000000000000000e+00 1.0000000000000000e+00 
6 2 4 2.2559723595316457e+00 5.6163997979313249e+00 1.0000000000000000e+00 0.0000000000000000e+00 1.0000000000000000e+01 1.0000000000000000e+00 
26 2 4 2.2559723595316457e+00 0.0000000000000000e+00 1.0000000000000000e+00 2.0000000000000000e+00 1.0000000000000000e+01 1.0000000000000000e+00 
46 2 4 2.2559723595316457e+00 -1.7001735434959124e+02 1.0000000000000000e+00 4.0000000000000000e+00 1.0000000000000000e+01 1.0000000000000000e+00 
66 2 4 2.2559723595316457e+00 -1.4385885208398260e+04 1.0000000000000000e+00 6.0000000000000000e+00 1.0000000000000000e+01 1.0000000000000000e+00 
86 2 4 2.2559723595316457e+00 -3.0430319703374338e+04 1.0000000000000000e+00 8.0000000000000000e+00 1.0000000000000000e+01 1.0000000000000000e+00 
106 2 4 2.2559723595316457e+00 -3.0910308302616162e+04 1.0000000000000000e+00 1.0000000000000000e+01 1.0000000000000000e+01 1.0000000000000000e+00 
126 2 4 2.2559723595316457e+00 -3.0905893414275539e+04 1.0000000000000000e+00 1.2000000000000000e+01 1.0000000000000000e+01 1.0000000000000000e+00 
146 2 4 2.2559723595316457e+00 -3.0907937537662267e+04 1.0000000000000000e+00 1.4000000000000000e+01 1.0000000000000000e+01 1.0000000000000000e+00 
166 2 4 2.2559723595316457e+00 -3.0908004658464593e+04 1.0000000000000000e+00 1.6000000000000000e+01 1.0000000000000000e+01 1.0000000000000000e+00 
186 2 4 2.2559723595316457e+00 -3.0899815590192757e+04 1.0000000000000000e+00 1.8000000000000000e+01 1.0000000000000000e+01 1.0000000000000000e+00 
206 2 4 2.2559723595316457e+00 -3.1163506575843872e+04 1.0000000000000000e+00 2.0000000000000000e+01 1.0000000000000000e+01 1.0000000000000000e+00 
226 2 4 2.2559723595316457e+00 -3.1052814561484818e+04 1.0000000000000000e+00 2.2000000000000000e+01 1.0000000000000000e+01 1.0000000000000000e+00 
246 2 4 2.2559723595316457e+00 -3.0872969875144998e+04 1.0000000000000000e+00 2.4000000000000000e+01 1.0000000000000000e+01 1.0000000000000000e+00 
266 2 4 2.2559723595316457e+00 -3.0905852570320301e+04 1.0000000000000000e+00 2.6000000000000000e+01 1.0000000000000000e+01 1.0000000000000000e+00 
286 2 4 2.2559723595316457e+00 -3.0873938564663516e+04 1.0000000000000000e+00 2.8000000000000000e+01 1.0000000000000000e+01 1.0000000000000000e+00 
306 2 4 2.2559723595316457e+00 -3.0837712547376937e+04 1.0000000000000000e+00 3.0000000000000000e+01 1.0000000000000000e+01 1.0000000000000000e+00 
326 2 4 2.2559723595316457e+00 -3.0915285629581555e+04 1.0000000000000000e+00 3.2000000000000000e+01 1.0000000000000000e+01 1.0000000000000000e+00 
7 2 4 2.2559723595316457e+00 1.4967513967940089e-02 1.0000000000000000e+00 0.0000000000000000e+00 1.2000000000000000e+01 1.0000000000000000e+00 
8 2 4 2.2559723595316457e+00 -1.4252483031305367e+00 1.0000000000000000e+00 0.0000000000000000e+00 1.4000000000000000e+01 1.0000000000000000e+00 
27 2 4 2.2559723595316457e+00 1.1278356849925929e-06 1.0000000000000000e+00 2.0000000000000000e+00 1.2000000000000000e+01 1.0000000000000000e+00 
28 2 4 2.2559723595316457e+00 -5.1956053582113466e-05 1.0000000000000000e+00 2.0000000000000000e+00 1.4000000000000000e+01 1.0000000000000000e+00 
47 2 4 2.2559723595316457e+00 -1.7358829889705822e+02 1.0000000000000000e+00 4.0000000000000000e+00 1.2000000000000000e+01 1.0000000000000000e+00 
48 2 4 2.2559723595316457e+00 -1.7355014703183593e+02 1.0000000000000000e+00 4.0000000000000000e+00 1.4000000000000000e+01 1.0000000000000000e+00 
67 2 4 2.2559723595316457e+00 -1.7326292809904109e+04 1.0000000000000000e+00 6.0000000000000000e+00 1.2000000000000000e+01 1.0000000000000000e+00 
68 2 4 2.2559723595316457e+00 -1.7373229865821413e+04 1.0000000000000000e+00 6.0000000000000000e+00 1.4000000000000000e+01 1.0000000000000000e+00 
87 2 4 2.2559723595316457e+00 -3.6848710430805797e+04 1.0000000000000000e+00 8.0000000000000000e+00 1.2000000000000000e+01 1.0000000000000000e+00 
88 2 4 2.2559723595316457e+00 -3.6936119407449565e+04 1.0000000000000000e+00 8.0000000000000000e+00 1.4000000000000000e+01 1.0000000000000000e+00 
107 2 4 2.2559723595316457e+00 -3.7346130453360034e+04 1.0000000000000000e+00 1.0000000000000000e+01 1.2000000000000000e+01 1.0000000000000000e+00 
108 2 4 2.2559723595316457e+00 -3.7424209116806684e+04 1.0000000000000000e+00 1.0000000000000000e+01 1.4000000000000000e+01 1.0000000000000000e+00 
127 2 4 2.2559723595316457e+00 -3.7341698931385778e+04 1.0000000000000000e+00 1.2000000000000000e+01 1.2000000000000000e+01 1.0000000000000000e+00 
128 2 4 2.2559723595316457e+00 -3.7437811391667768e+04 1.0000000000000000e+00 1.2000000000000000e+01 1.4000000000000000e+01 1.0000000000000000e+00 
147 2 4 2.2559723595316457e+00 -3.7343928334180695e+04 1.0000000000000000e+00 1.4000000000000000e+01 1.2000000000000000e+01 1.0000000000000000e+00 
148 2 4 2.2559723595316457e+00 -3.7442009120939190e+04 1.0000000000000000e+00 1.4000000000000000e+01 1.4000000000000000e+01 1.0000000000000000e+00 
167 2 4 2.2559723595316457e+00 -3.7385222736551383e+04 1.0000000000000000e+00 1.6000000000000000e+01 1.2000000000000000e+01 1.0000000000000000e+00 
168 2 4 2.2559723595316457e+00 -3.7459601254833455e+04 1.0000000000000000e+00 1.6000000000000000e+01 1.4000000000000000e+01 1.0000000000000000e+00 
187 2 4 2.2559723595316457e+00 -3.7394620802405334e+04 1.0000000000000000e+00 1.8000000000000000e+01 1.2000000000000000e+01 1.0000000000000000e+00 
188 2 4 2.2559723595316457e+00 -3.7492369230600169e+04 1.0000000000000000e+00 1.8000000000000000e+01 1.4000000000000000e+01 1.0000000000000000e+00 
207 2 4 2.2559723595316457e+00 -3.7453189870293507e+04 1.0000000000000000e+00 2.0000000000000000e+01 1.2000000000000000e+01 1.0000000000000000e+00 
208 2 4 2.2559723595316457e+00 -3.7508834822850295e+04 1.0000000000000000e+00 2.0000000000000000e+01 1.4000000000000000e+01 1.0000000000000000e+00 
227 2 4 2.2559723595316457e+00 -3.7556721464318383e+04 1.0000000000000000e+00 2.2000000000000000e+01 1.2000000000000000e+01 1.0000000000000000e+00 
228 2 4 2.2559723595316457e+00 -3.7432852048169385e+04 1.0000000000000000e+00 2.2000000000000000e+01 1.4000000000000000e+01 1.0000000000000000e+00 
247 2 4 2.2559723595316457e+00 -3.7342978013500520e+04 1.0000000000000000e+00 2.4000000000000000e+01 1.2000000000000000e+01 1.0000000000000000e+00 
248 2 4 2.2559723595316457e+00 -3.7422760737982564e+04 1.0000000000000000e+00 2.4000000000000000e+01 1.4000000000000000e+01 1.0000000000000000e+00 
267 2 4 2.2559723595316457e+00 -3.7360146575912091e+04 1.0000000000000000e+00 2.6000000000000000e+01 1.2000000000000000e+01 1.0000000000000000e+00 
268 2 4 2.2559723595316457e+00 -3.7478547750298974e+04 1.0000000000000000e+00 2.6000000000000000e+01 1.4000000000000000e+01 1.0000000000000000e+00 
287 2 4 2.2559723595316457e+00 -3.7393904839490155e+04 1.0000000000000000e+00 2.8000000000000000e+01 1.2000000000000000e+01 1.0000000000000000e+00 
288 2 4 2.2559723595316457e+00 -3.7443871889176589e+04 1.0000000000000000e+00 2.8000000000000000e+01 1.4000000000000000e+01 1.0000000000000000e+00 
307 2 4 2.2559723595316457e+00 -3.7549122939760418e+04 1.0000000000000000e+00 3.0000000000000000e+01 1.2000000000000000e+01 1.0000000000000000e+00 
308 2 4 2.2559723595316457e+00 -3.7481394328131457e+04 1.0000000000000000e+00 3.0000000000000000e+01 1.4000000000000000e+01 1.0000000000000000e+00 
327 2 4 2.2559723595316457e+00 -3.7462785057574511e+04 1.0000000000000000e+00 3.2000000000000000e+01 1.2000000000000000e+01 1.0000000000000000e+00 
328 2 4 2.2559723595316461e+00 -3.7427380526701832e+04 1.0000000000000000e+00 3.2000000000000000e+01 1.4000000000000000e+01 1.0000000000000000e+00 
9 2 4 2.2559723595316457e+00 -7.3015994095064869e+00 1.0000000000000000e+00 0.0000000000000000e+00 1.6000000000000000e+01 1.0000000000000000e+00 
29 2 4 2.2559723595316457e+00 3.3243753281989696e-02 1.0000000000000000e+00 2.0000000000000000e+00 1.6000000000000000e+01 1.0000000000000000e+00 
49 2 4 2.2559723595316457e+00 -1.1585806683312290e+02 1.0000000000000000e+00 4.0000000000000000e+00 1.6000000000000000e+01 1.0000000000000000e+00 
69 2 4 2.2559723595316457e+00 -1.7311677880310093e+04 1.0000000000000000e+00 6.0000000000000000e+00 1.6000000000000000e+01 1.0000000000000000e+00 
89 2 4 2.2559723595316457e+00 -3.6931801259512555e+04 1.0000000000000000e+00 8.0000000000000000e+00 1.6000000000000000e+01 1.0000000000000000e+00 
109 2 4 2.2559723595316457e+00 -3.7426943570853189e+04 1.0000000000000000e+00 1.0000000000000000e+01 1.6000000000000000e+01 1.0000000000000000e+00 
129 2 4 2.2559723595316457e+00 -3.7413142766999248e+04 1.0000000000000000e+00 1.2000000000000000e+01 1.6000000000000000e+01 1.0000000000000000e+00 
149 2 4 2.2559723595316457e+00 -3.7470923755040589e+04 1.0000000000000000e+00 1.4000000000000000e+01 1.6000000000000000e+01 1.0000000000000000e+00 
169 2 4 2.2559723595316457e+00 -3.7449083252987351e+04 1.0000000000000000e+00 1.6000000000000000e+01 1.6000000000000000e+01 1.0000000000000000e+00 
189 2 4 2.2559723595316457e+00 -3.7416881504846031e+04 1.0000000000000000e+00 1.8000000000000000e+01 1.6000000000000000e+01 1.0000000000000000e+00 
209 2 4 2.2559723595316457e+00 -3.7364499995869148e+04 1.0000000000000000e+00 2.0000000000000000e+01 1.6000000000000000e+01 1.0000000000000000e+00 
229 2 4 2.2559723595316457e+00 -3.7465778351689922e+04 1.0000000000000000e+00 2.2000000000000000e+01 1.6000000000000000e+01 1.0000000000000000e+00 
249 2 4 2.2559723595316457e+00 -3.7387299437759888e+04 1.0000000000000000e+00 2.4000000000000000e+01 1.6000000000000000e+01 1.0000000000000000e+00 
269 2 4 2.2559723595316457e+00 -3.7405895846487772e+04 1.0000000000000000e+00 2.6000000000000000e+01 1.6000000000000000e+01 1.0000000000000000e+00 
289 2 4 2.2559723595316461e+00 -3.7402817617485583e+04 1.0000000000000000e+00 2.8000000000000000e+01 1.6000000000000000e+01 1.0000000000000000e+00 
309 2 4 2.2559723595316457e+00 -3.7322633785103601e+04 1.0000000000000000e+00 3.0000000000000000e+01 1.6000000000000000e+01 1.0000000000000000e+00 
329 2 4 2.2559723595316457e+00 -3.7354425483701641e+04 1.0000000000000000e+00 3.2000000000000000e+01 1.6000000000000000e+01 1.0000000000000000e+00 
10 2 4 2.2559723595316457e+00 7.1788306471903995e-01 1.0000000000000000e+00 0.0000000000000000e+00 1.8000000000000000e+01 1.0000000000000000e+00 
30 2 4 2.2559723595316457e+00 2.3085972564057453e+00 1.0000000000000000e+00 2.0000000000000000e+00 1.8000000000000000e+01 1.0000000000000000e+00 
50 2 4 2.2559723595316457e+00 -1.9120517628101837e+01 1.0000000000000000e+00 4.0000000000000000e+00 1.8000000000000000e+01 1.0000000000000000e+00 
70 2 4 2.2559723595316457e+00 -1.6962164371102535e+04 1.0000000000000000e+00 6.0000000000000000e+00 1.8000000000000000e+01 1.0000000000000000e+00 
90 2 4 2.2559723595316457e+00 -3.6870694519067030e+04 1.0000000000000000e+00 8.0000000000000000e+00 1.8000000000000000e+01 1.0000000000000000e+00 
110 2 4 2.2559723595316457e+00 -3.7558863947030077e+04 1.0000000000000000e+00 1.0000000000000000e+01 1.8000000000000000e+01 1.0000000000000000e+00 
130 2 4 2.2559723595316457e+00 -3.7501890797787390e+04 1.0000000000000000e+00 1.2000000000000000e+01 1.8000000000000000e+01 1.0000000000000000e+00 
150 2 4 2.2559723595316457e+00 -3.7453849239786374e+04 1.0000000000000000e+00 1.4000000000000000e+01 1.8000000000000000e+01 1.0000000000000000e+00 
170 2 4 2.2559723595316457e+00 -3.7527451497843533e+04 1.0000000000000000e+00 1.6000000000000000e+01 1.8000000000000000e+01 1.0000000000000000e+00 
190 2 4 2.2559723595316457e+00 -3.7467722147270193e+04 1.0000000000000000e+00 1.8000000000000000e+01 1.8000000000000000e+01 1.0000000000000000e+00 
210 2 4 2.2559723595316457e+00 -3.7760824069757087e+04 1.0000000000000000e+00 2.0000000000000000e+01 1.8000000000000000e+01 1.0000000000000000e+00 
230 2 4 2.2559723595316457e+00 -3.8323055546486059e+04 1.0000000000000000e+00 2.2000000000000000e+01 1.8000000000000000e+01 1.0000000000000000e+00 
250 2 4 2.2559723595316457e+00 -3.7907587888997790e+04 1.0000000000000000e+00 2.4000000000000000e+01 1.8000000000000000e+01 1.0000000000000000e+00 
270 2 4 2.2559723595316457e+00 -3.7543569681507470e+04 1.0000000000000000e+00 2.6000000000000000e+01 1.8000000000000000e+01 1.0000000000000000e+00 
290 2 4 2.2559723595316457e+00 -3.7313929903988974e+04 1.0000000000000000e+00 2.8000000000000000e+01 1.8000000000000000e+01 1.0000000000000000e+00 
310 2 4 2.2559723595316457e+00 -3.7020893023327153e+04 1.0000000000000000e+00 3.0000000000000000e+01 1.8000000000000000e+01 1.0000000000000000e+00 
330 2 4 2.2559723595316457e+00 -3.7069964800375536e+04 1.0000000000000000e+00 3.2000000000000000e+01 1.8000000000000000e+01 1.0000000000000000e+00 
3740 2742 2 1.0279999845949788e+00 7.5815500144838506e+03 1.0000000000000000e+00 3.3223373668064433e+01 8.2433880209640833e+00 5.0535997970154165e+00 
1510 512 2 1.0279999824775232e+00 -1.5003705423114964e+03 1.0000000000000000e+00 3.2579909126176972e+01 7.3095178286816900e+00 5.7038617682829127e+00 
2424 1426 2 1.0280000043543207e+00 -1.0130571765907935e+04 1.0000000000000000e+00 2.5675417318264138e+01 1.0041830439883432e+01 4.9865220907815253e+00 
4312 3314 2 1.0280000044028297e+00 1.2331733812386153e+03 1.0000000000000000e+00 2.5676174371651406e+01 1.0049475666154267e+01 4.9864951622539824e+00 
2002 1004 2 1.0280000044028523e+00 1.2300054598082556e+03 1.0000000000000000e+00 2.5676174685620914e+01 1.0049478635547585e+01 4.9864951505348465e+00 
3810 2812 2 1.0280000006360877e+00 -1.0107628995043091e+04 1.0000000000000000e+00 2.5976930955266319e+01 9.4545219698615153e+00 4.9624827394592579e+00 
5200 4202 2 1.0280000075418234e+00 5.8629604211260767e+03 1.0000000000000000e+00 2.6212307992904158e+01 1.0618056459398625e+01 5.0487011241682032e+00 
3685 2687 2 1.0279999937226405e+00 4.7400050840363365e+03 1.0000000000000000e+00 2.7660500614073712e+01 9.7995773725079403e+00 4.9805398593091175e+00 
3219 2221 2 1.0279999937033779e+00 9.5557005744261460e+03 1.0000000000000000e+00 2.7660745078159390e+01 9.7989121346614922e+00 4.9805258363859473e+00 
2798 1800 2 1.0279999936913191e+00 3.1965221162727116e+03 1.0000000000000000e+00 2.7660897893174099e+01 9.7984943798769439e+00 4.9805169551102768e+00 
1465 467 2 1.0280000107342375e+00 -7.0113870009039647e+03 1.0000000000000000e+00 2.9847088208395249e+01 8.8273825003998638e+00 4.9103857740182946e+00 
1420 422 2 1.0280000112812349e+00 -9.5989727965896907e+02 1.0000000000000000e+00 2.9850599120824466e+01 8.8294491804826123e+00 4.9100823702770402e+00 
2342 1344 2 1.0280000113592047e+00 1.3987737335090169e+04 1.0000000000000000e+00 2.9851095288412644e+01 8.8297447381794498e+00 4.9100384074835537e+00 
1461 463 2 1.0280000114445158e+00 1.0409949418739096e+04 1.0000000000000000e+00 2.9851637127092445e+01 8.8300684994748924e+00 4.9099900880893621e+00 
2598 1600 2 1.0279999963311481e+00 1.9194370078670247e+04 1.0000000000000000e+00 2.9990180590122943e+01 8.9528109225276911e+00 4.9056171003445987e+00 
3275 2277 2 1.0280000152793212e+00 1.7577903956818129e+04 1.0000000000000000e+00 3.0712073272687988e+01 1.1376126327887084e+01 5.6816132130513051e+00 
4541 3543 2 1.0279999976314256e+00 5.1415161026067171e+03 1.0000000000000000e+00 2.6436227953016719e+01 1.3977981455211234e+01 5.4362399897044886e+00 
2528 1530 2 1.0279999905773558e+00 -2.9094112215941368e+03 1.0000000000000000e+00 2.6600599033509987e+01 1.3917619109958538e+01 5.4772788828058312e+00 
1767 769 2 1.0279999801711726e+00 6.5236557440352144e+03 1.0000000000000000e+00 2.7282371470922008e+01 1.3677605448835443e+01 5.5117024877310836e+00 
4959 3961 2 1.0279999893100511e+00 2.2402252123389779e+04 1.0000000000000000e+00 2.8410881102357639e+01 1.3528672413480351e+01 4.9657910149489695e+00 
3919 2921 2 1.0279999907077422e+00 -1.9620025775964996e+03 1.0000000000000000e+00 2.8720598532709403e+01 1.3465214835304192e+01 4.9826623186464740e+00 
5332 4334 2 1.0280000238210942e+00 7.1001902370773951e+02 1.0000000000000000e+00 2.9174472557430544e+01 1.2882523032281343e+01 5.5604299630951060e+00 
4452 3454 2 1.0280000208406170e+00 9.8533880329182537e+01 1.0000000000000000e+00 2.9610499243758316e+01 1.2430351496025692e+01 5.5213848570839810e+00 
1655 657 2 1.0280000033600232e+00 3.6277586357628013e+02 1.0000000000000000e+00 3.0370843780661538e+01 1.1915306921769295e+01 5.4252556404877570e+00 
1279 281 2 1.0279999474664892e+00 1.4317865523338291e+04 1.0000000000000000e+00 3.2318703438339348e+01 1.2921124561288378e+01 5.3156382309668917e+00 
4929 3931 2 1.0279999443520749e+00 1.4027440487505404e+04 1.0000000000000000e+00 3.2336484988847452e+01 1.2761793103483255e+01 5.3359758972236317e+00 
3996 2998 2 1.0279999953936942e+00 -3.5475920491964830e+03 1.0000000000000000e+00 1.6102382077344597e+01 1.6201260813101054e+01 5.4983779323416249e+00 
4956 3958 2 1.0279999946823712e+00 1.8323959571444051e+04 1.0000000000000000e+00 1.6225211109238632e+01 1.6152085723257649e+01 5.4281192797664080e+00 
5546 4548 2 1.0279999944582705e+00 1.7820954688227892e+04 1.0000000000000000e+00 1.6287302816789161e+01 1.6131592952782661e+01 5.3974921547131851e+00 
2562 1564 2 1.0279999983595836e+00 3.8565690310069667e+03 1.0000000000000000e+00 1.5752423256024469e+01 1.6438094539565547e+01 5.7042472602763281e+00 