LAMMPS data file via write_data, version 30 Jul 2016, timestep = 50000000

1520 atoms
8 atom types

0.0000000000000000e+00 4.0000000000000000e+01 xlo xhi
0.0000000000000000e+00 4.0000000000000000e+01 ylo yhi
0.0000000000000000e+00 1.0000000000000000e+02 zlo zhi

Masses

1 3.896
2 5.36
3 20.064
4 8.378
5 8.378
6 8.378
7 8.378
8 8.378

Atoms # meso-molecular

1407 1408 2 1.0280000000027498e+00 -5.0616784171835207e+03 1.0000000000000000e+00 1.7583620914595466e+00 5.3506398740146093e+00 1.0405010059038679e+01 
1405 1406 2 1.0279999999844878e+00 3.4176940773959941e+03 1.0000000000000000e+00 1.4434802174260357e+00 5.1624973742201163e+00 1.0738990801429599e+01 
39 40 2 1.0279999999974223e+00 -5.0616632997244906e+03 1.0000000000000000e+00 1.7571652998335761e+00 7.2748009657624930e+00 1.0403145248172388e+01 
37 38 2 1.0280000000149916e+00 3.4177056388045785e+03 1.0000000000000000e+00 1.4431994531161234e+00 7.4632484346125443e+00 1.0734930850068638e+01 
346 347 2 1.0280000000006464e+00 -4.4819044536365473e+03 1.0000000000000000e+00 3.0175388852900600e+00 6.4910279920695952e+00 1.1366160120189768e+01 
1106 1107 2 1.0280000000038723e+00 -4.4819055944283336e+03 1.0000000000000000e+00 3.0176341576308547e+00 6.1347545924928752e+00 1.1366759286829479e+01 
1267 1268 2 1.0279999999223008e+00 3.3648189118955969e+02 1.0000000000000000e+00 5.6554844178358965e-01 4.9540695251433773e+00 1.2295397586237083e+01 
1099 1100 2 1.0280000000137295e+00 -2.3946544151739181e+03 1.0000000000000000e+00 4.3013834228535147e-01 4.8435615952198807e+00 1.2441455689562918e+01 
203 204 2 1.0279999999828764e+00 3.3648162039766157e+02 1.0000000000000000e+00 5.6380744126588722e-01 7.6721234359617805e+00 1.2289831471962064e+01 
339 340 2 1.0280000000179048e+00 -2.3946468025990653e+03 1.0000000000000000e+00 4.2742359993370937e-01 7.7830342370361443e+00 1.2437094081600792e+01 
1225 1226 2 1.0279999999153444e+00 -6.5429125366023436e+02 1.0000000000000000e+00 1.6029143445491845e+00 4.7628416226540908e+00 1.4212608766732465e+01 
1080 1081 2 1.0280000001202214e+00 2.1271863376215606e+03 1.0000000000000000e+00 3.6713375059863201e-01 4.3731047562091012e+00 1.5061161970812341e+01 
976 977 2 1.0280000000228440e+00 6.7694361732965826e+03 1.0000000000000000e+00 2.3810678215578873e+00 5.5631120014503876e+00 1.3885849864513142e+01 
1397 1398 2 1.0280000000082210e+00 3.5107414202370151e+03 1.0000000000000000e+00 2.8371380980632299e+00 5.0703066899570288e+00 1.4921360410424880e+01 
161 162 2 1.0279999999773106e+00 -6.5429250880243308e+02 1.0000000000000000e+00 1.6010420009652986e+00 7.8672188603557984e+00 1.4209766180194633e+01 
520 521 2 1.0280000000140421e+00 6.7694309355750929e+03 1.0000000000000000e+00 2.3801468126220917e+00 7.0687743136636811e+00 1.3881696984728626e+01 
29 30 2 1.0279999999958596e+00 3.5107278912332367e+03 1.0000000000000000e+00 2.8337121547291937e+00 7.5623124385089913e+00 1.4916624204814068e+01 
320 321 2 1.0280000000170426e+00 2.1271865462280803e+03 1.0000000000000000e+00 3.6668496248125049e-01 8.2577075713195658e+00 1.5059167033602058e+01 
1233 1234 2 1.0279999997930065e+00 -2.0846721287747869e+02 1.0000000000000000e+00 6.3672040278738584e-01 4.0047536423422514e+00 1.5979458036186950e+01 
1229 1230 2 1.0280000000491403e+00 5.0167610948702804e+02 1.0000000000000000e+00 1.8919630008609798e+00 4.5921739106421500e+00 1.6393397292631537e+01 
1221 1222 2 1.0280000000333709e+00 2.0823872046054328e+02 1.0000000000000000e+00 1.9632855933050600e-02 5.4254211010250932e+00 1.6594732154516699e+01 
1130 1131 2 1.0279999999276774e+00 -4.8405628618276351e+03 1.0000000000000000e+00 2.4323096380591647e+00 5.5557824863118555e+00 1.6192916347382003e+01 
157 158 2 1.0279999999855949e+00 2.0823149365137493e+02 1.0000000000000000e+00 1.6078061492492253e-02 7.1985481703089604e+00 1.6588068298203751e+01 
370 371 2 1.0279999999625011e+00 -4.8405750122314366e+03 1.0000000000000000e+00 2.4305129706961663e+00 7.0760905132663723e+00 1.6188884377551787e+01 
169 170 2 1.0280000000061100e+00 -2.0846709240981448e+02 1.0000000000000000e+00 6.3478455782971355e-01 8.6258562528827021e+00 1.5977545081059526e+01 
165 166 2 1.0280000000546790e+00 5.0167383979635440e+02 1.0000000000000000e+00 1.8900192458970797e+00 8.0399485475192414e+00 1.6397015215799936e+01 
769 770 2 1.0280000000046925e+00 -1.6839310015385040e+03 1.0000000000000000e+00 2.9363065848601166e-01 2.7077571070551398e+00 1.7932689464779944e+01 
928 929 2 1.0279999999469103e+00 8.0089134456318720e+02 1.0000000000000000e+00 1.8170970435418604e-01 3.8290692015547143e+00 1.8441188098781424e+01 
321 322 2 1.0280000001937595e+00 -1.3984810707827903e+03 1.0000000000000000e+00 9.6416444333535567e-01 2.2538971003958754e+00 1.9005278585434610e+01 
1103 1104 2 1.0279999999791751e+00 -4.6832299474562424e+03 1.0000000000000000e+00 3.1965467781330363e+00 4.5300399931021511e+00 1.7992414197865060e+01 
980 981 2 1.0279999998040619e+00 6.3675255223930781e+03 1.0000000000000000e+00 2.7674619721312856e+00 4.0770293018284400e+00 1.8306763029459425e+01 
832 833 2 1.0280000000070704e+00 -3.9636828589332654e+03 1.0000000000000000e+00 2.5767589162752698e+00 5.9255982841950727e+00 1.8503179128023351e+01 
680 681 2 1.0279999999026113e+00 -3.9636977238751997e+03 1.0000000000000000e+00 2.5889304431868627e+00 6.7098680714654506e+00 1.8499882331357515e+01 
617 618 2 1.0279999999900780e+00 -1.6839330630577324e+03 1.0000000000000000e+00 2.8842520601624466e-01 9.9326450215352242e+00 1.7905526710813188e+01 
472 473 2 1.0280000000104650e+00 8.0089256712835834e+02 1.0000000000000000e+00 1.6958197293532745e-01 8.7994560596865288e+00 1.8424689323928064e+01 
343 344 2 1.0280000000097222e+00 -4.6832429993101896e+03 1.0000000000000000e+00 3.1838620688000430e+00 8.1122670935178807e+00 1.7981224953363373e+01 
524 525 2 1.0280000000168690e+00 6.3675260331219833e+03 1.0000000000000000e+00 2.7541331301979497e+00 8.5646081523928199e+00 1.8302333336579032e+01 
1081 1082 2 1.0280000000197806e+00 -1.3984804518896954e+03 1.0000000000000000e+00 9.4508928983893925e-01 1.0397005696626364e+01 1.8980259481405096e+01 
978 979 2 1.0279999999542169e+00 -2.1732874594172126e+03 1.0000000000000000e+00 1.9002291497747965e+00 1.8205500665861551e+00 1.9737068707336594e+01 
216 217 2 1.0279999998453202e+00 3.4491494174123009e+03 1.0000000000000000e+00 2.4841079617135953e+00 1.2885314987311873e+00 2.0356110888444448e+01 
244 245 2 1.0280000002714973e+00 3.4491572702759304e+03 1.0000000000000000e+00 2.4708182971459016e+00 1.2908170289190426e+00 2.1489795708979941e+01 
951 952 2 1.0279999996649689e+00 -1.0963895933515926e+03 1.0000000000000000e+00 2.5656335816579023e+00 3.5054879782489290e+00 2.0187637325050563e+01 
1027 1028 2 1.0279999999164204e+00 -1.0964038768674855e+03 1.0000000000000000e+00 2.5748922889351200e+00 3.4989243891107846e+00 2.1539650707910308e+01 
986 987 2 1.0280000001759180e+00 -2.6182125942133207e+03 1.0000000000000000e+00 3.2582612252404060e+00 4.4150784609878873e+00 1.9734413293887492e+01 
982 983 2 1.0279999999611473e+00 -2.3632346599755183e+03 1.0000000000000000e+00 2.1023750119758047e+00 5.4072916018904209e+00 2.0388990957111261e+01 
994 995 2 1.0279999999969693e+00 -2.3632494641203675e+03 1.0000000000000000e+00 2.0740254917252083e+00 5.4044416680646741e+00 2.1373890893037196e+01 
526 527 2 1.0279999999420375e+00 -2.3632249144212083e+03 1.0000000000000000e+00 2.1139241719886734e+00 7.2324740365977265e+00 2.0373870663451882e+01 
538 539 2 1.0279999999851357e+00 -2.3632562062686557e+03 1.0000000000000000e+00 2.0842053186514771e+00 7.2249525358677706e+00 2.1374091279480652e+01 
530 531 2 1.0280000000705927e+00 -2.6182063940771159e+03 1.0000000000000000e+00 3.2597632019883953e+00 8.2337164024939753e+00 1.9730629994783140e+01 
495 496 2 1.0279999999526095e+00 -1.0963766997145262e+03 1.0000000000000000e+00 2.5579208551890580e+00 9.1287108951731781e+00 2.0177276655278295e+01 
571 572 2 1.0279999999863403e+00 -1.0963958956592314e+03 1.0000000000000000e+00 2.5648091281614360e+00 9.1353543823039836e+00 2.1528590876450487e+01 
522 523 2 1.0280000000061387e+00 -2.1732825606732958e+03 1.0000000000000000e+00 1.8983559783670707e+00 1.0828052782181066e+01 1.9712658593983932e+01 
1280 1281 2 1.0280000000052356e+00 3.4491500791941962e+03 1.0000000000000000e+00 2.4565266389854279e+00 1.1346115179363908e+01 2.0336738321217950e+01 
1308 1309 2 1.0280000000017810e+00 3.4491579292571078e+03 1.0000000000000000e+00 2.4641005128067097e+00 1.1345870604335197e+01 2.1452852392663321e+01 
341 342 2 1.0279999999925307e+00 1.4121068121423586e+03 1.0000000000000000e+00 8.5045948236493774e-01 1.3315520813401044e+01 2.1102420262010188e+01 
417 418 2 1.0279999999882454e+00 1.4120653451672438e+03 1.0000000000000000e+00 8.5593706771922029e-01 1.3317291486864793e+01 2.1314077320394492e+01 
998 999 2 1.0280000000160674e+00 -2.1732975258519800e+03 1.0000000000000000e+00 1.9084055082880866e+00 1.8017129001853811e+00 2.2096143197459721e+01 
792 793 2 1.0279999999943670e+00 -2.9384450304953734e+03 1.0000000000000000e+00 1.5529036275886710e+01 8.3186381573288759e-01 2.3380173497288915e+01 
437 438 2 1.0280000000584903e+00 -1.3984918363715187e+03 1.0000000000000000e+00 9.5122277950124157e-01 2.2113724268985009e+00 2.2816291630613268e+01 
1052 1053 2 1.0279999999354179e+00 8.0091180002334477e+02 1.0000000000000000e+00 1.6935727562201275e-01 3.8074679850463342e+00 2.3352117164410934e+01 
990 991 2 1.0280000001452281e+00 -2.6182159389307390e+03 1.0000000000000000e+00 3.2513864321344061e+00 4.4004529559650365e+00 2.1980547926787356e+01 
844 845 2 1.0279999999072340e+00 -3.9637529917783741e+03 1.0000000000000000e+00 2.4853299653888166e+00 5.9226986912696225e+00 2.3243978647563981e+01 
1000 1001 2 1.0280000000161167e+00 6.3675354530739924e+03 1.0000000000000000e+00 2.7280042819594565e+00 4.0612252873239179e+00 2.3409583330592305e+01 
692 693 2 1.0279999999768334e+00 -3.9637915451329072e+03 1.0000000000000000e+00 2.4921332283335058e+00 6.6846841978997800e+00 2.3236995861163006e+01 
596 597 2 1.0280000000114422e+00 8.0090498775898322e+02 1.0000000000000000e+00 1.7942134866669299e-01 8.7667145778580036e+00 2.3325832467476214e+01 
534 535 2 1.0280000000341334e+00 -2.6182137887042622e+03 1.0000000000000000e+00 3.2440261228791987e+00 8.2225859172936442e+00 2.1983735822947178e+01 
544 545 2 1.0279999999828990e+00 6.3675332434878892e+03 1.0000000000000000e+00 2.7258070086498045e+00 8.5511632301924756e+00 2.3408139388310090e+01 
542 543 2 1.0280000000152396e+00 -2.1732944907910828e+03 1.0000000000000000e+00 1.8994611894762834e+00 1.0810175568435691e+01 2.2071639823025805e+01 
1197 1198 2 1.0280000000167226e+00 -1.3984930748573838e+03 1.0000000000000000e+00 9.5847269880690977e-01 1.0358721150114469e+01 2.2794115518812749e+01 
664 665 2 1.0279999999966039e+00 -2.9932406600877266e+03 1.0000000000000000e+00 1.4084572563312552e+01 1.4213694031100918e-01 2.3839572023719665e+01 
484 485 2 1.0279999999969731e+00 3.9015015515197183e+03 1.0000000000000000e+00 1.5906103665178497e+01 1.2589858177124535e+00 2.4966229363420414e+01 
473 474 2 1.0279999999974980e+00 4.4428171137114450e+03 1.0000000000000000e+00 1.6677939769448404e+01 5.1089037159480255e-01 2.5078266181502215e+01 
901 902 2 1.0280000000648108e+00 -1.6839376333511082e+03 1.0000000000000000e+00 2.8401030822412821e-01 2.6648357145330341e+00 2.3887332186128603e+01 
1361 1362 2 1.0279999999673566e+00 2.0826907813012048e+02 1.0000000000000000e+00 2.2489344498611577e-02 5.4212356409658318e+00 2.5125591976813812e+01 
1353 1354 2 1.0279999999947624e+00 5.0170830046535315e+02 1.0000000000000000e+00 1.9119649668574039e+00 4.5724286355360952e+00 2.5326494157917011e+01 
1179 1180 2 1.0280000000456222e+00 -4.6831882642698565e+03 1.0000000000000000e+00 3.1648539798159860e+00 4.5144504818717728e+00 2.3724878971349614e+01 
297 298 2 1.0280000000077023e+00 2.0825710979384445e+02 1.0000000000000000e+00 2.0943631780633146e-02 7.1639170284681697e+00 2.5128570190647189e+01 
749 750 2 1.0280000000046094e+00 -1.6839402055863434e+03 1.0000000000000000e+00 2.9367603111621310e-01 9.8996265505836281e+00 2.3854564454355558e+01 
289 290 2 1.0280000000079426e+00 5.0170457137279629e+02 1.0000000000000000e+00 1.9124946415188102e+00 8.0244302124599436e+00 2.5321932820672945e+01 
419 420 2 1.0280000000469693e+00 -4.6831934698865662e+03 1.0000000000000000e+00 3.1620227598977246e+00 8.0979435840141782e+00 2.3723053272864849e+01 
508 509 2 1.0279999999884204e+00 5.3586230454555807e+03 1.0000000000000000e+00 1.5952103452640984e+01 1.3427410146877075e+00 2.6518368111783463e+01 
180 181 2 1.0280000000004617e+00 9.6703119188853043e+02 1.0000000000000000e+00 1.7500587819044782e+01 1.0064729513522439e+00 2.6241325786321656e+01 
328 329 2 1.0279999999885894e+00 -1.3269834297342547e+02 1.0000000000000000e+00 1.8534974525769577e+01 1.3115395917286082e-01 2.6348808423584121e+01 
325 326 2 1.0280000000137892e+00 -1.3271238731294099e+02 1.0000000000000000e+00 1.9798303483882176e+01 1.2695337436982868e-01 2.6355344037326699e+01 
1349 1350 2 1.0280000001469463e+00 -2.0844578502807093e+02 1.0000000000000000e+00 6.4562184785598065e-01 3.9889710010898733e+00 2.5757809830610761e+01 
1204 1205 2 1.0279999999247440e+00 2.1272048147383493e+03 1.0000000000000000e+00 3.7247164980373443e-01 4.3687785620761517e+00 2.6651716992735444e+01 
1150 1151 2 1.0280000000677165e+00 -4.8404112509390179e+03 1.0000000000000000e+00 2.4745877153920319e+00 5.5335506222394191e+00 2.5509943342770093e+01 
1489 1490 2 1.0279999999754472e+00 3.5107491825001262e+03 1.0000000000000000e+00 2.8765261442678400e+00 5.0604027053721818e+00 2.6791132239360643e+01 
390 391 2 1.0280000000293141e+00 -4.8403900338391213e+03 1.0000000000000000e+00 2.4761445289393920e+00 7.0645492953100826e+00 2.5506219375915315e+01 
121 122 2 1.0279999999811691e+00 3.5107440541433425e+03 1.0000000000000000e+00 2.8752757003715419e+00 7.5362151158848993e+00 2.6788068429119022e+01 
285 286 2 1.0280000000028624e+00 -2.0844921055860510e+02 1.0000000000000000e+00 6.4195439362143891e-01 8.5991765376088960e+00 2.5751493396009607e+01 
444 445 2 1.0279999999971330e+00 2.1272012088617630e+03 1.0000000000000000e+00 3.7274170278245300e-01 8.2225849512086047e+00 2.6647267512748765e+01 
560 561 2 1.0279999999811182e+00 5.3586362548199622e+03 1.0000000000000000e+00 1.5923747381343336e+01 1.3274485871477857e+00 2.7556124735692990e+01 
584 585 2 1.0279999999951512e+00 3.9015177810098294e+03 1.0000000000000000e+00 1.5804559264152994e+01 1.2580405052160724e+00 2.9091521273560094e+01 
280 281 2 1.0280000000102210e+00 9.6705771848838685e+02 1.0000000000000000e+00 1.7486764195681499e+01 9.2903510465750971e-01 2.7948667766658179e+01 
589 590 2 1.0280000000152061e+00 4.4428190164870002e+03 1.0000000000000000e+00 1.6594520177581519e+01 4.4417420162526183e-01 2.8994414068725515e+01 
436 437 2 1.0280000000102545e+00 -1.3458654062223741e+02 1.0000000000000000e+00 1.8566209518159205e+01 1.7146494810939435e-02 2.7959498347149413e+01 
433 434 2 1.0279999999919143e+00 -1.3466074612428042e+02 1.0000000000000000e+00 1.9775825472527917e+01 2.8033699243735520e-02 2.7972628415189966e+01 
1357 1358 2 1.0280000000534075e+00 -6.5429085946217492e+02 1.0000000000000000e+00 1.6365014694335300e+00 4.7338291282672600e+00 2.7477028013801824e+01 
1183 1184 2 1.0279999999855842e+00 -2.3946420004208076e+03 1.0000000000000000e+00 4.1532355500421198e-01 4.7928592451427594e+00 2.9279627436216352e+01 
1004 1005 2 1.0279999999959251e+00 6.7696166829508384e+03 1.0000000000000000e+00 2.3885008670287853e+00 5.5349368888617043e+00 2.7812650030579565e+01 
293 294 2 1.0280000000333254e+00 -6.5429329903172504e+02 1.0000000000000000e+00 1.6385570357331281e+00 7.8595229631253591e+00 2.7472516893828377e+01 
423 424 2 1.0279999999881964e+00 -2.3946491493716339e+03 1.0000000000000000e+00 4.1684678492962790e-01 7.7977308526926619e+00 2.9281483492432969e+01 
548 549 2 1.0279999999967875e+00 6.7696089931899642e+03 1.0000000000000000e+00 2.3846532916605732e+00 7.0549107829707367e+00 2.7809326937416312e+01 
708 709 2 1.0280000000137328e+00 -2.9932383698084450e+03 1.0000000000000000e+00 1.3956683175436382e+01 1.7566647871047342e-01 3.0113513231966873e+01 
884 885 2 1.0279999999941527e+00 -2.9384385372125962e+03 1.0000000000000000e+00 1.5385133902833987e+01 8.8426867596674730e-01 3.0662230584199207e+01 
402 403 2 1.0279999999992404e+00 -4.7476594735258332e+03 1.0000000000000000e+00 1.6102170473288663e+01 6.5484088370838175e-03 3.1071987964057186e+01 
1319 1320 2 1.0280000000514022e+00 3.3647304676948920e+02 1.0000000000000000e+00 5.4899288531284007e-01 4.9048170023386213e+00 2.9434143687138757e+01 
1481 1482 2 1.0280000000024172e+00 3.4177309789651499e+03 1.0000000000000000e+00 1.4225825652489681e+00 5.1351269544633285e+00 3.0994352057213352e+01 
1483 1484 2 1.0279999999971177e+00 -5.0616717678524910e+03 1.0000000000000000e+00 1.7151958429677014e+00 5.3297469279217102e+00 3.1319162501995127e+01 
255 256 2 1.0280000000284408e+00 3.3647519569726506e+02 1.0000000000000000e+00 5.5020837866881511e-01 7.6854089084199870e+00 2.9434986689439171e+01 
113 114 2 1.0280000000051799e+00 3.4177157570377904e+03 1.0000000000000000e+00 1.4229898067237705e+00 7.4541012039157870e+00 3.0996399576507258e+01 
115 116 2 1.0279999999999510e+00 -5.0616956673585955e+03 1.0000000000000000e+00 1.7162066946806793e+00 7.2591922335771519e+00 3.1321130773588926e+01 
414 415 2 1.0279999999979421e+00 -4.4818069923609200e+03 1.0000000000000000e+00 2.9771049559872860e+00 6.4682922350304812e+00 3.0348863149792095e+01 
1174 1175 2 1.0279999999973475e+00 -4.4818111984550324e+03 1.0000000000000000e+00 2.9778548710818855e+00 6.1225729857930711e+00 3.0350000391825713e+01 
287 288 2 1.0280000000263991e+00 9.7736232629530855e+02 1.0000000000000000e+00 1.9324837861638219e+01 1.0318931017058719e-01 3.2196459291569340e+01 
286 287 2 1.0280000000267056e+00 9.7734832213199843e+02 1.0000000000000000e+00 1.9009005207982025e+01 1.0172522418931526e-01 3.2199693924390971e+01 
267 268 2 1.0279999999689291e+00 -2.5568566294094428e+01 1.0000000000000000e+00 1.9186175448774112e+01 3.5451802087056583e-01 3.3894553464918488e+01 
266 267 2 1.0279999999689275e+00 -2.5568482349250772e+01 1.0000000000000000e+00 1.9186174511078331e+01 3.5451803236161739e-01 3.3894553473811371e+01 
840 841 2 1.0279999999999943e+00 -3.6913029045250460e+03 1.0000000000000000e+00 1.4493741452574449e+01 1.7349481889506170e-02 6.3914771586384354e+01 
688 689 2 1.0279999999999934e+00 -3.6912986778802742e+03 1.0000000000000000e+00 1.4493885417875106e+01 1.9127202728707843e-01 6.3914406548405090e+01 
107 108 2 1.0280000000000011e+00 -4.7257986913722343e+03 1.0000000000000000e+00 1.5784903706857099e+01 1.0538381871564908e+00 6.4565708126246292e+01 
87 88 2 1.0280000000000040e+00 -3.9360623327517160e+03 1.0000000000000000e+00 1.5625308855091069e+01 1.9807347957463697e+00 6.5214868602762721e+01 
79 80 2 1.0279999999999907e+00 -4.0875999035817658e+03 1.0000000000000000e+00 1.4959060433499989e+01 1.7725956215700229e+00 6.5874731572032189e+01 
909 910 2 1.0279999999999805e+00 1.5118464037126778e+03 1.0000000000000000e+00 1.7695250396633021e+01 1.0537834756808682e-01 6.5006297968949156e+01 
757 758 2 1.0280000000000176e+00 1.5118464111681469e+03 1.0000000000000000e+00 1.7695269634420207e+01 1.0842017642650374e-01 6.5006291559857317e+01 
742 743 2 1.0280000000000054e+00 1.0820565126138208e+03 1.0000000000000000e+00 1.8174500805396530e+01 2.2361196581379734e+00 6.5613863532912802e+01 
896 897 2 1.0280000000000027e+00 7.3780535014217276e+02 1.0000000000000000e+00 1.8175674403992403e+01 2.2358820680319798e+00 6.5614213642548052e+01 
1449 1450 2 1.0279999999999940e+00 3.8573767648738803e+03 1.0000000000000000e+00 1.3678275440039299e+01 1.2621277634306027e+00 6.8019722460867655e+01 
111 112 2 1.0280000000000005e+00 -3.6656777457899893e+03 1.0000000000000000e+00 1.4870630314008281e+01 1.8086885304572071e+00 6.7183106580328797e+01 
767 768 2 1.0280000000000089e+00 7.9096833845911846e+01 1.0000000000000000e+00 1.6686213196222390e+01 8.2316741538300575e-01 6.6667438490585340e+01 
1509 1510 2 1.0279999999999947e+00 -2.9733384622289614e+03 1.0000000000000000e+00 1.7020396950208848e+01 1.7754269736277242e+00 6.6723449486854875e+01 
393 394 2 1.0280000000000056e+00 1.4864045264039441e+03 1.0000000000000000e+00 1.4428753682774875e+01 3.1281267699248572e+00 6.8141898151052260e+01 
566 567 2 1.0280000000000136e+00 -6.8965957547684843e+02 1.0000000000000000e+00 1.4193925431588045e+01 3.0057969027106393e+00 6.8156140678215436e+01 
846 847 2 1.0280000000000060e+00 1.7495362049686796e+03 1.0000000000000000e+00 1.6507113719230794e+01 3.3010039226982406e+00 6.8192577348096890e+01 
93 94 2 1.0280000000000109e+00 3.3625548470360131e+03 1.0000000000000000e+00 1.6556911806199007e+01 2.7168951922700506e+00 6.8497895017522737e+01 
235 236 2 1.0280000000000058e+00 -1.7482912936276171e+02 1.0000000000000000e+00 1.3692635444265100e+01 6.9774584724306910e-01 6.8690407936559680e+01 
1322 1323 2 1.0280000000000049e+00 1.3811018980705481e+02 1.0000000000000000e+00 1.6702919454719382e+01 1.3198051303194164e-01 6.9409642168976774e+01 
258 259 2 1.0279999999999982e+00 1.3814734391141135e+02 1.0000000000000000e+00 1.6703185847643404e+01 9.0163211632379545e-02 6.9409984986885576e+01 
123 124 2 1.0280000000000089e+00 -5.5694052856777416e+03 1.0000000000000000e+00 1.7250410375742199e+01 1.7412377679083280e+00 7.0138838535458305e+01 
1307 1308 2 1.0279999999999969e+00 -1.6125829575814265e+01 1.0000000000000000e+00 1.7988579466397169e+01 2.8150627752700226e+00 7.0158218262418671e+01 
850 851 2 1.0280000000000091e+00 9.6761780421303774e+02 1.0000000000000000e+00 1.6369651190353213e+01 4.1697599033235608e+00 6.9659417398598535e+01 
389 390 2 1.0279999999999920e+00 2.0526113535277641e+03 1.0000000000000000e+00 1.6343350454193473e+01 4.1491918685465583e+00 6.9673049503036040e+01 
103 104 2 1.0279999999999900e+00 -4.8776593122949162e+03 1.0000000000000000e+00 2.7782165757611299e+00 2.4371772313548387e-01 7.2022217642895342e+01 
1311 1312 2 1.0280000000000027e+00 -1.4033413208814113e+02 1.0000000000000000e+00 1.7857949391397849e+01 3.5315362585560123e-01 7.1163131466711533e+01 
728 729 2 1.0279999999999896e+00 -4.7770322036447033e+03 1.0000000000000000e+00 1.8305011830824650e+01 2.4214858680418483e+00 7.0670574787446000e+01 
301 302 2 1.0280000000000009e+00 -7.1491030572023624e+02 1.0000000000000000e+00 8.4896415649842660e-01 1.1703168454079060e+00 7.3701578931895199e+01 
453 454 2 1.0280000000000127e+00 -4.4354631533110532e+03 1.0000000000000000e+00 1.1985108273983593e+00 4.7606176197273609e-01 7.3832419122381609e+01 
866 867 2 1.0279999999999994e+00 1.4969990653716848e+03 1.0000000000000000e+00 3.3439061402756596e+00 1.0049451688753901e+00 7.2662392222812088e+01 
721 722 2 1.0279999999999996e+00 -3.2770981899104472e+03 1.0000000000000000e+00 3.6344855783025718e+00 6.8884370942294260e-01 7.3287345941138454e+01 
1335 1336 2 1.0279999999999936e+00 3.2270692194326068e+02 1.0000000000000000e+00 1.8421119573847605e+01 1.5473485932607480e+00 7.2713488803360562e+01 
1251 1252 2 1.0279999999999967e+00 3.2259094476590798e+02 1.0000000000000000e+00 1.8415082141032830e+01 1.5471328547506353e+00 7.3132133721787739e+01 
406 407 2 1.0279999999999974e+00 -5.0822319196310018e+03 1.0000000000000000e+00 4.3587507665067911e+00 2.8257972626445902e+00 7.4207825181524910e+01 
410 411 2 1.0280000000000002e+00 -5.3894844264499043e+03 1.0000000000000000e+00 4.7339897243706544e+00 2.5979578538653132e+00 7.4487456373784667e+01 
136 137 2 1.0279999999999816e+00 2.1410385504670880e+03 1.0000000000000000e+00 1.6222261278909378e-01 1.6663861500099035e+00 7.4915908734998254e+01 
139 140 2 1.0280000000000098e+00 -2.3595772875031616e+03 1.0000000000000000e+00 1.7036418574979886e+00 8.5024532138181075e-01 7.5454064077725860e+01 
290 291 2 1.0280000000000069e+00 -9.4506585420149145e+02 1.0000000000000000e+00 1.8790066683056000e-01 9.0878851152176909e-01 7.5737513293896939e+01 
143 144 2 1.0280000000000034e+00 -2.2985126915667952e+03 1.0000000000000000e+00 3.4004324133914849e+00 8.5132299695540736e-01 7.5005214150786969e+01 
607 608 2 1.0279999999999905e+00 -2.3745685976692621e+03 1.0000000000000000e+00 3.3574807843301131e+00 8.4410142805023769e-01 7.5540695853713785e+01 
442 443 2 1.0280000000000056e+00 -3.0909051659232373e+03 1.0000000000000000e+00 7.3907211428046686e+00 9.6261814575498494e-01 7.6225695773962101e+01 
599 600 2 1.0279999999999982e+00 -2.5429841471182081e+03 1.0000000000000000e+00 7.5462660166357303e+00 1.0205850623763024e+00 7.6384290629872865e+01 
409 410 2 1.0279999999999865e+00 1.8876665319669924e+03 1.0000000000000000e+00 1.0401356310145815e+01 1.5881682971402505e-01 7.5578787898335122e+01 
101 102 2 1.0280000000000080e+00 2.7765629973898867e+03 1.0000000000000000e+00 1.0085377487213650e+01 1.1151292966661930e+00 7.5717264939561943e+01 
1275 1276 2 1.0279999999999931e+00 -1.3865242592347073e+02 1.0000000000000000e+00 1.7644593759908137e+01 2.4969685964403035e-01 7.4568664273566668e+01 
31 32 2 1.0280000000000080e+00 -5.5690703765422986e+03 1.0000000000000000e+00 1.6800873575854951e+01 1.7063869166947572e+00 7.5538099620313943e+01 
1262 1263 2 1.0279999999999976e+00 1.3704693887148872e+02 1.0000000000000000e+00 1.6178921877767461e+01 1.4344209367220709e-01 7.6215582954553284e+01 
198 199 2 1.0280000000000016e+00 1.3704146930284301e+02 1.0000000000000000e+00 1.6178884253798490e+01 6.5241056652863436e-02 7.6215740702588079e+01 
238 239 2 1.0279999999999978e+00 3.1852014804711735e+02 1.0000000000000000e+00 6.0196993075944381e+00 3.7056943176281671e+00 7.4882447517182626e+01 
129 130 2 1.0279999999999996e+00 3.9766750190614357e+03 1.0000000000000000e+00 7.4906113768047877e+00 3.5008961530165243e+00 7.5190039937430583e+01 
131 132 2 1.0280000000000002e+00 -4.4959869748870933e+03 1.0000000000000000e+00 7.6674698932403551e+00 3.3899891760440424e+00 7.5251291308392155e+01 
862 863 2 1.0280000000000018e+00 9.5213278053694080e+02 1.0000000000000000e+00 9.2363586330646648e+00 2.4753057515479875e+00 7.5089282879397672e+01 
405 406 2 1.0279999999999831e+00 1.3995768489568422e+03 1.0000000000000000e+00 9.5364194975139736e+00 2.3267609896391961e+00 7.5192499244029818e+01 
644 645 2 1.0280000000000011e+00 -4.7753037759391646e+03 1.0000000000000000e+00 1.7647596826249231e+01 2.3820813546700954e+00 7.4994233762552057e+01 
1279 1280 2 1.0280000000000100e+00 -1.5083149039605523e+01 1.0000000000000000e+00 1.7470015980751494e+01 2.9400936137661615e+00 7.5415668326203033e+01 
263 264 2 1.0279999999999927e+00 -3.2936216276148997e+01 1.0000000000000000e+00 3.9928385338511230e-01 5.6393623885226507e+00 7.5412696395989315e+01 
150 151 2 1.0279999999999831e+00 -7.6382507790172508e+02 1.0000000000000000e+00 1.7890751415305908e-01 5.2784689727858183e+00 7.5460003959072381e+01 
251 252 2 1.0279999999999947e+00 1.6199823183761680e+02 1.0000000000000000e+00 3.3706176010284103e+00 4.6057336717907251e+00 7.4640893662833193e+01 
720 721 2 1.0279999999999940e+00 -2.9642223203531321e+03 1.0000000000000000e+00 3.2278870349545929e+00 4.4993149905316274e+00 7.4867797729906400e+01 
125 126 2 1.0280000000000080e+00 2.2239878778927500e+03 1.0000000000000000e+00 2.2320152551772399e+00 5.9967874805834747e+00 7.5532085131912183e+01 
278 279 2 1.0280000000000029e+00 1.3136517320011051e+03 1.0000000000000000e+00 5.0914375040638564e+00 4.1554655002748397e+00 7.4821340389334665e+01 
369 370 2 1.0280000000000011e+00 2.0526959992672905e+03 1.0000000000000000e+00 1.6164585070735349e+01 4.4475252320370178e+00 7.6066346825429264e+01 
822 823 2 1.0280000000000054e+00 9.6772977875513379e+02 1.0000000000000000e+00 1.6194998691311444e+01 4.4666618464721068e+00 7.6081819358049188e+01 
275 276 2 1.0280000000000116e+00 3.3647220467608304e+02 1.0000000000000000e+00 2.2016173408251398e+00 6.0269491507787274e+00 7.5487193000293189e+01 
454 455 2 1.0280000000000014e+00 -2.4200003738237820e+03 1.0000000000000000e+00 1.6051225502827664e+00 1.7858373829132945e+00 7.7250050754359151e+01 
733 734 2 1.0279999999999889e+00 -2.0519282975507940e+03 1.0000000000000000e+00 1.2159437978539098e-01 1.2016967935018048e+00 7.7441413402158972e+01 
603 604 2 1.0279999999999825e+00 -1.5436782717859348e+03 1.0000000000000000e+00 2.5965396653674553e+00 1.5504298993910426e-01 7.7033241440746622e+01 
1061 1062 2 1.0280000000000062e+00 2.3367509306898523e+03 1.0000000000000000e+00 2.8604238259239678e+00 1.5706170233725043e+00 7.7606140405040662e+01 
580 581 2 1.0279999999999885e+00 3.6142404327898603e+03 1.0000000000000000e+00 8.9988236855007244e+00 5.3018577920594123e-01 7.7233589066188088e+01 
882 883 2 1.0279999999999994e+00 1.7455010963886348e+03 1.0000000000000000e+00 9.9159075054861727e+00 3.2234445374838555e-01 7.7896438705423364e+01 
223 224 2 1.0280000000000031e+00 -1.7481321832456206e+02 1.0000000000000000e+00 1.3792303077613790e+01 6.6443776691933754e-01 7.6581270391119091e+01 
1437 1438 2 1.0279999999999954e+00 3.8578663430109509e+03 1.0000000000000000e+00 1.3803251046991370e+01 1.3238053931307554e+00 7.7257920691621052e+01 
43 44 2 1.0279999999999940e+00 -3.6662035112980307e+03 1.0000000000000000e+00 1.4650548015462077e+01 1.8219407127035161e+00 7.8232136212691842e+01 
575 576 2 1.0279999999999974e+00 -5.9274493074161160e+02 1.0000000000000000e+00 2.2661990168626395e-01 2.8315853400112769e+00 7.7736210438798338e+01 
498 499 2 1.0280000000000089e+00 -6.8968580989094357e+02 1.0000000000000000e+00 1.4167099382162055e+01 3.1438737851125516e+00 7.7359170201792523e+01 
365 366 2 1.0280000000000136e+00 1.4861635498279302e+03 1.0000000000000000e+00 1.4403718803395257e+01 3.3171855766028879e+00 7.7391013722818002e+01 
57 58 2 1.0280000000000058e+00 3.3609112794240091e+03 1.0000000000000000e+00 1.6467412821363936e+01 2.9174753744615143e+00 7.7166805821345349e+01 
826 827 2 1.0280000000000042e+00 1.7489628800228211e+03 1.0000000000000000e+00 1.6412892971032878e+01 3.4672664998675482e+00 7.7469093421895181e+01 