LAMMPS data file via write_data, version 30 Jul 2016, timestep = 50400000

1520 atoms
8 atom types

0.0000000000000000e+00 4.0000000000000000e+01 xlo xhi
0.0000000000000000e+00 4.0000000000000000e+01 ylo yhi
0.0000000000000000e+00 1.0000000000000000e+02 zlo zhi

Masses

1 3.896
2 5.36
3 20.064
4 8.378
5 8.378
6 8.378
7 8.378
8 8.378

Atoms # meso-molecular

1407 1408 2 1.0280000000024965e+00 -5.0616784171835207e+03 1.0000000000000000e+00 1.7584044707935016e+00 5.3512779645643578e+00 8.4311651399229675e+00 
1405 1406 2 1.0279999999859222e+00 3.4176940773959941e+03 1.0000000000000000e+00 1.4435227896718685e+00 5.1631357868321519e+00 8.7651465795869434e+00 
39 40 2 1.0279999999976173e+00 -5.0616632997244906e+03 1.0000000000000000e+00 1.7572084401517187e+00 7.2754390786099732e+00 8.4292987218132005e+00 
37 38 2 1.0280000000136995e+00 3.4177056388045785e+03 1.0000000000000000e+00 1.4432425549524850e+00 7.4638867474062343e+00 8.7610842395209474e+00 
346 347 2 1.0280000000005483e+00 -4.4819044536365473e+03 1.0000000000000000e+00 3.0175818337064069e+00 6.4916661694267761e+00 9.3923138174757561e+00 
1106 1107 2 1.0280000000034653e+00 -4.4819055944283336e+03 1.0000000000000000e+00 3.0176770843710559e+00 6.1353926864559858e+00 9.3929130943890655e+00 
1267 1268 2 1.0279999999285721e+00 3.3648189118955969e+02 1.0000000000000000e+00 5.6559214632755428e-01 4.9547069536234298e+00 1.0321554347207021e+01 
1099 1100 2 1.0280000000125564e+00 -2.3946544151739181e+03 1.0000000000000000e+00 4.3018283148620129e-01 4.8441991380402856e+00 1.0467612405795650e+01 
203 204 2 1.0279999999838456e+00 3.3648162039766157e+02 1.0000000000000000e+00 5.6385207292924777e-01 7.6727596834217948e+00 1.0315986054844229e+01 
339 340 2 1.0280000000161658e+00 -2.3946468025990653e+03 1.0000000000000000e+00 4.2746849982861873e-01 7.7836704731601101e+00 1.0463248801327133e+01 
1225 1226 2 1.0279999999222011e+00 -6.5429125366023436e+02 1.0000000000000000e+00 1.6029582817105510e+00 4.7634743363027958e+00 1.2238772495115388e+01 
1080 1081 2 1.0280000001102030e+00 2.1271863376215606e+03 1.0000000000000000e+00 3.6718006549709015e-01 4.3737339962304871e+00 1.3087326950696404e+01 
976 977 2 1.0280000000203970e+00 6.7694361732965826e+03 1.0000000000000000e+00 2.3811095166771516e+00 5.5637424333411483e+00 1.1912011222860503e+01 
1397 1398 2 1.0280000000078662e+00 3.5107414202370151e+03 1.0000000000000000e+00 2.8371793774501093e+00 5.0709371934110195e+00 1.2947523682980201e+01 
161 162 2 1.0279999999789735e+00 -6.5429250880243308e+02 1.0000000000000000e+00 1.6010858255610285e+00 7.8678495359721738e+00 1.2235924370937349e+01 
520 521 2 1.0280000000123786e+00 6.7694309355750929e+03 1.0000000000000000e+00 2.3801895673529905e+00 7.0694055161599900e+00 1.1907856086679367e+01 
29 30 2 1.0279999999965141e+00 3.5107278912332367e+03 1.0000000000000000e+00 2.8337550042132311e+00 7.5629417815526692e+00 1.2942783619883082e+01 
320 321 2 1.0280000000155942e+00 2.1271865462280803e+03 1.0000000000000000e+00 3.6672950943328042e-01 8.2583377258567019e+00 1.3085324427625252e+01 
1233 1234 2 1.0279999998097074e+00 -2.0846721287747869e+02 1.0000000000000000e+00 6.3676405441233441e-01 4.0053884620152900e+00 1.4005625737375432e+01 
1229 1230 2 1.0280000000450054e+00 5.0167610948702804e+02 1.0000000000000000e+00 1.8920046798935637e+00 4.5928025264432808e+00 1.4419564484809198e+01 
1221 1222 2 1.0280000000308096e+00 2.0823872046054328e+02 1.0000000000000000e+00 1.9679162311183513e-02 5.4260494908415815e+00 1.4620899279898522e+01 
1130 1131 2 1.0279999999337199e+00 -4.8405628618276351e+03 1.0000000000000000e+00 2.4323505857208283e+00 5.5564113722509658e+00 1.4219079838303438e+01 
157 158 2 1.0279999999869418e+00 2.0823149365137493e+02 1.0000000000000000e+00 1.6122538548283133e-02 7.1991783780432037e+00 1.4614228842607611e+01 
370 371 2 1.0279999999654890e+00 -4.8405750122314366e+03 1.0000000000000000e+00 2.4305558689286286e+00 7.0767175675053675e+00 1.4215044236133872e+01 
169 170 2 1.0280000000054099e+00 -2.0846709240981448e+02 1.0000000000000000e+00 6.3482856345086669e-01 8.6264862282399228e+00 1.4003703605887395e+01 
165 166 2 1.0280000000495018e+00 5.0167383979635440e+02 1.0000000000000000e+00 1.8900633505950120e+00 8.0405769244397227e+00 1.4423174821450781e+01 
769 770 2 1.0280000000015448e+00 -1.6839310015385040e+03 1.0000000000000000e+00 2.9367170312777352e-01 2.7083620764406362e+00 1.5958902242940088e+01 
928 929 2 1.0279999999538507e+00 8.0089134456318720e+02 1.0000000000000000e+00 1.8175430494477407e-01 3.8296818960933137e+00 1.6467386135883750e+01 
321 322 2 1.0280000001755389e+00 -1.3984810707827903e+03 1.0000000000000000e+00 9.6419738682157341e-01 2.2544956173022950e+00 1.7031502053864084e+01 
1103 1104 2 1.0279999999803699e+00 -4.6832299474562424e+03 1.0000000000000000e+00 3.1965835312803890e+00 4.5306641429544960e+00 1.6018586395969720e+01 
980 981 2 1.0279999998219767e+00 6.3675255223930781e+03 1.0000000000000000e+00 2.7675015322716368e+00 4.0776573347397020e+00 1.6332939272472721e+01 
832 833 2 1.0280000000087366e+00 -3.9636828589332654e+03 1.0000000000000000e+00 2.5767992921630727e+00 5.9262238340811813e+00 1.6529344005055670e+01 
680 681 2 1.0279999999119136e+00 -3.9636977238751997e+03 1.0000000000000000e+00 2.5889722109281119e+00 6.7104932862979529e+00 1.6526044806473823e+01 
617 618 2 1.0279999999907392e+00 -1.6839330630577324e+03 1.0000000000000000e+00 2.8846978344019836e-01 9.9332718397515567e+00 1.5931683736243896e+01 
472 473 2 1.0280000000098208e+00 8.0089256712835834e+02 1.0000000000000000e+00 1.6962626790899676e-01 8.8000803447836891e+00 1.6450849830870112e+01 
343 344 2 1.0280000000079490e+00 -4.6832429993101896e+03 1.0000000000000000e+00 3.1839047293717155e+00 8.1128915029580941e+00 1.6007383651541577e+01 
524 525 2 1.0280000000154021e+00 6.3675260331219833e+03 1.0000000000000000e+00 2.7541755043902572e+00 8.5652336848884403e+00 1.6328491807773052e+01 
1081 1082 2 1.0280000000178380e+00 -1.3984804518896954e+03 1.0000000000000000e+00 9.4513435192615669e-01 1.0397634012357132e+01 1.7006414232384738e+01 
978 979 2 1.0279999999549805e+00 -2.1732874594172126e+03 1.0000000000000000e+00 1.9002694861446143e+00 1.8211558516292368e+00 1.7763289572572287e+01 
216 217 2 1.0279999998626488e+00 3.4491494174123009e+03 1.0000000000000000e+00 2.4841462180845544e+00 1.2891371764875243e+00 1.8382332577194585e+01 
244 245 2 1.0280000002498013e+00 3.4491572702759304e+03 1.0000000000000000e+00 2.4708674440298295e+00 1.2914210588036674e+00 1.9516010957937876e+01 
951 952 2 1.0279999997020473e+00 -1.0963895933515926e+03 1.0000000000000000e+00 2.5656741703250665e+00 3.5061088467864399e+00 1.8213820921311690e+01 
1027 1028 2 1.0279999999243157e+00 -1.0964038768674855e+03 1.0000000000000000e+00 2.5749340923563060e+00 3.4995466847093120e+00 1.9565821738180123e+01 
986 987 2 1.0280000001553700e+00 -2.6182125942133207e+03 1.0000000000000000e+00 3.2583027942808878e+00 4.4156969202032625e+00 1.7760586234596779e+01 
982 983 2 1.0279999999650231e+00 -2.3632346599755183e+03 1.0000000000000000e+00 2.1024167075876368e+00 5.4079147753323564e+00 1.8415157279132639e+01 
994 995 2 1.0279999999974905e+00 -2.3632494641203675e+03 1.0000000000000000e+00 2.0740671361057443e+00 5.4050671881476200e+00 1.9400054550044466e+01 
526 527 2 1.0279999999476279e+00 -2.3632249144212083e+03 1.0000000000000000e+00 2.1139675166475578e+00 7.2330999047920033e+00 1.8400029876839497e+01 
538 539 2 1.0279999999875884e+00 -2.3632562062686557e+03 1.0000000000000000e+00 2.0842486945128793e+00 7.2255794803778084e+00 1.9400248643872057e+01 
530 531 2 1.0280000000637122e+00 -2.6182063940771159e+03 1.0000000000000000e+00 3.2598074442672962e+00 8.2343426010732479e+00 1.7756788433893320e+01 
495 496 2 1.0279999999569369e+00 -1.0963766997145262e+03 1.0000000000000000e+00 2.5579640406087654e+00 9.1293387783594184e+00 1.8203433531428502e+01 
571 572 2 1.0279999999887535e+00 -1.0963958956592314e+03 1.0000000000000000e+00 2.5648526699885958e+00 9.1359842267462952e+00 1.9554744577346430e+01 
522 523 2 1.0280000000056158e+00 -2.1732825606732958e+03 1.0000000000000000e+00 1.8984013382573319e+00 1.0828682509226233e+01 1.7738811732580590e+01 
1280 1281 2 1.0280000000047762e+00 3.4491500791941962e+03 1.0000000000000000e+00 2.4565720585852064e+00 1.1346746297980035e+01 1.8362890301860197e+01 
1308 1309 2 1.0280000000016432e+00 3.4491579292571078e+03 1.0000000000000000e+00 2.4641457618296387e+00 1.1346502944359813e+01 1.9479003756554331e+01 
341 342 2 1.0279999999927620e+00 1.4121068121423586e+03 1.0000000000000000e+00 8.5050363848368049e-01 1.3316156053779697e+01 1.9128565081254305e+01 
417 418 2 1.0279999999888345e+00 1.4120653451672438e+03 1.0000000000000000e+00 8.5598113768029227e-01 1.3317926723444716e+01 1.9340221990714916e+01 
998 999 2 1.0280000000145042e+00 -2.1732975258519800e+03 1.0000000000000000e+00 1.9084503477396473e+00 1.8023315733539975e+00 2.0122349557176243e+01 
792 793 2 1.0279999999950535e+00 -2.9384450304953734e+03 1.0000000000000000e+00 1.5529121018174369e+01 8.3208408677806556e-01 2.1407317504144274e+01 
437 438 2 1.0280000000522456e+00 -1.3984918363715187e+03 1.0000000000000000e+00 9.5126973423756378e-01 2.2120002501625162e+00 2.0842493087549464e+01 
1052 1053 2 1.0279999999415028e+00 8.0091180002334477e+02 1.0000000000000000e+00 1.6940041255196181e-01 3.8081030693461431e+00 2.1378302288786980e+01 
990 991 2 1.0280000001313310e+00 -2.6182159389307390e+03 1.0000000000000000e+00 3.2514325152585593e+00 4.4010775792164871e+00 2.0006712160978502e+01 
844 845 2 1.0279999999144958e+00 -3.9637529917783741e+03 1.0000000000000000e+00 2.4853742265362131e+00 5.9233310392199403e+00 2.1270137495659462e+01 
1000 1001 2 1.0280000000180285e+00 6.3675354530739924e+03 1.0000000000000000e+00 2.7280472264393905e+00 4.0618549148912955e+00 2.1435748779563763e+01 
692 693 2 1.0279999999806821e+00 -3.9637915451329072e+03 1.0000000000000000e+00 2.4921772824994721e+00 6.6853146907177523e+00 2.1263152314270698e+01 
596 597 2 1.0280000000102159e+00 8.0090498775898322e+02 1.0000000000000000e+00 1.7946654295944978e-01 8.7673499070057144e+00 2.1351986998484588e+01 
534 535 2 1.0280000000300693e+00 -2.6182137887042622e+03 1.0000000000000000e+00 3.2440705218692298e+00 8.2232159076339926e+00 2.0009890133161107e+01 
544 545 2 1.0279999999841121e+00 6.3675332434878892e+03 1.0000000000000000e+00 2.7258511226546758e+00 8.5517959210130226e+00 2.1434293212777082e+01 
542 543 2 1.0280000000137026e+00 -2.1732944907910828e+03 1.0000000000000000e+00 1.8995060059756292e+00 1.0810808665029114e+01 2.0097791463783814e+01 
1197 1198 2 1.0280000000148732e+00 -1.3984930748573838e+03 1.0000000000000000e+00 9.5851703272674382e-01 1.0359356618238648e+01 2.0820267068890548e+01 
664 665 2 1.0279999999969711e+00 -2.9932406600877266e+03 1.0000000000000000e+00 1.4084656986571773e+01 1.4235953544475563e-01 2.1866714198286370e+01 
484 485 2 1.0279999999970171e+00 3.9015015515197183e+03 1.0000000000000000e+00 1.5906187181254065e+01 1.2592035446792327e+00 2.2993375366273874e+01 
473 474 2 1.0279999999970852e+00 4.4428171137114450e+03 1.0000000000000000e+00 1.6678022786067579e+01 5.1110773457643910e-01 2.3105412539011876e+01 
901 902 2 1.0280000000588678e+00 -1.6839376333511082e+03 1.0000000000000000e+00 2.8405740097100829e-01 2.6654684625632719e+00 2.1913527679235777e+01 
1361 1362 2 1.0279999999697416e+00 2.0826907813012048e+02 1.0000000000000000e+00 2.2532886372982133e-02 5.4218770208281493e+00 2.3151749732697159e+01 
1353 1354 2 1.0279999999946421e+00 5.0170830046535315e+02 1.0000000000000000e+00 1.9120111103647528e+00 4.5730679262073650e+00 2.3352651257150679e+01 
1179 1180 2 1.0280000000416636e+00 -4.6831882642698565e+03 1.0000000000000000e+00 3.1648990501626351e+00 4.5150825241735122e+00 2.1751043303413475e+01 
297 298 2 1.0280000000070402e+00 2.0825710979384445e+02 1.0000000000000000e+00 2.0988113255479959e-02 7.1645583190068987e+00 2.3154723372888306e+01 
749 750 2 1.0280000000039182e+00 -1.6839402055863434e+03 1.0000000000000000e+00 2.9372074395979514e-01 9.9002632084260096e+00 2.1880717088626753e+01 
289 290 2 1.0280000000064291e+00 5.0170457137279629e+02 1.0000000000000000e+00 1.9125397332516270e+00 8.0250723028311590e+00 2.3348085221069919e+01 
419 420 2 1.0280000000425247e+00 -4.6831934698865662e+03 1.0000000000000000e+00 3.1620681266337183e+00 8.0985768852267341e+00 2.1749208032757384e+01 
508 509 2 1.0279999999898508e+00 5.3586230454555807e+03 1.0000000000000000e+00 1.5952186144843328e+01 1.3429561544919648e+00 2.4545515462612663e+01 
180 181 2 1.0280000000000897e+00 9.6703119188853043e+02 1.0000000000000000e+00 1.7500669625703633e+01 1.0066878562322890e+00 2.4268473809572274e+01 
328 329 2 1.0279999999895126e+00 -1.3269834297342547e+02 1.0000000000000000e+00 1.8535055505237498e+01 1.3136738314632163e-01 2.4375958611341357e+01 
325 326 2 1.0280000000127931e+00 -1.3271238731294099e+02 1.0000000000000000e+00 1.9798383886242455e+01 1.2716573622780175e-01 2.4382495801922737e+01 
1349 1350 2 1.0280000001368581e+00 -2.0844578502807093e+02 1.0000000000000000e+00 6.4566673099371741e-01 3.9896073862715471e+00 2.3783968803830341e+01 
1204 1205 2 1.0279999999300187e+00 2.1272048147383493e+03 1.0000000000000000e+00 3.7251511102702489e-01 4.3694205884970181e+00 2.4677874056443478e+01 
1150 1151 2 1.0280000000627598e+00 -4.8404112509390179e+03 1.0000000000000000e+00 2.4746348864353407e+00 5.5341914671839429e+00 2.3536098353813916e+01 
1489 1490 2 1.0279999999774079e+00 3.5107491825001262e+03 1.0000000000000000e+00 2.8765727755280759e+00 5.0610454785911099e+00 2.4817287615795969e+01 
390 391 2 1.0280000000273046e+00 -4.8403900338391213e+03 1.0000000000000000e+00 2.4761908520226159e+00 7.0651910531078483e+00 2.3532372313196113e+01 
121 122 2 1.0279999999829887e+00 3.5107440541433425e+03 1.0000000000000000e+00 2.8753218814287735e+00 7.5368585898398326e+00 2.4814221079218640e+01 
285 286 2 1.0280000000028449e+00 -2.0844921055860510e+02 1.0000000000000000e+00 6.4199885586321315e-01 8.5998196434630625e+00 2.3777645212613038e+01 
444 445 2 1.0279999999975478e+00 2.1272012088617630e+03 1.0000000000000000e+00 3.7278601141060180e-01 8.2232286918040884e+00 2.4673418944419989e+01 
560 561 2 1.0279999999832887e+00 5.3586362548199622e+03 1.0000000000000000e+00 1.5923829591783056e+01 1.3276624520585567e+00 2.5583272143802120e+01 
584 585 2 1.0279999999958029e+00 3.9015177810098294e+03 1.0000000000000000e+00 1.5804640624652063e+01 1.2582534334461426e+00 2.7118669009549741e+01 
280 281 2 1.0280000000093785e+00 9.6705771848838685e+02 1.0000000000000000e+00 1.7486845744935195e+01 9.2924916138169478e-01 2.5975816211926080e+01 
589 590 2 1.0280000000131990e+00 4.4428190164870002e+03 1.0000000000000000e+00 1.6594601589584475e+01 4.4438726537320078e-01 2.7021562249229433e+01 
436 437 2 1.0280000000092608e+00 -1.3458654062223741e+02 1.0000000000000000e+00 1.8566290872586116e+01 1.7359377139856885e-02 2.5986648883856969e+01 
433 434 2 1.0279999999924954e+00 -1.3466074612428042e+02 1.0000000000000000e+00 1.9775906387177105e+01 2.8245848721021729e-02 2.5999780596090964e+01 
1357 1358 2 1.0280000000497127e+00 -6.5429085946217492e+02 1.0000000000000000e+00 1.6365468661040941e+00 4.7344716629840864e+00 2.5503183661743531e+01 
1183 1184 2 1.0279999999870226e+00 -2.3946420004208076e+03 1.0000000000000000e+00 4.1536847367385504e-01 4.7935088240202486e+00 2.7305775374490104e+01 
1004 1005 2 1.0279999999959881e+00 6.7696166829508384e+03 1.0000000000000000e+00 2.3885479979104018e+00 5.5355811424755972e+00 2.5838803828822151e+01 
293 294 2 1.0280000000305074e+00 -6.5429329903172504e+02 1.0000000000000000e+00 1.6386027959103455e+00 7.8601681714361407e+00 2.5498668717374244e+01 
423 424 2 1.0279999999889111e+00 -2.3946491493716339e+03 1.0000000000000000e+00 4.1689144585216076e-01 7.7983820725528057e+00 2.7307629828451198e+01 
548 549 2 1.0279999999966505e+00 6.7696089931899642e+03 1.0000000000000000e+00 2.3847001990934076e+00 7.0555550899736375e+00 2.5835478982447324e+01 
708 709 2 1.0280000000128555e+00 -2.9932383698084450e+03 1.0000000000000000e+00 1.3956764883179007e+01 1.7587973826675463e-01 2.8140660769108557e+01 
884 885 2 1.0279999999946863e+00 -2.9384385372125962e+03 1.0000000000000000e+00 1.5385215317945448e+01 8.8448043479250926e-01 2.8689378381828703e+01 
402 403 2 1.0279999999995457e+00 -4.7476594735258332e+03 1.0000000000000000e+00 1.6102251350730452e+01 6.7594542409730651e-03 2.9099136068283311e+01 
1319 1320 2 1.0280000000479528e+00 3.3647304676948920e+02 1.0000000000000000e+00 5.4903840925707525e-01 4.9054668441606291e+00 2.7460291532886959e+01 
1481 1482 2 1.0280000000025271e+00 3.4177309789651499e+03 1.0000000000000000e+00 1.4226290344623675e+00 5.1357793115085029e+00 2.9020498389354422e+01 
1483 1484 2 1.0279999999972587e+00 -5.0616717678524910e+03 1.0000000000000000e+00 1.7152423483588806e+00 5.3303996325555021e+00 2.9345308350198327e+01 
255 256 2 1.0280000000261038e+00 3.3647519569726506e+02 1.0000000000000000e+00 5.5025340501338404e-01 7.6860602293495255e+00 2.7461132904907000e+01 
113 114 2 1.0280000000043488e+00 3.4177157570377904e+03 1.0000000000000000e+00 1.4230358762293576e+00 7.4547539371816267e+00 2.9022545136447100e+01 
115 116 2 1.0279999999999963e+00 -5.0616956673585955e+03 1.0000000000000000e+00 1.7162529397777155e+00 7.2598449738106590e+00 2.9347276173837788e+01 
414 415 2 1.0279999999980796e+00 -4.4818069923609200e+03 1.0000000000000000e+00 2.9771511567206637e+00 6.4689450270214204e+00 2.8375008338246602e+01 
1174 1175 2 1.0279999999975673e+00 -4.4818111984550324e+03 1.0000000000000000e+00 2.9779010675287276e+00 6.1232258604127106e+00 2.8376145624488249e+01 
287 288 2 1.0280000000238489e+00 9.7736232629530855e+02 1.0000000000000000e+00 1.9324917754498287e+01 1.0338893302824387e-01 3.0223628405956127e+01 
286 287 2 1.0280000000240532e+00 9.7734832213199843e+02 1.0000000000000000e+00 1.9009084288821573e+01 1.0192485039860438e-01 3.0226863038413462e+01 
267 268 2 1.0279999999719367e+00 -2.5568566294094428e+01 1.0000000000000000e+00 1.9186254940366382e+01 3.5471723739980043e-01 3.1921722601892082e+01 
266 267 2 1.0279999999719360e+00 -2.5568482349250772e+01 1.0000000000000000e+00 1.9186254002673664e+01 3.5471724889079631e-01 3.1921722610784940e+01 
840 841 2 1.0280000000000009e+00 -3.6913029045250460e+03 1.0000000000000000e+00 1.4493896536342499e+01 1.8906971492086800e-02 6.1930101464514955e+01 
688 689 2 1.0280000000000016e+00 -3.6912986778802742e+03 1.0000000000000000e+00 1.4494040501643155e+01 1.9282951691942085e-01 6.1929736426538049e+01 
107 108 2 1.0279999999999918e+00 -4.7257986913722343e+03 1.0000000000000000e+00 1.5785058790625149e+01 1.0553956767833794e+00 6.2581038004493102e+01 
87 88 2 1.0279999999999960e+00 -3.9360623327517160e+03 1.0000000000000000e+00 1.5625463938859118e+01 1.9822922853211296e+00 6.3230198480982089e+01 
79 80 2 1.0279999999999865e+00 -4.0875999035817658e+03 1.0000000000000000e+00 1.4959215517268039e+01 1.7741531111739288e+00 6.3890061450222234e+01 
909 910 2 1.0279999999999971e+00 1.5118464037126778e+03 1.0000000000000000e+00 1.7695405480540717e+01 1.0693583712686371e-01 6.3021627847232566e+01 
757 758 2 1.0279999999999809e+00 1.5118464111681469e+03 1.0000000000000000e+00 1.7695424718326919e+01 1.0997766598493616e-01 6.3021621438140656e+01 
767 768 2 1.0279999999999876e+00 7.9096833845911846e+01 1.0000000000000000e+00 1.6686368279997041e+01 8.2472490497919548e-01 6.4682768368860280e+01 
896 897 2 1.0279999999999987e+00 7.3780535014217276e+02 1.0000000000000000e+00 1.8175829487782355e+01 2.2374395576106041e+00 6.3629543520750858e+01 
742 743 2 1.0279999999999965e+00 1.0820565126138208e+03 1.0000000000000000e+00 1.8174655889188426e+01 2.2376771477165045e+00 6.3629193411115715e+01 
1449 1450 2 1.0280000000000056e+00 3.8573767648738803e+03 1.0000000000000000e+00 1.3678430523807348e+01 1.2636852530964493e+00 6.6035052338959218e+01 
111 112 2 1.0279999999999987e+00 -3.6656777457899893e+03 1.0000000000000000e+00 1.4870785397776331e+01 1.8102460200339408e+00 6.5198436458494356e+01 
1509 1510 2 1.0279999999999834e+00 -2.9733384622289614e+03 1.0000000000000000e+00 1.7020552034285174e+01 1.7769844632317604e+00 6.4738779365074109e+01 
393 394 2 1.0279999999999996e+00 1.4864045264039441e+03 1.0000000000000000e+00 1.4428908766542925e+01 3.1296842593752143e+00 6.6157228029200809e+01 
566 567 2 1.0280000000000071e+00 -6.8965957547684843e+02 1.0000000000000000e+00 1.4194080515356095e+01 3.0073543922622368e+00 6.6171470556367183e+01 
846 847 2 1.0280000000000042e+00 1.7495362049686796e+03 1.0000000000000000e+00 1.6507268803150321e+01 3.3025614122167157e+00 6.6207907226297124e+01 
93 94 2 1.0279999999999847e+00 3.3625548470360131e+03 1.0000000000000000e+00 1.6557066890463105e+01 2.7184526818651271e+00 6.6513224895714671e+01 
235 236 2 1.0280000000000060e+00 -1.7482912936276171e+02 1.0000000000000000e+00 1.3692790528033150e+01 6.9930333683720580e-01 6.6705737814922301e+01 
1322 1323 2 1.0280000000000089e+00 1.3811018980705481e+02 1.0000000000000000e+00 1.6703074538673871e+01 1.3353800251346493e-01 6.7424972047201422e+01 
258 259 2 1.0280000000000040e+00 1.3814734391141135e+02 1.0000000000000000e+00 1.6703340931589555e+01 9.1720701115198172e-02 6.7425314865110280e+01 
123 124 2 1.0279999999999958e+00 -5.5694052856777416e+03 1.0000000000000000e+00 1.7250565459409394e+01 1.7427952574234640e+00 6.8154168413647383e+01 
1307 1308 2 1.0279999999999925e+00 -1.6125829575814265e+01 1.0000000000000000e+00 1.7988734550333760e+01 2.8166202647073044e+00 6.8173548140612581e+01 
850 851 2 1.0279999999999940e+00 9.6761780421303774e+02 1.0000000000000000e+00 1.6369806273960673e+01 4.1713173927498790e+00 6.7674747276779712e+01 
389 390 2 1.0279999999999934e+00 2.0526113535277641e+03 1.0000000000000000e+00 1.6343505537825859e+01 4.1507493579728765e+00 6.7688379381216507e+01 
103 104 2 1.0280000000000009e+00 -4.8776593122949162e+03 1.0000000000000000e+00 2.7778794211559177e+00 2.4166752916869133e-01 7.0075092653905116e+01 
1311 1312 2 1.0280000000000054e+00 -1.4033413208814113e+02 1.0000000000000000e+00 1.7858104475873105e+01 3.5471111535130345e-01 6.9178461344963324e+01 
728 729 2 1.0279999999999923e+00 -4.7770322036447033e+03 1.0000000000000000e+00 1.8305166914319177e+01 2.4230433575498056e+00 6.8685904665641814e+01 
301 302 2 1.0280000000000051e+00 -7.1491030572023624e+02 1.0000000000000000e+00 8.4862700199540519e-01 1.1682666513471018e+00 7.1754453942583197e+01 
453 454 2 1.0279999999999916e+00 -4.4354631533110532e+03 1.0000000000000000e+00 1.1981736728274059e+00 4.7401156802350797e-01 7.1885294133040432e+01 
866 867 2 1.0280000000000096e+00 1.4969990653716848e+03 1.0000000000000000e+00 3.3435689856159132e+00 1.0028949749430101e+00 7.0715267233464019e+01 
721 722 2 1.0280000000000051e+00 -3.2770981899104472e+03 1.0000000000000000e+00 3.6341484236428832e+00 6.8679351545215495e-01 7.1340220951868176e+01 
1335 1336 2 1.0279999999999994e+00 3.2270692194326068e+02 1.0000000000000000e+00 1.8421274657643238e+01 1.5489060827758969e+00 7.0728818681635374e+01 
1251 1252 2 1.0279999999999974e+00 3.2259094476590798e+02 1.0000000000000000e+00 1.8415237224776771e+01 1.5486903442657713e+00 7.1147463600054593e+01 
406 407 2 1.0279999999999954e+00 -5.0822319196310018e+03 1.0000000000000000e+00 4.3584136118550534e+00 2.8237470686744413e+00 7.2260700192224064e+01 
410 411 2 1.0280000000000005e+00 -5.3894844264499043e+03 1.0000000000000000e+00 4.7336525697341783e+00 2.5959076598951643e+00 7.2540331384472168e+01 
136 137 2 1.0279999999999792e+00 2.1410385504670880e+03 1.0000000000000000e+00 1.6188545831369613e-01 1.6643359559126314e+00 7.2968783745570832e+01 
139 140 2 1.0280000000000091e+00 -2.3595772875031616e+03 1.0000000000000000e+00 1.7033047029936232e+00 8.4819512741387715e-01 7.3506939088287325e+01 
290 291 2 1.0280000000000158e+00 -9.4506585420149145e+02 1.0000000000000000e+00 1.8756351231316110e-01 9.0673831764187207e-01 7.3790388304359311e+01 
143 144 2 1.0280000000000160e+00 -2.2985126915667952e+03 1.0000000000000000e+00 3.4000952589708455e+00 8.4927280302969976e-01 7.3058089161506942e+01 
607 608 2 1.0280000000000005e+00 -2.3745685976692621e+03 1.0000000000000000e+00 3.3571436300218109e+00 8.4205123410303362e-01 7.3593570864424152e+01 
442 443 2 1.0280000000000036e+00 -3.0909051659232373e+03 1.0000000000000000e+00 7.3903839883158282e+00 9.6056795191800659e-01 7.4278570784627817e+01 
599 600 2 1.0279999999999951e+00 -2.5429841471182081e+03 1.0000000000000000e+00 7.5459288620543612e+00 1.0185348685087723e+00 7.4437165640556756e+01 
409 410 2 1.0279999999999854e+00 1.8876665319669924e+03 1.0000000000000000e+00 1.0401019155486068e+01 1.5676663553979223e-01 7.3631662909391437e+01 
101 102 2 1.0280000000000091e+00 2.7765629973898867e+03 1.0000000000000000e+00 1.0085040332553904e+01 1.1130791024740003e+00 7.3770139950322502e+01 
1275 1276 2 1.0279999999999896e+00 -1.3865242592347073e+02 1.0000000000000000e+00 1.7644748844386729e+01 2.5125434909907035e-01 7.2583994151817365e+01 
31 32 2 1.0280000000000016e+00 -5.5690703765422986e+03 1.0000000000000000e+00 1.6801028659868727e+01 1.7079444062100100e+00 7.3553429498574502e+01 
1262 1263 2 1.0280000000000105e+00 1.3704693887148872e+02 1.0000000000000000e+00 1.6179076961781497e+01 1.4499958317152817e-01 7.4230912832822909e+01 
198 199 2 1.0280000000000034e+00 1.3704146930284301e+02 1.0000000000000000e+00 1.6179039337755242e+01 6.6798546151199137e-02 7.4231070580857747e+01 
238 239 2 1.0279999999999996e+00 3.1852014804711735e+02 1.0000000000000000e+00 6.0193621530498707e+00 3.7036441236580182e+00 7.2935322527867754e+01 
129 130 2 1.0279999999999998e+00 3.9766750190614357e+03 1.0000000000000000e+00 7.4902742221791119e+00 3.4988459590463754e+00 7.3242914948126426e+01 
131 132 2 1.0279999999999969e+00 -4.4959869748870933e+03 1.0000000000000000e+00 7.6671327389355719e+00 3.3879389820738934e+00 7.3304166319091649e+01 
862 863 2 1.0280000000000034e+00 9.5213278053694080e+02 1.0000000000000000e+00 9.2360214784049184e+00 2.4732555575021351e+00 7.3142157890007297e+01 
405 406 2 1.0279999999999763e+00 1.3995768489568422e+03 1.0000000000000000e+00 9.5360823428542272e+00 2.3247107954747710e+00 7.3245374254783542e+01 
644 645 2 1.0279999999999925e+00 -4.7753037759391646e+03 1.0000000000000000e+00 1.7647751910043432e+01 2.3836388442740493e+00 7.3009563640811393e+01 
1279 1280 2 1.0280000000000118e+00 -1.5083149039605523e+01 1.0000000000000000e+00 1.7470171064297471e+01 2.9416511033701154e+00 7.3430998204461844e+01 
263 264 2 1.0279999999999967e+00 -3.2936216276148997e+01 1.0000000000000000e+00 3.9894669892620133e-01 5.6373121945525018e+00 7.3465571406660104e+01 
150 151 2 1.0279999999999900e+00 -7.6382507790172508e+02 1.0000000000000000e+00 1.7857035977322505e-01 5.2764187791709407e+00 7.3512878969673025e+01 
251 252 2 1.0279999999999971e+00 1.6199823183761680e+02 1.0000000000000000e+00 3.3702804466394110e+00 4.6036834778205762e+00 7.2693768673506270e+01 
720 721 2 1.0280000000000022e+00 -2.9642223203531321e+03 1.0000000000000000e+00 3.2275498806021523e+00 4.4972647965614785e+00 7.2920672740520715e+01 
125 126 2 1.0280000000000058e+00 2.2239878778927500e+03 1.0000000000000000e+00 2.2316781006951292e+00 5.9947372866133257e+00 7.3584960142602185e+01 
278 279 2 1.0280000000000029e+00 1.3136517320011051e+03 1.0000000000000000e+00 5.0911003497328062e+00 4.1534153063046908e+00 7.2874215400027637e+01 
369 370 2 1.0279999999999920e+00 2.0526959992672905e+03 1.0000000000000000e+00 1.6164740154569202e+01 4.4490827217404210e+00 7.4081676703733478e+01 
822 823 2 1.0279999999999840e+00 9.6772977875513379e+02 1.0000000000000000e+00 1.6195153774446116e+01 4.4682193359809128e+00 7.4097149236354952e+01 
275 276 2 1.0280000000000040e+00 3.3647220467608304e+02 1.0000000000000000e+00 2.2012801863430291e+00 6.0248989568191558e+00 7.3540068010982395e+01 
454 455 2 1.0279999999999954e+00 -2.4200003738237820e+03 1.0000000000000000e+00 1.6047853958044613e+00 1.7837871889085324e+00 7.5302925764678733e+01 
733 734 2 1.0280000000000196e+00 -2.0519282975507940e+03 1.0000000000000000e+00 1.2125722533667715e-01 1.1996465996100232e+00 7.5494288412563236e+01 
603 604 2 1.0279999999999898e+00 -1.5436782717859348e+03 1.0000000000000000e+00 2.5962025110629803e+00 1.5299279593816748e-01 7.5086116451252877e+01 
1061 1062 2 1.0279999999999876e+00 2.3367509306898523e+03 1.0000000000000000e+00 2.8600866716776152e+00 1.5685668292658628e+00 7.5659015415345664e+01 
580 581 2 1.0279999999999925e+00 3.6142404327898603e+03 1.0000000000000000e+00 8.9984865308409780e+00 5.2813558532308424e-01 7.5286464076883689e+01 
882 883 2 1.0280000000000029e+00 1.7455010963886348e+03 1.0000000000000000e+00 9.9155703508264263e+00 3.2029425990936805e-01 7.5949313716002749e+01 
223 224 2 1.0280000000000049e+00 -1.7481321832456206e+02 1.0000000000000000e+00 1.3792458161093728e+01 6.6599525654185543e-01 7.4596600269372189e+01 
1437 1438 2 1.0279999999999965e+00 3.8578663430109509e+03 1.0000000000000000e+00 1.3803406130759420e+01 1.3253628827574477e+00 7.5273250569954840e+01 
43 44 2 1.0280000000000054e+00 -3.6662035112980307e+03 1.0000000000000000e+00 1.4650703099230126e+01 1.8234982023105242e+00 7.6247466091015497e+01 
575 576 2 1.0279999999999827e+00 -5.9274493074161160e+02 1.0000000000000000e+00 2.2628274723053063e-01 2.8295351458602322e+00 7.5789085449191205e+01 
498 499 2 1.0279999999999920e+00 -6.8968580989094357e+02 1.0000000000000000e+00 1.4167254465860202e+01 3.1454312747165054e+00 7.5374500080076672e+01 
365 366 2 1.0280000000000082e+00 1.4861635498279302e+03 1.0000000000000000e+00 1.4403873887156712e+01 3.3187430663575044e+00 7.5406343601100744e+01 
57 58 2 1.0279999999999949e+00 3.3609112794240091e+03 1.0000000000000000e+00 1.6467567904873739e+01 2.9190328640654681e+00 7.5182135699663760e+01 
826 827 2 1.0280000000000036e+00 1.7489628800228211e+03 1.0000000000000000e+00 1.6413048054648851e+01 3.4688239894794513e+00 7.5484423300250029e+01 