LAMMPS data file via write_data, version 30 Jul 2016, timestep = 1000000

2080 atoms
8 atom types

0.0000000000000000e+00 4.0000000000000000e+01 xlo xhi
0.0000000000000000e+00 4.0000000000000000e+01 ylo yhi
0.0000000000000000e+00 1.0000000000000000e+02 zlo zhi

Masses

1 3.896
2 4.306
3 20.064
4 8.378
5 8.378
6 8.378
7 8.378
8 8.378

Atoms # meso-molecular

1 2 4 2.2559723595316457e+00 0.0000000000000000e+00 1.0000000000000000e+00 0.0000000000000000e+00 0.0000000000000000e+00 2.5000000000000000e+00 
2 2 4 2.2559723595316457e+00 0.0000000000000000e+00 1.0000000000000000e+00 0.0000000000000000e+00 2.0000000000000000e+00 2.5000000000000000e+00 
3 2 4 2.2559723595316457e+00 0.0000000000000000e+00 1.0000000000000000e+00 0.0000000000000000e+00 4.0000000000000000e+00 2.5000000000000000e+00 
4 2 4 2.2559723595316457e+00 0.0000000000000000e+00 1.0000000000000000e+00 0.0000000000000000e+00 6.0000000000000000e+00 2.5000000000000000e+00 
21 2 4 2.2559723595316457e+00 0.0000000000000000e+00 1.0000000000000000e+00 2.0000000000000000e+00 0.0000000000000000e+00 2.5000000000000000e+00 
22 2 4 2.2559723595316457e+00 0.0000000000000000e+00 1.0000000000000000e+00 2.0000000000000000e+00 2.0000000000000000e+00 2.5000000000000000e+00 
23 2 4 2.2559723595316457e+00 0.0000000000000000e+00 1.0000000000000000e+00 2.0000000000000000e+00 4.0000000000000000e+00 2.5000000000000000e+00 
24 2 4 2.2559723595316457e+00 0.0000000000000000e+00 1.0000000000000000e+00 2.0000000000000000e+00 6.0000000000000000e+00 2.5000000000000000e+00 
41 2 4 2.2559723595316457e+00 0.0000000000000000e+00 1.0000000000000000e+00 4.0000000000000000e+00 0.0000000000000000e+00 2.5000000000000000e+00 
42 2 4 2.2559723595316457e+00 0.0000000000000000e+00 1.0000000000000000e+00 4.0000000000000000e+00 2.0000000000000000e+00 2.5000000000000000e+00 
43 2 4 2.2559723595316457e+00 0.0000000000000000e+00 1.0000000000000000e+00 4.0000000000000000e+00 4.0000000000000000e+00 2.5000000000000000e+00 
44 2 4 2.2559723595316457e+00 0.0000000000000000e+00 1.0000000000000000e+00 4.0000000000000000e+00 6.0000000000000000e+00 2.5000000000000000e+00 
61 2 4 2.2559723595316457e+00 0.0000000000000000e+00 1.0000000000000000e+00 6.0000000000000000e+00 0.0000000000000000e+00 2.5000000000000000e+00 
62 2 4 2.2559723595316457e+00 0.0000000000000000e+00 1.0000000000000000e+00 6.0000000000000000e+00 2.0000000000000000e+00 2.5000000000000000e+00 
63 2 4 2.2559723595316457e+00 0.0000000000000000e+00 1.0000000000000000e+00 6.0000000000000000e+00 4.0000000000000000e+00 2.5000000000000000e+00 
64 2 4 2.2559723595316457e+00 0.0000000000000000e+00 1.0000000000000000e+00 6.0000000000000000e+00 6.0000000000000000e+00 2.5000000000000000e+00 
81 2 4 2.2559723595316457e+00 0.0000000000000000e+00 1.0000000000000000e+00 8.0000000000000000e+00 0.0000000000000000e+00 2.5000000000000000e+00 
82 2 4 2.2559723595316457e+00 0.0000000000000000e+00 1.0000000000000000e+00 8.0000000000000000e+00 2.0000000000000000e+00 2.5000000000000000e+00 
83 2 4 2.2559723595316457e+00 0.0000000000000000e+00 1.0000000000000000e+00 8.0000000000000000e+00 4.0000000000000000e+00 2.5000000000000000e+00 
84 2 4 2.2559723595316457e+00 0.0000000000000000e+00 1.0000000000000000e+00 8.0000000000000000e+00 6.0000000000000000e+00 2.5000000000000000e+00 
101 2 4 2.2559723595316457e+00 0.0000000000000000e+00 1.0000000000000000e+00 1.0000000000000000e+01 0.0000000000000000e+00 2.5000000000000000e+00 
102 2 4 2.2559723595316457e+00 0.0000000000000000e+00 1.0000000000000000e+00 1.0000000000000000e+01 2.0000000000000000e+00 2.5000000000000000e+00 
103 2 4 2.2559723595316457e+00 0.0000000000000000e+00 1.0000000000000000e+00 1.0000000000000000e+01 4.0000000000000000e+00 2.5000000000000000e+00 
104 2 4 2.2559723595316457e+00 5.6751451728641990e-06 1.0000000000000000e+00 1.0000000000000000e+01 6.0000000000000000e+00 2.5000000000000000e+00 
121 2 4 2.2559723595316457e+00 0.0000000000000000e+00 1.0000000000000000e+00 1.2000000000000000e+01 0.0000000000000000e+00 2.5000000000000000e+00 
122 2 4 2.2559723595316457e+00 0.0000000000000000e+00 1.0000000000000000e+00 1.2000000000000000e+01 2.0000000000000000e+00 2.5000000000000000e+00 
123 2 4 2.2559723595316457e+00 0.0000000000000000e+00 1.0000000000000000e+00 1.2000000000000000e+01 4.0000000000000000e+00 2.5000000000000000e+00 
124 2 4 2.2559723595316457e+00 -9.5683994940559707e+00 1.0000000000000000e+00 1.2000000000000000e+01 6.0000000000000000e+00 2.5000000000000000e+00 
141 2 4 2.2559723595316457e+00 0.0000000000000000e+00 1.0000000000000000e+00 1.4000000000000000e+01 0.0000000000000000e+00 2.5000000000000000e+00 
142 2 4 2.2559723595316457e+00 0.0000000000000000e+00 1.0000000000000000e+00 1.4000000000000000e+01 2.0000000000000000e+00 2.5000000000000000e+00 
143 2 4 2.2559723595316457e+00 -2.8954300419754136e-01 1.0000000000000000e+00 1.4000000000000000e+01 4.0000000000000000e+00 2.5000000000000000e+00 
144 2 4 2.2559723595316457e+00 -1.0375951938109903e+02 1.0000000000000000e+00 1.4000000000000000e+01 6.0000000000000000e+00 2.5000000000000000e+00 
161 2 4 2.2559723595316457e+00 0.0000000000000000e+00 1.0000000000000000e+00 1.6000000000000000e+01 0.0000000000000000e+00 2.5000000000000000e+00 
162 2 4 2.2559723595316457e+00 0.0000000000000000e+00 1.0000000000000000e+00 1.6000000000000000e+01 2.0000000000000000e+00 2.5000000000000000e+00 
163 2 4 2.2559723595316457e+00 -3.0338890895151600e+00 1.0000000000000000e+00 1.6000000000000000e+01 4.0000000000000000e+00 2.5000000000000000e+00 
164 2 4 2.2559723595316457e+00 -2.8886101964639244e+02 1.0000000000000000e+00 1.6000000000000000e+01 6.0000000000000000e+00 2.5000000000000000e+00 
181 2 4 2.2559723595316457e+00 0.0000000000000000e+00 1.0000000000000000e+00 1.8000000000000000e+01 0.0000000000000000e+00 2.5000000000000000e+00 
182 2 4 2.2559723595316457e+00 0.0000000000000000e+00 1.0000000000000000e+00 1.8000000000000000e+01 2.0000000000000000e+00 2.5000000000000000e+00 
183 2 4 2.2559723595316457e+00 -4.1590627600863126e+00 1.0000000000000000e+00 1.8000000000000000e+01 4.0000000000000000e+00 2.5000000000000000e+00 
184 2 4 2.2559723595316457e+00 -4.2129905508322230e+02 1.0000000000000000e+00 1.8000000000000000e+01 6.0000000000000000e+00 2.5000000000000000e+00 
5 2 4 2.2559723595316457e+00 0.0000000000000000e+00 1.0000000000000000e+00 0.0000000000000000e+00 8.0000000000000000e+00 2.5000000000000000e+00 
6 2 4 2.2559723595316457e+00 0.0000000000000000e+00 1.0000000000000000e+00 0.0000000000000000e+00 1.0000000000000000e+01 2.5000000000000000e+00 
7 2 4 2.2559723595316457e+00 0.0000000000000000e+00 1.0000000000000000e+00 0.0000000000000000e+00 1.2000000000000000e+01 2.5000000000000000e+00 
25 2 4 2.2559723595316457e+00 0.0000000000000000e+00 1.0000000000000000e+00 2.0000000000000000e+00 8.0000000000000000e+00 2.5000000000000000e+00 
26 2 4 2.2559723595316457e+00 0.0000000000000000e+00 1.0000000000000000e+00 2.0000000000000000e+00 1.0000000000000000e+01 2.5000000000000000e+00 
27 2 4 2.2559723595316457e+00 0.0000000000000000e+00 1.0000000000000000e+00 2.0000000000000000e+00 1.2000000000000000e+01 2.5000000000000000e+00 
45 2 4 2.2559723595316457e+00 0.0000000000000000e+00 1.0000000000000000e+00 4.0000000000000000e+00 8.0000000000000000e+00 2.5000000000000000e+00 
46 2 4 2.2559723595316457e+00 0.0000000000000000e+00 1.0000000000000000e+00 4.0000000000000000e+00 1.0000000000000000e+01 2.5000000000000000e+00 
47 2 4 2.2559723595316457e+00 0.0000000000000000e+00 1.0000000000000000e+00 4.0000000000000000e+00 1.2000000000000000e+01 2.5000000000000000e+00 
65 2 4 2.2559723595316457e+00 0.0000000000000000e+00 1.0000000000000000e+00 6.0000000000000000e+00 8.0000000000000000e+00 2.5000000000000000e+00 
66 2 4 2.2559723595316457e+00 0.0000000000000000e+00 1.0000000000000000e+00 6.0000000000000000e+00 1.0000000000000000e+01 2.5000000000000000e+00 
67 2 4 2.2559723595316457e+00 2.3752135204456351e-04 1.0000000000000000e+00 6.0000000000000000e+00 1.2000000000000000e+01 2.5000000000000000e+00 
85 2 4 2.2559723595316457e+00 0.0000000000000000e+00 1.0000000000000000e+00 8.0000000000000000e+00 8.0000000000000000e+00 2.5000000000000000e+00 
86 2 4 2.2559723595316457e+00 0.0000000000000000e+00 1.0000000000000000e+00 8.0000000000000000e+00 1.0000000000000000e+01 2.5000000000000000e+00 
87 2 4 2.2559723595316457e+00 2.0083599553821877e-05 1.0000000000000000e+00 8.0000000000000000e+00 1.2000000000000000e+01 2.5000000000000000e+00 
105 2 4 2.2559723595316457e+00 -2.8919296925639071e-01 1.0000000000000000e+00 1.0000000000000000e+01 8.0000000000000000e+00 2.5000000000000000e+00 
106 2 4 2.2559723595316457e+00 -3.0335155764760495e+00 1.0000000000000000e+00 1.0000000000000000e+01 1.0000000000000000e+01 2.5000000000000000e+00 
107 2 4 2.2559723595316457e+00 -4.1900910215889571e+00 1.0000000000000000e+00 1.0000000000000000e+01 1.2000000000000000e+01 2.5000000000000000e+00 
125 2 4 2.2559723595316457e+00 -1.0372985335421430e+02 1.0000000000000000e+00 1.2000000000000000e+01 8.0000000000000000e+00 2.5000000000000000e+00 
126 2 4 2.2559723595316457e+00 -2.8927136152776023e+02 1.0000000000000000e+00 1.2000000000000000e+01 1.0000000000000000e+01 2.5000000000000000e+00 
127 2 4 2.2559723595316457e+00 -4.2947885416580169e+02 1.0000000000000000e+00 1.2000000000000000e+01 1.2000000000000000e+01 2.5000000000000000e+00 
145 2 4 2.2559723595316457e+00 -6.3603551519545988e+02 1.0000000000000000e+00 1.4000000000000000e+01 8.0000000000000000e+00 2.5000000000000000e+00 
146 2 4 2.2559723595316457e+00 -1.5497993846357726e+03 1.0000000000000000e+00 1.4000000000000000e+01 1.0000000000000000e+01 2.5000000000000000e+00 
147 2 4 2.2559723595316457e+00 -2.2532391976320419e+03 1.0000000000000000e+00 1.4000000000000000e+01 1.2000000000000000e+01 2.5000000000000000e+00 
165 2 4 2.2559723595316457e+00 -1.5459095202887863e+03 1.0000000000000000e+00 1.6000000000000000e+01 8.0000000000000000e+00 2.5000000000000000e+00 
166 2 4 2.2559723595316457e+00 -3.6075477228544360e+03 1.0000000000000000e+00 1.6000000000000000e+01 1.0000000000000000e+01 2.5000000000000000e+00 
167 2 4 2.2559723595316457e+00 -5.1945441142645850e+03 1.0000000000000000e+00 1.6000000000000000e+01 1.2000000000000000e+01 2.5000000000000000e+00 
185 2 4 2.2559723595316457e+00 -2.2091481296714510e+03 1.0000000000000000e+00 1.8000000000000000e+01 8.0000000000000000e+00 2.5000000000000000e+00 
186 2 4 2.2559723595316457e+00 -5.1209657122147673e+03 1.0000000000000000e+00 1.8000000000000000e+01 1.0000000000000000e+01 2.5000000000000000e+00 
187 2 4 2.2559723595316457e+00 -7.3469392128567852e+03 1.0000000000000000e+00 1.8000000000000000e+01 1.2000000000000000e+01 2.5000000000000000e+00 
8 2 4 2.2559723595316457e+00 0.0000000000000000e+00 1.0000000000000000e+00 0.0000000000000000e+00 1.4000000000000000e+01 2.5000000000000000e+00 
9 2 4 2.2559723595316457e+00 0.0000000000000000e+00 1.0000000000000000e+00 0.0000000000000000e+00 1.6000000000000000e+01 2.5000000000000000e+00 
10 2 4 2.2559723595316457e+00 0.0000000000000000e+00 1.0000000000000000e+00 0.0000000000000000e+00 1.8000000000000000e+01 2.5000000000000000e+00 
28 2 4 2.2559723595316457e+00 0.0000000000000000e+00 1.0000000000000000e+00 2.0000000000000000e+00 1.4000000000000000e+01 2.5000000000000000e+00 
29 2 4 2.2559723595316457e+00 0.0000000000000000e+00 1.0000000000000000e+00 2.0000000000000000e+00 1.6000000000000000e+01 2.5000000000000000e+00 
30 2 4 2.2559723595316457e+00 0.0000000000000000e+00 1.0000000000000000e+00 2.0000000000000000e+00 1.8000000000000000e+01 2.5000000000000000e+00 
48 2 4 2.2559723595316457e+00 3.7024780822646940e-05 1.0000000000000000e+00 4.0000000000000000e+00 1.4000000000000000e+01 2.5000000000000000e+00 
49 2 4 2.2559723595316457e+00 3.3132159096186296e-06 1.0000000000000000e+00 4.0000000000000000e+00 1.6000000000000000e+01 2.5000000000000000e+00 
50 2 4 2.2559723595316457e+00 0.0000000000000000e+00 1.0000000000000000e+00 4.0000000000000000e+00 1.8000000000000000e+01 2.5000000000000000e+00 
68 2 4 2.2559723595316457e+00 3.9663529255248263e-03 1.0000000000000000e+00 6.0000000000000000e+00 1.4000000000000000e+01 2.5000000000000000e+00 
69 2 4 2.2559723595316457e+00 -2.8459414765991944e-04 1.0000000000000000e+00 6.0000000000000000e+00 1.6000000000000000e+01 2.5000000000000000e+00 
70 2 4 2.2559723595316457e+00 1.4618987326511187e-03 1.0000000000000000e+00 6.0000000000000000e+00 1.8000000000000000e+01 2.5000000000000000e+00 
88 2 4 2.2559723595316457e+00 6.4990581171293677e-04 1.0000000000000000e+00 8.0000000000000000e+00 1.4000000000000000e+01 2.5000000000000000e+00 
89 2 4 2.2559723595316457e+00 7.1967626408341631e-04 1.0000000000000000e+00 8.0000000000000000e+00 1.6000000000000000e+01 2.5000000000000000e+00 
90 2 4 2.2559723595316457e+00 1.2348030057914768e-02 1.0000000000000000e+00 8.0000000000000000e+00 1.8000000000000000e+01 2.5000000000000000e+00 
108 2 4 2.2559723595316457e+00 -4.4658830906150229e+00 1.0000000000000000e+00 1.0000000000000000e+01 1.4000000000000000e+01 2.5000000000000000e+00 
109 2 4 2.2559723595316457e+00 -4.4909160254495957e+00 1.0000000000000000e+00 1.0000000000000000e+01 1.6000000000000000e+01 2.5000000000000000e+00 
110 2 4 2.2559723595316457e+00 -4.4973810443835518e+00 1.0000000000000000e+00 1.0000000000000000e+01 1.8000000000000000e+01 2.5000000000000000e+00 
128 2 4 2.2559723595316457e+00 -4.7127998431641669e+02 1.0000000000000000e+00 1.2000000000000000e+01 1.4000000000000000e+01 2.5000000000000000e+00 
129 2 4 2.2559723595316457e+00 -4.7811796604537415e+02 1.0000000000000000e+00 1.2000000000000000e+01 1.6000000000000000e+01 2.5000000000000000e+00 
130 2 4 2.2559723595316457e+00 -4.7768588757010116e+02 1.0000000000000000e+00 1.2000000000000000e+01 1.8000000000000000e+01 2.5000000000000000e+00 
148 2 4 2.2559723595316457e+00 -2.4859742688281822e+03 1.0000000000000000e+00 1.4000000000000000e+01 1.4000000000000000e+01 2.5000000000000000e+00 
149 2 4 2.2559723595316457e+00 -2.5210994500449260e+03 1.0000000000000000e+00 1.4000000000000000e+01 1.6000000000000000e+01 2.5000000000000000e+00 
150 2 4 2.2559723595316457e+00 -2.5198119721616572e+03 1.0000000000000000e+00 1.4000000000000000e+01 1.8000000000000000e+01 2.5000000000000000e+00 
168 2 4 2.2559723595316457e+00 -5.7191775922615070e+03 1.0000000000000000e+00 1.6000000000000000e+01 1.4000000000000000e+01 2.5000000000000000e+00 
169 2 4 2.2559723595316457e+00 -5.7826898252814826e+03 1.0000000000000000e+00 1.6000000000000000e+01 1.6000000000000000e+01 2.5000000000000000e+00 
170 2 4 2.2559723595316457e+00 -5.7793692598670323e+03 1.0000000000000000e+00 1.6000000000000000e+01 1.8000000000000000e+01 2.5000000000000000e+00 
188 2 4 2.2559723595316457e+00 -8.0562236890922059e+03 1.0000000000000000e+00 1.8000000000000000e+01 1.4000000000000000e+01 2.5000000000000000e+00 
189 2 4 2.2559723595316457e+00 -8.1284097741611695e+03 1.0000000000000000e+00 1.8000000000000000e+01 1.6000000000000000e+01 2.5000000000000000e+00 
190 2 4 2.2559723595316457e+00 -8.1220573822533006e+03 1.0000000000000000e+00 1.8000000000000000e+01 1.8000000000000000e+01 2.5000000000000000e+00 
1272 874 2 1.0280000226202579e+00 -5.1729170988052942e+02 1.0000000000000000e+00 1.9855070153539739e+01 1.8487324223493509e+01 7.9311721054501390e+01 
1842 1444 2 1.0280000231062110e+00 2.9551781000158840e+03 1.0000000000000000e+00 1.9819646828019106e+01 1.8485217889320733e+01 7.9396761624260961e+01 
1104 706 2 1.0280000263874185e+00 -5.1424389769739400e+02 1.0000000000000000e+00 1.9848794994539084e+01 1.7684272962093363e+01 7.9481865411326751e+01 
1990 1592 2 1.0280000219037380e+00 -3.9945993826228710e+03 1.0000000000000000e+00 1.9918152112551585e+01 1.7283196195462065e+01 8.0609730825970217e+01 
469 71 2 1.0280007995494176e+00 -7.6598971811809333e+03 1.0000000000000000e+00 1.9982490807932596e+01 1.7419245510988180e+01 8.1776804617624052e+01 
1801 1403 2 1.0280002147050840e+00 -6.4452303592701965e+03 1.0000000000000000e+00 1.9839906740155477e+01 1.7355663470975223e+01 8.3003657400212433e+01 
1804 1406 2 1.0279994377981663e+00 -6.4430209878342203e+03 1.0000000000000000e+00 1.9710792917073125e+01 1.6862830786976488e+01 8.3091844067156003e+01 
969 571 2 1.0279996303341570e+00 4.5941001011801836e+03 1.0000000000000000e+00 1.9719696823376722e+01 1.7185031291883352e+01 8.3118529967962147e+01 
1991 1593 2 1.0279997605334363e+00 -3.9873978827890719e+03 1.0000000000000000e+00 1.9643755326154682e+01 1.5721136856410768e+01 8.3327120168342276e+01 
585 187 2 1.0280001582615739e+00 6.8023202068353714e+02 1.0000000000000000e+00 1.2797054667513128e+01 5.7093725297766511e+00 8.6402833019037089e+01 
797 399 2 1.0280001218966583e+00 -4.9401696027355274e+02 1.0000000000000000e+00 1.3206229179331597e+01 5.4228791156985858e+00 8.6317488883035523e+01 
1688 1290 2 1.0280003934773132e+00 -3.5605398340553097e+03 1.0000000000000000e+00 1.2971120137747945e+01 5.0972174831933650e+00 8.6886306683676523e+01 
1096 698 2 1.0280004094478643e+00 2.3613867746199194e+03 1.0000000000000000e+00 1.2918784727343485e+01 5.1366840015053530e+00 8.6898570563215685e+01 
2045 1647 2 1.0280001936390717e+00 -5.6997868968548300e+03 1.0000000000000000e+00 1.0854158910788984e+01 6.0300322174251928e+00 8.7139701525055941e+01 
644 246 2 1.0280005052429684e+00 -6.1087894102409609e+03 1.0000000000000000e+00 1.2305939524675896e+01 5.4960188489325068e+00 8.7127034704357214e+01 
433 35 2 1.0280001454263048e+00 -1.8461173269395463e+03 1.0000000000000000e+00 1.0329633742326504e+01 6.2691684682014941e+00 8.7180197920398157e+01 
908 510 2 1.0280003910358180e+00 1.1365592710046023e+04 1.0000000000000000e+00 1.1791092581798949e+01 5.6960448233564094e+00 8.7190110735866000e+01 
650 252 2 1.0280001270469168e+00 -4.6123740264714488e+03 1.0000000000000000e+00 1.0019948592136680e+01 6.4456172614937097e+00 8.7207143585161305e+01 
1109 711 2 1.0280002084558291e+00 5.6730057114136944e+03 1.0000000000000000e+00 1.0888537903385444e+01 6.0028129416374627e+00 8.7227596708018169e+01 
860 462 2 1.0280001596662478e+00 2.7483231195451222e+03 1.0000000000000000e+00 1.0427025807529672e+01 6.2043270837448725e+00 8.7247997635424937e+01 
1561 1163 2 1.0280001263325342e+00 5.6200748111364719e+03 1.0000000000000000e+00 9.9190632049316143e+00 6.4970244995052120e+00 8.7262890811829578e+01 
1396 998 2 1.0280001727385788e+00 6.2072824964505315e+01 1.0000000000000000e+00 1.0450363222820778e+01 6.1870339154728224e+00 8.7427752772870107e+01 
1463 1065 2 1.0280001843438709e+00 6.6154536170612864e+03 1.0000000000000000e+00 1.0574084408917413e+01 6.1333592197467670e+00 8.7437585726607736e+01 
1920 1522 2 1.0280003034716996e+00 -1.1021455297217059e+04 1.0000000000000000e+00 1.1377894919223589e+01 5.8629062667950480e+00 8.7440802085826277e+01 
1862 1464 2 1.0280002464175468e+00 4.2549540947355090e+03 1.0000000000000000e+00 1.1062071556153949e+01 5.9562329429002663e+00 8.7444912653586101e+01 
1669 1271 2 1.0280005134118788e+00 -5.3792187550357594e+03 1.0000000000000000e+00 1.2724457071420389e+01 5.4627606404262705e+00 8.7467565842624879e+01 
503 105 2 1.0280001345686667e+00 6.9189005190164391e+02 1.0000000000000000e+00 9.7380201237940316e+00 6.5965734384799237e+00 8.7534043451455048e+01 
1919 1521 2 1.0280002162773105e+00 -1.0819013009671438e+04 1.0000000000000000e+00 1.0865505274219771e+01 6.0554049154704543e+00 8.7571443993179173e+01 
693 295 2 1.0280004479795888e+00 -2.5255892543529098e+03 1.0000000000000000e+00 1.2869454598266561e+01 5.5541352668032671e+00 8.7589539116325398e+01 
1319 921 2 1.0280003550866894e+00 2.7766960419643733e+03 1.0000000000000000e+00 1.2075062652564776e+01 5.9310444080244320e+00 8.7723471204793398e+01 
1248 850 2 1.0280003156022903e+00 -6.5359664848998909e+02 1.0000000000000000e+00 1.1968831553353883e+01 6.0164977692794634e+00 8.7784123475501573e+01 
1938 1540 2 1.0280002659441994e+00 2.7211582678382410e+03 1.0000000000000000e+00 1.2169303664301099e+01 6.2099986981867437e+00 8.7879430412489214e+01 
1795 1397 2 1.0280001297034405e+00 -3.6383681331932667e+03 1.0000000000000000e+00 9.6557737215615660e+00 6.6528125117046235e+00 8.7489935090535042e+01 
1035 637 2 1.0279998694352224e+00 2.5697949884829491e+03 1.0000000000000000e+00 1.8041844950061396e+01 5.1485632136837491e+00 8.4907142318099076e+01 
632 234 2 1.0279998411023996e+00 -2.5579594901468950e+03 1.0000000000000000e+00 1.7461635748345618e+01 6.2200589532916029e+00 8.4991694374187745e+01 
2019 1621 2 1.0279998682142704e+00 -1.9716359121852031e+03 1.0000000000000000e+00 1.6868034733643501e+01 5.5028950301661368e+00 8.4982100314918668e+01 
1034 636 2 1.0279998767932834e+00 2.5699640518861193e+03 1.0000000000000000e+00 1.9001122462554854e+01 4.8580662067081057e+00 8.5058425551729584e+01 
675 277 2 1.0279998819797180e+00 -1.1373637530308902e+03 1.0000000000000000e+00 1.7867914511055545e+01 4.3334391914320092e+00 8.5063893554023082e+01 
674 276 2 1.0279998854108330e+00 -1.1373947338827431e+03 1.0000000000000000e+00 1.9168067273255797e+01 4.4570355408011908e+00 8.5259806639010989e+01 
683 285 2 1.0279998925909801e+00 -3.6136136624690198e+03 1.0000000000000000e+00 1.7217640034174984e+01 3.7928311543325406e+00 8.5237529801761340e+01 
1606 1208 2 1.0279998353010649e+00 9.5984908340937324e+01 1.0000000000000000e+00 1.5810056139052270e+01 6.4382922693766620e+00 8.5421364090840711e+01 
682 284 2 1.0279998942320649e+00 -3.6138135776031954e+03 1.0000000000000000e+00 1.9614206935592996e+01 4.3588605133650713e+00 8.5489371092850718e+01 
854 456 2 1.0279999203206402e+00 1.8878335726819142e+02 1.0000000000000000e+00 1.4918101125953005e+01 4.9507806549716484e+00 8.5511188732521148e+01 
846 448 2 1.0279999067936973e+00 -9.8893099901233279e+02 1.0000000000000000e+00 1.6688528774496248e+01 3.2535305854279892e+00 8.5574637110186941e+01 
629 231 2 1.0279998740801883e+00 -2.5582794524513547e+03 1.0000000000000000e+00 1.9782739088735941e+01 6.3094091550570450e+00 8.4911951925347950e+01 
942 544 2 1.0279999278803926e+00 1.1435320320200071e+04 1.0000000000000000e+00 1.7784825692489385e+01 3.1565650399864911e+00 8.5756243190765488e+01 
690 292 2 1.0279999149483920e+00 1.9832517826630790e+03 1.0000000000000000e+00 1.9225982112660830e+01 3.7693520484017911e+00 8.5831579512483600e+01 
955 557 2 1.0279999135574005e+00 7.2070729170716095e+03 1.0000000000000000e+00 1.4273988205709491e+01 6.3007863377577173e+00 8.5894056971073155e+01 
943 545 2 1.0279999261055506e+00 1.1435176171052839e+04 1.0000000000000000e+00 1.8891464415300316e+01 3.5433728107933335e+00 8.5872923025306704e+01 
1979 1581 2 1.0280000349465350e+00 5.2302981778302974e+03 1.0000000000000000e+00 1.3738037999382765e+01 5.0999838046993604e+00 8.6108737766957034e+01 
1124 726 2 1.0279999850257282e+00 -4.4265010853692092e+02 1.0000000000000000e+00 1.4623682195748639e+01 3.6534474466956204e+00 8.6327607406756258e+01 
847 449 2 1.0279999100412471e+00 -9.8953534536083748e+02 1.0000000000000000e+00 1.9840039877796464e+01 4.1402022513712939e+00 8.5845690425440580e+01 
715 317 2 1.0280001232258349e+00 -4.7835592312613733e+02 1.0000000000000000e+00 1.3793175469666995e+01 4.3640873098382844e+00 8.6629153354478944e+01 
1495 1097 2 1.0280000820111879e+00 7.2959322548383707e+03 1.0000000000000000e+00 1.4025422574527136e+01 4.1053160584835906e+00 8.6632934300595480e+01 
862 464 2 1.0280000804713771e+00 -8.8750780211684071e+02 1.0000000000000000e+00 1.4067834161423010e+01 4.0445276326672648e+00 8.6673356633576489e+01 
1553 1155 2 1.0280000695851541e+00 7.6326481216611428e+03 1.0000000000000000e+00 1.4176281373606397e+01 3.9159304118952045e+00 8.6723652405844447e+01 
2053 1655 2 1.0280002152244281e+00 -4.6733434648564817e+03 1.0000000000000000e+00 1.3494172752258013e+01 4.6393604158332415e+00 8.6751696111504927e+01 
401 3 2 1.0279999759186036e+00 7.4784506579431456e+02 1.0000000000000000e+00 1.5353382496996803e+01 2.9482130762550778e+00 8.6778001456966521e+01 
1305 907 2 1.0279999731934810e+00 7.3498726999723585e+03 1.0000000000000000e+00 1.5620604918360669e+01 2.8118409578454902e+00 8.6785723276683441e+01 
1968 1570 2 1.0279999952095225e+00 -7.9690693723206368e+03 1.0000000000000000e+00 1.4961097289597589e+01 3.2018410614209052e+00 8.6795756381809795e+01 
1315 917 2 1.0280000469768247e+00 1.1373999309200574e+03 1.0000000000000000e+00 1.4409025153489624e+01 3.6692806591706417e+00 8.6814405233748190e+01 
1924 1526 2 1.0280000659479935e+00 -1.0763366235006468e+04 1.0000000000000000e+00 1.4277096586662944e+01 3.7971724533199653e+00 8.6822773379330243e+01 
1203 805 2 1.0280000017101110e+00 9.0069795818618047e+02 1.0000000000000000e+00 1.4943246229498046e+01 3.2118161453197795e+00 8.6863232151739226e+01 
463 65 2 1.0280000329793211e+00 -3.1733028320335120e+03 1.0000000000000000e+00 1.4582427483067741e+01 3.5062824815476135e+00 8.6874418911719545e+01 
416 18 2 1.0279999893788314e+00 -7.0518321493723997e+03 1.0000000000000000e+00 1.5226750062607763e+01 3.0195702231790604e+00 8.6900197263640862e+01 
880 482 2 1.0279999838180729e+00 -2.1747524080551384e+03 1.0000000000000000e+00 1.5493228271828436e+01 2.8714997420670429e+00 8.6925404427612179e+01 
949 551 2 1.0279999830145110e+00 1.7511415278694642e+03 1.0000000000000000e+00 1.5609312019444765e+01 2.8156314274348659e+00 8.6918835755826450e+01 
1287 889 2 1.0280000392604172e+00 2.2351619976679726e+03 1.0000000000000000e+00 1.6579055979009116e+01 2.5606481340624745e+00 8.6971920845262531e+01 
1492 1094 2 1.0280000804422160e+00 1.8250180823987250e+03 1.0000000000000000e+00 1.4315487728517724e+01 3.7642121157825845e+00 8.7005721926335070e+01 
1415 1017 2 1.0279999914924463e+00 1.1276716840458773e+03 1.0000000000000000e+00 1.5804903240601430e+01 2.7406804258533581e+00 8.6993482064551543e+01 
1588 1190 2 1.0280000445012136e+00 -1.9424488512542976e+03 1.0000000000000000e+00 1.6595237794148638e+01 2.5656950657566524e+00 8.7019784502041560e+01 
1522 1124 2 1.0280001185989640e+00 7.0795482005444173e+03 1.0000000000000000e+00 1.7410095633110021e+01 2.6562869932441409e+00 8.7141539482688756e+01 
1585 1187 2 1.0280001142290942e+00 -1.9445764110715174e+03 1.0000000000000000e+00 1.8027492455356381e+01 2.8912952789637076e+00 8.7179934526806960e+01 
788 390 2 1.0280001210367706e+00 -6.4280355274545309e+03 1.0000000000000000e+00 1.7472469614951020e+01 2.6841123271087386e+00 8.7176862111236773e+01 
614 216 2 1.0280001173631084e+00 -4.8063122938295755e+03 1.0000000000000000e+00 1.7383780603631500e+01 2.6686082957255510e+00 8.7194449601697258e+01 
1117 719 2 1.0280001207747274e+00 -2.2539900210581541e+03 1.0000000000000000e+00 1.7494094843004696e+01 2.7073800557843266e+00 8.7221213960432507e+01 
691 293 2 1.0280001162950090e+00 1.9815156971751178e+03 1.0000000000000000e+00 1.7385324039705782e+01 2.6907689836070321e+00 8.7248302803803938e+01 
928 530 2 1.0280001209536935e+00 4.5858841984549481e+03 1.0000000000000000e+00 1.7576517111507322e+01 2.7458293031148266e+00 8.7252927995546244e+01 
1661 1263 2 1.0280001166657318e+00 7.4907923773261473e+02 1.0000000000000000e+00 1.4269955281152621e+01 3.8987271298813360e+00 8.7269817097918988e+01 
446 48 2 1.0280001199313538e+00 -9.1550667725560761e+03 1.0000000000000000e+00 1.7529622716239409e+01 2.7353974021183176e+00 8.7261393457198182e+01 
780 382 2 1.0280001144959736e+00 2.8023702721811346e+03 1.0000000000000000e+00 1.7380079002095876e+01 2.7082251710952563e+00 8.7289266426263282e+01 
1191 793 2 1.0280001189081491e+00 9.1409723000464510e+03 1.0000000000000000e+00 1.7542395015512636e+01 2.7500107815496442e+00 8.7283727704193993e+01 
1135 737 2 1.0280001186072463e+00 9.1407471928369505e+03 1.0000000000000000e+00 1.7524094886133589e+01 2.7448854232824731e+00 8.7284558998441028e+01 
2050 1652 2 1.0280001170898045e+00 -4.3886905125117537e+03 1.0000000000000000e+00 1.7530630736957679e+01 2.7599443168486837e+00 8.7310228928475027e+01 
1197 799 2 1.0280001168033694e+00 1.1526602699625923e+02 1.0000000000000000e+00 1.7526245594033604e+01 2.7604145205087645e+00 8.7313654321097019e+01 
777 379 2 1.0280001138047541e+00 2.8013511157943826e+03 1.0000000000000000e+00 1.7520006546082389e+01 2.7801100767388114e+00 8.7352739268522200e+01 
1509 1111 2 1.0280001133001808e+00 3.4459649741912763e+03 1.0000000000000000e+00 1.7491084984452577e+01 2.7724769710951760e+00 8.7354648264479366e+01 
1286 888 2 1.0280000488200947e+00 2.2341951263306864e+03 1.0000000000000000e+00 1.8702705068554550e+01 3.4258904596003430e+00 8.7372714785117992e+01 
1190 792 2 1.0280001117331985e+00 9.1409308065667992e+03 1.0000000000000000e+00 1.7563887598069009e+01 2.8100791698714529e+00 8.7379480302521969e+01 
2051 1653 2 1.0280001101847340e+00 -4.3887929000375570e+03 1.0000000000000000e+00 1.7547115708924167e+01 2.8146484053735064e+00 8.7395518457802481e+01 
447 49 2 1.0280001079279726e+00 -9.1551415324071695e+03 1.0000000000000000e+00 1.7565404114153331e+01 2.8353946830330652e+00 8.7417956331670112e+01 
1134 736 2 1.0280001081865457e+00 9.1406406491414091e+03 1.0000000000000000e+00 1.7549496086282119e+01 2.8285253650608415e+00 8.7415631603628157e+01 
925 527 2 1.0280001066181952e+00 4.5858557488990136e+03 1.0000000000000000e+00 1.7636435109114455e+01 2.8653475402992505e+00 8.7425086199008064e+01 
1200 802 2 1.0280001063482265e+00 1.1512106689616327e+02 1.0000000000000000e+00 1.7546471550405595e+01 2.8393182715373997e+00 8.7433056047764879e+01 
1120 722 2 1.0280001019743730e+00 -2.2541073232310109e+03 1.0000000000000000e+00 1.7561538315766196e+01 2.8719999051731562e+00 8.7471436375550041e+01 
1512 1114 2 1.0280001004616424e+00 3.4457434842531120e+03 1.0000000000000000e+00 1.7512207876232356e+01 2.8659257338049486e+00 8.7485482176101598e+01 
615 217 2 1.0280000981678179e+00 -4.8068094403047789e+03 1.0000000000000000e+00 1.7617184110306972e+01 2.9126438528523892e+00 8.7497948535385618e+01 
785 387 2 1.0280000981012904e+00 -6.4281435289607753e+03 1.0000000000000000e+00 1.7597376142599408e+01 2.9073996753739570e+00 8.7500606964751228e+01 
1523 1125 2 1.0280000935693003e+00 7.0793317139576529e+03 1.0000000000000000e+00 1.7623052770517649e+01 2.9437054303106738e+00 8.7532647280080980e+01 