LAMMPS data file via write_data, version 30 Jul 2016, timestep = 50000000

384 atoms
2 atom types

0.0000000000000000e+00 2.0000000000000000e+01 xlo xhi
0.0000000000000000e+00 2.0000000000000000e+01 ylo yhi
0.0000000000000000e+00 2.0000000000000000e+01 zlo zhi

Masses

1 3.89
2 0.42

Atoms # meso-molecular

349 1 2 1.0000000000008852e-01 6.0990805189758621e+00 1.0000000000000000e+00 5.8069741903136549e+00 1.2587275117525245e+01 1.2083877701205271e+01 
166 1 2 9.9999999999967296e-02 1.3211355313532147e+00 1.0000000000000000e+00 5.7957913799288869e+00 1.2866006798420106e+01 1.2918783663567956e+01 
302 1 2 9.9999999999983769e-02 -3.6916060054677313e+00 1.0000000000000000e+00 5.2672715823417580e+00 1.3270364753625852e+01 1.2927942582037543e+01 
174 1 2 9.9999999999980854e-02 1.3809468462876082e+00 1.0000000000000000e+00 5.4287636886662289e+00 1.3244146804703867e+01 1.2942686503614501e+01 
239 1 2 9.9999999999976802e-02 -2.6266112699000495e+00 1.0000000000000000e+00 6.0491527541169674e+00 1.2584507274392660e+01 1.2985204962558113e+01 
238 1 2 9.9999999999977010e-02 -3.4038731217715101e+00 1.0000000000000000e+00 6.0794400573074139e+00 1.2528344408572346e+01 1.2993603664087358e+01 
237 1 2 9.9999999999979702e-02 -8.9972581832906950e-01 1.0000000000000000e+00 6.2581599835591541e+00 1.2335806475779389e+01 1.3068808984411250e+01 
45 1 2 1.0000000000002221e-01 -1.6825137165778856e+00 1.0000000000000000e+00 6.6001235487431549e+00 1.2189780069395789e+01 1.0010951396317239e+01 
183 1 2 9.9999999999999784e-02 -6.5580870840528860e+00 1.0000000000000000e+00 2.6477738825479791e+00 1.5081728600254394e+01 1.2548136003488420e+01 
111 1 2 9.9999999999997133e-02 -2.2425595836332959e-01 1.0000000000000000e+00 2.8136337521643378e+00 1.4913937197379258e+01 1.2046804261080149e+01 
47 1 2 9.9999999999999353e-02 -6.9079191103021054e-01 1.0000000000000000e+00 2.8386716174127997e+00 1.4480708798683491e+01 1.2211824737543974e+01 
119 1 2 1.0000000000000067e-01 -6.4884110883732991e+00 1.0000000000000000e+00 2.6602961971897843e+00 1.5126619811325684e+01 1.2720707798550684e+01 
110 1 2 9.9999999999997369e-02 4.0520069692647196e+00 1.0000000000000000e+00 2.9746043511169260e+00 1.4595344678781792e+01 1.1941237373530132e+01 
120 1 2 1.0000000000000238e-01 -3.0062057514678644e+00 1.0000000000000000e+00 2.9707617759500100e+00 1.5972857657939418e+01 1.2732275908301744e+01 
118 1 2 1.0000000000000908e-01 -1.5866966564637883e+00 1.0000000000000000e+00 3.0910054836761307e+00 1.4094015496343159e+01 1.2794751650420670e+01 
55 1 2 1.0000000000000664e-01 1.2646023789077512e-01 1.0000000000000000e+00 2.9645608861522712e+00 1.4286754970927113e+01 1.2923712136852426e+01 
182 1 2 1.0000000000000704e-01 -9.1107817654953371e-01 1.0000000000000000e+00 2.9606849986968826e+00 1.4713383495279784e+01 1.3224984065471588e+01 
175 1 2 1.0000000000000865e-01 -4.0357525384160056e+00 1.0000000000000000e+00 3.4838735027918775e+00 1.4283952066962481e+01 1.1726792608497510e+01 
366 1 2 1.0000000000001895e-01 -1.0613633706610899e+00 1.0000000000000000e+00 5.2191746277912401e+00 1.5856619292933976e+01 1.0407394175506736e+01 
374 1 2 1.0000000000001809e-01 -3.8147001849310245e+00 1.0000000000000000e+00 5.2319740269415487e+00 1.5866426742273729e+01 1.0403197468072314e+01 
373 1 2 1.0000000000001852e-01 -3.6635665291155002e+00 1.0000000000000000e+00 5.2647074726676655e+00 1.5855520303393073e+01 1.0388546551984536e+01 
382 1 2 1.0000000000001882e-01 -4.8820644195217113e+00 1.0000000000000000e+00 5.3320963607840808e+00 1.5805028291772375e+01 1.0357225651932916e+01 
365 1 2 1.0000000000001849e-01 3.8133658205871050e-02 1.0000000000000000e+00 5.3440446265370465e+00 1.5770225459422480e+01 1.0349517179378914e+01 
301 1 2 1.0000000000002081e-01 8.4606285461550645e-01 1.0000000000000000e+00 5.5631014125362608e+00 1.5617036340937883e+01 1.0272601774155870e+01 
375 1 2 1.0000000000000746e-01 -2.6253235119371610e+00 1.0000000000000000e+00 6.3704119078499701e+00 1.6518176564196594e+01 1.0723824393776455e+01 
310 1 2 9.9999999999982811e-02 2.1766243378110173e-02 1.0000000000000000e+00 6.4383051159529909e+00 1.5208532492020687e+01 1.1355016412514205e+01 
246 1 2 9.9999999999988529e-02 -4.5969059938750606e-01 1.0000000000000000e+00 5.1397459963358170e+00 1.3371501672133130e+01 1.2967067330981029e+01 
128 1 2 1.0000000000000948e-01 1.3765663592774837e+00 1.0000000000000000e+00 4.6563447399271602e+00 1.7623486648732388e+01 1.1679996270540189e+01 
112 1 2 1.0000000000001422e-01 8.9946216173063966e+00 1.0000000000000000e+00 4.8400757725091754e+00 1.8013313204263760e+01 1.1985456096272255e+01 
190 1 2 1.0000000000004168e-01 4.7219396373716043e+00 1.0000000000000000e+00 6.3078224693121703e+00 1.9094176089090695e+01 1.1556690840079856e+01 
311 1 2 9.9999999999993580e-02 -3.3446888317490773e+00 1.0000000000000000e+00 5.6871464092408273e+00 1.6713202201104583e+01 1.3042405624027086e+01 
296 1 2 9.9999999999989569e-02 2.5939979493307965e+00 1.0000000000000000e+00 4.9813577674745835e+00 1.7971549830856688e+01 1.3094935794689926e+01 
383 1 2 1.0000000000000099e-01 8.9395936131023701e-01 1.0000000000000000e+00 6.5689823717575226e+00 1.7576771784749091e+01 1.0586280066397622e+01 
360 1 2 9.9999999999976233e-02 -1.0813568354245666e+00 1.0000000000000000e+00 4.3991281350013409e+00 1.7649984669162723e+01 1.3158053922659944e+01 
176 1 2 1.0000000000000646e-01 -2.2924803925438293e+00 1.0000000000000000e+00 6.6517992022275694e+00 1.9244030333849981e+01 1.1695863274819573e+01 
240 1 2 9.9999999999983588e-02 3.6232676922364022e+00 1.0000000000000000e+00 5.3307263739976021e+00 1.7635460660503238e+01 1.3326639504899596e+01 
367 1 2 1.0000000000000542e-01 -2.4537541639778615e+00 1.0000000000000000e+00 4.5669295544593353e+00 1.5153264971001217e+01 1.3575086401508340e+01 
376 1 2 1.0000000000000453e-01 -2.3491714920833306e+00 1.0000000000000000e+00 4.5640361803396461e+00 1.5958321852027366e+01 1.3710649782451558e+01 
312 1 2 1.0000000000000120e-01 -1.6074195252726522e+00 1.0000000000000000e+00 4.5826410526060508e+00 1.6683975565471528e+01 1.3746658932674274e+01 
368 1 2 9.9999999999997632e-02 -3.3384799993741292e+00 1.0000000000000000e+00 4.2671708407941864e+00 1.7360362299754744e+01 1.3403804647069173e+01 
303 1 2 9.9999999999990027e-02 -3.4438071708682911e+00 1.0000000000000000e+00 4.8656356086446761e+00 1.7507915089715588e+01 1.3507742472208928e+01 
304 1 2 9.9999999999988196e-02 -1.5091046339986476e+00 1.0000000000000000e+00 5.0509747529124818e+00 1.7547061556387607e+01 1.3465892744844176e+01 
217 1 2 9.9999999999997397e-02 4.5050472552012559e+00 1.0000000000000000e+00 1.0178662613111953e+01 7.9792076631669469e+00 2.5869012636734188e+00 
218 1 2 1.0000000000000220e-01 -3.5943985253004329e-01 1.0000000000000000e+00 1.0375529597386558e+01 7.7855500575225909e+00 2.3365163980859416e+00 
225 1 2 1.0000000000000210e-01 -6.3909395793515678e-01 1.0000000000000000e+00 1.0394722394359309e+01 7.7282149559660995e+00 2.3225653061067946e+00 
153 1 2 1.0000000000000338e-01 -2.7369174710885122e+00 1.0000000000000000e+00 1.0426396043531728e+01 7.8147884420387177e+00 2.3154111683800180e+00 
154 1 2 1.0000000000003685e-01 1.1422888150886559e+00 1.0000000000000000e+00 1.0476118745246939e+01 8.4261772956033774e+00 2.9457760547480603e+00 
161 1 2 1.0000000000000388e-01 -2.4134442799029596e+00 1.0000000000000000e+00 1.0518762638415899e+01 7.7125363345691618e+00 2.2749863276266642e+00 
89 1 2 1.0000000000000467e-01 -9.6037181765213764e-01 1.0000000000000000e+00 1.0625570118720510e+01 7.7504896646956558e+00 2.2521550107153803e+00 
145 1 2 1.0000000000000912e-01 -8.5314522500500767e-01 1.0000000000000000e+00 1.0741680149489737e+01 8.1624274915563273e+00 2.3786987640905961e+00 
65 1 2 9.9999999999996730e-02 -3.4535079576925076e+00 1.0000000000000000e+00 9.9965880132036347e+00 2.1838305663929538e+00 5.0226762057494332e+00 
186 1 2 9.9999999999984851e-02 9.4593074692746946e+00 1.0000000000000000e+00 8.9271566852806412e+00 3.0891474128775651e+00 5.3707973092886290e+00 
193 1 2 1.0000000000000202e-01 -3.7976745622793329e-01 1.0000000000000000e+00 8.5661325161821615e+00 3.3161287462361884e+00 5.7121825505251431e+00 
129 1 2 1.0000000000001706e-01 -1.3646661114718963e+00 1.0000000000000000e+00 8.8818956338942563e+00 2.4227316063112556e+00 6.2240434609800133e+00 
68 1 2 1.0000000000000248e-01 -1.2601081382343664e+00 1.0000000000000000e+00 9.6126888274085847e+00 1.7747615752782921e+00 6.5852063031175492e+00 
194 1 2 9.9999999999998798e-02 2.1380557082898481e+00 1.0000000000000000e+00 1.0064296393014347e+01 1.4192361041297565e+00 5.3394412746210635e+00 
125 1 2 9.9999999999995690e-02 -1.2351107185785608e+00 1.0000000000000000e+00 1.0073732799378837e+01 1.2449797209510032e+00 6.2883004787613554e+00 
73 1 2 9.9999999999972472e-02 -1.4788140687271958e+00 1.0000000000000000e+00 1.0417412006808107e+01 2.1374023015971115e+00 4.8721546773688056e+00 
130 1 2 1.0000000000000910e-01 -4.8855029363481917e-01 1.0000000000000000e+00 1.0608957863228754e+01 1.0609615919446087e+00 5.0169620671299509e+00 
189 1 2 1.0000000000000010e-01 1.2099516745297678e+00 1.0000000000000000e+00 1.0763626948492167e+01 4.2868180818107254e-01 6.0807207399270293e+00 
10 1 2 1.0000000000001358e-01 1.9596223923398330e+00 1.0000000000000000e+00 1.1802829340039024e+01 1.0836807504145354e+00 4.8889945755956941e+00 
74 1 2 1.0000000000000266e-01 -8.7189420374520310e-01 1.0000000000000000e+00 1.1652177143380117e+01 9.4438770744515010e-01 4.8627498796595443e+00 
9 1 2 1.0000000000000939e-01 -4.8776695431084893e-01 1.0000000000000000e+00 1.2137599879237623e+01 3.0517004393770691e-01 5.2796406256223483e+00 
1 1 2 1.0000000000001234e-01 -7.4811194855527297e-01 1.0000000000000000e+00 1.2050671171442755e+01 5.6428790937956397e-01 5.1325764634862878e+00 
331 1 2 1.0000000000000221e-01 9.5802109179038042e-01 1.0000000000000000e+00 1.2130969998824582e+01 2.2998303723186462e+00 5.2600452723148354e+00 
330 1 2 9.9999999999960662e-02 -3.3269179209735262e+00 1.0000000000000000e+00 1.2449252005715255e+01 2.8329701272241934e+00 5.5888001411422925e+00 
267 1 2 9.9999999999998423e-02 6.7714376629964712e-01 1.0000000000000000e+00 1.2877553461603956e+01 3.3330243353115021e+00 5.8657981774213788e+00 
137 1 2 1.0000000000001029e-01 1.1079036769157380e-01 1.0000000000000000e+00 9.1593710384186835e+00 4.6935729774506925e+00 5.0330910679515402e+00 
209 1 2 1.0000000000000603e-01 -6.3330070612465617e-01 1.0000000000000000e+00 9.2928988515847966e+00 4.8508647152031461e+00 4.9759122504493281e+00 
201 1 2 1.0000000000006640e-01 -1.1889743565105579e+00 1.0000000000000000e+00 9.2078153717041094e+00 5.0965445576258865e+00 5.2298060406507769e+00 
202 1 2 9.9999999999997383e-02 1.4120838987804010e+00 1.0000000000000000e+00 9.3989692421526136e+00 4.9451501083423341e+00 4.9314386244775621e+00 
138 1 2 9.9999999999977468e-02 -1.2135314390912209e+00 1.0000000000000000e+00 9.4586351819964314e+00 4.6660377434615370e+00 4.8347682202029487e+00 
210 1 2 9.9999999999986350e-02 -1.6747518916600228e+00 1.0000000000000000e+00 9.4460894269896052e+00 4.8706992156507027e+00 4.8806450016295528e+00 
146 1 2 9.9999999999974012e-02 4.4866764248651325e-02 1.0000000000000000e+00 9.5074439676351492e+00 4.7819247293757883e+00 4.8347735493716595e+00 
322 1 2 9.9999999999991609e-02 -3.4615050281122350e+00 1.0000000000000000e+00 1.2679480163758257e+01 3.5139959526607214e+00 5.6987281755961652e+00 
266 1 2 9.9999999999998243e-02 -2.0521155000924995e+00 1.0000000000000000e+00 1.2887976315869848e+01 3.9246122278601852e+00 5.7918205926425754e+00 
274 1 2 9.9999999999990472e-02 -1.6707181332853842e+00 1.0000000000000000e+00 1.1844150007645126e+01 6.3307207801884520e+00 4.7480549612292835e+00 
338 1 2 9.9999999999991596e-02 -3.4118787297014279e+00 1.0000000000000000e+00 1.1684145533261688e+01 6.2889861486936356e+00 4.4865834185891540e+00 
323 1 2 1.0000000000001039e-01 2.2120077353422068e-01 1.0000000000000000e+00 1.3122628995249588e+01 4.3006727553785504e+00 6.0215315751289280e+00 
211 1 2 9.9999999999934475e-02 4.2636147000310327e+00 1.0000000000000000e+00 1.0715423656787557e+01 5.5846958990431057e+00 6.2863406379900422e+00 
258 1 2 1.0000000000002261e-01 5.0380232176772943e-01 1.0000000000000000e+00 1.2934795195655328e+01 4.9456839973027291e+00 6.2726919428516927e+00 
82 1 2 9.9999999999987169e-02 2.0355168516279569e+00 1.0000000000000000e+00 9.9954724629168101e+00 6.9142927613651075e+00 3.3380788877838272e+00 
81 1 2 9.9999999999990027e-02 -3.1236728838418850e+00 1.0000000000000000e+00 9.9294205693919366e+00 7.0879837887571817e+00 3.3799002664348547e+00 
273 1 2 9.9999999999999103e-02 -2.8316890931835115e+00 1.0000000000000000e+00 1.2268145579862237e+01 6.7153482277312024e+00 4.8445102679757817e+00 
25 1 2 1.0000000000011457e-01 5.8258337013308348e-01 1.0000000000000000e+00 1.0258441500235193e+01 7.3876299110644901e+00 5.3457545359919223e+00 
26 1 2 1.0000000000002311e-01 -1.7122339219219951e+00 1.0000000000000000e+00 1.0510226456407972e+01 8.6989956033683438e+00 6.3162254676487537e+00 
346 1 2 1.0000000000004269e-01 7.2824689790901287e-01 1.0000000000000000e+00 1.2573868301889373e+01 8.1049467103510420e+00 3.9846763553078639e+00 
282 1 2 9.9999999999969461e-02 -1.8630104572254441e-01 1.0000000000000000e+00 1.2627280905986387e+01 8.0386231325433908e+00 4.0979286153406438e+00 
345 1 2 9.9999999999940109e-02 1.5027556874952780e-01 1.0000000000000000e+00 1.2610581591168213e+01 8.1625214505186907e+00 4.2293861495880858e+00 
162 1 2 9.9999999999872399e-02 8.9827743092175882e-01 1.0000000000000000e+00 1.2128612072002509e+01 9.0633707277630595e+00 5.2031161638589047e+00 
353 1 2 9.9999999999947436e-02 4.3089787602190350e+00 1.0000000000000000e+00 1.2692915695306459e+01 7.7727215553720752e+00 4.2129656549834520e+00 
337 1 2 1.0000000000000739e-01 -2.0545987382256499e+00 1.0000000000000000e+00 1.2707364587922882e+01 7.6918407473621730e+00 4.3520001288927466e+00 
17 1 2 1.0000000000005450e-01 6.0211103598274160e+00 1.0000000000000000e+00 1.2327503222445060e+01 8.4122411669817954e+00 6.2778204973272693e+00 
281 1 2 9.9999999999977343e-02 5.7339637723517196e+00 1.0000000000000000e+00 1.2711897462821707e+01 7.8113867566569022e+00 4.4627197340895934e+00 
69 1 2 9.9999999999994052e-02 1.4269762931738045e-01 1.0000000000000000e+00 8.2752484922720111e+00 2.4038289013484215e+00 7.1768568152028731e+00 
62 1 2 1.0000000000000023e-01 -4.6654213967425813e+00 1.0000000000000000e+00 9.1866686347484894e+00 1.1858132858936550e+00 8.8202206880738991e+00 
63 1 2 9.9999999999997119e-02 -3.2938037364674173e+00 1.0000000000000000e+00 8.7943154505986936e+00 1.0531485046219362e+00 9.0014586901574898e+00 
7 1 2 1.0000000000001087e-01 -3.6030985356126295e+00 1.0000000000000000e+00 8.4407380850934697e+00 1.1345046862145449e+00 9.1279621756347069e+00 
70 1 2 1.0000000000008011e-01 -1.2243414486957698e+00 1.0000000000000000e+00 8.1167519807728485e+00 1.8692260024609311e+00 9.4543687478754634e+00 
61 1 2 9.9999999999996037e-02 -1.4407431600605927e+00 1.0000000000000000e+00 8.2704518229254749e+00 2.4817606767563087e+00 9.8481962887083707e+00 
139 1 2 1.0000000000002050e-01 2.3604017112446316e+00 1.0000000000000000e+00 1.2180149674636185e+01 1.5794979427609863e+00 7.8618524746156178e+00 
203 1 2 1.0000000000001941e-01 1.0295279058871967e+00 1.0000000000000000e+00 1.3118177674201139e+01 1.8533254366509773e+00 8.1438559671246100e+00 
204 1 2 1.0000000000001995e-01 1.9402172018243276e+00 1.0000000000000000e+00 1.2684811416972622e+01 1.6335505793621814e+00 8.0395322023945734e+00 
268 1 2 1.0000000000002933e-01 -3.8694122934313069e-01 1.0000000000000000e+00 1.1562069607742453e+01 1.8828457256451834e+00 7.8985166052249340e+00 
5 1 2 1.0000000000001405e-01 -1.8360557661470684e+00 1.0000000000000000e+00 1.0261781657918753e+01 1.4909275920185376e+00 9.0576322654575083e+00 
6 1 2 1.0000000000001306e-01 -2.5448912983867435e+00 1.0000000000000000e+00 1.0195942764353852e+01 1.4780922950062674e+00 9.0198902232424469e+00 
332 1 2 1.0000000000000067e-01 1.6935983667481085e+00 1.0000000000000000e+00 1.2432582250405240e+01 1.4281785325022782e+00 9.8203486407518117e+00 
327 1 2 9.9999999999997813e-02 -9.8972264123456022e-01 1.0000000000000000e+00 1.2818866208740307e+01 1.5128843579728202e+00 9.8778998513841980e+00 
13 1 2 9.9999999999928840e-02 7.7560931467889760e-01 1.0000000000000000e+00 1.0930222097389670e+01 2.9702556233234914e+00 9.7107533156272723e+00 
140 1 2 9.9999999999962938e-02 1.5593534792629917e+00 1.0000000000000000e+00 7.5118203861598420e+00 3.4199611750628489e+00 7.9338564776051772e+00 
76 1 2 9.9999999999991401e-02 1.6973477999215596e+00 1.0000000000000000e+00 7.4890776678449926e+00 3.4745719404787208e+00 8.0439992716627398e+00 
75 1 2 9.9999999999984809e-02 1.3243860617628738e+00 1.0000000000000000e+00 7.4811982926330050e+00 3.4809750648764872e+00 8.0832622974854029e+00 
67 1 2 9.9999999999993677e-02 -2.1647625675018967e+00 1.0000000000000000e+00 7.5156280914573221e+00 3.6825938476364986e+00 8.0895201934252565e+00 
4 1 2 9.9999999999999617e-02 9.9271391083947391e-02 1.0000000000000000e+00 7.5422730864872705e+00 3.7312324059266180e+00 8.0376146378774429e+00 
131 1 2 9.9999999999996356e-02 -1.1444905788794038e+00 1.0000000000000000e+00 7.5487304866379024e+00 3.8142518339756575e+00 8.1153556625855217e+00 
77 1 2 1.0000000000003600e-01 1.4839783386538117e+00 1.0000000000000000e+00 7.7982575443279343e+00 4.6190053894877181e+00 8.6935167786748320e+00 
132 1 2 1.0000000000010223e-01 -1.5167062062294585e+00 1.0000000000000000e+00 9.4388466713479282e+00 4.5154544668021064e+00 7.4111196952643548e+00 
158 1 2 1.0000000000001574e-01 2.9416449544826082e+00 1.0000000000000000e+00 7.7521917367373394e+00 5.9929997958463739e+00 9.4006510358751356e+00 
86 1 2 9.9999999999965741e-02 -1.8339113877377162e+00 1.0000000000000000e+00 9.5762475876920856e+00 5.6123073751489567e+00 9.5289314690692262e+00 
14 1 2 9.9999999999862213e-02 4.8524049017602411e-01 1.0000000000000000e+00 9.8394676533111411e+00 3.9734253818926826e+00 9.4784654118105838e+00 
195 1 2 9.9999999999943814e-02 -7.4194245597839370e-01 1.0000000000000000e+00 1.0051894680338144e+01 3.6264411865437776e+00 7.4681885620769997e+00 
325 1 2 1.0000000000000225e-01 -7.5282356875244894e-01 1.0000000000000000e+00 1.2906067442255290e+01 4.8681140250535710e+00 9.7759125877805868e+00 
257 1 2 1.0000000000002301e-01 5.1559096909024245e+00 1.0000000000000000e+00 1.2902922794408187e+01 5.0744399950555481e+00 6.8398184023626669e+00 
329 1 2 1.0000000000000309e-01 -4.7191130829181418e+00 1.0000000000000000e+00 1.2712854709356817e+01 5.1768431286667633e+00 6.9736236525645454e+00 
265 1 2 9.9999999999970737e-02 1.8789312079560081e+00 1.0000000000000000e+00 1.2483437821938312e+01 5.2327588659872033e+00 7.1735857662461244e+00 
324 1 2 1.0000000000006881e-01 2.1707345009101542e+00 1.0000000000000000e+00 1.1459129432479836e+01 4.5029354291453139e+00 8.2616533658469109e+00 
260 1 2 1.0000000000003165e-01 2.0093662722147312e+00 1.0000000000000000e+00 1.1515347322913295e+01 4.7078004711784338e+00 8.3150131915696299e+00 
22 1 2 1.0000000000001383e-01 2.9073259860391434e+00 1.0000000000000000e+00 1.1218822679305312e+01 5.7088314780535638e+00 9.6525142139024691e+00 
326 1 2 9.9999999999950712e-02 -2.2872048869477610e+00 1.0000000000000000e+00 1.2849485424950737e+01 5.0497715317413725e+00 9.7892747221678693e+00 
333 1 2 1.0000000000001455e-01 -2.4038909482763171e+00 1.0000000000000000e+00 1.2857847976552012e+01 4.9463257264009561e+00 9.8780592096439968e+00 
11 1 2 9.9999999999988071e-02 1.1909811657065132e+00 1.0000000000000000e+00 9.9472889752345566e+00 6.9754821542112051e+00 8.3342786310221051e+00 
28 1 2 9.9999999999973652e-02 -2.2896794412935222e+00 1.0000000000000000e+00 9.0825453569153662e+00 7.3205018271968907e+00 7.0555336314969823e+00 
20 1 2 9.9999999999971237e-02 -1.7547057782429487e+00 1.0000000000000000e+00 8.9872841835863841e+00 7.5067167017480267e+00 7.1554874642152990e+00 
84 1 2 9.9999999999974151e-02 -1.0735474635960125e+00 1.0000000000000000e+00 8.9814296734767431e+00 7.6025489020589392e+00 7.1452456655805046e+00 
19 1 2 1.0000000000006262e-01 -1.8204872945775369e-01 1.0000000000000000e+00 8.8864237102016812e+00 8.0324547542032985e+00 7.4324526537111089e+00 
92 1 2 1.0000000000000683e-01 -1.8227716941185155e+00 1.0000000000000000e+00 9.0665255866461170e+00 7.8463928638554092e+00 7.0086702844520108e+00 
83 1 2 1.0000000000004032e-01 1.7198695620879834e+00 1.0000000000000000e+00 9.7695310900841541e+00 8.7979473275299149e+00 7.7108072555844887e+00 
163 1 2 9.9999999999992650e-02 6.6295308044969947e-01 1.0000000000000000e+00 9.0855849170363996e+00 8.1272766292117478e+00 7.0960022044078936e+00 
157 1 2 1.0000000000001574e-01 2.1928608224564985e+00 1.0000000000000000e+00 9.0745075979956820e+00 7.8091466698770349e+00 9.5018756943021536e+00 
30 1 2 9.9999999999997244e-02 -3.9525901013068221e-01 1.0000000000000000e+00 7.8564034378825713e+00 8.8294692545306059e+00 9.7408004639447725e+00 
94 1 2 1.0000000000000067e-01 -7.1466576007171856e-01 1.0000000000000000e+00 7.5787945807248924e+00 8.6094533353594755e+00 9.8337536065472868e+00 
18 1 2 1.0000000000001899e-01 -8.9330601576557950e-02 1.0000000000000000e+00 1.0976552025635772e+01 9.5724174336736993e+00 6.8494911132574385e+00 
12 1 2 9.9999999999868514e-02 1.4887919535999843e+00 1.0000000000000000e+00 1.0104699701178285e+01 7.1061250456782847e+00 8.2655100183240595e+00 
284 1 2 9.9999999999989431e-02 -3.0747330195267470e+00 1.0000000000000000e+00 1.2710830416520240e+01 7.7427563105153547e+00 9.2205201598896558e+00 
155 1 2 9.9999999999929826e-02 -2.0564071722718141e-01 1.0000000000000000e+00 1.2350823203001056e+01 7.3402910617709622e+00 9.8618748029681278e+00 
348 1 2 1.0000000000008288e-01 -2.2306644067796766e-01 1.0000000000000000e+00 1.3300023941630275e+01 8.8543342497406510e+00 7.5247647134772411e+00 
91 1 2 1.0000000000000937e-01 2.1754769623227235e+00 1.0000000000000000e+00 1.0724716433607281e+01 9.0296275208406591e+00 7.6034308521210949e+00 
27 1 2 1.0000000000002872e-01 6.5840527157930054e-02 1.0000000000000000e+00 1.0897155715717609e+01 9.2517741233530000e+00 7.4883351393924942e+00 
212 1 2 1.0000000000001630e-01 -2.6585863656612052e-01 1.0000000000000000e+00 1.2884628120074701e+01 7.6528345674027607e+00 9.2012441297935759e+00 
127 1 2 1.0000000000003943e-01 5.9376044506493040e+00 1.0000000000000000e+00 8.5706017753693011e+00 2.1906165095773691e+00 1.0358811841920986e+01 
126 1 2 1.0000000000008477e-01 2.1358081510133884e+00 1.0000000000000000e+00 9.7063464836610844e+00 3.1692156139994352e+00 1.0440552967674398e+01 
207 1 2 1.0000000000000064e-01 3.0114698404885325e+00 1.0000000000000000e+00 8.7054730382077583e+00 5.7247025370634741e-01 1.2241587520307087e+01 
206 1 2 9.9999999999986086e-02 3.7712279667717481e+00 1.0000000000000000e+00 8.8552802732153371e+00 4.0897087362755996e-01 1.2325342473315903e+01 
199 1 2 9.9999999999998493e-02 -3.0806339406883314e+00 1.0000000000000000e+00 9.4611163560791400e+00 6.2808584904993514e-01 1.2544801596197047e+01 
198 1 2 9.9999999999990763e-02 1.3881409990061537e+00 1.0000000000000000e+00 9.6489838076806009e+00 8.7765137152796713e-01 1.2615247862859276e+01 
136 1 2 1.0000000000000246e-01 2.7777895213679873e+00 1.0000000000000000e+00 1.0483977642725508e+01 5.3911395225088909e-01 1.0598088124141432e+01 
328 1 2 1.0000000000001127e-01 6.8186383027866899e+00 1.0000000000000000e+00 1.0869123129696062e+01 1.3033054231923471e+00 1.2222110814624889e+01 
263 1 2 1.0000000000001501e-01 -1.2253237807328091e-01 1.0000000000000000e+00 1.0409769300398530e+01 5.2337456032962371e-01 1.2179533117797492e+01 
264 1 2 1.0000000000000256e-01 4.9351030700073855e+00 1.0000000000000000e+00 1.0007357457528208e+01 1.3600757381857831e-01 1.0540300795984530e+01 
135 1 2 9.9999999999958164e-02 -9.8187564259909887e-01 1.0000000000000000e+00 1.0651760932875286e+01 2.3207675554341582e+00 1.2444522192834579e+01 
143 1 2 9.9999999999949254e-02 -5.6704137942470867e-01 1.0000000000000000e+00 1.0607232111468248e+01 2.2222157087541503e+00 1.2473834612481818e+01 
200 1 2 9.9999999999986391e-02 3.9918357871854393e-01 1.0000000000000000e+00 1.0566438487619891e+01 1.4232619643900077e+00 1.2539378960160580e+01 
134 1 2 9.9999999999985711e-02 2.6766208914511620e+00 1.0000000000000000e+00 1.0528805997550203e+01 1.9825717069851088e+00 1.2535652218962685e+01 
272 1 2 9.9999999999995981e-02 5.0392224078920167e+00 1.0000000000000000e+00 1.2075154494698856e+01 3.1892874684751922e+00 1.2777151669027255e+01 
141 1 2 1.0000000000000452e-01 2.9119732029640675e+00 1.0000000000000000e+00 7.3730272307229807e+00 6.5622862400399775e+00 1.0225514634055131e+01 
149 1 2 1.0000000000000564e-01 7.8355025832749892e-01 1.0000000000000000e+00 7.3769756636734112e+00 6.5875327643411952e+00 1.0155070153549694e+01 
150 1 2 1.0000000000001241e-01 2.6088068337007071e+00 1.0000000000000000e+00 7.5241269152217072e+00 5.8884554725212350e+00 1.0050143874417326e+01 
8 1 2 9.9999999999988182e-02 -1.6680954132247954e+00 1.0000000000000000e+00 7.8987881453217748e+00 5.1837558609025622e+00 1.1372521956283874e+01 
72 1 2 1.0000000000007120e-01 -3.5502123509441259e+00 1.0000000000000000e+00 8.8017469036482563e+00 4.1682982111822779e+00 1.1352185872941019e+01 
80 1 2 1.0000000000000371e-01 -3.5696524552458380e+00 1.0000000000000000e+00 8.1436311268461861e+00 4.9086695450319935e+00 1.1615410237185351e+01 
15 1 2 9.9999999999987058e-02 -3.8208606731796673e+00 1.0000000000000000e+00 9.0667906201674295e+00 4.4887286145517571e+00 1.2393107259909536e+01 
79 1 2 9.9999999999985961e-02 -5.0798336608655799e+00 1.0000000000000000e+00 8.8517948258766399e+00 4.8743263004203268e+00 1.2554280660187100e+01 
24 1 2 1.0000000000002313e-01 -2.6964872698366564e+00 1.0000000000000000e+00 8.8014954379332924e+00 5.6101708194064841e+00 1.2814488526284043e+01 
87 1 2 1.0000000000002068e-01 -1.8983778005410330e+00 1.0000000000000000e+00 8.8376357213571186e+00 5.5563692164441152e+00 1.2839678216645721e+01 
16 1 2 1.0000000000001642e-01 -3.4408558181549407e+00 1.0000000000000000e+00 8.9491798453089491e+00 5.4246638034351990e+00 1.2903756782813048e+01 
71 1 2 9.9999999999993913e-02 -1.5949662679929393e+00 1.0000000000000000e+00 9.6933862285134929e+00 4.0863335202248576e+00 1.0423702031848137e+01 
88 1 2 1.0000000000004443e-01 -9.4935859420212432e-01 1.0000000000000000e+00 9.1713175809604142e+00 5.5901011595342283e+00 1.3114630884783823e+01 
21 1 2 9.9999999999999964e-02 1.5885366273889749e+00 1.0000000000000000e+00 1.1459203036795063e+01 6.2229260881763890e+00 1.0454859146277968e+01 
334 1 2 9.9999999999930742e-02 -1.5728639225452912e+00 1.0000000000000000e+00 1.2486775284332118e+01 5.6371628474773150e+00 1.1603056854835776e+01 
342 1 2 1.0000000000018837e-01 7.3058193656043724e-01 1.0000000000000000e+00 1.2583864409639638e+01 5.0270798829755057e+00 1.1424410604662055e+01 
142 1 2 1.0000000000003743e-01 3.9294244500815276e+00 1.0000000000000000e+00 1.0620228000216905e+01 6.0775587401414839e+00 1.0921431360649629e+01 
144 1 2 1.0000000000002864e-01 4.8539325019884743e+00 1.0000000000000000e+00 1.1276194341132056e+01 6.4849890289983882e+00 1.1156605163041453e+01 
278 1 2 9.9999999999963729e-02 -2.0529104370140843e+00 1.0000000000000000e+00 1.2426210740738705e+01 5.4749256240522524e+00 1.2500250499679741e+01 
343 1 2 9.9999999999968822e-02 -5.6750049757206780e+00 1.0000000000000000e+00 1.2137430692055911e+01 5.6696466148490661e+00 1.3029621468819425e+01 
335 1 2 1.0000000000001003e-01 -3.2699591303816540e+00 1.0000000000000000e+00 1.2744331295521292e+01 3.9498582203247743e+00 1.3224227715543863e+01 
336 1 2 9.9999999999989889e-02 -1.4351379644050875e+00 1.0000000000000000e+00 1.2475396103963776e+01 3.6240920281812232e+00 1.3302629839722950e+01 
271 1 2 9.9999999999996203e-02 -2.0020947105855997e+00 1.0000000000000000e+00 1.2585856788486257e+01 3.7020356161949168e+00 1.3312025389904402e+01 
280 1 2 9.9999999999983075e-02 -1.9706871489087232e+00 1.0000000000000000e+00 1.2509539635607625e+01 3.6671250408959288e+00 1.3317797648127126e+01 
85 1 2 1.0000000000000396e-01 -1.6889456427000784e+00 1.0000000000000000e+00 7.3536741881316017e+00 6.6919079880089170e+00 1.0215024468465993e+01 
93 1 2 1.0000000000000221e-01 -1.1991904376570850e+00 1.0000000000000000e+00 7.3146940815778745e+00 7.0337010861753280e+00 1.0186459183483958e+01 
78 1 2 9.9999999999941247e-02 -7.4247134777922819e-01 1.0000000000000000e+00 8.0820663353950177e+00 7.1591239532169269e+00 1.1427123072375718e+01 
101 1 2 9.9999999999909453e-02 -1.9110143018674162e+00 1.0000000000000000e+00 7.5695921585242152e+00 9.3031868942053020e+00 1.0404162538886220e+01 
29 1 2 9.9999999999986253e-02 -7.8739089965421516e-01 1.0000000000000000e+00 8.0381705996920996e+00 8.4295474161016273e+00 1.0967845360976860e+01 
36 1 2 1.0000000000040134e-01 2.9258409480922937e-01 1.0000000000000000e+00 8.0118456256972035e+00 8.9616830192127921e+00 1.1008972082009217e+01 
37 1 2 9.9999999999922526e-02 -2.7035436070101726e+00 1.0000000000000000e+00 7.5439322835843026e+00 9.3102055204997054e+00 1.0597392021710649e+01 
230 1 2 1.0000000000000264e-01 -2.0331502370443335e+00 1.0000000000000000e+00 9.4455412249558837e+00 9.6156286791387746e+00 1.3174119212313967e+01 
359 1 2 9.9999999999938152e-02 6.4233293671246345e+00 1.0000000000000000e+00 9.1600908531415932e+00 8.4618312336053734e+00 1.3195284528411799e+01 
352 1 2 9.9999999999996453e-02 -2.7787030387757392e+00 1.0000000000000000e+00 1.1679385730128027e+01 7.2544498009220613e+00 1.3077124118805557e+01 
344 1 2 1.0000000000000360e-01 -4.0743873741189169e+00 1.0000000000000000e+00 1.1614136013495848e+01 7.5327768991413624e+00 1.2979910085082706e+01 
229 1 2 1.0000000000005468e-01 5.6086588633512777e+00 1.0000000000000000e+00 1.3235229699958660e+01 9.4247465015134217e+00 1.1960771003502128e+01 
228 1 2 1.0000000000006717e-01 3.7558124619936621e+00 1.0000000000000000e+00 1.3154062401873848e+01 9.2232732164216689e+00 1.1946021691325679e+01 