LAMMPS (30 Jul 2016)
atom_style         meso-molecular
dimension          3
newton             on
units              micro
read_data          zs_coating_50_1.50.data
  orthogonal box = (0 0 0) to (450 24 240)
  4 by 1 by 3 MPI processor grid
  reading atoms ...
  42464 atoms

variable           h         equal 2.0
variable           h_act     equal 3.0
variable 		   h_mix	 equal (${h}+${h_act})/2.0
variable 		   h_mix	 equal (2+${h_act})/2.0
variable 		   h_mix	 equal (2+3)/2.0
variable           c     equal 100.0             # soundspeed for Tait's EOS
variable           dt    equal 0.0001
variable		   visc  equal 2357.8			 # viscosity in g/m*s (avg visc should be 2.3578 kg/m*s)

group              cbd type 1
5366 atoms in group cbd
group			   solvent type 2
24666 atoms in group solvent
group  			   cbd_solvent type 1 2
30032 atoms in group cbd_solvent
group			   active type 3
6576 atoms in group active
group              slurry type 1 2 3
36608 atoms in group slurry
group              bc type 4
4788 atoms in group bc

pair_style         hybrid/overlay sph/rhosum 1 sph/taitwater/morris
pair_coeff         * * sph/taitwater/morris 0.93 ${c} ${visc} ${h}
pair_coeff         * * sph/taitwater/morris 0.93 100 ${visc} ${h}
pair_coeff         * * sph/taitwater/morris 0.93 100 2357.8 ${h}
pair_coeff         * * sph/taitwater/morris 0.93 100 2357.8 2
pair_coeff         * * sph/rhosum ${h}
pair_coeff         * * sph/rhosum 2



timestep    ${dt}
timestep    0.0001

# time-integrate position, velocities, internal energy and density of cbd particles
fix                integrate_slurry_fix slurry meso
# time-integrate only internal energy and density of boundary particles
fix                integrate_bc_fix bc meso/stationary

dump               dump_id all custom 10000 zs_coating_50_small.lammpstrj id type mol xs ys zs
dump_modify        dump_id first yes
dump_modify 	   dump_id sort 3

#compute thermo_temp slurry temp
#thermo_modify temp slurry
uncompute thermo_temp
compute thermo_temp slurry temp
thermo             1000
thermo_style       custom step time temp press density lx ly lz
thermo_modify      norm no

neigh_modify       every 5 delay 0 check no
variable           skin equal 0.3*${h}
variable           skin equal 0.3*2
neighbor           ${skin} bin # set Verlet list skin distance
neighbor           0.6 bin 

fix make_rigid active rigid/nvt molecule temp 30000 3000 30
3288 rigid bodies with 6576 atoms

variable g equal 9.8/1000000
fix add_gravity slurry gravity ${g} vector 0 0 -1  # Acceleration is micrometers/(microseconds)^2
fix add_gravity slurry gravity 9.8e-06 vector 0 0 -1  

variable wiggle_s equal swiggle(0,2000,10)
variable wiggle_c equal cwiggle(0,-2000,10)

#fix strong_gravity slurry addforce 0.0 0.0 -0.05

group stir_bar molecule 2
6 atoms in group stir_bar
#fix stir_the_bar stir_bar addforce v_wiggle_s 0.0 v_wiggle_c
#fix stir cbd addforce v_wiggle_s 0.0 v_wiggle_c
fix stir slurry langevin 10000000000 10000000000 10 234
#fix stir slurry nvt temp 10000000000 10000000000 10
group moving_surface molecule 1
2716 atoms in group moving_surface
#fix move_surface moving_surface move linear 0.09 0 0 # Speed is in m/s (coating speeds vary from 1/60 m/s to 10/60 m/s)

group bottom_wall type 6
288 atoms in group bottom_wall
group piston_wall type 5
780 atoms in group piston_wall

variable piston_speed equal -0.04
variable surface_speed equal abs(${piston_speed}*3)
variable surface_speed equal abs(-0.04*3)

# Stir
run 300000
WARNING: One or more atoms are time integrated more than once (../modify.cpp:271)
Neighbor list info ...
  2 neighbor list requests
  update every 5 steps, delay 0 steps, check no
  max neighbors/atom: 2000, page size: 100000
  master list distance cutoff = 2.6
  ghost atom cutoff = 2.6
  binsize = 1.3 -> bins = 347 19 185
Memory usage per processor = 3.51138 Mbytes
Step Time Temp Press Density Lx Ly Lz 
       0            0            0    1.3199298  0.060943704          450           24          240 
    1000          0.1     87429760    1.3093586  0.060943704          450           24          240 
    2000          0.2     86212138   -1.0091475  0.060943704          450           24          240 
    3000          0.3     94318276   -1.2453009  0.060943704          450           24          240 
    4000          0.4 1.0258744e+08    1.7813366  0.060943704          450           24          240 
    5000          0.5 1.1164589e+08   -1.8399636  0.060943704          450           24          240 
    6000          0.6 1.2210218e+08   0.88736992  0.060943704          450           24          240 
    7000          0.7 1.3190752e+08   -1.4740606  0.060943704          450           24          240 
    8000          0.8 1.3978156e+08   0.75549074  0.060943704          450           24          240 
    9000          0.9 1.5034523e+08    1.9639313  0.060943704          450           24          240 
   10000            1 1.5447416e+08   -1.0793814  0.060943704          450           24          240 
   11000          1.1 1.5949562e+08    1.3920833  0.060943704          450           24          240 
   12000          1.2 1.6005763e+08    1.3644561  0.060943704          450           24          240 
   13000          1.3 1.6054571e+08    1.9433503  0.060943704          450           24          240 
   14000          1.4 1.6566753e+08   -1.6617313  0.060943704          450           24          240 
   15000          1.5 1.6805517e+08   -1.1243175  0.060943704          450           24          240 
   16000          1.6 1.7018654e+08    2.2334026  0.060943704          450           24          240 
   17000          1.7 1.7188901e+08    1.9328453  0.060943704          450           24          240 
   18000          1.8 1.7642947e+08   -1.7537403  0.060943704          450           24          240 
   19000          1.9 1.7878755e+08   -2.1894347  0.060943704          450           24          240 
   20000            2 1.8269155e+08  -0.94031107  0.060943704          450           24          240 
   21000          2.1 1.8478214e+08    1.5956575  0.060943704          450           24          240 
   22000          2.2 1.8637125e+08    1.4560868  0.060943704          450           24          240 
   23000          2.3 1.8969372e+08    2.8920202  0.060943704          450           24          240 
   24000          2.4 1.9220295e+08   -1.3469425  0.060943704          450           24          240 
   25000          2.5 1.9611523e+08    3.5853665  0.060943704          450           24          240 
   26000          2.6 1.9738676e+08   0.90697291  0.060943704          450           24          240 
   27000          2.7 1.9949374e+08    1.7298254  0.060943704          450           24          240 
   28000          2.8 2.0147529e+08   0.18641098  0.060943704          450           24          240 
   29000          2.9 2.0406304e+08   0.13390454  0.060943704          450           24          240 
   30000            3 2.0755733e+08    1.1472402  0.060943704          450           24          240 
   31000          3.1 2.0921523e+08   0.49796984  0.060943704          450           24          240 
   32000          3.2 2.1020324e+08   0.35692342  0.060943704          450           24          240 
   33000          3.3 2.1284031e+08   0.57982936  0.060943704          450           24          240 
   34000          3.4 2.1355697e+08    1.9293783  0.060943704          450           24          240 
   35000          3.5 2.1696495e+08   0.94200559  0.060943704          450           24          240 
   36000          3.6 2.1689478e+08   -1.5356682  0.060943704          450           24          240 
   37000          3.7 2.1809208e+08   -2.4859422  0.060943704          450           24          240 
   38000          3.8 2.2017658e+08    2.4959896  0.060943704          450           24          240 
   39000          3.9 2.2001273e+08     0.467833  0.060943704          450           24          240 
   40000            4 2.2250304e+08  -0.81450977  0.060943704          450           24          240 
   41000          4.1 2.2309488e+08   -1.5395591  0.060943704          450           24          240 
   42000          4.2 2.2666532e+08    1.4979639  0.060943704          450           24          240 
   43000          4.3 2.2732711e+08   -0.1885307  0.060943704          450           24          240 
   44000          4.4 2.270834e+08   -0.1329253  0.060943704          450           24          240 
   45000          4.5 2.2666304e+08  -0.44366527  0.060943704          450           24          240 
   46000          4.6 2.2919399e+08    1.5576706  0.060943704          450           24          240 
   47000          4.7 2.2809189e+08  -0.10642454  0.060943704          450           24          240 
   48000          4.8 2.2913626e+08    1.0671281  0.060943704          450           24          240 
   49000          4.9 2.3152247e+08    1.3445752  0.060943704          450           24          240 
   50000            5 2.2789434e+08    2.8694237  0.060943704          450           24          240 
   51000          5.1 2.3037475e+08  -0.67102987  0.060943704          450           24          240 
   52000          5.2 2.3413918e+08    0.3897202  0.060943704          450           24          240 
   53000          5.3 2.3436647e+08   0.88446488  0.060943704          450           24          240 
   54000          5.4 2.3618957e+08   -3.4028696  0.060943704          450           24          240 
   55000          5.5 2.3619278e+08   0.18597213  0.060943704          450           24          240 
   56000          5.6 2.3725665e+08   0.98794863  0.060943704          450           24          240 
   57000          5.7 2.3822775e+08    1.6051643  0.060943704          450           24          240 
   58000          5.8 2.3822749e+08   -3.3298577  0.060943704          450           24          240 
   59000          5.9 2.3871641e+08   0.44303945  0.060943704          450           24          240 
   60000            6 2.3757546e+08  -0.46830035  0.060943704          450           24          240 
   61000          6.1 2.3623188e+08   0.83632691  0.060943704          450           24          240 
   62000          6.2 2.3600788e+08   0.23641177  0.060943704          450           24          240 
   63000          6.3 2.3611261e+08 -0.069053981  0.060943704          450           24          240 
   64000          6.4 2.388638e+08   0.47897016  0.060943704          450           24          240 
   65000          6.5 2.437188e+08  -0.03422738  0.060943704          450           24          240 
   66000          6.6 2.4183079e+08  -0.28996911  0.060943704          450           24          240 
   67000          6.7 2.4081298e+08   -2.3973787  0.060943704          450           24          240 
   68000          6.8 2.4155328e+08  -0.24230005  0.060943704          450           24          240 
   69000          6.9 2.419352e+08    1.0892715  0.060943704          450           24          240 
   70000            7 2.4123351e+08   0.67434509  0.060943704          450           24          240 
   71000          7.1 2.4429811e+08   0.51618949  0.060943704          450           24          240 
   72000          7.2 2.4326602e+08   -1.9022904  0.060943704          450           24          240 
   73000          7.3 2.4543644e+08  -0.50374373  0.060943704          450           24          240 
   74000          7.4 2.4731271e+08   0.13840946  0.060943704          450           24          240 
   75000          7.5 2.4423224e+08    1.6107856  0.060943704          450           24          240 
   76000          7.6 2.4438702e+08    2.4542405  0.060943704          450           24          240 
   77000          7.7 2.4367771e+08   -1.2248859  0.060943704          450           24          240 
   78000          7.8 2.4332147e+08   -0.3834303  0.060943704          450           24          240 
   79000          7.9 2.4426183e+08    1.5979523  0.060943704          450           24          240 
   80000            8 2.4212573e+08   -1.4584261  0.060943704          450           24          240 
   81000          8.1 2.4461152e+08   0.46012638  0.060943704          450           24          240 
   82000          8.2 2.4655646e+08 -0.073212365  0.060943704          450           24          240 
   83000          8.3 2.4783634e+08  -0.17024771  0.060943704          450           24          240 
   84000          8.4 2.4674459e+08   0.92024057  0.060943704          450           24          240 
   85000          8.5 2.4504305e+08   0.41758605  0.060943704          450           24          240 
   86000          8.6 2.4810059e+08   0.54130286  0.060943704          450           24          240 
   87000          8.7 2.4643607e+08     1.819817  0.060943704          450           24          240 
   88000          8.8 2.4338555e+08   0.18985967  0.060943704          450           24          240 
   89000          8.9 2.4325033e+08   0.70254126  0.060943704          450           24          240 
   90000            9 2.4209802e+08  -0.67719101  0.060943704          450           24          240 
   91000          9.1 2.4361795e+08     1.955273  0.060943704          450           24          240 
   92000          9.2 2.4496116e+08   -1.9324927  0.060943704          450           24          240 
   93000          9.3 2.4657421e+08   -1.9685257  0.060943704          450           24          240 
   94000          9.4 2.4581753e+08    -1.233469  0.060943704          450           24          240 
   95000          9.5 2.4483009e+08   0.63650396  0.060943704          450           24          240 
   96000          9.6 2.4138267e+08   -2.0206413  0.060943704          450           24          240 
   97000          9.7 2.4327008e+08    1.6895799  0.060943704          450           24          240 
   98000          9.8 2.4220614e+08     1.553862  0.060943704          450           24          240 
   99000          9.9 2.4455352e+08   0.21052975  0.060943704          450           24          240 
  100000           10 2.4641824e+08    -1.650526  0.060943704          450           24          240 
  101000         10.1 2.4428134e+08   0.86145336  0.060943704          450           24          240 
  102000         10.2 2.4409829e+08  -0.19447041  0.060943704          450           24          240 
  103000         10.3 2.4439926e+08   -1.5563333  0.060943704          450           24          240 
  104000         10.4 2.4445806e+08    0.3396069  0.060943704          450           24          240 
  105000         10.5 2.4646947e+08   0.16008872  0.060943704          450           24          240 
  106000         10.6 2.4764231e+08   -1.5850116  0.060943704          450           24          240 
  107000         10.7 2.4779182e+08   -1.2814959  0.060943704          450           24          240 
  108000         10.8 2.4704263e+08  0.081847711  0.060943704          450           24          240 
  109000         10.9 2.4546642e+08  0.074207007  0.060943704          450           24          240 
  110000           11 2.4667749e+08   0.68278446  0.060943704          450           24          240 
  111000         11.1 2.4719893e+08   -1.5773239  0.060943704          450           24          240 
  112000         11.2 2.4888203e+08  -0.15037404  0.060943704          450           24          240 
  113000         11.3 2.4699843e+08   -1.0753565  0.060943704          450           24          240 
  114000         11.4 2.4658373e+08   0.45276902  0.060943704          450           24          240 
  115000         11.5 2.4538459e+08   -2.7611838  0.060943704          450           24          240 
  116000         11.6 2.4673651e+08   -1.2296453  0.060943704          450           24          240 
  117000         11.7 2.4683596e+08    1.4954563  0.060943704          450           24          240 
  118000         11.8 2.4678056e+08   0.82986215  0.060943704          450           24          240 
  119000         11.9 2.4700325e+08   0.73760278  0.060943704          450           24          240 
  120000           12 2.4605502e+08  0.091178181  0.060943704          450           24          240 
  121000         12.1 2.4749671e+08   0.99983387  0.060943704          450           24          240 
  122000         12.2 2.4764096e+08  -0.23898209  0.060943704          450           24          240 
  123000         12.3 2.4423893e+08   0.37742822  0.060943704          450           24          240 
  124000         12.4 2.4751042e+08    1.4266115  0.060943704          450           24          240 
  125000         12.5 2.4627377e+08   0.62844111  0.060943704          450           24          240 
  126000         12.6 2.4779761e+08   -1.6942785  0.060943704          450           24          240 
  127000         12.7 2.4558498e+08     2.196281  0.060943704          450           24          240 
  128000         12.8 2.4699751e+08    2.7229273  0.060943704          450           24          240 
  129000         12.9 2.4504286e+08   -1.4597824  0.060943704          450           24          240 
  130000           13 2.4433047e+08   0.51432562  0.060943704          450           24          240 
  131000         13.1 2.4323606e+08 -0.055194862  0.060943704          450           24          240 
  132000         13.2 2.4295456e+08    1.0008453  0.060943704          450           24          240 
  133000         13.3 2.4493463e+08   -1.1123109  0.060943704          450           24          240 
  134000         13.4 2.4680252e+08   0.37753529  0.060943704          450           24          240 
  135000         13.5 2.5017921e+08    1.1180373  0.060943704          450           24          240 
  136000         13.6 2.4808698e+08    1.2345826  0.060943704          450           24          240 
  137000         13.7 2.4994425e+08    1.2899782  0.060943704          450           24          240 
  138000         13.8 2.5029146e+08   0.75286126  0.060943704          450           24          240 
  139000         13.9 2.4878233e+08   0.63517271  0.060943704          450           24          240 
  140000           14 2.5079939e+08    2.4018421  0.060943704          450           24          240 
  141000         14.1 2.5163421e+08   -0.4048087  0.060943704          450           24          240 
  142000         14.2 2.506217e+08    1.1211173  0.060943704          450           24          240 
  143000         14.3 2.4827903e+08    0.9730269  0.060943704          450           24          240 
  144000         14.4 2.4946661e+08    1.2603199  0.060943704          450           24          240 
  145000         14.5 2.517876e+08   0.54707314  0.060943704          450           24          240 
  146000         14.6 2.527904e+08  -0.40860427  0.060943704          450           24          240 
  147000         14.7 2.5142141e+08   -0.8676772  0.060943704          450           24          240 
  148000         14.8 2.5083748e+08    -1.374609  0.060943704          450           24          240 
  149000         14.9 2.5137406e+08   0.75913513  0.060943704          450           24          240 
  150000           15 2.5083282e+08   0.50348424  0.060943704          450           24          240 
  151000         15.1 2.5188266e+08    1.3826658  0.060943704          450           24          240 
  152000         15.2 2.5094604e+08   -2.5772658  0.060943704          450           24          240 
  153000         15.3 2.5130919e+08   0.30401524  0.060943704          450           24          240 
  154000         15.4 2.5167058e+08   -1.0888489  0.060943704          450           24          240 
  155000         15.5 2.5204296e+08    3.4716957  0.060943704          450           24          240 
  156000         15.6 2.5086995e+08   -1.0482519  0.060943704          450           24          240 
  157000         15.7 2.5058975e+08   -1.4675312  0.060943704          450           24          240 
  158000         15.8 2.4985922e+08  -0.69394645  0.060943704          450           24          240 
  159000         15.9 2.5404279e+08  -0.44582724  0.060943704          450           24          240 
  160000           16 2.5600712e+08   0.18260647  0.060943704          450           24          240 
  161000         16.1 2.5339603e+08     3.381198  0.060943704          450           24          240 
  162000         16.2 2.5263114e+08    1.8467607  0.060943704          450           24          240 
  163000         16.3 2.5070851e+08  -0.26851455  0.060943704          450           24          240 
  164000         16.4 2.5125536e+08  -0.77875045  0.060943704          450           24          240 
  165000         16.5 2.5431469e+08  -0.20700851  0.060943704          450           24          240 
  166000         16.6 2.5376629e+08    2.8878191  0.060943704          450           24          240 
  167000         16.7 2.5400497e+08    0.2950155  0.060943704          450           24          240 
  168000         16.8 2.5540037e+08      2.07357  0.060943704          450           24          240 
  169000         16.9 2.5473717e+08    2.3472088  0.060943704          450           24          240 
  170000           17 2.5434033e+08   0.37826584  0.060943704          450           24          240 
  171000         17.1 2.5182824e+08 -0.007620496  0.060943704          450           24          240 
  172000         17.2 2.5143917e+08  0.093106698  0.060943704          450           24          240 
  173000         17.3 2.5265148e+08   0.33566461  0.060943704          450           24          240 
  174000         17.4 2.5121234e+08   -1.0541738  0.060943704          450           24          240 
  175000         17.5 2.5446131e+08  -0.62613015  0.060943704          450           24          240 
  176000         17.6 2.5667905e+08     1.070479  0.060943704          450           24          240 
  177000         17.7 2.5312111e+08  -0.61329457  0.060943704          450           24          240 
  178000         17.8 2.5310423e+08    3.7421979  0.060943704          450           24          240 
  179000         17.9 2.5255786e+08   0.21658477  0.060943704          450           24          240 
  180000           18 2.5328876e+08    2.3667406  0.060943704          450           24          240 
  181000         18.1 2.5329019e+08    1.3757456  0.060943704          450           24          240 
  182000         18.2 2.5533184e+08  -0.49612417  0.060943704          450           24          240 
  183000         18.3 2.5658569e+08    1.4407403  0.060943704          450           24          240 
  184000         18.4 2.5837076e+08    1.8725143  0.060943704          450           24          240 
  185000         18.5 2.5696418e+08  -0.41766155  0.060943704          450           24          240 
  186000         18.6 2.5510959e+08     2.236158  0.060943704          450           24          240 
  187000         18.7 2.5521858e+08   -2.0713702  0.060943704          450           24          240 
  188000         18.8 2.5446409e+08    1.7281693  0.060943704          450           24          240 
  189000         18.9 2.5361698e+08    1.5237583  0.060943704          450           24          240 
  190000           19 2.5228859e+08  -0.73039436  0.060943704          450           24          240 
  191000         19.1 2.5349591e+08   -2.1410214  0.060943704          450           24          240 
  192000         19.2 2.526516e+08  -0.13906472  0.060943704          450           24          240 
  193000         19.3 2.5343468e+08    1.3734127  0.060943704          450           24          240 
  194000         19.4 2.5439152e+08  0.030312661  0.060943704          450           24          240 
  195000         19.5 2.5088012e+08    2.3674339  0.060943704          450           24          240 
  196000         19.6 2.5437785e+08   -2.0335143  0.060943704          450           24          240 
  197000         19.7 2.5366999e+08    1.9853545  0.060943704          450           24          240 
  198000         19.8 2.527763e+08    2.0754994  0.060943704          450           24          240 
  199000         19.9 2.5269276e+08    2.2413993  0.060943704          450           24          240 
  200000           20 2.5126841e+08   0.51180302  0.060943704          450           24          240 
  201000         20.1 2.5373039e+08    2.3478726  0.060943704          450           24          240 
  202000         20.2 2.5204867e+08     1.088185  0.060943704          450           24          240 
  203000         20.3 2.4980633e+08    1.7568381  0.060943704          450           24          240 
  204000         20.4 2.5019993e+08    3.7659773  0.060943704          450           24          240 
  205000         20.5 2.5234377e+08   -1.8130033  0.060943704          450           24          240 
  206000         20.6 2.5091254e+08    1.5768658  0.060943704          450           24          240 
  207000         20.7 2.5123571e+08    1.4157984  0.060943704          450           24          240 
  208000         20.8 2.5065076e+08   -1.7560548  0.060943704          450           24          240 
  209000         20.9 2.4805716e+08   0.52483881  0.060943704          450           24          240 
  210000           21 2.5022771e+08   -1.9696364  0.060943704          450           24          240 
  211000         21.1 2.4878217e+08    2.3248745  0.060943704          450           24          240 
  212000         21.2 2.5241966e+08   0.23687523  0.060943704          450           24          240 
  213000         21.3 2.5243183e+08     2.790778  0.060943704          450           24          240 
  214000         21.4 2.5362567e+08   0.47952478  0.060943704          450           24          240 
  215000         21.5 2.528021e+08   0.94397106  0.060943704          450           24          240 
  216000         21.6 2.5168607e+08     1.691985  0.060943704          450           24          240 
  217000         21.7 2.5091798e+08    2.5390542  0.060943704          450           24          240 
  218000         21.8 2.544555e+08  -0.76382307  0.060943704          450           24          240 
  219000         21.9 2.5289342e+08    2.2058594  0.060943704          450           24          240 
  220000           22 2.5333748e+08  -0.11303724  0.060943704          450           24          240 
  221000         22.1 2.512927e+08   0.27387388  0.060943704          450           24          240 
  222000         22.2 2.5377842e+08    0.2436818  0.060943704          450           24          240 
  223000         22.3 2.5320015e+08   0.65445563  0.060943704          450           24          240 
  224000         22.4 2.5212327e+08   0.62811083  0.060943704          450           24          240 
  225000         22.5 2.4769823e+08   0.64302169  0.060943704          450           24          240 
  226000         22.6 2.4607373e+08    2.4174778  0.060943704          450           24          240 
  227000         22.7 2.487889e+08   -1.1591356  0.060943704          450           24          240 
  228000         22.8 2.5051429e+08    1.3184878  0.060943704          450           24          240 
  229000         22.9 2.5253304e+08   0.43565064  0.060943704          450           24          240 
  230000           23 2.501692e+08  -0.95521889  0.060943704          450           24          240 
  231000         23.1 2.5045492e+08   0.59253362  0.060943704          450           24          240 
  232000         23.2 2.5309956e+08  -0.94878932  0.060943704          450           24          240 
  233000         23.3 2.507013e+08    1.3294858  0.060943704          450           24          240 
  234000         23.4 2.5034612e+08    2.6874092  0.060943704          450           24          240 
  235000         23.5 2.5188576e+08     0.560737  0.060943704          450           24          240 
  236000         23.6 2.5179329e+08   -1.5082601  0.060943704          450           24          240 
  237000         23.7 2.5172466e+08   -3.9089208  0.060943704          450           24          240 
  238000         23.8 2.5273562e+08   0.22314735  0.060943704          450           24          240 
  239000         23.9 2.4959519e+08   -1.6281948  0.060943704          450           24          240 
  240000           24 2.5040502e+08   0.53175027  0.060943704          450           24          240 
  241000         24.1 2.5040693e+08    1.6287607  0.060943704          450           24          240 
  242000         24.2 2.5017518e+08   -2.5364312  0.060943704          450           24          240 
  243000         24.3 2.522199e+08   0.98370467  0.060943704          450           24          240 
  244000         24.4 2.5303811e+08   0.38091095  0.060943704          450           24          240 
  245000         24.5 2.5125554e+08   0.39043367  0.060943704          450           24          240 
  246000         24.6 2.5237486e+08   -1.2209327  0.060943704          450           24          240 
  247000         24.7 2.5360814e+08    4.3325068  0.060943704          450           24          240 
  248000         24.8 2.5409915e+08   0.65242096  0.060943704          450           24          240 
  249000         24.9 2.5344826e+08    1.4006181  0.060943704          450           24          240 
  250000           25 2.5266088e+08  -0.66899607  0.060943704          450           24          240 
  251000         25.1 2.5434455e+08   -1.8387291  0.060943704          450           24          240 
  252000         25.2 2.5412283e+08     -1.49705  0.060943704          450           24          240 
  253000         25.3 2.5365521e+08    1.2772773  0.060943704          450           24          240 
  254000         25.4 2.5484372e+08    3.9516258  0.060943704          450           24          240 
  255000         25.5 2.5484648e+08      2.42485  0.060943704          450           24          240 
  256000         25.6 2.5697348e+08    1.0531863  0.060943704          450           24          240 
  257000         25.7 2.5491219e+08    1.4548352  0.060943704          450           24          240 
  258000         25.8 2.5446518e+08  -0.63882498  0.060943704          450           24          240 
  259000         25.9 2.5626935e+08   -1.2539695  0.060943704          450           24          240 
  260000           26 2.5474218e+08 -0.0043279475  0.060943704          450           24          240 
  261000         26.1 2.532328e+08   0.76039839  0.060943704          450           24          240 
  262000         26.2 2.5150206e+08  -0.51539589  0.060943704          450           24          240 
  263000         26.3 2.4978291e+08   0.42211968  0.060943704          450           24          240 
  264000         26.4 2.491547e+08  -0.31362406  0.060943704          450           24          240 
  265000         26.5 2.4773741e+08    -1.376912  0.060943704          450           24          240 
  266000         26.6 2.4676957e+08    1.6237335  0.060943704          450           24          240 
  267000         26.7 2.4825495e+08   -1.0538362  0.060943704          450           24          240 
  268000         26.8 2.5202859e+08  0.070265957  0.060943704          450           24          240 
  269000         26.9 2.5230081e+08    0.2737941  0.060943704          450           24          240 
  270000           27 2.5237607e+08   -1.7130533  0.060943704          450           24          240 
  271000         27.1 2.5405462e+08    1.0832409  0.060943704          450           24          240 
  272000         27.2 2.5295538e+08  -0.83577401  0.060943704          450           24          240 
  273000         27.3 2.5160399e+08 0.0024410586  0.060943704          450           24          240 
  274000         27.4 2.5117834e+08    1.0014052  0.060943704          450           24          240 
  275000         27.5 2.5153423e+08   -2.6915202  0.060943704          450           24          240 
  276000         27.6 2.539081e+08    3.2867507  0.060943704          450           24          240 
  277000         27.7 2.5376375e+08   -2.2839322  0.060943704          450           24          240 
  278000         27.8 2.5367531e+08  -0.63197243  0.060943704          450           24          240 
  279000         27.9 2.5512213e+08    1.2943457  0.060943704          450           24          240 
  280000           28 2.532495e+08   -1.7371325  0.060943704          450           24          240 
  281000         28.1 2.5339508e+08    2.5061446  0.060943704          450           24          240 
  282000         28.2 2.5346024e+08  -0.76450862  0.060943704          450           24          240 
  283000         28.3 2.5172138e+08    1.8599105  0.060943704          450           24          240 
  284000         28.4 2.5008692e+08  -0.85034299  0.060943704          450           24          240 
  285000         28.5 2.5285694e+08     3.409873  0.060943704          450           24          240 
  286000         28.6 2.5419533e+08     1.357159  0.060943704          450           24          240 
  287000         28.7 2.5498347e+08  -0.67987412  0.060943704          450           24          240 
  288000         28.8 2.5070571e+08  -0.86278812  0.060943704          450           24          240 
  289000         28.9 2.4976046e+08    2.6429344  0.060943704          450           24          240 
  290000           29 2.4977374e+08   0.28134306  0.060943704          450           24          240 
  291000         29.1 2.4950256e+08   -0.3802207  0.060943704          450           24          240 
  292000         29.2 2.4983069e+08   0.43758234  0.060943704          450           24          240 
  293000         29.3 2.5112714e+08  -0.36677194  0.060943704          450           24          240 
  294000         29.4 2.5037315e+08   -2.6319924  0.060943704          450           24          240 
  295000         29.5 2.5038535e+08    1.0486829  0.060943704          450           24          240 
  296000         29.6 2.527911e+08   0.98282466  0.060943704          450           24          240 
  297000         29.7 2.5079624e+08   0.43557633  0.060943704          450           24          240 
  298000         29.8 2.5016012e+08    1.6284702  0.060943704          450           24          240 
  299000         29.9 2.4912347e+08  -0.66391879  0.060943704          450           24          240 
  300000           30 2.4942768e+08   0.70527114  0.060943704          450           24          240 
Loop time of 2418.03 on 12 procs for 300000 steps with 42464 atoms

Performance: 1071948.742 ns/day, 0.000 hours/ns, 124.068 timesteps/s
99.9% CPU use with 12 MPI tasks x no OpenMP threads

MPI task timing breakdown:
Section |  min time  |  avg time  |  max time  |%varavg| %total
---------------------------------------------------------------
Pair    | 0.29204    | 405.3      | 989.19     |1818.6 | 16.76
Neigh   | 4.5703     | 228.8      | 720.12     |1990.8 |  9.46
Comm    | 41.96      | 376.16     | 1330.6     |2311.5 | 15.56
Output  | 0.95683    | 1.0335     | 1.0942     |   4.1 |  0.04
Modify  | 855.26     | 1399.1     | 2369.6     |1833.9 | 57.86
Other   |            | 7.665      |            |       |  0.32

Nlocal:    3538.67 ave 11261 max 0 min
Histogram: 6 2 0 0 0 0 0 1 2 1
Nghost:    1179.83 ave 3647 max 0 min
Histogram: 6 2 0 0 0 0 0 1 2 1
Neighs:    12284.8 ave 39429 max 0 min
Histogram: 8 0 0 0 0 0 0 1 1 2
FullNghs:  24569.5 ave 79580 max 0 min
Histogram: 8 0 0 0 0 0 0 1 1 2

Total # of neighbors = 294834
Ave neighs/atom = 6.94315
Neighbor list builds = 60000
Dangerous builds not checked


unfix stir
#unfix stir_the_bar

# Cool
#fix cool slurry langevin 300 300 10 234
#run 10000
#unfix cool

# Apply extra gravity
fix extra_gravity slurry addforce 0.0 0.0 -8.0
run 300000
WARNING: One or more atoms are time integrated more than once (../modify.cpp:271)
Memory usage per processor = 3.55799 Mbytes
Step Time Temp Press Density Lx Ly Lz 
  300000           30 2.4942768e+08   0.34321198  0.060943704          450           24          240 
  301000         30.1 1.6670069e+08    1.1822202  0.060943704          450           24          240 
  302000         30.2 1.4455008e+08    1.2232691  0.060943704          450           24          240 
  303000         30.3 1.4642038e+08    1.2611921  0.060943704          450           24          240 
  304000         30.4 1.6349527e+08    1.2907042  0.060943704          450           24          240 
  305000         30.5 1.9218685e+08     1.343987  0.060943704          450           24          240 
  306000         30.6 2.3114939e+08    1.3928337  0.060943704          450           24          240 
  307000         30.7 2.7883548e+08    1.4632071  0.060943704          450           24          240 
  308000         30.8 3.3416604e+08    1.5564026  0.060943704          450           24          240 
  309000         30.9 3.9647535e+08    1.6511726  0.060943704          450           24          240 
  310000           31 4.6510349e+08    1.7713431  0.060943704          450           24          240 
  311000         31.1 5.3951379e+08    1.8991793  0.060943704          450           24          240 
  312000         31.2 6.1951767e+08     2.011999  0.060943704          450           24          240 
  313000         31.3 7.0458288e+08    2.1990264  0.060943704          450           24          240 
  314000         31.4 7.9419191e+08    2.3444147  0.060943704          450           24          240 
  315000         31.5 8.8707207e+08    2.5028136  0.060943704          450           24          240 
  316000         31.6 9.8393784e+08    2.6659819  0.060943704          450           24          240 
  317000         31.7 1.0834741e+09    2.8804915  0.060943704          450           24          240 
  318000         31.8 1.1850378e+09    3.0824505  0.060943704          450           24          240 
  319000         31.9 1.2879427e+09    3.2726078  0.060943704          450           24          240 
  320000           32 1.3908104e+09    3.4740426  0.060943704          450           24          240 
  321000         32.1 1.4931691e+09    3.6697691  0.060943704          450           24          240 
  322000         32.2 1.5947491e+09    3.8899169  0.060943704          450           24          240 
  323000         32.3 1.6954949e+09    4.0919664  0.060943704          450           24          240 
  324000         32.4 1.793266e+09    4.3068673  0.060943704          450           24          240 
  325000         32.5 1.8899371e+09    4.5072034  0.060943704          450           24          240 
  326000         32.6 1.9846181e+09    4.7178333  0.060943704          450           24          240 
  327000         32.7  2.07587e+09    4.9301893  0.060943704          450           24          240 
  328000         32.8 2.1635308e+09    5.1559893  0.060943704          450           24          240 
  329000         32.9 2.2463655e+09    5.3194066  0.060943704          450           24          240 
  330000           33 2.3252429e+09    5.5091725  0.060943704          450           24          240 
  331000         33.1 2.4005308e+09    5.6856024  0.060943704          450           24          240 
  332000         33.2 2.4707283e+09      5.88247  0.060943704          450           24          240 
  333000         33.3 2.5359569e+09    6.0112726  0.060943704          450           24          240 
  334000         33.4 2.5956147e+09     6.127991  0.060943704          450           24          240 
  335000         33.5 2.6495351e+09    6.2938354  0.060943704          450           24          240 
  336000         33.6 2.6986195e+09    6.3944411  0.060943704          450           24          240 
  337000         33.7 2.7403933e+09    6.5387699  0.060943704          450           24          240 
  338000         33.8 2.777658e+09    6.6611765  0.060943704          450           24          240 
  339000         33.9 2.8097855e+09    6.7240029  0.060943704          450           24          240 
  340000           34 2.8375732e+09    6.8110321  0.060943704          450           24          240 
  341000         34.1 2.8602672e+09    6.8546935  0.060943704          450           24          240 
  342000         34.2 2.8785669e+09    6.9192799  0.060943704          450           24          240 
  343000         34.3 2.8907843e+09    6.9942481  0.060943704          450           24          240 
  344000         34.4 2.8992684e+09    7.0309098  0.060943704          450           24          240 
  345000         34.5 2.9034555e+09    7.0447143  0.060943704          450           24          240 
  346000         34.6 2.9044528e+09    7.1021166  0.060943704          450           24          240 
  347000         34.7 2.9020571e+09    7.1092537  0.060943704          450           24          240 
  348000         34.8 2.8955475e+09    7.1460013  0.060943704          450           24          240 
  349000         34.9 2.8874064e+09    7.1216141  0.060943704          450           24          240 
  350000           35 2.877058e+09    7.1333821  0.060943704          450           24          240 
  351000         35.1 2.8635979e+09    7.0963242  0.060943704          450           24          240 
  352000         35.2 2.8481938e+09    7.0910828  0.060943704          450           24          240 
  353000         35.3  2.83163e+09    7.0955486  0.060943704          450           24          240 
  354000         35.4 2.8131926e+09     7.067727  0.060943704          450           24          240 
  355000         35.5 2.7932454e+09    7.0349044  0.060943704          450           24          240 
  356000         35.6 2.7702792e+09    7.0148023  0.060943704          450           24          240 
  357000         35.7 2.7447445e+09    6.9921025  0.060943704          450           24          240 
  358000         35.8 2.7158442e+09    6.9221863  0.060943704          450           24          240 
  359000         35.9 2.6836161e+09     6.909696  0.060943704          450           24          240 
  360000           36 2.6502922e+09    6.8855586  0.060943704          450           24          240 
  361000         36.1 2.6153355e+09     6.845321  0.060943704          450           24          240 
  362000         36.2 2.5790384e+09    6.7832722  0.060943704          450           24          240 
  363000         36.3 2.5420958e+09    6.7235255  0.060943704          450           24          240 
  364000         36.4 2.501971e+09    6.6665094  0.060943704          450           24          240 
  365000         36.5 2.4589773e+09    6.6242443  0.060943704          450           24          240 
  366000         36.6 2.4135529e+09    6.6065167  0.060943704          450           24          240 
  367000         36.7 2.3667487e+09     6.561306  0.060943704          450           24          240 
  368000         36.8 2.3183505e+09    6.4845023  0.060943704          450           24          240 
  369000         36.9 2.2688158e+09    6.4266323  0.060943704          450           24          240 
  370000           37 2.2185792e+09    6.3868564  0.060943704          450           24          240 
  371000         37.1 2.1666566e+09    6.3614788  0.060943704          450           24          240 
  372000         37.2 2.1131129e+09    6.2784518  0.060943704          450           24          240 
  373000         37.3 2.0579246e+09    6.2193941  0.060943704          450           24          240 
  374000         37.4 2.0023695e+09    6.1578005  0.060943704          450           24          240 
  375000         37.5 1.9457477e+09    6.0693913  0.060943704          450           24          240 
  376000         37.6 1.8883816e+09    6.0212102  0.060943704          450           24          240 
  377000         37.7 1.8299143e+09    5.9576904  0.060943704          450           24          240 
  378000         37.8 1.7706908e+09    5.9296678  0.060943704          450           24          240 
  379000         37.9 1.7106637e+09    5.8666476  0.060943704          450           24          240 
  380000           38 1.6502371e+09    5.8024108  0.060943704          450           24          240 
  381000         38.1 1.5888477e+09    5.7706666  0.060943704          450           24          240 
  382000         38.2 1.5271887e+09    5.7228731  0.060943704          450           24          240 
  383000         38.3 1.4652011e+09     5.641068  0.060943704          450           24          240 
  384000         38.4  1.40194e+09    5.6178961  0.060943704          450           24          240 
  385000         38.5 1.337653e+09    5.5576107  0.060943704          450           24          240 
  386000         38.6 1.2721639e+09    5.5193749  0.060943704          450           24          240 
  387000         38.7 1.204815e+09    5.4845827  0.060943704          450           24          240 
  388000         38.8 1.1354266e+09    5.4493667  0.060943704          450           24          240 
  389000         38.9 1.0644747e+09    5.3882907  0.060943704          450           24          240 
  390000           39 9.9229211e+08     5.359165  0.060943704          450           24          240 
  391000         39.1 9.1937665e+08    5.3460496  0.060943704          450           24          240 
  392000         39.2 8.4719664e+08    5.3140131  0.060943704          450           24          240 
  393000         39.3 7.7644762e+08    5.3045598  0.060943704          450           24          240 
  394000         39.4 7.081038e+08    5.2380583  0.060943704          450           24          240 
  395000         39.5 6.4140445e+08    5.1887005  0.060943704          450           24          240 
  396000         39.6 5.776899e+08    5.1438279  0.060943704          450           24          240 
  397000         39.7 5.1815922e+08    5.0895382  0.060943704          450           24          240 
  398000         39.8 4.6214172e+08    5.0352968  0.060943704          450           24          240 
  399000         39.9 4.1101795e+08    4.9861008  0.060943704          450           24          240 
  400000           40 3.6253177e+08    4.9307752  0.060943704          450           24          240 
  401000         40.1 3.1884935e+08    4.8764464  0.060943704          450           24          240 
  402000         40.2 2.7907901e+08    4.8261742  0.060943704          450           24          240 
  403000         40.3 2.4417529e+08    4.7710714  0.060943704          450           24          240 
  404000         40.4 2.119597e+08    4.7172498  0.060943704          450           24          240 
  405000         40.5 1.8324738e+08     4.663727  0.060943704          450           24          240 
  406000         40.6 1.5808261e+08    4.6164988  0.060943704          450           24          240 
  407000         40.7 1.3592106e+08    4.5775553  0.060943704          450           24          240 
  408000         40.8 1.1734121e+08    4.5368108  0.060943704          450           24          240 
  409000         40.9 1.0150996e+08    4.4741855  0.060943704          450           24          240 
  410000           41     88016605    4.4504868  0.060943704          450           24          240 
  411000         41.1     77250957    4.4168768  0.060943704          450           24          240 
  412000         41.2     68134748    4.3526732  0.060943704          450           24          240 
  413000         41.3     59989625    4.3083618  0.060943704          450           24          240 
  414000         41.4     53624401    4.2842806  0.060943704          450           24          240 
  415000         41.5     48511866     4.221721  0.060943704          450           24          240 
  416000         41.6     44003475    4.1838281  0.060943704          450           24          240 
  417000         41.7     40316202    4.1404704  0.060943704          450           24          240 
  418000         41.8     37302318    4.0907009  0.060943704          450           24          240 
  419000         41.9     35162140    4.0307649  0.060943704          450           24          240 
  420000           42     34146844    3.9802352  0.060943704          450           24          240 
  421000         42.1     33542007    3.9390333  0.060943704          450           24          240 
  422000         42.2     32900731    3.8868125  0.060943704          450           24          240 
  423000         42.3     32236399    3.8401101  0.060943704          450           24          240 
  424000         42.4     31666314    3.7974721  0.060943704          450           24          240 
  425000         42.5     30779359    3.7465725  0.060943704          450           24          240 
  426000         42.6     30218438    3.7122381  0.060943704          450           24          240 
  427000         42.7     29775447    3.6629905  0.060943704          450           24          240 
  428000         42.8     29393871    3.6162646  0.060943704          450           24          240 
  429000         42.9     28843213    3.5794565  0.060943704          450           24          240 
  430000           43     27929156    3.5489116  0.060943704          450           24          240 
  431000         43.1     26883585    3.5235892  0.060943704          450           24          240 
  432000         43.2     26095947     3.495984  0.060943704          450           24          240 
  433000         43.3     25340163    3.4617029  0.060943704          450           24          240 
  434000         43.4     24800907    3.4329447  0.060943704          450           24          240 
  435000         43.5     24544088    3.4117126  0.060943704          450           24          240 
  436000         43.6     24457313    3.4026362  0.060943704          450           24          240 
  437000         43.7     24641920    3.3903446  0.060943704          450           24          240 
  438000         43.8     24972224    3.3767901  0.060943704          450           24          240 
  439000         43.9     25251641    3.3543411  0.060943704          450           24          240 
  440000           44     25540356    3.3471228  0.060943704          450           24          240 
  441000         44.1     26045857    3.3396051  0.060943704          450           24          240 
  442000         44.2     26418131    3.3238263  0.060943704          450           24          240 
  443000         44.3     27216759    3.3295777  0.060943704          450           24          240 
  444000         44.4     28070258    3.3219905  0.060943704          450           24          240 
  445000         44.5     28966437    3.3249305  0.060943704          450           24          240 
  446000         44.6     29774166    3.3133795  0.060943704          450           24          240 
  447000         44.7     30780561    3.3221745  0.060943704          450           24          240 
  448000         44.8     31884670    3.3298058  0.060943704          450           24          240 
  449000         44.9     32902590    3.3245423  0.060943704          450           24          240 
  450000           45     34018920     3.344013  0.060943704          450           24          240 
  451000         45.1     35200949    3.3575163  0.060943704          450           24          240 
  452000         45.2     36164868    3.3532159  0.060943704          450           24          240 
  453000         45.3     37058020    3.3822663  0.060943704          450           24          240 
  454000         45.4     37967073    3.3850205  0.060943704          450           24          240 
  455000         45.5     38739707    3.4002437  0.060943704          450           24          240 
  456000         45.6     39348206    3.4020006  0.060943704          450           24          240 
  457000         45.7     39927664    3.4203742  0.060943704          450           24          240 
  458000         45.8     40292216    3.4303959  0.060943704          450           24          240 
  459000         45.9     40563417    3.4405324  0.060943704          450           24          240 
  460000           46     40583501    3.4618384  0.060943704          450           24          240 
  461000         46.1     40596846    3.4748297  0.060943704          450           24          240 
  462000         46.2     40445283    3.4840597  0.060943704          450           24          240 
  463000         46.3     40068060    3.5050655  0.060943704          450           24          240 
  464000         46.4     39494565    3.5115098  0.060943704          450           24          240 
  465000         46.5     38679353    3.5166523  0.060943704          450           24          240 
  466000         46.6     37885606    3.5414772  0.060943704          450           24          240 
  467000         46.7     37111067    3.5533529  0.060943704          450           24          240 
  468000         46.8     36143166    3.5661432  0.060943704          450           24          240 
  469000         46.9     35137710    3.5865437  0.060943704          450           24          240 
  470000           47     34052683    3.5976754  0.060943704          450           24          240 
  471000         47.1     32747420     3.600579  0.060943704          450           24          240 
  472000         47.2     31355589    3.6082803  0.060943704          450           24          240 
  473000         47.3     29825140    3.6101773  0.060943704          450           24          240 
  474000         47.4     28366304    3.6245483  0.060943704          450           24          240 
  475000         47.5     26705477    3.6073618  0.060943704          450           24          240 
  476000         47.6     25104984    3.6285245  0.060943704          450           24          240 
  477000         47.7     23592514    3.6325759  0.060943704          450           24          240 
  478000         47.8     22100740    3.6529948  0.060943704          450           24          240 
  479000         47.9     20660840    3.6546855  0.060943704          450           24          240 
  480000           48     19058722    3.6418444  0.060943704          450           24          240 
  481000         48.1     17275936    3.6217662  0.060943704          450           24          240 
  482000         48.2     15648384    3.6348667  0.060943704          450           24          240 
  483000         48.3     14168300    3.6376197  0.060943704          450           24          240 
  484000         48.4     12816146    3.6403348  0.060943704          450           24          240 
  485000         48.5     11342268    3.6347832  0.060943704          450           24          240 
  486000         48.6     10015356    3.6377548  0.060943704          450           24          240 
  487000         48.7    8936796.5    3.6458738  0.060943704          450           24          240 
  488000         48.8    8122661.7    3.6534056  0.060943704          450           24          240 
  489000         48.9    6884911.1     3.630239  0.060943704          450           24          240 
  490000           49    5993640.5    3.6404464  0.060943704          450           24          240 
  491000         49.1    4915487.3    3.6196582  0.060943704          450           24          240 
  492000         49.2      4062668    3.6380721  0.060943704          450           24          240 
  493000         49.3    3523775.5    3.6429072  0.060943704          450           24          240 
  494000         49.4    3072478.6    3.6353142  0.060943704          450           24          240 
  495000         49.5    2678766.3    3.6395194  0.060943704          450           24          240 
  496000         49.6    2398377.6    3.6372694  0.060943704          450           24          240 
  497000         49.7    2171071.1    3.6319163  0.060943704          450           24          240 
  498000         49.8    1947390.1    3.6275948  0.060943704          450           24          240 
  499000         49.9    1777929.9    3.6230926  0.060943704          450           24          240 
  500000           50    1636422.1    3.6181584  0.060943704          450           24          240 
  501000         50.1    1512054.2    3.6115058  0.060943704          450           24          240 
  502000         50.2    1389742.4    3.6045546  0.060943704          450           24          240 
  503000         50.3    1268959.1    3.5966958  0.060943704          450           24          240 
  504000         50.4    1179718.4    3.5937243  0.060943704          450           24          240 
  505000         50.5    1115530.5    3.5896819  0.060943704          450           24          240 
  506000         50.6      1053924    3.5853621  0.060943704          450           24          240 
  507000         50.7    997228.06    3.5801874  0.060943704          450           24          240 
  508000         50.8    951470.14    3.5751058  0.060943704          450           24          240 
  509000         50.9    932814.17    3.5704601  0.060943704          450           24          240 
  510000           51     926385.2    3.5661289  0.060943704          450           24          240 
  511000         51.1     927875.2     3.561512  0.060943704          450           24          240 
  512000         51.2    916767.45    3.5568916  0.060943704          450           24          240 
  513000         51.3    908223.12    3.5532655  0.060943704          450           24          240 
  514000         51.4    906335.38    3.5483191  0.060943704          450           24          240 
  515000         51.5     920081.3    3.5445108  0.060943704          450           24          240 
  516000         51.6    945609.98    3.5410225  0.060943704          450           24          240 
  517000         51.7       950351    3.5353557  0.060943704          450           24          240 
  518000         51.8    966075.63    3.5340362  0.060943704          450           24          240 
  519000         51.9    1006402.9    3.5339698  0.060943704          450           24          240 
  520000           52    1044786.4    3.5321576  0.060943704          450           24          240 
  521000         52.1    1097502.7    3.5310962  0.060943704          450           24          240 
  522000         52.2    1147338.7    3.5259149  0.060943704          450           24          240 
  523000         52.3    1207249.6    3.5282239  0.060943704          450           24          240 
  524000         52.4    1251816.7     3.528401  0.060943704          450           24          240 
  525000         52.5    1316989.1    3.5283215  0.060943704          450           24          240 
  526000         52.6    1386625.5    3.5280617  0.060943704          450           24          240 
  527000         52.7    1457678.8    3.5279697  0.060943704          450           24          240 
  528000         52.8    1527960.8    3.5281497  0.060943704          450           24          240 
  529000         52.9      1597068    3.5286088  0.060943704          450           24          240 
  530000           53    1668352.1    3.5311632  0.060943704          450           24          240 
  531000         53.1    1734982.4     3.532652  0.060943704          450           24          240 
  532000         53.2    1793577.4    3.5347019  0.060943704          450           24          240 
  533000         53.3    1852329.1    3.5367829  0.060943704          450           24          240 
  534000         53.4    1908474.7    3.5387093  0.060943704          450           24          240 
  535000         53.5    1958121.8    3.5411547  0.060943704          450           24          240 
  536000         53.6    2002402.1    3.5444626  0.060943704          450           24          240 
  537000         53.7    2037687.9    3.5473379  0.060943704          450           24          240 
  538000         53.8    2066944.1     3.551348  0.060943704          450           24          240 
  539000         53.9    2090952.1    3.5551652  0.060943704          450           24          240 
  540000           54    2105107.4    3.5579628  0.060943704          450           24          240 
  541000         54.1    2112086.4    3.5611195  0.060943704          450           24          240 
  542000         54.2    2109731.6    3.5634001  0.060943704          450           24          240 
  543000         54.3    2101107.1    3.5675391  0.060943704          450           24          240 
  544000         54.4    2085264.1     3.571291  0.060943704          450           24          240 
  545000         54.5    2059876.5    3.5731684  0.060943704          450           24          240 
  546000         54.6    2027662.7    3.5782046  0.060943704          450           24          240 
  547000         54.7    1991431.1    3.5812804  0.060943704          450           24          240 
  548000         54.8    1948685.8    3.5840219  0.060943704          450           24          240 
  549000         54.9    1901758.8    3.5875301  0.060943704          450           24          240 
  550000           55    1850397.8    3.5906363  0.060943704          450           24          240 
  551000         55.1    1793209.2    3.5932992  0.060943704          450           24          240 
  552000         55.2    1731278.2    3.5958957  0.060943704          450           24          240 
  553000         55.3    1665580.1    3.5975179  0.060943704          450           24          240 
  554000         55.4    1599500.2    3.5998058  0.060943704          450           24          240 
  555000         55.5    1533945.9    3.6020261  0.060943704          450           24          240 
  556000         55.6    1466229.3    3.6041863  0.060943704          450           24          240 
  557000         55.7    1399419.5    3.6063199  0.060943704          450           24          240 
  558000         55.8      1333840     3.608301  0.060943704          450           24          240 
  559000         55.9    1268106.1    3.6102637  0.060943704          450           24          240 
  560000           56    1204084.5    3.6115659  0.060943704          450           24          240 
  561000         56.1    1142462.2    3.6119833  0.060943704          450           24          240 
  562000         56.2    1081181.1    3.6134631  0.060943704          450           24          240 
  563000         56.3    1023551.7    3.6147862  0.060943704          450           24          240 
  564000         56.4    968019.63    3.6148504  0.060943704          450           24          240 
  565000         56.5    916475.47    3.6157379  0.060943704          450           24          240 
  566000         56.6    869042.38    3.6167267  0.060943704          450           24          240 
  567000         56.7    824001.92    3.6174451  0.060943704          450           24          240 
  568000         56.8    782207.58    3.6179042  0.060943704          450           24          240 
  569000         56.9    740643.34    3.6170002  0.060943704          450           24          240 
  570000           57    701803.82    3.6175076  0.060943704          450           24          240 
  571000         57.1    667690.94     3.617721  0.060943704          450           24          240 
  572000         57.2    635773.88    3.6177036  0.060943704          450           24          240 
  573000         57.3    606204.45    3.6172498  0.060943704          450           24          240 
  574000         57.4    579191.55    3.6169414  0.060943704          450           24          240 
  575000         57.5    554444.17    3.6164336  0.060943704          450           24          240 
  576000         57.6    532349.66    3.6159495  0.060943704          450           24          240 
  577000         57.7    512376.26    3.6151143  0.060943704          450           24          240 
  578000         57.8    493326.36    3.6140217  0.060943704          450           24          240 
  579000         57.9    477097.74    3.6137542  0.060943704          450           24          240 
  580000           58    463442.29    3.6129559  0.060943704          450           24          240 
  581000         58.1    452236.37    3.6123332  0.060943704          450           24          240 
  582000         58.2    443793.62    3.6116455  0.060943704          450           24          240 
  583000         58.3    436045.93    3.6107903  0.060943704          450           24          240 
  584000         58.4    427555.03    3.6096115  0.060943704          450           24          240 
  585000         58.5    420356.56    3.6093315  0.060943704          450           24          240 
  586000         58.6    413704.63    3.6082403  0.060943704          450           24          240 
  587000         58.7    409860.63     3.607569  0.060943704          450           24          240 
  588000         58.8    408575.87     3.607301  0.060943704          450           24          240 
  589000         58.9    409247.51    3.6070295  0.060943704          450           24          240 
  590000           59    411444.25    3.6064685  0.060943704          450           24          240 
  591000         59.1    414511.15     3.605886  0.060943704          450           24          240 
  592000         59.2    417826.48    3.6057787  0.060943704          450           24          240 
  593000         59.3    422132.42    3.6055279  0.060943704          450           24          240 
  594000         59.4    427095.71    3.6050243  0.060943704          450           24          240 
  595000         59.5    432505.54    3.6047998  0.060943704          450           24          240 
  596000         59.6    437132.04    3.6048051  0.060943704          450           24          240 
  597000         59.7    442175.16    3.6047556  0.060943704          450           24          240 
  598000         59.8    446853.87    3.6048637  0.060943704          450           24          240 
  599000         59.9    452313.36    3.6050643  0.060943704          450           24          240 
  600000           60    458075.02    3.6053164  0.060943704          450           24          240 
Loop time of 4389.83 on 12 procs for 300000 steps with 42464 atoms

Performance: 590455.629 ns/day, 0.000 hours/ns, 68.340 timesteps/s
99.8% CPU use with 12 MPI tasks x no OpenMP threads

MPI task timing breakdown:
Section |  min time  |  avg time  |  max time  |%varavg| %total
---------------------------------------------------------------
Pair    | 0.29351    | 1118       | 2232.1     |2932.0 | 25.47
Neigh   | 4.6067     | 284.89     | 1487.4     |2885.4 |  6.49
Comm    | 63.107     | 968.46     | 3152       |3402.3 | 22.06
Output  | 0.51027    | 0.59818    | 0.63643    |   5.1 |  0.01
Modify  | 798.32     | 2010.4     | 4320.8     |3642.1 | 45.80
Other   |            | 7.435      |            |       |  0.17

Nlocal:    3538.67 ave 18559 max 0 min
Histogram: 8 2 0 0 0 0 0 0 1 1
Nghost:    1155.75 ave 5511 max 0 min
Histogram: 8 0 1 1 0 0 0 0 1 1
Neighs:    20056.2 ave 111947 max 0 min
Histogram: 8 2 0 0 0 0 0 0 1 1
FullNghs:  40112.3 ave 224905 max 0 min
Histogram: 8 2 0 0 0 0 0 0 1 1

Total # of neighbors = 481348
Ave neighs/atom = 11.3354
Neighbor list builds = 60000
Dangerous builds not checked


unfix extra_gravity

# Move piston wall to starting position
variable dz equal bound(slurry,zmax)-bound(piston_wall,zmin)+0.2
displace_atoms piston_wall move 0 0 ${dz}
displace_atoms piston_wall move 0 0 -56.4397279561855
run 1000
WARNING: One or more atoms are time integrated more than once (../modify.cpp:271)
Memory usage per processor = 7.11183 Mbytes
Step Time Temp Press Density Lx Ly Lz 
  600000           60    458075.02    6.2477923  0.060943704          450           24          240 
  601000         60.1    2255767.1    3.1978791  0.060943704          450           24          240 
Loop time of 16.6573 on 12 procs for 1000 steps with 42464 atoms

Performance: 518691.675 ns/day, 0.000 hours/ns, 60.034 timesteps/s
99.9% CPU use with 12 MPI tasks x no OpenMP threads

MPI task timing breakdown:
Section |  min time  |  avg time  |  max time  |%varavg| %total
---------------------------------------------------------------
Pair    | 0.0010455  | 4.4641     | 8.9133     | 185.4 | 26.80
Neigh   | 0.015589   | 1.0323     | 5.7601     | 189.2 |  6.20
Comm    | 0.22225    | 3.833      | 12.532     | 215.8 | 23.01
Output  | 0.00016308 | 0.00051256 | 0.00063491 |   0.7 |  0.00
Modify  | 2.4539     | 7.3023     | 16.417     | 238.5 | 43.84
Other   |            | 0.02513    |            |       |  0.15

Nlocal:    3538.67 ave 18993 max 0 min
Histogram: 8 2 0 0 0 0 0 0 1 1
Nghost:    1155.75 ave 5636 max 0 min
Histogram: 8 0 2 0 0 0 0 0 1 1
Neighs:    20071.8 ave 113013 max 0 min
Histogram: 8 2 0 0 0 0 0 0 1 1
FullNghs:  40143.7 ave 227026 max 0 min
Histogram: 8 2 0 0 0 0 0 0 1 1

Total # of neighbors = 481724
Ave neighs/atom = 11.3443
Neighbor list builds = 200
Dangerous builds not checked


# Expansion step
run 50000
WARNING: One or more atoms are time integrated more than once (../modify.cpp:271)
Memory usage per processor = 7.11183 Mbytes
Step Time Temp Press Density Lx Ly Lz 
  601000         60.1    2255767.1    3.1614117  0.060943704          450           24          240 
  602000         60.2    9928238.2    3.1974543  0.060943704          450           24          240 
  603000         60.3     22419559    3.1663872  0.060943704          450           24          240 
  604000         60.4     38587205    3.1148044  0.060943704          450           24          240 
  605000         60.5     57449048    3.0455386  0.060943704          450           24          240 
  606000         60.6     78126564    2.9649142  0.060943704          450           24          240 
  607000         60.7     99829029    2.8735871  0.060943704          450           24          240 
  608000         60.8 1.2184234e+08    2.7784801  0.060943704          450           24          240 
  609000         60.9 1.4352969e+08    2.6765906  0.060943704          450           24          240 
  610000           61 1.6431319e+08    2.5757875  0.060943704          450           24          240 
  611000         61.1 1.8375541e+08    2.4726685  0.060943704          450           24          240 
  612000         61.2 2.0148654e+08    2.3804654  0.060943704          450           24          240 
  613000         61.3 2.1707292e+08    2.2923008  0.060943704          450           24          240 
  614000         61.4 2.3024927e+08    2.2189783  0.060943704          450           24          240 
  615000         61.5 2.4082685e+08    2.1434287  0.060943704          450           24          240 
  616000         61.6 2.4862182e+08     2.071121  0.060943704          450           24          240 
  617000         61.7 2.5362386e+08    2.0238756  0.060943704          450           24          240 
  618000         61.8 2.5594041e+08    1.9792967  0.060943704          450           24          240 
  619000         61.9 2.5539605e+08    1.9631218  0.060943704          450           24          240 
  620000           62 2.5154409e+08    1.9785988  0.060943704          450           24          240 
  621000         62.1 2.4392937e+08     1.973974  0.060943704          450           24          240 
  622000         62.2 2.3287144e+08    2.0281455  0.060943704          450           24          240 
  623000         62.3 2.1955201e+08    2.0534636  0.060943704          450           24          240 
  624000         62.4 2.044447e+08    2.0963691  0.060943704          450           24          240 
  625000         62.5 1.8741041e+08    2.1251469  0.060943704          450           24          240 
  626000         62.6 1.6868343e+08    2.1598514  0.060943704          450           24          240 
  627000         62.7 1.4901673e+08    2.2037023  0.060943704          450           24          240 
  628000         62.8 1.2992564e+08    2.2362417  0.060943704          450           24          240 
  629000         62.9 1.1250019e+08    2.2332101  0.060943704          450           24          240 
  630000           63     96845728    2.2523422  0.060943704          450           24          240 
  631000         63.1     82742142    2.2768418  0.060943704          450           24          240 
  632000         63.2     70129599    2.2869171  0.060943704          450           24          240 
  633000         63.3     58882545    2.2970343  0.060943704          450           24          240 
  634000         63.4     48922330    2.2996122  0.060943704          450           24          240 
  635000         63.5     40196510    2.2954006  0.060943704          450           24          240 
  636000         63.6     32668449    2.2893527  0.060943704          450           24          240 
  637000         63.7     26265323    2.2827401  0.060943704          450           24          240 
  638000         63.8     20914727    2.2732049  0.060943704          450           24          240 
  639000         63.9     16541086    2.2602737  0.060943704          450           24          240 
  640000           64     13069309    2.2451363  0.060943704          450           24          240 
  641000         64.1     10426485    2.2286097  0.060943704          450           24          240 
  642000         64.2    8531681.2    2.2104303  0.060943704          450           24          240 
  643000         64.3    7295837.4    2.1908535  0.060943704          450           24          240 
  644000         64.4    6638625.3    2.1723698  0.060943704          450           24          240 
  645000         64.5    6481557.6    2.1529341  0.060943704          450           24          240 
  646000         64.6      6744205    2.1326028  0.060943704          450           24          240 
  647000         64.7    7348651.3    2.1127673  0.060943704          450           24          240 
  648000         64.8    8213026.9    2.0935053  0.060943704          450           24          240 
  649000         64.9    9254310.1    2.0754139  0.060943704          450           24          240 
  650000           65     10385050     2.058295  0.060943704          450           24          240 
  651000         65.1     11511467    2.0425007  0.060943704          450           24          240 
Loop time of 836.1 on 12 procs for 50000 steps with 42464 atoms

Performance: 516684.888 ns/day, 0.000 hours/ns, 59.801 timesteps/s
99.8% CPU use with 12 MPI tasks x no OpenMP threads

MPI task timing breakdown:
Section |  min time  |  avg time  |  max time  |%varavg| %total
---------------------------------------------------------------
Pair    | 0.052375   | 223.61     | 449.85     |1322.8 | 26.74
Neigh   | 0.7695     | 50.953     | 288.57     |1348.1 |  6.09
Comm    | 11.504     | 191.86     | 628.99     |1531.6 | 22.95
Output  | 0.066901   | 0.083147   | 0.088756   |   2.5 |  0.01
Modify  | 126.6      | 368.38     | 823.63     |1677.0 | 44.06
Other   |            | 1.214      |            |       |  0.15

Nlocal:    3538.67 ave 19377 max 0 min
Histogram: 8 2 0 0 0 0 0 0 1 1
Nghost:    1131.67 ave 5663 max 0 min
Histogram: 8 0 2 0 0 0 0 0 1 1
Neighs:    19729.9 ave 114143 max 0 min
Histogram: 9 1 0 0 0 0 0 0 1 1
FullNghs:  39459.8 ave 229164 max 0 min
Histogram: 9 1 0 0 0 0 0 0 1 1

Total # of neighbors = 473518
Ave neighs/atom = 11.151
Neighbor list builds = 10000
Dangerous builds not checked


# Cooling step
#fix cool slurry langevin 300 300 10 234
fix cool cbd_solvent nvt temp 3000 3000 30
run 50000
WARNING: One or more atoms are time integrated more than once (../modify.cpp:271)
Memory usage per processor = 7.14497 Mbytes
Step Time Temp Press Density Lx Ly Lz 
  651000         65.1     11511467    2.0016612  0.060943704          450           24          240 
  652000         65.2     12440482    2.1339059  0.060943704          450           24          240 
  653000         65.3     13183412    2.0259982  0.060943704          450           24          240 
  654000         65.4     13314719    1.9667103  0.060943704          450           24          240 
  655000         65.5     12853959    1.9224892  0.060943704          450           24          240 
  656000         65.6     11910874    1.8843715  0.060943704          450           24          240 
  657000         65.7     10623051    1.8515214  0.060943704          450           24          240 
  658000         65.8    9140589.2    1.8231042  0.060943704          450           24          240 
  659000         65.9    7596604.8    1.7968831  0.060943704          450           24          240 
  660000           66    6102807.2      1.77229  0.060943704          450           24          240 
  661000         66.1    4743907.5    1.7497498  0.060943704          450           24          240 
  662000         66.2    3578065.4     1.728998  0.060943704          450           24          240 
  663000         66.3    2636265.9    1.7094679  0.060943704          450           24          240 
  664000         66.4    1925179.3    1.6920066  0.060943704          450           24          240 
  665000         66.5    1435795.6    1.6774697  0.060943704          450           24          240 
  666000         66.6    1144521.1    1.6658761  0.060943704          450           24          240 
  667000         66.7    1019128.5    1.6566499  0.060943704          450           24          240 
  668000         66.8    1021063.8    1.6507441  0.060943704          450           24          240 
  669000         66.9    1112789.1    1.6480928  0.060943704          450           24          240 
  670000           67    1257880.5    1.6479341  0.060943704          450           24          240 
  671000         67.1    1423078.6    1.6504723  0.060943704          450           24          240 
  672000         67.2    1582266.2    1.6550992  0.060943704          450           24          240 
  673000         67.3    1716436.9    1.6605443  0.060943704          450           24          240 
  674000         67.4    1814591.2    1.6662841  0.060943704          450           24          240 
  675000         67.5    1868717.3    1.6726357  0.060943704          450           24          240 
  676000         67.6    1876643.1    1.6789182  0.060943704          450           24          240 
  677000         67.7    1839173.6    1.6852187  0.060943704          450           24          240 
  678000         67.8    1761257.5    1.6902939  0.060943704          450           24          240 
  679000         67.9    1648611.1    1.6946069  0.060943704          450           24          240 
  680000           68    1507580.9    1.6979329  0.060943704          450           24          240 
  681000         68.1    1347227.3    1.6998448  0.060943704          450           24          240 
  682000         68.2    1175281.2    1.7005451  0.060943704          450           24          240 
  683000         68.3    999646.66    1.6999792  0.060943704          450           24          240 
  684000         68.4    828226.73    1.6979422  0.060943704          450           24          240 
  685000         68.5    667228.91    1.6948364  0.060943704          450           24          240 
  686000         68.6    522313.58    1.6903081  0.060943704          450           24          240 
  687000         68.7    397397.57    1.6841452  0.060943704          450           24          240 
  688000         68.8    294601.52     1.677202  0.060943704          450           24          240 
[...]
 5194000        519.4    527640.11   0.32506481   0.06053037          450           24          240 
 5195000        519.5    527670.26   0.32546156   0.06053037          450           24          240 
 5196000        519.6    527714.66    0.3258252   0.06053037          450           24          240 
 5197000        519.7    527808.05   0.32610046   0.06053037          450           24          240 
 5198000        519.8    527915.64   0.32637882   0.06053037          450           24          240 
 5199000        519.9    528150.14    0.3267819   0.06053037          450           24          240 
 5200000          520    528387.04   0.32714146   0.06053037          450           24          240 
 5201000        520.1    528598.48   0.32763851   0.06053037          450           24          240 
 5202000        520.2    528745.77   0.32808128   0.06053037          450           24          240 
 5203000        520.3    528886.45    0.3284194   0.06053037          450           24          240 
 5204000        520.4    528975.24   0.32876888   0.06053037          450           24          240 
 5205000        520.5    529046.57   0.32908985   0.06053037          450           24          240 
 5206000        520.6    529170.64   0.32945878   0.06053037          450           24          240 
 5207000        520.7    529305.53    0.3298843   0.06053037          450           24          240 
 5208000        520.8    529461.71   0.33034956   0.06053037          450           24          240 
 5209000        520.9    529605.32   0.33069859   0.06053037          450           24          240 
 5210000          521     529700.1   0.33103531   0.06053037          450           24          240 
 5211000        521.1    529882.12   0.33150741   0.06053037          450           24          240 
 5212000        521.2    530035.06   0.33199889   0.06053037          450           24          240 
 5213000        521.3    530077.65   0.33251904   0.06053037          450           24          240 
 5214000        521.4    530124.54   0.33297333   0.06053037          450           24          240 
 5215000        521.5    530250.37   0.33330331   0.06053037          450           24          240 
 5216000        521.6    530373.17   0.33366182   0.06053037          450           24          240 
 5217000        521.7    530474.34   0.33407298   0.06053037          450           24          240 
 5218000        521.8    530583.57   0.33445641   0.06053037          450           24          240 
 5219000        521.9    530597.34   0.33491574   0.06053037          450           24          240 
 5220000          522    530560.59   0.33543709   0.06053037          450           24          240 
 5221000        522.1    530511.96   0.33593108   0.06053037          450           24          240 
 5222000        522.2    530442.08   0.33639703   0.06053037          450           24          240 
 5223000        522.3    530408.71   0.33674429   0.06053037          450           24          240 
 5224000        522.4    530347.65   0.33719997   0.06053037          450           24          240 
 5225000        522.5    530286.51   0.33753271   0.06053037          450           24          240 
 5226000        522.6    530245.89   0.33792957   0.06053037          450           24          240 
 5227000        522.7    530172.76   0.33834265   0.06053037          450           24          240 
 5228000        522.8    530035.14   0.33867681   0.06053037          450           24          240 
 5229000        522.9    529918.99   0.33908449   0.06053037          450           24          240 
 5230000          523    529758.95   0.33944313   0.06053037          450           24          240 
 5231000        523.1    529661.74   0.33988764   0.06053037          450           24          240 
 5232000        523.2    529588.64   0.34031991   0.06053037          450           24          240 
 5233000        523.3    529470.84   0.34082363   0.06053037          450           24          240 
 5234000        523.4    529320.04   0.34124746   0.06053037          450           24          240 
 5235000        523.5    529160.66   0.34153729   0.06053037          450           24          240 
 5236000        523.6    528953.88   0.34186819   0.06053037          450           24          240 
 5237000        523.7    528707.59   0.34228434   0.06053037          450           24          240 
 5238000        523.8    528403.17   0.34252839   0.06053037          450           24          240 
 5239000        523.9    528130.71    0.3426964   0.06053037          450           24          240 
 5240000          524    527841.25   0.34296971   0.06053037          450           24          240 
 5241000        524.1    527582.61   0.34324874   0.06053037          450           24          240 
 5242000        524.2    527324.76   0.34356463   0.06053037          450           24          240 
 5243000        524.3    527032.73   0.34399576   0.06053037          450           24          240 
 5244000        524.4    526738.02   0.34422607   0.06053037          450           24          240 
 5245000        524.5    526381.33   0.34438872   0.06053037          450           24          240 
 5246000        524.6    526044.14   0.34459362   0.06053037          450           24          240 
 5247000        524.7     525706.7   0.34484905   0.06053037          450           24          240 
 5248000        524.8    525425.59    0.3451254   0.06053037          450           24          240 
 5249000        524.9    525210.17   0.34516709   0.06053037          450           24          240 
 5250000          525    524988.82   0.34523859   0.06053037          450           24          240 
 5251000        525.1    524834.56   0.34533699   0.06053037          450           24          240 
 5252000        525.2    524604.57   0.34545712   0.06053037          450           24          240 
 5253000        525.3    524326.92   0.34568382   0.06053037          450           24          240 
 5254000        525.4    523989.06   0.34572493   0.06053037          450           24          240 
 5255000        525.5    523698.33   0.34562108   0.06053037          450           24          240 
 5256000        525.6    523377.17   0.34557952   0.06053037          450           24          240 
 5257000        525.7    523185.92   0.34547394   0.06053037          450           24          240 
 5258000        525.8    523048.14   0.34539722   0.06053037          450           24          240 
 5259000        525.9    523011.41   0.34535089   0.06053037          450           24          240 
 5260000          526     522968.8   0.34529215   0.06053037          450           24          240 
 5261000        526.1     522896.6   0.34523472   0.06053037          450           24          240 
 5262000        526.2    522848.75   0.34518707   0.06053037          450           24          240 
 5263000        526.3    522769.33   0.34507219   0.06053037          450           24          240 
 5264000        526.4    522641.87   0.34492707   0.06053037          450           24          240 
 5265000        526.5    522612.58   0.34457873   0.06053037          450           24          240 
 5266000        526.6    522589.06    0.3441623   0.06053037          450           24          240 
 5267000        526.7    522499.72   0.34397206   0.06053037          450           24          240 
 5268000        526.8    522399.43   0.34366836   0.06053037          450           24          240 
 5269000        526.9    522385.77   0.34314755   0.06053037          450           24          240 
 5270000          527    522408.02    0.3427339   0.06053037          450           24          240 
 5271000        527.1    522461.28   0.34237137   0.06053037          450           24          240 
 5272000        527.2     522594.8   0.34191017   0.06053037          450           24          240 
 5273000        527.3     522715.8   0.34134997   0.06053037          450           24          240 
 5274000        527.4    522784.64   0.34088687   0.06053037          450           24          240 
 5275000        527.5    522835.32   0.34042703   0.06053037          450           24          240 
 5276000        527.6    522924.36   0.33979107   0.06053037          450           24          240 
 5277000        527.7    522973.48   0.33912981   0.06053037          450           24          240 
 5278000        527.8    523039.82   0.33851049   0.06053037          450           24          240 
 5279000        527.9    523169.32     0.337723   0.06053037          450           24          240 
 5280000          528    523286.75   0.33693384   0.06053037          450           24          240 
 5281000        528.1    523457.73   0.33616582   0.06053037          450           24          240 
 5282000        528.2    523549.36   0.33539128   0.06053037          450           24          240 
 5283000        528.3    523687.61   0.33445342   0.06053037          450           24          240 
 5284000        528.4    523862.22   0.33357209   0.06053037          450           24          240 
 5285000        528.5    524032.36    0.3325699   0.06053037          450           24          240 
 5286000        528.6    524152.25    0.3315016   0.06053037          450           24          240 
 5287000        528.7    524282.75   0.33042612   0.06053037          450           24          240 
 5288000        528.8    524411.68   0.32930333   0.06053037          450           24          240 
 5289000        528.9    524651.27   0.32832927   0.06053037          450           24          240 
 5290000          529    524844.15   0.32731368   0.06053037          450           24          240 
 5291000        529.1    525057.74   0.32614737   0.06053037          450           24          240 
 5292000        529.2    525213.39   0.32487831   0.06053037          450           24          240 
 5293000        529.3    525322.53   0.32361644   0.06053037          450           24          240 
 5294000        529.4    525481.15    0.3222452   0.06053037          450           24          240 
 5295000        529.5    525659.32   0.32066427   0.06053037          450           24          240 
 5296000        529.6    525846.05   0.31928085   0.06053037          450           24          240 
 5297000        529.7    525955.41   0.31796122   0.06053037          450           24          240 
 5298000        529.8    526014.09    0.3163937   0.06053037          450           24          240 
 5299000        529.9    526112.43   0.31493871   0.06053037          450           24          240 
 5300000          530    526206.28    0.3134012   0.06053037          450           24          240 
 5301000        530.1    526290.29   0.31167308   0.06053037          450           24          240 
 5302000        530.2    526465.29   0.30984102   0.06053037          450           24          240 
 5303000        530.3    526686.35   0.30800504   0.06053037          450           24          240 
 5304000        530.4    526933.08   0.30617909   0.06053037          450           24          240 
 5305000        530.5    527170.28   0.30440852   0.06053037          450           24          240 
 5306000        530.6    527367.43   0.30261268   0.06053037          450           24          240 
 5307000        530.7    527576.08   0.30067391   0.06053037          450           24          240 
 5308000        530.8       527807   0.29876851   0.06053037          450           24          240 
 5309000        530.9     527985.1   0.29670653   0.06053037          450           24          240 
 5310000          531    528155.08    0.2945905   0.06053037          450           24          240 
 5311000        531.1    528351.99   0.29257941   0.06053037          450           24          240 
 5312000        531.2     528596.5     0.290417   0.06053037          450           24          240 
 5313000        531.3    528750.57   0.28812586   0.06053037          450           24          240 
 5314000        531.4    528919.52   0.28573497   0.06053037          450           24          240 
 5315000        531.5    529080.59   0.28338344   0.06053037          450           24          240 
 5316000        531.6    529193.04   0.28109167   0.06053037          450           24          240 
 5317000        531.7    529382.07   0.27888421   0.06053037          450           24          240 
 5318000        531.8    529595.19   0.27657469   0.06053037          450           24          240 
 5319000        531.9    529765.16    0.2740798   0.06053037          450           24          240 
 5320000          532    529953.16   0.27153477   0.06053037          450           24          240 
 5321000        532.1     530093.7   0.26904052   0.06053037          450           24          240 
 5322000        532.2    530238.74   0.26642748   0.06053037          450           24          240 
 5323000        532.3    530397.15   0.26378051   0.06053037          450           24          240 
 5324000        532.4    530536.65   0.26112836   0.06053037          450           24          240 
 5325000        532.5    530768.09   0.25830589   0.06053037          450           24          240 
 5326000        532.6    531030.07   0.25542413   0.06053037          450           24          240 
 5327000        532.7    531273.33   0.25272846   0.06053037          450           24          240 
 5328000        532.8    531507.36   0.24998818   0.06053037          450           24          240 
 5329000        532.9    531781.81    0.2471318   0.06053037          450           24          240 
 5330000          533       532004    0.2442385   0.06053037          450           24          240 
 5331000        533.1    532155.81   0.24123046   0.06053037          450           24          240 
 5332000        533.2    532437.67   0.23824242   0.06053037          450           24          240 
 5333000        533.3    532692.13   0.23525071   0.06053037          450           24          240 
 5334000        533.4    532935.16   0.23223633   0.06053037          450           24          240 
 5335000        533.5    533140.23   0.22922187   0.06053037          450           24          240 
 5336000        533.6    533247.62    0.2261493   0.06053037          450           24          240 
 5337000        533.7     533323.4   0.22299088   0.06053037          450           24          240 
 5338000        533.8    533408.84   0.21979419   0.06053037          450           24          240 
 5339000        533.9    533482.48   0.21650941   0.06053037          450           24          240 
 5340000          534     533604.3   0.21338419   0.06053037          450           24          240 
 5341000        534.1    533698.41   0.21020931   0.06053037          450           24          240 
 5342000        534.2    533790.01   0.20692243   0.06053037          450           24          240 
 5343000        534.3    533900.06   0.20377523   0.06053037          450           24          240 
 5344000        534.4    534082.95   0.20052829   0.06053037          450           24          240 
 5345000        534.5    534306.26   0.19704087   0.06053037          450           24          240 
 5346000        534.6    534564.67   0.19366816   0.06053037          450           24          240 
 5347000        534.7    534844.17    0.1903247   0.06053037          450           24          240 
 5348000        534.8    535086.89   0.18696794   0.06053037          450           24          240 
 5349000        534.9     535271.5   0.18359967   0.06053037          450           24          240 
 5350000          535    535473.41   0.18018879   0.06053037          450           24          240 
 5351000        535.1    535640.67   0.17689458   0.06053037          450           24          240 
 5352000        535.2    535793.61   0.17344119   0.06053037          450           24          240 
 5353000        535.3    535921.56   0.16993026   0.06053037          450           24          240 
 5354000        535.4    536037.01   0.16646225   0.06053037          450           24          240 
 5355000        535.5    536128.02   0.16297906   0.06053037          450           24          240 
 5356000        535.6     536209.1   0.15965844   0.06053037          450           24          240 
 5357000        535.7     536180.6   0.15632303   0.06053037          450           24          240 
 5358000        535.8    536156.17   0.15278733   0.06053037          450           24          240 
 5359000        535.9    536136.46   0.14930835   0.06053037          450           24          240 
 5360000          536    536092.61    0.1458423   0.06053037          450           24          240 
 5361000        536.1    536044.88   0.14253413   0.06053037          450           24          240 
 5362000        536.2    536033.29   0.13922678   0.06053037          450           24          240 
 5363000        536.3    535925.98   0.13589507   0.06053037          450           24          240 
 5364000        536.4    535842.99   0.13252052   0.06053037          450           24          240 
 5365000        536.5    535790.61   0.12912959   0.06053037          450           24          240 
 5366000        536.6    535757.81   0.12583612   0.06053037          450           24          240 
 5367000        536.7     535749.9    0.1225856   0.06053037          450           24          240 
 5368000        536.8    535764.49   0.11932458   0.06053037          450           24          240 
 5369000        536.9    535655.57   0.11603755   0.06053037          450           24          240 
 5370000          537    535579.42   0.11271174   0.06053037          450           24          240 
 5371000        537.1    535515.06   0.10943347   0.06053037          450           24          240 
 5372000        537.2    535497.28   0.10623229   0.06053037          450           24          240 
 5373000        537.3    535519.98   0.10307121   0.06053037          450           24          240 
 5374000        537.4     535556.4   0.10000633   0.06053037          450           24          240 
 5375000        537.5    535587.45  0.097081367   0.06053037          450           24          240 
 5376000        537.6    535687.76  0.094026518   0.06053037          450           24          240 
 5377000        537.7    535769.43  0.091006364   0.06053037          450           24          240 
 5378000        537.8    535906.78  0.088035841   0.06053037          450           24          240 
 5379000        537.9    536080.45  0.085139131   0.06053037          450           24          240 
 5380000          538    536225.76  0.082269383   0.06053037          450           24          240 
 5381000        538.1     536358.2  0.079442005   0.06053037          450           24          240 
 5382000        538.2    536421.87  0.076740716   0.06053037          450           24          240 
 5383000        538.3    536515.49  0.073947316   0.06053037          450           24          240 
 5384000        538.4    536594.27  0.071267875   0.06053037          450           24          240 
 5385000        538.5    536673.25  0.068644203   0.06053037          450           24          240 
 5386000        538.6    536753.68  0.066077211   0.06053037          450           24          240 
 5387000        538.7    536736.56  0.063765884   0.06053037          450           24          240 
 5388000        538.8    536661.21  0.061393708   0.06053037          450           24          240 
 5389000        538.9    536602.66  0.058826256   0.06053037          450           24          240 
 5390000          539    536521.37  0.056624539   0.06053037          450           24          240 
 5391000        539.1    536413.43  0.054556842   0.06053