LAMMPS data file via write_data, version 30 Jul 2016, timestep = 50000000

3696 atoms
8 atom types

0.0000000000000000e+00 1.0000000000000000e+02 xlo xhi
0.0000000000000000e+00 4.0000000000000000e+01 ylo yhi
0.0000000000000000e+00 4.0000000000000000e+01 zlo zhi

Masses

1 3.896
2 5.36
3 20.064
4 8.378
5 8.378
6 8.378
7 8.378
8 8.378

Atoms # meso-molecular

672 673 2 1.0280000000000011e+00 8.5778146410543127e+02 1.0000000000000000e+00 3.0973104309327944e+01 5.3649469663217164e-01 4.4566401847329988e+00 
756 757 2 1.0280000000000011e+00 8.5777963092757091e+02 1.0000000000000000e+00 3.0973136234345709e+01 5.3638535491305428e-01 4.4572464176925681e+00 
1764 1765 2 1.0279999999999982e+00 -8.8816321851941029e+02 1.0000000000000000e+00 3.1020229802902250e+01 1.8141500321474020e+00 4.8909730945430949e+00 
1512 1513 2 1.0279999999999998e+00 -8.8771461128719579e+02 1.0000000000000000e+00 3.1096444385783215e+01 1.8973318321615387e+00 3.5578379346491538e+00 
2528 2529 2 1.0280000000000007e+00 -5.2017573016364095e+03 1.0000000000000000e+00 3.2664957341830288e+01 2.6044104766072174e+00 4.1094241619724947e+00 
2856 2857 2 1.0280000000000000e+00 -5.7030253661316442e+02 1.0000000000000000e+00 3.1689729357252443e+01 3.2037229902397537e+00 3.0478892123104728e+00 
3360 3361 2 1.0279999999999996e+00 3.4669677664747769e+02 1.0000000000000000e+00 3.1699490435290485e+01 3.2451365240689638e+00 3.0565348098952660e+00 
1169 1170 2 1.0279999999999998e+00 -5.2411672994959044e+03 1.0000000000000000e+00 3.2530390301866127e+01 3.9758767847825776e+00 3.7234627644047711e+00 
1054 1055 2 1.0280000000000000e+00 -5.6856108016107055e+02 1.0000000000000000e+00 3.3312110189627163e+01 5.5798011496015842e+00 4.1205776207171372e+00 
2111 2112 2 1.0280000000000009e+00 -5.9039380832907809e+03 1.0000000000000000e+00 3.2681634660240270e+01 2.1065850342267756e+00 7.4733466587183903e+00 
2405 2406 2 1.0280000000000007e+00 1.8463273065460376e+03 1.0000000000000000e+00 2.7610233733701154e+01 4.3811830704125168e+00 6.0304840376955298e+00 
1103 1104 2 1.0280000000000002e+00 -4.3302543691141727e+02 1.0000000000000000e+00 2.7490905546307822e+01 4.3293883070827164e+00 6.0893535496137972e+00 
601 602 2 1.0280000000000002e+00 2.4826892437413358e+03 1.0000000000000000e+00 2.7395368005057893e+01 4.3080798584109274e+00 6.1506785157911770e+00 
3612 3613 2 1.0280000000000007e+00 3.4683722599817986e+02 1.0000000000000000e+00 3.1494668659187667e+01 3.4000609241175246e+00 5.0982423255730538e+00 
3192 3193 2 1.0280000000000009e+00 -5.7016240904958704e+02 1.0000000000000000e+00 3.1486894497401170e+01 3.3289052544102624e+00 5.1228363273114921e+00 
17 18 2 1.0280000000000005e+00 3.5790517039883862e+03 1.0000000000000000e+00 3.3293829113039038e+01 3.6170571809325742e+00 6.6933623519430627e+00 
1018 1019 2 1.0279999999999982e+00 1.3776906388370958e+03 1.0000000000000000e+00 3.2534158248441699e+01 3.8073737526604479e+00 6.8888914143987963e+00 
1019 1020 2 1.0279999999999991e+00 1.8293021977694011e+03 1.0000000000000000e+00 2.7242782663363592e+01 5.5326647468454722e+00 7.4728132215265948e+00 
2489 2490 2 1.0279999999999996e+00 -4.2219239808600310e+02 1.0000000000000000e+00 2.7282068490856467e+01 5.5865000237694415e+00 7.4749318141474586e+00 
2911 2912 2 1.0280000000000002e+00 2.4799725662901928e+03 1.0000000000000000e+00 2.8093563648984059e+01 5.9995311799500906e+00 7.2202576573432626e+00 
3339 3340 2 1.0279999999999996e+00 -1.2449612005364779e+03 1.0000000000000000e+00 2.9436189372072139e+01 5.7008265924992427e+00 6.9548888934020825e+00 
936 937 2 1.0280000000000000e+00 -5.6056477050809299e+03 1.0000000000000000e+00 3.0544509156020791e+01 6.1458119973169110e+00 7.4691749677165218e+00 
2835 2836 2 1.0279999999999998e+00 -3.0915933868271941e+03 1.0000000000000000e+00 3.2854014438117382e+01 5.7699498250255381e+00 5.1289348835467994e+00 
1311 1312 2 1.0279999999999996e+00 4.9650176411983939e+03 1.0000000000000000e+00 3.2804848538380249e+01 5.7821226934621111e+00 5.1500254065823805e+00 
2033 2034 2 1.0279999999999998e+00 -3.1675463819408324e+03 1.0000000000000000e+00 3.1147293346558776e+01 6.0252617091903247e+00 6.1243561007209548e+00 
3088 3089 2 1.0280000000000000e+00 -1.4444952350608783e+03 1.0000000000000000e+00 3.1356086674444668e+01 5.9897843362031047e+00 5.9757261355365383e+00 
979 980 2 1.0280000000000002e+00 1.2211721235196321e+03 1.0000000000000000e+00 3.2963441727905611e+01 6.1264642419140278e+00 7.2677645292468700e+00 
525 526 2 1.0279999999999971e+00 -2.9422905788367370e+03 1.0000000000000000e+00 3.0630317008290579e+01 1.0575141798821082e+00 8.9747780030914726e+00 
3365 3366 2 1.0280000000000000e+00 -1.0057380457714150e+03 1.0000000000000000e+00 3.0869582713852626e+01 6.4258841735187633e-01 9.5342042607852218e+00 
778 779 2 1.0280000000000005e+00 -1.4445517061405430e+03 1.0000000000000000e+00 3.0130661240886766e+01 4.9275361789575450e-01 9.5572090498888134e+00 
1571 1572 2 1.0280000000000002e+00 -3.1533294188259961e+03 1.0000000000000000e+00 3.0252270554170920e+01 4.1318148999248183e-01 9.5533687430179999e+00 
2404 2405 2 1.0280000000000009e+00 1.3776473177593530e+03 1.0000000000000000e+00 3.3299087648143420e+01 1.4860400215630920e+00 7.6267306950893801e+00 
465 466 2 1.0279999999999974e+00 3.1994895509302914e+03 1.0000000000000000e+00 3.3219995118023640e+01 1.2762170302445905e+00 8.7632808405567761e+00 
984 985 2 1.0280000000000007e+00 4.5209091847202535e+03 1.0000000000000000e+00 2.9155736907473944e+01 4.2721909728915159e+00 8.0011877586297100e+00 
929 930 2 1.0280000000000007e+00 -1.0403359188088589e+03 1.0000000000000000e+00 2.9179620172671765e+01 4.3405633000213451e+00 8.1131763014585925e+00 
2315 2316 2 1.0279999999999976e+00 -1.0432691981883663e+03 1.0000000000000000e+00 2.9720609316404989e+01 3.8779412635674895e+00 8.5486569281619946e+00 
467 468 2 1.0279999999999971e+00 4.5848256490270260e+03 1.0000000000000000e+00 3.1061843486400374e+01 3.1816230725118300e+00 9.6243164781243351e+00 
2322 2323 2 1.0279999999999996e+00 -5.4916915807874148e+03 1.0000000000000000e+00 3.1126332221338355e+01 3.9107146262646646e+00 9.3711116673949917e+00 
2777 2778 2 1.0280000000000045e+00 4.5824398264621987e+03 1.0000000000000000e+00 3.1168739453709463e+01 2.8714054974971899e+00 9.6047211690827492e+00 
2034 2035 2 1.0280000000000009e+00 -5.4771839642253981e+03 1.0000000000000000e+00 3.1308963469705272e+01 3.1319328600698881e+00 8.1999050614573097e+00 
131 132 2 1.0280000000000000e+00 -1.0061663178045418e+03 1.0000000000000000e+00 3.0960987193017480e+01 6.2678265186356654e+00 7.5335364173941688e+00 
3255 3256 2 1.0280000000000018e+00 2.5974681119954666e+03 1.0000000000000000e+00 3.2687888978756540e+01 5.4174342774791420e+00 8.8931572857536949e+00 
2113 2114 2 1.0279999999999996e+00 -4.4301876612823908e+03 1.0000000000000000e+00 3.2284211237317564e+01 5.7152474765642953e+00 8.6737787142948140e+00 
296 297 2 1.0279999999999994e+00 -3.1919856500166652e+03 1.0000000000000000e+00 2.7773527298506671e+01 7.1676594925034243e-01 1.1274325450163110e+01 
3530 3531 2 1.0279999999999998e+00 -3.1921527380169991e+03 1.0000000000000000e+00 2.7774321837199963e+01 5.7327544561128607e-01 1.1274619677225978e+01 
86 87 2 1.0279999999999996e+00 -1.7790519093823718e+03 1.0000000000000000e+00 2.8603663532770462e+01 1.4620212322852486e+00 1.1728641396281832e+01 
590 591 2 1.0279999999999989e+00 -5.8585360975688168e+01 1.0000000000000000e+00 2.9357644942940293e+01 1.1166514278682937e+00 1.1769461510366302e+01 
2900 2901 2 1.0279999999999996e+00 -5.8112733741036593e+01 1.0000000000000000e+00 2.9359367111163944e+01 2.1430698294128853e-01 1.1827150856589277e+01 
975 976 2 1.0279999999999965e+00 4.9103175359651605e+03 1.0000000000000000e+00 3.2484633984877107e+01 3.5566066335758744e+00 1.6757849686306436e+01 
1487 1488 2 1.0279999999999947e+00 -8.5531059919877007e+03 1.0000000000000000e+00 3.2021981214417252e+01 3.6163317169462630e+00 1.6788280601360416e+01 
1949 1950 2 1.0280000000000047e+00 -8.5533316520876397e+03 1.0000000000000000e+00 3.1672571025195200e+01 3.8237288728401988e+00 1.5991844330877573e+01 
2361 2362 2 1.0280000000000029e+00 4.9154283167032772e+03 1.0000000000000000e+00 3.1670324771687472e+01 3.8322927573773748e+00 1.5998167186673584e+01 
2920 2921 2 1.0280000000000062e+00 -1.4807537860412276e+03 1.0000000000000000e+00 3.3309507893043033e+01 4.2563448446246275e+00 1.5655306336487604e+01 
1271 1272 2 1.0279999999999947e+00 1.9187212761909682e+03 1.0000000000000000e+00 3.3277550525408664e+01 5.7678598500007938e+00 1.5565518329005039e+01 
85 86 2 1.0279999999999980e+00 3.4593071454116046e+02 1.0000000000000000e+00 3.1890407327347702e+01 3.4712569853959536e+01 2.8127844449375372e+00 
505 506 2 1.0279999999999978e+00 -5.7126424983173774e+02 1.0000000000000000e+00 3.1901971289944409e+01 3.4706500718342710e+01 2.8132864810583036e+00 
461 462 2 1.0280000000000022e+00 -3.3946297025805352e+03 1.0000000000000000e+00 3.0543612613570581e+01 3.7063563181759967e+01 4.3790785566712360e+00 
124 125 2 1.0279999999999974e+00 -2.4420234976083220e+03 1.0000000000000000e+00 3.0667990738967273e+01 3.6637250561411456e+01 4.4005459240611220e+00 
1933 1934 2 1.0280000000000045e+00 -8.9683737722978151e+02 1.0000000000000000e+00 3.3301222653967791e+01 3.5010137295583633e+01 3.7488109722247684e+00 
3319 3320 2 1.0279999999999982e+00 3.4582167750782475e+02 1.0000000000000000e+00 3.1885921241714033e+01 3.5976826939601310e+01 2.6693262536198095e+00 
2815 2816 2 1.0279999999999980e+00 -5.7134520474702390e+02 1.0000000000000000e+00 3.1899536466654254e+01 3.5982028009069694e+01 2.6706417343758138e+00 
1471 1472 2 1.0280000000000025e+00 -8.9496462640489108e+02 1.0000000000000000e+00 3.3307452945903975e+01 3.5572137445223603e+01 3.7757136992330556e+00 
709 710 2 1.0280000000000040e+00 1.0512560856702114e+04 1.0000000000000000e+00 3.1387985576629642e+01 3.8512039961743064e+01 4.7318807553458271e+00 
2988 2989 2 1.0279999999999991e+00 1.0464996846909797e+04 1.0000000000000000e+00 3.2936612149093342e+01 3.9920092101313216e+01 3.4922681534675513e+00 
3358 3359 2 1.0279999999999996e+00 -2.4428609875838674e+03 1.0000000000000000e+00 3.1710191790594543e+01 3.3652813526737354e+01 5.0222733743161498e+00 
3695 3696 2 1.0279999999999991e+00 -3.3958959131735719e+03 1.0000000000000000e+00 3.1759230626181171e+01 3.3322098184897499e+01 5.1441105655270620e+00 
3275 3276 2 1.0280000000000007e+00 -3.3957563303031720e+03 1.0000000000000000e+00 3.1873708051250322e+01 3.3318597342226326e+01 5.9925882485342008e+00 
3610 3611 2 1.0280000000000005e+00 -2.4427039692672479e+03 1.0000000000000000e+00 3.1897193333280960e+01 3.3571558737713190e+01 6.0567294609974596e+00 
41 42 2 1.0279999999999958e+00 -3.3945065827291664e+03 1.0000000000000000e+00 3.0303567600076590e+01 3.7246300575140324e+01 5.7066153937072599e+00 
376 377 2 1.0279999999999965e+00 -2.4418882188700891e+03 1.0000000000000000e+00 3.0436768928873459e+01 3.6771797581918975e+01 5.8198650052598921e+00 
2091 2092 2 1.0280000000000100e+00 -7.6352176741911317e+03 1.0000000000000000e+00 3.2076342429630195e+01 3.6337468996292976e+01 5.4238207346214056e+00 
2185 2186 2 1.0280000000000014e+00 -8.9535339254145811e+02 1.0000000000000000e+00 3.2504508466311123e+01 3.6854046721811983e+01 6.8481871949429527e+00 
3456 3457 2 1.0279999999999982e+00 -3.2108775490766166e+03 1.0000000000000000e+00 3.1899606329941573e+01 3.9689344612785867e+01 5.0078323551075954e+00 
3475 3476 2 1.0279999999999945e+00 -3.2341191416539941e+03 1.0000000000000000e+00 3.2088509767907951e+01 3.8089118192388547e+01 5.1152906754867091e+00 
1723 1724 2 1.0280000000000054e+00 -8.9571633981386185e+02 1.0000000000000000e+00 3.2567666390663412e+01 3.8142438268438596e+01 6.6713289471541977e+00 
841 842 2 1.0279999999999980e+00 -5.7062697912508611e+02 1.0000000000000000e+00 3.1375159456596130e+01 3.6924465449088075e+01 7.8964645931227713e+00 
337 338 2 1.0279999999999982e+00 3.4656943273410207e+02 1.0000000000000000e+00 3.1362820947025419e+01 3.6929899559957327e+01 7.8971621735425819e+00 
3571 3572 2 1.0279999999999996e+00 3.4836743887473563e+02 1.0000000000000000e+00 3.1433886923283776e+01 3.8299902734855685e+01 7.7960193954894814e+00 
3151 3152 2 1.0279999999999998e+00 -5.6880961734186985e+02 1.0000000000000000e+00 3.1441038497247447e+01 3.8301779474585047e+01 7.7996884000905373e+00 
3320 3321 2 1.0280000000000054e+00 -1.7787209043980461e+03 1.0000000000000000e+00 2.8603575299147906e+01 3.9837516505792962e+01 1.1734548330146483e+01 
3658 3659 2 1.0280000000000002e+00 5.3941984837030868e+03 1.0000000000000000e+00 3.3299436948774954e+01 3.4764124397996589e+01 1.7634418782272650e+01 
2401 2402 2 1.0280000000000100e+00 5.8450156378576557e+03 1.0000000000000000e+00 3.7784057811829712e+01 9.7106007577691456e-01 4.8496487462541238e-01 
2201 2202 2 1.0279999999999987e+00 -8.3695461139843756e+03 1.0000000000000000e+00 3.8030077969456158e+01 7.5021828134673119e-01 1.7624021216728485e+00 
3084 3085 2 1.0280000000000011e+00 5.4818519422309255e+03 1.0000000000000000e+00 3.9584913877714143e+01 9.3254583390400614e-01 1.5880409198620409e+00 
1015 1016 2 1.0279999999999956e+00 5.8424109079154478e+03 1.0000000000000000e+00 3.8405710492278949e+01 2.1648759615296052e-03 2.2394564543712480e-02 
397 398 2 1.0279999999999891e+00 -1.5592496523432083e+03 1.0000000000000000e+00 4.1222028965308446e+01 5.8335443033713541e-01 2.4612110032747067e-01 
2837 2838 2 1.0280000000000062e+00 -2.5636576915094083e+03 1.0000000000000000e+00 4.1326703021854129e+01 1.9954441103464773e+00 2.6206225651118231e-01 
140 141 2 1.0279999999999978e+00 1.0977059306484089e+03 1.0000000000000000e+00 4.4567210794894777e+01 1.8261648250876301e+00 1.4541875870672645e+00 
1017 1018 2 1.0279999999999954e+00 5.3836651787766232e+03 1.0000000000000000e+00 4.3891052835491678e+01 6.5767051916057195e-01 1.6552740483863062e+00 
2874 2875 2 1.0280000000000049e+00 -3.9133431056969550e+02 1.0000000000000000e+00 4.3404624944846113e+01 2.3324005059026818e+00 1.5042279947830623e+00 
935 936 2 1.0280000000000025e+00 -7.1486313037841428e+03 1.0000000000000000e+00 4.3580135352035164e+01 2.4886479095939933e+00 1.7044084984585737e+00 
2150 2151 2 1.0280000000000027e+00 6.0773515488774010e+03 1.0000000000000000e+00 4.6642942072004502e+01 2.0459147017735537e+00 1.4397133247389247e+00 
2872 2873 2 1.0280000000000042e+00 -2.0511243057085098e+03 1.0000000000000000e+00 4.7182860501990767e+01 3.1495739300949394e-01 1.9172869492371483e+00 
155 156 2 1.0280000000000029e+00 1.1200308814262323e+03 1.0000000000000000e+00 4.9455396103020753e+01 2.0321726097349573e+00 2.1687143800128985e+00 
149 150 2 1.0279999999999996e+00 3.0851967309917268e+03 1.0000000000000000e+00 4.9669068947804583e+01 2.3377766917934828e+00 2.3556750445841228e+00 
2327 2328 2 1.0279999999999885e+00 -2.4270715258157434e+03 1.0000000000000000e+00 5.1195773751720644e+01 3.5105131179692595e-01 1.1852697877359819e+00 
956 957 2 1.0280000000000205e+00 -7.1535981647329854e+03 1.0000000000000000e+00 5.1032119954132249e+01 1.6898046613490090e+00 1.3798693732967675e+00 
3100 3101 2 1.0280000000000002e+00 2.0537215262515174e+03 1.0000000000000000e+00 5.3361632656144891e+01 2.5462538646982691e-01 8.6343180698554500e-01 
916 917 2 1.0280000000000040e+00 5.5066746044416550e+02 1.0000000000000000e+00 5.3860132663659755e+01 6.1404199518409808e-01 1.9585843588697351e+00 
77 78 2 1.0280000000000029e+00 -1.5126135522633340e+03 1.0000000000000000e+00 5.3715074003050219e+01 6.4344676580740001e-01 2.0998869281368013e+00 
2823 2824 2 1.0280000000000002e+00 -2.0674431045900710e+03 1.0000000000000000e+00 3.7047657519564531e+01 3.3296660407781422e+00 2.0017336841088618e+00 
2697 2698 2 1.0280000000000000e+00 5.2920884260334296e+03 1.0000000000000000e+00 3.6426488018623978e+01 3.4256943101526716e+00 2.2507925830564472e+00 
1433 1434 2 1.0280000000000002e+00 2.9053518030663150e+02 1.0000000000000000e+00 3.6342447280709322e+01 3.6445570362768627e+00 2.3983836236005587e+00 
651 652 2 1.0279999999999980e+00 7.2579890970924371e+03 1.0000000000000000e+00 3.9409727836669994e+01 2.6667910819797815e+00 1.8581435173040257e+00 
1437 1438 2 1.0279999999999994e+00 1.6860377930105660e+03 1.0000000000000000e+00 4.0446763817263474e+01 2.7555273381118139e+00 1.2723518725208027e+00 
774 775 2 1.0279999999999996e+00 5.4914939190621790e+03 1.0000000000000000e+00 3.8479771579491242e+01 2.8440333447535604e+00 2.4282070168375420e+00 
2903 2904 2 1.0279999999999996e+00 1.2768273991316439e+03 1.0000000000000000e+00 4.0478854102195569e+01 3.3938382128062230e+00 5.2865288417272926e-01 
1314 1315 2 1.0279999999999951e+00 2.7193010762618514e+03 1.0000000000000000e+00 4.5892453783128552e+01 3.1227112690983825e+00 9.0870993145687118e-01 
933 934 2 1.0280000000000005e+00 -8.4872794289450831e+03 1.0000000000000000e+00 4.6032665394211662e+01 3.7172322461118958e+00 4.0940255323877056e-01 
1447 1448 2 1.0280000000000047e+00 4.2366945505479198e+03 1.0000000000000000e+00 4.7140521984410896e+01 2.5722404828767718e+00 1.2908287520865336e+00 
1840 1841 2 1.0280000000000038e+00 -8.0009615827626385e+02 1.0000000000000000e+00 4.7604425041808241e+01 4.8662489719177850e+00 2.2531308871629157e+00 
2036 2037 2 1.0280000000000027e+00 -6.6614324653319491e+03 1.0000000000000000e+00 4.5985902425310115e+01 4.9014326138321067e+00 2.1142317122561987e+00 
958 959 2 1.0280000000000031e+00 -8.4901036794900156e+03 1.0000000000000000e+00 4.8784933692769847e+01 4.3416094537070800e+00 7.1268422729225811e-01 
1333 1334 2 1.0280000000000009e+00 2.7500185731340398e+03 1.0000000000000000e+00 4.9472286851842711e+01 3.6319805937448844e+00 5.1670972022377659e-01 
2177 2178 2 1.0279999999999911e+00 6.0865399558418358e+03 1.0000000000000000e+00 4.9552177736471137e+01 2.8248211831275030e+00 4.9039798196363527e-01 
1885 1886 2 1.0280000000000018e+00 -3.0484317046269857e+03 1.0000000000000000e+00 4.8480749539483625e+01 4.5699006722669369e+00 5.3706939452756575e-01 
1815 1816 2 1.0280000000000002e+00 -8.1063122823639810e+02 1.0000000000000000e+00 4.6127837407647391e+01 5.0589906653871628e+00 1.3785785769352579e+00 
1418 1419 2 1.0280000000000000e+00 -2.1528149573811079e+03 1.0000000000000000e+00 5.0792668918531952e+01 9.8426149859947198e+00 1.4374522120935220e+00 
2429 2430 2 1.0280000000000002e+00 4.0011440686951482e+03 1.0000000000000000e+00 5.0794862588946515e+01 9.9197821241047279e+00 1.4213398961897170e+00 
2354 2355 2 1.0279999999999978e+00 -5.9974592652545307e+03 1.0000000000000000e+00 4.2148041974738035e+01 1.1614494446157362e+01 1.1129892132132706e+00 
1746 1747 2 1.0279999999999996e+00 -9.0869108562402944e+03 1.0000000000000000e+00 4.2565886837879795e+01 1.1433073546281143e+01 1.1951230305869665e+00 
454 455 2 1.0280000000000002e+00 5.4563330937760484e+03 1.0000000000000000e+00 4.2805114805468016e+01 1.2228821456850408e+01 2.1224994338615240e+00 
520 521 2 1.0280000000000018e+00 -3.6442180723437950e+03 1.0000000000000000e+00 4.3163599665351065e+01 1.1342321128080057e+01 1.6025124829692194e+00 
1035 1036 2 1.0280000000000002e+00 6.5665855314640376e+03 1.0000000000000000e+00 4.4871293911340892e+01 1.2388509480900742e+01 1.7548537474812105e+00 
531 532 2 1.0280000000000000e+00 -3.6788815271036137e+03 1.0000000000000000e+00 4.5073841219199053e+01 1.0178692879985125e+01 2.4750466426610100e+00 
1252 1253 2 1.0279999999999998e+00 6.6314871656668288e+02 1.0000000000000000e+00 5.0099452602628141e+01 1.0062144657536086e+01 7.2174801380609599e-01 
3054 3055 2 1.0280000000000000e+00 1.3419490396636025e+04 1.0000000000000000e+00 5.0294839246348282e+01 1.0216955261051245e+01 5.8458517718093705e-01 
1400 1401 2 1.0280000000000042e+00 -1.4123488993891419e+03 1.0000000000000000e+00 4.1254307601298585e+01 1.3409604466588979e+01 4.4638658642873058e-01 
56 57 2 1.0280000000000022e+00 -3.4818364509175030e+03 1.0000000000000000e+00 4.1593521787502880e+01 1.3064262352478336e+01 5.9961649837450548e-01 
2072 2073 2 1.0280000000000022e+00 2.1066262811628444e+03 1.0000000000000000e+00 4.2782423788897447e+01 1.4453816717057377e+01 6.3030647401876416e-02 
3452 3453 2 1.0279999999999982e+00 9.1062307926052245e+02 1.0000000000000000e+00 4.4027171618349712e+01 1.4866053643232268e+01 1.0045376187570909e-01 
917 918 2 1.0280000000000007e+00 -2.3764671028563816e+03 1.0000000000000000e+00 4.5594324310948402e+01 1.2695156117533193e+01 2.3110723820006354e+00 
2415 2416 2 1.0279999999999980e+00 8.0471456717788378e+03 1.0000000000000000e+00 5.0163977164951355e+01 1.3982568736923616e+01 1.5868628836589929e+00 
71 72 2 1.0280000000000049e+00 -3.4984119080911869e+03 1.0000000000000000e+00 5.0232768349436164e+01 1.3907017043924306e+01 1.6468065357604298e+00 
1741 1742 2 1.0279999999999943e+00 -9.0846569782690312e+03 1.0000000000000000e+00 5.0526307156354690e+01 1.3050504676894976e+01 2.3061112267211490e+00 
3493 3494 2 1.0279999999999985e+00 1.1490678886729769e+04 1.0000000000000000e+00 4.3724865125014787e+01 1.5706271975121840e+01 1.9429293600180816e-01 
910 911 2 1.0280000000000031e+00 3.6651555713418438e+03 1.0000000000000000e+00 4.7622671784279106e+01 1.7039409551719501e+01 1.8115612810888320e+00 
198 199 2 1.0280000000000029e+00 -1.5800188428642432e+03 1.0000000000000000e+00 4.7642405528720985e+01 1.7038977184754962e+01 1.8215363286124266e+00 
18 19 2 1.0279999999999989e+00 2.1277494875174275e+03 1.0000000000000000e+00 4.9164985270934245e+01 1.5783482736157088e+01 1.4572756800421699e-01 
1038 1039 2 1.0279999999999998e+00 4.9540000500467359e+03 1.0000000000000000e+00 4.9754754636353546e+01 1.5140559690577161e+01 6.5735681057867579e-01 
586 587 2 1.0279999999999998e+00 1.9451231154230279e+03 1.0000000000000000e+00 4.9782049923295666e+01 1.5103079085672791e+01 6.8281335315976488e-01 
245 246 2 1.0279999999999998e+00 8.6972401948083302e+02 1.0000000000000000e+00 4.8788616093577915e+01 1.7076194793070339e+01 1.2439948665125582e+00 
2546 2547 2 1.0279999999999905e+00 6.2380037591491455e+03 1.0000000000000000e+00 4.6792369592087304e+01 1.8339649960058310e+01 1.0476334783764079e+00 
1623 1624 2 1.0280000000000005e+00 -1.7033089003395930e+03 1.0000000000000000e+00 4.6990498003314215e+01 1.8586075215721543e+01 1.3204041652898997e+00 
2474 2475 2 1.0280000000000038e+00 -9.0392619424905320e+02 1.0000000000000000e+00 4.8177712370544704e+01 1.9683401926458352e+01 7.3656895045335347e-02 
1620 1621 2 1.0279999999999982e+00 1.8484197304263131e+02 1.0000000000000000e+00 4.8704728676647136e+01 1.8272792363617967e+01 2.1965042190986281e+00 
2068 2069 2 1.0279999999999996e+00 -7.6826663018943409e+03 1.0000000000000000e+00 3.3687022865237523e+01 5.9152923392566825e-01 3.8304149805304073e+00 
678 679 2 1.0279999999999996e+00 1.0463848436682934e+04 1.0000000000000000e+00 3.3661202730281936e+01 6.3114459698394343e-01 3.8313240383627476e+00 
2499 2500 2 1.0279999999999969e+00 -1.1233173348773958e+03 1.0000000000000000e+00 3.8630452598997579e+01 1.0496704281624398e+00 3.1209459405118123e+00 
569 570 2 1.0280000000000054e+00 -3.7546523431469241e+03 1.0000000000000000e+00 3.8417007124368503e+01 3.8252301310090397e-01 4.3181545902102485e+00 
3282 3283 2 1.0279999999999998e+00 -1.7311823428555913e+03 1.0000000000000000e+00 4.0352237300892220e+01 1.7521873086532778e+00 3.0115832864490684e+00 
141 142 2 1.0280000000000045e+00 2.5371373687052674e+03 1.0000000000000000e+00 4.0727109236431460e+01 1.2287674553308996e+00 3.1054664766879654e+00 
522 523 2 1.0279999999999958e+00 -2.4567815297719549e+03 1.0000000000000000e+00 4.1488189110481912e+01 4.3082523621194246e-01 3.8073032373652134e+00 
1313 1314 2 1.0279999999999945e+00 5.3750981607196582e+03 1.0000000000000000e+00 4.2501388357902705e+01 2.1678638008082509e+00 3.0215779719278903e+00 
939 940 2 1.0280000000000085e+00 -3.1603128149450190e+03 1.0000000000000000e+00 4.1915724312205583e+01 7.4327309561333343e-01 4.4034496986531382e+00 
2200 2201 2 1.0279999999999960e+00 -4.9267873516396558e+03 1.0000000000000000e+00 4.2546143650185826e+01 2.4195344360169337e+00 3.5240106963340105e+00 
1986 1987 2 1.0280000000000067e+00 7.7272865505699269e+02 1.0000000000000000e+00 4.4268519355178320e+01 1.4198890350697131e+00 4.2118163037960015e+00 
866 867 2 1.0280000000000058e+00 -1.3464653849732244e+03 1.0000000000000000e+00 4.5241121606613085e+01 4.3488083330636940e-01 4.8803578237589500e+00 
943 944 2 1.0279999999999967e+00 -4.4087833753053028e+03 1.0000000000000000e+00 4.6849034064671905e+01 1.7018016462036234e+00 2.9128888329220408e+00 
146 147 2 1.0279999999999925e+00 3.1004025225691371e+03 1.0000000000000000e+00 4.8026542735718778e+01 1.3658685878223729e+00 3.0154225404347930e+00 
57 58 2 1.0280000000000098e+00 -4.1032079124013535e+03 1.0000000000000000e+00 4.9088948177360351e+01 4.0963440615885255e-01 3.3405821783380691e+00 
989 990 2 1.0279999999999994e+00 4.1449302841088274e+03 1.0000000000000000e+00 4.9452578623964733e+01 6.2625118299505278e-01 4.9165663147590521e+00 
948 949 2 1.0280000000000002e+00 -4.4394234452639303e+03 1.0000000000000000e+00 4.9533183281305000e+01 1.9826075624983037e+00 4.9212951039944590e+00 
2211 2212 2 1.0279999999999836e+00 -4.8676253678495050e+03 1.0000000000000000e+00 5.1058272778815265e+01 7.4130083197556518e-01 2.7263436677785839e+00 
2005 2006 2 1.0279999999999989e+00 7.1715927820896127e+02 1.0000000000000000e+00 5.0482555825974600e+01 2.7855650602548454e-01 4.3376519797020379e+00 
3681 3682 2 1.0280000000000078e+00 -1.1229301787180730e+03 1.0000000000000000e+00 5.1198152989648548e+01 2.1152293700386653e+00 2.9590642576258857e+00 
3356 3357 2 1.0280000000000080e+00 4.9181364341530689e+03 1.0000000000000000e+00 5.1506055857410061e+01 2.1618414708985356e+00 3.8056665820082474e+00 
1334 1335 2 1.0279999999999907e+00 5.3889762485650608e+03 1.0000000000000000e+00 5.3332703787646111e+01 3.4278321147163193e-01 3.9488541080274002e+00 
69 70 2 1.0279999999999976e+00 -4.6598748308732156e+03 1.0000000000000000e+00 5.4349928161173054e+01 3.9484032967666344e-01 3.4957574303516439e+00 
1455 1456 2 1.0280000000000016e+00 2.5346825270158724e+03 1.0000000000000000e+00 5.6188692006441300e+01 8.6273607998454693e-01 3.6566723675443260e+00 
1456 1457 2 1.0279999999999980e+00 2.8591085560567653e+03 1.0000000000000000e+00 5.7497539481092176e+01 7.6611262641513356e-01 3.3794500823911195e+00 
2895 2896 2 1.0280000000000011e+00 -2.1317807176754577e+03 1.0000000000000000e+00 5.7519830213079153e+01 1.0253936611908345e+00 3.6977917745576847e+00 
4 5 2 1.0279999999999991e+00 5.4043440842765358e+03 1.0000000000000000e+00 3.5229359976217928e+01 4.5635994348349529e+00 3.6114567824106336e+00 
15 16 2 1.0279999999999985e+00 5.0690807733033159e+02 1.0000000000000000e+00 3.5044008816371949e+01 4.4431182676458789e+00 4.5162141317624505e+00 
2280 2281 2 1.0280000000000002e+00 -2.0393844283494252e+03 1.0000000000000000e+00 3.7000708005513786e+01 2.9491370991909278e+00 3.1131718564859976e+00 
58 59 2 1.0280000000000002e+00 -4.6724338862152817e+03 1.0000000000000000e+00 3.8642199491315793e+01 2.7493243463596619e+00 4.0881008804377510e+00 
3670 3671 2 1.0280000000000058e+00 -1.1299410296801789e+03 1.0000000000000000e+00 4.4528010234385036e+01 2.6649521979802180e+00 3.2950320776029862e+00 
561 562 2 1.0280000000000009e+00 -2.5104248090860692e+03 1.0000000000000000e+00 4.3108248123353668e+01 3.5906342017923265e+00 4.7917746635119975e+00 
3323 3324 2 1.0279999999999925e+00 4.9197479975788710e+03 1.0000000000000000e+00 4.5179594951864146e+01 2.5961022321249283e+00 4.1700131148481505e+00 
2485 2486 2 1.0279999999999994e+00 9.1234335509175366e+02 1.0000000000000000e+00 4.5256251613112489e+01 4.8691288387617337e+00 4.0577967700640816e+00 
930 931 2 1.0280000000000056e+00 -4.3938975853036263e+03 1.0000000000000000e+00 4.5299691638881008e+01 4.0316539464270429e+00 3.7819603302469820e+00 
510 511 2 1.0280000000000034e+00 -2.5420641506991669e+03 1.0000000000000000e+00 4.7126263870100622e+01 2.8212133736454579e+00 3.5989354795863453e+00 
2039 2040 2 1.0279999999999931e+00 -6.7365144707354684e+03 1.0000000000000000e+00 4.7572376439196582e+01 4.2482207569998867e+00 2.7455082386699514e+00 
2326 2327 2 1.0279999999999978e+00 -5.1098728593374299e+03 1.0000000000000000e+00 4.7291322779827937e+01 3.3237702444643595e+00 4.9677016224852979e+00 
959 960 2 1.0280000000000029e+00 -5.3717344245943841e+03 1.0000000000000000e+00 4.9591278658272223e+01 4.5375851079937570e+00 4.2494566497606234e+00 
574 575 2 1.0279999999999956e+00 -2.5638749417121771e+03 1.0000000000000000e+00 5.0241749250489079e+01 2.7304616795172487e+00 4.4031481727455599e+00 
3344 3345 2 1.0279999999999987e+00 -3.7913645885687215e+03 1.0000000000000000e+00 5.4448079896905831e+01 3.7614706667180733e+00 4.9189114888656498e+00 
130 131 2 1.0280000000000011e+00 -5.2705821331250645e+03 1.0000000000000000e+00 3.5106641114812177e+01 5.2272785894777840e+00 4.0106177806265864e+00 
820 821 2 1.0280000000000007e+00 -3.6513668243946786e+03 1.0000000000000000e+00 3.4345667139276287e+01 5.5253485264198678e+00 3.6948555362094444e+00 
1994 1995 2 1.0280000000000034e+00 5.4214875838026255e+03 1.0000000000000000e+00 3.7023146883501425e+01 7.0997976389828725e+00 4.9198001768803925e+00 
3335 3336 2 1.0279999999999987e+00 -3.7651341637313303e+03 1.0000000000000000e+00 4.2006750135624436e+01 5.1840825904530057e+00 4.9446673180484879e+00 
551 552 2 1.0280000000000009e+00 -2.5034642329896169e+03 1.0000000000000000e+00 4.4513241928441282e+01 6.7929666921659120e+00 4.4677241430811581e+00 
1408 1409 2 1.0280000000000029e+00 -5.5559518040315470e+03 1.0000000000000000e+00 4.4423298697812719e+01 6.0290120498130673e+00 4.6647935823141609e+00 
988 989 2 1.0279999999999991e+00 6.2156954445447427e+03 1.0000000000000000e+00 4.4766494082528162e+01 7.4538161929194269e+00 4.9009045768134305e+00 
507 508 2 1.0280000000000007e+00 -5.8010108316980477e+03 1.0000000000000000e+00 4.6702429966753208e+01 5.4175738485957252e+00 3.2209849071722521e+00 
2196 2197 2 1.0280000000000011e+00 -5.5458644815957414e+03 1.0000000000000000e+00 4.6769038879514738e+01 5.2151309643603518e+00 4.8838855551027400e+00 