LAMMPS data file via write_data, version 30 Jul 2016, timestep = 50400000

3234 atoms
8 atom types

0.0000000000000000e+00 1.0000000000000000e+02 xlo xhi
0.0000000000000000e+00 4.0000000000000000e+01 ylo yhi
0.0000000000000000e+00 4.0000000000000000e+01 zlo zhi

Masses

1 3.896
2 5.36
3 20.064
4 8.378
5 8.378
6 8.378
7 8.378
8 8.378

Atoms # meso-molecular

445 446 2 1.2467813888044947e+00 4.6958509390440319e+00 1.0000000000000000e+00 1.1070607019082338e+01 1.0000000000000000e+01 8.7327373450864898e-01 
277 278 2 1.2467813888044947e+00 -3.8493272351902430e+00 1.0000000000000000e+00 1.7342691969314195e+01 1.0000000000000000e+01 3.0341563564842794e-01 
276 277 2 1.2467813888044947e+00 -3.1278313358753627e+00 1.0000000000000000e+00 1.9306896253598943e+01 1.0000000000000000e+01 1.2646316714503787e+00 
394 395 2 1.2467813888044947e+00 -2.2724166304550590e+00 1.0000000000000000e+00 3.1831717229591579e+01 1.0000000000000000e+01 8.1858720252229356e-01 
907 908 2 1.2467813888044947e+00 4.6958509390440319e+00 1.0000000000000000e+00 1.1070607019082338e+01 1.3000000000000000e+01 8.7327373450864898e-01 
739 740 2 1.2467813888044947e+00 -3.8493272351902430e+00 1.0000000000000000e+00 1.7342691969314195e+01 1.3000000000000000e+01 3.0341563564842794e-01 
738 739 2 1.2467813888044947e+00 -3.1278313358753627e+00 1.0000000000000000e+00 1.9306896253598943e+01 1.3000000000000000e+01 1.2646316714503787e+00 
856 857 2 1.2467813888044947e+00 -2.2724166304550590e+00 1.0000000000000000e+00 3.1831717229591579e+01 1.3000000000000000e+01 8.1858720252229356e-01 
1369 1370 2 1.2467813888044947e+00 4.6958509390440319e+00 1.0000000000000000e+00 1.1070607019082338e+01 1.6000000000000000e+01 8.7327373450864898e-01 
1201 1202 2 1.2467813888044947e+00 -3.8493272351902430e+00 1.0000000000000000e+00 1.7342691969314195e+01 1.6000000000000000e+01 3.0341563564842794e-01 
1200 1201 2 1.2467813888044947e+00 -3.1278313358753627e+00 1.0000000000000000e+00 1.9306896253598943e+01 1.6000000000000000e+01 1.2646316714503787e+00 
1318 1319 2 1.2467813888044947e+00 -2.2724166304550590e+00 1.0000000000000000e+00 3.1831717229591579e+01 1.6000000000000000e+01 8.1858720252229356e-01 
1581 1582 2 1.2467813888044947e+00 -5.5553809705421866e+00 1.0000000000000000e+00 6.7530974001428123e-01 1.9000000000000000e+01 1.1287183301871900e-01 
1474 1475 2 1.2467813888044947e+00 -2.9877040412484268e+00 1.0000000000000000e+00 8.7059101151874696e+00 1.9000000000000000e+01 6.0106038969823167e-02 
1396 1397 2 1.2467813888044947e+00 6.6582860320353099e+00 1.0000000000000000e+00 2.9648211832750587e+01 1.9000000000000000e+01 4.9434178399723550e-01 
242 243 2 1.2467813888044947e+00 -2.2404465967038512e+00 1.0000000000000000e+00 3.3188489687643470e+00 1.0000000000000000e+01 2.1597163226985399e+00 
180 181 2 1.2467813888044947e+00 -4.6085789570117175e+00 1.0000000000000000e+00 8.9774528462317900e+00 1.0000000000000000e+01 1.4933017866367322e+00 
145 146 2 1.2467814014594354e+00 -2.6063124772591157e+00 1.0000000000000000e+00 2.3193275791027332e+01 1.0000000000000000e+01 1.4287706153812842e+00 
309 310 2 1.2467813888044947e+00 -5.0023612188264934e+00 1.0000000000000000e+00 2.9330017739439764e+01 1.0000000000000000e+01 1.4995343026843098e+00 
704 705 2 1.2467813888044947e+00 -2.2404465967038512e+00 1.0000000000000000e+00 3.3188489687643470e+00 1.3000000000000000e+01 2.1597163226985399e+00 
642 643 2 1.2467813888044947e+00 -4.6085789570117175e+00 1.0000000000000000e+00 8.9774528462317900e+00 1.3000000000000000e+01 1.4933017866367322e+00 
607 608 2 1.2467814014594354e+00 -2.6063124772591157e+00 1.0000000000000000e+00 2.3193275791027332e+01 1.3000000000000000e+01 1.4287706153812842e+00 
771 772 2 1.2467813888044947e+00 -5.0023612188264934e+00 1.0000000000000000e+00 2.9330017739439764e+01 1.3000000000000000e+01 1.4995343026843098e+00 
1166 1167 2 1.2467813888044947e+00 -2.2404465967038512e+00 1.0000000000000000e+00 3.3188489687643470e+00 1.6000000000000000e+01 2.1597163226985399e+00 
1104 1105 2 1.2467813888044947e+00 -4.6085789570117175e+00 1.0000000000000000e+00 8.9774528462317900e+00 1.6000000000000000e+01 1.4933017866367322e+00 
1069 1070 2 1.2467814014594354e+00 -2.6063124772591157e+00 1.0000000000000000e+00 2.3193275791027332e+01 1.6000000000000000e+01 1.4287706153812842e+00 
1233 1234 2 1.2467813888044947e+00 -5.0023612188264934e+00 1.0000000000000000e+00 2.9330017739439764e+01 1.6000000000000000e+01 1.4995343026843098e+00 
1791 1792 2 1.2467813888044947e+00 -3.8504142051632275e+00 1.0000000000000000e+00 4.2314794966651652e+00 1.9000000000000000e+01 2.6688597795727156e+00 
1399 1400 2 1.2467813888044947e+00 4.4474489241127007e+00 1.0000000000000000e+00 7.2511659402135535e+00 1.9000000000000000e+01 2.6090809651167803e+00 
1704 1705 2 1.2467813888044947e+00 -1.1114736383282702e+00 1.0000000000000000e+00 9.5877479651458852e+00 1.9000000000000000e+01 2.3009481800777931e+00 
1536 1537 2 1.2467813888044947e+00 -3.5444653093534626e+00 1.0000000000000000e+00 1.3842605798760198e+01 1.9000000000000000e+01 1.6949700143066517e+00 
1515 1516 2 1.2467813888044947e+00 -2.7639970434220142e+00 1.0000000000000000e+00 1.7511931388476551e+01 1.9000000000000000e+01 1.8133706841063679e+00 
1847 1848 2 1.2467813888044947e+00 4.4763559372492381e+00 1.0000000000000000e+00 2.0108085443148145e+01 1.9000000000000000e+01 1.4362166564185785e+00 
1439 1440 2 1.2467813888044947e+00 -2.7471384255664297e+00 1.0000000000000000e+00 2.2300786344872410e+01 1.9000000000000000e+01 1.9561189473432385e+00 
1804 1805 2 1.2467813888044947e+00 -3.5771918069351312e+00 1.0000000000000000e+00 2.4574723494036689e+01 1.9000000000000000e+01 2.6568648395301508e+00 
1835 1836 2 1.2467813888044947e+00 5.9448326379343612e+00 1.0000000000000000e+00 2.8070325877262594e+01 1.9000000000000000e+01 2.0032266395195810e+00 
1534 1535 2 1.2467813888044947e+00 -5.0673045307186833e+00 1.0000000000000000e+00 3.1803984450586871e+01 1.9000000000000000e+01 2.1581697139219536e+00 
13 14 2 1.2467813888044947e+00 4.0276576745488963e+00 1.0000000000000000e+00 5.2925275209493865e+00 1.0000000000000000e+01 3.1295657283628109e+00 
362 363 2 1.2467813888044947e+00 -4.0999730564769115e+00 1.0000000000000000e+00 7.3996680073376790e+00 1.0000000000000000e+01 3.4709406317843956e+00 
251 252 2 1.2467813888044947e+00 -1.6627523074098378e+00 1.0000000000000000e+00 1.1259372138927860e+01 1.0000000000000000e+01 3.5664703263965616e+00 
26 27 2 1.2467813888044947e+00 4.1119247076657128e+00 1.0000000000000000e+00 1.7085378026134560e+01 1.0000000000000000e+01 3.3879149910748132e+00 
228 229 2 1.2467813888044947e+00 4.9250933990814832e-01 1.0000000000000000e+00 2.0328806619524716e+01 1.0000000000000000e+01 3.3025890533133766e+00 
448 449 2 1.2467814014594354e+00 4.9120831258990405e+00 1.0000000000000000e+00 2.2884121216631165e+01 1.0000000000000000e+01 3.4959366499807767e+00 
247 248 2 1.2467813888044947e+00 -2.9019603690281803e+00 1.0000000000000000e+00 2.5286055222392893e+01 1.0000000000000000e+01 3.3389660049215446e+00 
21 22 2 1.2467813888044947e+00 5.2603494186588300e+00 1.0000000000000000e+00 3.1929018577729732e+01 1.0000000000000000e+01 3.4356685763146686e+00 
475 476 2 1.2467813888044947e+00 4.0276576745488963e+00 1.0000000000000000e+00 5.2925275209493865e+00 1.3000000000000000e+01 3.1295657283628109e+00 
824 825 2 1.2467813888044947e+00 -4.0999730564769115e+00 1.0000000000000000e+00 7.3996680073376790e+00 1.3000000000000000e+01 3.4709406317843956e+00 
713 714 2 1.2467813888044947e+00 -1.6627523074098378e+00 1.0000000000000000e+00 1.1259372138927860e+01 1.3000000000000000e+01 3.5664703263965616e+00 
488 489 2 1.2467813888044947e+00 4.1119247076657128e+00 1.0000000000000000e+00 1.7085378026134560e+01 1.3000000000000000e+01 3.3879149910748132e+00 
690 691 2 1.2467813888044947e+00 4.9250933990814832e-01 1.0000000000000000e+00 2.0328806619524716e+01 1.3000000000000000e+01 3.3025890533133766e+00 
910 911 2 1.2467814014594354e+00 4.9120831258990405e+00 1.0000000000000000e+00 2.2884121216631165e+01 1.3000000000000000e+01 3.4959366499807767e+00 
709 710 2 1.2467813888044947e+00 -2.9019603690281803e+00 1.0000000000000000e+00 2.5286055222392893e+01 1.3000000000000000e+01 3.3389660049215446e+00 
483 484 2 1.2467813888044947e+00 5.2603494186588300e+00 1.0000000000000000e+00 3.1929018577729732e+01 1.3000000000000000e+01 3.4356685763146686e+00 
937 938 2 1.2467813888044947e+00 4.0276576745488963e+00 1.0000000000000000e+00 5.2925275209493865e+00 1.6000000000000000e+01 3.1295657283628109e+00 
1286 1287 2 1.2467813888044947e+00 -4.0999730564769115e+00 1.0000000000000000e+00 7.3996680073376790e+00 1.6000000000000000e+01 3.4709406317843956e+00 
1175 1176 2 1.2467813888044947e+00 -1.6627523074098378e+00 1.0000000000000000e+00 1.1259372138927860e+01 1.6000000000000000e+01 3.5664703263965616e+00 
950 951 2 1.2467813888044947e+00 4.1119247076657128e+00 1.0000000000000000e+00 1.7085378026134560e+01 1.6000000000000000e+01 3.3879149910748132e+00 
1152 1153 2 1.2467813888044947e+00 4.9250933990814832e-01 1.0000000000000000e+00 2.0328806619524716e+01 1.6000000000000000e+01 3.3025890533133766e+00 
1372 1373 2 1.2467814014594354e+00 4.9120831258990405e+00 1.0000000000000000e+00 2.2884121216631165e+01 1.6000000000000000e+01 3.4959366499807767e+00 
1171 1172 2 1.2467813888044947e+00 -2.9019603690281803e+00 1.0000000000000000e+00 2.5286055222392893e+01 1.6000000000000000e+01 3.3389660049215446e+00 
945 946 2 1.2467813888044947e+00 5.2603494186588300e+00 1.0000000000000000e+00 3.1929018577729732e+01 1.6000000000000000e+01 3.4356685763146686e+00 
1720 1721 2 1.2467813888044947e+00 -1.7211043904291228e+00 1.0000000000000000e+00 1.4437964203202920e+01 1.9000000000000000e+01 3.7509647998612108e+00 
1601 1602 2 1.2467813888044947e+00 -1.9665849753383329e+00 1.0000000000000000e+00 1.8807295230151666e+01 1.9000000000000000e+01 3.8952003932420372e+00 
1620 1621 2 1.2467813888044947e+00 7.8580143119451784e-01 1.0000000000000000e+00 3.0357232866312785e+01 1.9000000000000000e+01 3.8165674423792906e+00 
120 121 2 1.2467813888044947e+00 -3.1851784354694566e+00 1.0000000000000000e+00 1.2886392773904625e+00 1.0000000000000000e+01 4.8140457550965046e+00 
310 311 2 1.2467813888044947e+00 -5.9029869492053653e+00 1.0000000000000000e+00 9.3644123524252265e+00 1.0000000000000000e+01 4.8404115057397386e+00 
35 36 2 1.2467813888044947e+00 6.6354930349337176e+00 1.0000000000000000e+00 1.2755335861041836e+01 1.0000000000000000e+01 5.0856347897801868e+00 
266 267 2 1.2467813888044947e+00 -2.9946331084225415e+00 1.0000000000000000e+00 2.7584826211274247e+01 1.0000000000000000e+01 5.4199371979933604e+00 
18 19 2 1.2467813888044947e+00 3.6621828306870099e+00 1.0000000000000000e+00 3.0241270046430394e+01 1.0000000000000000e+01 5.4203000720391250e+00 
582 583 2 1.2467813888044947e+00 -3.1851784354694566e+00 1.0000000000000000e+00 1.2886392773904625e+00 1.3000000000000000e+01 4.8140457550965046e+00 
772 773 2 1.2467813888044947e+00 -5.9029869492053653e+00 1.0000000000000000e+00 9.3644123524252265e+00 1.3000000000000000e+01 4.8404115057397386e+00 
497 498 2 1.2467813888044947e+00 6.6354930349337176e+00 1.0000000000000000e+00 1.2755335861041836e+01 1.3000000000000000e+01 5.0856347897801868e+00 
728 729 2 1.2467813888044947e+00 -2.9946331084225415e+00 1.0000000000000000e+00 2.7584826211274247e+01 1.3000000000000000e+01 5.4199371979933604e+00 
480 481 2 1.2467813888044947e+00 3.6621828306870099e+00 1.0000000000000000e+00 3.0241270046430394e+01 1.3000000000000000e+01 5.4203000720391250e+00 
1044 1045 2 1.2467813888044947e+00 -3.1851784354694566e+00 1.0000000000000000e+00 1.2886392773904625e+00 1.6000000000000000e+01 4.8140457550965046e+00 
1234 1235 2 1.2467813888044947e+00 -5.9029869492053653e+00 1.0000000000000000e+00 9.3644123524252265e+00 1.6000000000000000e+01 4.8404115057397386e+00 
959 960 2 1.2467813888044947e+00 6.6354930349337176e+00 1.0000000000000000e+00 1.2755335861041836e+01 1.6000000000000000e+01 5.0856347897801868e+00 
1190 1191 2 1.2467813888044947e+00 -2.9946331084225415e+00 1.0000000000000000e+00 2.7584826211274247e+01 1.6000000000000000e+01 5.4199371979933604e+00 
942 943 2 1.2467813888044947e+00 3.6621828306870099e+00 1.0000000000000000e+00 3.0241270046430394e+01 1.6000000000000000e+01 5.4203000720391250e+00 
1754 1755 2 1.2467813888044947e+00 -2.7923529624303125e+00 1.0000000000000000e+00 2.6526274956399862e+00 1.9000000000000000e+01 5.3614990581005104e+00 
1631 1632 2 1.2467813888044947e+00 -2.6396734823891368e+00 1.0000000000000000e+00 7.0746278401676861e+00 1.9000000000000000e+01 5.2434299335407530e+00 
1585 1586 2 1.2467813888044947e+00 -1.2877633695413599e+00 1.0000000000000000e+00 9.3120664999449279e+00 1.9000000000000000e+01 4.9228937614906911e+00 
1717 1718 2 1.2467813888044947e+00 -1.5931074729982311e+00 1.0000000000000000e+00 1.1802311915380988e+01 1.9000000000000000e+01 5.1625854888102678e+00 
1650 1651 2 1.2467813888044947e+00 -2.0958857789202652e+00 1.0000000000000000e+00 1.6436784359961443e+01 1.9000000000000000e+01 5.4176397817654154e+00 
1595 1596 2 1.2467813888044947e+00 6.3075400750667199e-01 1.0000000000000000e+00 2.1874993640922916e+01 1.9000000000000000e+01 4.6666501699652470e+00 
1457 1458 2 1.2467813888044947e+00 -2.5427903684544599e+00 1.0000000000000000e+00 2.4253732014902130e+01 1.9000000000000000e+01 4.8203914356076556e+00 
1405 1406 2 1.2467822882799435e+00 2.9211752023128530e+00 1.0000000000000000e+00 3.2461363066370545e+01 1.9000000000000000e+01 4.4321121180658860e+00 
220 221 2 1.2467813888044947e+00 -1.8037473277090639e+00 1.0000000000000000e+00 6.3368979283020126e+00 1.0000000000000000e+01 6.4497469501396028e+00 
176 177 2 1.2467813888044947e+00 -4.3996802223955074e+00 1.0000000000000000e+00 1.4864156306118185e+01 1.0000000000000000e+01 6.1272079330387248e+00 
322 323 2 1.2467813888044947e+00 -3.6904638007866275e+00 1.0000000000000000e+00 1.8842594897919142e+01 1.0000000000000000e+01 6.0738207156691368e+00 
41 42 2 1.2467813888044947e+00 5.6745358519484235e+00 1.0000000000000000e+00 2.4467729522439061e+01 1.0000000000000000e+01 6.0384851667627046e+00 
682 683 2 1.2467813888044947e+00 -1.8037473277090639e+00 1.0000000000000000e+00 6.3368979283020126e+00 1.3000000000000000e+01 6.4497469501396028e+00 
638 639 2 1.2467813888044947e+00 -4.3996802223955074e+00 1.0000000000000000e+00 1.4864156306118185e+01 1.3000000000000000e+01 6.1272079330387248e+00 
784 785 2 1.2467813888044947e+00 -3.6904638007866275e+00 1.0000000000000000e+00 1.8842594897919142e+01 1.3000000000000000e+01 6.0738207156691368e+00 
503 504 2 1.2467813888044947e+00 5.6745358519484235e+00 1.0000000000000000e+00 2.4467729522439061e+01 1.3000000000000000e+01 6.0384851667627046e+00 
1144 1145 2 1.2467813888044947e+00 -1.8037473277090497e+00 1.0000000000000000e+00 6.3368979283020126e+00 1.6000000000000000e+01 6.4497469501396028e+00 
1100 1101 2 1.2467813888044947e+00 -4.3996802223955074e+00 1.0000000000000000e+00 1.4864156306118185e+01 1.6000000000000000e+01 6.1272079330387248e+00 
1246 1247 2 1.2467813888044947e+00 -3.6904638007866275e+00 1.0000000000000000e+00 1.8842594897919142e+01 1.6000000000000000e+01 6.0738207156691368e+00 
965 966 2 1.2467813888044947e+00 5.6745358519484235e+00 1.0000000000000000e+00 2.4467729522439061e+01 1.6000000000000000e+01 6.0384851667627046e+00 
1785 1786 2 1.2467813888044947e+00 -1.8525103992156051e+00 1.0000000000000000e+00 3.3206179193720692e-01 1.9000000000000000e+01 5.7730424620408991e+00 
1844 1845 2 1.2467813888044947e+00 6.3498731673884592e+00 1.0000000000000000e+00 2.0078487140657817e+01 1.9000000000000000e+01 6.9241038431939961e+00 
1545 1546 2 1.2467813888044947e+00 -2.7506278111983828e+00 1.0000000000000000e+00 2.8891307246826802e+01 1.9000000000000000e+01 5.7837634660911821e+00 
1653 1654 2 1.2467822882799435e+00 -2.8577584334988781e+00 1.0000000000000000e+00 3.1984962491238409e+01 1.9000000000000000e+01 6.4458478543255033e+00 
117 118 2 1.2467828880269110e+00 -5.7812119650218263e-01 1.0000000000000000e+00 1.9502035882623869e+00 1.0000000000000000e+01 7.2443718992681916e+00 
410 411 2 1.2467813888044947e+00 -4.6677707095359597e+00 1.0000000000000000e+00 1.0701783481471917e+01 1.0000000000000000e+01 7.4050408975769821e+00 
82 83 2 1.2467813888044947e+00 -3.0096469217521689e+00 1.0000000000000000e+00 1.3069642151126391e+01 1.0000000000000000e+01 7.6917827169613542e+00 
31 32 2 1.2467813888044947e+00 6.8217927600922703e+00 1.0000000000000000e+00 1.7155908955856219e+01 1.0000000000000000e+01 7.4286136344074700e+00 
286 287 2 1.2467813888044947e+00 -4.2720627478504127e+00 1.0000000000000000e+00 1.9524136089634961e+01 1.0000000000000000e+01 8.0703041945846969e+00 
389 390 2 1.2467813888044947e+00 -3.6944228156424188e+00 1.0000000000000000e+00 2.2749088461681541e+01 1.0000000000000000e+01 7.4853336698650708e+00 
86 87 2 1.2467813888044947e+00 -2.4404072832346460e+00 1.0000000000000000e+00 2.5328522105094279e+01 1.0000000000000000e+01 8.2134725500838979e+00 
200 201 2 1.2467813888044947e+00 -4.1213689925610382e+00 1.0000000000000000e+00 3.0028951816912787e+01 1.0000000000000000e+01 7.5218779930229163e+00 
579 580 2 1.2467828880269110e+00 -5.7812119650218263e-01 1.0000000000000000e+00 1.9502035882623869e+00 1.3000000000000000e+01 7.2443718992681916e+00 
872 873 2 1.2467813888044947e+00 -4.6677707095359597e+00 1.0000000000000000e+00 1.0701783481471917e+01 1.3000000000000000e+01 7.4050408975769821e+00 
544 545 2 1.2467813888044947e+00 -3.0096469217521689e+00 1.0000000000000000e+00 1.3069642151126391e+01 1.3000000000000000e+01 7.6917827169613542e+00 
493 494 2 1.2467813888044947e+00 6.8217927600922703e+00 1.0000000000000000e+00 1.7155908955856219e+01 1.3000000000000000e+01 7.4286136344074700e+00 
748 749 2 1.2467813888044947e+00 -4.2720627478504127e+00 1.0000000000000000e+00 1.9524136089634961e+01 1.3000000000000000e+01 8.0703041945846969e+00 
851 852 2 1.2467813888044947e+00 -3.6944228156424188e+00 1.0000000000000000e+00 2.2749088461681541e+01 1.3000000000000000e+01 7.4853336698650708e+00 
548 549 2 1.2467813888044947e+00 -2.4404072832346460e+00 1.0000000000000000e+00 2.5328522105094279e+01 1.3000000000000000e+01 8.2134725500838979e+00 
662 663 2 1.2467813888044947e+00 -4.1213689925610382e+00 1.0000000000000000e+00 3.0028951816912787e+01 1.3000000000000000e+01 7.5218779930229163e+00 
1041 1042 2 1.2467828880269110e+00 -5.7812119650218263e-01 1.0000000000000000e+00 1.9502035882623869e+00 1.6000000000000000e+01 7.2443718992681916e+00 
1334 1335 2 1.2467813888044947e+00 -4.6677707095359597e+00 1.0000000000000000e+00 1.0701783481471917e+01 1.6000000000000000e+01 7.4050408975769821e+00 
1006 1007 2 1.2467813888044947e+00 -3.0096469217521689e+00 1.0000000000000000e+00 1.3069642151126391e+01 1.6000000000000000e+01 7.6917827169613542e+00 
955 956 2 1.2467813888044947e+00 6.8217927600922703e+00 1.0000000000000000e+00 1.7155908955856219e+01 1.6000000000000000e+01 7.4286136344074700e+00 
1210 1211 2 1.2467813888044947e+00 -4.2720627478504127e+00 1.0000000000000000e+00 1.9524136089634961e+01 1.6000000000000000e+01 8.0703041945846969e+00 
1313 1314 2 1.2467813888044947e+00 -3.6944228156424188e+00 1.0000000000000000e+00 2.2749088461681541e+01 1.6000000000000000e+01 7.4853336698650708e+00 
1010 1011 2 1.2467813888044947e+00 -2.4404072832346460e+00 1.0000000000000000e+00 2.5328522105094279e+01 1.6000000000000000e+01 8.2134725500838979e+00 
1124 1125 2 1.2467813888044947e+00 -4.1213689925610382e+00 1.0000000000000000e+00 3.0028951816912787e+01 1.6000000000000000e+01 7.5218779930229163e+00 
1501 1502 2 1.2467813888044947e+00 -3.8225715735774317e+00 1.0000000000000000e+00 3.1437713496496809e+00 1.9000000000000000e+01 7.5818328570828744e+00 
1819 1820 2 1.2467813888044947e+00 4.0595568460662452e+00 1.0000000000000000e+00 1.0290739653970000e+01 1.9000000000000000e+01 7.2577086761010818e+00 
1424 1425 2 1.2467813888044947e+00 5.3325450965712466e+00 1.0000000000000000e+00 1.3121836211706128e+01 1.9000000000000000e+01 7.7201974596558385e+00 
1608 1609 2 1.2467814283345271e+00 -2.0272537435992866e+00 1.0000000000000000e+00 1.7714460025887728e+01 1.9000000000000000e+01 7.8554287311356976e+00 
1568 1569 2 1.2467813888044947e+00 -1.8941248242527027e+00 1.0000000000000000e+00 2.7585898141766769e+01 1.9000000000000000e+01 7.6101550418956547e+00 
1748 1749 2 1.2467813888044947e+00 -2.8514856450256061e+00 1.0000000000000000e+00 3.0224466422301983e+01 1.9000000000000000e+01 7.8221366642119552e+00 
95 96 2 1.2467828880269110e+00 -3.3579117610647233e+00 1.0000000000000000e+00 1.8360877764705079e+00 1.0000000000000000e+01 9.3063958345529763e+00 
171 172 2 1.2467813888044947e+00 -9.2589217047752603e-01 1.0000000000000000e+00 4.8442772745087233e+00 1.0000000000000000e+01 9.4232493183043040e+00 
52 53 2 1.2467813888044947e+00 -3.2550643397977543e+00 1.0000000000000000e+00 1.5352279953803080e+01 1.0000000000000000e+01 9.2465336767023150e+00 
61 62 2 1.2467813888044947e+00 -3.3819678370847290e+00 1.0000000000000000e+00 1.7813880639754824e+01 1.0000000000000000e+01 9.5480262111360439e+00 
258 259 2 1.2467813888044947e+00 -2.0814831056948644e+00 1.0000000000000000e+00 2.2105378373608652e+01 1.0000000000000000e+01 9.8662599879334891e+00 
341 342 2 1.2467813888044947e+00 -9.4358961150847548e-02 1.0000000000000000e+00 3.1798639188672968e+01 1.0000000000000000e+01 9.0657673498294304e+00 
557 558 2 1.2467828880269110e+00 -3.3579117610647233e+00 1.0000000000000000e+00 1.8360877764705079e+00 1.3000000000000000e+01 9.3063958345529763e+00 
633 634 2 1.2467813888044947e+00 -9.2589217047752603e-01 1.0000000000000000e+00 4.8442772745087233e+00 1.3000000000000000e+01 9.4232493183043040e+00 
514 515 2 1.2467813888044947e+00 -3.2550643397977543e+00 1.0000000000000000e+00 1.5352279953803080e+01 1.3000000000000000e+01 9.2465336767023150e+00 
523 524 2 1.2467813888044947e+00 -3.3819678370847290e+00 1.0000000000000000e+00 1.7813880639754824e+01 1.3000000000000000e+01 9.5480262111360439e+00 
720 721 2 1.2467813888044947e+00 -2.0814831056948644e+00 1.0000000000000000e+00 2.2105378373608652e+01 1.3000000000000000e+01 9.8662599879334891e+00 
803 804 2 1.2467813888044947e+00 -9.4358961150847548e-02 1.0000000000000000e+00 3.1798639188672968e+01 1.3000000000000000e+01 9.0657673498294304e+00 
1019 1020 2 1.2467828880269110e+00 -3.3579117610647233e+00 1.0000000000000000e+00 1.8360877764705079e+00 1.6000000000000000e+01 9.3063958345529763e+00 
1095 1096 2 1.2467813888044947e+00 -9.2589217047752603e-01 1.0000000000000000e+00 4.8442772745087233e+00 1.6000000000000000e+01 9.4232493183043040e+00 
976 977 2 1.2467813888044947e+00 -3.2550643397977543e+00 1.0000000000000000e+00 1.5352279953803080e+01 1.6000000000000000e+01 9.2465336767023150e+00 
985 986 2 1.2467813888044947e+00 -3.3819678370847290e+00 1.0000000000000000e+00 1.7813880639754824e+01 1.6000000000000000e+01 9.5480262111360439e+00 
1182 1183 2 1.2467813888044947e+00 -2.0814831056948644e+00 1.0000000000000000e+00 2.2105378373608652e+01 1.6000000000000000e+01 9.8662599879334891e+00 
1265 1266 2 1.2467813888044947e+00 -9.4358961150847548e-02 1.0000000000000000e+00 3.1798639188672968e+01 1.6000000000000000e+01 9.0657673498294304e+00 
1555 1556 2 1.2467813888044947e+00 5.8033307819004047e+00 1.0000000000000000e+00 9.1047351583007907e-01 1.9000000000000000e+01 9.0991966112730225e+00 
1561 1562 2 1.2467813888044947e+00 -9.4474774729169364e-01 1.0000000000000000e+00 6.3706733472135744e+00 1.9000000000000000e+01 9.6419885584397580e+00 
1467 1468 2 1.2467846416680728e+00 -2.4345659579736720e+00 1.0000000000000000e+00 8.5666761482464384e+00 1.9000000000000000e+01 9.4434114165275016e+00 
1402 1403 2 1.2467813888044947e+00 6.2790015979912788e+00 1.0000000000000000e+00 1.1363547194860033e+01 1.9000000000000000e+01 9.1040930594779006e+00 
1480 1481 2 1.2467813888044947e+00 -2.5564278670884519e+00 1.0000000000000000e+00 1.5049461445543502e+01 1.9000000000000000e+01 9.5634458723965885e+00 
1418 1419 2 1.2467814283345271e+00 5.0143870912968422e+00 1.0000000000000000e+00 1.8408437565933163e+01 1.9000000000000000e+01 9.8227590815475807e+00 
456 457 2 1.2467813888044947e+00 4.6534093745170537e+00 1.0000000000000000e+00 9.4885745634607215e+00 1.0000000000000000e+01 1.0265614250929509e+01 
166 167 2 1.2467813888044947e+00 -1.2031382578641707e+00 1.0000000000000000e+00 2.5073092873306638e+01 1.0000000000000000e+01 1.0409681092441987e+01 
918 919 2 1.2467813888044947e+00 4.6534093745170537e+00 1.0000000000000000e+00 9.4885745634607215e+00 1.3000000000000000e+01 1.0265614250929509e+01 
628 629 2 1.2467813888044947e+00 -1.2031382578641707e+00 1.0000000000000000e+00 2.5073092873306638e+01 1.3000000000000000e+01 1.0409681092441987e+01 
1380 1381 2 1.2467813888044947e+00 4.6534093745170466e+00 1.0000000000000000e+00 9.4885745634607215e+00 1.6000000000000000e+01 1.0265614250929509e+01 
1090 1091 2 1.2467813888044947e+00 -1.2031382578641707e+00 1.0000000000000000e+00 2.5073092873306638e+01 1.6000000000000000e+01 1.0409681092441987e+01 
1479 1480 2 1.2467813888044947e+00 -3.3247650166072384e+00 1.0000000000000000e+00 4.2456408740636116e+00 1.9000000000000000e+01 1.0221269015222333e+01 
1406 1407 2 1.2467846416680728e+00 3.8290399005299056e+00 1.0000000000000000e+00 7.8766444818051271e+00 1.9000000000000000e+01 1.1381496709598036e+01 
1751 1752 2 1.2467813888044947e+00 -4.0290172132842734e+00 1.0000000000000000e+00 1.0399596364266175e+01 1.9000000000000000e+01 1.1039304045875774e+01 
1407 1408 2 1.2467813888044947e+00 3.5210132067782087e+00 1.0000000000000000e+00 2.0575062315506248e+01 1.9000000000000000e+01 1.0580267817369338e+01 
1635 1636 2 1.2467817497147498e+00 -3.4903507400648577e+00 1.0000000000000000e+00 2.3528577667642576e+01 1.9000000000000000e+01 1.0561282749592381e+01 
1609 1610 2 1.2467813888044947e+00 -1.8520988168641694e+00 1.0000000000000000e+00 2.7577987633527222e+01 1.9000000000000000e+01 1.1119309665939772e+01 
1437 1438 2 1.2467813888044947e+00 -2.3336967947582363e+00 1.0000000000000000e+00 3.1540192408703248e+01 1.9000000000000000e+01 1.0723140596185688e+01 
164 165 2 1.2467813888044947e+00 -1.4574800156987806e+00 1.0000000000000000e+00 2.7870718434621486e+00 1.0000000000000000e+01 1.2226214258011449e+01 
16 17 2 1.2467813888044947e+00 4.5597017194872596e+00 1.0000000000000000e+00 5.3399078495023868e+00 1.0000000000000000e+01 1.2313177033167991e+01 
216 217 2 1.2467813888044947e+00 -1.8778590691685131e+00 1.0000000000000000e+00 7.5232619059695134e+00 1.0000000000000000e+01 1.1760456545946980e+01 
238 239 2 1.2467813888044947e+00 -1.1373611987823662e+00 1.0000000000000000e+00 1.2668200578922272e+01 1.0000000000000000e+01 1.2329203818449946e+01 
259 260 2 1.2467813888044947e+00 -3.1650785757123598e+00 1.0000000000000000e+00 1.5302174474993437e+01 1.0000000000000000e+01 1.1874536352441019e+01 
407 408 2 1.2467813888044947e+00 -3.2903235587147277e+00 1.0000000000000000e+00 2.2706553037031156e+01 1.0000000000000000e+01 1.2407225112592123e+01 
324 325 2 1.2467813888044947e+00 -5.2322067045694034e+00 1.0000000000000000e+00 2.8439959019400028e+01 1.0000000000000000e+01 1.1713177925302842e+01 
261 262 2 1.2467813888044947e+00 -4.3641563655510085e+00 1.0000000000000000e+00 3.2748522002022519e+01 1.0000000000000000e+01 1.1624622928590473e+01 
626 627 2 1.2467813888044947e+00 -1.4574800156987806e+00 1.0000000000000000e+00 2.7870718434621486e+00 1.3000000000000000e+01 1.2226214258011449e+01 
478 479 2 1.2467813888044947e+00 4.5597017194872596e+00 1.0000000000000000e+00 5.3399078495023868e+00 1.3000000000000000e+01 1.2313177033167991e+01 
678 679 2 1.2467813888044947e+00 -1.8778590691685131e+00 1.0000000000000000e+00 7.5232619059695134e+00 1.3000000000000000e+01 1.1760456545946980e+01 
700 701 2 1.2467813888044947e+00 -1.1373611987823662e+00 1.0000000000000000e+00 1.2668200578922272e+01 1.3000000000000000e+01 1.2329203818449946e+01 
721 722 2 1.2467813888044947e+00 -3.1650785757123598e+00 1.0000000000000000e+00 1.5302174474993437e+01 1.3000000000000000e+01 1.1874536352441019e+01 
869 870 2 1.2467813888044947e+00 -3.2903235587147277e+00 1.0000000000000000e+00 2.2706553037031156e+01 1.3000000000000000e+01 1.2407225112592123e+01 
786 787 2 1.2467813888044947e+00 -5.2322067045694034e+00 1.0000000000000000e+00 2.8439959019400028e+01 1.3000000000000000e+01 1.1713177925302842e+01 
723 724 2 1.2467813888044947e+00 -4.3641563655510085e+00 1.0000000000000000e+00 3.2748522002022519e+01 1.3000000000000000e+01 1.1624622928590473e+01 
1088 1089 2 1.2467813888044947e+00 -1.4574800156987806e+00 1.0000000000000000e+00 2.7870718434621486e+00 1.6000000000000000e+01 1.2226214258011449e+01 
940 941 2 1.2467813888044947e+00 4.5597017194872596e+00 1.0000000000000000e+00 5.3399078495023868e+00 1.6000000000000000e+01 1.2313177033167991e+01 
1140 1141 2 1.2467813888044947e+00 -1.8778590691685131e+00 1.0000000000000000e+00 7.5232619059695134e+00 1.6000000000000000e+01 1.1760456545946980e+01 
1162 1163 2 1.2467813888044947e+00 -1.1373611987823662e+00 1.0000000000000000e+00 1.2668200578922272e+01 1.6000000000000000e+01 1.2329203818449946e+01 
1183 1184 2 1.2467813888044947e+00 -3.1650785757123598e+00 1.0000000000000000e+00 1.5302174474993437e+01 1.6000000000000000e+01 1.1874536352441019e+01 
1331 1332 2 1.2467813888044947e+00 -3.2903235587147277e+00 1.0000000000000000e+00 2.2706553037031156e+01 1.6000000000000000e+01 1.2407225112592123e+01 
1248 1249 2 1.2467813888044947e+00 -5.2322067045694034e+00 1.0000000000000000e+00 2.8439959019400028e+01 1.6000000000000000e+01 1.1713177925302842e+01 
1185 1186 2 1.2467813888044947e+00 -4.3641563655510085e+00 1.0000000000000000e+00 3.2748522002022519e+01 1.6000000000000000e+01 1.1624622928590473e+01 
1627 1628 2 1.2467813888044947e+00 -1.6352435034450643e+00 1.0000000000000000e+00 3.3527935349783067e-01 1.9000000000000000e+01 1.2836931903348805e+01 
1527 1528 2 1.2467813888044947e+00 -2.4499914377716663e+00 1.0000000000000000e+00 3.7015583754969494e+00 1.9000000000000000e+01 1.2372673859664701e+01 