LAMMPS data file via write_data, version 30 Jul 2016, timestep = 50000000

3234 atoms
8 atom types

0.0000000000000000e+00 1.0000000000000000e+02 xlo xhi
0.0000000000000000e+00 4.0000000000000000e+01 ylo yhi
0.0000000000000000e+00 4.0000000000000000e+01 zlo zhi

Masses

1 3.896
2 5.36
3 20.064
4 8.378
5 8.378
6 8.378
7 8.378
8 8.378

Atoms # meso-molecular

237 238 2 1.2467813888044947e+00 1.6396003624531381e+00 1.0000000000000000e+00 7.7779629575304443e-01 1.0000000000000000e+01 2.2254032915176170e-01 
418 419 2 1.2467813888044947e+00 -3.1825660790293906e+00 1.0000000000000000e+00 5.4404334599992898e+00 1.0000000000000000e+01 4.9655712876949698e-01 
310 311 2 1.2467814799860926e+00 -5.8683889102924178e+00 1.0000000000000000e+00 7.7962133081832716e+00 1.0000000000000000e+01 3.9198269647559231e-01 
410 411 2 1.2467813888044947e+00 -4.6755599414908291e+00 1.0000000000000000e+00 1.3765364116050630e+01 1.0000000000000000e+01 5.2683772129672235e-01 
145 146 2 1.2467813888044947e+00 -2.6221751665966124e+00 1.0000000000000000e+00 2.2697120298379762e+01 1.0000000000000000e+01 9.8996493064805124e-01 
277 278 2 1.2467814439878961e+00 -3.8262808100511818e+00 1.0000000000000000e+00 2.6467149058049852e+01 1.0000000000000000e+01 1.2571547590299523e+00 
269 270 2 1.2467813888044947e+00 -3.3144746990103409e+00 1.0000000000000000e+00 3.0242299296177727e+01 1.0000000000000000e+01 1.3836553117222992e+00 
699 700 2 1.2467813888044947e+00 1.6396003624531381e+00 1.0000000000000000e+00 7.7779629575304443e-01 1.3000000000000000e+01 2.2254032915176170e-01 
880 881 2 1.2467813888044947e+00 -3.1825660790293906e+00 1.0000000000000000e+00 5.4404334599992898e+00 1.3000000000000000e+01 4.9655712876949698e-01 
772 773 2 1.2467814799860926e+00 -5.8683889102924178e+00 1.0000000000000000e+00 7.7962133081832716e+00 1.3000000000000000e+01 3.9198269647559231e-01 
872 873 2 1.2467813888044947e+00 -4.6755599414908291e+00 1.0000000000000000e+00 1.3765364116050630e+01 1.3000000000000000e+01 5.2683772129672235e-01 
607 608 2 1.2467813888044947e+00 -2.6221751665966124e+00 1.0000000000000000e+00 2.2697120298379762e+01 1.3000000000000000e+01 9.8996493064805124e-01 
739 740 2 1.2467814439878961e+00 -3.8262808100511818e+00 1.0000000000000000e+00 2.6467149058049852e+01 1.3000000000000000e+01 1.2571547590299523e+00 
731 732 2 1.2467813888044947e+00 -3.3144746990103409e+00 1.0000000000000000e+00 3.0242299296177727e+01 1.3000000000000000e+01 1.3836553117222992e+00 
1161 1162 2 1.2467813888044947e+00 1.6396003624531381e+00 1.0000000000000000e+00 7.7779629575304443e-01 1.6000000000000000e+01 2.2254032915176170e-01 
1342 1343 2 1.2467813888044947e+00 -3.1825660790293906e+00 1.0000000000000000e+00 5.4404334599992898e+00 1.6000000000000000e+01 4.9655712876949698e-01 
1234 1235 2 1.2467814799860926e+00 -5.8683889102924178e+00 1.0000000000000000e+00 7.7962133081832716e+00 1.6000000000000000e+01 3.9198269647559231e-01 
1334 1335 2 1.2467813888044947e+00 -4.6755599414908291e+00 1.0000000000000000e+00 1.3765364116050630e+01 1.6000000000000000e+01 5.2683772129672235e-01 
1069 1070 2 1.2467813888044947e+00 -2.6221751665966124e+00 1.0000000000000000e+00 2.2697120298379762e+01 1.6000000000000000e+01 9.8996493064805124e-01 
1201 1202 2 1.2467814439878961e+00 -3.8262808100511818e+00 1.0000000000000000e+00 2.6467149058049852e+01 1.6000000000000000e+01 1.2571547590299523e+00 
1193 1194 2 1.2467813888044947e+00 -3.3144746990103409e+00 1.0000000000000000e+00 3.0242299296177727e+01 1.6000000000000000e+01 1.3836553117222992e+00 
1631 1632 2 1.2467813888044947e+00 -2.6455790405034185e+00 1.0000000000000000e+00 1.1206082094943075e+00 1.9000000000000000e+01 2.3558615167237520e-02 
1536 1537 2 1.2467813888044947e+00 -3.5502044065888150e+00 1.0000000000000000e+00 1.3330227959710472e+01 1.9000000000000000e+01 7.4143879581445929e-02 
1439 1440 2 1.2467813888044947e+00 -2.7516983676251270e+00 1.0000000000000000e+00 1.5621690224728249e+01 1.9000000000000000e+01 1.3232776301923146e-01 
1396 1397 2 1.2467813888044947e+00 6.6468790522654464e+00 1.0000000000000000e+00 2.7321249136252494e+01 1.9000000000000000e+01 4.6140525018135210e-02 
1405 1406 2 1.2467813888044947e+00 2.6909492799063095e+00 1.0000000000000000e+00 3.0115881146915296e+01 1.9000000000000000e+01 4.4756495786353617e-01 
242 243 2 1.2467813888044947e+00 -2.2445055453199014e+00 1.0000000000000000e+00 1.9596441374182803e+00 1.0000000000000000e+01 2.4874398128974526e+00 
365 366 2 1.2467813888044947e+00 -4.8482947824086065e+00 1.0000000000000000e+00 4.4098469330270689e+00 1.0000000000000000e+01 2.4081426294904884e+00 
230 231 2 1.2467814799860926e+00 -1.4147572328154776e+00 1.0000000000000000e+00 8.3994450471512216e+00 1.0000000000000000e+01 2.3850854412657325e+00 
322 323 2 1.2467813888044947e+00 -3.7023826363533914e+00 1.0000000000000000e+00 1.1858835788281599e+01 1.0000000000000000e+01 1.6052061637087196e+00 
228 229 2 1.2467813888044947e+00 4.8380146684676012e-01 1.0000000000000000e+00 1.7877113392519355e+01 1.0000000000000000e+01 2.8379991080671001e+00 
18 19 2 1.2467821633781779e+00 3.8656109068198861e+00 1.0000000000000000e+00 2.4842342733253233e+01 1.0000000000000000e+01 2.5617830298368216e+00 
704 705 2 1.2467813888044947e+00 -2.2445055453199014e+00 1.0000000000000000e+00 1.9596441374182803e+00 1.3000000000000000e+01 2.4874398128974526e+00 
827 828 2 1.2467813888044947e+00 -4.8482947824086065e+00 1.0000000000000000e+00 4.4098469330270689e+00 1.3000000000000000e+01 2.4081426294904884e+00 
692 693 2 1.2467814799860926e+00 -1.4147572328154776e+00 1.0000000000000000e+00 8.3994450471512216e+00 1.3000000000000000e+01 2.3850854412657325e+00 
784 785 2 1.2467813888044947e+00 -3.7023826363533914e+00 1.0000000000000000e+00 1.1858835788281599e+01 1.3000000000000000e+01 1.6052061637087196e+00 
690 691 2 1.2467813888044947e+00 4.8380146684676012e-01 1.0000000000000000e+00 1.7877113392519355e+01 1.3000000000000000e+01 2.8379991080671001e+00 
480 481 2 1.2467821633781779e+00 3.8656109068198861e+00 1.0000000000000000e+00 2.4842342733253233e+01 1.3000000000000000e+01 2.5617830298368216e+00 
1166 1167 2 1.2467813888044947e+00 -2.2445055453199014e+00 1.0000000000000000e+00 1.9596441374182803e+00 1.6000000000000000e+01 2.4874398128974526e+00 
1289 1290 2 1.2467813888044947e+00 -4.8482947824086065e+00 1.0000000000000000e+00 4.4098469330270689e+00 1.6000000000000000e+01 2.4081426294904884e+00 
1154 1155 2 1.2467814799860926e+00 -1.4147572328154776e+00 1.0000000000000000e+00 8.3994450471512216e+00 1.6000000000000000e+01 2.3850854412657325e+00 
1246 1247 2 1.2467813888044947e+00 -3.7023826363533914e+00 1.0000000000000000e+00 1.1858835788281599e+01 1.6000000000000000e+01 1.6052061637087196e+00 
1152 1153 2 1.2467813888044947e+00 4.8380146684676012e-01 1.0000000000000000e+00 1.7877113392519355e+01 1.6000000000000000e+01 2.8379991080671001e+00 
942 943 2 1.2467821633781779e+00 3.8656109068198861e+00 1.0000000000000000e+00 2.4842342733253233e+01 1.6000000000000000e+01 2.5617830298368216e+00 
1399 1400 2 1.2467813888044947e+00 4.4429210214723245e+00 1.0000000000000000e+00 4.7536344848861782e+00 1.9000000000000000e+01 1.4937910510847354e+00 
1650 1651 2 1.2467813888044947e+00 -2.1002043070471852e+00 1.0000000000000000e+00 1.1170416877341177e+01 1.9000000000000000e+01 1.9195487800065103e+00 
1601 1602 2 1.2467813888044947e+00 -1.9708768839773305e+00 1.0000000000000000e+00 1.8561529816188237e+01 1.9000000000000000e+01 2.3245508426351114e+00 
1609 1610 2 1.2467813888044947e+00 -1.8583882214650360e+00 1.0000000000000000e+00 2.6075020507445430e+01 1.9000000000000000e+01 1.9312615089542646e+00 
1620 1621 2 1.2467813888044947e+00 7.7734473218154965e-01 1.0000000000000000e+00 2.9390419312952393e+01 1.9000000000000000e+01 2.4293753566333605e+00 
362 363 2 1.2467813888044947e+00 -4.1063833423075584e+00 1.0000000000000000e+00 1.3766451849383406e+01 1.0000000000000000e+01 3.1374139460761810e+00 
251 252 2 1.2467813888044947e+00 -1.6690210235708327e+00 1.0000000000000000e+00 2.0822088438730923e+01 1.0000000000000000e+01 3.9579627227126939e+00 
448 449 2 1.2467821081947765e+00 5.0768576334590989e+00 1.0000000000000000e+00 2.3038014445085647e+01 1.0000000000000000e+01 3.5789302051509995e+00 
276 277 2 1.2467813888044947e+00 -3.1353597777948239e+00 1.0000000000000000e+00 2.7823034836491779e+01 1.0000000000000000e+01 3.5328023140057581e+00 
341 342 2 1.2467813888044947e+00 -1.0488745806013731e-01 1.0000000000000000e+00 3.0090511633428971e+01 1.0000000000000000e+01 4.2360061189590166e+00 
168 169 2 1.2467813888044947e+00 1.7465558342739822e+00 1.0000000000000000e+00 3.1920675218715903e+01 1.0000000000000000e+01 3.1870318271264209e+00 
824 825 2 1.2467813888044947e+00 -4.1063833423075584e+00 1.0000000000000000e+00 1.3766451849383406e+01 1.3000000000000000e+01 3.1374139460761810e+00 
713 714 2 1.2467813888044947e+00 -1.6690210235708327e+00 1.0000000000000000e+00 2.0822088438730923e+01 1.3000000000000000e+01 3.9579627227126939e+00 
910 911 2 1.2467821081947765e+00 5.0768576334590989e+00 1.0000000000000000e+00 2.3038014445085647e+01 1.3000000000000000e+01 3.5789302051509995e+00 
738 739 2 1.2467813888044947e+00 -3.1353597777948239e+00 1.0000000000000000e+00 2.7823034836491779e+01 1.3000000000000000e+01 3.5328023140057581e+00 
803 804 2 1.2467813888044947e+00 -1.0488745806013731e-01 1.0000000000000000e+00 3.0090511633428971e+01 1.3000000000000000e+01 4.2360061189590166e+00 
630 631 2 1.2467813888044947e+00 1.7465558342739822e+00 1.0000000000000000e+00 3.1920675218715903e+01 1.3000000000000000e+01 3.1870318271264209e+00 
1286 1287 2 1.2467813888044947e+00 -4.1063833423075584e+00 1.0000000000000000e+00 1.3766451849383406e+01 1.6000000000000000e+01 3.1374139460761810e+00 
1175 1176 2 1.2467813888044947e+00 -1.6690210235708327e+00 1.0000000000000000e+00 2.0822088438730923e+01 1.6000000000000000e+01 3.9579627227126939e+00 
1372 1373 2 1.2467821081947765e+00 5.0768576334590989e+00 1.0000000000000000e+00 2.3038014445085647e+01 1.6000000000000000e+01 3.5789302051509995e+00 
1200 1201 2 1.2467813888044947e+00 -3.1353597777948239e+00 1.0000000000000000e+00 2.7823034836491779e+01 1.6000000000000000e+01 3.5328023140057581e+00 
1265 1266 2 1.2467813888044947e+00 -1.0488745806013731e-01 1.0000000000000000e+00 3.0090511633428971e+01 1.6000000000000000e+01 4.2360061189590166e+00 
1092 1093 2 1.2467813888044947e+00 1.7465558342739822e+00 1.0000000000000000e+00 3.1920675218715903e+01 1.6000000000000000e+01 3.1870318271264209e+00 
1585 1586 2 1.2467813888044947e+00 -1.2914441083562824e+00 1.0000000000000000e+00 1.2693701298614586e+00 1.9000000000000000e+01 3.1559418742830543e+00 
1561 1562 2 1.2467813888044947e+00 -9.4943792706663976e-01 1.0000000000000000e+00 3.9367154629362657e+00 1.9000000000000000e+01 3.8855125444827259e+00 
1479 1480 2 1.2467813888044947e+00 -3.3301544243352534e+00 1.0000000000000000e+00 6.3502095271583423e+00 1.9000000000000000e+01 3.5505457632288908e+00 
1568 1569 2 1.2467813888044947e+00 -1.9024588960530011e+00 1.0000000000000000e+00 1.5220919156514258e+01 1.9000000000000000e+01 3.6923343410413296e+00 
1457 1458 2 1.2467813888044947e+00 -2.5479602896340161e+00 1.0000000000000000e+00 2.0621895742207418e+01 1.9000000000000000e+01 4.2576620311529201e+00 
1595 1596 2 1.2467813888044947e+00 6.2624558330028035e-01 1.0000000000000000e+00 2.3163312239585803e+01 1.9000000000000000e+01 4.2786307808611808e+00 
1749 1750 2 1.2467813888044947e+00 -3.1122353721559772e+00 1.0000000000000000e+00 2.5793369476523338e+01 1.9000000000000000e+01 4.1572803765758684e+00 
1488 1489 2 1.2467815175705645e+00 -2.2737083193502259e+00 1.0000000000000000e+00 3.2839487032012364e+01 1.9000000000000000e+01 3.6845302243953841e+00 
220 221 2 1.2467813888044947e+00 -1.8140530734206188e+00 1.0000000000000000e+00 2.8140453247886295e+00 1.0000000000000000e+01 4.6048973905428987e+00 
13 14 2 1.2467813888044947e+00 4.0208399876815406e+00 1.0000000000000000e+00 8.0032272046155413e+00 1.0000000000000000e+01 4.4902217273014591e+00 
82 83 2 1.2467813888044947e+00 -3.0176091893209298e+00 1.0000000000000000e+00 1.0571797459619386e+01 1.0000000000000000e+01 4.8351802204306695e+00 
180 181 2 1.2467813888044947e+00 -4.6140233896143457e+00 1.0000000000000000e+00 1.4831985237971914e+01 1.0000000000000000e+01 5.2488819755481346e+00 
682 683 2 1.2467813888044947e+00 -1.8140530734206188e+00 1.0000000000000000e+00 2.8140453247886295e+00 1.3000000000000000e+01 4.6048973905428987e+00 
475 476 2 1.2467813888044947e+00 4.0208399876815406e+00 1.0000000000000000e+00 8.0032272046155413e+00 1.3000000000000000e+01 4.4902217273014591e+00 
544 545 2 1.2467813888044947e+00 -3.0176091893209298e+00 1.0000000000000000e+00 1.0571797459619386e+01 1.3000000000000000e+01 4.8351802204306695e+00 
642 643 2 1.2467813888044947e+00 -4.6140233896143457e+00 1.0000000000000000e+00 1.4831985237971914e+01 1.3000000000000000e+01 5.2488819755481346e+00 
1144 1145 2 1.2467813888044947e+00 -1.8140530734206046e+00 1.0000000000000000e+00 2.8140453247886295e+00 1.6000000000000000e+01 4.6048973905428987e+00 
937 938 2 1.2467813888044947e+00 4.0208399876815406e+00 1.0000000000000000e+00 8.0032272046155413e+00 1.6000000000000000e+01 4.4902217273014591e+00 
1006 1007 2 1.2467813888044947e+00 -3.0176091893209298e+00 1.0000000000000000e+00 1.0571797459619386e+01 1.6000000000000000e+01 4.8351802204306695e+00 
1104 1105 2 1.2467813888044947e+00 -4.6140233896143457e+00 1.0000000000000000e+00 1.4831985237971914e+01 1.6000000000000000e+01 5.2488819755481346e+00 
1467 1468 2 1.2467813888044947e+00 -3.0210352404861212e+00 1.0000000000000000e+00 5.5325015630862584e+00 1.9000000000000000e+01 5.6819887507707145e+00 
1515 1516 2 1.2467813888044947e+00 -2.7708157663291111e+00 1.0000000000000000e+00 1.0119534484453073e+01 1.9000000000000000e+01 4.4739570227538596e+00 
117 118 2 1.2467813888044947e+00 -9.0686649379982343e-01 1.0000000000000000e+00 6.2904988870234098e+00 1.0000000000000000e+01 7.0864534111536930e+00 
176 177 2 1.2467813888044947e+00 -4.4081458617560392e+00 1.0000000000000000e+00 8.9097274973836313e+00 1.0000000000000000e+01 6.4078027079481936e+00 
238 239 2 1.2467813887822099e+00 -1.1448777627152142e+00 1.0000000000000000e+00 1.3007529573840351e+01 1.0000000000000000e+01 7.1163467539412411e+00 
133 134 2 1.2467813888044947e+00 -3.6685995672240925e+00 1.0000000000000000e+00 1.8915264012191443e+01 1.0000000000000000e+01 6.1441106978304116e+00 
247 248 2 1.2467813888044947e+00 -2.9065630507331086e+00 1.0000000000000000e+00 2.1610660141044693e+01 1.0000000000000000e+01 6.8051659177492150e+00 
431 432 2 1.2467813888044947e+00 7.1424520777573779e+00 1.0000000000000000e+00 2.6708125791163180e+01 1.0000000000000000e+01 5.7960020144665672e+00 
404 405 2 1.2467815574102814e+00 -3.2864044689432323e+00 1.0000000000000000e+00 2.8878270057448521e+01 1.0000000000000000e+01 6.8396843653973249e+00 
324 325 2 1.2467813888044947e+00 -5.2490828999435823e+00 1.0000000000000000e+00 3.1833977218347048e+01 1.0000000000000000e+01 5.8882183818641671e+00 
579 580 2 1.2467813888044947e+00 -9.0686649379982343e-01 1.0000000000000000e+00 6.2904988870234098e+00 1.3000000000000000e+01 7.0864534111536930e+00 
638 639 2 1.2467813888044947e+00 -4.4081458617560392e+00 1.0000000000000000e+00 8.9097274973836313e+00 1.3000000000000000e+01 6.4078027079481936e+00 
700 701 2 1.2467813887822099e+00 -1.1448777627152142e+00 1.0000000000000000e+00 1.3007529573840351e+01 1.3000000000000000e+01 7.1163467539412411e+00 
595 596 2 1.2467813888044947e+00 -3.6685995672240925e+00 1.0000000000000000e+00 1.8915264012191443e+01 1.3000000000000000e+01 6.1441106978304116e+00 
709 710 2 1.2467813888044947e+00 -2.9065630507331086e+00 1.0000000000000000e+00 2.1610660141044693e+01 1.3000000000000000e+01 6.8051659177492150e+00 
893 894 2 1.2467813888044947e+00 7.1424520777573779e+00 1.0000000000000000e+00 2.6708125791163180e+01 1.3000000000000000e+01 5.7960020144665672e+00 
866 867 2 1.2467815574102814e+00 -3.2864044689432323e+00 1.0000000000000000e+00 2.8878270057448521e+01 1.3000000000000000e+01 6.8396843653973249e+00 
786 787 2 1.2467813888044947e+00 -5.2490828999435823e+00 1.0000000000000000e+00 3.1833977218347048e+01 1.3000000000000000e+01 5.8882183818641671e+00 
1041 1042 2 1.2467813888044947e+00 -9.0686649379982343e-01 1.0000000000000000e+00 6.2904988870234098e+00 1.6000000000000000e+01 7.0864534111536930e+00 
1100 1101 2 1.2467813888044947e+00 -4.4081458617560392e+00 1.0000000000000000e+00 8.9097274973836313e+00 1.6000000000000000e+01 6.4078027079481936e+00 
1162 1163 2 1.2467813887822099e+00 -1.1448777627152142e+00 1.0000000000000000e+00 1.3007529573840351e+01 1.6000000000000000e+01 7.1163467539412411e+00 
1057 1058 2 1.2467813888044947e+00 -3.6685995672240925e+00 1.0000000000000000e+00 1.8915264012191443e+01 1.6000000000000000e+01 6.1441106978304116e+00 
1171 1172 2 1.2467813888044947e+00 -2.9065630507331086e+00 1.0000000000000000e+00 2.1610660141044693e+01 1.6000000000000000e+01 6.8051659177492150e+00 
1355 1356 2 1.2467813888044947e+00 7.1424520777573779e+00 1.0000000000000000e+00 2.6708125791163180e+01 1.6000000000000000e+01 5.7960020144665672e+00 
1328 1329 2 1.2467815574102814e+00 -3.2864044689432323e+00 1.0000000000000000e+00 2.8878270057448521e+01 1.6000000000000000e+01 6.8396843653973249e+00 
1248 1249 2 1.2467813888044947e+00 -5.2490828999435823e+00 1.0000000000000000e+00 3.1833977218347048e+01 1.6000000000000000e+01 5.8882183818641671e+00 
1678 1679 2 1.2467813888044947e+00 -2.1199670692554173e+00 1.0000000000000000e+00 5.4807482386992890e-01 1.9000000000000000e+01 5.7203117340614504e+00 
1474 1475 2 1.2467813888044947e+00 -2.9919893805395708e+00 1.0000000000000000e+00 8.1526519036874916e+00 1.9000000000000000e+01 5.8241477671485891e+00 
1720 1721 2 1.2467813888044947e+00 -1.7262805522203704e+00 1.0000000000000000e+00 1.2496020728424815e+01 1.9000000000000000e+01 6.3227614839066533e+00 
1847 1848 2 1.2467813888044947e+00 4.4692833452009815e+00 1.0000000000000000e+00 1.5388395811143640e+01 1.9000000000000000e+01 5.9602984797259317e+00 
1480 1481 2 1.2467813888044947e+00 -2.5622795739282758e+00 1.0000000000000000e+00 1.7442107243576707e+01 1.9000000000000000e+01 7.0162835347220600e+00 
1844 1845 2 1.2467813888044947e+00 6.3389889968043036e+00 1.0000000000000000e+00 2.1617290072481353e+01 1.9000000000000000e+01 6.5158350249196992e+00 
1545 1546 2 1.2467813888044947e+00 -2.7589917706556348e+00 1.0000000000000000e+00 2.4442568696100217e+01 1.9000000000000000e+01 6.4757338468730126e+00 
1836 1837 2 1.2467813888044947e+00 4.0487690391401330e+00 1.0000000000000000e+00 3.0712168119298969e+01 1.9000000000000000e+01 6.7423542176848068e+00 
1747 1748 2 1.2467815175705645e+00 -3.1522804983201964e+00 1.0000000000000000e+00 3.2732668658871290e+01 1.9000000000000000e+01 5.7623817277482985e+00 
35 36 2 1.2467813887822099e+00 6.6307792026398156e+00 1.0000000000000000e+00 1.0908402993184263e+01 1.0000000000000000e+01 7.1466296129435189e+00 
177 178 2 1.2467813888044947e+00 -4.8532635360773870e+00 1.0000000000000000e+00 1.9982263438479261e+01 1.0000000000000000e+01 8.3697051684893502e+00 
166 167 2 1.2467815574102814e+00 -1.1557383790837332e+00 1.0000000000000000e+00 3.0231146807369829e+01 1.0000000000000000e+01 8.4202193464981168e+00 
497 498 2 1.2467813887822099e+00 6.6307792026398156e+00 1.0000000000000000e+00 1.0908402993184263e+01 1.3000000000000000e+01 7.1466296129435189e+00 
639 640 2 1.2467813888044947e+00 -4.8532635360773870e+00 1.0000000000000000e+00 1.9982263438479261e+01 1.3000000000000000e+01 8.3697051684893502e+00 
628 629 2 1.2467815574102814e+00 -1.1557383790837332e+00 1.0000000000000000e+00 3.0231146807369829e+01 1.3000000000000000e+01 8.4202193464981168e+00 
959 960 2 1.2467813887822099e+00 6.6307792026398156e+00 1.0000000000000000e+00 1.0908402993184263e+01 1.6000000000000000e+01 7.1466296129435189e+00 
1101 1102 2 1.2467813888044947e+00 -4.8532635360773870e+00 1.0000000000000000e+00 1.9982263438479261e+01 1.6000000000000000e+01 8.3697051684893502e+00 
1090 1091 2 1.2467815574102814e+00 -1.1557383790837332e+00 1.0000000000000000e+00 3.0231146807369829e+01 1.6000000000000000e+01 8.4202193464981168e+00 
1527 1528 2 1.2467813888044947e+00 -2.4587272791044210e+00 1.0000000000000000e+00 1.8705413023028052e+00 1.9000000000000000e+01 7.5148780545816116e+00 
1717 1718 2 1.2467813888044947e+00 -1.5987587918949890e+00 1.0000000000000000e+00 1.0818580669879573e+01 1.9000000000000000e+01 7.7773444595309478e+00 
1497 1498 2 1.2467813888044947e+00 -5.2337017829587940e-01 1.0000000000000000e+00 2.6042832485554452e+01 1.9000000000000000e+01 8.3859909482136494e+00 
1626 1627 2 1.2467813889034651e+00 -2.0010961621876620e+00 1.0000000000000000e+00 2.8390276689343477e+01 1.9000000000000000e+01 7.9696492114656490e+00 
216 217 2 1.2467813888044947e+00 -1.8846874563074181e+00 1.0000000000000000e+00 5.4060673566036010e+00 1.0000000000000000e+01 9.2344129294448987e+00 
26 27 2 1.2467813888044947e+00 4.1053316483841140e+00 1.0000000000000000e+00 9.2992719558292212e+00 1.0000000000000000e+01 9.1091604756474513e+00 
259 260 2 1.2467836291843635e+00 -2.7279587612580656e+00 1.0000000000000000e+00 1.2840835020904404e+01 1.0000000000000000e+01 9.4790336013881404e+00 
445 446 2 1.2467813888044947e+00 4.6888049734789625e+00 1.0000000000000000e+00 1.7658374552192626e+01 1.0000000000000000e+01 8.8272772690395698e+00 
86 87 2 1.2467813888044947e+00 -2.4445630053700467e+00 1.0000000000000000e+00 2.2682636587710171e+01 1.0000000000000000e+01 8.7080926498293358e+00 
266 267 2 1.2467813888044947e+00 -3.0005258641367423e+00 1.0000000000000000e+00 2.5458286999521576e+01 1.0000000000000000e+01 8.5957363338420496e+00 
309 310 2 1.2467813888044947e+00 -5.0086470507933250e+00 1.0000000000000000e+00 2.7526182694463856e+01 1.0000000000000000e+01 9.5422027222149577e+00 
17 18 2 1.2467813888044947e+00 4.6200660192510004e+00 1.0000000000000000e+00 3.3095722524389025e+01 1.0000000000000000e+01 9.4026543067451005e+00 
678 679 2 1.2467813888044947e+00 -1.8846874563074181e+00 1.0000000000000000e+00 5.4060673566036010e+00 1.3000000000000000e+01 9.2344129294448987e+00 
488 489 2 1.2467813888044947e+00 4.1053316483841140e+00 1.0000000000000000e+00 9.2992719558292212e+00 1.3000000000000000e+01 9.1091604756474513e+00 
721 722 2 1.2467836291843635e+00 -2.7279587612580656e+00 1.0000000000000000e+00 1.2840835020904404e+01 1.3000000000000000e+01 9.4790336013881404e+00 
907 908 2 1.2467813888044947e+00 4.6888049734789625e+00 1.0000000000000000e+00 1.7658374552192626e+01 1.3000000000000000e+01 8.8272772690395698e+00 
548 549 2 1.2467813888044947e+00 -2.4445630053700467e+00 1.0000000000000000e+00 2.2682636587710171e+01 1.3000000000000000e+01 8.7080926498293358e+00 
728 729 2 1.2467813888044947e+00 -3.0005258641367423e+00 1.0000000000000000e+00 2.5458286999521576e+01 1.3000000000000000e+01 8.5957363338420496e+00 
771 772 2 1.2467813888044947e+00 -5.0086470507933250e+00 1.0000000000000000e+00 2.7526182694463856e+01 1.3000000000000000e+01 9.5422027222149577e+00 
479 480 2 1.2467813888044947e+00 4.6200660192510004e+00 1.0000000000000000e+00 3.3095722524389025e+01 1.3000000000000000e+01 9.4026543067451005e+00 
1140 1141 2 1.2467813888044947e+00 -1.8846874563074181e+00 1.0000000000000000e+00 5.4060673566036010e+00 1.6000000000000000e+01 9.2344129294448987e+00 
950 951 2 1.2467813888044947e+00 4.1053316483841140e+00 1.0000000000000000e+00 9.2992719558292212e+00 1.6000000000000000e+01 9.1091604756474513e+00 
1183 1184 2 1.2467836291843635e+00 -2.7279587612580656e+00 1.0000000000000000e+00 1.2840835020904404e+01 1.6000000000000000e+01 9.4790336013881404e+00 
1369 1370 2 1.2467813888044947e+00 4.6888049734789625e+00 1.0000000000000000e+00 1.7658374552192626e+01 1.6000000000000000e+01 8.8272772690395698e+00 
1010 1011 2 1.2467813888044947e+00 -2.4445630053700467e+00 1.0000000000000000e+00 2.2682636587710171e+01 1.6000000000000000e+01 8.7080926498293358e+00 
1190 1191 2 1.2467813888044947e+00 -3.0005258641367423e+00 1.0000000000000000e+00 2.5458286999521576e+01 1.6000000000000000e+01 8.5957363338420496e+00 
1233 1234 2 1.2467813888044947e+00 -5.0086470507933250e+00 1.0000000000000000e+00 2.7526182694463856e+01 1.6000000000000000e+01 9.5422027222149577e+00 
941 942 2 1.2467813888044947e+00 4.6200660192510004e+00 1.0000000000000000e+00 3.3095722524389025e+01 1.6000000000000000e+01 9.4026543067451005e+00 
1406 1407 2 1.2467813888044947e+00 3.2362732212274690e+00 1.0000000000000000e+00 4.5278211583382681e+00 1.9000000000000000e+01 9.0853354675727811e+00 
1627 1628 2 1.2467813888044947e+00 -1.6447619080960592e+00 1.0000000000000000e+00 9.0043746938046603e+00 1.9000000000000000e+01 8.8853516842321110e+00 
1608 1609 2 1.2467813888044947e+00 -2.0521702868293041e+00 1.0000000000000000e+00 1.6810354185241689e+01 1.9000000000000000e+01 9.1682739481555178e+00 
1485 1486 2 1.2467818468238392e+00 -2.6645986134358335e+00 1.0000000000000000e+00 2.1529502327883662e+01 1.9000000000000000e+01 9.9010333813587739e+00 
1441 1442 2 1.2467813889034651e+00 -8.1624589249620028e-01 1.0000000000000000e+00 2.9448578269783081e+01 1.9000000000000000e+01 9.7820536022777045e+00 
1477 1478 2 1.2467813888044947e+00 -1.0943746789028046e+00 1.0000000000000000e+00 3.1697043160571880e+01 1.9000000000000000e+01 9.0183235135817981e+00 
165 166 2 1.2467813888044947e+00 -4.4150049021597704e-01 1.0000000000000000e+00 1.9158075872783864e+00 1.0000000000000000e+01 1.0026817119819986e+01 
16 17 2 1.2467813888044947e+00 4.5548808081045973e+00 1.0000000000000000e+00 6.6238477611993964e+00 1.0000000000000000e+01 1.1095002556512302e+01 
41 42 2 1.2467836291843635e+00 6.1175714230502205e+00 1.0000000000000000e+00 1.4703406251538034e+01 1.0000000000000000e+01 1.0361029189644851e+01 
389 390 2 1.2467813888044947e+00 -3.6972352491612064e+00 1.0000000000000000e+00 2.4768722394639383e+01 1.0000000000000000e+01 1.0955460483132599e+01 
215 216 2 1.2467813888044947e+00 -1.1071070182539000e+00 1.0000000000000000e+00 3.1077257845324034e+01 1.0000000000000000e+01 1.0351750310347009e+01 
627 628 2 1.2467813888044947e+00 -4.4150049021597704e-01 1.0000000000000000e+00 1.9158075872783864e+00 1.3000000000000000e+01 1.0026817119819986e+01 
478 479 2 1.2467813888044947e+00 4.5548808081045973e+00 1.0000000000000000e+00 6.6238477611993964e+00 1.3000000000000000e+01 1.1095002556512302e+01 
503 504 2 1.2467836291843635e+00 6.1175714230502205e+00 1.0000000000000000e+00 1.4703406251538034e+01 1.3000000000000000e+01 1.0361029189644851e+01 
851 852 2 1.2467813888044947e+00 -3.6972352491612064e+00 1.0000000000000000e+00 2.4768722394639383e+01 1.3000000000000000e+01 1.0955460483132599e+01 
677 678 2 1.2467813888044947e+00 -1.1071070182539000e+00 1.0000000000000000e+00 3.1077257845324034e+01 1.3000000000000000e+01 1.0351750310347009e+01 
1089 1090 2 1.2467813888044947e+00 -4.4150049021597704e-01 1.0000000000000000e+00 1.9158075872783864e+00 1.6000000000000000e+01 1.0026817119819986e+01 
940 941 2 1.2467813888044947e+00 4.5548808081045973e+00 1.0000000000000000e+00 6.6238477611993964e+00 1.6000000000000000e+01 1.1095002556512302e+01 
965 966 2 1.2467836291843635e+00 6.1175714230502205e+00 1.0000000000000000e+00 1.4703406251538034e+01 1.6000000000000000e+01 1.0361029189644851e+01 
1313 1314 2 1.2467813888044947e+00 -3.6972352491612064e+00 1.0000000000000000e+00 2.4768722394639383e+01 1.6000000000000000e+01 1.0955460483132599e+01 
1139 1140 2 1.2467813888044947e+00 -1.1071070182539000e+00 1.0000000000000000e+00 3.1077257845324034e+01 1.6000000000000000e+01 1.0351750310347009e+01 
1424 1425 2 1.2467813888044947e+00 5.3253757459095290e+00 1.0000000000000000e+00 1.2476628107840851e+01 1.9000000000000000e+01 1.0577624634482349e+01 
1575 1576 2 1.2467813888044947e+00 -2.9465549839622276e+00 1.0000000000000000e+00 2.3897479212696620e+01 1.9000000000000000e+01 1.0737116058265610e+01 
1618 1619 2 1.2467813888044947e+00 6.9116366502923599e-01 1.0000000000000000e+00 2.7083125043965925e+01 1.9000000000000000e+01 1.0682054417047498e+01 
456 457 2 1.2467813888044947e+00 4.6449409195645970e+00 1.0000000000000000e+00 4.4774738738317676e+00 1.0000000000000000e+01 1.2478735793349159e+01 
392 393 2 1.2467813888044947e+00 -1.8118507391953098e+00 1.0000000000000000e+00 9.0887556097762943e+00 1.0000000000000000e+01 1.1680767926108588e+01 
331 332 2 1.2467813888044947e+00 -3.9496545517228627e+00 1.0000000000000000e+00 1.7062615240453386e+01 1.0000000000000000e+01 1.1938633146787652e+01 
200 201 2 1.2467813888044947e+00 -4.1264418672072596e+00 1.0000000000000000e+00 2.6741849277836518e+01 1.0000000000000000e+01 1.1811738987457442e+01 
261 262 2 1.2467813888044947e+00 -4.3771839020355534e+00 1.0000000000000000e+00 3.1945557265679891e+01 1.0000000000000000e+01 1.2749313498798706e+01 
918 919 2 1.2467813888044947e+00 4.6449409195645970e+00 1.0000000000000000e+00 4.4774738738317676e+00 1.3000000000000000e+01 1.2478735793349159e+01 
854 855 2 1.2467813888044947e+00 -1.8118507391953098e+00 1.0000000000000000e+00 9.0887556097762943e+00 1.3000000000000000e+01 1.1680767926108588e+01 
793 794 2 1.2467813888044947e+00 -3.9496545517228627e+00 1.0000000000000000e+00 1.7062615240453386e+01 1.3000000000000000e+01 1.1938633146787652e+01 
662 663 2 1.2467813888044947e+00 -4.1264418672072596e+00 1.0000000000000000e+00 2.6741849277836518e+01 1.3000000000000000e+01 1.1811738987457442e+01 
723 724 2 1.2467813888044947e+00 -4.3771839020355534e+00 1.0000000000000000e+00 3.1945557265679891e+01 1.3000000000000000e+01 1.2749313498798706e+01 
1380 1381 2 1.2467813888044947e+00 4.6449409195645899e+00 1.0000000000000000e+00 4.4774738738317676e+00 1.6000000000000000e+01 1.2478735793349159e+01 
1316 1317 2 1.2467813888044947e+00 -1.8118507391953098e+00 1.0000000000000000e+00 9.0887556097762943e+00 1.6000000000000000e+01 1.1680767926108588e+01 
1255 1256 2 1.2467813888044947e+00 -3.9496545517228627e+00 1.0000000000000000e+00 1.7062615240453386e+01 1.6000000000000000e+01 1.1938633146787652e+01 