LAMMPS data file via write_data, version 30 Jul 2016, timestep = 50400000

4620 atoms
8 atom types

0.0000000000000000e+00 1.0000000000000000e+02 xlo xhi
0.0000000000000000e+00 4.0000000000000000e+01 ylo yhi
0.0000000000000000e+00 4.0000000000000000e+01 zlo zhi

Masses

1 3.896
2 5.36
3 20.064
4 8.378
5 8.378
6 8.378
7 8.378
8 8.378

Atoms # meso-molecular

799 800 2 1.0280000000000000e+00 -7.2612784827235942e+01 1.0000000000000000e+00 3.3019454190006122e+01 6.0873075183208183e+00 6.7720125755949800e-01 
2145 2146 2 1.0280000000000000e+00 -2.4083097277745989e+02 1.0000000000000000e+00 3.3213061101022973e+01 7.6045651649909711e+00 1.0072386794827262e+00 
2767 2768 2 1.0280000000000002e+00 -6.8661151015615388e+01 1.0000000000000000e+00 3.1154933799463564e+01 1.8336575675506833e+01 2.4651733989087274e+00 
1254 1255 2 1.0279999999999996e+00 4.5823756631211353e+01 1.0000000000000000e+00 1.2543512549177608e+01 1.9576342460160856e+01 2.0860647988849541e+00 
1255 1256 2 1.0279999999999996e+00 -1.7053150671787262e+02 1.0000000000000000e+00 1.3437562080916347e+01 1.8692295287167230e+01 3.0175234039565870e+00 
2232 2233 2 1.0280000000000005e+00 1.6744533151111051e+02 1.0000000000000000e+00 1.6317993194967837e+01 1.3025990905049587e+01 4.0039063917697577e+00 
1764 1765 2 1.0280000000000000e+00 8.4419986545681923e+01 1.0000000000000000e+00 2.2762871564232071e+01 1.7831094016477667e+01 3.1573128829817168e+00 
2142 2143 2 1.0280000000000000e+00 -1.1865389581894975e+02 1.0000000000000000e+00 2.2526443216982258e+01 1.9077442797491685e+01 4.0733890015023686e+00 
3234 3235 2 1.0280000000000002e+00 -2.8901284598187942e+02 1.0000000000000000e+00 3.1983263077187154e+01 1.9301351476305285e+01 3.3770710708554690e+00 
2231 2232 2 1.0280000000000005e+00 -4.5103828125462897e+01 1.0000000000000000e+00 1.6810972162487076e+01 1.1673533670063128e+01 4.6173477234052367e+00 
1387 1388 2 1.0280000000000011e+00 -2.8892855859487292e+02 1.0000000000000000e+00 3.1593886430592573e+01 1.5560833633686755e+01 5.5771884923175730e+00 
1854 1855 2 1.0280000000000011e+00 -6.8831686480230786e+01 1.0000000000000000e+00 3.3051005916401117e+01 1.6130550976564937e+01 5.6037225372999684e+00 
1933 1934 2 1.0279999999999991e+00 9.8300271368785786e+01 1.0000000000000000e+00 3.2816101395638960e+01 1.3775047634066130e+01 8.5008247821778653e+00 
44 45 2 1.0280000000000007e+00 -4.1497186550023187e+01 1.0000000000000000e+00 3.3039912337533607e+01 1.6448581483218977e+01 1.0423222376070695e+01 
1887 1888 2 1.0280000000000000e+00 7.1353244808388652e+01 1.0000000000000000e+00 1.1933122201300611e+01 1.4699706360856265e+01 1.1107979078376189e+01 
126 127 2 1.0280000000000000e+00 6.5061239346584642e+01 1.0000000000000000e+00 1.2348623879902787e+01 1.5897150957399608e+01 1.2025564984725122e+01 
1 2 2 1.0280000000000007e+00 -7.2507038169441870e+01 1.0000000000000000e+00 3.2171218417094451e+01 1.6719484628956657e+01 1.1696195848089552e+01 
933 934 2 1.0280000000000002e+00 1.8899863384402249e+02 1.0000000000000000e+00 1.8535186539308235e+01 3.0799249044536721e+00 1.3984805811883533e+01 
2443 2444 2 1.0280000000000020e+00 1.0772656566378991e+00 1.0000000000000000e+00 1.0411334501467739e+01 4.6930774524305863e-01 1.6503330277262684e+01 
934 935 2 1.0280000000000002e+00 5.3633159650334605e+01 1.0000000000000000e+00 1.9170391846489380e+01 3.0571222241503393e+00 1.5414656628487194e+01 
2434 2435 2 1.0280000000000000e+00 -4.9354108690703256e+01 1.0000000000000000e+00 2.5222209287966091e+01 8.0170428606269901e+00 1.6126578124856870e+01 
2563 2564 2 1.0280000000000000e+00 -1.1922476049046804e+02 1.0000000000000000e+00 1.3612424609543165e+01 1.0998568058501689e+01 1.6706143430728627e+01 
3109 3110 2 1.0280000000000000e+00 8.3794835009070738e+01 1.0000000000000000e+00 1.4607243543903152e+01 1.1987419607210430e+01 1.6012611164213613e+01 
2010 2011 2 1.0280000000000002e+00 1.0828751377215398e+00 1.0000000000000000e+00 5.6987576420968544e+00 1.8198013524724999e+01 1.6618213633664091e+01 
2311 2312 2 1.0279999999999994e+00 -3.2888837550386449e+02 1.0000000000000000e+00 2.0023578488414699e+01 1.7755002466834114e+01 1.5968922226304910e+01 
2472 2473 2 1.0280000000000002e+00 1.1027250279590641e+00 1.0000000000000000e+00 4.9474310675144011e+00 1.9562343454185648e+01 1.6768517739218016e+01 
4332 4333 2 1.0279999999999994e+00 1.1634008572153851e+02 1.0000000000000000e+00 1.8745702412814865e+01 1.8650171803903543e+01 1.5849826904723749e+01 
2522 2523 2 1.0279999999999987e+00 1.1698432867767484e+02 1.0000000000000000e+00 1.8922753728980144e+01 7.6876097688329672e+00 1.7711565078110006e+01 
2521 2522 2 1.0279999999999987e+00 2.0115983779280424e+02 1.0000000000000000e+00 1.7410989568607175e+01 8.0604555963733535e+00 1.7866594799582430e+01 
3354 3355 2 1.0280000000000000e+00 -1.7308699150533107e+02 1.0000000000000000e+00 2.4788091203659793e+01 8.4695806852502695e+00 1.7560185500816456e+01 
3193 3194 2 1.0280000000000002e+00 -2.8615028443647236e+02 1.0000000000000000e+00 1.3203453622391514e+01 1.3514615423796220e+01 1.9247283510202944e+01 
2736 2737 2 1.0280000000000002e+00 -6.6412074626439789e+01 1.0000000000000000e+00 1.4074532621032226e+01 1.4659432374968580e+01 1.8631576900949977e+01 
170 171 2 1.0280000000000011e+00 2.5163952496158707e+01 1.0000000000000000e+00 3.2714794388058927e+01 1.9319988140880245e+01 1.8595301785158494e+01 
124 125 2 1.0279999999999998e+00 -1.6340949356466780e+01 1.0000000000000000e+00 1.2778160013523948e+01 3.4260783644726311e+00 2.0971151222762245e+01 
2606 2607 2 1.0280000000000002e+00 1.8621943711813058e+00 1.0000000000000000e+00 2.4814098615169105e+01 1.4462276030166080e+01 2.1517422977944715e+01 
82 83 2 1.0279999999999998e+00 1.7787638965153491e+01 1.0000000000000000e+00 1.1483794455084798e+01 3.4596614146561397e+00 2.1849768933777195e+01 
2689 2690 2 1.0280000000000002e+00 2.5492423901451822e+01 1.0000000000000000e+00 2.6341272213922934e+01 1.4450245488639972e+01 2.1858121037202661e+01 
1347 1348 2 1.0280000000000000e+00 1.0419235799447165e+02 1.0000000000000000e+00 5.1581681798174701e+00 4.5612371765081656e+00 2.4468563503175091e+01 
3952 3953 2 1.0279999999999998e+00 6.0798939049503005e+01 1.0000000000000000e+00 1.7070234448076139e+01 3.8460139848251327e+00 2.4281743291380181e+01 
1348 1349 2 1.0280000000000000e+00 -1.9884291689199571e+01 1.0000000000000000e+00 6.3514839961725471e+00 5.3885063762879835e+00 2.3885380739562564e+01 
718 719 2 1.0279999999999998e+00 6.0671192843330971e+01 1.0000000000000000e+00 1.6886872321073913e+01 5.3998896996645938e+00 2.4299845651879423e+01 
4541 4542 2 1.0280020588348369e+00 -5.7712252733211491e+00 1.0000000000000000e+00 2.7781700498865337e+01 1.7992667435936564e+01 2.4550902478103968e+01 
4460 4461 2 1.0279979389146046e+00 -7.3131782536749341e+01 1.0000000000000000e+00 2.7528184764296444e+01 1.9431762338167971e+01 2.3991230011279086e+01 
1891 1892 2 1.0280000000000000e+00 2.5625635508751284e+01 1.0000000000000000e+00 9.1772636886545076e+00 1.2169817288515469e+01 2.5126973115656224e+01 
1976 1977 2 1.0280000000000000e+00 2.1365359261581660e+00 1.0000000000000000e+00 7.6399295602370660e+00 1.2460435958724588e+01 2.5101999762434481e+01 
3487 3488 2 1.0280020658231626e+00 -9.3921539133023032e+01 1.0000000000000000e+00 2.9308785633282366e+01 1.8821908209733213e+01 2.5975295843982806e+01 
4420 4421 2 1.0280000000000000e+00 1.4908143877880005e+02 1.0000000000000000e+00 2.6166690617111069e+01 1.4945881167379221e-01 2.6788279566431839e+01 
1603 1604 2 1.0279999999999991e+00 3.5802920295820265e+01 1.0000000000000000e+00 3.3170809939879717e+01 1.2667820915549990e+01 2.7689662001235565e+01 
3949 3950 2 1.0279979459029303e+00 -4.0098035628934419e+01 1.0000000000000000e+00 3.0285189430567215e+01 1.8853287080834317e+01 2.7197649542255437e+01 
4252 4253 2 1.0280000000000000e+00 -1.1913801346924197e+02 1.0000000000000000e+00 2.5845775741449078e+01 3.5880602626705510e-01 2.8305403980764151e+01 
1602 1603 2 1.0279999999999991e+00 2.3926665016404655e+02 1.0000000000000000e+00 3.1867555826120693e+01 1.1803533541496138e+01 2.7744572403379010e+01 
2264 2265 2 1.0280000000000000e+00 -4.5105119860414192e+01 1.0000000000000000e+00 1.0978107407710279e+01 3.5389417692269320e-01 3.0582542029630098e+01 
2316 2317 2 1.0280000000000000e+00 -6.8749051604623418e+01 1.0000000000000000e+00 6.4141124067678330e+00 2.8301291454140745e+00 3.0003882830992367e+01 
2263 2264 2 1.0280000000000000e+00 1.6743940478505721e+02 1.0000000000000000e+00 1.1147051704069129e+01 1.8272092835041789e+00 3.0083263025776674e+01 
2773 2774 2 1.0280000000000000e+00 -2.8905344746755316e+02 1.0000000000000000e+00 5.1317982817986101e+00 3.6554388544782821e+00 3.0354615594319430e+01 
3655 3656 2 1.0280000000000000e+00 -9.0528961377473451e+01 1.0000000000000000e+00 2.6521211706614856e+01 7.5917241242525337e+00 3.0173031990195554e+01 
1949 1950 2 1.0280000000000005e+00 -4.9215527176228562e+01 1.0000000000000000e+00 2.1854760453706767e+01 9.0069594848536774e+00 2.9889745378187261e+01 
943 944 2 1.0280000000000005e+00 2.3175892508525514e+01 1.0000000000000000e+00 2.3261066682269384e+01 8.5947505441420553e+00 2.9341233133159260e+01 
1345 1346 2 1.0280000000000000e+00 -9.0638112635273728e+01 1.0000000000000000e+00 2.7173954738328369e+01 8.8683304062852741e+00 2.9546388521015299e+01 
3284 3285 2 1.0279999995501803e+00 -2.9297188362369514e+01 1.0000000000000000e+00 3.2839547004776371e+01 2.0366955331901418e-01 3.1106051120295454e+01 
3022 3023 2 1.0279999999999996e+00 -7.2111450665468254e+01 1.0000000000000000e+00 6.8018809279852555e+00 7.6336458489097723e+00 3.2208678075416323e+01 
2560 2561 2 1.0279999999999996e+00 -1.0354979520557779e+02 1.0000000000000000e+00 7.7713134249092022e+00 6.4311755070699661e+00 3.1958188927655918e+01 
1377 1378 2 1.0279999999999998e+00 5.2211538927825302e+01 1.0000000000000000e+00 3.2540015266922431e+01 2.6513083658202770e+00 3.2652943554034394e+01 
2219 2220 2 1.0279999999999998e+00 -1.0712174640401142e+02 1.0000000000000000e+00 3.1632470849032764e+01 3.2299401141056574e+00 3.3788737343274228e+01 
586 587 2 1.0279999974849554e+00 -1.7619111095679564e+01 1.0000000000000000e+00 3.1636276821947114e+01 1.2852954922047219e+00 3.5805306197661949e+01 
210 211 2 1.0280000007201333e+00 -8.1976264225386643e+01 1.0000000000000000e+00 3.2573468598031013e+01 2.9976976162524731e+00 3.6284311798919781e+01 
4239 4240 2 1.0280000000000029e+00 3.9560805453351207e+01 1.0000000000000000e+00 2.6452392792571562e+01 8.4705046655461373e+00 3.6232639175528675e+01 
1386 1387 2 1.0280000000000000e+00 -9.2255197481766231e+01 1.0000000000000000e+00 1.8434088008530914e+01 1.6232634099571914e+01 3.5384644584819632e+01 
168 169 2 1.0279999994646545e+00 -2.7485200964352323e+01 1.0000000000000000e+00 3.3088746403875248e+01 3.2760501090613339e+00 3.7764343543697670e+01 
3862 3863 2 1.0280000000000029e+00 -1.0863740557623322e+02 1.0000000000000000e+00 2.7767669617626751e+01 8.1622751784727932e+00 3.7022272355564496e+01 
759 760 2 1.0279999999999996e+00 -1.0899584606443788e+02 1.0000000000000000e+00 2.1376012568952230e+00 1.1478352842244739e+01 3.7910717807724424e+01 
382 383 2 1.0279999999999996e+00 3.9594138437461247e+01 1.0000000000000000e+00 3.6064750193632116e+00 1.0966014926416349e+01 3.8079237338284031e+01 
3366 3367 2 1.0279999999999998e+00 -1.7051855891922963e+02 1.0000000000000000e+00 2.9198847243637374e+01 1.4937171497465899e+01 3.8210263180058504e+01 
966 967 2 1.0280000000000000e+00 -9.2217544175139551e+01 1.0000000000000000e+00 1.8383119977487990e+01 1.6121470271280721e+01 3.6944620214543868e+01 
3367 3368 2 1.0279999999999998e+00 4.4511457330531364e+01 1.0000000000000000e+00 2.8940282986480714e+01 1.3418722851868257e+01 3.8485830481903228e+01 
2035 2036 2 1.0280000000000000e+00 2.4137486442756648e+02 1.0000000000000000e+00 2.7942310188270753e+01 3.5172606268542907e+01 1.3887652782021649e+00 
284 285 2 1.0280000000000000e+00 9.9376201535703018e+01 1.0000000000000000e+00 2.1740796295314365e+01 3.5871976920600687e+01 5.2831692239591466e-01 
374 375 2 1.0280000000000000e+00 7.0264031706329192e+01 1.0000000000000000e+00 2.2525532534631019e+01 3.6884573426850871e+01 1.4268248257976306e+00 
2497 2498 2 1.0280000000000000e+00 2.4196922575247345e+02 1.0000000000000000e+00 2.8352468843712082e+01 3.6678968546742198e+01 1.4942245899156061e+00 
4368 4369 2 1.0279999999999998e+00 -8.1369873595702018e+01 1.0000000000000000e+00 2.6977301242298925e+01 2.9386917031888640e+01 2.0983789623829558e+00 
3194 3195 2 1.0279999999999991e+00 5.9457983089735691e+01 1.0000000000000000e+00 2.9655802596667193e+01 2.9963744215392140e+01 2.8140538164797926e+00 
4326 4327 2 1.0279999999999998e+00 -2.6760077777386151e+01 1.0000000000000000e+00 2.7252379263497012e+01 2.8895270190844581e+01 3.5582058590345462e+00 
3656 3657 2 1.0279999999999991e+00 1.6861202472600031e+01 1.0000000000000000e+00 2.9260712868139628e+01 2.9870120441415985e+01 4.3252182011847635e+00 
2315 2316 2 1.0279999999999996e+00 -8.1865057543487609e+01 1.0000000000000000e+00 3.2968472880976911e+01 3.0055843568617682e+01 8.0936509167877109e+00 
2229 2230 2 1.0279999999999996e+00 3.7974732016382731e+01 1.0000000000000000e+00 2.6719548470402152e+01 3.4677602512216694e+01 7.9339743876243318e+00 
2809 2810 2 1.0280000000000000e+00 -1.0306455212966620e+02 1.0000000000000000e+00 6.0497422852045188e+00 2.9828283880856649e+01 1.0007495930109357e+01 
1767 1768 2 1.0279999999999996e+00 1.7388298912829679e+01 1.0000000000000000e+00 2.6591641697093383e+01 3.5516354827941640e+01 9.2487418622943025e+00 
2851 2852 2 1.0280000000000000e+00 9.2889290078533634e+01 1.0000000000000000e+00 5.6191049328180398e+00 2.9953583384344800e+01 1.1506605868505289e+01 
2994 2995 2 1.0280000000000000e+00 -1.6300432539054469e+02 1.0000000000000000e+00 8.3272661270677464e+00 3.1594090530089346e+01 1.2858355907785796e+01 
3457 3458 2 1.0280000000000000e+00 1.7920932557020441e+02 1.0000000000000000e+00 8.5785123910040504e+00 3.3020370684700687e+01 1.3450875390724685e+01 
1771 1772 2 1.0279999999999994e+00 1.0692237354430016e+01 1.0000000000000000e+00 3.2517810585837168e+01 2.0701395226666119e+01 1.4678326744335926e+01 
2687 2688 2 1.0280000000000000e+00 9.3414865472962845e+01 1.0000000000000000e+00 1.2624904034925519e+01 3.7857027020568403e+01 1.5282790326161251e+01 
1350 1351 2 1.0279999999999994e+00 3.3273321684600006e+01 1.0000000000000000e+00 3.2019363361809745e+01 2.0029242399433421e+01 1.6000537031674792e+01 
3867 3868 2 1.0280000000000007e+00 6.7812839544314997e+01 1.0000000000000000e+00 7.8026460358533383e+00 2.7203392938794394e+01 1.6651127405340812e+01 
2729 2730 2 1.0280000000000000e+00 -1.1008941692656592e+02 1.0000000000000000e+00 1.1963157863174018e+01 3.6820158518852224e+01 1.6249989797089224e+01 
1981 1982 2 1.0280000000000025e+00 1.0605101630592249e+00 1.0000000000000000e+00 9.8556880225169632e+00 3.9055984283609796e+01 1.6880494545809992e+01 
3868 3869 2 1.0280000000000007e+00 6.1750974284903791e+01 1.0000000000000000e+00 8.9953028289584047e+00 2.7556820308821887e+01 1.7600410276890727e+01 
4120 4121 2 1.0279999999999994e+00 -6.9898025121144656e+01 1.0000000000000000e+00 2.3408745152757241e+01 3.8213225171738564e+01 1.8166409274515122e+01 
4119 4120 2 1.0279999999999994e+00 -2.4424402186108082e+01 1.0000000000000000e+00 2.3209920124036177e+01 3.9626835876254113e+01 1.7525587547140496e+01 
918 919 2 1.0280000000000005e+00 -6.2672439033672546e+01 1.0000000000000000e+00 2.0164916623023159e+00 2.2945280316101361e+01 1.8905420458538337e+01 
917 918 2 1.0280000000000005e+00 8.3460896074864674e+00 1.0000000000000000e+00 1.4605124219406889e+00 2.4406175943810911e+01 1.8977185014332203e+01 
2343 2344 2 1.0280000000000000e+00 1.3013109258158150e+02 1.0000000000000000e+00 2.2954271656830421e+01 2.3860930066609338e+01 1.9481594627637179e+01 
967 968 2 1.0280000000000005e+00 -2.4894899680257232e+01 1.0000000000000000e+00 1.2962210742071743e+01 3.1983361612555750e+01 1.9178495836392337e+01 
505 506 2 1.0280000000000005e+00 -6.5064178666837478e+01 1.0000000000000000e+00 1.4032110316900022e+01 3.1185004461752222e+01 1.9994841266823233e+01 
713 714 2 1.0280000000000000e+00 -1.4111074032025061e+02 1.0000000000000000e+00 2.5629225191649212e+00 3.3171774689087599e+01 1.9878019758130424e+01 
2983 2984 2 1.0280000000000007e+00 2.3706231707326873e+02 1.0000000000000000e+00 2.8716169582109249e+01 2.1088007092161074e+01 2.1447333676080163e+01 
1881 1882 2 1.0280000000000000e+00 1.3052300353927322e+02 1.0000000000000000e+00 2.2103195681057663e+01 2.2679672650403759e+01 2.0054987775803458e+01 
4072 4073 2 1.0280000000000007e+00 -1.7345409269885245e+01 1.0000000000000000e+00 3.2616153943720867e+01 2.8408160624276988e+01 2.0285067277673047e+01 
4114 4115 2 1.0280000000000007e+00 3.2389353608544702e+01 1.0000000000000000e+00 3.3270277990588873e+01 2.9828152135012868e+01 2.0220067716218217e+01 
712 713 2 1.0280000000000000e+00 -1.7865342298186096e+02 1.0000000000000000e+00 3.9847800002648968e+00 3.3293507942809384e+01 2.0519877546601212e+01 
4530 4531 2 1.0279999999999996e+00 -1.0612244549619828e+02 1.0000000000000000e+00 2.5262313584356392e+01 3.3130532735998081e+01 2.0785817917207272e+01 
4529 4530 2 1.0279999999999996e+00 1.1893994147290215e+02 1.0000000000000000e+00 2.6662038084365285e+01 3.2473130032735398e+01 2.0546920215125311e+01 
3024 3025 2 1.0280000000000007e+00 2.3685425044743471e+02 1.0000000000000000e+00 2.7317201891394440e+01 2.0480062577140263e+01 2.1796292082246925e+01 
2148 2149 2 1.0279997730362929e+00 -1.3879081863498755e+02 1.0000000000000000e+00 6.4132125394582937e+00 2.5014564924674403e+01 2.2497678245635431e+01 
2280 2281 2 1.0279997738927540e+00 2.6018631718397887e+02 1.0000000000000000e+00 9.2001789146318380e+00 2.5449729748809848e+01 2.2031944017644928e+01 
2185 2186 2 1.0279999999999989e+00 9.8292167387036613e+01 1.0000000000000000e+00 2.2814715013964118e+01 2.5569054993845238e+01 2.2202475012654926e+01 
2610 2611 2 1.0280002262276704e+00 -1.3866490752568478e+02 1.0000000000000000e+00 5.5283932233929338e+00 2.6326244190101619e+01 2.2689933869361891e+01 
3616 3617 2 1.0280002262074477e+00 5.6520765904933100e+01 1.0000000000000000e+00 7.7904300634213532e+00 2.6316802760421279e+01 2.2615779749518648e+01 
2740 2741 2 1.0280002261852479e+00 1.3283089373854912e+02 1.0000000000000000e+00 9.9503984790427431e+00 2.6928904491219626e+01 2.2091232706087144e+01 
1765 1766 2 1.0279999999999989e+00 3.6706242289767905e+00 1.0000000000000000e+00 2.4209879307511056e+01 2.6272407916788691e+01 2.2287858629589667e+01 
3460 3461 2 1.0280000000000000e+00 -9.6016846649529100e+01 1.0000000000000000e+00 3.2866967628665819e+01 3.5511526161744797e+01 2.2997523345434921e+01 
1977 1978 2 1.0279997264558105e+00 -2.4217846136508160e+02 1.0000000000000000e+00 3.0888300778143684e+01 3.6944217460057992e+01 2.2342232102012186e+01 
2651 2652 2 1.0279997725489283e+00 2.6924367554140975e+01 1.0000000000000000e+00 6.8629777240940903e+00 2.6803475097945245e+01 2.3953918076108913e+01 
2641 2642 2 1.0279997737909141e+00 -1.3718018378772945e+02 1.0000000000000000e+00 1.1304750136387749e+01 2.7447219860061267e+01 2.3079738504821989e+01 
2742 2743 2 1.0280002265435704e+00 2.6129430796943126e+02 1.0000000000000000e+00 7.8378516248154435e+00 2.8255428720158644e+01 2.3807287372292077e+01 
2718 2719 2 1.0279997734939201e+00 2.6940324596265805e+02 1.0000000000000000e+00 9.0519108228754934e+00 2.9169149680805099e+01 2.4474736384432024e+01 
2685 2686 2 1.0280002261609682e+00 -8.2417026062764364e+01 1.0000000000000000e+00 1.0580422650505854e+01 2.8327739476329050e+01 2.4285699982181100e+01 
4423 4424 2 1.0279999998902341e+00 5.1603125057301341e+01 1.0000000000000000e+00 2.5087109020380719e+01 3.0488450383544201e+01 2.4266924387926007e+01 
93 94 2 1.0279999999999969e+00 -1.0110738083623608e+02 1.0000000000000000e+00 1.6666259000740325e+01 3.1625682308862928e+01 2.3185088804513306e+01 
1310 1311 2 1.0280000018914319e+00 -2.9541791151452607e+01 1.0000000000000000e+00 2.5377661335251982e+01 3.1964113821252866e+01 2.3387973311037694e+01 
7 8 2 1.0279999999999969e+00 -7.3564527249380717e+01 1.0000000000000000e+00 1.7412910758761186e+01 3.2999224161341004e+01 2.3251217723888679e+01 
547 548 2 1.0280002728246733e+00 -7.3887916896191825e+01 1.0000000000000000e+00 2.9888857662733855e+01 3.5959944656144401e+01 2.3088876546370397e+01 
541 542 2 1.0280002728245226e+00 -4.1775071111427472e+01 1.0000000000000000e+00 3.1560099939853426e+01 3.7082811782286349e+01 2.4133099399410646e+01 
3106 3107 2 1.0280000000000000e+00 -2.6973433036248616e+02 1.0000000000000000e+00 1.2523360217937839e+01 2.0471369970904540e+01 2.6096062438815547e+01 
3568 3569 2 1.0280000000000000e+00 -1.7832641165508045e+02 1.0000000000000000e+00 1.2255242200387643e+01 2.1995131706018459e+01 2.5862092343483166e+01 
177 178 2 1.0280000007565233e+00 5.0078011801211971e+01 1.0000000000000000e+00 2.4033494998616685e+01 3.0642380635412888e+01 2.5699110093140821e+01 
2781 2782 2 1.0279999999388290e+00 6.2018959627192970e+01 1.0000000000000000e+00 2.5765643202941249e+01 3.0456249739048793e+01 2.5964595100137718e+01 
265 266 2 1.0279999985771786e+00 5.1940196508036578e+01 1.0000000000000000e+00 2.4456683238391534e+01 3.2187867407445488e+01 2.4965891982923761e+01 
1352 1353 2 1.0279999974932168e+00 1.0366262447220313e+02 1.0000000000000000e+00 2.6432838953473425e+01 3.2156175239766497e+01 2.4757867376989562e+01 
1093 1094 2 1.0280000000396305e+00 -9.3415821796634717e+01 1.0000000000000000e+00 2.8402393195257961e+01 3.1689034622658138e+01 2.5814686863077242e+01 
631 632 2 1.0280000002289216e+00 -3.9917276781382782e+01 1.0000000000000000e+00 2.9837381727024646e+01 3.1695005950770625e+01 2.5116766000108459e+01 
583 584 2 1.0279997264554057e+00 -1.0756124802955955e+02 1.0000000000000000e+00 3.0051833336332123e+01 3.7084961959216749e+01 2.4633383967630774e+01 
1924 1925 2 1.0279999999999987e+00 2.3480766153144302e+01 1.0000000000000000e+00 2.5983035689672882e+01 2.2053989264633131e+01 2.6204246627291205e+01 
1420 1421 2 1.0279999999999987e+00 7.5615006456993370e+01 1.0000000000000000e+00 2.7353186370069992e+01 2.2458733186230720e+01 2.6842485276371175e+01 
3579 3580 2 1.0280000034892287e+00 -5.8429062348654952e+01 1.0000000000000000e+00 3.1046384944885496e+01 3.0339742751132334e+01 2.7570082713259012e+01 
3285 3286 2 1.0279999999113192e+00 -9.5001342483243320e+01 1.0000000000000000e+00 2.6923200094001682e+01 3.1244524999416917e+01 2.6996398168640120e+01 
3535 3536 2 1.0280000011269113e+00 4.4249939959500558e+01 1.0000000000000000e+00 2.9982889916683582e+01 3.1939532154181052e+01 2.6987662434886182e+01 
1770 1771 2 1.0280000036091259e+00 9.2062424529651082e+01 1.0000000000000000e+00 2.5671313573456484e+01 3.2472259358125214e+01 2.6229955016205388e+01 
3534 3535 2 1.0279999996771076e+00 -1.7073452994051826e+02 1.0000000000000000e+00 3.0067114782465559e+01 3.3558873143414743e+01 2.6945706362458147e+01 
4044 4045 2 1.0280000004743397e+00 -9.5657209383071651e-01 1.0000000000000000e+00 3.2750183587929072e+01 3.6543155861946872e+01 2.7427133164561202e+01 
3948 3949 2 1.0279999987453159e+00 2.6177209167708736e+02 1.0000000000000000e+00 3.0108970785849081e+01 3.8489093303191495e+01 2.7498798061611925e+01 
4242 4243 2 1.0280000008821302e+00 -1.0829925869091147e+02 1.0000000000000000e+00 3.0715140116750746e+01 3.9866293847165998e+01 2.6981821898165659e+01 
3705 3706 2 1.0279999979799583e+00 -8.8183419514670817e+01 1.0000000000000000e+00 3.0293436891307579e+01 2.9622009004912577e+01 2.8845683905513752e+01 
3117 3118 2 1.0279999991229702e+00 -6.9931608958521423e+01 1.0000000000000000e+00 3.1687226373549880e+01 3.0677532116732497e+01 2.9216100026118102e+01 
3700 3701 2 1.0280000015814943e+00 -7.0409842232488259e+01 1.0000000000000000e+00 2.6654942938648169e+01 3.2049586113063626e+01 2.8511752488863198e+01 
2823 2824 2 1.0279999993001077e+00 3.2762541964362248e+00 1.0000000000000000e+00 3.0271597263668671e+01 3.1657277955980696e+01 2.9031872992620528e+01 
471 472 2 1.0279999972409670e+00 -1.0030482510812929e+02 1.0000000000000000e+00 2.8907330209955195e+01 3.3589685960701864e+01 2.8348935093749557e+01 
975 976 2 1.0280000024961966e+00 -9.5573142741373786e+01 1.0000000000000000e+00 3.0261221685655453e+01 3.4520852586511197e+01 2.8976481028346250e+01 
4464 4465 2 1.0279999921371332e+00 -1.6306067291214414e+00 1.0000000000000000e+00 3.1699165427034103e+01 3.5416007185029187e+01 2.8398360348016567e+01 
306 307 2 1.0280000010815999e+00 -1.8624039951252105e+00 1.0000000000000000e+00 3.1428674858094013e+01 3.7228100272609908e+01 2.8380756639796310e+01 
1311 1312 2 1.0280000013006734e+00 -9.2288545832600406e+01 1.0000000000000000e+00 3.2100897075932473e+01 3.9216706551040119e+01 2.8124184437034348e+01 
1395 1396 2 1.0279999970099247e+00 8.2295748294783763e+01 1.0000000000000000e+00 3.2643203557058875e+01 3.2305879839921602e+01 3.0173794276979415e+01 
3699 3700 2 1.0279999980110297e+00 -2.4545448544811890e+01 1.0000000000000000e+00 2.7895174716600994e+01 3.2688687023719687e+01 2.9435271252323325e+01 
1437 1438 2 1.0280000014939519e+00 -1.7946154827618642e+01 1.0000000000000000e+00 3.0777991015675912e+01 3.2583860121355457e+01 3.0353286456037182e+01 
4335 4336 2 1.0280000019105719e+00 3.1752297120647668e+01 1.0000000000000000e+00 3.1863067150638170e+01 3.3890393047455511e+01 2.9347183916968842e+01 
346 347 2 1.0280000004041574e+00 -1.1739291033666474e+02 1.0000000000000000e+00 3.2847582874740368e+01 3.5939895060941957e+01 3.0435783571260863e+01 
1559 1560 2 1.0280000000000002e+00 3.1886473139652018e+00 1.0000000000000000e+00 1.4902844129052795e+01 3.7739626300314974e+01 3.0568788344331832e+01 
1055 1056 2 1.0280000000000002e+00 1.8919435268799219e+02 1.0000000000000000e+00 1.5912579701824297e+01 3.7105706104049702e+01 2.9555349466012537e+01 
1773 1774 2 1.0279999975233827e+00 -7.3260576050053974e+00 1.0000000000000000e+00 3.0126706855889516e+01 3.8149221974002550e+01 2.9410825066306153e+01 
1815 1816 2 1.0280000015787099e+00 6.7689972709523190e+01 1.0000000000000000e+00 3.1276983450391686e+01 3.7040298074366781e+01 3.0155370690412461e+01 
1269 1270 2 1.0279999991285602e+00 -5.6989082628503731e+01 1.0000000000000000e+00 3.1095923494315844e+01 3.9795121767593542e+01 2.9325520799643037e+01 
2235 2236 2 1.0279999993517266e+00 -4.1269932955133137e-01 1.0000000000000000e+00 3.2653306294083279e+01 3.8768447833165993e+01 3.0178212298849925e+01 
2182 2183 2 1.0280000000000007e+00 -2.4141761847285579e+02 1.0000000000000000e+00 1.9229776841417845e+01 2.1468914578098513e+01 3.2121004865118628e+01 
840 841 2 1.0280000000000007e+00 -7.3244691662716690e+01 1.0000000000000000e+00 2.0650661767945021e+01 2.0815352105664001e+01 3.2170210783821695e+01 
3244 3245 2 1.0280000017441215e+00 5.0272969658833723e+01 1.0000000000000000e+00 3.2645600903048326e+01 2.9998351459972326e+01 3.1531708659910116e+01 
4296 4297 2 1.0280000007802710e+00 -1.8075638309734887e+00 1.0000000000000000e+00 3.1604609428042487e+01 3.1648227126865613e+01 3.1694435423574770e+01 
138 139 2 1.0280000003043066e+00 -1.5398813857899234e+00 1.0000000000000000e+00 3.2129179258340116e+01 3.3217640409398832e+01 3.1627450600763765e+01 
421 422 2 1.0280000001081708e+00 -7.2148453547486582e+01 1.0000000000000000e+00 2.9576110937039644e+01 3.3924267237719135e+01 3.1836349415374979e+01 
2944 2945 2 1.0280000001142506e+00 9.3140281504890737e+01 1.0000000000000000e+00 3.0472260357795804e+01 3.5557313572895346e+01 3.1376600682680511e+01 
469 470 2 1.0279999987055966e+00 -6.7212831222844798e+01 1.0000000000000000e+00 3.2244761461597953e+01 3.5885337256083453e+01 3.2015836322966948e+01 
3364 3365 2 1.0279999992878595e+00 -1.5727218104852750e+02 1.0000000000000000e+00 3.0081442231944397e+01 3.7153622614539010e+01 3.1500098218846826e+01 
2236 2237 2 1.0280000025775000e+00 1.4144054787308971e+02 1.0000000000000000e+00 3.3084611981994506e+01 3.8176886036825152e+01 3.1944203981038431e+01 
1017 1018 2 1.0280000022634468e+00 -5.8594591365937937e+01 1.0000000000000000e+00 3.0269772380568757e+01 3.9211758780398569e+01 3.0816332767658292e+01 
1731 1732 2 1.0280000003110121e+00 -6.7259392543281152e+01 1.0000000000000000e+00 3.1399792691127931e+01 3.8543169799037294e+01 3.1963319192346326e+01 
2523 2524 2 1.0280000000000000e+00 -1.0359811797308242e+02 1.0000000000000000e+00 8.4207374509591322e+00 2.1848966841862456e+01 3.3776525381479900e+01 
2985 2986 2 1.0280000000000000e+00 -7.1763667433177204e+01 1.0000000000000000e+00 9.1399945696588922e+00 2.3238182795684317e+01 3.3741492067494399e+01 
802 803 2 1.0279995369738435e+00 -9.4412148077425670e+01 1.0000000000000000e+00 3.2359909145967976e+01 2.3727699443111902e+01 3.2580344189516651e+01 
755 756 2 1.0279999999316209e+00 1.1334653400103065e+00 1.0000000000000000e+00 2.4862595265887453e+01 3.1314678400462281e+01 3.2850974482906551e+01 
1555 1556 2 1.0280000004593015e+00 -1.1844981561193521e+02 1.0000000000000000e+00 2.5475155521741584e+01 3.3360671497642990e+01 3.2870430011783725e+01 
380 381 2 1.0279999996798392e+00 -4.1116641315588680e+01 1.0000000000000000e+00 3.0529180528013487e+01 3.4494114227165248e+01 3.2972739862405987e+01 
3741 3742 2 1.0279999999999996e+00 3.3389933249296476e+01 1.0000000000000000e+00 1.3113374657897898e+01 3.7967824275659503e+01 3.3579040101987637e+01 
470 471 2 1.0279999998197287e+00 1.1157136691124446e+01 1.0000000000000000e+00 3.1905297783265791e+01 3.7153870481001455e+01 3.3184680880190648e+01 
1479 1480 2 1.0279999975241247e+00 -6.8804708743171631e+01 1.0000000000000000e+00 3.2744721002252241e+01 3.9067193894533709e+01 3.3830420616372912e+01 
2415 2416 2 1.0279999999999991e+00 -4.3962385760180611e+00 1.0000000000000000e+00 1.3858244322916025e+01 2.8292321149279449e+01 3.4116801398192528e+01 
2414 2415 2 1.0279999999999991e+00 -2.5998251166779305e+01 1.0000000000000000e+00 1.4154995068118559e+01 2.9806952036133715e+01 3.4374311347614054e+01 
1217 1218 2 1.0280000001687324e+00 -1.9844334571878722e+01 1.0000000000000000e+00 2.4849209582707804e+01 3.0953287527142461e+01 3.4374380959160106e+01 