LAMMPS data file via write_data, version 30 Jul 2016, timestep = 50400000

180 atoms
2 atom types

0.0000000000000000e+00 2.0000000000000000e+01 xlo xhi
0.0000000000000000e+00 2.0000000000000000e+01 ylo yhi
0.0000000000000000e+00 2.0000000000000000e+01 zlo zhi

Masses

1 3.896
2 4.31

Atoms # meso-molecular

31 1 2 2.2282910562898398e-01 -3.7080500238672897e+02 1.0000000000000000e+00 4.8135926797477415e+00 1.9068534212757992e+01 1.8899778788963975e+00 
1 1 2 2.2282910562898398e-01 -3.8997742456337119e+02 1.0000000000000000e+00 4.8135926797477415e+00 1.9068534212757946e+01 1.8899778788963961e+00 
2 1 2 2.2282910562898398e-01 -4.0427243229183273e+02 1.0000000000000000e+00 4.8135926797477318e+00 1.9068534212757946e+01 1.8899778788963961e+00 
62 1 2 1.0280000000000298e+00 -4.2188435825331823e+02 1.0000000000000000e+00 6.3020581970975718e+00 1.3381685337019801e+01 7.7602055290270009e+00 
27 1 2 1.0280000000000014e+00 -4.2809600836288746e+02 1.0000000000000000e+00 6.3020494497812729e+00 1.3381788881318894e+01 7.7601577017882324e+00 
33 1 2 1.0279999999999987e+00 -5.3313357213400786e+02 1.0000000000000000e+00 6.3020971135781290e+00 1.3381701434635344e+01 7.7600670423508893e+00 
26 1 2 1.0280000000000102e+00 -5.7000228646538403e+02 1.0000000000000000e+00 6.3020787099882991e+00 1.3381680432585998e+01 7.7601423817047239e+00 
68 1 2 1.0280000000000102e+00 -4.3904976711527075e+02 1.0000000000000000e+00 6.3020701765740155e+00 1.3381669709171982e+01 7.7601780575849224e+00 
25 1 2 1.0280000000000322e+00 -5.9042613343207222e+02 1.0000000000000000e+00 6.3021006419856889e+00 1.3381707222266600e+01 7.7600513065412944e+00 
32 1 2 1.0280000000000113e+00 -5.7172755414853134e+02 1.0000000000000000e+00 6.3020750231946625e+00 1.3381681117605455e+01 7.7601538736415012e+00 
71 1 2 6.6848731688695207e-01 -5.0887937049290008e+02 1.0000000000000000e+00 5.7722710715789107e+00 1.6030884958242925e+01 1.3846039762276732e+01 
5 1 2 6.6848731688695207e-01 -5.6711001234737842e+02 1.0000000000000000e+00 5.7722710715789178e+00 1.6030884958242929e+01 1.3846039762276794e+01 
70 1 2 6.6848731688695207e-01 -3.6761960870574865e+02 1.0000000000000000e+00 5.7722710715789223e+00 1.6030884958242929e+01 1.3846039762276732e+01 
34 1 2 6.6848731688695207e-01 -4.6625135142524766e+02 1.0000000000000000e+00 5.7722710715789107e+00 1.6030884958242932e+01 1.3846039762276698e+01 
65 1 2 6.6848731688695207e-01 -4.9613688553552066e+02 1.0000000000000000e+00 5.7722710715789223e+00 1.6030884958242932e+01 1.3846039762276698e+01 
29 1 2 6.6848731688695207e-01 -4.4090231546277590e+02 1.0000000000000000e+00 5.7722710715789169e+00 1.6030884958242929e+01 1.3846039762276792e+01 
30 1 2 6.6848731688695207e-01 -4.2073674111560990e+02 1.0000000000000000e+00 5.7722710715789169e+00 1.6030884958242929e+01 1.3846039762276799e+01 
35 1 2 6.6848731688695207e-01 -5.7395388263464338e+02 1.0000000000000000e+00 5.7722710715789169e+00 1.6030884958242932e+01 1.3846039762276792e+01 
36 1 2 6.6848731688695207e-01 -6.6635457877712156e+02 1.0000000000000000e+00 5.7722710715789187e+00 1.6030884958242932e+01 1.3846039762276694e+01 
13 1 2 1.0279999999999989e+00 -5.3934907460305647e+02 1.0000000000000000e+00 7.0154442365188858e+00 5.4659845006771715e+00 1.8476571222613720e+00 
18 1 2 1.0279999999999969e+00 -4.8773041792659876e+02 1.0000000000000000e+00 7.0154442446056136e+00 5.4659844840796215e+00 1.8476571231941532e+00 
7 1 2 1.0279999999999994e+00 -5.4890535725263157e+02 1.0000000000000000e+00 7.0154442414667031e+00 5.4659844900869592e+00 1.8476571229471208e+00 
15 1 2 1.0279999999999874e+00 -3.9433155569250732e+02 1.0000000000000000e+00 6.8453150234795066e+00 6.3487803598924577e+00 2.2700520327663916e+00 
14 1 2 1.0279999999999938e+00 -4.5248448420313093e+02 1.0000000000000000e+00 6.8456843043553235e+00 6.3499812076325632e+00 2.2717764750590512e+00 
49 1 2 1.0279999999999960e+00 -5.1922729580795692e+02 1.0000000000000000e+00 6.8456137427023283e+00 6.3498202753098996e+00 2.2715740336050096e+00 
55 1 2 1.0279999999999847e+00 -4.2776018746201373e+02 1.0000000000000000e+00 6.8456154471451560e+00 6.3498322892478472e+00 2.2715941200266134e+00 
19 1 2 1.0279999999999849e+00 -4.6009807627595006e+02 1.0000000000000000e+00 6.8456205731500637e+00 6.3498463961310465e+00 2.2716133393258566e+00 
50 1 2 1.0279999999999847e+00 -5.4220794817774663e+02 1.0000000000000000e+00 6.8456652471845674e+00 6.3499397317912925e+00 2.2717254999041208e+00 
56 1 2 1.0279999999999820e+00 -4.6958174297900797e+02 1.0000000000000000e+00 6.8456278165466466e+00 6.3498692915374582e+00 2.2716460405278478e+00 
20 1 2 1.0279999999999849e+00 -5.3431099695859211e+02 1.0000000000000000e+00 6.8456221622195290e+00 6.3498496939770286e+00 2.2716172863102662e+00 
37 1 2 1.0280000000000094e+00 -4.2779328307248221e+02 1.0000000000000000e+00 8.2642498989583242e+00 4.8540345441946213e+00 3.6204332231566219e+00 
73 1 2 1.0280000000000091e+00 -4.8411694138200767e+02 1.0000000000000000e+00 8.2642498989583721e+00 4.8540345441946791e+00 3.6204332231566254e+00 
74 1 2 1.0280000000000094e+00 -5.5635046873167710e+02 1.0000000000000000e+00 8.2642498989583384e+00 4.8540345441947101e+00 3.6204332231566823e+00 
79 1 2 1.0280000000000091e+00 -5.5775335461602299e+02 1.0000000000000000e+00 8.2642498989582887e+00 4.8540345441947990e+00 3.6204332231568022e+00 
80 1 2 1.0280000000000094e+00 -5.6250266514939415e+02 1.0000000000000000e+00 8.2642498989581572e+00 4.8540345441948149e+00 3.6204332231569372e+00 
43 1 2 1.0280000000000094e+00 -5.7727551320869838e+02 1.0000000000000000e+00 8.2642498989579760e+00 4.8540345441948585e+00 3.6204332231571406e+00 
44 1 2 1.0280000000000094e+00 -5.8536046176456216e+02 1.0000000000000000e+00 8.2642498989578765e+00 4.8540345441951054e+00 3.6204332231574377e+00 
38 1 2 1.0280000000000094e+00 -4.5534710784124428e+02 1.0000000000000000e+00 8.2642498989573099e+00 4.8540345441954074e+00 3.6204332231582126e+00 
8 1 2 1.0280000000000094e+00 -5.2930959232282362e+02 1.0000000000000000e+00 8.2642498989564714e+00 4.8540345441962280e+00 3.6204332231596692e+00 
51 1 2 1.0280000000000094e+00 -3.4345175821295715e+02 1.0000000000000000e+00 8.2642498989538176e+00 4.8540345442025554e+00 3.6204332231673768e+00 
45 1 2 5.1993457980096269e-01 -3.9147894871133894e+02 1.0000000000000000e+00 7.2730697318308408e+00 2.3943941341508390e+00 7.8898708870032133e+00 
4 1 2 5.1993457980096269e-01 -5.3650855264881602e+02 1.0000000000000000e+00 7.2730697318308088e+00 2.3943941341508377e+00 7.8898708870032372e+00 
76 1 2 5.1993457980096269e-01 -3.5721913896740080e+02 1.0000000000000000e+00 7.2730697318308088e+00 2.3943941341508377e+00 7.8898708870032372e+00 
3 1 2 5.1993457980096269e-01 -6.4378605799954676e+02 1.0000000000000000e+00 7.2730697318308408e+00 2.3943941341508506e+00 7.8898708870032346e+00 
40 1 2 5.1993457980096269e-01 -4.7053955771791317e+02 1.0000000000000000e+00 7.2730697318308088e+00 2.3943941341508377e+00 7.8898708870032133e+00 
9 1 2 5.1993457980096269e-01 -4.4897309485578785e+02 1.0000000000000000e+00 7.2730697318308408e+00 2.3943941341508390e+00 7.8898708870032133e+00 
39 1 2 5.1993457980096269e-01 -5.1443476183902260e+02 1.0000000000000000e+00 7.2730697318308408e+00 2.3943941341508381e+00 7.8898708870032133e+00 
46 1 2 8.9131642251593612e-01 -4.9641984270949519e+02 1.0000000000000000e+00 8.2485081254698560e+00 6.5756081520698020e+00 1.1356681137201939e+01 
47 1 2 8.9131642251593612e-01 -4.4544034986494347e+02 1.0000000000000000e+00 8.2485081254698365e+00 6.5756081520697531e+00 1.1356681137201983e+01 
53 1 2 8.9131642251593612e-01 -4.3996853746602437e+02 1.0000000000000000e+00 8.2485081254699146e+00 6.5756081520697762e+00 1.1356681137201875e+01 
11 1 2 8.9131642251593612e-01 -4.7668562103313673e+02 1.0000000000000000e+00 8.2485081254699146e+00 6.5756081520697487e+00 1.1356681137201990e+01 
10 1 2 8.9131642251593612e-01 -4.4971743526409853e+02 1.0000000000000000e+00 8.2485081254699608e+00 6.5756081520698020e+00 1.1356681137201861e+01 
16 1 2 8.9131642251593612e-01 -5.2971067430620496e+02 1.0000000000000000e+00 8.2485081254699395e+00 6.5756081520697442e+00 1.1356681137201996e+01 
88 1 2 8.9131642251593612e-01 -4.8944426571443807e+02 1.0000000000000000e+00 8.2485081254699608e+00 6.5756081520697567e+00 1.1356681137201866e+01 
82 1 2 8.9131642251593612e-01 -6.2750201175899201e+02 1.0000000000000000e+00 8.2485081254698152e+00 6.5756081520698144e+00 1.1356681137201868e+01 
81 1 2 8.9131642251593612e-01 -5.4437506657716540e+02 1.0000000000000000e+00 8.2485081254699324e+00 6.5756081520697975e+00 1.1356681137201875e+01 
87 1 2 8.9131642251593612e-01 -5.8623898753007336e+02 1.0000000000000000e+00 8.2485081254699217e+00 6.5756081520698144e+00 1.1356681137201939e+01 
52 1 2 8.9131642251593612e-01 -4.2435341877080191e+02 1.0000000000000000e+00 8.2485081254699217e+00 6.5756081520697505e+00 1.1356681137201939e+01 
17 1 2 8.9131642251593612e-01 -5.5977477708420463e+02 1.0000000000000000e+00 8.2485081254698382e+00 6.5756081520697824e+00 1.1356681137201939e+01 
41 1 2 5.1993457980096269e-01 -3.6383432732193540e+02 1.0000000000000000e+00 8.4239266419977330e+00 1.0050308543951374e+00 1.6195824155316554e+01 
48 1 2 5.1993457980096269e-01 -3.2401686176565181e+02 1.0000000000000000e+00 8.4239266419977259e+00 1.0050308543951394e+00 1.6195824155316689e+01 
42 1 2 5.1993457980096269e-01 -3.4223547867631817e+02 1.0000000000000000e+00 8.4239266419976939e+00 1.0050308543951374e+00 1.6195824155316554e+01 
77 1 2 5.1993457980096269e-01 -3.0252974624988980e+02 1.0000000000000000e+00 8.4239266419977348e+00 1.0050308543951365e+00 1.6195824155316554e+01 
78 1 2 5.1993457980096269e-01 -3.3896900272249604e+02 1.0000000000000000e+00 8.4239266419977330e+00 1.0050308543951312e+00 1.6195824155316689e+01 
6 1 2 5.1993457980096269e-01 -3.1750837130315784e+02 1.0000000000000000e+00 8.4239266419977259e+00 1.0050308543951374e+00 1.6195824155316689e+01 
12 1 2 5.1993457980096269e-01 -2.8076290556701412e+02 1.0000000000000000e+00 8.4239266419977259e+00 1.0050308543951374e+00 1.6195824155316689e+01 
96 1 2 7.4276368542994675e-01 -4.0211824435694280e+02 1.0000000000000000e+00 8.9904706399577687e+00 9.8661136287684990e+00 1.5205218374375452e+01 
90 1 2 7.4276368542994675e-01 -4.2913687157697547e+02 1.0000000000000000e+00 8.9904706399577208e+00 9.8661136287684990e+00 1.5205218374375450e+01 
23 1 2 7.4276368542994675e-01 -4.3931121928892219e+02 1.0000000000000000e+00 8.9904706399577599e+00 9.8661136287684990e+00 1.5205218374375454e+01 
95 1 2 7.4276368542994675e-01 -3.0693677509079527e+02 1.0000000000000000e+00 8.9904706399577687e+00 9.8661136287684990e+00 1.5205218374375477e+01 
89 1 2 7.4276368542994675e-01 -3.7509123862321565e+02 1.0000000000000000e+00 8.9904706399577687e+00 9.8661136287684990e+00 1.5205218374375459e+01 
54 1 2 7.4276368542994675e-01 -4.6393808079945427e+02 1.0000000000000000e+00 8.9904706399577261e+00 9.8661136287684563e+00 1.5205218374375455e+01 
59 1 2 7.4276368542994675e-01 -6.4053107437168092e+02 1.0000000000000000e+00 8.9904706399577261e+00 9.8661136287684563e+00 1.5205218374375452e+01 
60 1 2 7.4276368542994675e-01 -4.2962778684751504e+02 1.0000000000000000e+00 8.9904706399577066e+00 9.8661136287684563e+00 1.5205218374375450e+01 
24 1 2 7.4276368542994675e-01 -6.0337429157966722e+02 1.0000000000000000e+00 8.9904706399577350e+00 9.8661136287684563e+00 1.5205218374375439e+01 
66 1 2 7.4276368542994675e-01 -4.3997833758628940e+02 1.0000000000000000e+00 8.9904706399577208e+00 9.8661136287684563e+00 1.5205218374375455e+01 
147 1 2 1.0280036230015448e+00 -6.5866840674982052e+02 1.0000000000000000e+00 1.2783039278550154e+01 1.5371829916973356e+01 4.9238151991771950e+00 
75 1 2 1.0280036230015448e+00 -4.9792020998120415e+02 1.0000000000000000e+00 1.2783039278550154e+01 1.5371829916973356e+01 4.9238151991771950e+00 
111 1 2 1.0280036230015448e+00 -5.0377955565244537e+02 1.0000000000000000e+00 1.2783039278550154e+01 1.5371829916973356e+01 4.9238151991771950e+00 
112 1 2 1.0280036230015448e+00 -6.4892910044455402e+02 1.0000000000000000e+00 1.2783039278550154e+01 1.5371829916973356e+01 4.9238151991771950e+00 
177 1 2 1.0280036230015448e+00 -5.0800221141409287e+02 1.0000000000000000e+00 1.2783039278550154e+01 1.5371829916973356e+01 4.9238151991771950e+00 
176 1 2 1.0280036230015448e+00 -4.6704187318650702e+02 1.0000000000000000e+00 1.2783039278550154e+01 1.5371829916973356e+01 4.9238151991771950e+00 
178 1 2 1.0280036230015448e+00 -5.2667401644787947e+02 1.0000000000000000e+00 1.2783039278550154e+01 1.5371829916973356e+01 4.9238151991771950e+00 
141 1 2 1.0280036230015448e+00 -5.6735672571801922e+02 1.0000000000000000e+00 1.2783039278550154e+01 1.5371829916973356e+01 4.9238151991771950e+00 
142 1 2 1.0280036230015448e+00 -4.1165235329269734e+02 1.0000000000000000e+00 1.2783039278550154e+01 1.5371829916973356e+01 4.9238151991771950e+00 
58 1 2 1.0279999999999703e+00 -3.1488652620663839e+02 1.0000000000000000e+00 7.2635991568054488e+00 1.3524125219038019e+01 8.0390728983543625e+00 
69 1 2 1.0279999999999867e+00 -3.0064436598764507e+02 1.0000000000000000e+00 6.6818266381601585e+00 1.3964001511685879e+01 7.9868365874263807e+00 
21 1 2 1.0279999999999907e+00 -4.9548567575092147e+02 1.0000000000000000e+00 7.2636030047836275e+00 1.3524127855398639e+01 8.0390581267623809e+00 
57 1 2 1.0280000000000051e+00 -5.2943061029752312e+02 1.0000000000000000e+00 7.2636091733205825e+00 1.3524132545482308e+01 8.0390343207234682e+00 
28 1 2 1.0279999999999871e+00 -4.8256766567757700e+02 1.0000000000000000e+00 7.2636047391036085e+00 1.3524128945250778e+01 8.0390514943790539e+00 
64 1 2 1.0279999999999800e+00 -3.3856186934438142e+02 1.0000000000000000e+00 7.2636089120575118e+00 1.3524131831237224e+01 8.0390354650709401e+00 
63 1 2 1.0279999999999840e+00 -3.7890623424377105e+02 1.0000000000000000e+00 7.2637596751555265e+00 1.3524294260051764e+01 8.0384393597691730e+00 
22 1 2 1.0279999999999911e+00 -3.2750264329920446e+02 1.0000000000000000e+00 7.2635994150006473e+00 1.3524125437004741e+01 8.0390718964312065e+00 
94 1 2 3.7138184271497332e-01 -4.0238165583634998e+02 1.0000000000000000e+00 1.2088901682654381e+01 1.4133149514624435e+01 1.1612958246164014e+01 
100 1 2 3.7138184271497332e-01 -4.5353721667079316e+02 1.0000000000000000e+00 1.2088901682654381e+01 1.4133149514624357e+01 1.1612958246164018e+01 
106 1 2 3.7138184271497332e-01 -5.4575936676987260e+02 1.0000000000000000e+00 1.2088901682654377e+01 1.4133149514624380e+01 1.1612958246164006e+01 
136 1 2 3.7138184271497332e-01 -5.4100972611977897e+02 1.0000000000000000e+00 1.2088901682654338e+01 1.4133149514624435e+01 1.1612958246164029e+01 
101 1 2 3.7138184271497332e-01 -5.5423365294050507e+02 1.0000000000000000e+00 1.2088901682654377e+01 1.4133149514624380e+01 1.1612958246164006e+01 
102 1 2 5.9421094834395738e-01 -3.5452387984544623e+02 1.0000000000000000e+00 1.0055389295623176e+01 1.6589408070919148e+01 1.8400238273727368e+01 
97 1 2 5.9421094834395738e-01 -4.3657773978663158e+02 1.0000000000000000e+00 1.0055389295623176e+01 1.6589408070919148e+01 1.8400238273727368e+01 
61 1 2 5.9421094834395738e-01 -4.8212380381657999e+02 1.0000000000000000e+00 1.0055389295623176e+01 1.6589408070919148e+01 1.8400238273727368e+01 
103 1 2 5.9421094834395738e-01 -4.4608372852311373e+02 1.0000000000000000e+00 1.0055389295623248e+01 1.6589408070919148e+01 1.8400238273727556e+01 
67 1 2 5.9421094834395738e-01 -3.7403467312170244e+02 1.0000000000000000e+00 1.0055389295623248e+01 1.6589408070919148e+01 1.8400238273727343e+01 
72 1 2 5.9421094834395738e-01 -4.2028681933168838e+02 1.0000000000000000e+00 1.0055389295623195e+01 1.6589408070919024e+01 1.8400238273727549e+01 
108 1 2 5.9421094834395738e-01 -3.5782126684199460e+02 1.0000000000000000e+00 1.0055389295623195e+01 1.6589408070919024e+01 1.8400238273727549e+01 
107 1 2 5.9421094834395738e-01 -3.8689575293539701e+02 1.0000000000000000e+00 1.0055389295623176e+01 1.6589408070919024e+01 1.8400238273727549e+01 
109 1 2 7.4276368542994675e-01 -4.7385488803690527e+02 1.0000000000000000e+00 1.5636352679220431e+01 2.3687212543549454e+00 2.1454480577422230e+00 
110 1 2 7.4276368542994675e-01 -4.6079901395051155e+02 1.0000000000000000e+00 1.5636352679220396e+01 2.3687212543549347e+00 2.1454480577422181e+00 
116 1 2 7.4276368542994675e-01 -5.1120249210701695e+02 1.0000000000000000e+00 1.5636352679220344e+01 2.3687212543549330e+00 2.1454480577422319e+00 
146 1 2 7.4276368542994675e-01 -5.7801890158778065e+02 1.0000000000000000e+00 1.5636352679220431e+01 2.3687212543549361e+00 2.1454480577422181e+00 
145 1 2 7.4276368542994675e-01 -5.1795555367426959e+02 1.0000000000000000e+00 1.5636352679220442e+01 2.3687212543549356e+00 2.1454480577422208e+00 
115 1 2 7.4276368542994675e-01 -5.5314974199010896e+02 1.0000000000000000e+00 1.5636352679220421e+01 2.3687212543549454e+00 2.1454480577422208e+00 
139 1 2 7.4276368542994675e-01 -4.4996718976406345e+02 1.0000000000000000e+00 1.5636352679220376e+01 2.3687212543549414e+00 2.1454480577422212e+00 
151 1 2 7.4276368542994675e-01 -4.8194233349371564e+02 1.0000000000000000e+00 1.5636352679220334e+01 2.3687212543549454e+00 2.1454480577422181e+00 
158 1 2 7.4276368542994675e-01 -5.6968472016907890e+02 1.0000000000000000e+00 1.5636352679220332e+01 2.3687212543549347e+00 2.1454480577422181e+00 
152 1 2 7.4276368542994675e-01 -5.8436783587961077e+02 1.0000000000000000e+00 1.5636352679220332e+01 2.3687212543549347e+00 2.1454480577422181e+00 
117 1 2 8.1704005397294144e-01 -4.5249248251997471e+02 1.0000000000000000e+00 1.6475693034486763e+01 5.9922030788531817e+00 9.3094475413102113e+00 
118 1 2 8.1704005397294144e-01 -4.6979959441530190e+02 1.0000000000000000e+00 1.6475693034486870e+01 5.9922030788531657e+00 9.3094475413102042e+00 
159 1 2 8.1704005397294144e-01 -5.3796768825103982e+02 1.0000000000000000e+00 1.6475693034486728e+01 5.9922030788531897e+00 9.3094475413102113e+00 
123 1 2 8.1704005397294144e-01 -3.7021660155871592e+02 1.0000000000000000e+00 1.6475693034486746e+01 5.9922030788531924e+00 9.3094475413102202e+00 
124 1 2 8.1704005397294144e-01 -4.6313649157216867e+02 1.0000000000000000e+00 1.6475693034486859e+01 5.9922030788531817e+00 9.3094475413101563e+00 
160 1 2 8.1704005397294144e-01 -5.0149360564107997e+02 1.0000000000000000e+00 1.6475693034486710e+01 5.9922030788531782e+00 9.3094475413102202e+00 
166 1 2 8.1704005397294144e-01 -4.6003144397498716e+02 1.0000000000000000e+00 1.6475693034486827e+01 5.9922030788531488e+00 9.3094475413102202e+00 
130 1 2 8.1704005397294144e-01 -4.0170610565880713e+02 1.0000000000000000e+00 1.6475693034486834e+01 5.9922030788531613e+00 9.3094475413102113e+00 
153 1 2 8.1704005397294144e-01 -4.7491106247346221e+02 1.0000000000000000e+00 1.6475693034486714e+01 5.9922030788531515e+00 9.3094475413101794e+00 
148 1 2 8.1704005397294144e-01 -3.8780671166174784e+02 1.0000000000000000e+00 1.6475693034486788e+01 5.9922030788531515e+00 9.3094475413102202e+00 
154 1 2 8.1704005397294144e-01 -4.2704331846738182e+02 1.0000000000000000e+00 1.6475693034486870e+01 5.9922030788531515e+00 9.3094475413101794e+00 
150 1 2 1.0280000000000098e+00 -5.4681546278558426e+02 1.0000000000000000e+00 1.6291953258627348e+01 5.0279980576247905e+00 1.6260495445140990e+01 
149 1 2 1.0279999999999818e+00 -4.5159185292945773e+02 1.0000000000000000e+00 1.6291939097226830e+01 5.0279806401518758e+00 1.6260486128215259e+01 
113 1 2 1.0279999999999834e+00 -4.0090484796533559e+02 1.0000000000000000e+00 1.6291914203705225e+01 5.0279571956644071e+00 1.6260482830167540e+01 
114 1 2 1.0279999999999794e+00 -3.7620743800676718e+02 1.0000000000000000e+00 1.6291881892079221e+01 5.0279278086448151e+00 1.6260480447532764e+01 
119 1 2 1.0280000000000105e+00 -4.0489018872565612e+02 1.0000000000000000e+00 1.6291752882988106e+01 5.0277894696722871e+00 1.6260432535914841e+01 
120 1 2 1.0279999999999887e+00 -4.5812989535707050e+02 1.0000000000000000e+00 1.6291457633199862e+01 5.0274911842904260e+00 1.6260355862441433e+01 
125 1 2 1.0279999999999825e+00 -4.8633768122965984e+02 1.0000000000000000e+00 1.5086860631563610e+01 5.1687755231855528e+00 1.5516313375369197e+01 
155 1 2 1.0279999999999905e+00 -5.1828975722484427e+02 1.0000000000000000e+00 1.6291651481079686e+01 5.0274495164526662e+00 1.6259972281673605e+01 
83 1 2 1.0279999999999792e+00 -4.3209471982405034e+02 1.0000000000000000e+00 1.6290400877667349e+01 5.0264970574685295e+00 1.6260211005899134e+01 
84 1 2 1.0280000000000071e+00 -5.1212696322249212e+02 1.0000000000000000e+00 1.6289823346089182e+01 5.0260786465065648e+00 1.6260357633804805e+01 
132 1 2 1.0280000000000054e+00 -5.4844802025381512e+02 1.0000000000000000e+00 1.5101286984914180e+01 6.5904202814753807e+00 1.5506141051703958e+01 
131 1 2 1.0280000000000180e+00 -6.0355834955924229e+02 1.0000000000000000e+00 1.5101504317075698e+01 6.5904866561157824e+00 1.5505956073456739e+01 
167 1 2 1.0280000000000136e+00 -4.5834082162007451e+02 1.0000000000000000e+00 1.5101949381858162e+01 6.5907847083586715e+00 1.5505958992089582e+01 
126 1 2 1.0280000000000011e+00 -5.2480426720822470e+02 1.0000000000000000e+00 1.5101523709124198e+01 6.5907949975710816e+00 1.5506651081601911e+01 
161 1 2 1.0280000000000227e+00 -4.7034833164636547e+02 1.0000000000000000e+00 1.5101989051243438e+01 6.5908210235015083e+00 1.5505982220101185e+01 
168 1 2 1.0280000000000060e+00 -6.1818311982704995e+02 1.0000000000000000e+00 1.5102004745485065e+01 6.5910614785801567e+00 1.5506523508318576e+01 
162 1 2 1.0280000000000100e+00 -4.2250005810788116e+02 1.0000000000000000e+00 1.5102941555973553e+01 6.5926348541654312e+00 1.5508777098407018e+01 
156 1 2 1.0280000000000094e+00 -5.0144482225465265e+02 1.0000000000000000e+00 1.5103283236131251e+01 6.5931534512298029e+00 1.5509475044238158e+01 
157 1 2 1.0279999999999967e+00 -4.3884007611352149e+02 1.0000000000000000e+00 1.5103356013957642e+01 6.5933546667810488e+00 1.5509841484707509e+01 
165 1 2 1.0279973988684745e+00 -5.1565092537768874e+02 1.0000000000000000e+00 1.4859626053968286e+01 1.5203387111327810e+01 4.8881778402538858e+00 
171 1 2 1.0279973981685739e+00 -5.5649697742259832e+02 1.0000000000000000e+00 1.4859706701069465e+01 1.5203635647281104e+01 4.8881854762269077e+00 
85 1 2 1.0279973984113964e+00 -3.7297147903252949e+02 1.0000000000000000e+00 1.4859711504536847e+01 1.5203595899145332e+01 4.8882194617505981e+00 
91 1 2 1.0279973984113964e+00 -3.9265261489354413e+02 1.0000000000000000e+00 1.4859711504536847e+01 1.5203595899145332e+01 4.8882194617505981e+00 
121 1 2 1.0279973984113964e+00 -4.9851846527751786e+02 1.0000000000000000e+00 1.4859711504536847e+01 1.5203595899145332e+01 4.8882194617505981e+00 
86 1 2 1.0279973984113964e+00 -4.6273599192003371e+02 1.0000000000000000e+00 1.4859711504536847e+01 1.5203595899145332e+01 4.8882194617505981e+00 
122 1 2 1.0279973984113964e+00 -4.1583627293444505e+02 1.0000000000000000e+00 1.4859711504536847e+01 1.5203595899145332e+01 4.8882194617505981e+00 
129 1 2 1.0279963255483560e+00 -5.0546621868685128e+02 1.0000000000000000e+00 1.3682059567294260e+01 1.4814538682531948e+01 4.1940295734777138e+00 
135 1 2 1.0279965829935844e+00 -5.0478418234986367e+02 1.0000000000000000e+00 1.3443436405230305e+01 1.4835928842131562e+01 4.2051817667562492e+00 
163 1 2 1.0279918989771044e+00 -5.8696666261002986e+02 1.0000000000000000e+00 1.7300889444964888e+01 1.6338290767712259e+01 6.5545608738176950e+00 
133 1 2 1.0279918989771066e+00 -4.4399178266266949e+02 1.0000000000000000e+00 1.7300889444964856e+01 1.6338290767712234e+01 6.5545608738177270e+00 
134 1 2 1.0280078493178959e+00 -4.3986367931022738e+02 1.0000000000000000e+00 1.8216305584322363e+01 1.5055299253005375e+01 6.4783334110232698e+00 
99 1 2 1.0280078670940844e+00 -3.2868151874653142e+02 1.0000000000000000e+00 1.8214593611249501e+01 1.5053381237759144e+01 6.4770902882808787e+00 
105 1 2 1.0280078668079637e+00 -3.6402304790380384e+02 1.0000000000000000e+00 1.8214619147231843e+01 1.5053410017778045e+01 6.4771128322469096e+00 
98 1 2 1.0280078618375892e+00 -4.9976258634450102e+02 1.0000000000000000e+00 1.8215088584587587e+01 1.5053936038870985e+01 6.4774751371716262e+00 
140 1 2 1.0280078624670868e+00 -3.8857793456371206e+02 1.0000000000000000e+00 1.8215025698646944e+01 1.5053865965503729e+01 6.4774330844345709e+00 
104 1 2 1.0280078606067760e+00 -4.1294967615314084e+02 1.0000000000000000e+00 1.8215200207260551e+01 1.5054061842510290e+01 6.4775690893732651e+00 
93 1 2 1.0280077288597378e+00 -4.6578291919869230e+02 1.0000000000000000e+00 1.8228124195613223e+01 1.5068816896180765e+01 6.4852378805729280e+00 
128 1 2 1.0280073968370200e+00 -5.0853733626475673e+02 1.0000000000000000e+00 1.8293335287302124e+01 1.5160348521696100e+01 6.3764857004416964e+00 
170 1 2 1.0279918989771115e+00 -5.5644265247922647e+02 1.0000000000000000e+00 1.7300889444964898e+01 1.6338290767712223e+01 6.5545608738177235e+00 
164 1 2 1.0279918989771035e+00 -5.9768046253963178e+02 1.0000000000000000e+00 1.7300889444964849e+01 1.6338290767712252e+01 6.5545608738177030e+00 
127 1 2 1.0279918989771035e+00 -4.3930700004814059e+02 1.0000000000000000e+00 1.7300889444964877e+01 1.6338290767712234e+01 6.5545608738177847e+00 
175 1 2 1.0279918989771035e+00 -5.5352195952061868e+02 1.0000000000000000e+00 1.7300889444964877e+01 1.6338290767712234e+01 6.5545608738177847e+00 
169 1 2 1.0279918989771035e+00 -5.4939094800652072e+02 1.0000000000000000e+00 1.7300889444964877e+01 1.6338290767712234e+01 6.5545608738177847e+00 
92 1 2 1.0280050904275446e+00 -4.4685298032047649e+02 1.0000000000000000e+00 1.7827966029455908e+01 1.4892923196164643e+01 6.7107228726474037e+00 
172 1 2 6.6848731688695207e-01 -4.0095405985114672e+02 1.0000000000000000e+00 1.6290224899688095e+01 1.5548523137988523e+01 1.5038958475981699e+01 
173 1 2 6.6848731688695207e-01 -3.5795724546172244e+02 1.0000000000000000e+00 1.6290224899688074e+01 1.5548523137988566e+01 1.5038958475981696e+01 
137 1 2 6.6848731688695207e-01 -3.9723107001841089e+02 1.0000000000000000e+00 1.6290224899688219e+01 1.5548523137988566e+01 1.5038958475981698e+01 
138 1 2 6.6848731688695207e-01 -4.3018837143261578e+02 1.0000000000000000e+00 1.6290224899688219e+01 1.5548523137988566e+01 1.5038958475981698e+01 
143 1 2 6.6848731688695207e-01 -4.9967431847001347e+02 1.0000000000000000e+00 1.6290224899688074e+01 1.5548523137988509e+01 1.5038958475981696e+01 
180 1 2 6.6848731688695207e-01 -3.7059098307165982e+02 1.0000000000000000e+00 1.6290224899688038e+01 1.5548523137988544e+01 1.5038958475981698e+01 
179 1 2 6.6848731688695207e-01 -4.4554710058448342e+02 1.0000000000000000e+00 1.6290224899688219e+01 1.5548523137988509e+01 1.5038958475981698e+01 
174 1 2 6.6848731688695207e-01 -4.6029465953882817e+02 1.0000000000000000e+00 1.6290224899688038e+01 1.5548523137988566e+01 1.5038958475981698e+01 
144 1 2 6.6848731688695207e-01 -4.9883100395114292e+02 1.0000000000000000e+00 1.6290224899688038e+01 1.5548523137988566e+01 1.5038958475981698e+01 

Velocities

31 -4.8859912776739863e-13 -4.6194825945945350e-12 -1.3325430561303367e-13
1 -4.8859912776739833e-13 2.3097412973156621e-12 6.6627152807458406e-14
2 9.7719823398285036e-13 2.3097412973156621e-12 6.6627152807458393e-14
62 -3.4563661088427073e-12 -8.4339261893878802e-13 -1.0743926426669509e-12
27 2.5091802969706168e-12 5.4236499231843236e-13 7.6537687439336645e-13
33 3.0858070538111463e-12 6.7609126195690496e-13 9.4324335914088138e-13
26 6.2819082645555176e-13 1.0521790613979363e-13 1.8485755376420648e-13
68 6.4230842423866609e-13 1.0843676754364002e-13 1.8948012880199469e-13
25 -3.9770387315474329e-12 -9.6408924955022959e-13 -1.2382008994737611e-12
32 3.9500706964226149e-13 5.1064341685521092e-14 1.1299308895180041e-13
71 9.4174603795586480e-13 7.0630952856564137e-13 2.4132242259834573e-12
5 -1.1771825490157358e-13 1.7657738213693974e-13 -6.8570883365188621e-12
70 -7.7988343793747956e-13 1.7657738213693961e-13 2.4132242259834573e-12
34 9.4174603795586501e-13 -3.5315476429176493e-13 7.4456796170562134e-12
65 -7.7988343793747986e-13 -3.5315476429176483e-13 7.4456796170562134e-12
29 1.4714781705607190e-14 1.7657738213693971e-13 -6.5922222633045984e-12
30 1.4714781705607175e-14 1.7657738213693979e-13 -7.6516865561622663e-12
35 1.4714781705607162e-14 -3.5315476429176458e-13 -6.5922222633045976e-12
36 -2.5015129150875796e-13 -3.5315476429176488e-13 7.9754117634846794e-12
13 -2.3630629817638610e-12 4.1321852714072962e-12 -8.8419272896974210e-13
18 -2.0762891976697746e-12 4.3984529571639538e-12 -1.3921630880101789e-13
7 -2.4305391995645336e-12 4.0695340940183107e-12 -1.0594813247976398e-12
15 1.1268723199019320e-12 -2.6449055365297367e-12 -1.3753786661846895e-13
14 -3.7239738444242738e-14 -1.0371266147284566e-12 -9.2918437716750763e-13
49 -4.2362064278697157e-13 -4.9604602232131414e-13 -1.1859244966223078e-12
55 1.5923859610745125e-12 -3.3098994690440499e-12 1.5909960437513095e-13
19 1.5516040167301409e-12 -3.2532277248726899e-12 1.3170507035973387e-13
50 1.5918292725578541e-12 -3.3112188667055145e-12 1.5758236594097098e-13
56 2.0809708706246349e-12 -3.9925410570942399e-12 4.8452096113596906e-13
20 1.5515864498260316e-12 -3.2532679360294877e-12 1.3166003663087977e-13
37 -2.0848657122861133e-13 8.6266459367438679e-13 3.3571064582648361e-13
73 -2.4830227299000166e-13 8.9837208747319451e-13 2.9264194460579035e-13
74 -2.0848657122850463e-13 8.6266459367509553e-13 3.3571064582695561e-13
79 -2.4830227299067420e-13 8.9837208747413771e-13 2.9264194460716305e-13
80 -2.0848657122997948e-13 8.6266459367592968e-13 3.3571064582897474e-13
43 -2.0848657123144891e-13 8.6266459367627229e-13 3.3571064583058927e-13
44 -2.0848657123227200e-13 8.6266459367824946e-13 3.3571064583292647e-13
38 -2.0848657123687062e-13 8.6266459368064255e-13 3.3571064583906499e-13
8 -2.0848657124370657e-13 8.6266459368718608e-13 3.3571064585055969e-13
51 -2.0848657126563650e-13 8.6266459373778546e-13 3.3571064591122115e-13
45 -2.0990931893191502e-12 1.4577036130888723e-13 1.5160117560545936e-12
4 2.7987909403258939e-12 3.4984886671076454e-13 -2.1574013411791811e-12
76 2.7987909403258939e-12 3.4984886671076454e-13 -2.1574013411791811e-12