LAMMPS data file via write_data, version 30 Jul 2016, timestep = 50000000

4620 atoms
8 atom types

0.0000000000000000e+00 1.0000000000000000e+02 xlo xhi
0.0000000000000000e+00 4.0000000000000000e+01 ylo yhi
0.0000000000000000e+00 4.0000000000000000e+01 zlo zhi

Masses

1 3.896
2 5.36
3 20.064
4 8.378
5 8.378
6 8.378
7 8.378
8 8.378

Atoms # meso-molecular

87 88 2 1.4218704307376302e+00 -8.8834093392604022e-02 1.0000000000000000e+00 2.1295609612179232e+00 1.0000000000000000e+01 1.2714487427999197e+00 
245 246 2 1.4218704307376302e+00 -8.8960397242811629e-02 1.0000000000000000e+00 1.9485585023802074e+01 1.0000000000000000e+01 7.3050946733393562e-01 
177 178 2 1.4218704307376302e+00 -8.8543398803966028e-02 1.0000000000000000e+00 2.1943050037982637e+01 1.0000000000000000e+01 8.4689387322318932e-01 
104 105 2 1.4218704307376302e+00 -8.8930784964464396e-02 1.0000000000000000e+00 2.7354566528035015e+01 1.0000000000000000e+01 1.1521773818861383e+00 
345 346 2 1.4218704307376302e+00 -8.8985583427947879e-02 1.0000000000000000e+00 2.9166571046968620e+01 1.0000000000000000e+01 8.9765407171477844e-04 
549 550 2 1.4218704307376302e+00 -8.8834093392604022e-02 1.0000000000000000e+00 2.1295609612179232e+00 1.2199999999999999e+01 1.2714487427999197e+00 
707 708 2 1.4218704307376302e+00 -8.8960397242811629e-02 1.0000000000000000e+00 1.9485585023802074e+01 1.2199999999999999e+01 7.3050946733393562e-01 
639 640 2 1.4218704307376302e+00 -8.8543398803966028e-02 1.0000000000000000e+00 2.1943050037982637e+01 1.2199999999999999e+01 8.4689387322318932e-01 
566 567 2 1.4218704307376302e+00 -8.8930784964464396e-02 1.0000000000000000e+00 2.7354566528035015e+01 1.2199999999999999e+01 1.1521773818861383e+00 
807 808 2 1.4218704307376302e+00 -8.8985583427947879e-02 1.0000000000000000e+00 2.9166571046968620e+01 1.2199999999999999e+01 8.9765407171477844e-04 
1011 1012 2 1.4218704307376302e+00 -8.8834093392604022e-02 1.0000000000000000e+00 2.1295609612179232e+00 1.4400000000000000e+01 1.2714487427999197e+00 
1169 1170 2 1.4218704307376302e+00 -8.8960397242811629e-02 1.0000000000000000e+00 1.9485585023802074e+01 1.4400000000000000e+01 7.3050946733393562e-01 
1101 1102 2 1.4218704307376302e+00 -8.8543398803966028e-02 1.0000000000000000e+00 2.1943050037982637e+01 1.4400000000000000e+01 8.4689387322318932e-01 
1028 1029 2 1.4218704307376302e+00 -8.8930784964464396e-02 1.0000000000000000e+00 2.7354566528035015e+01 1.4400000000000000e+01 1.1521773818861383e+00 
1269 1270 2 1.4218704307376302e+00 -8.8985583427947879e-02 1.0000000000000000e+00 2.9166571046968620e+01 1.4400000000000000e+01 8.9765407171477844e-04 
1473 1474 2 1.4218704307376302e+00 -8.8834093392604022e-02 1.0000000000000000e+00 2.1295609612179232e+00 1.6600000000000001e+01 1.2714487427999197e+00 
1631 1632 2 1.4218704307376302e+00 -8.8960397242811629e-02 1.0000000000000000e+00 1.9485585023802074e+01 1.6600000000000001e+01 7.3050946733393562e-01 
1563 1564 2 1.4218704307376302e+00 -8.8543398803966028e-02 1.0000000000000000e+00 2.1943050037982637e+01 1.6600000000000001e+01 8.4689387322318932e-01 
1490 1491 2 1.4218704307376302e+00 -8.8930784964464396e-02 1.0000000000000000e+00 2.7354566528035015e+01 1.6600000000000001e+01 1.1521773818861383e+00 
1731 1732 2 1.4218704307376302e+00 -8.8985583427947879e-02 1.0000000000000000e+00 2.9166571046968620e+01 1.6600000000000001e+01 8.9765407171477844e-04 
1935 1936 2 1.4218704307376302e+00 -8.8834093392604022e-02 1.0000000000000000e+00 2.1295609612179232e+00 1.8800000000000001e+01 1.2714487427999197e+00 
2093 2094 2 1.4218704307376302e+00 -8.8960397242811629e-02 1.0000000000000000e+00 1.9485585023802074e+01 1.8800000000000001e+01 7.3050946733393562e-01 
2025 2026 2 1.4218704307376302e+00 -8.8543398803966028e-02 1.0000000000000000e+00 2.1943050037982637e+01 1.8800000000000001e+01 8.4689387322318932e-01 
1952 1953 2 1.4218704307376302e+00 -8.8930784964464396e-02 1.0000000000000000e+00 2.7354566528035015e+01 1.8800000000000001e+01 1.1521773818861383e+00 
2193 2194 2 1.4218704307376302e+00 -8.8985583427947879e-02 1.0000000000000000e+00 2.9166571046968620e+01 1.8800000000000001e+01 8.9765407171477844e-04 
56 57 2 1.4218704307376302e+00 -8.8573686505907398e-02 1.0000000000000000e+00 8.9424504834112017e+00 1.0000000000000000e+01 2.5517031865864626e+00 
172 173 2 1.4218704307376302e+00 -8.9071250878959715e-02 1.0000000000000000e+00 1.1849823471422940e+01 1.0000000000000000e+01 1.8059746025990000e+00 
309 310 2 1.4218704307376302e+00 -8.9159209116552868e-02 1.0000000000000000e+00 1.5191217496871939e+01 1.0000000000000000e+01 1.7749889539698267e+00 
192 193 2 1.4218704307376302e+00 -8.8893310805996634e-02 1.0000000000000000e+00 1.7802324060186734e+01 1.0000000000000000e+01 2.4317473537639409e+00 
259 260 2 1.4218704307376302e+00 -8.8966587483400611e-02 1.0000000000000000e+00 2.5063498819392191e+01 1.0000000000000000e+01 2.2713054023193719e+00 
51 52 2 1.4218704307376302e+00 -8.9004091862801005e-02 1.0000000000000000e+00 3.2504570774378408e+01 1.0000000000000000e+01 1.3849059123420882e+00 
518 519 2 1.4218704307376302e+00 -8.8573686505907398e-02 1.0000000000000000e+00 8.9424504834112017e+00 1.2199999999999999e+01 2.5517031865864626e+00 
634 635 2 1.4218704307376302e+00 -8.9071250878959715e-02 1.0000000000000000e+00 1.1849823471422940e+01 1.2199999999999999e+01 1.8059746025990000e+00 
771 772 2 1.4218704307376302e+00 -8.9159209116552868e-02 1.0000000000000000e+00 1.5191217496871939e+01 1.2199999999999999e+01 1.7749889539698267e+00 
654 655 2 1.4218704307376302e+00 -8.8893310805996634e-02 1.0000000000000000e+00 1.7802324060186734e+01 1.2199999999999999e+01 2.4317473537639409e+00 
721 722 2 1.4218704307376302e+00 -8.8966587483400611e-02 1.0000000000000000e+00 2.5063498819392191e+01 1.2199999999999999e+01 2.2713054023193719e+00 
513 514 2 1.4218704307376302e+00 -8.9004091862801005e-02 1.0000000000000000e+00 3.2504570774378408e+01 1.2199999999999999e+01 1.3849059123420882e+00 
980 981 2 1.4218704307376302e+00 -8.8573686505907398e-02 1.0000000000000000e+00 8.9424504834112017e+00 1.4400000000000000e+01 2.5517031865864626e+00 
1096 1097 2 1.4218704307376302e+00 -8.9071250878959715e-02 1.0000000000000000e+00 1.1849823471422940e+01 1.4400000000000000e+01 1.8059746025990000e+00 
1233 1234 2 1.4218704307376302e+00 -8.9159209116552868e-02 1.0000000000000000e+00 1.5191217496871939e+01 1.4400000000000000e+01 1.7749889539698267e+00 
1116 1117 2 1.4218704307376302e+00 -8.8893310805996634e-02 1.0000000000000000e+00 1.7802324060186734e+01 1.4400000000000000e+01 2.4317473537639409e+00 
1183 1184 2 1.4218704307376302e+00 -8.8966587483400611e-02 1.0000000000000000e+00 2.5063498819392191e+01 1.4400000000000000e+01 2.2713054023193719e+00 
975 976 2 1.4218704307376302e+00 -8.9004091862801005e-02 1.0000000000000000e+00 3.2504570774378408e+01 1.4400000000000000e+01 1.3849059123420882e+00 
1442 1443 2 1.4218704307376302e+00 -8.8573686505907398e-02 1.0000000000000000e+00 8.9424504834112017e+00 1.6600000000000001e+01 2.5517031865864626e+00 
1558 1559 2 1.4218704307376302e+00 -8.9071250878959715e-02 1.0000000000000000e+00 1.1849823471422940e+01 1.6600000000000001e+01 1.8059746025990000e+00 
1695 1696 2 1.4218704307376302e+00 -8.9159209116552868e-02 1.0000000000000000e+00 1.5191217496871939e+01 1.6600000000000001e+01 1.7749889539698267e+00 
1578 1579 2 1.4218704307376302e+00 -8.8893310805996634e-02 1.0000000000000000e+00 1.7802324060186734e+01 1.6600000000000001e+01 2.4317473537639409e+00 
1645 1646 2 1.4218704307376302e+00 -8.8966587483400611e-02 1.0000000000000000e+00 2.5063498819392191e+01 1.6600000000000001e+01 2.2713054023193719e+00 
1437 1438 2 1.4218704307376302e+00 -8.9004091862801005e-02 1.0000000000000000e+00 3.2504570774378408e+01 1.6600000000000001e+01 1.3849059123420882e+00 
1904 1905 2 1.4218704307376302e+00 -8.8573686505907398e-02 1.0000000000000000e+00 8.9424504834112017e+00 1.8800000000000001e+01 2.5517031865864626e+00 
2020 2021 2 1.4218704307376302e+00 -8.9071250878959715e-02 1.0000000000000000e+00 1.1849823471422940e+01 1.8800000000000001e+01 1.8059746025990000e+00 
2157 2158 2 1.4218704307376302e+00 -8.9159209116552868e-02 1.0000000000000000e+00 1.5191217496871939e+01 1.8800000000000001e+01 1.7749889539698267e+00 
2040 2041 2 1.4218704307376302e+00 -8.8893310805996634e-02 1.0000000000000000e+00 1.7802324060186734e+01 1.8800000000000001e+01 2.4317473537639409e+00 
2107 2108 2 1.4218704307376302e+00 -8.8966587483400611e-02 1.0000000000000000e+00 2.5063498819392191e+01 1.8800000000000001e+01 2.2713054023193719e+00 
1899 1900 2 1.4218704307376302e+00 -8.9004091862801005e-02 1.0000000000000000e+00 3.2504570774378408e+01 1.8800000000000001e+01 1.3849059123420882e+00 
298 299 2 1.4218704307376302e+00 -8.8593286962512036e-02 1.0000000000000000e+00 5.9772814812639199e+00 1.0000000000000000e+01 2.8987675103660848e+00 
242 243 2 1.4218704307376302e+00 -8.9066692276776910e-02 1.0000000000000000e+00 1.3070698088075027e+01 1.0000000000000000e+01 3.8863800826782411e+00 
38 39 2 1.4218704307376302e+00 -6.6300315508109289e-02 1.0000000000000000e+00 1.5858013039955143e+01 1.0000000000000000e+01 3.9168525732252992e+00 
270 271 2 1.4218704307376302e+00 -8.9223482155716072e-02 1.0000000000000000e+00 2.0500058267869232e+01 1.0000000000000000e+01 2.7452537908762640e+00 
155 156 2 1.4218704307376302e+00 -8.8842604669449862e-02 1.0000000000000000e+00 2.8935553732245410e+01 1.0000000000000000e+01 3.7892950545750681e+00 
303 304 2 1.4218704307376302e+00 -8.9030036449477434e-02 1.0000000000000000e+00 3.1624131416147929e+01 1.0000000000000000e+01 3.3816061189246676e+00 
760 761 2 1.4218704307376302e+00 -8.8593286962512036e-02 1.0000000000000000e+00 5.9772814812639199e+00 1.2199999999999999e+01 2.8987675103660848e+00 
704 705 2 1.4218704307376302e+00 -8.9066692276776910e-02 1.0000000000000000e+00 1.3070698088075027e+01 1.2199999999999999e+01 3.8863800826782411e+00 
500 501 2 1.4218704307376302e+00 -6.6300315508109289e-02 1.0000000000000000e+00 1.5858013039955143e+01 1.2199999999999999e+01 3.9168525732252992e+00 
732 733 2 1.4218704307376302e+00 -8.9223482155716072e-02 1.0000000000000000e+00 2.0500058267869232e+01 1.2199999999999999e+01 2.7452537908762640e+00 
617 618 2 1.4218704307376302e+00 -8.8842604669449862e-02 1.0000000000000000e+00 2.8935553732245410e+01 1.2199999999999999e+01 3.7892950545750681e+00 
765 766 2 1.4218704307376302e+00 -8.9030036449477434e-02 1.0000000000000000e+00 3.1624131416147929e+01 1.2199999999999999e+01 3.3816061189246676e+00 
1222 1223 2 1.4218704307376302e+00 -8.8593286962512036e-02 1.0000000000000000e+00 5.9772814812639199e+00 1.4400000000000000e+01 2.8987675103660848e+00 
1166 1167 2 1.4218704307376302e+00 -8.9066692276776910e-02 1.0000000000000000e+00 1.3070698088075027e+01 1.4400000000000000e+01 3.8863800826782411e+00 
962 963 2 1.4218704307376302e+00 -6.6300315508109289e-02 1.0000000000000000e+00 1.5858013039955143e+01 1.4400000000000000e+01 3.9168525732252992e+00 
1194 1195 2 1.4218704307376302e+00 -8.9223482155716072e-02 1.0000000000000000e+00 2.0500058267869232e+01 1.4400000000000000e+01 2.7452537908762640e+00 
1079 1080 2 1.4218704307376302e+00 -8.8842604669449862e-02 1.0000000000000000e+00 2.8935553732245410e+01 1.4400000000000000e+01 3.7892950545750681e+00 
1227 1228 2 1.4218704307376302e+00 -8.9030036449477434e-02 1.0000000000000000e+00 3.1624131416147929e+01 1.4400000000000000e+01 3.3816061189246676e+00 
1684 1685 2 1.4218704307376302e+00 -8.8593286962512036e-02 1.0000000000000000e+00 5.9772814812639199e+00 1.6600000000000001e+01 2.8987675103660848e+00 
1628 1629 2 1.4218704307376302e+00 -8.9066692276776910e-02 1.0000000000000000e+00 1.3070698088075027e+01 1.6600000000000001e+01 3.8863800826782411e+00 
1424 1425 2 1.4218704307376302e+00 -6.6300315508109289e-02 1.0000000000000000e+00 1.5858013039955143e+01 1.6600000000000001e+01 3.9168525732252992e+00 
1656 1657 2 1.4218704307376302e+00 -8.9223482155716072e-02 1.0000000000000000e+00 2.0500058267869232e+01 1.6600000000000001e+01 2.7452537908762640e+00 
1541 1542 2 1.4218704307376302e+00 -8.8842604669449862e-02 1.0000000000000000e+00 2.8935553732245410e+01 1.6600000000000001e+01 3.7892950545750681e+00 
1689 1690 2 1.4218704307376302e+00 -8.9030036449477434e-02 1.0000000000000000e+00 3.1624131416147929e+01 1.6600000000000001e+01 3.3816061189246676e+00 
2146 2147 2 1.4218704307376302e+00 -8.8593286962512036e-02 1.0000000000000000e+00 5.9772814812639199e+00 1.8800000000000001e+01 2.8987675103660848e+00 
2090 2091 2 1.4218704307376302e+00 -8.9066692276776910e-02 1.0000000000000000e+00 1.3070698088075027e+01 1.8800000000000001e+01 3.8863800826782411e+00 
1886 1887 2 1.4218704307376302e+00 -6.6300315508109289e-02 1.0000000000000000e+00 1.5858013039955143e+01 1.8800000000000001e+01 3.9168525732252992e+00 
2118 2119 2 1.4218704307376302e+00 -8.9223482155716072e-02 1.0000000000000000e+00 2.0500058267869232e+01 1.8800000000000001e+01 2.7452537908762640e+00 
2003 2004 2 1.4218704307376302e+00 -8.8842604669449862e-02 1.0000000000000000e+00 2.8935553732245410e+01 1.8800000000000001e+01 3.7892950545750681e+00 
2151 2152 2 1.4218704307376302e+00 -8.9030036449477434e-02 1.0000000000000000e+00 3.1624131416147929e+01 1.8800000000000001e+01 3.3816061189246676e+00 
292 293 2 1.4218704307376302e+00 -8.9016386457480889e-02 1.0000000000000000e+00 2.2375837128491516e+00 1.0000000000000000e+01 4.5339787081494869e+00 
339 340 2 1.4218704307376302e+00 -8.8982843010019658e-02 1.0000000000000000e+00 4.9978430439851476e+00 1.0000000000000000e+01 5.2045125327330926e+00 
423 424 2 1.4218704350118567e+00 -5.7439395690673994e-02 1.0000000000000000e+00 2.3219472369534422e+01 1.0000000000000000e+01 5.0936546682514923e+00 
754 755 2 1.4218704307376302e+00 -8.9016386457480889e-02 1.0000000000000000e+00 2.2375837128491516e+00 1.2199999999999999e+01 4.5339787081494869e+00 
801 802 2 1.4218704307376302e+00 -8.8982843010019658e-02 1.0000000000000000e+00 4.9978430439851476e+00 1.2199999999999999e+01 5.2045125327330926e+00 
885 886 2 1.4218704350118567e+00 -5.7439395690673994e-02 1.0000000000000000e+00 2.3219472369534422e+01 1.2199999999999999e+01 5.0936546682514923e+00 
1216 1217 2 1.4218704307376302e+00 -8.9016386457480889e-02 1.0000000000000000e+00 2.2375837128491516e+00 1.4400000000000000e+01 4.5339787081494869e+00 
1263 1264 2 1.4218704307376302e+00 -8.8982843010019658e-02 1.0000000000000000e+00 4.9978430439851476e+00 1.4400000000000000e+01 5.2045125327330926e+00 
1347 1348 2 1.4218704350118567e+00 -5.7439395690673994e-02 1.0000000000000000e+00 2.3219472369534422e+01 1.4400000000000000e+01 5.0936546682514923e+00 
1678 1679 2 1.4218704307376302e+00 -8.9016386457480889e-02 1.0000000000000000e+00 2.2375837128491516e+00 1.6600000000000001e+01 4.5339787081494869e+00 
1725 1726 2 1.4218704307376302e+00 -8.8982843010019658e-02 1.0000000000000000e+00 4.9978430439851476e+00 1.6600000000000001e+01 5.2045125327330926e+00 
1809 1810 2 1.4218704350118567e+00 -5.7439395690673994e-02 1.0000000000000000e+00 2.3219472369534422e+01 1.6600000000000001e+01 5.0936546682514923e+00 
2140 2141 2 1.4218704307376302e+00 -8.9016386457480889e-02 1.0000000000000000e+00 2.2375837128491516e+00 1.8800000000000001e+01 4.5339787081494869e+00 
2187 2188 2 1.4218704307376302e+00 -8.8982843010019658e-02 1.0000000000000000e+00 4.9978430439851476e+00 1.8800000000000001e+01 5.2045125327330926e+00 
2271 2272 2 1.4218704350118567e+00 -5.7439395690673994e-02 1.0000000000000000e+00 2.3219472369534422e+01 1.8800000000000001e+01 5.0936546682514923e+00 
60 61 2 1.4218704307376302e+00 -8.8776302257339373e-02 1.0000000000000000e+00 1.2262868554830323e+01 1.0000000000000000e+01 6.6067603996341013e+00 
301 302 2 1.4218704307376302e+00 -8.8809163443998917e-02 1.0000000000000000e+00 1.4637704881968283e+01 1.0000000000000000e+01 5.7703034928820260e+00 
419 420 2 1.4218704307376302e+00 -8.9092460776326168e-02 1.0000000000000000e+00 1.9297424425816587e+01 1.0000000000000000e+01 5.5493216963060323e+00 
159 160 2 1.4218704307376302e+00 -8.8672059702397332e-02 1.0000000000000000e+00 2.1365433540828342e+01 1.0000000000000000e+01 5.8811277647901861e+00 
346 347 2 1.4218704350118567e+00 -8.0175067136529540e-02 1.0000000000000000e+00 2.4846662740976626e+01 1.0000000000000000e+01 6.2611815708132745e+00 
342 343 2 1.4218704307376302e+00 -8.9139485280491634e-02 1.0000000000000000e+00 2.7462594582885480e+01 1.0000000000000000e+01 5.3981693093308145e+00 
210 211 2 1.4218704307376302e+00 -6.6341649378501552e-02 1.0000000000000000e+00 3.0494432721790439e+01 1.0000000000000000e+01 5.3800791404006629e+00 
522 523 2 1.4218704307376302e+00 -8.8776302257339373e-02 1.0000000000000000e+00 1.2262868554830323e+01 1.2199999999999999e+01 6.6067603996341013e+00 
763 764 2 1.4218704307376302e+00 -8.8809163443998917e-02 1.0000000000000000e+00 1.4637704881968283e+01 1.2199999999999999e+01 5.7703034928820260e+00 
881 882 2 1.4218704307376302e+00 -8.9092460776326168e-02 1.0000000000000000e+00 1.9297424425816587e+01 1.2199999999999999e+01 5.5493216963060323e+00 
621 622 2 1.4218704307376302e+00 -8.8672059702397332e-02 1.0000000000000000e+00 2.1365433540828342e+01 1.2199999999999999e+01 5.8811277647901861e+00 
808 809 2 1.4218704350118567e+00 -8.0175067136529540e-02 1.0000000000000000e+00 2.4846662740976626e+01 1.2199999999999999e+01 6.2611815708132745e+00 
804 805 2 1.4218704307376302e+00 -8.9139485280491634e-02 1.0000000000000000e+00 2.7462594582885480e+01 1.2199999999999999e+01 5.3981693093308145e+00 
672 673 2 1.4218704307376302e+00 -6.6341649378501552e-02 1.0000000000000000e+00 3.0494432721790439e+01 1.2199999999999999e+01 5.3800791404006629e+00 
984 985 2 1.4218704307376302e+00 -8.8776302257339373e-02 1.0000000000000000e+00 1.2262868554830323e+01 1.4400000000000000e+01 6.6067603996341013e+00 
1225 1226 2 1.4218704307376302e+00 -8.8809163443998917e-02 1.0000000000000000e+00 1.4637704881968283e+01 1.4400000000000000e+01 5.7703034928820260e+00 
1343 1344 2 1.4218704307376302e+00 -8.9092460776326168e-02 1.0000000000000000e+00 1.9297424425816587e+01 1.4400000000000000e+01 5.5493216963060323e+00 
1083 1084 2 1.4218704307376302e+00 -8.8672059702397332e-02 1.0000000000000000e+00 2.1365433540828342e+01 1.4400000000000000e+01 5.8811277647901861e+00 
1270 1271 2 1.4218704350118567e+00 -8.0175067136529540e-02 1.0000000000000000e+00 2.4846662740976626e+01 1.4400000000000000e+01 6.2611815708132745e+00 
1266 1267 2 1.4218704307376302e+00 -8.9139485280491634e-02 1.0000000000000000e+00 2.7462594582885480e+01 1.4400000000000000e+01 5.3981693093308145e+00 
1134 1135 2 1.4218704307376302e+00 -6.6341649378501552e-02 1.0000000000000000e+00 3.0494432721790439e+01 1.4400000000000000e+01 5.3800791404006629e+00 
1446 1447 2 1.4218704307376302e+00 -8.8776302257339373e-02 1.0000000000000000e+00 1.2262868554830323e+01 1.6600000000000001e+01 6.6067603996341013e+00 
1687 1688 2 1.4218704307376302e+00 -8.8809163443998917e-02 1.0000000000000000e+00 1.4637704881968283e+01 1.6600000000000001e+01 5.7703034928820260e+00 
1805 1806 2 1.4218704307376302e+00 -8.9092460776326168e-02 1.0000000000000000e+00 1.9297424425816587e+01 1.6600000000000001e+01 5.5493216963060323e+00 
1545 1546 2 1.4218704307376302e+00 -8.8672059702397332e-02 1.0000000000000000e+00 2.1365433540828342e+01 1.6600000000000001e+01 5.8811277647901861e+00 
1732 1733 2 1.4218704350118567e+00 -8.0175067136529540e-02 1.0000000000000000e+00 2.4846662740976626e+01 1.6600000000000001e+01 6.2611815708132745e+00 
1728 1729 2 1.4218704307376302e+00 -8.9139485280491634e-02 1.0000000000000000e+00 2.7462594582885480e+01 1.6600000000000001e+01 5.3981693093308145e+00 
1596 1597 2 1.4218704307376302e+00 -6.6341649378501552e-02 1.0000000000000000e+00 3.0494432721790439e+01 1.6600000000000001e+01 5.3800791404006629e+00 
1908 1909 2 1.4218704307376302e+00 -8.8776302257339373e-02 1.0000000000000000e+00 1.2262868554830323e+01 1.8800000000000001e+01 6.6067603996341013e+00 
2149 2150 2 1.4218704307376302e+00 -8.8809163443998917e-02 1.0000000000000000e+00 1.4637704881968283e+01 1.8800000000000001e+01 5.7703034928820260e+00 
2267 2268 2 1.4218704307376302e+00 -8.9092460776326168e-02 1.0000000000000000e+00 1.9297424425816587e+01 1.8800000000000001e+01 5.5493216963060323e+00 
2007 2008 2 1.4218704307376302e+00 -8.8672059702397332e-02 1.0000000000000000e+00 2.1365433540828342e+01 1.8800000000000001e+01 5.8811277647901861e+00 
2194 2195 2 1.4218704350118567e+00 -8.0175067136529540e-02 1.0000000000000000e+00 2.4846662740976626e+01 1.8800000000000001e+01 6.2611815708132745e+00 
2190 2191 2 1.4218704307376302e+00 -8.9139485280491634e-02 1.0000000000000000e+00 2.7462594582885480e+01 1.8800000000000001e+01 5.3981693093308145e+00 
2058 2059 2 1.4218704307376302e+00 -6.6341649378501552e-02 1.0000000000000000e+00 3.0494432721790439e+01 1.8800000000000001e+01 5.3800791404006629e+00 
459 460 2 1.4218704307376302e+00 -6.5961325650568017e-02 1.0000000000000000e+00 1.8107835644607764e+00 1.0000000000000000e+01 7.5321274397704254e+00 
273 274 2 1.4218704307376302e+00 -8.8782906171862783e-02 1.0000000000000000e+00 4.0122554060327760e+00 1.0000000000000000e+01 7.1919046277442735e+00 
198 199 2 1.4218704307376302e+00 -8.9136604687417589e-02 1.0000000000000000e+00 3.2432597662396468e+01 1.0000000000000000e+01 6.8000374798974192e+00 
921 922 2 1.4218704307376302e+00 -6.5961325650568017e-02 1.0000000000000000e+00 1.8107835644607764e+00 1.2199999999999999e+01 7.5321274397704254e+00 
735 736 2 1.4218704307376302e+00 -8.8782906171862783e-02 1.0000000000000000e+00 4.0122554060327760e+00 1.2199999999999999e+01 7.1919046277442735e+00 
660 661 2 1.4218704307376302e+00 -8.9136604687417589e-02 1.0000000000000000e+00 3.2432597662396468e+01 1.2199999999999999e+01 6.8000374798974192e+00 
1383 1384 2 1.4218704307376302e+00 -6.5961325650568017e-02 1.0000000000000000e+00 1.8107835644607764e+00 1.4400000000000000e+01 7.5321274397704254e+00 
1197 1198 2 1.4218704307376302e+00 -8.8782906171862783e-02 1.0000000000000000e+00 4.0122554060327760e+00 1.4400000000000000e+01 7.1919046277442735e+00 
1122 1123 2 1.4218704307376302e+00 -8.9136604687417589e-02 1.0000000000000000e+00 3.2432597662396468e+01 1.4400000000000000e+01 6.8000374798974192e+00 
1845 1846 2 1.4218704307376302e+00 -6.5961325650568017e-02 1.0000000000000000e+00 1.8107835644607764e+00 1.6600000000000001e+01 7.5321274397704254e+00 
1659 1660 2 1.4218704307376302e+00 -8.8782906171862783e-02 1.0000000000000000e+00 4.0122554060327760e+00 1.6600000000000001e+01 7.1919046277442735e+00 
1584 1585 2 1.4218704307376302e+00 -8.9136604687417589e-02 1.0000000000000000e+00 3.2432597662396468e+01 1.6600000000000001e+01 6.8000374798974192e+00 
2307 2308 2 1.4218704307376302e+00 -6.5961325650568017e-02 1.0000000000000000e+00 1.8107835644607764e+00 1.8800000000000001e+01 7.5321274397704254e+00 
2121 2122 2 1.4218704307376302e+00 -8.8782906171862783e-02 1.0000000000000000e+00 4.0122554060327760e+00 1.8800000000000001e+01 7.1919046277442735e+00 
2046 2047 2 1.4218704307376302e+00 -8.9136604687417589e-02 1.0000000000000000e+00 3.2432597662396468e+01 1.8800000000000001e+01 6.8000374798974192e+00 
347 348 2 1.4218704307376302e+00 -8.8733261395140220e-02 1.0000000000000000e+00 2.8654444051912091e+00 1.0000000000000000e+01 9.2901808264104879e+00 
372 373 2 1.4218704307376302e+00 -8.8927706670346468e-02 1.0000000000000000e+00 8.5785154831712713e+00 1.0000000000000000e+01 8.2393832515307412e+00 
121 122 2 1.4218704307376302e+00 -8.8963532686984911e-02 1.0000000000000000e+00 1.1713587429925266e+01 1.0000000000000000e+01 8.8837492504635733e+00 
176 177 2 1.4218704307376302e+00 -8.9015336851295229e-02 1.0000000000000000e+00 1.4833597202038426e+01 1.0000000000000000e+01 8.4767963546773117e+00 
142 143 2 1.4218704307376302e+00 -8.8901388277062510e-02 1.0000000000000000e+00 1.9779920049169785e+01 1.0000000000000000e+01 8.4093253466285205e+00 
379 380 2 1.4218704307376302e+00 -6.6279731228460953e-02 1.0000000000000000e+00 2.4547026389164291e+01 1.0000000000000000e+01 8.8988007426888434e+00 
809 810 2 1.4218704307376302e+00 -8.8733261395140220e-02 1.0000000000000000e+00 2.8654444051912091e+00 1.2199999999999999e+01 9.2901808264104879e+00 
834 835 2 1.4218704307376302e+00 -8.8927706670346468e-02 1.0000000000000000e+00 8.5785154831712713e+00 1.2199999999999999e+01 8.2393832515307412e+00 
583 584 2 1.4218704307376302e+00 -8.8963532686984911e-02 1.0000000000000000e+00 1.1713587429925266e+01 1.2199999999999999e+01 8.8837492504635733e+00 
638 639 2 1.4218704307376302e+00 -8.9015336851295229e-02 1.0000000000000000e+00 1.4833597202038426e+01 1.2199999999999999e+01 8.4767963546773117e+00 
604 605 2 1.4218704307376302e+00 -8.8901388277062510e-02 1.0000000000000000e+00 1.9779920049169785e+01 1.2199999999999999e+01 8.4093253466285205e+00 
841 842 2 1.4218704307376302e+00 -6.6279731228460953e-02 1.0000000000000000e+00 2.4547026389164291e+01 1.2199999999999999e+01 8.8988007426888434e+00 
1271 1272 2 1.4218704307376302e+00 -8.8733261395140220e-02 1.0000000000000000e+00 2.8654444051912091e+00 1.4400000000000000e+01 9.2901808264104879e+00 
1296 1297 2 1.4218704307376302e+00 -8.8927706670346468e-02 1.0000000000000000e+00 8.5785154831712713e+00 1.4400000000000000e+01 8.2393832515307412e+00 
1045 1046 2 1.4218704307376302e+00 -8.8963532686984911e-02 1.0000000000000000e+00 1.1713587429925266e+01 1.4400000000000000e+01 8.8837492504635733e+00 
1100 1101 2 1.4218704307376302e+00 -8.9015336851295229e-02 1.0000000000000000e+00 1.4833597202038426e+01 1.4400000000000000e+01 8.4767963546773117e+00 
1066 1067 2 1.4218704307376302e+00 -8.8901388277062510e-02 1.0000000000000000e+00 1.9779920049169785e+01 1.4400000000000000e+01 8.4093253466285205e+00 
1303 1304 2 1.4218704307376302e+00 -6.6279731228460953e-02 1.0000000000000000e+00 2.4547026389164291e+01 1.4400000000000000e+01 8.8988007426888434e+00 
1733 1734 2 1.4218704307376302e+00 -8.8733261395140220e-02 1.0000000000000000e+00 2.8654444051912091e+00 1.6600000000000001e+01 9.2901808264104879e+00 
1758 1759 2 1.4218704307376302e+00 -8.8927706670346468e-02 1.0000000000000000e+00 8.5785154831712713e+00 1.6600000000000001e+01 8.2393832515307412e+00 
1507 1508 2 1.4218704307376302e+00 -8.8963532686984911e-02 1.0000000000000000e+00 1.1713587429925266e+01 1.6600000000000001e+01 8.8837492504635733e+00 
1562 1563 2 1.4218704307376302e+00 -8.9015336851295229e-02 1.0000000000000000e+00 1.4833597202038426e+01 1.6600000000000001e+01 8.4767963546773117e+00 
1528 1529 2 1.4218704307376302e+00 -8.8901388277062510e-02 1.0000000000000000e+00 1.9779920049169785e+01 1.6600000000000001e+01 8.4093253466285205e+00 
1765 1766 2 1.4218704307376302e+00 -6.6279731228460953e-02 1.0000000000000000e+00 2.4547026389164291e+01 1.6600000000000001e+01 8.8988007426888434e+00 
2195 2196 2 1.4218704307376302e+00 -8.8733261395140220e-02 1.0000000000000000e+00 2.8654444051912091e+00 1.8800000000000001e+01 9.2901808264104879e+00 
2220 2221 2 1.4218704307376302e+00 -8.8927706670346468e-02 1.0000000000000000e+00 8.5785154831712713e+00 1.8800000000000001e+01 8.2393832515307412e+00 
1969 1970 2 1.4218704307376302e+00 -8.8963532686984911e-02 1.0000000000000000e+00 1.1713587429925266e+01 1.8800000000000001e+01 8.8837492504635733e+00 
2024 2025 2 1.4218704307376302e+00 -8.9015336851295229e-02 1.0000000000000000e+00 1.4833597202038426e+01 1.8800000000000001e+01 8.4767963546773117e+00 
1990 1991 2 1.4218704307376302e+00 -8.8901388277062510e-02 1.0000000000000000e+00 1.9779920049169785e+01 1.8800000000000001e+01 8.4093253466285205e+00 
2227 2228 2 1.4218704307376302e+00 -6.6279731228460953e-02 1.0000000000000000e+00 2.4547026389164291e+01 1.8800000000000001e+01 8.8988007426888434e+00 
170 171 2 1.4218704307376302e+00 -8.8787439790254497e-02 1.0000000000000000e+00 8.6103814142712332e-01 1.0000000000000000e+01 9.6693173084579662e+00 
371 372 2 1.4218704307376302e+00 -8.8791002991650519e-02 1.0000000000000000e+00 7.5209227655634132e+00 1.0000000000000000e+01 1.0009993573445355e+01 
442 443 2 1.4218704307376302e+00 -6.6077945202353550e-02 1.0000000000000000e+00 1.3894589353500214e+01 1.0000000000000000e+01 1.0551371115177362e+01 
138 139 2 1.4218704307376302e+00 -8.9022730280586562e-02 1.0000000000000000e+00 1.7370917976058507e+01 1.0000000000000000e+01 9.6439333426868732e+00 
229 230 2 1.4218704307376302e+00 -8.8808830760544979e-02 1.0000000000000000e+00 2.8891750439000937e+01 1.0000000000000000e+01 9.8037557909005120e+00 
632 633 2 1.4218704307376302e+00 -8.8787439790254497e-02 1.0000000000000000e+00 8.6103814142712332e-01 1.2199999999999999e+01 9.6693173084579662e+00 
833 834 2 1.4218704307376302e+00 -8.8791002991650519e-02 1.0000000000000000e+00 7.5209227655634132e+00 1.2199999999999999e+01 1.0009993573445355e+01 
904 905 2 1.4218704307376302e+00 -6.6077945202353550e-02 1.0000000000000000e+00 1.3894589353500214e+01 1.2199999999999999e+01 1.0551371115177362e+01 
600 601 2 1.4218704307376302e+00 -8.9022730280586562e-02 1.0000000000000000e+00 1.7370917976058507e+01 1.2199999999999999e+01 9.6439333426868732e+00 
691 692 2 1.4218704307376302e+00 -8.8808830760544979e-02 1.0000000000000000e+00 2.8891750439000937e+01 1.2199999999999999e+01 9.8037557909005120e+00 
1094 1095 2 1.4218704307376302e+00 -8.8787439790254497e-02 1.0000000000000000e+00 8.6103814142712332e-01 1.4400000000000000e+01 9.6693173084579662e+00 
1295 1296 2 1.4218704307376302e+00 -8.8791002991650519e-02 1.0000000000000000e+00 7.5209227655634132e+00 1.4400000000000000e+01 1.0009993573445355e+01 
1366 1367 2 1.4218704307376302e+00 -6.6077945202353550e-02 1.0000000000000000e+00 1.3894589353500214e+01 1.4400000000000000e+01 1.0551371115177362e+01 
1062 1063 2 1.4218704307376302e+00 -8.9022730280586562e-02 1.0000000000000000e+00 1.7370917976058507e+01 1.4400000000000000e+01 9.6439333426868732e+00 
1153 1154 2 1.4218704307376302e+00 -8.8808830760544979e-02 1.0000000000000000e+00 2.8891750439000937e+01 1.4400000000000000e+01 9.8037557909005120e+00 
1556 1557 2 1.4218704307376302e+00 -8.8787439790254497e-02 1.0000000000000000e+00 8.6103814142712332e-01 1.6600000000000001e+01 9.6693173084579662e+00 