LAMMPS data file via write_data, version 30 Jul 2016, timestep = 50400000

4620 atoms
8 atom types

0.0000000000000000e+00 1.0000000000000000e+02 xlo xhi
0.0000000000000000e+00 4.0000000000000000e+01 ylo yhi
0.0000000000000000e+00 4.0000000000000000e+01 zlo zhi

Masses

1 3.896
2 5.36
3 20.064
4 8.378
5 8.378
6 8.378
7 8.378
8 8.378

Atoms # meso-molecular

273 274 2 1.4218704307376302e+00 -8.8766892208185996e-02 1.0000000000000000e+00 3.2963799965453249e+00 1.0000000000000000e+01 1.0556492234785204e+00 
172 173 2 1.4218704307376302e+00 -8.9064371100304476e-02 1.0000000000000000e+00 5.8045117265185215e+00 1.0000000000000000e+01 1.0022699818632168e+00 
309 310 2 1.4218704307376302e+00 -8.9142223537997139e-02 1.0000000000000000e+00 1.3748233129776210e+01 1.0000000000000000e+01 9.9537050933714033e-01 
38 39 2 1.4218704307376302e+00 -6.6299211550723727e-02 1.0000000000000000e+00 1.6294407670467496e+01 1.0000000000000000e+01 1.0972129637370727e+00 
245 246 2 1.4218704307376302e+00 -8.8928804568173092e-02 1.0000000000000000e+00 2.2478653794886576e+01 1.0000000000000000e+01 1.1004117611917044e+00 
175 176 2 1.4218704307376302e+00 -8.9031510177288206e-02 1.0000000000000000e+00 2.8689133505992420e+01 1.0000000000000000e+01 2.8685522724833762e-01 
735 736 2 1.4218704307376302e+00 -8.8766892208185996e-02 1.0000000000000000e+00 3.2963799965453249e+00 1.2199999999999999e+01 1.0556492234785204e+00 
634 635 2 1.4218704307376302e+00 -8.9064371100304476e-02 1.0000000000000000e+00 5.8045117265185215e+00 1.2199999999999999e+01 1.0022699818632168e+00 
771 772 2 1.4218704307376302e+00 -8.9142223537997139e-02 1.0000000000000000e+00 1.3748233129776210e+01 1.2199999999999999e+01 9.9537050933714033e-01 
500 501 2 1.4218704307376302e+00 -6.6299211550723727e-02 1.0000000000000000e+00 1.6294407670467496e+01 1.2199999999999999e+01 1.0972129637370727e+00 
707 708 2 1.4218704307376302e+00 -8.8928804568173092e-02 1.0000000000000000e+00 2.2478653794886576e+01 1.2199999999999999e+01 1.1004117611917044e+00 
637 638 2 1.4218704307376302e+00 -8.9031510177288206e-02 1.0000000000000000e+00 2.8689133505992420e+01 1.2199999999999999e+01 2.8685522724833762e-01 
1197 1198 2 1.4218704307376302e+00 -8.8766892208185996e-02 1.0000000000000000e+00 3.2963799965453249e+00 1.4400000000000000e+01 1.0556492234785204e+00 
1096 1097 2 1.4218704307376302e+00 -8.9064371100304476e-02 1.0000000000000000e+00 5.8045117265185215e+00 1.4400000000000000e+01 1.0022699818632168e+00 
1233 1234 2 1.4218704307376302e+00 -8.9142223537997139e-02 1.0000000000000000e+00 1.3748233129776210e+01 1.4400000000000000e+01 9.9537050933714033e-01 
962 963 2 1.4218704307376302e+00 -6.6299211550723727e-02 1.0000000000000000e+00 1.6294407670467496e+01 1.4400000000000000e+01 1.0972129637370727e+00 
1169 1170 2 1.4218704307376302e+00 -8.8928804568173092e-02 1.0000000000000000e+00 2.2478653794886576e+01 1.4400000000000000e+01 1.1004117611917044e+00 
1099 1100 2 1.4218704307376302e+00 -8.9031510177288206e-02 1.0000000000000000e+00 2.8689133505992420e+01 1.4400000000000000e+01 2.8685522724833762e-01 
1659 1660 2 1.4218704307376302e+00 -8.8766892208185996e-02 1.0000000000000000e+00 3.2963799965453249e+00 1.6600000000000001e+01 1.0556492234785204e+00 
1558 1559 2 1.4218704307376302e+00 -8.9064371100304476e-02 1.0000000000000000e+00 5.8045117265185215e+00 1.6600000000000001e+01 1.0022699818632168e+00 
1695 1696 2 1.4218704307376302e+00 -8.9142223537997139e-02 1.0000000000000000e+00 1.3748233129776210e+01 1.6600000000000001e+01 9.9537050933714033e-01 
1424 1425 2 1.4218704307376302e+00 -6.6299211550723727e-02 1.0000000000000000e+00 1.6294407670467496e+01 1.6600000000000001e+01 1.0972129637370727e+00 
1631 1632 2 1.4218704307376302e+00 -8.8928804568173092e-02 1.0000000000000000e+00 2.2478653794886576e+01 1.6600000000000001e+01 1.1004117611917044e+00 
1561 1562 2 1.4218704307376302e+00 -8.9031510177288206e-02 1.0000000000000000e+00 2.8689133505992420e+01 1.6600000000000001e+01 2.8685522724833762e-01 
2121 2122 2 1.4218704307376302e+00 -8.8766892208185996e-02 1.0000000000000000e+00 3.2963799965453249e+00 1.8800000000000001e+01 1.0556492234785204e+00 
2020 2021 2 1.4218704307376302e+00 -8.9064371100304476e-02 1.0000000000000000e+00 5.8045117265185215e+00 1.8800000000000001e+01 1.0022699818632168e+00 
2157 2158 2 1.4218704307376302e+00 -8.9142223537997139e-02 1.0000000000000000e+00 1.3748233129776210e+01 1.8800000000000001e+01 9.9537050933714033e-01 
1886 1887 2 1.4218704307376302e+00 -6.6299211550723727e-02 1.0000000000000000e+00 1.6294407670467496e+01 1.8800000000000001e+01 1.0972129637370727e+00 
2093 2094 2 1.4218704307376302e+00 -8.8928804568173092e-02 1.0000000000000000e+00 2.2478653794886576e+01 1.8800000000000001e+01 1.1004117611917044e+00 
2023 2024 2 1.4218704307376302e+00 -8.9031510177288206e-02 1.0000000000000000e+00 2.8689133505992420e+01 1.8800000000000001e+01 2.8685522724833762e-01 
292 293 2 1.4218704307376302e+00 -8.8999302227667956e-02 1.0000000000000000e+00 1.2747418202008569e+00 1.0000000000000000e+01 2.2307823660283463e+00 
192 193 2 1.4218704307376302e+00 -8.8887560525264309e-02 1.0000000000000000e+00 1.9211714044156000e+01 1.0000000000000000e+01 2.0206476202111294e+00 
332 333 2 1.4218704334603907e+00 -8.1196501610897684e-02 1.0000000000000000e+00 2.4343304622988917e+01 1.0000000000000000e+01 2.0614565552920432e+00 
104 105 2 1.4218704307376302e+00 -8.8892340024845307e-02 1.0000000000000000e+00 2.6911116319280506e+01 1.0000000000000000e+01 1.4474087137311256e+00 
754 755 2 1.4218704307376302e+00 -8.8999302227667956e-02 1.0000000000000000e+00 1.2747418202008569e+00 1.2199999999999999e+01 2.2307823660283463e+00 
654 655 2 1.4218704307376302e+00 -8.8887560525264309e-02 1.0000000000000000e+00 1.9211714044156000e+01 1.2199999999999999e+01 2.0206476202111294e+00 
794 795 2 1.4218704334603907e+00 -8.1196501610897684e-02 1.0000000000000000e+00 2.4343304622988917e+01 1.2199999999999999e+01 2.0614565552920432e+00 
566 567 2 1.4218704307376302e+00 -8.8892340024845307e-02 1.0000000000000000e+00 2.6911116319280506e+01 1.2199999999999999e+01 1.4474087137311256e+00 
1216 1217 2 1.4218704307376302e+00 -8.8999302227667956e-02 1.0000000000000000e+00 1.2747418202008569e+00 1.4400000000000000e+01 2.2307823660283463e+00 
1116 1117 2 1.4218704307376302e+00 -8.8887560525264309e-02 1.0000000000000000e+00 1.9211714044156000e+01 1.4400000000000000e+01 2.0206476202111294e+00 
1256 1257 2 1.4218704334603907e+00 -8.1196501610897684e-02 1.0000000000000000e+00 2.4343304622988917e+01 1.4400000000000000e+01 2.0614565552920432e+00 
1028 1029 2 1.4218704307376302e+00 -8.8892340024845307e-02 1.0000000000000000e+00 2.6911116319280506e+01 1.4400000000000000e+01 1.4474087137311256e+00 
1678 1679 2 1.4218704307376302e+00 -8.8999302227667956e-02 1.0000000000000000e+00 1.2747418202008569e+00 1.6600000000000001e+01 2.2307823660283463e+00 
1578 1579 2 1.4218704307376302e+00 -8.8887560525264309e-02 1.0000000000000000e+00 1.9211714044156000e+01 1.6600000000000001e+01 2.0206476202111294e+00 
1718 1719 2 1.4218704334603907e+00 -8.1196501610897684e-02 1.0000000000000000e+00 2.4343304622988917e+01 1.6600000000000001e+01 2.0614565552920432e+00 
1490 1491 2 1.4218704307376302e+00 -8.8892340024845307e-02 1.0000000000000000e+00 2.6911116319280506e+01 1.6600000000000001e+01 1.4474087137311256e+00 
2140 2141 2 1.4218704307376302e+00 -8.8999302227667956e-02 1.0000000000000000e+00 1.2747418202008569e+00 1.8800000000000001e+01 2.2307823660283463e+00 
2040 2041 2 1.4218704307376302e+00 -8.8887560525264309e-02 1.0000000000000000e+00 1.9211714044156000e+01 1.8800000000000001e+01 2.0206476202111294e+00 
2180 2181 2 1.4218704334603907e+00 -8.1196501610897684e-02 1.0000000000000000e+00 2.4343304622988917e+01 1.8800000000000001e+01 2.0614565552920432e+00 
1952 1953 2 1.4218704307376302e+00 -8.8892340024845307e-02 1.0000000000000000e+00 2.6911116319280506e+01 1.8800000000000001e+01 1.4474087137311256e+00 
242 243 2 1.4218704307376302e+00 -8.9053896676588168e-02 1.0000000000000000e+00 1.1559967441445039e+01 1.0000000000000000e+01 3.1226552427545093e+00 
138 139 2 1.4218704307376302e+00 -8.9019479030477772e-02 1.0000000000000000e+00 1.5149261838427201e+01 1.0000000000000000e+01 3.7103334198962434e+00 
270 271 2 1.4218704307376302e+00 -8.9206980722449689e-02 1.0000000000000000e+00 2.1547980826630997e+01 1.0000000000000000e+01 3.4388351465883429e+00 
51 52 2 1.4218704307376302e+00 -8.8993469529193986e-02 1.0000000000000000e+00 3.0811817935424706e+01 1.0000000000000000e+01 2.9528530321416619e+00 
704 705 2 1.4218704307376302e+00 -8.9053896676588168e-02 1.0000000000000000e+00 1.1559967441445039e+01 1.2199999999999999e+01 3.1226552427545093e+00 
600 601 2 1.4218704307376302e+00 -8.9019479030477772e-02 1.0000000000000000e+00 1.5149261838427201e+01 1.2199999999999999e+01 3.7103334198962434e+00 
732 733 2 1.4218704307376302e+00 -8.9206980722449689e-02 1.0000000000000000e+00 2.1547980826630997e+01 1.2199999999999999e+01 3.4388351465883429e+00 
513 514 2 1.4218704307376302e+00 -8.8993469529193986e-02 1.0000000000000000e+00 3.0811817935424706e+01 1.2199999999999999e+01 2.9528530321416619e+00 
1166 1167 2 1.4218704307376302e+00 -8.9053896676588168e-02 1.0000000000000000e+00 1.1559967441445039e+01 1.4400000000000000e+01 3.1226552427545093e+00 
1062 1063 2 1.4218704307376302e+00 -8.9019479030477772e-02 1.0000000000000000e+00 1.5149261838427201e+01 1.4400000000000000e+01 3.7103334198962434e+00 
1194 1195 2 1.4218704307376302e+00 -8.9206980722449689e-02 1.0000000000000000e+00 2.1547980826630997e+01 1.4400000000000000e+01 3.4388351465883429e+00 
975 976 2 1.4218704307376302e+00 -8.8993469529193986e-02 1.0000000000000000e+00 3.0811817935424706e+01 1.4400000000000000e+01 2.9528530321416619e+00 
1628 1629 2 1.4218704307376302e+00 -8.9053896676588168e-02 1.0000000000000000e+00 1.1559967441445039e+01 1.6600000000000001e+01 3.1226552427545093e+00 
1524 1525 2 1.4218704307376302e+00 -8.9019479030477772e-02 1.0000000000000000e+00 1.5149261838427201e+01 1.6600000000000001e+01 3.7103334198962434e+00 
1656 1657 2 1.4218704307376302e+00 -8.9206980722449689e-02 1.0000000000000000e+00 2.1547980826630997e+01 1.6600000000000001e+01 3.4388351465883429e+00 
1437 1438 2 1.4218704307376302e+00 -8.8993469529193986e-02 1.0000000000000000e+00 3.0811817935424706e+01 1.6600000000000001e+01 2.9528530321416619e+00 
2090 2091 2 1.4218704307376302e+00 -8.9053896676588168e-02 1.0000000000000000e+00 1.1559967441445039e+01 1.8800000000000001e+01 3.1226552427545093e+00 
1986 1987 2 1.4218704307376302e+00 -8.9019479030477772e-02 1.0000000000000000e+00 1.5149261838427201e+01 1.8800000000000001e+01 3.7103334198962434e+00 
2118 2119 2 1.4218704307376302e+00 -8.9206980722449689e-02 1.0000000000000000e+00 2.1547980826630997e+01 1.8800000000000001e+01 3.4388351465883429e+00 
1899 1900 2 1.4218704307376302e+00 -8.8993469529193986e-02 1.0000000000000000e+00 3.0811817935424706e+01 1.8800000000000001e+01 2.9528530321416619e+00 
459 460 2 1.4218704307376302e+00 -6.5938929012338374e-02 1.0000000000000000e+00 3.5063882287291342e-01 1.0000000000000000e+01 4.2414649573277430e+00 
372 373 2 1.4218704307376302e+00 -8.8920041926687982e-02 1.0000000000000000e+00 4.7076501903511989e+00 1.0000000000000000e+01 5.2988322327345809e+00 
60 61 2 1.4218704307376302e+00 -8.8759831888916341e-02 1.0000000000000000e+00 7.6070850219290325e+00 1.0000000000000000e+01 4.7185383361931992e+00 
121 122 2 1.4218704307376302e+00 -8.8944507834241154e-02 1.0000000000000000e+00 9.8132272119686466e+00 1.0000000000000000e+01 4.8028000679939780e+00 
301 302 2 1.4218704307376302e+00 -8.8795829236010593e-02 1.0000000000000000e+00 1.2922674138318667e+01 1.0000000000000000e+01 4.9373903275955824e+00 
419 420 2 1.4218704307376302e+00 -8.9089239729156416e-02 1.0000000000000000e+00 1.7776453552356561e+01 1.0000000000000000e+01 4.9351942526567081e+00 
259 260 2 1.4218704334603907e+00 -8.1482860586249400e-02 1.0000000000000000e+00 2.3938661876769281e+01 1.0000000000000000e+01 4.0232794459291066e+00 
155 156 2 1.4218704307376302e+00 -8.8827972595059423e-02 1.0000000000000000e+00 2.6172907498463204e+01 1.0000000000000000e+01 4.0932674399199769e+00 
345 346 2 1.4218704307376302e+00 -8.8965457167037854e-02 1.0000000000000000e+00 2.8351843682146654e+01 1.0000000000000000e+01 4.1080678442730756e+00 
52 53 2 1.4218704307376302e+00 -8.9140832965641958e-02 1.0000000000000000e+00 3.2397867587242814e+01 1.0000000000000000e+01 4.2754870914579657e+00 
921 922 2 1.4218704307376302e+00 -6.5938929012338374e-02 1.0000000000000000e+00 3.5063882287291342e-01 1.2199999999999999e+01 4.2414649573277430e+00 
834 835 2 1.4218704307376302e+00 -8.8920041926687982e-02 1.0000000000000000e+00 4.7076501903511989e+00 1.2199999999999999e+01 5.2988322327345809e+00 
522 523 2 1.4218704307376302e+00 -8.8759831888916341e-02 1.0000000000000000e+00 7.6070850219290325e+00 1.2199999999999999e+01 4.7185383361931992e+00 
583 584 2 1.4218704307376302e+00 -8.8944507834241154e-02 1.0000000000000000e+00 9.8132272119686466e+00 1.2199999999999999e+01 4.8028000679939780e+00 
763 764 2 1.4218704307376302e+00 -8.8795829236010593e-02 1.0000000000000000e+00 1.2922674138318667e+01 1.2199999999999999e+01 4.9373903275955824e+00 
881 882 2 1.4218704307376302e+00 -8.9089239729156416e-02 1.0000000000000000e+00 1.7776453552356561e+01 1.2199999999999999e+01 4.9351942526567081e+00 
721 722 2 1.4218704334603907e+00 -8.1482860586249400e-02 1.0000000000000000e+00 2.3938661876769281e+01 1.2199999999999999e+01 4.0232794459291066e+00 
617 618 2 1.4218704307376302e+00 -8.8827972595059423e-02 1.0000000000000000e+00 2.6172907498463204e+01 1.2199999999999999e+01 4.0932674399199769e+00 
807 808 2 1.4218704307376302e+00 -8.8965457167037854e-02 1.0000000000000000e+00 2.8351843682146654e+01 1.2199999999999999e+01 4.1080678442730756e+00 
514 515 2 1.4218704307376302e+00 -8.9140832965641958e-02 1.0000000000000000e+00 3.2397867587242814e+01 1.2199999999999999e+01 4.2754870914579657e+00 
1383 1384 2 1.4218704307376302e+00 -6.5938929012338374e-02 1.0000000000000000e+00 3.5063882287291342e-01 1.4400000000000000e+01 4.2414649573277430e+00 
1296 1297 2 1.4218704307376302e+00 -8.8920041926687982e-02 1.0000000000000000e+00 4.7076501903511989e+00 1.4400000000000000e+01 5.2988322327345809e+00 
984 985 2 1.4218704307376302e+00 -8.8759831888916341e-02 1.0000000000000000e+00 7.6070850219290325e+00 1.4400000000000000e+01 4.7185383361931992e+00 
1045 1046 2 1.4218704307376302e+00 -8.8944507834241154e-02 1.0000000000000000e+00 9.8132272119686466e+00 1.4400000000000000e+01 4.8028000679939780e+00 
1225 1226 2 1.4218704307376302e+00 -8.8795829236010593e-02 1.0000000000000000e+00 1.2922674138318667e+01 1.4400000000000000e+01 4.9373903275955824e+00 
1343 1344 2 1.4218704307376302e+00 -8.9089239729156416e-02 1.0000000000000000e+00 1.7776453552356561e+01 1.4400000000000000e+01 4.9351942526567081e+00 
1183 1184 2 1.4218704334603907e+00 -8.1482860586249400e-02 1.0000000000000000e+00 2.3938661876769281e+01 1.4400000000000000e+01 4.0232794459291066e+00 
1079 1080 2 1.4218704307376302e+00 -8.8827972595059423e-02 1.0000000000000000e+00 2.6172907498463204e+01 1.4400000000000000e+01 4.0932674399199769e+00 
1269 1270 2 1.4218704307376302e+00 -8.8965457167037854e-02 1.0000000000000000e+00 2.8351843682146654e+01 1.4400000000000000e+01 4.1080678442730756e+00 
976 977 2 1.4218704307376302e+00 -8.9140832965641958e-02 1.0000000000000000e+00 3.2397867587242814e+01 1.4400000000000000e+01 4.2754870914579657e+00 
1845 1846 2 1.4218704307376302e+00 -6.5938929012338374e-02 1.0000000000000000e+00 3.5063882287291342e-01 1.6600000000000001e+01 4.2414649573277430e+00 
1758 1759 2 1.4218704307376302e+00 -8.8920041926687982e-02 1.0000000000000000e+00 4.7076501903511989e+00 1.6600000000000001e+01 5.2988322327345809e+00 
1446 1447 2 1.4218704307376302e+00 -8.8759831888916341e-02 1.0000000000000000e+00 7.6070850219290325e+00 1.6600000000000001e+01 4.7185383361931992e+00 
1507 1508 2 1.4218704307376302e+00 -8.8944507834241154e-02 1.0000000000000000e+00 9.8132272119686466e+00 1.6600000000000001e+01 4.8028000679939780e+00 
1687 1688 2 1.4218704307376302e+00 -8.8795829236010593e-02 1.0000000000000000e+00 1.2922674138318667e+01 1.6600000000000001e+01 4.9373903275955824e+00 
1805 1806 2 1.4218704307376302e+00 -8.9089239729156416e-02 1.0000000000000000e+00 1.7776453552356561e+01 1.6600000000000001e+01 4.9351942526567081e+00 
1645 1646 2 1.4218704334603907e+00 -8.1482860586249400e-02 1.0000000000000000e+00 2.3938661876769281e+01 1.6600000000000001e+01 4.0232794459291066e+00 
1541 1542 2 1.4218704307376302e+00 -8.8827972595059423e-02 1.0000000000000000e+00 2.6172907498463204e+01 1.6600000000000001e+01 4.0932674399199769e+00 
1731 1732 2 1.4218704307376302e+00 -8.8965457167037854e-02 1.0000000000000000e+00 2.8351843682146654e+01 1.6600000000000001e+01 4.1080678442730756e+00 
1438 1439 2 1.4218704307376302e+00 -8.9140832965641958e-02 1.0000000000000000e+00 3.2397867587242814e+01 1.6600000000000001e+01 4.2754870914579657e+00 
2307 2308 2 1.4218704307376302e+00 -6.5938929012338374e-02 1.0000000000000000e+00 3.5063882287291342e-01 1.8800000000000001e+01 4.2414649573277430e+00 
2220 2221 2 1.4218704307376302e+00 -8.8920041926687982e-02 1.0000000000000000e+00 4.7076501903511989e+00 1.8800000000000001e+01 5.2988322327345809e+00 
1908 1909 2 1.4218704307376302e+00 -8.8759831888916341e-02 1.0000000000000000e+00 7.6070850219290325e+00 1.8800000000000001e+01 4.7185383361931992e+00 
1969 1970 2 1.4218704307376302e+00 -8.8944507834241154e-02 1.0000000000000000e+00 9.8132272119686466e+00 1.8800000000000001e+01 4.8028000679939780e+00 
2149 2150 2 1.4218704307376302e+00 -8.8795829236010593e-02 1.0000000000000000e+00 1.2922674138318667e+01 1.8800000000000001e+01 4.9373903275955824e+00 
2267 2268 2 1.4218704307376302e+00 -8.9089239729156416e-02 1.0000000000000000e+00 1.7776453552356561e+01 1.8800000000000001e+01 4.9351942526567081e+00 
2107 2108 2 1.4218704334603907e+00 -8.1482860586249400e-02 1.0000000000000000e+00 2.3938661876769281e+01 1.8800000000000001e+01 4.0232794459291066e+00 
2003 2004 2 1.4218704307376302e+00 -8.8827972595059423e-02 1.0000000000000000e+00 2.6172907498463204e+01 1.8800000000000001e+01 4.0932674399199769e+00 
2193 2194 2 1.4218704307376302e+00 -8.8965457167037854e-02 1.0000000000000000e+00 2.8351843682146654e+01 1.8800000000000001e+01 4.1080678442730756e+00 
1900 1901 2 1.4218704307376302e+00 -8.9140832965641958e-02 1.0000000000000000e+00 3.2397867587242814e+01 1.8800000000000001e+01 4.2754870914579657e+00 
339 340 2 1.4218704307376302e+00 -8.8957477241839153e-02 1.0000000000000000e+00 2.2659436560713067e+00 1.0000000000000000e+01 5.3756351893041856e+00 
159 160 2 1.4218704307376302e+00 -8.8651365723797670e-02 1.0000000000000000e+00 1.9711335682790210e+01 1.0000000000000000e+01 6.2296700839604089e+00 
423 424 2 1.4218704307376302e+00 -6.6274669419933693e-02 1.0000000000000000e+00 2.3012152165343846e+01 1.0000000000000000e+01 5.8303474353568046e+00 
801 802 2 1.4218704307376302e+00 -8.8957477241839153e-02 1.0000000000000000e+00 2.2659436560713067e+00 1.2199999999999999e+01 5.3756351893041856e+00 
621 622 2 1.4218704307376302e+00 -8.8651365723797670e-02 1.0000000000000000e+00 1.9711335682790210e+01 1.2199999999999999e+01 6.2296700839604089e+00 
885 886 2 1.4218704307376302e+00 -6.6274669419933693e-02 1.0000000000000000e+00 2.3012152165343846e+01 1.2199999999999999e+01 5.8303474353568046e+00 
1263 1264 2 1.4218704307376302e+00 -8.8957477241839153e-02 1.0000000000000000e+00 2.2659436560713067e+00 1.4400000000000000e+01 5.3756351893041856e+00 
1083 1084 2 1.4218704307376302e+00 -8.8651365723797670e-02 1.0000000000000000e+00 1.9711335682790210e+01 1.4400000000000000e+01 6.2296700839604089e+00 
1347 1348 2 1.4218704307376302e+00 -6.6274669419933693e-02 1.0000000000000000e+00 2.3012152165343846e+01 1.4400000000000000e+01 5.8303474353568046e+00 
1725 1726 2 1.4218704307376302e+00 -8.8957477241839153e-02 1.0000000000000000e+00 2.2659436560713067e+00 1.6600000000000001e+01 5.3756351893041856e+00 
1545 1546 2 1.4218704307376302e+00 -8.8651365723797670e-02 1.0000000000000000e+00 1.9711335682790210e+01 1.6600000000000001e+01 6.2296700839604089e+00 
1809 1810 2 1.4218704307376302e+00 -6.6274669419933693e-02 1.0000000000000000e+00 2.3012152165343846e+01 1.6600000000000001e+01 5.8303474353568046e+00 
2187 2188 2 1.4218704307376302e+00 -8.8957477241839153e-02 1.0000000000000000e+00 2.2659436560713067e+00 1.8800000000000001e+01 5.3756351893041856e+00 
2007 2008 2 1.4218704307376302e+00 -8.8651365723797670e-02 1.0000000000000000e+00 1.9711335682790210e+01 1.8800000000000001e+01 6.2296700839604089e+00 
2271 2272 2 1.4218704307376302e+00 -6.6274669419933693e-02 1.0000000000000000e+00 2.3012152165343846e+01 1.8800000000000001e+01 5.8303474353568046e+00 
170 171 2 1.4218704307376302e+00 -8.8778731429167257e-02 1.0000000000000000e+00 8.4638631446754131e-01 1.0000000000000000e+01 7.5829086200434492e+00 
176 177 2 1.4218704307376302e+00 -8.9010666312364428e-02 1.0000000000000000e+00 1.3747810586910841e+01 1.0000000000000000e+01 6.9127026367493452e+00 
303 304 2 1.4218704307376302e+00 -8.9008544379284363e-02 1.0000000000000000e+00 2.7749889957150533e+01 1.0000000000000000e+01 7.0669603226637783e+00 
632 633 2 1.4218704307376302e+00 -8.8778731429167257e-02 1.0000000000000000e+00 8.4638631446754131e-01 1.2199999999999999e+01 7.5829086200434492e+00 
638 639 2 1.4218704307376302e+00 -8.9010666312364428e-02 1.0000000000000000e+00 1.3747810586910841e+01 1.2199999999999999e+01 6.9127026367493452e+00 
765 766 2 1.4218704307376302e+00 -8.9008544379284363e-02 1.0000000000000000e+00 2.7749889957150533e+01 1.2199999999999999e+01 7.0669603226637783e+00 
1094 1095 2 1.4218704307376302e+00 -8.8778731429167257e-02 1.0000000000000000e+00 8.4638631446754131e-01 1.4400000000000000e+01 7.5829086200434492e+00 
1100 1101 2 1.4218704307376302e+00 -8.9010666312364428e-02 1.0000000000000000e+00 1.3747810586910841e+01 1.4400000000000000e+01 6.9127026367493452e+00 
1227 1228 2 1.4218704307376302e+00 -8.9008544379284363e-02 1.0000000000000000e+00 2.7749889957150533e+01 1.4400000000000000e+01 7.0669603226637783e+00 
1556 1557 2 1.4218704307376302e+00 -8.8778731429167257e-02 1.0000000000000000e+00 8.4638631446754131e-01 1.6600000000000001e+01 7.5829086200434492e+00 
1562 1563 2 1.4218704307376302e+00 -8.9010666312364428e-02 1.0000000000000000e+00 1.3747810586910841e+01 1.6600000000000001e+01 6.9127026367493452e+00 
1689 1690 2 1.4218704307376302e+00 -8.9008544379284363e-02 1.0000000000000000e+00 2.7749889957150533e+01 1.6600000000000001e+01 7.0669603226637783e+00 
2018 2019 2 1.4218704307376302e+00 -8.8778731429167257e-02 1.0000000000000000e+00 8.4638631446754131e-01 1.8800000000000001e+01 7.5829086200434492e+00 
2024 2025 2 1.4218704307376302e+00 -8.9010666312364428e-02 1.0000000000000000e+00 1.3747810586910841e+01 1.8800000000000001e+01 6.9127026367493452e+00 
2151 2152 2 1.4218704307376302e+00 -8.9008544379284363e-02 1.0000000000000000e+00 2.7749889957150533e+01 1.8800000000000001e+01 7.0669603226637783e+00 
347 348 2 1.4218704307376302e+00 -8.8712528978431807e-02 1.0000000000000000e+00 4.0506312657657224e+00 1.0000000000000000e+01 9.0972622535747689e+00 
371 372 2 1.4218704307376302e+00 -8.8749269729362937e-02 1.0000000000000000e+00 8.7973866795651023e+00 1.0000000000000000e+01 8.4732006569919527e+00 
142 143 2 1.4218704307376302e+00 -8.8863682789137283e-02 1.0000000000000000e+00 2.0369359432545867e+01 1.0000000000000000e+01 8.1486063842251504e+00 
379 380 2 1.4218704307376302e+00 -6.6252247937633638e-02 1.0000000000000000e+00 2.2788184849138517e+01 1.0000000000000000e+01 8.0199029584013761e+00 
342 343 2 1.4218704307376302e+00 -8.9124612890964711e-02 1.0000000000000000e+00 2.4892913564407994e+01 1.0000000000000000e+01 8.6994360297376172e+00 
809 810 2 1.4218704307376302e+00 -8.8712528978431807e-02 1.0000000000000000e+00 4.0506312657657224e+00 1.2199999999999999e+01 9.0972622535747689e+00 
833 834 2 1.4218704307376302e+00 -8.8749269729362937e-02 1.0000000000000000e+00 8.7973866795651023e+00 1.2199999999999999e+01 8.4732006569919527e+00 
604 605 2 1.4218704307376302e+00 -8.8863682789137283e-02 1.0000000000000000e+00 2.0369359432545867e+01 1.2199999999999999e+01 8.1486063842251504e+00 
841 842 2 1.4218704307376302e+00 -6.6252247937633638e-02 1.0000000000000000e+00 2.2788184849138517e+01 1.2199999999999999e+01 8.0199029584013761e+00 
804 805 2 1.4218704307376302e+00 -8.9124612890964711e-02 1.0000000000000000e+00 2.4892913564407994e+01 1.2199999999999999e+01 8.6994360297376172e+00 
1271 1272 2 1.4218704307376302e+00 -8.8712528978431807e-02 1.0000000000000000e+00 4.0506312657657224e+00 1.4400000000000000e+01 9.0972622535747689e+00 
1295 1296 2 1.4218704307376302e+00 -8.8749269729362937e-02 1.0000000000000000e+00 8.7973866795651023e+00 1.4400000000000000e+01 8.4732006569919527e+00 
1066 1067 2 1.4218704307376302e+00 -8.8863682789137283e-02 1.0000000000000000e+00 2.0369359432545867e+01 1.4400000000000000e+01 8.1486063842251504e+00 
1303 1304 2 1.4218704307376302e+00 -6.6252247937633638e-02 1.0000000000000000e+00 2.2788184849138517e+01 1.4400000000000000e+01 8.0199029584013761e+00 
1266 1267 2 1.4218704307376302e+00 -8.9124612890964711e-02 1.0000000000000000e+00 2.4892913564407994e+01 1.4400000000000000e+01 8.6994360297376172e+00 
1733 1734 2 1.4218704307376302e+00 -8.8712528978431807e-02 1.0000000000000000e+00 4.0506312657657224e+00 1.6600000000000001e+01 9.0972622535747689e+00 
1757 1758 2 1.4218704307376302e+00 -8.8749269729362937e-02 1.0000000000000000e+00 8.7973866795651023e+00 1.6600000000000001e+01 8.4732006569919527e+00 
1528 1529 2 1.4218704307376302e+00 -8.8863682789137283e-02 1.0000000000000000e+00 2.0369359432545867e+01 1.6600000000000001e+01 8.1486063842251504e+00 
1765 1766 2 1.4218704307376302e+00 -6.6252247937633638e-02 1.0000000000000000e+00 2.2788184849138517e+01 1.6600000000000001e+01 8.0199029584013761e+00 
1728 1729 2 1.4218704307376302e+00 -8.9124612890964711e-02 1.0000000000000000e+00 2.4892913564407994e+01 1.6600000000000001e+01 8.6994360297376172e+00 
2195 2196 2 1.4218704307376302e+00 -8.8712528978431807e-02 1.0000000000000000e+00 4.0506312657657224e+00 1.8800000000000001e+01 9.0972622535747689e+00 
2219 2220 2 1.4218704307376302e+00 -8.8749269729362937e-02 1.0000000000000000e+00 8.7973866795651023e+00 1.8800000000000001e+01 8.4732006569919527e+00 
1990 1991 2 1.4218704307376302e+00 -8.8863682789137283e-02 1.0000000000000000e+00 2.0369359432545867e+01 1.8800000000000001e+01 8.1486063842251504e+00 
2227 2228 2 1.4218704307376302e+00 -6.6252247937633638e-02 1.0000000000000000e+00 2.2788184849138517e+01 1.8800000000000001e+01 8.0199029584013761e+00 
2190 2191 2 1.4218704307376302e+00 -8.9124612890964711e-02 1.0000000000000000e+00 2.4892913564407994e+01 1.8800000000000001e+01 8.6994360297376172e+00 
128 129 2 1.4218704307376302e+00 -8.9125971793588221e-02 1.0000000000000000e+00 7.2971328869147012e-01 1.0000000000000000e+01 9.8415663080467297e+00 
454 455 2 1.4218704307376302e+00 -6.6031668910402505e-02 1.0000000000000000e+00 1.2163280906195501e+01 1.0000000000000000e+01 1.0586958490710218e+01 
460 461 2 1.4218704307376302e+00 -6.6168698920546873e-02 1.0000000000000000e+00 1.4359441213427734e+01 1.0000000000000000e+01 9.5727864610603728e+00 
48 49 2 1.4218704307376302e+00 -8.8741350952465534e-02 1.0000000000000000e+00 1.6688827332470655e+01 1.0000000000000000e+01 1.0621003818982835e+01 
127 128 2 1.4218704307376302e+00 -6.6043120483757392e-02 1.0000000000000000e+00 1.8807799621043657e+01 1.0000000000000000e+01 1.0036590834898503e+01 
346 347 2 1.4218704307376302e+00 -8.9005470846391960e-02 1.0000000000000000e+00 2.2983687861523247e+01 1.0000000000000000e+01 1.0192524265068286e+01 
210 211 2 1.4218704307376302e+00 -6.6333664863569952e-02 1.0000000000000000e+00 2.7557178527847505e+01 1.0000000000000000e+01 9.6252696656670640e+00 
229 230 2 1.4218704307376302e+00 -8.8795850112015240e-02 1.0000000000000000e+00 3.0773130763646641e+01 1.0000000000000000e+01 9.5917820361550685e+00 
590 591 2 1.4218704307376302e+00 -8.9125971793588221e-02 1.0000000000000000e+00 7.2971328869147012e-01 1.2199999999999999e+01 9.8415663080467297e+00 
916 917 2 1.4218704307376302e+00 -6.6031668910402505e-02 1.0000000000000000e+00 1.2163280906195501e+01 1.2199999999999999e+01 1.0586958490710218e+01 
922 923 2 1.4218704307376302e+00 -6.6168698920546873e-02 1.0000000000000000e+00 1.4359441213427734e+01 1.2199999999999999e+01 9.5727864610603728e+00 
510 511 2 1.4218704307376302e+00 -8.8741350952465534e-02 1.0000000000000000e+00 1.6688827332470655e+01 1.2199999999999999e+01 1.0621003818982835e+01 
589 590 2 1.4218704307376302e+00 -6.6043120483757392e-02 1.0000000000000000e+00 1.8807799621043657e+01 1.2199999999999999e+01 1.0036590834898503e+01 
808 809 2 1.4218704307376302e+00 -8.9005470846391960e-02 1.0000000000000000e+00 2.2983687861523247e+01 1.2199999999999999e+01 1.0192524265068286e+01 
672 673 2 1.4218704307376302e+00 -6.6333664863569952e-02 1.0000000000000000e+00 2.7557178527847505e+01 1.2199999999999999e+01 9.6252696656670640e+00 
691 692 2 1.4218704307376302e+00 -8.8795850112015240e-02 1.0000000000000000e+00 3.0773130763646641e+01 1.2199999999999999e+01 9.5917820361550685e+00 
1052 1053 2 1.4218704307376302e+00 -8.9125971793588221e-02 1.0000000000000000e+00 7.2971328869147012e-01 1.4400000000000000e+01 9.8415663080467297e+00 
1378 1379 2 1.4218704307376302e+00 -6.6031668910402505e-02 1.0000000000000000e+00 1.2163280906195501e+01 1.4400000000000000e+01 1.0586958490710218e+01 
1384 1385 2 1.4218704307376302e+00 -6.6168698920546873e-02 1.0000000000000000e+00 1.4359441213427734e+01 1.4400000000000000e+01 9.5727864610603728e+00 
972 973 2 1.4218704307376302e+00 -8.8741350952465534e-02 1.0000000000000000e+00 1.6688827332470655e+01 1.4400000000000000e+01 1.0621003818982835e+01 
1051 1052 2 1.4218704307376302e+00 -6.6043120483757392e-02 1.0000000000000000e+00 1.8807799621043657e+01 1.4400000000000000e+01 1.0036590834898503e+01 