LAMMPS data file via write_data, version 30 Jul 2016, timestep = 50400000

384 atoms
2 atom types

0.0000000000000000e+00 2.0000000000000000e+01 xlo xhi
0.0000000000000000e+00 2.0000000000000000e+01 ylo yhi
0.0000000000000000e+00 2.0000000000000000e+01 zlo zhi

Masses

1 3.89
2 10.47

Atoms # meso-molecular

36 1 2 2.8192922659699611e+00 3.5267175278422997e+01 1.0000000000000000e+00 5.7800414580080544e+00 6.1056545905341275e-01 8.5781042325039070e-01 
1 1 2 2.8192922659699611e+00 2.6464934494528734e+01 1.0000000000000000e+00 2.0416076743728837e+00 1.5718364077548430e+00 9.2698172877535734e-01 
61 1 2 2.8192922659699611e+00 3.0660243090064519e+01 1.0000000000000000e+00 3.7647006035032393e+00 6.2801849209845058e+00 3.4258304433000808e-01 
194 1 2 2.8192922659699611e+00 -1.2825933097975741e+02 1.0000000000000000e+00 5.7444438623870768e+00 6.4299879633450026e+00 8.2954802500649150e-01 
85 1 2 2.8192927677509854e+00 -3.1252995854051228e+01 1.0000000000000000e+00 8.3838529089011415e-01 8.2677463850660864e+00 8.8934142403608085e-02 
156 1 2 2.8192922659699611e+00 3.4296703945162790e+01 1.0000000000000000e+00 5.0528091048498363e+00 9.2730904864865007e+00 1.1836622005315176e+00 
127 1 2 2.8192922659699611e+00 2.7753812615551297e+01 1.0000000000000000e+00 1.9867548775020569e+00 4.1698104754032919e+00 1.5028287848620347e+00 
325 1 2 2.8192922659699611e+00 3.7345547601862506e+01 1.0000000000000000e+00 2.4679219810519823e+00 7.2146065142074169e+00 2.1997073693446132e+00 
64 1 2 2.8192922659699611e+00 2.6759817525970284e+01 1.0000000000000000e+00 6.5308253345334011e+00 8.0362375346908816e+00 2.8251237357416277e+00 
208 1 2 2.8193246463938793e+00 3.7144884410129478e+01 1.0000000000000000e+00 4.4325204971750907e+00 2.3534354385459917e+00 2.9900333734726443e+00 
253 1 2 2.8192922659699611e+00 2.7039809891596533e+01 1.0000000000000000e+00 1.9689559633593737e-01 3.4496500688584995e+00 3.5011490070744822e+00 
321 1 2 2.8192922659699611e+00 1.4812081343633295e+01 1.0000000000000000e+00 1.9218551245291662e+00 5.5218658428097109e+00 3.2617928422859102e+00 
255 1 2 2.8192922659699611e+00 2.7340224380100018e+01 1.0000000000000000e+00 3.7892020046304968e+00 7.0896851688642837e+00 4.0222038744430533e+00 
120 1 2 2.8192922659699611e+00 -3.7224822192977484e+01 1.0000000000000000e+00 4.6150346471264676e+00 9.5476550084685243e+00 3.5490622547698658e+00 
172 1 2 2.8192922678410683e+00 -5.7842004259728064e+01 1.0000000000000000e+00 2.8777736750613117e+00 9.0270956907057365e-01 5.5869638023731012e+00 
104 1 2 2.8192922659699611e+00 -5.0648590170630676e+00 1.0000000000000000e+00 5.5403621285744213e+00 1.8884130387585356e+00 4.7537212122323451e+00 
246 1 2 2.8193246463938793e+00 2.7718310796956068e+01 1.0000000000000000e+00 3.1294717073116316e+00 2.9346497747041820e+00 4.3057730006594035e+00 
82 1 2 2.8192922659699611e+00 2.7381262789278093e+01 1.0000000000000000e+00 5.0777199171385483e+00 3.9706143544913606e+00 5.0776502197773228e+00 
158 1 2 2.8192922659699611e+00 2.9049511962593328e+01 1.0000000000000000e+00 5.2054336934695673e+00 6.7453083486944481e+00 5.5414002532968984e+00 
98 1 2 2.8192922659699611e+00 2.4362260541859236e+01 1.0000000000000000e+00 1.4159548342501374e+00 8.7326663096749790e+00 5.1357195725626825e+00 
299 1 2 2.8192922659699611e+00 2.7976858859437058e+01 1.0000000000000000e+00 7.4681630458132786e-01 4.1097640236528094e-01 6.1102043593813189e+00 
342 1 2 2.8192922659699611e+00 2.7444000007918106e+01 1.0000000000000000e+00 1.1597506857758740e-01 2.9660006037790669e+00 6.7497776425628961e+00 
34 1 2 2.8192922659699611e+00 2.3480358036833692e+01 1.0000000000000000e+00 3.2805756376895823e+00 5.0994424336267494e+00 6.1627552699615133e+00 
91 1 2 2.8192922659699611e+00 2.4541342947771334e+01 1.0000000000000000e+00 1.3875845571830467e+00 5.9836091537916323e+00 6.7791642370319360e+00 
236 1 2 2.8192922659699611e+00 -1.5400624099614132e+02 1.0000000000000000e+00 3.1074171478652737e+00 2.3421035343667982e+00 7.5211774385323755e+00 
197 1 2 2.8192922659699611e+00 2.8265227463006319e+01 1.0000000000000000e+00 1.7740139728978379e+00 4.4049150345198951e-01 8.5995599188903480e+00 
72 1 2 2.8193597069224676e+00 1.9565167695758134e+01 1.0000000000000000e+00 5.2584686313112483e+00 1.6502001074012385e+00 9.7220422985302424e+00 
154 1 2 2.8192922659699611e+00 3.8438288189519241e+01 1.0000000000000000e+00 1.0375221965634733e+00 5.2854631292646053e+00 8.7380827626264228e+00 
129 1 2 2.8192922659699611e+00 2.1212747906091572e+01 1.0000000000000000e+00 5.0890644482516993e+00 5.9956581382544814e+00 8.9415470230688143e+00 
300 1 2 2.8193597069224676e+00 2.8178311717207499e+01 1.0000000000000000e+00 3.6641730544481317e+00 1.3334856504425945e+00 1.0760452406323886e+01 
151 1 2 2.8192922659699611e+00 3.2148355110409028e+01 1.0000000000000000e+00 2.5328150992050791e-01 3.8384042656911674e+00 1.1368855477141544e+01 
131 1 2 2.8192922659699611e+00 2.1189321927003565e+01 1.0000000000000000e+00 6.0755050039069856e+00 4.9041281774455348e+00 1.1090123539994501e+01 
193 1 2 2.8192922659699611e+00 3.6089934890430030e+01 1.0000000000000000e+00 1.7549014446047322e+00 9.0396336553505314e+00 1.0626993746106503e+01 
78 1 2 2.8192922659699611e+00 2.4378310143178766e+01 1.0000000000000000e+00 1.0610240440889207e+00 1.1293333949413807e-02 1.1934697254437518e+01 
214 1 2 2.8192922659699611e+00 8.7643822505126359e+00 1.0000000000000000e+00 3.1603944960639909e+00 3.8523034583541151e+00 1.1584003072783540e+01 
343 1 2 2.8192948212189028e+00 1.5563649989827148e+01 1.0000000000000000e+00 1.0600579484874018e-01 6.3434155969493231e+00 1.1724136002493962e+01 
22 1 2 2.8192922659699611e+00 2.4472072014370923e+01 1.0000000000000000e+00 4.2316533483069891e+00 8.8767951125250093e+00 1.2555466372523814e+01 
48 1 2 2.8192922659699611e+00 2.9629619530533557e+01 1.0000000000000000e+00 3.2080416452684313e+00 1.1695876665556699e+00 1.3425718609109502e+01 
245 1 2 2.8192922659699611e+00 2.4742393816928249e+01 1.0000000000000000e+00 3.2757635022336498e+00 5.5946461566890999e+00 1.3806238133600136e+01 
382 1 2 2.8192922659699611e+00 1.7653275434720229e+01 1.0000000000000000e+00 2.2565734462524514e+00 7.4626565083245939e+00 1.3022189045579680e+01 
258 1 2 2.8192922659699611e+00 2.4092468782656077e+01 1.0000000000000000e+00 5.9779539567465445e+00 7.5783829341270925e+00 1.3177105174068354e+01 
266 1 2 2.8192922659699611e+00 3.3938713859099622e+01 1.0000000000000000e+00 1.8026621210103841e+00 8.2328419812923181e-01 1.5036348463479756e+01 
19 1 2 2.8192922659699611e+00 3.0136591725214323e+01 1.0000000000000000e+00 3.9545419341739505e+00 8.5044970799519763e+00 1.4795903403412190e+01 
349 1 2 2.8192922659699611e+00 1.2968734483659535e+01 1.0000000000000000e+00 2.5148885686812990e+00 3.5130731828754147e+00 1.6869452783515900e+01 
73 1 2 2.8192922659699611e+00 2.5251559157038102e+01 1.0000000000000000e+00 3.5295235322475929e+00 6.7572603520243923e+00 1.6379024263712960e+01 
147 1 2 2.8192922659699611e+00 -1.8060596411445437e+02 1.0000000000000000e+00 1.1401023408609325e+00 7.8930819835137456e+00 1.5871557808807445e+01 
294 1 2 2.8192922659699611e+00 2.6220808602335183e+01 1.0000000000000000e+00 1.8632517589192734e+00 5.3369905007722851e-01 1.7304067870895292e+01 
40 1 2 2.8192922659699611e+00 -9.9727901537521788e+00 1.0000000000000000e+00 3.9028413847639691e+00 1.4562362396066537e+00 1.7190123484088996e+01 
256 1 2 2.8192922659699611e+00 2.0098508451774890e+01 1.0000000000000000e+00 1.8629251295406890e+00 5.1898956813216488e+00 1.8536583108794776e+01 
228 1 2 2.8193130219189340e+00 2.8432115070847477e+01 1.0000000000000000e+00 3.9117175729120408e+00 4.3534630906986322e+00 1.8040460549391454e+01 
376 1 2 2.8193130219189340e+00 3.4947928622190503e+01 1.0000000000000000e+00 5.1816707423228401e+00 5.8243753878507629e+00 1.8165432561034084e+01 
244 1 2 2.8192927677509854e+00 2.4642142678423451e+01 1.0000000000000000e+00 1.1822217725859960e+00 8.4807633478044107e+00 1.8151218478545523e+01 
248 1 2 2.8192933445055703e+00 -7.7179315072981836e+01 1.0000000000000000e+00 3.3555217784755458e+00 8.6016659270739027e+00 1.7728850582558191e+01 
33 1 2 2.8192974989792994e+00 2.5109021538838679e+01 1.0000000000000000e+00 5.0431490038740501e+00 9.2385383064349611e+00 1.8533656329589519e+01 
55 1 2 2.8192922659699611e+00 2.8180017796336976e+01 1.0000000000000000e+00 1.4692264006838323e+00 2.7409701814691374e+00 1.8805414726204841e+01 
227 1 2 2.8192922659699611e+00 -2.6636015144515682e+01 1.0000000000000000e+00 5.3633060261715437e+00 3.0988881785554296e+00 1.9176371529402193e+01 
273 1 2 2.8192931233966765e+00 1.1517002093734360e+01 1.0000000000000000e+00 5.9204016067993219e+00 1.2181779640688776e+01 1.3698841418553154e-01 
276 1 2 2.8192931233966765e+00 1.8787223367180502e+01 1.0000000000000000e+00 4.4077182923688172e+00 1.3054323642951319e+01 1.0626149617006289e+00 
377 1 2 2.8192922659699611e+00 1.3364568356473512e+01 1.0000000000000000e+00 4.1349520496590636e-01 1.6846514150624621e+01 8.8215190752728578e-01 
293 1 2 2.8192922659699611e+00 1.2314671461616122e+01 1.0000000000000000e+00 3.0153139893622471e+00 1.6008550685316958e+01 1.8785948201025446e-01 
198 1 2 2.8192922659699611e+00 -1.6049021568621852e+03 1.0000000000000000e+00 2.9146741618366816e+00 1.8819971041416075e+01 6.4431992536658822e-01 
218 1 2 2.8192922659699611e+00 2.3245231443317898e+01 1.0000000000000000e+00 5.9745562080054757e-02 1.4497181519348356e+01 2.4068737800313866e+00 
74 1 2 2.8192922659699611e+00 -1.3173202653671293e+01 1.0000000000000000e+00 5.8010267950580134e+00 1.4761861543725081e+01 1.6763889509599121e+00 
328 1 2 2.8192922659699611e+00 2.3897786812159779e+01 1.0000000000000000e+00 5.5228280647925549e+00 1.8509339444531541e+01 1.6415957546555238e+00 
5 1 2 2.8192922659699611e+00 2.3647293766120519e+01 1.0000000000000000e+00 3.6470255072826023e+00 1.9062523568866261e+01 2.6547005490147213e+00 
372 1 2 2.8194737770754763e+00 2.8896919455251282e+01 1.0000000000000000e+00 2.8205053559221942e+00 1.2652192716924013e+01 2.9012544020125897e+00 
362 1 2 2.8194737770754763e+00 1.7911183558219545e+01 1.0000000000000000e+00 2.4758494206786126e+00 1.4480430712713616e+01 3.3261000324408139e+00 
281 1 2 2.8192922659699611e+00 -5.2033419576769347e+01 1.0000000000000000e+00 1.1948236641892569e+00 1.7060387042330678e+01 2.9678859599863570e+00 
86 1 2 2.8192922659699611e+00 4.4039341745910310e+00 1.0000000000000000e+00 4.4572858304476677e+00 1.7233620528226524e+01 3.0034477289714645e+00 
117 1 2 2.8192922659699611e+00 2.8615544653021949e+01 1.0000000000000000e+00 1.8839795133611228e+00 1.8779296401188216e+01 4.1558830243067177e+00 
24 1 2 2.8192922659699611e+00 2.7134167460118043e+01 1.0000000000000000e+00 1.2102412091612078e+00 1.2945247211290990e+01 5.4493407886986809e+00 
225 1 2 2.8192922659699611e+00 2.7072695959188469e+01 1.0000000000000000e+00 6.0637565550102579e+00 1.5704337839476230e+01 4.4348079846511759e+00 
185 1 2 2.8192922659699611e+00 8.7622560523902671e+00 1.0000000000000000e+00 5.3314389086118217e+00 1.8324108041142555e+01 5.6869600452575790e+00 
381 1 2 2.8192922659699611e+00 4.6616547976240454e+01 1.0000000000000000e+00 6.6569873739769472e+00 1.9777638243160485e+01 4.7550945803088247e+00 
344 1 2 2.8192922659699611e+00 -2.0826910112972783e+01 1.0000000000000000e+00 7.3114483233503391e-01 1.0951455960780649e+01 6.1968254515276460e+00 
230 1 2 2.8192922659699611e+00 2.0216782133486561e+01 1.0000000000000000e+00 4.4595407992488472e+00 1.0844515374739128e+01 5.8322777621931889e+00 
175 1 2 2.8194087683296862e+00 1.9803417235903641e+01 1.0000000000000000e+00 2.9948323574601208e+00 1.5054109026046659e+01 6.9377365630571095e+00 
237 1 2 2.8194087683296862e+00 -2.1554419640967137e+02 1.0000000000000000e+00 1.7244525295993607e+00 1.6123377628051603e+01 5.9774639275715655e+00 
298 1 2 2.8192922659699611e+00 2.3690096308355251e+01 1.0000000000000000e+00 4.4560873646568897e+00 1.6636928939746912e+01 6.4437743849703688e+00 
282 1 2 2.8192922678410683e+00 1.8103417576884549e+01 1.0000000000000000e+00 3.0445578216092510e+00 1.9209657518559908e+01 6.6275654768872938e+00 
159 1 2 2.8192922659699611e+00 9.5292798249594846e+00 1.0000000000000000e+00 5.2285091080501518e+00 1.0451817774924832e+01 7.9259680226902018e+00 
361 1 2 2.8192922659699611e+00 2.4075671685011304e+01 1.0000000000000000e+00 5.7802989481792206e+00 1.5102598547127556e+01 7.1550391426142399e+00 
375 1 2 2.8192922659699611e+00 2.6787655950998438e+01 1.0000000000000000e+00 1.1766365476238969e+00 1.7610002847996231e+01 7.3900276391174691e+00 
179 1 2 2.8192922659699611e+00 1.2865588271189939e+01 1.0000000000000000e+00 2.3993371760914233e+00 1.0985466301258619e+01 9.0345645741464722e+00 
351 1 2 2.8192922659699611e+00 2.6214046763267319e+01 1.0000000000000000e+00 4.5459581027913956e+00 1.2336379696544604e+01 8.5867217155023550e+00 
195 1 2 2.8192922659699611e+00 1.6643116621241774e+01 1.0000000000000000e+00 1.5925582775826719e+00 1.6432323059310239e+01 9.1890600807448930e+00 
26 1 2 2.8192922659699611e+00 2.0410663653903903e+01 1.0000000000000000e+00 3.8407034241868905e+00 1.5973256710499651e+01 8.8499878766269404e+00 
87 1 2 2.8192922659699611e+00 1.6808255225991324e+01 1.0000000000000000e+00 2.6849322375892049e-01 1.0655653015136476e+01 1.0102175693555086e+01 
202 1 2 2.8192922659699611e+00 1.7148909883279075e+01 1.0000000000000000e+00 4.0881557833754432e+00 1.0413806857373078e+01 1.0090321681564225e+01 
54 1 2 2.8192922659699611e+00 2.5904079368763490e+01 1.0000000000000000e+00 7.1630470396979351e-01 1.4196748568083928e+01 1.1411888184309431e+01 
176 1 2 2.8192922659699611e+00 2.9490560786038369e+01 1.0000000000000000e+00 4.8770167382142358e+00 1.4252135127702759e+01 1.0206059256683258e+01 
380 1 2 2.8192922659699611e+00 3.6600836015776039e+01 1.0000000000000000e+00 6.2642374924019952e+00 1.5430488629440376e+01 1.1360536206886064e+01 
140 1 2 2.8193066391375794e+00 3.1284648875432552e+01 1.0000000000000000e+00 3.8105289998605083e+00 1.6191669387321774e+01 1.1062389619334708e+01 
102 1 2 2.8192922659699611e+00 -8.8052172297542228e+01 1.0000000000000000e+00 6.4611498923129396e-01 1.7149617875110536e+01 1.1052676419082220e+01 
261 1 2 2.8192922659699611e+00 2.6861245475874171e+01 1.0000000000000000e+00 2.9561884491996704e-01 1.9601836560601306e+01 1.0012199595081837e+01 
93 1 2 2.8192922659699611e+00 -1.1885500880750541e+02 1.0000000000000000e+00 2.3263076385954990e+00 1.1561409717857426e+01 1.1960577361802853e+01 
145 1 2 2.8192922659699611e+00 2.5626953460683005e+01 1.0000000000000000e+00 5.9797871587902760e+00 1.3419588963172700e+01 1.1903212474736385e+01 
271 1 2 2.8193066391375794e+00 2.9582108856757330e+01 1.0000000000000000e+00 3.2612788674187936e+00 1.4660598612612695e+01 1.2141266310179414e+01 
310 1 2 2.8192922659699611e+00 2.3220538629645937e+01 1.0000000000000000e+00 6.3237531450304516e+00 1.8007967222314242e+01 1.2296600646219268e+01 
355 1 2 2.8192922659699611e+00 2.8267584544616625e+01 1.0000000000000000e+00 5.8018020254903444e+00 1.0965605523149224e+01 1.2893072006126015e+01 
97 1 2 2.8192922659699611e+00 1.9449511945695335e+01 1.0000000000000000e+00 1.2176603150704075e+00 1.1823095338759421e+01 1.3834232147474600e+01 
25 1 2 2.8192922659699611e+00 2.2039895197969173e+01 1.0000000000000000e+00 1.5535011465365758e+00 1.3898509628721756e+01 1.4145817392375177e+01 
7 1 2 2.8192922659699611e+00 3.1849666303744847e+01 1.0000000000000000e+00 1.8405165432849568e+00 1.6760028167597724e+01 1.3075365431448501e+01 
90 1 2 2.8192922659699611e+00 3.1752756382532548e+00 1.0000000000000000e+00 4.3349480359987655e+00 1.5783193291272186e+01 1.3662129907864077e+01 
99 1 2 2.8192922659699611e+00 2.3201192064205863e+01 1.0000000000000000e+00 3.9415806661375234e+00 1.3121654543351994e+01 1.5584851430485516e+01 
201 1 2 2.8192922659699611e+00 2.8742593126085534e+01 1.0000000000000000e+00 5.7725139680964555e+00 1.3617456532036131e+01 1.4921600958983673e+01 
49 1 2 2.8192922659699611e+00 3.1450426150735378e+01 1.0000000000000000e+00 5.3758260848873602e+00 1.5575051997691022e+01 1.5517002177592380e+01 
305 1 2 2.8192922659699611e+00 2.7034084047013089e+01 1.0000000000000000e+00 1.7952091177566383e+00 1.6405619371484878e+01 1.5156440313793942e+01 
177 1 2 2.8192922659699611e+00 4.4345703874694085e+00 1.0000000000000000e+00 3.9803217415251373e+00 1.8010191415476680e+01 1.4935191728022270e+01 
312 1 2 2.8192922659699611e+00 3.2179007341893552e+01 1.0000000000000000e+00 2.0231832074687537e+00 1.8743462495417187e+01 1.4727273919477042e+01 
2 1 2 2.8192922659699611e+00 3.7087099681800112e+01 1.0000000000000000e+00 1.0655913944707398e+00 1.0141872750529849e+01 1.6886129886937489e+01 
309 1 2 2.8192922659699611e+00 2.1800900798482061e+01 1.0000000000000000e+00 4.3617906797146064e+00 1.0131289758222925e+01 1.6057519021077852e+01 
139 1 2 2.8192955033085645e+00 -1.1545390969572979e+02 1.0000000000000000e+00 6.3567261617303137e+00 1.1732668787025030e+01 1.6261538877306204e+01 
241 1 2 2.8192922659699611e+00 2.5766832071083954e+01 1.0000000000000000e+00 6.2833739014243370e+00 1.4146662360524584e+01 1.6962016994902594e+01 
35 1 2 2.8192922659699611e+00 2.0343844100282510e+01 1.0000000000000000e+00 2.5702849468136306e+00 1.4656220665450864e+01 1.6350469160363264e+01 
250 1 2 2.8192922659699611e+00 2.6820172151404620e+01 1.0000000000000000e+00 5.8056080277899111e+00 1.8579542391200970e+01 1.5771197800935266e+01 
329 1 2 2.8192922659699611e+00 -3.3823927450940463e+00 1.0000000000000000e+00 3.6840734295308519e+00 1.1567751551138553e+01 1.7301188347972978e+01 
63 1 2 2.8192922659699611e+00 1.9738657844950083e+01 1.0000000000000000e+00 2.5101752402652080e+00 1.6635108802974020e+01 1.7346455397610686e+01 
84 1 2 2.8192922659699611e+00 2.2070891918723461e+01 1.0000000000000000e+00 1.1231231279351976e+00 1.8148707489404821e+01 1.8504885490300062e+01 
144 1 2 2.8192922659699611e+00 2.7446610605523531e+01 1.0000000000000000e+00 2.9582797992855205e+00 1.8848829135506509e+01 1.7275828516126548e+01 
109 1 2 2.8192922659699611e+00 -5.6618306400000314e+01 1.0000000000000000e+00 4.3063535069615648e+00 1.9869893421614982e+01 1.8480289870755357e+01 
262 1 2 2.8192922659699611e+00 -7.2448110614382131e+01 1.0000000000000000e+00 3.5612998090290979e+00 1.0348584895832833e+01 1.9319082836534655e+01 
133 1 2 2.8192922659699611e+00 3.7973920142773472e+00 1.0000000000000000e+00 5.1009624635647564e+00 1.7794855957759342e+01 1.8897502679772217e+01 
17 1 2 2.8192922659699611e+00 5.2477353438585013e+01 1.0000000000000000e+00 1.0270171574978887e+01 5.0209960416778299e-01 9.0576710345592248e-01 
103 1 2 2.8192922659699611e+00 2.2069192072803979e+01 1.0000000000000000e+00 8.6365608415983850e+00 3.6056816524058988e+00 2.7489662445492793e-02 
199 1 2 2.8192922659699611e+00 -1.0075012757077006e+03 1.0000000000000000e+00 1.0430463347581272e+01 5.9476687648605768e+00 1.1613966522267969e+00 
200 1 2 2.8194536346478341e+00 4.8101855417577454e+01 1.0000000000000000e+00 7.6448597254495443e+00 7.7309693480386770e+00 9.9887488906233823e-01 
137 1 2 2.8194462107167806e+00 2.7948193774846128e+01 1.0000000000000000e+00 9.4520006020089387e+00 8.1692051021173331e+00 5.5349990327975995e-01 
92 1 2 2.8192922659699611e+00 2.1255049232983399e+01 1.0000000000000000e+00 1.3259234680796229e+01 8.7980903447673295e+00 9.0287981526630612e-01 
21 1 2 2.8192922659699611e+00 3.3516972598160962e+01 1.0000000000000000e+00 1.2195987920463809e+01 1.3541098883343881e+00 2.6406809548098749e+00 
101 1 2 2.8192922659699611e+00 -2.9513643731627901e+01 1.0000000000000000e+00 6.9102866559151757e+00 2.3102839255680632e+00 1.7585965635068128e+00 
107 1 2 2.8192922659699611e+00 3.0162300452377444e+01 1.0000000000000000e+00 1.2361099049059007e+01 4.7928879037446119e+00 2.3329853733015242e+00 
136 1 2 2.8192922659699611e+00 2.1315346402089482e+01 1.0000000000000000e+00 1.1240772031279594e+01 8.0833708354112144e+00 2.5146329544822312e+00 
122 1 2 2.8192922659699611e+00 2.1742303137445148e+01 1.0000000000000000e+00 8.9408201801365621e+00 9.1460501301567765e-01 3.3914202263612059e+00 
29 1 2 2.8192922659699611e+00 3.1594448683794926e+01 1.0000000000000000e+00 6.8788524133047728e+00 4.3017406940377603e+00 3.2928544428465800e+00 
286 1 2 2.8192922660414617e+00 -9.5773929970323508e+01 1.0000000000000000e+00 8.4855753202554638e+00 7.0066796022416762e+00 3.7079508196931106e+00 
43 1 2 2.8192922660414617e+00 3.4194578000278547e+01 1.0000000000000000e+00 8.1100410458373577e+00 8.9642308810915061e+00 3.8338029327965595e+00 
229 1 2 2.8192923170668989e+00 -7.2107691232520764e+01 1.0000000000000000e+00 1.0468765912524042e+01 4.1220372983765126e+00 5.4309948653553830e+00 
20 1 2 2.8192922659699611e+00 3.0800323000774711e+01 1.0000000000000000e+00 1.2875195950971431e+01 6.7082611100694907e+00 4.8523100447275729e+00 
287 1 2 2.8192922659699611e+00 1.9478094900317103e+01 1.0000000000000000e+00 1.0843104436292970e+01 8.3044638526241634e+00 4.6059234045895110e+00 
295 1 2 2.8192922659699611e+00 2.5519670910868356e+01 1.0000000000000000e+00 6.8457206696521835e+00 9.7162977174927860e+00 5.3625782598024960e+00 
111 1 2 2.8192922659699611e+00 3.3486972700040383e+01 1.0000000000000000e+00 1.0678713820279020e+01 5.4155518370820444e-01 7.0591242987355729e+00 
243 1 2 2.8192922659699611e+00 -1.4245517384025174e+01 1.0000000000000000e+00 7.9672153761026427e+00 1.6790309474518639e+00 6.4019041680707556e+00 
113 1 2 2.8192923170668989e+00 1.1556762673875950e+01 1.0000000000000000e+00 1.2312568415129137e+01 4.4684483088482105e+00 6.0901034098618227e+00 
257 1 2 2.8197372092665427e+00 2.7119003801627660e+01 1.0000000000000000e+00 7.6829553092107332e+00 5.8097410089928623e+00 7.1364329752728670e+00 
260 1 2 2.8193471179637397e+00 3.9704285159942692e+01 1.0000000000000000e+00 9.5877349547487789e+00 6.6905725982296449e+00 6.1066537242598118e+00 
44 1 2 2.8192922659699611e+00 2.0333981655011254e+01 1.0000000000000000e+00 6.7748996922787059e+00 3.6410770087135308e-01 8.0330521807737423e+00 
374 1 2 2.8192922659699611e+00 2.8909048125962236e+01 1.0000000000000000e+00 1.2802840166833526e+01 1.9604576093320660e+00 7.2199735725792635e+00 
126 1 2 2.8197372092665427e+00 2.3575625760122190e+01 1.0000000000000000e+00 9.0642024331670594e+00 4.6807088946648756e+00 7.7440520441394947e+00 
130 1 2 2.8193471179637397e+00 -1.0718079801099988e+02 1.0000000000000000e+00 9.3144193476095207e+00 8.0270567828356612e+00 7.4754211735714362e+00 
67 1 2 2.8192922659699611e+00 2.2357626181162786e+01 1.0000000000000000e+00 1.2486051636298605e+01 8.5842612135805503e+00 8.5036372738194910e+00 
264 1 2 2.8192922659699611e+00 2.2525470412869701e+01 1.0000000000000000e+00 1.3316966503747238e+01 4.1690540432153984e+00 8.6282674565268493e+00 
353 1 2 2.8192922659699611e+00 2.4571907108095473e+01 1.0000000000000000e+00 9.3521312755828294e+00 6.6837416479331706e+00 9.0857410347355945e+00 
320 1 2 2.8192922659699611e+00 -5.4328059733117783e+01 1.0000000000000000e+00 1.1708891766638803e+01 6.4897127652387896e+00 9.5572931672844152e+00 
205 1 2 2.8192922659699611e+00 1.9224990479476094e+01 1.0000000000000000e+00 6.9117471810091153e+00 7.2402478734801727e+00 9.7637697435152511e+00 
160 1 2 2.8192922659699611e+00 8.3021864821809430e+00 1.0000000000000000e+00 6.8871175426167550e+00 9.8511519777806402e+00 9.0828766366834550e+00 
161 1 2 2.8192922659699611e+00 6.9742390932735319e+00 1.0000000000000000e+00 9.7924404119378057e+00 9.4410143593983893e+00 9.8295005964364375e+00 
249 1 2 2.8192922659699611e+00 2.7062551514080710e+01 1.0000000000000000e+00 1.1034245207898538e+01 2.6972747349960530e-01 1.0233743836495520e+01 
278 1 2 2.8192922659699611e+00 2.9158741136385807e+01 1.0000000000000000e+00 1.2442225183451086e+01 1.9770517494571511e+00 1.0360913415703800e+01 
138 1 2 2.8193781333985175e+00 -2.0905691947411235e+01 1.0000000000000000e+00 1.2366023978398307e+01 4.0763086896121914e+00 1.0735068303952076e+01 
96 1 2 2.8192922659699611e+00 3.4651819245359661e+01 1.0000000000000000e+00 8.4948550009159725e+00 6.8026089346465479e+00 1.0936194847913312e+01 
314 1 2 2.8193084099846999e+00 2.4461392213267771e+01 1.0000000000000000e+00 8.1033468585177193e+00 1.0183586227577759e+00 1.2605299901895194e+01 
311 1 2 2.8192922659699611e+00 3.2286277888668778e+01 1.0000000000000000e+00 8.7508834328265159e+00 2.6676458964600602e+00 1.1515566064810779e+01 
143 1 2 2.8193781333985175e+00 -5.6803559678012228e+00 1.0000000000000000e+00 1.1045888580416847e+01 4.1052591246899572e+00 1.2134754055154827e+01 
288 1 2 2.8192922659699611e+00 -2.6089561032104186e+01 1.0000000000000000e+00 1.1072545561965264e+01 6.3909436299613462e+00 1.2079062486427103e+01 
70 1 2 2.8192922659699611e+00 2.7132816623413742e+01 1.0000000000000000e+00 6.8508142118171333e+00 9.6897157973605932e+00 1.1550542146656374e+01 
383 1 2 2.8192922659699611e+00 2.8330837116205629e+01 1.0000000000000000e+00 1.2450086433277715e+01 9.8646935228235613e+00 1.2013437741113126e+01 
149 1 2 2.8192942234209517e+00 1.6021751866236848e+01 1.0000000000000000e+00 1.1891393916882249e+01 5.3412686687133326e-01 1.3620959441406889e+01 
58 1 2 2.8192922659699611e+00 3.3294192588596033e+01 1.0000000000000000e+00 6.7724882428881932e+00 2.6571246120462053e+00 1.3867786829448802e+01 
333 1 2 2.8192922659699611e+00 2.5981307454918610e+01 1.0000000000000000e+00 1.3092496361159814e+01 3.0733989604862768e+00 1.3001358308427509e+01 
317 1 2 2.8192922659699611e+00 -6.0533806629873457e+00 1.0000000000000000e+00 7.5631222883499296e+00 5.2781930359195561e+00 1.3413795116235578e+01 
316 1 2 2.8192922659699611e+00 4.9847163644684320e+00 1.0000000000000000e+00 9.5048428644104828e+00 9.1425212242128495e+00 1.3131648443022417e+01 
38 1 2 2.8192922659699611e+00 2.3304268836425287e+01 1.0000000000000000e+00 9.3644891751764607e+00 1.8038445325038817e+00 1.4609404199925883e+01 
212 1 2 2.8192922659699611e+00 2.6699424007329625e+01 1.0000000000000000e+00 1.1576833714248805e+01 5.1014542304676134e+00 1.4945072480692152e+01 
247 1 2 2.8192922659699611e+00 2.7296470047174033e+01 1.0000000000000000e+00 9.0544751408030759e+00 7.8507451357527884e+00 1.5225696909550074e+01 
334 1 2 2.8192922659699611e+00 2.5438574588171157e+01 1.0000000000000000e+00 1.1336059172734680e+01 7.4905507452437927e+00 1.4329285529864109e+01 
186 1 2 2.8192922659699611e+00 -8.2045350456167405e+00 1.0000000000000000e+00 6.7958240449755918e+00 9.8132437589899322e+00 1.5255770886777698e+01 
3 1 2 2.8192922659699611e+00 2.9538612308356612e+01 1.0000000000000000e+00 8.9186636634479015e+00 9.9219885898923259e+00 1.5520867054028599e+01 
12 1 2 2.8192938622681707e+00 2.6841809917714539e+01 1.0000000000000000e+00 1.1803442263821379e+01 9.7165180193965792e+00 1.5625237486247496e+01 
373 1 2 2.8192993619796884e+00 2.0422183016864370e+01 1.0000000000000000e+00 7.3595975467789536e+00 1.2976431638371004e+00 1.6800633903530681e+01 
242 1 2 2.8192922659699611e+00 -6.4372314481160027e+00 1.0000000000000000e+00 8.9555283653976012e+00 3.4079972161373870e+00 1.5961473256745974e+01 
207 1 2 2.8192922659699611e+00 -1.9242838290781599e+00 1.0000000000000000e+00 7.1717961426554515e+00 7.2016039504776197e+00 1.6194210211887835e+01 
216 1 2 2.8192938622681707e+00 2.0253614451752426e+01 1.0000000000000000e+00 1.1083658737837405e+01 8.2525834642632656e+00 1.6733919599605983e+01 
182 1 2 2.8193004533935162e+00 2.1797598793823369e+01 1.0000000000000000e+00 8.6024148561186102e+00 9.4002390247458167e-01 1.8273028256277968e+01 
347 1 2 2.8192933573837888e+00 2.1333045818748406e+01 1.0000000000000000e+00 8.0339899155026639e+00 2.8025198367394535e+00 1.7943786307625096e+01 
47 1 2 2.8192922659699611e+00 2.2574039395716042e+01 1.0000000000000000e+00 7.0587316339191570e+00 4.9943975717138969e+00 1.7624661704380777e+01 
346 1 2 2.8192922659699611e+00 3.8514743895443132e+01 1.0000000000000000e+00 1.0003863476283085e+01 4.4561829108346380e+00 1.8205598829969489e+01 
142 1 2 2.8192922659750574e+00 2.8067818086689535e+01 1.0000000000000000e+00 1.2610863790733612e+01 7.2117910125689102e+00 1.7651436860437482e+01 
268 1 2 2.8192990177430985e+00 2.5195107028019251e+01 1.0000000000000000e+00 6.8028951604864751e+00 9.4694025133504294e+00 1.7690656450228627e+01 
89 1 2 2.8192922659699611e+00 2.3619353639023029e+01 1.0000000000000000e+00 6.7389146661712225e+00 1.0482054166659138e+00 1.9149957082099483e+01 
31 1 2 2.8192922659699611e+00 -1.1401752262746203e+02 1.0000000000000000e+00 1.2363002514217879e+01 5.9493643401118679e-01 1.9086673322204110e+01 
265 1 2 2.8192922659699611e+00 2.6655001275945558e+01 1.0000000000000000e+00 1.1749300525331668e+01 3.1111995976764444e+00 1.9992527177712077e+01 
341 1 2 2.8192996899010141e+00 2.2712188890226532e+01 1.0000000000000000e+00 7.0874985302101710e+00 6.9475796832435828e+00 1.9291637145963779e+01 
365 1 2 2.8192922659699611e+00 2.7313570593117845e+01 1.0000000000000000e+00 1.1050398252665875e+01 9.5263412761280719e+00 1.9264408725272087e+01 
222 1 2 2.8192922659699611e+00 -9.0236421722709423e+01 1.0000000000000000e+00 9.7291332968107245e+00 1.1302474814622681e+01 7.8479812467986210e-01 
280 1 2 2.8192922659699611e+00 2.2240865471927336e+01 1.0000000000000000e+00 1.3262605936202050e+01 1.2371164623203395e+01 3.2440389285107568e-01 
59 1 2 2.8195347248561307e+00 2.6055630096186999e+01 1.0000000000000000e+00 1.1201979280577403e+01 1.3160104860261100e+01 6.8349746632457276e-01 
263 1 2 2.8192922659699611e+00 2.4219861524449238e-01 1.0000000000000000e+00 7.7117290646777192e+00 1.5620992443504884e+01 1.1883206113148213e+00 
340 1 2 2.8192922659699611e+00 2.8632940012810920e+01 1.0000000000000000e+00 9.2455806438050789e+00 1.6932329139876572e+01 6.6927515942471050e-01 
162 1 2 2.8192922659699611e+00 2.3628568991220213e+01 1.0000000000000000e+00 1.2183036986654292e+01 1.7407154321391122e+01 9.0867626857244788e-01 
164 1 2 2.8192922659699611e+00 2.2906491281936937e+01 1.0000000000000000e+00 1.0265159228958323e+01 1.0141895831540014e+01 2.4173679659727485e+00 
284 1 2 2.8195286819546159e+00 1.5615729268902781e+01 1.0000000000000000e+00 1.2079110110431932e+01 1.2370101492142082e+01 2.1746829673741495e+00 