LAMMPS data file via write_data, version 30 Jul 2016, timestep = 50000000

384 atoms
2 atom types

0.0000000000000000e+00 2.0000000000000000e+01 xlo xhi
0.0000000000000000e+00 2.0000000000000000e+01 ylo yhi
0.0000000000000000e+00 2.0000000000000000e+01 zlo zhi

Masses

1 3.89
2 10.47

Atoms # meso-molecular

116 1 2 2.8192923102632088e+00 2.5668505073993213e+01 1.0000000000000000e+00 2.5152371142117658e+00 1.6507651063982955e+00 4.9957571938062641e-02 
227 1 2 2.8192922659699611e+00 -2.6637878120232394e+01 1.0000000000000000e+00 3.1602791994024115e+00 3.6707095398307397e+00 8.5448184232306679e-01 
194 1 2 2.8192922659699611e+00 -1.2826021926885915e+02 1.0000000000000000e+00 3.8616871670988857e+00 6.8302500831483801e+00 1.4150883637724634e+00 
174 1 2 2.8192922659699611e+00 2.9326941557637298e+01 1.0000000000000000e+00 6.3456095296730464e+00 8.5217819990861710e+00 8.2059524627105174e-01 
262 1 2 2.8192922659699611e+00 -7.2448533367291759e+01 1.0000000000000000e+00 2.0733667774936348e+00 9.6116965620060082e+00 7.3863937977722810e-02 
121 1 2 2.8192922659699611e+00 2.7666416543379519e+01 1.0000000000000000e+00 4.8046455297595623e+00 9.0175261603033452e-01 1.8386769988749756e+00 
109 1 2 2.8193170074486416e+00 -5.6605555642147401e+01 1.0000000000000000e+00 6.6595290786479211e+00 1.9850655637768673e+00 2.1965457705110674e+00 
246 1 2 2.8192922659699611e+00 2.7699824663687032e+01 1.0000000000000000e+00 7.2344010124457281e-01 5.5550103510771365e+00 1.5433318566765857e+00 
208 1 2 2.8192922659699611e+00 3.7125887901050348e+01 1.0000000000000000e+00 5.3587259433886203e+00 6.4486720102072876e+00 2.8507554638049992e+00 
356 1 2 2.8192931736141027e+00 1.5560074463515464e+01 1.0000000000000000e+00 6.1019860877251491e+00 1.8295566708639963e-01 3.9977705397369490e+00 
104 1 2 2.8193170074486416e+00 -5.0516100158898309e+00 1.0000000000000000e+00 6.0488018107529848e+00 2.9038665259739060e+00 3.7981023113201950e+00 
33 1 2 2.8193015706620064e+00 2.5108657106656782e+01 1.0000000000000000e+00 5.5671749407915989e+00 9.2723249786098680e+00 3.0023157947531596e+00 
381 1 2 2.8192922659699611e+00 4.6615016696977463e+01 1.0000000000000000e+00 4.1063503220636921e+00 3.5221707037424936e+00 4.2946766980596216e+00 
372 1 2 2.8192922659699611e+00 2.8832836744050660e+01 1.0000000000000000e+00 2.3298689289272487e+00 6.4711179856598262e+00 5.2986688915718352e+00 
154 1 2 2.8192922659699611e+00 3.8434840609292493e+01 1.0000000000000000e+00 3.7471000954049671e+00 7.8705944714091114e+00 4.9029979310598142e+00 
209 1 2 2.8192922659699611e+00 2.9075367807790897e+01 1.0000000000000000e+00 5.8716013817447643e-01 9.9363361162707147e+00 5.3142562425311359e+00 
342 1 2 2.8192922659699611e+00 2.7442532808292697e+01 1.0000000000000000e+00 2.0892332486243865e+00 7.5040765068838799e-01 6.3780484434379217e+00 
299 1 2 2.8192922659699611e+00 2.7976026655290788e+01 1.0000000000000000e+00 5.6375259184112758e-01 2.4168707818384969e+00 7.1354759684271523e+00 
255 1 2 2.8192922659699611e+00 2.7339738027256828e+01 1.0000000000000000e+00 5.3017062311149710e+00 3.8534376726441546e+00 5.8716518918218075e+00 
156 1 2 2.8192991783439374e+00 3.4300857078670042e+01 1.0000000000000000e+00 1.8758824616442156e+00 4.5176719475184761e+00 6.3980111890344080e+00 
321 1 2 2.8192991783439374e+00 1.4815271434522208e+01 1.0000000000000000e+00 8.4074234989989294e-01 6.1154151953444096e+00 6.8645282344945056e+00 
64 1 2 2.8193808431464031e+00 2.6794946761058149e+01 1.0000000000000000e+00 5.1363946034851491e+00 6.0384540858772286e+00 6.3812386377983987e+00 
185 1 2 2.8192922659699611e+00 8.7612620736776350e+00 1.0000000000000000e+00 4.4885585983302656e+00 8.0697477100549564e-01 8.1715803789435650e+00 
197 1 2 2.8192922659699611e+00 2.8263616890856966e+01 1.0000000000000000e+00 3.6622218760397898e+00 4.6107958109684759e+00 8.2716488523012401e+00 
236 1 2 2.8193808431464031e+00 -1.5397122657595830e+02 1.0000000000000000e+00 5.7810879045345676e+00 4.7531237546951433e+00 7.6591384679578773e+00 
34 1 2 2.8192922659699611e+00 2.3478228938458358e+01 1.0000000000000000e+00 3.1359792687902264e+00 7.0188796248918441e+00 7.4829449742884400e+00 
158 1 2 2.8192922659699611e+00 2.9049022714805453e+01 1.0000000000000000e+00 5.7068170016323725e+00 7.5792679459695984e+00 7.6309875236523341e+00 
105 1 2 2.8192922659699611e+00 2.9671373417799067e+01 1.0000000000000000e+00 1.4414685733237496e+00 9.3599145723185426e+00 7.9478805632247127e+00 
343 1 2 2.8192922659699611e+00 1.5559570428638395e+01 1.0000000000000000e+00 1.2140385013186730e+00 1.5902237085196425e+00 9.4675277675612364e+00 
214 1 2 2.8192922659699611e+00 8.7628941905550555e+00 1.0000000000000000e+00 1.9933964759892937e+00 4.1954092936854943e+00 9.8338268394760906e+00 
233 1 2 2.8192922659699611e+00 2.5715672903392480e+01 1.0000000000000000e+00 7.0887486032028935e-01 7.2593907741230197e+00 8.5913753587330888e+00 
80 1 2 2.8192922659699611e+00 3.3004286291550926e+01 1.0000000000000000e+00 3.1063781702479415e-01 9.3846710044182107e+00 9.6192876326208374e+00 
193 1 2 2.8192922659699611e+00 3.6089547787866948e+01 1.0000000000000000e+00 3.4389327122037874e+00 9.1180747325459244e+00 8.6471638261410693e+00 
318 1 2 2.8192922659699611e+00 1.3251828539369598e+01 1.0000000000000000e+00 6.2140332084324017e+00 9.4676745134247380e+00 9.4314838130259435e+00 
131 1 2 2.8192922943128758e+00 2.1188081940711474e+01 1.0000000000000000e+00 2.0960630854701376e+00 6.1853226026036072e+00 1.1370323976548232e+01 
202 1 2 2.8192922659699611e+00 1.7148119467916672e+01 1.0000000000000000e+00 4.8143346564873184e+00 6.7457998776855170e+00 1.0013073298407472e+01 
73 1 2 2.8193020372621156e+00 2.5255743860266826e+01 1.0000000000000000e+00 5.7316307526599468e+00 3.3589784435412624e+00 1.2248950954594687e+01 
22 1 2 2.8192922659699611e+00 2.4470777692212636e+01 1.0000000000000000e+00 6.0848900324814403e+00 7.4888335214286164e+00 1.1591434578687943e+01 
382 1 2 2.8192922659699611e+00 1.7651881675488625e+01 1.0000000000000000e+00 1.5340743823120855e+00 8.6409706215629161e+00 1.2057193728236991e+01 
40 1 2 2.8192925031544567e+00 -9.9727053354297244e+00 1.0000000000000000e+00 5.1721746242292692e+00 3.6599884382461312e-01 1.4281369258003339e+01 
48 1 2 2.8192922943128758e+00 2.9627601615173372e+01 1.0000000000000000e+00 1.3800197353732273e+00 6.2005935620858637e+00 1.3226869507938122e+01 
258 1 2 2.8192922659699611e+00 2.4090997476456685e+01 1.0000000000000000e+00 4.9637344479089771e+00 6.8135531857968230e+00 1.3172029320830555e+01 
245 1 2 2.8192922659699611e+00 2.4739884073724411e+01 1.0000000000000000e+00 2.3136794425660714e+00 8.2935926884148898e+00 1.3867396208330112e+01 
314 1 2 2.8192922659699611e+00 2.4449460664144439e+01 1.0000000000000000e+00 2.4877652182170524e+00 2.7338316462963901e+00 1.4977733660647315e+01 
228 1 2 2.8192922706437229e+00 2.8418663329946316e+01 1.0000000000000000e+00 5.5744196786715774e+00 3.4760849143883426e+00 1.4676364553423058e+01 
207 1 2 2.8192922706437229e+00 -1.9253486878986079e+00 1.0000000000000000e+00 5.9939243193783218e+00 5.4077484746806697e+00 1.4421391185421808e+01 
147 1 2 2.8192922659699611e+00 -1.8060678280124409e+02 1.0000000000000000e+00 7.9592681365235307e-01 6.7851781803280362e+00 1.5298862365213667e+01 
186 1 2 2.8192922659699611e+00 -8.2060943624997371e+00 1.0000000000000000e+00 5.2873057053132735e+00 8.6191362400023284e+00 1.4662498852662919e+01 
349 1 2 2.8192922659699611e+00 1.2967752971683950e+01 1.0000000000000000e+00 2.8281047777696076e+00 8.1796443837119670e-01 1.6045949083124139e+01 
6 1 2 2.8192922659699611e+00 2.1797640744891368e+01 1.0000000000000000e+00 9.3408973609541168e-01 2.6859809091972937e+00 1.6526690954774885e+01 
256 1 2 2.8192922659699611e+00 2.0098010284282182e+01 1.0000000000000000e+00 3.8209411682714305e+00 5.9523027978149639e+00 1.5835288917090312e+01 
19 1 2 2.8192922659699611e+00 3.0136123406286373e+01 1.0000000000000000e+00 5.4906164688165715e+00 7.2435414697780613e+00 1.6942189418416746e+01 
309 1 2 2.8192922659699611e+00 2.1800686698656342e+01 1.0000000000000000e+00 2.1482182973382540e+00 8.6611737383132397e+00 1.5850482099960134e+01 
359 1 2 2.8192923102632088e+00 3.1673276497714284e+01 1.0000000000000000e+00 3.3967205562546865e+00 1.9718453072505528e+00 1.8296465845281986e+01 
266 1 2 2.8193249279058925e+00 3.3954407971527928e+01 1.0000000000000000e+00 6.2275116275631666e+00 1.4709343759331615e+00 1.8211952350437699e+01 
376 1 2 2.8192922659699611e+00 3.4933158410702703e+01 1.0000000000000000e+00 1.6557434437853025e+00 5.0052844237647740e+00 1.7679506551231398e+01 
61 1 2 2.8192922659699611e+00 3.0659392341158252e+01 1.0000000000000000e+00 6.3775694471681810e-01 8.0668529827370090e+00 1.7666923156780385e+01 
248 1 2 2.8192922659699611e+00 -7.7181094709262851e+01 1.0000000000000000e+00 4.4962092215486997e+00 8.1815290305013342e+00 1.8564273876186693e+01 
250 1 2 2.8193249279058925e+00 2.6836538250112977e+01 1.0000000000000000e+00 5.2200621900776563e+00 9.5870196915401218e-01 1.9789694086037130e+01 
101 1 2 2.8192922659699611e+00 -2.9516207168561913e+01 1.0000000000000000e+00 5.6039705524999546e+00 4.0159124712262031e+00 1.8701673461889477e+01 
98 1 2 2.8192922659699611e+00 2.4359339643450433e+01 1.0000000000000000e+00 2.3209276286761056e+00 6.6825396376442567e+00 1.9239698095754431e+01 
47 1 2 2.8192922659699611e+00 2.2573615301227946e+01 1.0000000000000000e+00 4.1932961711963044e+00 5.7892276661429607e+00 1.8665077847281577e+01 
323 1 2 2.8192922659699611e+00 3.0757534328569740e+01 1.0000000000000000e+00 1.1532642760495415e+00 1.3434617706638216e+01 4.5698470518287143e-01 
218 1 2 2.8192922659699611e+00 2.3243565066870900e+01 1.0000000000000000e+00 3.3092852405917750e+00 1.4124564912937240e+01 8.5742476112407395e-01 
117 1 2 2.8192922659699611e+00 2.8611444534007560e+01 1.0000000000000000e+00 1.6422941830104505e+00 1.7308366974625439e+01 2.7539012174273808e-01 
56 1 2 2.8193288451797205e+00 2.4459876225303365e+01 1.0000000000000000e+00 4.9057922549170341e+00 1.7279061593849750e+01 1.5906274196051243e-01 
55 1 2 2.8192922659699611e+00 2.8179819629684978e+01 1.0000000000000000e+00 2.8743222836127074e+00 1.9314015268101510e+01 2.0572194893456872e-01 
276 1 2 2.8192922659699611e+00 1.8784742613918240e+01 1.0000000000000000e+00 3.9854615135630276e+00 1.1748346419101477e+01 1.8436765702064020e+00 
234 1 2 2.8192922659699611e+00 6.9407975659157106e+00 1.0000000000000000e+00 5.7641018780813713e+00 1.3539245427175565e+01 1.9693050895062987e+00 
159 1 2 2.8192922659699611e+00 9.5270155587627521e+00 1.0000000000000000e+00 4.1894137457562204e+00 1.4986026250317405e+01 2.6491269043899126e+00 
273 1 2 2.8193015706620064e+00 1.1521844948865239e+01 1.0000000000000000e+00 4.7118752421282659e+00 1.0713654622209717e+01 4.0125458912558036e+00 
52 1 2 2.8194126949485341e+00 -3.6106518046019843e+01 1.0000000000000000e+00 1.6372907788833269e+00 1.6441224920688171e+01 3.5372111698459037e+00 
225 1 2 2.8194126949485341e+00 2.7117878494389444e+01 1.0000000000000000e+00 3.4271648202091614e+00 1.7003952048884397e+01 3.9327385372580546e+00 
5 1 2 2.8192922659699611e+00 2.3645675118739156e+01 1.0000000000000000e+00 4.5629998907651608e+00 1.9069519954030845e+01 3.1882792093017054e+00 
24 1 2 2.8192922659687034e+00 2.7134034209222573e+01 1.0000000000000000e+00 3.4614363978551270e+00 1.3378242194584304e+01 5.4547724666116384e+00 
298 1 2 2.8192922659699611e+00 2.3688316344071623e+01 1.0000000000000000e+00 4.2106167069018250e+00 1.5340418044825448e+01 4.7730807940202489e+00 
37 1 2 2.8192922659699611e+00 1.8689792787631362e+01 1.0000000000000000e+00 6.1019200627962222e+00 1.7648401496004475e+01 4.7337624938811569e+00 
91 1 2 2.8193533587571915e+00 2.4565359237805371e+01 1.0000000000000000e+00 5.8683862746637727e+00 1.1000415012849523e+01 6.7397445031023269e+00 
306 1 2 2.8192922659687034e+00 2.8272448884549117e+01 1.0000000000000000e+00 5.3002624737008279e+00 1.3483379431075294e+01 6.2334863141631169e+00 
195 1 2 2.8192922659699611e+00 1.6642448964670123e+01 1.0000000000000000e+00 8.7010231030385199e-01 1.6228794660122702e+01 5.7226095088689819e+00 
282 1 2 2.8192922659699611e+00 1.8100132112285344e+01 1.0000000000000000e+00 2.9948250534034373e+00 1.6150825238643087e+01 6.3947205356365293e+00 
172 1 2 2.8192922659699611e+00 -5.7843036234014463e+01 1.0000000000000000e+00 2.2866567834903178e+00 1.8132669060608265e+01 5.7478838439761235e+00 
238 1 2 2.8192922659699611e+00 2.9012137261250494e+01 1.0000000000000000e+00 5.1500855443916227e-01 1.9420995024625032e+01 6.7530497143409240e+00 
51 1 2 2.8192922659699611e+00 3.1098380436860317e+01 1.0000000000000000e+00 3.9648951851104636e-01 1.1410347234714431e+01 7.4217593168087586e+00 
179 1 2 2.8192922659699611e+00 1.2863761372208209e+01 1.0000000000000000e+00 3.1246830036388005e+00 1.0811540288491797e+01 7.2142031993314948e+00 
375 1 2 2.8192923691795029e+00 2.6787073916086097e+01 1.0000000000000000e+00 2.6549768102713296e+00 1.7631497306859139e+01 8.2318834561260790e+00 
300 1 2 2.8192922659699611e+00 2.8146399415645355e+01 1.0000000000000000e+00 4.1586483712904645e+00 1.8731161776523855e+01 7.4027864362779043e+00 
26 1 2 2.8192922659699611e+00 2.0409080209263578e+01 1.0000000000000000e+00 2.2210117389022193e+00 1.5599883907562196e+01 8.9508470229057089e+00 
175 1 2 2.8192922659699611e+00 1.9756552188749232e+01 1.0000000000000000e+00 4.1899006751335541e+00 1.4345339179594907e+01 9.7838292775775315e+00 
361 1 2 2.8192923691795029e+00 2.4075040818918854e+01 1.0000000000000000e+00 4.3258564672686761e+00 1.6689390627102519e+01 8.7474173756881637e+00 
289 1 2 2.8192994262043376e+00 2.9459736637291851e+01 1.0000000000000000e+00 6.5918202075274639e+00 1.5957252031102090e+01 9.2160568088107482e+00 
190 1 2 2.8192922659699611e+00 2.0924250142782945e+01 1.0000000000000000e+00 6.8425012020103038e-02 1.9456853662472867e+01 8.8238990117042473e+00 
243 1 2 2.8192922659699611e+00 -1.4246042422407328e+01 1.0000000000000000e+00 5.0908814041982602e+00 1.9455465416435533e+01 9.7120230762522244e+00 
46 1 2 2.8192922659699611e+00 2.1081383831896673e+01 1.0000000000000000e+00 1.9424172152110142e+00 1.1188737731782227e+01 1.0718630921982026e+01 
145 1 2 2.8192922659699611e+00 2.5625165039777286e+01 1.0000000000000000e+00 4.4182749267708950e+00 1.1877399358255488e+01 1.0784331992135160e+01 
351 1 2 2.8192922659699611e+00 2.6211644356829048e+01 1.0000000000000000e+00 3.9707009262166630e-02 1.4642655046547301e+01 1.0111482919484976e+01 
201 1 2 2.8192994262043376e+00 2.8745797200590982e+01 1.0000000000000000e+00 5.7900842319669605e+00 1.5121947250194632e+01 1.0797093923510962e+01 
53 1 2 2.8192922659699611e+00 -3.6355386357101622e+01 1.0000000000000000e+00 5.3050627769428109e+00 1.7353478468575730e+01 1.0394450605974374e+01 
270 1 2 2.8194364397920402e+00 -7.3734841736729379e+01 1.0000000000000000e+00 8.6188092209786016e-01 1.4236037663397704e+01 1.2642800746696995e+01 
99 1 2 2.8193087459059600e+00 2.3210906933908682e+01 1.0000000000000000e+00 2.6886133418644080e+00 1.4453709340902067e+01 1.1995480807283551e+01 
176 1 2 2.8192992516324167e+00 2.9495421291890626e+01 1.0000000000000000e+00 2.4429401919688996e+00 1.6701675823923935e+01 1.1768945746622197e+01 
108 1 2 2.8192922659699611e+00 -1.9042906473413069e+01 1.0000000000000000e+00 5.5417112674581457e+00 1.6359328857079518e+01 1.2535916435503932e+01 
7 1 2 2.8192922659699611e+00 3.1847841649030549e+01 1.0000000000000000e+00 4.2352411880265634e-01 1.7724382209555358e+01 1.1723476970193495e+01 
44 1 2 2.8192992516324167e+00 2.0338431330709600e+01 1.0000000000000000e+00 3.3022416702066204e+00 1.8446698739166042e+01 1.2009804653799907e+01 
78 1 2 2.8192922659699611e+00 2.4377362766903794e+01 1.0000000000000000e+00 1.7634438940299468e+00 1.9974902092512849e+01 1.2318885031752876e+01 
87 1 2 2.8192922659699611e+00 1.6804792007865906e+01 1.0000000000000000e+00 1.5492078531952307e+00 1.0159259317549845e+01 1.3419368643399695e+01 
355 1 2 2.8192922659699611e+00 2.8267108762312731e+01 1.0000000000000000e+00 5.7263755572743031e+00 1.3192428931015193e+01 1.3547594544516873e+01 
102 1 2 2.8192922659699611e+00 -8.8052749932222213e+01 1.0000000000000000e+00 1.9528188289394954e+00 1.5178368119028727e+01 1.4249936781723344e+01 
373 1 2 2.8192922659699611e+00 2.0415398966763590e+01 1.0000000000000000e+00 5.2747068561427071e+00 1.8847665807363743e+01 1.2960181362845599e+01 
25 1 2 2.8194894609763304e+00 2.2104823237511681e+01 1.0000000000000000e+00 1.4971196826957223e+00 1.2035498047200001e+01 1.5284585285805822e+01 
8 1 2 2.8194900059879680e+00 9.8584178012478745e+00 1.0000000000000000e+00 3.1150955810715131e-01 1.3506189640989387e+01 1.5540937327221073e+01 
63 1 2 2.8192922659699611e+00 1.9737770575702498e+01 1.0000000000000000e+00 4.2043566316928018e+00 1.5701669771911778e+01 1.4722877983525567e+01 
305 1 2 2.8192922659699611e+00 2.7033549302789432e+01 1.0000000000000000e+00 9.1300787943820039e-01 1.8524420952358376e+01 1.4365393298924282e+01 
140 1 2 2.8192922659699611e+00 3.1274244025987016e+01 1.0000000000000000e+00 2.7874950059899342e+00 1.7606649630030905e+01 1.4540390552515179e+01 
49 1 2 2.8192925031544567e+00 3.1449343241293047e+01 1.0000000000000000e+00 6.0443849357715056e+00 1.8673306313564389e+01 1.4834445991727618e+01 
139 1 2 2.8192992991625778e+00 -1.1545285549897393e+02 1.0000000000000000e+00 4.8669065790176189e+00 1.0511967801773924e+01 1.6441514831601417e+01 
329 1 2 2.8192992991625778e+00 -3.3783603494653476e+00 1.0000000000000000e+00 4.9791677982463600e+00 1.2439606031866495e+01 1.6776973227163872e+01 
271 1 2 2.8192922659699611e+00 2.9572050568064220e+01 1.0000000000000000e+00 2.6110584258011804e+00 1.3110558550147994e+01 1.6988025994277024e+01 
133 1 2 2.8192922659699611e+00 3.7962665774026489e+00 1.0000000000000000e+00 5.9651135830122728e+00 1.4380198662925149e+01 1.6137652170043786e+01 
240 1 2 2.8192922659699611e+00 1.8703145905023796e+01 1.0000000000000000e+00 1.7762301353124016e-01 1.6975775239627787e+01 1.6403402344805187e+01 
177 1 2 2.8192922658427095e+00 4.4339762828906739e+00 1.0000000000000000e+00 1.8206664677445672e+00 1.8382181446048584e+01 1.6578871762463677e+01 
69 1 2 2.8192922717953874e+00 6.1457860127070623e+00 1.0000000000000000e+00 6.4900878661578396e+00 1.7653490519036769e+01 1.6856153540894947e+01 
377 1 2 2.8192922659699611e+00 1.3363201629280425e+01 1.0000000000000000e+00 2.6250384586140880e+00 1.0020536776899871e+01 1.7720894537148187e+01 
144 1 2 2.8192922659699611e+00 2.7444449666711328e+01 1.0000000000000000e+00 1.1239008277210620e+00 1.5055734768946806e+01 1.8553259683325344e+01 
293 1 2 2.8192922658427095e+00 1.2313782572425803e+01 1.0000000000000000e+00 2.1817455904896219e+00 1.6936311759922692e+01 1.7910149441380856e+01 
294 1 2 2.8193288510051464e+00 2.6239333381242318e+01 1.0000000000000000e+00 5.0977635817554701e+00 1.7718605136029712e+01 1.8280265430694779e+01 
86 1 2 2.8192922659699611e+00 4.4037858641436021e+00 1.0000000000000000e+00 4.2040906137914336e+00 1.3385722178930381e+01 1.8662931976560944e+01 
362 1 2 2.8192922659699611e+00 1.7847380596801713e+01 1.0000000000000000e+00 2.8388582746006970e+00 1.5835976499867840e+01 1.9554620393751765e+01 
281 1 2 2.8192922659699611e+00 -5.2033562952200839e+01 1.0000000000000000e+00 6.1420314539247800e-01 1.8955942177743271e+01 1.9634512939507125e+01 
212 1 2 2.8192922659699611e+00 2.6697856645475582e+01 1.0000000000000000e+00 1.2461576344183420e+01 2.5502814814169921e+00 9.3372561817085586e-01 
31 1 2 2.8192922659699611e+00 -1.1401850494614979e+02 1.0000000000000000e+00 1.0404721776419702e+01 5.5192957757607859e+00 9.5803833016565909e-01 
92 1 2 2.8192955039180143e+00 2.1256185394962600e+01 1.0000000000000000e+00 1.2498076214087680e+01 6.0894303448978055e+00 5.1223075361720505e-01 
199 1 2 2.8192922659699611e+00 -1.0075018981275027e+03 1.0000000000000000e+00 1.0471282350990544e+01 7.9500988130682595e+00 1.0647090085640871e+00 
182 1 2 2.8192922659699611e+00 2.1788877415055893e+01 1.0000000000000000e+00 1.0343814545098761e+01 1.8776244661693327e+00 1.5072595810554605e+00 
21 1 2 2.8192922659699611e+00 3.3515059061526344e+01 1.0000000000000000e+00 8.6088476204921847e+00 4.6046844760845129e+00 2.4189905622470600e+00 
137 1 2 2.8192922659699611e+00 2.7891067169502875e+01 1.0000000000000000e+00 1.3028988245274839e+01 7.9347990925429999e+00 1.5211261335567436e+00 
328 1 2 2.8193126763744853e+00 2.3909686646332911e+01 1.0000000000000000e+00 8.0451656934575873e+00 1.2409190211653072e-01 3.6445269659468091e+00 
17 1 2 2.8192922659699611e+00 5.2475999506174489e+01 1.0000000000000000e+00 1.1554931291268701e+01 7.5079636474762945e-01 3.2943507178463669e+00 
279 1 2 2.8192922659699611e+00 2.9452452661415442e+01 1.0000000000000000e+00 1.2950502886550510e+01 5.6722577655832023e+00 3.5539250861764029e+00 
29 1 2 2.8192922659699611e+00 3.1593769986864533e+01 1.0000000000000000e+00 7.7804693372633729e+00 6.6676572737159283e+00 3.4971212768763280e+00 
229 1 2 2.8193302150324842e+00 -7.2087461626983668e+01 1.0000000000000000e+00 9.1685629835468205e+00 6.1030912505575219e-01 5.1599940139283742e+00 
169 1 2 2.8193289875203891e+00 2.7849742940686639e+01 1.0000000000000000e+00 1.2762234751152640e+01 1.2503053448169366e+00 5.0834686868125774e+00 
43 1 2 2.8192922659699611e+00 3.4194279680318971e+01 1.0000000000000000e+00 8.9785201118084004e+00 2.7079429047561909e+00 5.5902189052362434e+00 
264 1 2 2.8193289875203891e+00 2.2542861052249656e+01 1.0000000000000000e+00 1.2858343514086078e+01 3.1336574912505295e+00 5.5347838319250116e+00 
107 1 2 2.8192922659699611e+00 3.0161583752975659e+01 1.0000000000000000e+00 1.2215020929074266e+01 5.3600849391813901e+00 5.7117333512275392e+00 
136 1 2 2.8192922659699611e+00 2.1314907732980693e+01 1.0000000000000000e+00 1.0905667494866687e+01 6.3844252764483329e+00 4.4722917281921006e+00 
287 1 2 2.8192922659699611e+00 1.9476866744637398e+01 1.0000000000000000e+00 1.1082899794891727e+01 8.5703608723663098e+00 5.5010473556556656e+00 
200 1 2 2.8192922659699611e+00 4.8040010092028282e+01 1.0000000000000000e+00 8.4818462052051657e+00 8.7046329554025021e+00 4.5841060059942045e+00 
239 1 2 2.8193313625943186e+00 3.4952886923159461e+01 1.0000000000000000e+00 7.3607050296210277e+00 9.9778095614371809e-01 5.7758036651163369e+00 
82 1 2 2.8193129162921782e+00 2.7393017880510328e+01 1.0000000000000000e+00 7.4750109699998308e+00 2.5793261601023132e+00 6.9060567786261453e+00 
295 1 2 2.8192922659699611e+00 2.5519053498583226e+01 1.0000000000000000e+00 8.8790684155434096e+00 5.9530962014661002e+00 6.1884760909592336e+00 
122 1 2 2.8192922659699611e+00 2.1739765377662451e+01 1.0000000000000000e+00 1.0635994723902030e+01 1.2813090384480130e+00 7.1964217912301578e+00 
129 1 2 2.8192922659699611e+00 2.1212055603266208e+01 1.0000000000000000e+00 9.5626221935280125e+00 2.6756236163615132e+00 8.2975877845223742e+00 
113 1 2 2.8193017165597092e+00 1.1562324483832120e+01 1.0000000000000000e+00 1.1243509647738399e+01 3.5533401999318626e+00 7.3826673455228313e+00 
257 1 2 2.8192922659699611e+00 2.6993325254461510e+01 1.0000000000000000e+00 7.8864784688321006e+00 7.7879595795737186e+00 8.2102130397260105e+00 
20 1 2 2.8192922659699611e+00 3.0799956893890673e+01 1.0000000000000000e+00 1.2702017590285006e+01 7.3356743575527013e+00 7.6436018393847114e+00 
67 1 2 2.8192922659699611e+00 2.2356960316619805e+01 1.0000000000000000e+00 1.1884757850078891e+01 9.1842579905615480e+00 7.2984666543297099e+00 
23 1 2 2.8192922659699611e+00 2.9278008019816539e+01 1.0000000000000000e+00 1.1901037543498347e+01 2.1708367585618094e+00 9.0099940736900646e+00 
126 1 2 2.8192922659699611e+00 2.3448885772893156e+01 1.0000000000000000e+00 7.1386331739145792e+00 3.5662781058883279e+00 9.2285455686583582e+00 
205 1 2 2.8192923986199245e+00 1.9225025423216806e+01 1.0000000000000000e+00 9.1450722603855574e+00 5.5334000728994717e+00 9.9610991019650861e+00 
320 1 2 2.8193017165597092e+00 -5.4321657779876837e+01 1.0000000000000000e+00 1.1846478448087320e+01 4.6834066003818045e+00 8.8619438691605374e+00 
283 1 2 2.8192922659699611e+00 2.6123795398232652e+01 1.0000000000000000e+00 1.1157728825072944e+01 6.4613454566310757e+00 9.7542273376183957e+00 
112 1 2 2.8192922659699611e+00 2.8200648456234021e+01 1.0000000000000000e+00 1.2558906178594038e+01 1.2164732333872767e-01 1.1148624684150862e+01 
192 1 2 2.8192922659699611e+00 1.5629125986952985e+01 1.0000000000000000e+00 8.5555694953303032e+00 2.3458111761918365e+00 1.0712079019687261e+01 
96 1 2 2.8192922659699611e+00 3.4651360863775068e+01 1.0000000000000000e+00 1.1112394878174088e+01 1.8450607443691349e+00 1.1108043154616723e+01 
72 1 2 2.8192922659699611e+00 1.9533890347376058e+01 1.0000000000000000e+00 6.8565248378606354e+00 5.3232160361194261e+00 1.0242922858671621e+01 
134 1 2 2.8192922659699611e+00 2.3527549626012529e+01 1.0000000000000000e+00 1.2705298745448193e+01 4.4574837083711092e+00 1.1282755808000273e+01 
353 1 2 2.8192922659699611e+00 2.4571592198515688e+01 1.0000000000000000e+00 8.4585865627976471e+00 8.5175111348409445e+00 1.0064557049468757e+01 
383 1 2 2.8192922659699611e+00 2.8329971286164309e+01 1.0000000000000000e+00 1.2617091577451344e+01 9.5713538185559557e+00 1.1201602607216927e+01 
311 1 2 2.8192922760741261e+00 3.2284007542020682e+01 1.0000000000000000e+00 7.1083606687880101e+00 1.4185081151571730e+00 1.2736184972504228e+01 
317 1 2 2.8193020372621156e+00 -6.0483880476978351e+00 1.0000000000000000e+00 7.5119681273544385e+00 4.0326428159246017e+00 1.2700091285300809e+01 
70 1 2 2.8192923986199245e+00 2.7131753482306614e+01 1.0000000000000000e+00 9.6873463614486433e+00 5.6576818906501138e+00 1.1866978738792207e+01 
161 1 2 2.8192922659699611e+00 6.9738501902407926e+00 1.0000000000000000e+00 1.1194306421452342e+01 7.8945851250409262e+00 1.1530026385603845e+01 
130 1 2 2.8192922659699611e+00 -1.0720746466425936e+02 1.0000000000000000e+00 1.0192642124118908e+01 9.6276206239060951e+00 1.2176237372092427e+01 
125 1 2 2.8192944944623353e+00 2.6789043683977027e+01 1.0000000000000000e+00 8.2158438244511771e+00 1.7917126624226135e-01 1.4249044244809157e+01 
278 1 2 2.8192922659699611e+00 2.9157490312393861e+01 1.0000000000000000e+00 1.1533756128805692e+01 1.2101863991633179e+00 1.3711633250760741e+01 
143 1 2 2.8192922659699611e+00 -5.7173497781098312e+00 1.0000000000000000e+00 8.9446579505102708e+00 2.5191809717876676e+00 1.2974254969102629e+01 
38 1 2 2.8192922659699611e+00 2.3302408169312159e+01 1.0000000000000000e+00 1.0468624040289809e+01 4.1133247697002497e+00 1.3860045799673642e+01 
247 1 2 2.8192922659699611e+00 2.7295436978809541e+01 1.0000000000000000e+00 1.2930960213634901e+01 3.7874375822892317e+00 1.4218937753674803e+01 
93 1 2 2.8193003253145537e+00 -1.1885039774496258e+02 1.0000000000000000e+00 8.1958156787154479e+00 6.4149472210521097e+00 1.3028010568948339e+01 
296 1 2 2.8192922659699611e+00 -6.0150012819008452e+02 1.0000000000000000e+00 1.1889381045234254e+01 7.0084825298709683e+00 1.3911659345960503e+01 
316 1 2 2.8193003253145537e+00 4.9895629895868190e+00 1.0000000000000000e+00 9.3432187786897547e+00 7.9973052173074679e+00 1.3149545823432229e+01 
336 1 2 2.8192922659699611e+00 -7.4308668937510216e+00 1.0000000000000000e+00 1.3005280963370387e+01 1.2432717458642559e-01 1.5279891502158739e+01 
58 1 2 2.8192922760741261e+00 3.3293535843859679e+01 1.0000000000000000e+00 7.2007594616539707e+00 1.8540474647941294e+00 1.4677829721090133e+01 
160 1 2 2.8192922659699611e+00 8.2994772460932076e+00 1.0000000000000000e+00 7.1719434088260012e+00 7.1090796037318915e+00 1.5567854384690241e+01 
268 1 2 2.8192922659699611e+00 2.5188027756478256e+01 1.0000000000000000e+00 8.3936199255185233e+00 9.8025893611542028e+00 1.4359430964438214e+01 
135 1 2 2.8192941792899422e+00 3.1378880024319940e+01 1.0000000000000000e+00 1.0689286649306796e+01 1.2346858290266622e+00 1.7140113728425767e+01 
346 1 2 2.8192922659699611e+00 3.8512910627758828e+01 1.0000000000000000e+00 8.1366717503798256e+00 2.4122757434745661e+00 1.7003560282929360e+01 
89 1 2 2.8192943553251792e+00 2.3620632677143025e+01 1.0000000000000000e+00 1.1170534518632948e+01 2.6989200234057820e+00 1.5911362556318801e+01 
115 1 2 2.8192922657399442e+00 2.3908130906031563e+01 1.0000000000000000e+00 1.3139009275593128e+01 2.4626034058459969e+00 1.6154383718860611e+01 
347 1 2 2.8192922659699611e+00 2.1330707289405872e+01 1.0000000000000000e+00 7.5395528032992480e+00 4.3831562446110608e+00 1.6161274621253295e+01 
302 1 2 2.8192922659699611e+00 8.5858013125640085e+00 1.0000000000000000e+00 1.2201108698029481e+01 5.3478567662922432e+00 1.6137671740438879e+01 
341 1 2 2.8192922659699611e+00 2.2705094894483885e+01 1.0000000000000000e+00 8.6390691813855742e+00 8.1242802747478606e+00 1.6803035864237721e+01 
242 1 2 2.8192924422352150e+00 -6.4391012767811082e+00 1.0000000000000000e+00 1.0508879968018190e+01 4.0431311631058238e+00 1.7212305857053526e+01 
265 1 2 2.8192988121127600e+00 2.6659293626803237e+01 1.0000000000000000e+00 8.7847336653586936e+00 6.2794272256852945e+00 1.8261875073907998e+01 
142 1 2 2.8192922659699611e+00 2.8067407550076716e+01 1.0000000000000000e+00 1.1167301067110591e+01 7.7570133769664249e+00 1.7896337416828889e+01 
36 1 2 2.8192922659699611e+00 3.5266441680697270e+01 1.0000000000000000e+00 7.4312349287271138e+00 2.5280221056609475e+00 1.9540450303790976e+01 
286 1 2 2.8192988121127600e+00 -9.5768938842025776e+01 1.0000000000000000e+00 8.6637274142095055e+00 4.3565769675170545e+00 1.8624474152738657e+01 
358 1 2 2.8192955039180143e+00 2.7701988690576513e+01 1.0000000000000000e+00 1.2648377312032201e+01 5.3080146491564761e+00 1.8713351276574926e+01 
103 1 2 2.8192922659699611e+00 2.2068198735034578e+01 1.0000000000000000e+00 7.9604159060597208e+00 8.4660642424171630e+00 1.9438785901833494e+01 
272 1 2 2.8192922659699611e+00 2.2815455277356008e+01 1.0000000000000000e+00 1.1002963522915529e+01 9.5275900559637527e+00 1.9023154401670105e+01 
164 1 2 2.8192922659699611e+00 2.2905050548874549e+01 1.0000000000000000e+00 8.7920196887111324e+00 1.0146279585279789e+01 1.8978036825237929e-01 