LAMMPS data file via write_data, version 30 Jul 2016, timestep = 30700000

1920 atoms
8 atom types

0.0000000000000000e+00 4.0000000000000000e+01 xlo xhi
0.0000000000000000e+00 4.0000000000000000e+01 ylo yhi
0.0000000000000000e+00 1.0000000000000000e+02 zlo zhi

Masses

1 3.896
2 5.36
3 20.064
4 8.378
5 8.378
6 8.378
7 8.378
8 8.378

Atoms # meso-molecular

1 2 4 2.2559723595316457e+00 7.3187639774913049e-02 1.0000000000000000e+00 0.0000000000000000e+00 0.0000000000000000e+00 2.5000000000000000e+00 
21 2 4 2.2559723595316457e+00 1.6236311357431369e-09 1.0000000000000000e+00 2.0000000000000000e+00 0.0000000000000000e+00 2.5000000000000000e+00 
41 2 4 2.2559723595316457e+00 -9.0911968992389648e-05 1.0000000000000000e+00 4.0000000000000000e+00 0.0000000000000000e+00 2.5000000000000000e+00 
61 2 4 2.2559723595316457e+00 9.0987771333672853e-07 1.0000000000000000e+00 6.0000000000000000e+00 0.0000000000000000e+00 2.5000000000000000e+00 
81 2 4 2.2559723595316457e+00 -6.0254514367099932e-01 1.0000000000000000e+00 8.0000000000000000e+00 0.0000000000000000e+00 2.5000000000000000e+00 
101 2 4 2.2559723595316457e+00 -9.4569124444407993e-01 1.0000000000000000e+00 1.0000000000000000e+01 0.0000000000000000e+00 2.5000000000000000e+00 
121 2 4 2.2559723595316457e+00 1.2805843098440004e+00 1.0000000000000000e+00 1.2000000000000000e+01 0.0000000000000000e+00 2.5000000000000000e+00 
141 2 4 2.2559723595316457e+00 -3.0763498131707384e-01 1.0000000000000000e+00 1.4000000000000000e+01 0.0000000000000000e+00 2.5000000000000000e+00 
161 2 4 2.2559723595316457e+00 1.0240031930917977e+00 1.0000000000000000e+00 1.6000000000000000e+01 0.0000000000000000e+00 2.5000000000000000e+00 
181 2 4 2.2559723595316457e+00 -1.3583579678598964e-02 1.0000000000000000e+00 1.8000000000000000e+01 0.0000000000000000e+00 2.5000000000000000e+00 
2 2 4 2.2559723595316457e+00 -9.1810640663127803e+00 1.0000000000000000e+00 0.0000000000000000e+00 2.0000000000000000e+00 2.5000000000000000e+00 
22 2 4 2.2559723595316457e+00 4.1712878643168022e-10 1.0000000000000000e+00 2.0000000000000000e+00 2.0000000000000000e+00 2.5000000000000000e+00 
42 2 4 2.2559723595316457e+00 -5.9929342042100564e-06 1.0000000000000000e+00 4.0000000000000000e+00 2.0000000000000000e+00 2.5000000000000000e+00 
62 2 4 2.2559723595316457e+00 -1.6672332056384090e-04 1.0000000000000000e+00 6.0000000000000000e+00 2.0000000000000000e+00 2.5000000000000000e+00 
82 2 4 2.2559723595316457e+00 -4.8590452707564152e-02 1.0000000000000000e+00 8.0000000000000000e+00 2.0000000000000000e+00 2.5000000000000000e+00 
102 2 4 2.2559723595316457e+00 1.4628268665473748e-07 1.0000000000000000e+00 1.0000000000000000e+01 2.0000000000000000e+00 2.5000000000000000e+00 
122 2 4 2.2559723595316457e+00 2.5609097415516264e+00 1.0000000000000000e+00 1.2000000000000000e+01 2.0000000000000000e+00 2.5000000000000000e+00 
142 2 4 2.2559723595316457e+00 -2.4882552497021766e-02 1.0000000000000000e+00 1.4000000000000000e+01 2.0000000000000000e+00 2.5000000000000000e+00 
162 2 4 2.2559723595316457e+00 -1.2192554478322433e-05 1.0000000000000000e+00 1.6000000000000000e+01 2.0000000000000000e+00 2.5000000000000000e+00 
182 2 4 2.2559723595316457e+00 9.7526476024737199e-03 1.0000000000000000e+00 1.8000000000000000e+01 2.0000000000000000e+00 2.5000000000000000e+00 
3 2 4 2.2559723595316457e+00 2.4361806870609974e-06 1.0000000000000000e+00 0.0000000000000000e+00 4.0000000000000000e+00 2.5000000000000000e+00 
23 2 4 2.2559723595316457e+00 6.2100382255747431e-10 1.0000000000000000e+00 2.0000000000000000e+00 4.0000000000000000e+00 2.5000000000000000e+00 
43 2 4 2.2559723595316457e+00 5.6114151172079042e-09 1.0000000000000000e+00 4.0000000000000000e+00 4.0000000000000000e+00 2.5000000000000000e+00 
63 2 4 2.2559723595316457e+00 4.5317458921053458e-09 1.0000000000000000e+00 6.0000000000000000e+00 4.0000000000000000e+00 2.5000000000000000e+00 
83 2 4 2.2559723595316457e+00 3.8565398742922062e-10 1.0000000000000000e+00 8.0000000000000000e+00 4.0000000000000000e+00 2.5000000000000000e+00 
103 2 4 2.2559723595316457e+00 -6.3640199252389816e-06 1.0000000000000000e+00 1.0000000000000000e+01 4.0000000000000000e+00 2.5000000000000000e+00 
123 2 4 2.2559723595316457e+00 -4.2233522710583529e-08 1.0000000000000000e+00 1.2000000000000000e+01 4.0000000000000000e+00 2.5000000000000000e+00 
143 2 4 2.2559723595316457e+00 -1.2864703993026199e-04 1.0000000000000000e+00 1.4000000000000000e+01 4.0000000000000000e+00 2.5000000000000000e+00 
163 2 4 2.2559723595316457e+00 7.1347039596734929e-08 1.0000000000000000e+00 1.6000000000000000e+01 4.0000000000000000e+00 2.5000000000000000e+00 
183 2 4 2.2559723595316457e+00 5.6617863448161374e-02 1.0000000000000000e+00 1.8000000000000000e+01 4.0000000000000000e+00 2.5000000000000000e+00 
4 2 4 2.2559723595316457e+00 6.8319755251357013e-04 1.0000000000000000e+00 0.0000000000000000e+00 6.0000000000000000e+00 2.5000000000000000e+00 
24 2 4 2.2559723595316457e+00 -2.3359040902784987e-02 1.0000000000000000e+00 2.0000000000000000e+00 6.0000000000000000e+00 2.5000000000000000e+00 
44 2 4 2.2559723595316457e+00 2.0449105185081313e-09 1.0000000000000000e+00 4.0000000000000000e+00 6.0000000000000000e+00 2.5000000000000000e+00 
64 2 4 2.2559723595316457e+00 4.5477399338700825e-05 1.0000000000000000e+00 6.0000000000000000e+00 6.0000000000000000e+00 2.5000000000000000e+00 
84 2 4 2.2559723595316457e+00 2.7673684990851171e-03 1.0000000000000000e+00 8.0000000000000000e+00 6.0000000000000000e+00 2.5000000000000000e+00 
104 2 4 2.2559723595316457e+00 -6.2556479407568774e-03 1.0000000000000000e+00 1.0000000000000000e+01 6.0000000000000000e+00 2.5000000000000000e+00 
124 2 4 2.2559723595316457e+00 7.5503210917305040e-07 1.0000000000000000e+00 1.2000000000000000e+01 6.0000000000000000e+00 2.5000000000000000e+00 
144 2 4 2.2559723595316457e+00 1.3801856747399504e-07 1.0000000000000000e+00 1.4000000000000000e+01 6.0000000000000000e+00 2.5000000000000000e+00 
164 2 4 2.2559723595316457e+00 1.1683810094937308e-07 1.0000000000000000e+00 1.6000000000000000e+01 6.0000000000000000e+00 2.5000000000000000e+00 
184 2 4 2.2559723595316457e+00 -2.0883991125842383e-01 1.0000000000000000e+00 1.8000000000000000e+01 6.0000000000000000e+00 2.5000000000000000e+00 
5 2 4 2.2559723595316457e+00 3.8942627360367799e-10 1.0000000000000000e+00 0.0000000000000000e+00 8.0000000000000000e+00 2.5000000000000000e+00 
25 2 4 2.2559723595316457e+00 -3.2388556782572235e-02 1.0000000000000000e+00 2.0000000000000000e+00 8.0000000000000000e+00 2.5000000000000000e+00 
45 2 4 2.2559723595316457e+00 1.2381393139770433e-09 1.0000000000000000e+00 4.0000000000000000e+00 8.0000000000000000e+00 2.5000000000000000e+00 
65 2 4 2.2559723595316457e+00 6.1036897337525625e-07 1.0000000000000000e+00 6.0000000000000000e+00 8.0000000000000000e+00 2.5000000000000000e+00 
85 2 4 2.2559723595316457e+00 1.6076427523027189e-09 1.0000000000000000e+00 8.0000000000000000e+00 8.0000000000000000e+00 2.5000000000000000e+00 
105 2 4 2.2559723595316457e+00 -2.5150886761218776e-02 1.0000000000000000e+00 1.0000000000000000e+01 8.0000000000000000e+00 2.5000000000000000e+00 
125 2 4 2.2559723595316457e+00 2.8132209682887019e-07 1.0000000000000000e+00 1.2000000000000000e+01 8.0000000000000000e+00 2.5000000000000000e+00 
145 2 4 2.2559723595316457e+00 2.2149222504956958e+00 1.0000000000000000e+00 1.4000000000000000e+01 8.0000000000000000e+00 2.5000000000000000e+00 
165 2 4 2.2559723595316457e+00 3.1018024405515869e+00 1.0000000000000000e+00 1.6000000000000000e+01 8.0000000000000000e+00 2.5000000000000000e+00 
185 2 4 2.2559723595316457e+00 -7.5882245085051836e-01 1.0000000000000000e+00 1.8000000000000000e+01 8.0000000000000000e+00 2.5000000000000000e+00 
6 2 4 2.2559723595316457e+00 -1.0018197826399203e-01 1.0000000000000000e+00 0.0000000000000000e+00 1.0000000000000000e+01 2.5000000000000000e+00 
26 2 4 2.2559723595316457e+00 5.0033661808629407e-10 1.0000000000000000e+00 2.0000000000000000e+00 1.0000000000000000e+01 2.5000000000000000e+00 
46 2 4 2.2559723595316457e+00 3.5189171911424574e-08 1.0000000000000000e+00 4.0000000000000000e+00 1.0000000000000000e+01 2.5000000000000000e+00 
66 2 4 2.2559723595316457e+00 8.4465954606338267e-08 1.0000000000000000e+00 6.0000000000000000e+00 1.0000000000000000e+01 2.5000000000000000e+00 
86 2 4 2.2559723595316457e+00 -7.3775817757019819e-05 1.0000000000000000e+00 8.0000000000000000e+00 1.0000000000000000e+01 2.5000000000000000e+00 
106 2 4 2.2559723595316457e+00 8.4087013778826286e-04 1.0000000000000000e+00 1.0000000000000000e+01 1.0000000000000000e+01 2.5000000000000000e+00 
126 2 4 2.2559723595316457e+00 2.2193899872742433e-07 1.0000000000000000e+00 1.2000000000000000e+01 1.0000000000000000e+01 2.5000000000000000e+00 
146 2 4 2.2559723595316457e+00 4.0663136166082256e-04 1.0000000000000000e+00 1.4000000000000000e+01 1.0000000000000000e+01 2.5000000000000000e+00 
166 2 4 2.2559723595316457e+00 3.8608008305188353e-03 1.0000000000000000e+00 1.6000000000000000e+01 1.0000000000000000e+01 2.5000000000000000e+00 
186 2 4 2.2559723595316457e+00 -9.7050566485222400e-01 1.0000000000000000e+00 1.8000000000000000e+01 1.0000000000000000e+01 2.5000000000000000e+00 
7 2 4 2.2559723595316457e+00 2.7188809806774261e-01 1.0000000000000000e+00 0.0000000000000000e+00 1.2000000000000000e+01 2.5000000000000000e+00 
27 2 4 2.2559723595316457e+00 -1.2304547138767180e-01 1.0000000000000000e+00 2.0000000000000000e+00 1.2000000000000000e+01 2.5000000000000000e+00 
47 2 4 2.2559723595316457e+00 2.7615498194528854e-02 1.0000000000000000e+00 4.0000000000000000e+00 1.2000000000000000e+01 2.5000000000000000e+00 
67 2 4 2.2559723595316457e+00 6.0121186350292097e-09 1.0000000000000000e+00 6.0000000000000000e+00 1.2000000000000000e+01 2.5000000000000000e+00 
87 2 4 2.2559723595316457e+00 1.0123176261928603e-06 1.0000000000000000e+00 8.0000000000000000e+00 1.2000000000000000e+01 2.5000000000000000e+00 
107 2 4 2.2559723595316457e+00 -1.1667412454482331e-02 1.0000000000000000e+00 1.0000000000000000e+01 1.2000000000000000e+01 2.5000000000000000e+00 
127 2 4 2.2559723595316457e+00 4.7563049891575754e-02 1.0000000000000000e+00 1.2000000000000000e+01 1.2000000000000000e+01 2.5000000000000000e+00 
147 2 4 2.2559723595316457e+00 5.5002037285975134e-04 1.0000000000000000e+00 1.4000000000000000e+01 1.2000000000000000e+01 2.5000000000000000e+00 
167 2 4 2.2559723595316457e+00 3.8720000098467247e+00 1.0000000000000000e+00 1.6000000000000000e+01 1.2000000000000000e+01 2.5000000000000000e+00 
187 2 4 2.2559723595316457e+00 -2.8521722620942526e-03 1.0000000000000000e+00 1.8000000000000000e+01 1.2000000000000000e+01 2.5000000000000000e+00 
8 2 4 2.2559723595316457e+00 -7.9612877293528755e-02 1.0000000000000000e+00 0.0000000000000000e+00 1.4000000000000000e+01 2.5000000000000000e+00 
28 2 4 2.2559723595316457e+00 -2.5893271470791152e-01 1.0000000000000000e+00 2.0000000000000000e+00 1.4000000000000000e+01 2.5000000000000000e+00 
48 2 4 2.2559723595316457e+00 1.7985419032907049e-09 1.0000000000000000e+00 4.0000000000000000e+00 1.4000000000000000e+01 2.5000000000000000e+00 
68 2 4 2.2559723595316457e+00 -6.7994494342960636e-05 1.0000000000000000e+00 6.0000000000000000e+00 1.4000000000000000e+01 2.5000000000000000e+00 
88 2 4 2.2559723595316457e+00 -2.3083186395182509e-04 1.0000000000000000e+00 8.0000000000000000e+00 1.4000000000000000e+01 2.5000000000000000e+00 
108 2 4 2.2559723595316457e+00 4.3835879721249946e-03 1.0000000000000000e+00 1.0000000000000000e+01 1.4000000000000000e+01 2.5000000000000000e+00 
128 2 4 2.2559723595316457e+00 -4.0289160889504074e-03 1.0000000000000000e+00 1.2000000000000000e+01 1.4000000000000000e+01 2.5000000000000000e+00 
148 2 4 2.2559723595316457e+00 -3.8052664501065866e-04 1.0000000000000000e+00 1.4000000000000000e+01 1.4000000000000000e+01 2.5000000000000000e+00 
168 2 4 2.2559723595316457e+00 -3.7603861376391712e-01 1.0000000000000000e+00 1.6000000000000000e+01 1.4000000000000000e+01 2.5000000000000000e+00 
188 2 4 2.2559723595316457e+00 1.0751126703119557e-03 1.0000000000000000e+00 1.8000000000000000e+01 1.4000000000000000e+01 2.5000000000000000e+00 
9 2 4 2.2559723595316457e+00 3.7250973566186114e+00 1.0000000000000000e+00 0.0000000000000000e+00 1.6000000000000000e+01 2.5000000000000000e+00 
29 2 4 2.2559723595316457e+00 1.1363497902344890e-09 1.0000000000000000e+00 2.0000000000000000e+00 1.6000000000000000e+01 2.5000000000000000e+00 
49 2 4 2.2559723595316457e+00 6.5484326932456823e-09 1.0000000000000000e+00 4.0000000000000000e+00 1.6000000000000000e+01 2.5000000000000000e+00 
69 2 4 2.2559723595316457e+00 -5.9558561864412975e-06 1.0000000000000000e+00 6.0000000000000000e+00 1.6000000000000000e+01 2.5000000000000000e+00 
89 2 4 2.2559723595316457e+00 -5.3742396044602000e-03 1.0000000000000000e+00 8.0000000000000000e+00 1.6000000000000000e+01 2.5000000000000000e+00 
109 2 4 2.2559723595316457e+00 -3.1925736917728760e-05 1.0000000000000000e+00 1.0000000000000000e+01 1.6000000000000000e+01 2.5000000000000000e+00 
129 2 4 2.2559723595316457e+00 -1.5509952143112992e-02 1.0000000000000000e+00 1.2000000000000000e+01 1.6000000000000000e+01 2.5000000000000000e+00 
149 2 4 2.2559723595316457e+00 -9.2548701759485597e-03 1.0000000000000000e+00 1.4000000000000000e+01 1.6000000000000000e+01 2.5000000000000000e+00 
169 2 4 2.2559723595316457e+00 -2.6070594538321014e-03 1.0000000000000000e+00 1.6000000000000000e+01 1.6000000000000000e+01 2.5000000000000000e+00 
189 2 4 2.2559723595316457e+00 -5.3201121690748740e-05 1.0000000000000000e+00 1.8000000000000000e+01 1.6000000000000000e+01 2.5000000000000000e+00 
10 2 4 2.2559723595316457e+00 8.1549107307308135e-08 1.0000000000000000e+00 0.0000000000000000e+00 1.8000000000000000e+01 2.5000000000000000e+00 
30 2 4 2.2559723595316457e+00 1.3280024813646115e-09 1.0000000000000000e+00 2.0000000000000000e+00 1.8000000000000000e+01 2.5000000000000000e+00 
50 2 4 2.2559723595316457e+00 5.5204030051717232e-10 1.0000000000000000e+00 4.0000000000000000e+00 1.8000000000000000e+01 2.5000000000000000e+00 
70 2 4 2.2559723595316457e+00 3.9917141516451062e+00 1.0000000000000000e+00 6.0000000000000000e+00 1.8000000000000000e+01 2.5000000000000000e+00 
90 2 4 2.2559723595316457e+00 1.6396873553495750e+00 1.0000000000000000e+00 8.0000000000000000e+00 1.8000000000000000e+01 2.5000000000000000e+00 
110 2 4 2.2559723595316457e+00 9.8774689775830111e-10 1.0000000000000000e+00 1.0000000000000000e+01 1.8000000000000000e+01 2.5000000000000000e+00 
130 2 4 2.2559723595316457e+00 -1.7581924077096957e-05 1.0000000000000000e+00 1.2000000000000000e+01 1.8000000000000000e+01 2.5000000000000000e+00 
150 2 4 2.2559723595316457e+00 5.2960240517184681e-05 1.0000000000000000e+00 1.4000000000000000e+01 1.8000000000000000e+01 2.5000000000000000e+00 
170 2 4 2.2559723595316457e+00 9.2261490045999095e-04 1.0000000000000000e+00 1.6000000000000000e+01 1.8000000000000000e+01 2.5000000000000000e+00 
190 2 4 2.2559723595316457e+00 -3.4901890459229073e-03 1.0000000000000000e+00 1.8000000000000000e+01 1.8000000000000000e+01 2.5000000000000000e+00 
531 133 2 1.0279999950923160e+00 -5.1487401547041036e+03 1.0000000000000000e+00 7.3842874960752107e+00 9.6398298718919762e+00 5.4530673694003040e+00 
1008 610 2 1.0280000025844478e+00 1.8097539632366602e+03 1.0000000000000000e+00 3.7115299809784879e+00 1.1082702214069450e+01 5.4480251105694872e+00 
1614 1216 2 1.0280000026052629e+00 -1.5094941812968164e+03 1.0000000000000000e+00 3.7113897363043056e+00 1.1082934643978827e+01 5.4480253943961614e+00 
1039 641 2 1.0279999694710433e+00 1.0992596479702879e+03 1.0000000000000000e+00 5.8582217603382993e+00 1.1607577226263160e+01 5.7044043627273302e+00 
584 186 2 1.0279999720978172e+00 -1.7099789521704095e+03 1.0000000000000000e+00 6.2691297016957686e+00 1.1996850098857538e+01 5.4959732036816416e+00 
478 80 2 1.0279999983436392e+00 -5.2311591982529080e+03 1.0000000000000000e+00 2.9048009468507399e-02 1.2173093251275148e+01 5.5505368772107335e+00 
776 378 2 1.0279999953768515e+00 -1.1448540511246513e+03 1.0000000000000000e+00 1.3926376154781037e+00 1.2525842064019818e+01 5.8359757198129545e+00 
580 182 2 1.0280000197455545e+00 2.2831271489028345e+03 1.0000000000000000e+00 5.1459988491696729e+00 1.2902625778781822e+01 5.5346906953544046e+00 
631 233 2 1.0279999965801621e+00 1.9789067277613092e+03 1.0000000000000000e+00 9.4930311646472330e+00 1.3639442774536654e+01 5.4411750503684670e+00 
489 91 2 1.0279999981462953e+00 2.8256601637035005e+03 1.0000000000000000e+00 4.1138083386690316e-01 1.5230913462456593e+01 5.4929297458483388e+00 
893 495 2 1.0279999923594496e+00 5.1344500270475883e+03 1.0000000000000000e+00 1.8924474492418055e+00 1.4979568694095899e+01 5.4434314596727686e+00 
740 342 2 1.0280000055783476e+00 -7.5578866132568081e+01 1.0000000000000000e+00 3.3861458100349919e+00 1.5574654932147991e+01 5.4266599447869703e+00 
616 218 2 1.0279999936615130e+00 -7.7971866904229762e+02 1.0000000000000000e+00 9.1489238570245650e+00 1.4039997494643698e+01 5.6851751520438540e+00 
517 119 2 1.0280000030628440e+00 2.5247517850637446e+03 1.0000000000000000e+00 7.2259803331500656e+00 1.9645167367905977e+01 5.6290242087066389e+00 
1885 1487 2 1.0280000025856588e+00 2.5271041079377583e+03 1.0000000000000000e+00 7.2832768897456459e+00 1.9622783635881863e+01 5.6245167456426204e+00 
511 113 2 1.0279999967713420e+00 -8.2560668834113803e+03 1.0000000000000000e+00 8.9693883048178566e+00 1.9978408994155057e+01 5.5699942520082635e+00 
1895 1497 2 1.0280000018331308e+00 -9.3291169394394474e+03 1.0000000000000000e+00 1.0361374098885840e+01 1.9427646866383519e+01 5.6240125067173423e+00 
527 129 2 1.0280000021890034e+00 -9.2985968586564504e+03 1.0000000000000000e+00 1.0484051065145128e+01 1.9544045047502912e+01 5.5901409692656125e+00 
1139 741 2 1.0280000019016460e+00 1.2541972692382928e+03 1.0000000000000000e+00 7.9072252373736562e-01 1.4777024242007739e+00 7.5362448382640972e+00 
1254 856 2 1.0279999996314912e+00 4.2549018988933558e+03 1.0000000000000000e+00 8.7093278914900329e-01 1.3079073450600800e+00 7.3261627055041023e+00 
435 37 2 1.0280000078243838e+00 -6.1341716443990981e+03 1.0000000000000000e+00 1.7373398218669405e+00 9.9379188380120738e+00 6.6036170243232899e+00 
1797 1399 2 1.0280000031924688e+00 3.2874547757387340e+03 1.0000000000000000e+00 2.7727503783654952e+00 9.9148091768161244e+00 6.0975793268227880e+00 
1887 1489 2 1.0279999699713274e+00 -6.1074595260965471e+03 1.0000000000000000e+00 3.4358885507405272e+00 9.8180521905083804e+00 7.6201751263963935e+00 
1620 1222 2 1.0280000059029881e+00 3.4606186630879856e+03 1.0000000000000000e+00 7.0501596549195122e+00 9.4656920491106611e+00 6.0062383653434877e+00 
1808 1410 2 1.0280000218166470e+00 3.7593222491699607e+03 1.0000000000000000e+00 7.3069581818577101e+00 9.5527879416081429e+00 7.6390626730278468e+00 
1193 795 2 1.0279999961920456e+00 -1.0760740127712575e+03 1.0000000000000000e+00 8.7616080356629489e+00 9.7012933641244068e+00 6.3392440764251985e+00 
488 90 2 1.0279999932858188e+00 3.8894056149482290e+03 1.0000000000000000e+00 8.1012929915693677e-01 1.0331518397192070e+01 6.9387234304623826e+00 
913 515 2 1.0279999924196521e+00 7.9836606518697718e+03 1.0000000000000000e+00 2.2985779975090801e+00 1.1723485047444010e+01 6.8237207680942129e+00 
413 15 2 1.0280000072829949e+00 -1.4410736867909768e+03 1.0000000000000000e+00 6.1124096446062630e+00 1.0786158483992837e+01 7.8225084005111363e+00 
1682 1284 2 1.0279999932460662e+00 1.5726148084559818e+03 1.0000000000000000e+00 8.6831254531677686e+00 1.0360544437270800e+01 5.9106024389462197e+00 
1451 1053 2 1.0279999860809073e+00 -2.1809920307864359e+03 1.0000000000000000e+00 9.9673971240715868e+00 1.1125367459270533e+01 6.8561629099126691e+00 
1441 1043 2 1.0279999987287771e+00 3.2570725502006630e+03 1.0000000000000000e+00 1.0274448817847480e+01 1.1552506948256331e+01 7.6125137399003195e+00 
1485 1087 2 1.0279999958116166e+00 -7.2547857787703799e+02 1.0000000000000000e+00 1.6845035666324950e+00 1.2963170727018033e+01 6.4834437685639346e+00 
1687 1289 2 1.0280000051026772e+00 1.0762758150057857e+03 1.0000000000000000e+00 3.3384671954865768e+00 1.3305816197782558e+01 7.4269898206488980e+00 
1915 1517 2 1.0280000082094196e+00 2.0639198226018206e+02 1.0000000000000000e+00 3.6172264101842320e+00 1.2886780459608348e+01 7.3612318421786993e+00 
642 244 2 1.0280000114307120e+00 2.2637808410058756e+03 1.0000000000000000e+00 4.9039518702083811e+00 1.3620664726630459e+01 6.3324320288892135e+00 
416 18 2 1.0280000057849223e+00 -1.4594613085738656e+03 1.0000000000000000e+00 7.5837319636179217e+00 1.2128726562756743e+01 7.1226351368880092e+00 
1544 1146 2 1.0280000028903522e+00 -2.3216531375424624e+03 1.0000000000000000e+00 7.3996134749762277e+00 1.2294157166098815e+01 7.1544358765053850e+00 
1695 1297 2 1.0280000188036336e+00 1.9257853374410406e+03 1.0000000000000000e+00 8.3974450999427983e+00 1.3116659965737894e+01 6.1017367638790141e+00 
822 424 2 1.0280000123532711e+00 -5.0939421030698668e+03 1.0000000000000000e+00 1.0925828294716666e+01 1.2348070854220749e+01 6.7998506672993706e+00 
995 597 2 1.0279999896025191e+00 -2.1859206349020146e+03 1.0000000000000000e+00 1.0255389084643310e+01 1.2962681959882881e+01 7.0093171653986994e+00 
959 561 2 1.0280000069927682e+00 3.0446039678718871e+03 1.0000000000000000e+00 1.7780152162170233e+00 1.5729270241270710e+01 5.9816691342021358e+00 
892 494 2 1.0279999667541697e+00 6.8780472476526111e+03 1.0000000000000000e+00 3.6599922989883580e+00 1.4185203675241231e+01 5.8932123472650595e+00 
786 388 2 1.0280000105136280e+00 -4.9357404383949361e+03 1.0000000000000000e+00 3.1319281057137331e+00 1.5948636806353775e+01 7.4851748993563438e+00 
1530 1132 2 1.0280000091100128e+00 -2.7165695121519793e+03 1.0000000000000000e+00 4.5643408715219218e+00 1.5416360293955185e+01 6.6532419176257216e+00 
1073 675 2 1.0279999906002302e+00 -4.5778402044366485e+03 1.0000000000000000e+00 3.3646505503033950e+00 1.6764990973374555e+01 6.3614150230848869e+00 
629 231 2 1.0279999959102424e+00 -8.7045423521267026e+02 1.0000000000000000e+00 5.2240506834330436e+00 1.6732166150859825e+01 6.1653229360542259e+00 
1685 1287 2 1.0280000017760802e+00 -1.1126303338866819e+03 1.0000000000000000e+00 4.8867014983977244e+00 1.7888129984281896e+01 5.9594970543562535e+00 
795 397 2 1.0279999997124218e+00 -5.8990624006792023e+03 1.0000000000000000e+00 5.2969878946512505e+00 1.6844261820564167e+01 7.8124789334078031e+00 
540 142 2 1.0279999909490030e+00 -7.9750523343175576e+02 1.0000000000000000e+00 4.7521376231019358e-01 1.8232948812787459e+01 7.1354439774691381e+00 
471 73 2 1.0280000058293652e+00 -3.5084075793800757e+03 1.0000000000000000e+00 3.7067373036986928e-01 1.8635679146696475e+01 7.2886081170316084e+00 
1283 885 2 1.0279999918670040e+00 1.4635120570689571e+03 1.0000000000000000e+00 2.5724661887889546e+00 1.8198144355505228e+01 7.6932335456124763e+00 
1433 1035 2 1.0280000009860519e+00 2.9671766967272265e+03 1.0000000000000000e+00 2.6973336876792557e+00 1.9764642266157438e+01 7.3092232720267951e+00 
1048 650 2 1.0279999929142754e+00 -2.5723237286598883e+03 1.0000000000000000e+00 4.7260104044045548e+00 1.9078194582541894e+01 6.3002966301321681e+00 
744 346 2 1.0280000036716155e+00 1.3767248984509104e+03 1.0000000000000000e+00 4.2169531915781482e+00 1.9406847117077575e+01 6.2473073140456856e+00 
1452 1054 2 1.0280000040849142e+00 5.0558178651017333e+03 1.0000000000000000e+00 3.0640847443515367e+00 9.0215803495743341e+00 8.5054099674645851e+00 
1873 1475 2 1.0280000012760948e+00 4.1265444261603816e+03 1.0000000000000000e+00 3.9141387216352959e+00 8.7037697230483673e+00 7.9934445383363988e+00 
1164 766 2 1.0279999924896353e+00 -2.0498916959983803e+03 1.0000000000000000e+00 4.2940848151194357e+00 9.0362829127332933e+00 9.6229070385458293e+00 
674 276 2 1.0280000133801284e+00 2.2924634209161868e+03 1.0000000000000000e+00 4.8027694154923806e+00 9.8608891555036404e+00 9.2138173101287286e+00 
1185 787 2 1.0279999890698339e+00 -1.7075169953302291e+03 1.0000000000000000e+00 6.4417372272996092e+00 9.1084282078871244e+00 9.0262030634662640e+00 
1372 974 2 1.0279999939234021e+00 7.5315258348849102e+03 1.0000000000000000e+00 7.0225708866170331e+00 8.9913763093658705e+00 8.6628645024845294e+00 
1556 1158 2 1.0280000210771161e+00 1.1276034853097927e+02 1.0000000000000000e+00 8.7571197731499584e-01 1.0956286269874171e+01 8.5547982644196416e+00 
944 546 2 1.0280000000207090e+00 6.3756163493900140e+03 1.0000000000000000e+00 7.5737634784311436e-01 1.1065578937005331e+01 8.7234730667979505e+00 
578 180 2 1.0280000001860914e+00 1.7087487223292662e+03 1.0000000000000000e+00 5.6047704280649082e+00 1.0616464878780224e+01 8.1334350190152165e+00 
655 257 2 1.0280000021681710e+00 2.2420828493125887e+03 1.0000000000000000e+00 4.2377697776971784e-01 1.5348933424109420e+01 8.4925457087626963e+00 
1415 1017 2 1.0279999999147909e+00 2.8885714911631326e+03 1.0000000000000000e+00 7.6173931539869277e-01 1.6306854399040770e+01 8.3197432813322347e+00 
1511 1113 2 1.0280000031208358e+00 -4.0605397099538609e+03 1.0000000000000000e+00 2.5048082249458750e+00 1.6504595512412553e+01 8.3177655831116990e+00 
496 98 2 1.0279999979464334e+00 2.8366846540285374e+03 1.0000000000000000e+00 2.4532464301206494e+00 1.7762271739468886e+01 8.3310300372166619e+00 
1156 758 2 1.0279999992999280e+00 1.0842272143019537e+02 1.0000000000000000e+00 5.1020189888600349e+00 1.6938622539880129e+01 7.8628617645515897e+00 
1780 1382 2 1.0280000014924351e+00 -6.4918356737798167e+03 1.0000000000000000e+00 9.7200350258389315e-02 1.9349126011635644e+01 9.7669274238280970e+00 
1314 916 2 1.0279999932228565e+00 -8.9437079625213676e+02 1.0000000000000000e+00 2.7672247350993948e+00 7.6765989389450695e+00 1.1231433132393228e+01 
1776 1378 2 1.0280000004074927e+00 2.4888338446320872e+03 1.0000000000000000e+00 2.9720313538857166e+00 7.9826551490793660e+00 1.1685178602262331e+01 
1318 920 2 1.0280000070687914e+00 -6.5857044962250234e+02 1.0000000000000000e+00 3.5327443166062471e+00 8.3807115583484055e+00 1.0794504710513683e+01 
1617 1219 2 1.0280000001922065e+00 2.9115465821041957e+03 1.0000000000000000e+00 5.8455791091425735e-01 1.3446050199559128e+01 1.0852492491647805e+01 
1465 1067 2 1.0280000006343406e+00 -3.4113391733236372e+03 1.0000000000000000e+00 6.1074075555120522e-01 1.3328280677893504e+01 1.0706697906561887e+01 
873 475 2 1.0279999999985532e+00 4.3722088211385353e+03 1.0000000000000000e+00 7.6955225882280347e+00 7.4210463003285181e+00 6.2725663224937371e+01 
1624 1226 2 1.0279999999963731e+00 1.7241342754431316e+03 1.0000000000000000e+00 8.2710818561184851e+00 5.4419268494097919e+00 6.3171412901766587e+01 
1621 1223 2 1.0280000000001668e+00 1.2367747617511113e+03 1.0000000000000000e+00 8.0431647927265981e+00 5.6567705257068690e+00 6.3062249123579676e+01 
1471 1073 2 1.0279999999986158e+00 3.2438898503945138e+03 1.0000000000000000e+00 9.7581690821806966e+00 4.8720879600769642e+00 6.4187047787993961e+01 
711 313 2 1.0279999999983735e+00 3.2441703013195120e+03 1.0000000000000000e+00 9.7632406201402677e+00 4.8751436572940436e+00 6.4182859258514227e+01 
588 190 2 1.0279999999790645e+00 -4.0972550382991517e+02 1.0000000000000000e+00 5.1521327922047009e+00 7.7158130115414147e+00 6.4124857115527348e+01 
577 179 2 1.0279999999900753e+00 2.0340522069588578e+03 1.0000000000000000e+00 4.6520189915251935e+00 7.8233751746108036e+00 6.4466956785761766e+01 
1901 1503 2 1.0280000000017808e+00 2.4115070912428664e+02 1.0000000000000000e+00 6.8496081406180549e+00 7.1123523393066943e+00 6.2900953049110562e+01 
544 146 2 1.0280000000217724e+00 -5.4319637599928719e+03 1.0000000000000000e+00 8.9252079142705725e+00 6.8349285895044742e+00 6.4544792381034057e+01 
992 594 2 1.0279999999982941e+00 4.2319095783912253e+03 1.0000000000000000e+00 1.0465246356548503e+01 6.7881250934393025e+00 6.4334738074430376e+01 
1045 647 2 1.0280000000046832e+00 -2.6178653486556736e+03 1.0000000000000000e+00 6.2963012648571528e+00 8.9754737481664222e+00 6.4456951541029923e+01 
1836 1438 2 1.0280000000017453e+00 3.5561338579930175e+03 1.0000000000000000e+00 6.7905408037752464e+00 8.6533201301405320e+00 6.3192050714626824e+01 
1183 785 2 1.0280000000005336e+00 1.3448042514023568e+03 1.0000000000000000e+00 7.2859351217583335e+00 8.0325573171966465e+00 6.4262797431146979e+01 
784 386 2 1.0280000000028968e+00 -2.2551345658319697e+03 1.0000000000000000e+00 7.5798646665675244e+00 3.5795408921881884e+00 6.6436851032163403e+01 
1903 1505 2 1.0279999999971456e+00 -1.1010174740604480e+03 1.0000000000000000e+00 7.9675796706892328e+00 3.7767076255708223e+00 6.6435930999402686e+01 
1785 1387 2 1.0279999999903469e+00 -3.8062439251608953e+02 1.0000000000000000e+00 9.8155238040506028e+00 2.7380271174260233e+00 6.6212256152686010e+01 
935 537 2 1.0280000000018177e+00 2.5230907685035349e+03 1.0000000000000000e+00 1.0637634491273880e+01 3.0577731311856193e+00 6.5844221310693385e+01 
1021 623 2 1.0279999999870675e+00 4.1073087281486196e+03 1.0000000000000000e+00 5.7635796259174576e-01 5.1387760642653237e+00 6.6288825418410866e+01 
604 206 2 1.0279999999655252e+00 -8.5106954418629255e+02 1.0000000000000000e+00 1.7977959022518082e+00 5.3078967629997340e+00 6.5373083511113705e+01 
805 407 2 1.0279999999768679e+00 -8.8743269421229434e+02 1.0000000000000000e+00 1.8619284592497192e+00 5.3984344249871601e+00 6.5435404012054462e+01 
1633 1235 2 1.0280000000738794e+00 -4.2497403656796683e+02 1.0000000000000000e+00 5.7059210713340986e+00 5.0278246914668809e+00 6.6297615484320872e+01 
725 327 2 1.0279999999696137e+00 -6.7335034437129309e+02 1.0000000000000000e+00 5.8808362024584495e+00 4.9742567183175330e+00 6.6308925091895873e+01 
918 520 2 1.0280000000015517e+00 -1.2425594635809095e+02 1.0000000000000000e+00 1.0572649500715292e+01 4.5743462820166396e+00 6.6025511353180875e+01 
1907 1509 2 1.0280000000694189e+00 -2.4465301552485234e+03 1.0000000000000000e+00 5.1562398803404594e+00 7.1558281127321859e+00 6.6081665058177691e+01 