LAMMPS data file via write_data, version 30 Jul 2016, timestep = 600000

967 atoms
8 atom types

0.0000000000000000e+00 4.0000000000000000e+01 xlo xhi
0.0000000000000000e+00 4.0000000000000000e+01 ylo yhi
0.0000000000000000e+00 1.0000000000000000e+02 zlo zhi

Masses

1 0.3896
2 0.4306
3 2.0064
4 0.8378
5 0.8378
6 0.8378
7 0.8378
8 0.8378

Atoms # meso-molecular

1 2 4 2.2559723595316458e-01 0.0000000000000000e+00 1.0000000000000000e+00 0.0000000000000000e+00 0.0000000000000000e+00 2.5000000000000000e+00 
21 2 4 2.2559723595316458e-01 0.0000000000000000e+00 1.0000000000000000e+00 2.0000000000000000e+00 0.0000000000000000e+00 2.5000000000000000e+00 
41 2 4 2.2559723595316458e-01 0.0000000000000000e+00 1.0000000000000000e+00 4.0000000000000000e+00 0.0000000000000000e+00 2.5000000000000000e+00 
61 2 4 2.2559723595316458e-01 0.0000000000000000e+00 1.0000000000000000e+00 6.0000000000000000e+00 0.0000000000000000e+00 2.5000000000000000e+00 
81 2 4 2.2559723595316458e-01 0.0000000000000000e+00 1.0000000000000000e+00 8.0000000000000000e+00 0.0000000000000000e+00 2.5000000000000000e+00 
101 2 4 2.2559723595316458e-01 0.0000000000000000e+00 1.0000000000000000e+00 1.0000000000000000e+01 0.0000000000000000e+00 2.5000000000000000e+00 
121 2 4 2.2559723595316458e-01 0.0000000000000000e+00 1.0000000000000000e+00 1.2000000000000000e+01 0.0000000000000000e+00 2.5000000000000000e+00 
141 2 4 2.2559723595316458e-01 0.0000000000000000e+00 1.0000000000000000e+00 1.4000000000000000e+01 0.0000000000000000e+00 2.5000000000000000e+00 
161 2 4 2.2559723595316458e-01 0.0000000000000000e+00 1.0000000000000000e+00 1.6000000000000000e+01 0.0000000000000000e+00 2.5000000000000000e+00 
181 2 4 2.2559723595316458e-01 0.0000000000000000e+00 1.0000000000000000e+00 1.8000000000000000e+01 0.0000000000000000e+00 2.5000000000000000e+00 
2 2 4 2.2559723595316458e-01 0.0000000000000000e+00 1.0000000000000000e+00 0.0000000000000000e+00 2.0000000000000000e+00 2.5000000000000000e+00 
22 2 4 2.2559723595316458e-01 0.0000000000000000e+00 1.0000000000000000e+00 2.0000000000000000e+00 2.0000000000000000e+00 2.5000000000000000e+00 
42 2 4 2.2559723595316458e-01 0.0000000000000000e+00 1.0000000000000000e+00 4.0000000000000000e+00 2.0000000000000000e+00 2.5000000000000000e+00 
62 2 4 2.2559723595316458e-01 0.0000000000000000e+00 1.0000000000000000e+00 6.0000000000000000e+00 2.0000000000000000e+00 2.5000000000000000e+00 
82 2 4 2.2559723595316458e-01 0.0000000000000000e+00 1.0000000000000000e+00 8.0000000000000000e+00 2.0000000000000000e+00 2.5000000000000000e+00 
102 2 4 2.2559723595316458e-01 0.0000000000000000e+00 1.0000000000000000e+00 1.0000000000000000e+01 2.0000000000000000e+00 2.5000000000000000e+00 
122 2 4 2.2559723595316458e-01 0.0000000000000000e+00 1.0000000000000000e+00 1.2000000000000000e+01 2.0000000000000000e+00 2.5000000000000000e+00 
142 2 4 2.2559723595316458e-01 0.0000000000000000e+00 1.0000000000000000e+00 1.4000000000000000e+01 2.0000000000000000e+00 2.5000000000000000e+00 
162 2 4 2.2559723595316458e-01 0.0000000000000000e+00 1.0000000000000000e+00 1.6000000000000000e+01 2.0000000000000000e+00 2.5000000000000000e+00 
182 2 4 2.2559723595316458e-01 0.0000000000000000e+00 1.0000000000000000e+00 1.8000000000000000e+01 2.0000000000000000e+00 2.5000000000000000e+00 
3 2 4 2.2559723595316458e-01 0.0000000000000000e+00 1.0000000000000000e+00 0.0000000000000000e+00 4.0000000000000000e+00 2.5000000000000000e+00 
23 2 4 2.2559723595316458e-01 0.0000000000000000e+00 1.0000000000000000e+00 2.0000000000000000e+00 4.0000000000000000e+00 2.5000000000000000e+00 
43 2 4 2.2559723595316458e-01 0.0000000000000000e+00 1.0000000000000000e+00 4.0000000000000000e+00 4.0000000000000000e+00 2.5000000000000000e+00 
63 2 4 2.2559723595316458e-01 0.0000000000000000e+00 1.0000000000000000e+00 6.0000000000000000e+00 4.0000000000000000e+00 2.5000000000000000e+00 
83 2 4 2.2559723595316458e-01 0.0000000000000000e+00 1.0000000000000000e+00 8.0000000000000000e+00 4.0000000000000000e+00 2.5000000000000000e+00 
103 2 4 2.2559723595316458e-01 0.0000000000000000e+00 1.0000000000000000e+00 1.0000000000000000e+01 4.0000000000000000e+00 2.5000000000000000e+00 
123 2 4 2.2559723595316458e-01 0.0000000000000000e+00 1.0000000000000000e+00 1.2000000000000000e+01 4.0000000000000000e+00 2.5000000000000000e+00 
143 2 4 2.2559723595316458e-01 0.0000000000000000e+00 1.0000000000000000e+00 1.4000000000000000e+01 4.0000000000000000e+00 2.5000000000000000e+00 
163 2 4 2.2559723595316458e-01 0.0000000000000000e+00 1.0000000000000000e+00 1.6000000000000000e+01 4.0000000000000000e+00 2.5000000000000000e+00 
183 2 4 2.2559723595316458e-01 0.0000000000000000e+00 1.0000000000000000e+00 1.8000000000000000e+01 4.0000000000000000e+00 2.5000000000000000e+00 
4 2 4 2.2559723595316458e-01 0.0000000000000000e+00 1.0000000000000000e+00 0.0000000000000000e+00 6.0000000000000000e+00 2.5000000000000000e+00 
24 2 4 2.2559723595316458e-01 0.0000000000000000e+00 1.0000000000000000e+00 2.0000000000000000e+00 6.0000000000000000e+00 2.5000000000000000e+00 
44 2 4 2.2559723595316458e-01 0.0000000000000000e+00 1.0000000000000000e+00 4.0000000000000000e+00 6.0000000000000000e+00 2.5000000000000000e+00 
64 2 4 2.2559723595316458e-01 0.0000000000000000e+00 1.0000000000000000e+00 6.0000000000000000e+00 6.0000000000000000e+00 2.5000000000000000e+00 
84 2 4 2.2559723595316458e-01 0.0000000000000000e+00 1.0000000000000000e+00 8.0000000000000000e+00 6.0000000000000000e+00 2.5000000000000000e+00 
104 2 4 2.2559723595316458e-01 0.0000000000000000e+00 1.0000000000000000e+00 1.0000000000000000e+01 6.0000000000000000e+00 2.5000000000000000e+00 
124 2 4 2.2559723595316458e-01 0.0000000000000000e+00 1.0000000000000000e+00 1.2000000000000000e+01 6.0000000000000000e+00 2.5000000000000000e+00 
144 2 4 2.2559723595316458e-01 0.0000000000000000e+00 1.0000000000000000e+00 1.4000000000000000e+01 6.0000000000000000e+00 2.5000000000000000e+00 
164 2 4 2.2559723595316458e-01 0.0000000000000000e+00 1.0000000000000000e+00 1.6000000000000000e+01 6.0000000000000000e+00 2.5000000000000000e+00 
184 2 4 2.2559723595316458e-01 0.0000000000000000e+00 1.0000000000000000e+00 1.8000000000000000e+01 6.0000000000000000e+00 2.5000000000000000e+00 
5 2 4 2.2559723595316458e-01 0.0000000000000000e+00 1.0000000000000000e+00 0.0000000000000000e+00 8.0000000000000000e+00 2.5000000000000000e+00 
25 2 4 2.2559723595316458e-01 0.0000000000000000e+00 1.0000000000000000e+00 2.0000000000000000e+00 8.0000000000000000e+00 2.5000000000000000e+00 
45 2 4 2.2559723595316458e-01 0.0000000000000000e+00 1.0000000000000000e+00 4.0000000000000000e+00 8.0000000000000000e+00 2.5000000000000000e+00 
65 2 4 2.2559723595316458e-01 0.0000000000000000e+00 1.0000000000000000e+00 6.0000000000000000e+00 8.0000000000000000e+00 2.5000000000000000e+00 
85 2 4 2.2559723595316458e-01 0.0000000000000000e+00 1.0000000000000000e+00 8.0000000000000000e+00 8.0000000000000000e+00 2.5000000000000000e+00 
105 2 4 2.2559723595316458e-01 0.0000000000000000e+00 1.0000000000000000e+00 1.0000000000000000e+01 8.0000000000000000e+00 2.5000000000000000e+00 
125 2 4 2.2559723595316458e-01 0.0000000000000000e+00 1.0000000000000000e+00 1.2000000000000000e+01 8.0000000000000000e+00 2.5000000000000000e+00 
145 2 4 2.2559723595316458e-01 0.0000000000000000e+00 1.0000000000000000e+00 1.4000000000000000e+01 8.0000000000000000e+00 2.5000000000000000e+00 
165 2 4 2.2559723595316458e-01 0.0000000000000000e+00 1.0000000000000000e+00 1.6000000000000000e+01 8.0000000000000000e+00 2.5000000000000000e+00 
185 2 4 2.2559723595316458e-01 0.0000000000000000e+00 1.0000000000000000e+00 1.8000000000000000e+01 8.0000000000000000e+00 2.5000000000000000e+00 
6 2 4 2.2559723595316458e-01 0.0000000000000000e+00 1.0000000000000000e+00 0.0000000000000000e+00 1.0000000000000000e+01 2.5000000000000000e+00 
26 2 4 2.2559723595316458e-01 0.0000000000000000e+00 1.0000000000000000e+00 2.0000000000000000e+00 1.0000000000000000e+01 2.5000000000000000e+00 
46 2 4 2.2559723595316458e-01 0.0000000000000000e+00 1.0000000000000000e+00 4.0000000000000000e+00 1.0000000000000000e+01 2.5000000000000000e+00 
66 2 4 2.2559723595316458e-01 0.0000000000000000e+00 1.0000000000000000e+00 6.0000000000000000e+00 1.0000000000000000e+01 2.5000000000000000e+00 
86 2 4 2.2559723595316458e-01 0.0000000000000000e+00 1.0000000000000000e+00 8.0000000000000000e+00 1.0000000000000000e+01 2.5000000000000000e+00 
106 2 4 2.2559723595316458e-01 0.0000000000000000e+00 1.0000000000000000e+00 1.0000000000000000e+01 1.0000000000000000e+01 2.5000000000000000e+00 
126 2 4 2.2559723595316458e-01 0.0000000000000000e+00 1.0000000000000000e+00 1.2000000000000000e+01 1.0000000000000000e+01 2.5000000000000000e+00 
146 2 4 2.2559723595316458e-01 0.0000000000000000e+00 1.0000000000000000e+00 1.4000000000000000e+01 1.0000000000000000e+01 2.5000000000000000e+00 
166 2 4 2.2559723595316458e-01 0.0000000000000000e+00 1.0000000000000000e+00 1.6000000000000000e+01 1.0000000000000000e+01 2.5000000000000000e+00 
186 2 4 2.2559723595316458e-01 0.0000000000000000e+00 1.0000000000000000e+00 1.8000000000000000e+01 1.0000000000000000e+01 2.5000000000000000e+00 
7 2 4 2.2559723595316458e-01 0.0000000000000000e+00 1.0000000000000000e+00 0.0000000000000000e+00 1.2000000000000000e+01 2.5000000000000000e+00 
27 2 4 2.2559723595316458e-01 0.0000000000000000e+00 1.0000000000000000e+00 2.0000000000000000e+00 1.2000000000000000e+01 2.5000000000000000e+00 
47 2 4 2.2559723595316458e-01 0.0000000000000000e+00 1.0000000000000000e+00 4.0000000000000000e+00 1.2000000000000000e+01 2.5000000000000000e+00 
67 2 4 2.2559723595316458e-01 0.0000000000000000e+00 1.0000000000000000e+00 6.0000000000000000e+00 1.2000000000000000e+01 2.5000000000000000e+00 
87 2 4 2.2559723595316458e-01 0.0000000000000000e+00 1.0000000000000000e+00 8.0000000000000000e+00 1.2000000000000000e+01 2.5000000000000000e+00 
107 2 4 2.2559723595316458e-01 0.0000000000000000e+00 1.0000000000000000e+00 1.0000000000000000e+01 1.2000000000000000e+01 2.5000000000000000e+00 
127 2 4 2.2559723595316458e-01 0.0000000000000000e+00 1.0000000000000000e+00 1.2000000000000000e+01 1.2000000000000000e+01 2.5000000000000000e+00 
147 2 4 2.2559723595316458e-01 0.0000000000000000e+00 1.0000000000000000e+00 1.4000000000000000e+01 1.2000000000000000e+01 2.5000000000000000e+00 
167 2 4 2.2559723595316458e-01 0.0000000000000000e+00 1.0000000000000000e+00 1.6000000000000000e+01 1.2000000000000000e+01 2.5000000000000000e+00 
187 2 4 2.2559723595316458e-01 0.0000000000000000e+00 1.0000000000000000e+00 1.8000000000000000e+01 1.2000000000000000e+01 2.5000000000000000e+00 
8 2 4 2.2559723595316458e-01 0.0000000000000000e+00 1.0000000000000000e+00 0.0000000000000000e+00 1.4000000000000000e+01 2.5000000000000000e+00 
28 2 4 2.2559723595316458e-01 0.0000000000000000e+00 1.0000000000000000e+00 2.0000000000000000e+00 1.4000000000000000e+01 2.5000000000000000e+00 
48 2 4 2.2559723595316458e-01 0.0000000000000000e+00 1.0000000000000000e+00 4.0000000000000000e+00 1.4000000000000000e+01 2.5000000000000000e+00 
68 2 4 2.2559723595316458e-01 0.0000000000000000e+00 1.0000000000000000e+00 6.0000000000000000e+00 1.4000000000000000e+01 2.5000000000000000e+00 
88 2 4 2.2559723595316458e-01 0.0000000000000000e+00 1.0000000000000000e+00 8.0000000000000000e+00 1.4000000000000000e+01 2.5000000000000000e+00 
108 2 4 2.2559723595316458e-01 0.0000000000000000e+00 1.0000000000000000e+00 1.0000000000000000e+01 1.4000000000000000e+01 2.5000000000000000e+00 
128 2 4 2.2559723595316458e-01 0.0000000000000000e+00 1.0000000000000000e+00 1.2000000000000000e+01 1.4000000000000000e+01 2.5000000000000000e+00 
148 2 4 2.2559723595316458e-01 0.0000000000000000e+00 1.0000000000000000e+00 1.4000000000000000e+01 1.4000000000000000e+01 2.5000000000000000e+00 
168 2 4 2.2559723595316458e-01 0.0000000000000000e+00 1.0000000000000000e+00 1.6000000000000000e+01 1.4000000000000000e+01 2.5000000000000000e+00 
188 2 4 2.2559723595316458e-01 0.0000000000000000e+00 1.0000000000000000e+00 1.8000000000000000e+01 1.4000000000000000e+01 2.5000000000000000e+00 
9 2 4 2.2559723595316458e-01 0.0000000000000000e+00 1.0000000000000000e+00 0.0000000000000000e+00 1.6000000000000000e+01 2.5000000000000000e+00 
29 2 4 2.2559723595316458e-01 0.0000000000000000e+00 1.0000000000000000e+00 2.0000000000000000e+00 1.6000000000000000e+01 2.5000000000000000e+00 
49 2 4 2.2559723595316458e-01 0.0000000000000000e+00 1.0000000000000000e+00 4.0000000000000000e+00 1.6000000000000000e+01 2.5000000000000000e+00 
69 2 4 2.2559723595316458e-01 0.0000000000000000e+00 1.0000000000000000e+00 6.0000000000000000e+00 1.6000000000000000e+01 2.5000000000000000e+00 
89 2 4 2.2559723595316458e-01 0.0000000000000000e+00 1.0000000000000000e+00 8.0000000000000000e+00 1.6000000000000000e+01 2.5000000000000000e+00 
109 2 4 2.2559723595316458e-01 0.0000000000000000e+00 1.0000000000000000e+00 1.0000000000000000e+01 1.6000000000000000e+01 2.5000000000000000e+00 
129 2 4 2.2559723595316458e-01 0.0000000000000000e+00 1.0000000000000000e+00 1.2000000000000000e+01 1.6000000000000000e+01 2.5000000000000000e+00 
149 2 4 2.2559723595316458e-01 0.0000000000000000e+00 1.0000000000000000e+00 1.4000000000000000e+01 1.6000000000000000e+01 2.5000000000000000e+00 
169 2 4 2.2559723595316458e-01 0.0000000000000000e+00 1.0000000000000000e+00 1.6000000000000000e+01 1.6000000000000000e+01 2.5000000000000000e+00 
189 2 4 2.2559723595316458e-01 0.0000000000000000e+00 1.0000000000000000e+00 1.8000000000000000e+01 1.6000000000000000e+01 2.5000000000000000e+00 
10 2 4 2.2559723595316458e-01 0.0000000000000000e+00 1.0000000000000000e+00 0.0000000000000000e+00 1.8000000000000000e+01 2.5000000000000000e+00 
30 2 4 2.2559723595316458e-01 0.0000000000000000e+00 1.0000000000000000e+00 2.0000000000000000e+00 1.8000000000000000e+01 2.5000000000000000e+00 
50 2 4 2.2559723595316458e-01 0.0000000000000000e+00 1.0000000000000000e+00 4.0000000000000000e+00 1.8000000000000000e+01 2.5000000000000000e+00 
70 2 4 2.2559723595316458e-01 0.0000000000000000e+00 1.0000000000000000e+00 6.0000000000000000e+00 1.8000000000000000e+01 2.5000000000000000e+00 
90 2 4 2.2559723595316458e-01 0.0000000000000000e+00 1.0000000000000000e+00 8.0000000000000000e+00 1.8000000000000000e+01 2.5000000000000000e+00 
110 2 4 2.2559723595316458e-01 0.0000000000000000e+00 1.0000000000000000e+00 1.0000000000000000e+01 1.8000000000000000e+01 2.5000000000000000e+00 
130 2 4 2.2559723595316458e-01 0.0000000000000000e+00 1.0000000000000000e+00 1.2000000000000000e+01 1.8000000000000000e+01 2.5000000000000000e+00 
150 2 4 2.2559723595316458e-01 0.0000000000000000e+00 1.0000000000000000e+00 1.4000000000000000e+01 1.8000000000000000e+01 2.5000000000000000e+00 
170 2 4 2.2559723595316458e-01 0.0000000000000000e+00 1.0000000000000000e+00 1.6000000000000000e+01 1.8000000000000000e+01 2.5000000000000000e+00 
190 2 4 2.2559723595316458e-01 0.0000000000000000e+00 1.0000000000000000e+00 1.8000000000000000e+01 1.8000000000000000e+01 2.5000000000000000e+00 
401 3 2 1.8391545569266636e+00 0.0000000000000000e+00 1.0000000000000000e+00 1.6000000000000000e+01 1.0000000000000000e+01 6.9823473999998029e+00 
402 4 2 1.8391545569266636e+00 0.0000000000000000e+00 1.0000000000000000e+00 1.9109999999999999e+01 1.0000000000000000e+01 6.9823473999998029e+00 
482 84 2 1.8391545569266636e+00 0.0000000000000000e+00 1.0000000000000000e+00 1.6000000000000000e+01 1.3109999999999999e+01 6.9823473999998029e+00 
483 85 2 1.8391545569266636e+00 0.0000000000000000e+00 1.0000000000000000e+00 1.9109999999999999e+01 1.3109999999999999e+01 6.9823473999998029e+00 
563 165 2 1.8391545569266636e+00 0.0000000000000000e+00 1.0000000000000000e+00 1.6000000000000000e+01 1.6219999999999999e+01 6.9823473999998029e+00 
564 166 2 1.8391545569266636e+00 0.0000000000000000e+00 1.0000000000000000e+00 1.9109999999999999e+01 1.6219999999999999e+01 6.9823473999998029e+00 
644 246 2 1.8391545569266636e+00 0.0000000000000000e+00 1.0000000000000000e+00 1.6000000000000000e+01 1.9329999999999998e+01 6.9823473999998029e+00 
645 247 2 1.8391545569266636e+00 0.0000000000000000e+00 1.0000000000000000e+00 1.9109999999999999e+01 1.9329999999999998e+01 6.9823473999998029e+00 
404 6 2 1.8391545569266636e+00 0.0000000000000000e+00 1.0000000000000000e+00 1.6000000000000000e+01 1.0000000000000000e+01 1.0092347399999797e+01 
405 7 2 1.8391545569266636e+00 0.0000000000000000e+00 1.0000000000000000e+00 1.9109999999999999e+01 1.0000000000000000e+01 1.0092347399999797e+01 
485 87 2 1.8391545569266636e+00 0.0000000000000000e+00 1.0000000000000000e+00 1.6000000000000000e+01 1.3109999999999999e+01 1.0092347399999797e+01 
486 88 2 1.8391545569266636e+00 0.0000000000000000e+00 1.0000000000000000e+00 1.9109999999999999e+01 1.3109999999999999e+01 1.0092347399999797e+01 
566 168 2 1.8391545569266636e+00 0.0000000000000000e+00 1.0000000000000000e+00 1.6000000000000000e+01 1.6219999999999999e+01 1.0092347399999797e+01 
567 169 2 1.8391545569266636e+00 0.0000000000000000e+00 1.0000000000000000e+00 1.9109999999999999e+01 1.6219999999999999e+01 1.0092347399999797e+01 
647 249 2 1.8391545569266636e+00 0.0000000000000000e+00 1.0000000000000000e+00 1.6000000000000000e+01 1.9329999999999998e+01 1.0092347399999797e+01 
648 250 2 1.8391545569266636e+00 0.0000000000000000e+00 1.0000000000000000e+00 1.9109999999999999e+01 1.9329999999999998e+01 1.0092347399999797e+01 
407 9 2 1.8391545569266636e+00 0.0000000000000000e+00 1.0000000000000000e+00 1.6000000000000000e+01 1.0000000000000000e+01 1.3202347399999798e+01 
408 10 2 1.8391545569266636e+00 0.0000000000000000e+00 1.0000000000000000e+00 1.9109999999999999e+01 1.0000000000000000e+01 1.3202347399999798e+01 
488 90 2 1.8391545569266636e+00 0.0000000000000000e+00 1.0000000000000000e+00 1.6000000000000000e+01 1.3109999999999999e+01 1.3202347399999798e+01 
489 91 2 1.8391545569266636e+00 0.0000000000000000e+00 1.0000000000000000e+00 1.9109999999999999e+01 1.3109999999999999e+01 1.3202347399999798e+01 
569 171 2 1.8391545569266636e+00 0.0000000000000000e+00 1.0000000000000000e+00 1.6000000000000000e+01 1.6219999999999999e+01 1.3202347399999798e+01 
570 172 2 1.8391545569266636e+00 0.0000000000000000e+00 1.0000000000000000e+00 1.9109999999999999e+01 1.6219999999999999e+01 1.3202347399999798e+01 
650 252 2 1.8391545569266636e+00 0.0000000000000000e+00 1.0000000000000000e+00 1.6000000000000000e+01 1.9329999999999998e+01 1.3202347399999798e+01 
651 253 2 1.8391545569266636e+00 0.0000000000000000e+00 1.0000000000000000e+00 1.9109999999999999e+01 1.9329999999999998e+01 1.3202347399999798e+01 
410 12 2 1.8391545569266636e+00 0.0000000000000000e+00 1.0000000000000000e+00 1.6000000000000000e+01 1.0000000000000000e+01 1.6312347399999801e+01 
411 13 2 1.8391545569266636e+00 0.0000000000000000e+00 1.0000000000000000e+00 1.9109999999999999e+01 1.0000000000000000e+01 1.6312347399999801e+01 
491 93 2 1.8391545569266636e+00 0.0000000000000000e+00 1.0000000000000000e+00 1.6000000000000000e+01 1.3109999999999999e+01 1.6312347399999801e+01 
492 94 2 1.8391545569266636e+00 0.0000000000000000e+00 1.0000000000000000e+00 1.9109999999999999e+01 1.3109999999999999e+01 1.6312347399999801e+01 
572 174 2 1.8391545569266636e+00 0.0000000000000000e+00 1.0000000000000000e+00 1.6000000000000000e+01 1.6219999999999999e+01 1.6312347399999801e+01 
573 175 2 1.8391545569266636e+00 0.0000000000000000e+00 1.0000000000000000e+00 1.9109999999999999e+01 1.6219999999999999e+01 1.6312347399999801e+01 
653 255 2 1.8391545569266636e+00 0.0000000000000000e+00 1.0000000000000000e+00 1.6000000000000000e+01 1.9329999999999998e+01 1.6312347399999801e+01 
654 256 2 1.8391545569266636e+00 0.0000000000000000e+00 1.0000000000000000e+00 1.9109999999999999e+01 1.9329999999999998e+01 1.6312347399999801e+01 
413 15 2 1.8391545569266636e+00 0.0000000000000000e+00 1.0000000000000000e+00 1.6000000000000000e+01 1.0000000000000000e+01 1.9422347399999804e+01 
414 16 2 1.8391545569266636e+00 0.0000000000000000e+00 1.0000000000000000e+00 1.9109999999999999e+01 1.0000000000000000e+01 1.9422347399999804e+01 
494 96 2 1.8391545569266636e+00 0.0000000000000000e+00 1.0000000000000000e+00 1.6000000000000000e+01 1.3109999999999999e+01 1.9422347399999804e+01 
495 97 2 1.8391545569266636e+00 0.0000000000000000e+00 1.0000000000000000e+00 1.9109999999999999e+01 1.3109999999999999e+01 1.9422347399999804e+01 
575 177 2 1.8391545569266636e+00 0.0000000000000000e+00 1.0000000000000000e+00 1.6000000000000000e+01 1.6219999999999999e+01 1.9422347399999804e+01 
576 178 2 1.8391545569266636e+00 0.0000000000000000e+00 1.0000000000000000e+00 1.9109999999999999e+01 1.6219999999999999e+01 1.9422347399999804e+01 
656 258 2 1.8391545569266636e+00 0.0000000000000000e+00 1.0000000000000000e+00 1.6000000000000000e+01 1.9329999999999998e+01 1.9422347399999804e+01 
657 259 2 1.8391545569266636e+00 0.0000000000000000e+00 1.0000000000000000e+00 1.9109999999999999e+01 1.9329999999999998e+01 1.9422347399999804e+01 
416 18 2 1.8391545569266636e+00 0.0000000000000000e+00 1.0000000000000000e+00 1.6000000000000000e+01 1.0000000000000000e+01 2.2532347399999804e+01 
417 19 2 1.8391545569266636e+00 0.0000000000000000e+00 1.0000000000000000e+00 1.9109999999999999e+01 1.0000000000000000e+01 2.2532347399999804e+01 
497 99 2 1.8391545569266636e+00 0.0000000000000000e+00 1.0000000000000000e+00 1.6000000000000000e+01 1.3109999999999999e+01 2.2532347399999804e+01 
498 100 2 1.8391545569266636e+00 0.0000000000000000e+00 1.0000000000000000e+00 1.9109999999999999e+01 1.3109999999999999e+01 2.2532347399999804e+01 
578 180 2 1.8391545569266636e+00 0.0000000000000000e+00 1.0000000000000000e+00 1.6000000000000000e+01 1.6219999999999999e+01 2.2532347399999804e+01 
579 181 2 1.8391545569266636e+00 0.0000000000000000e+00 1.0000000000000000e+00 1.9109999999999999e+01 1.6219999999999999e+01 2.2532347399999804e+01 
659 261 2 1.8391545569266636e+00 0.0000000000000000e+00 1.0000000000000000e+00 1.6000000000000000e+01 1.9329999999999998e+01 2.2532347399999804e+01 
660 262 2 1.8391545569266636e+00 0.0000000000000000e+00 1.0000000000000000e+00 1.9109999999999999e+01 1.9329999999999998e+01 2.2532347399999804e+01 
419 21 2 1.8391545569266636e+00 0.0000000000000000e+00 1.0000000000000000e+00 1.6000000000000000e+01 1.0000000000000000e+01 2.5642347399999803e+01 
420 22 2 1.8391545569266636e+00 0.0000000000000000e+00 1.0000000000000000e+00 1.9109999999999999e+01 1.0000000000000000e+01 2.5642347399999803e+01 
500 102 2 1.8391545569266636e+00 0.0000000000000000e+00 1.0000000000000000e+00 1.6000000000000000e+01 1.3109999999999999e+01 2.5642347399999803e+01 
501 103 2 1.8391545569266636e+00 0.0000000000000000e+00 1.0000000000000000e+00 1.9109999999999999e+01 1.3109999999999999e+01 2.5642347399999803e+01 
581 183 2 1.8391545569266636e+00 0.0000000000000000e+00 1.0000000000000000e+00 1.6000000000000000e+01 1.6219999999999999e+01 2.5642347399999803e+01 
582 184 2 1.8391545569266636e+00 0.0000000000000000e+00 1.0000000000000000e+00 1.9109999999999999e+01 1.6219999999999999e+01 2.5642347399999803e+01 
662 264 2 1.8391545569266636e+00 0.0000000000000000e+00 1.0000000000000000e+00 1.6000000000000000e+01 1.9329999999999998e+01 2.5642347399999803e+01 
663 265 2 1.8391545569266636e+00 0.0000000000000000e+00 1.0000000000000000e+00 1.9109999999999999e+01 1.9329999999999998e+01 2.5642347399999803e+01 
422 24 2 1.8391545569266636e+00 0.0000000000000000e+00 1.0000000000000000e+00 1.6000000000000000e+01 1.0000000000000000e+01 2.8752347399999802e+01 
423 25 2 1.8391545569266636e+00 0.0000000000000000e+00 1.0000000000000000e+00 1.9109999999999999e+01 1.0000000000000000e+01 2.8752347399999802e+01 
503 105 2 1.8391545569266636e+00 0.0000000000000000e+00 1.0000000000000000e+00 1.6000000000000000e+01 1.3109999999999999e+01 2.8752347399999802e+01 
504 106 2 1.8391545569266636e+00 0.0000000000000000e+00 1.0000000000000000e+00 1.9109999999999999e+01 1.3109999999999999e+01 2.8752347399999802e+01 
584 186 2 1.8391545569266636e+00 0.0000000000000000e+00 1.0000000000000000e+00 1.6000000000000000e+01 1.6219999999999999e+01 2.8752347399999802e+01 
585 187 2 1.8391545569266636e+00 0.0000000000000000e+00 1.0000000000000000e+00 1.9109999999999999e+01 1.6219999999999999e+01 2.8752347399999802e+01 
665 267 2 1.8391545569266636e+00 0.0000000000000000e+00 1.0000000000000000e+00 1.6000000000000000e+01 1.9329999999999998e+01 2.8752347399999802e+01 
666 268 2 1.8391545569266636e+00 0.0000000000000000e+00 1.0000000000000000e+00 1.9109999999999999e+01 1.9329999999999998e+01 2.8752347399999802e+01 
425 27 2 1.8391545569266636e+00 0.0000000000000000e+00 1.0000000000000000e+00 1.6000000000000000e+01 1.0000000000000000e+01 3.1862347399999802e+01 
426 28 2 1.8391545569266636e+00 0.0000000000000000e+00 1.0000000000000000e+00 1.9109999999999999e+01 1.0000000000000000e+01 3.1862347399999802e+01 
506 108 2 1.8391545569266636e+00 0.0000000000000000e+00 1.0000000000000000e+00 1.6000000000000000e+01 1.3109999999999999e+01 3.1862347399999802e+01 
507 109 2 1.8391545569266636e+00 0.0000000000000000e+00 1.0000000000000000e+00 1.9109999999999999e+01 1.3109999999999999e+01 3.1862347399999802e+01 
587 189 2 1.8391545569266636e+00 0.0000000000000000e+00 1.0000000000000000e+00 1.6000000000000000e+01 1.6219999999999999e+01 3.1862347399999802e+01 
588 190 2 1.8391545569266636e+00 0.0000000000000000e+00 1.0000000000000000e+00 1.9109999999999999e+01 1.6219999999999999e+01 3.1862347399999802e+01 
668 270 2 1.8391545569266636e+00 0.0000000000000000e+00 1.0000000000000000e+00 1.6000000000000000e+01 1.9329999999999998e+01 3.1862347399999802e+01 
669 271 2 1.8391545569266636e+00 0.0000000000000000e+00 1.0000000000000000e+00 1.9109999999999999e+01 1.9329999999999998e+01 3.1862347399999802e+01 
428 30 2 1.8391545569266636e+00 0.0000000000000000e+00 1.0000000000000000e+00 1.6000000000000000e+01 1.0000000000000000e+01 3.4972347399999762e+01 
429 31 2 1.8391545569266636e+00 0.0000000000000000e+00 1.0000000000000000e+00 1.9109999999999999e+01 1.0000000000000000e+01 3.4972347399999762e+01 
509 111 2 1.8391545569266636e+00 0.0000000000000000e+00 1.0000000000000000e+00 1.6000000000000000e+01 1.3109999999999999e+01 3.4972347399999762e+01 
510 112 2 1.8391545569266636e+00 0.0000000000000000e+00 1.0000000000000000e+00 1.9109999999999999e+01 1.3109999999999999e+01 3.4972347399999762e+01 
590 192 2 1.8391545569266636e+00 0.0000000000000000e+00 1.0000000000000000e+00 1.6000000000000000e+01 1.6219999999999999e+01 3.4972347399999762e+01 
591 193 2 1.8391545569266636e+00 0.0000000000000000e+00 1.0000000000000000e+00 1.9109999999999999e+01 1.6219999999999999e+01 3.4972347399999762e+01 
671 273 2 1.8391545569266636e+00 0.0000000000000000e+00 1.0000000000000000e+00 1.6000000000000000e+01 1.9329999999999998e+01 3.4972347399999762e+01 
672 274 2 1.8391545569266636e+00 0.0000000000000000e+00 1.0000000000000000e+00 1.9109999999999999e+01 1.9329999999999998e+01 3.4972347399999762e+01 
431 33 2 1.8391545569266636e+00 0.0000000000000000e+00 1.0000000000000000e+00 1.6000000000000000e+01 1.0000000000000000e+01 3.8082347399999762e+01 
432 34 2 1.8391545569266636e+00 0.0000000000000000e+00 1.0000000000000000e+00 1.9109999999999999e+01 1.0000000000000000e+01 3.8082347399999762e+01 
512 114 2 1.8391545569266636e+00 0.0000000000000000e+00 1.0000000000000000e+00 1.6000000000000000e+01 1.3109999999999999e+01 3.8082347399999762e+01 
513 115 2 1.8391545569266636e+00 0.0000000000000000e+00 1.0000000000000000e+00 1.9109999999999999e+01 1.3109999999999999e+01 3.8082347399999762e+01 
593 195 2 1.8391545569266636e+00 0.0000000000000000e+00 1.0000000000000000e+00 1.6000000000000000e+01 1.6219999999999999e+01 3.8082347399999762e+01 
594 196 2 1.8391545569266636e+00 0.0000000000000000e+00 1.0000000000000000e+00 1.9109999999999999e+01 1.6219999999999999e+01 3.8082347399999762e+01 
674 276 2 1.8391545569266636e+00 0.0000000000000000e+00 1.0000000000000000e+00 1.6000000000000000e+01 1.9329999999999998e+01 3.8082347399999762e+01 
675 277 2 1.8391545569266636e+00 0.0000000000000000e+00 1.0000000000000000e+00 1.9109999999999999e+01 1.9329999999999998e+01 3.8082347399999762e+01 
434 36 2 1.8391545569266636e+00 0.0000000000000000e+00 1.0000000000000000e+00 1.6000000000000000e+01 1.0000000000000000e+01 4.1192347399999761e+01 
435 37 2 1.8391545569266636e+00 0.0000000000000000e+00 1.0000000000000000e+00 1.9109999999999999e+01 1.0000000000000000e+01 4.1192347399999761e+01 
515 117 2 1.8391545569266636e+00 0.0000000000000000e+00 1.0000000000000000e+00 1.6000000000000000e+01 1.3109999999999999e+01 4.1192347399999761e+01 
516 118 2 1.8391545569266636e+00 0.0000000000000000e+00 1.0000000000000000e+00 1.9109999999999999e+01 1.3109999999999999e+01 4.1192347399999761e+01 
596 198 2 1.8391545569266636e+00 0.0000000000000000e+00 1.0000000000000000e+00 1.6000000000000000e+01 1.6219999999999999e+01 4.1192347399999761e+01 
597 199 2 1.8391545569266636e+00 0.0000000000000000e+00 1.0000000000000000e+00 1.9109999999999999e+01 1.6219999999999999e+01 4.1192347399999761e+01 
677 279 2 1.8391545569266636e+00 0.0000000000000000e+00 1.0000000000000000e+00 1.6000000000000000e+01 1.9329999999999998e+01 4.1192347399999761e+01 
678 280 2 1.8391545569266636e+00 0.0000000000000000e+00 1.0000000000000000e+00 1.9109999999999999e+01 1.9329999999999998e+01 4.1192347399999761e+01 
437 39 2 1.8391545569266636e+00 0.0000000000000000e+00 1.0000000000000000e+00 1.6000000000000000e+01 1.0000000000000000e+01 4.4302347399999761e+01 
438 40 2 1.8391545569266636e+00 0.0000000000000000e+00 1.0000000000000000e+00 1.9109999999999999e+01 1.0000000000000000e+01 4.4302347399999761e+01 
518 120 2 1.8391545569266636e+00 0.0000000000000000e+00 1.0000000000000000e+00 1.6000000000000000e+01 1.3109999999999999e+01 4.4302347399999761e+01 
519 121 2 1.8391545569266636e+00 0.0000000000000000e+00 1.0000000000000000e+00 1.9109999999999999e+01 1.3109999999999999e+01 4.4302347399999761e+01 