LAMMPS data file via write_data, version 30 Jul 2016, timestep = 50000000

4620 atoms
8 atom types

0.0000000000000000e+00 1.0000000000000000e+02 xlo xhi
0.0000000000000000e+00 4.0000000000000000e+01 ylo yhi
0.0000000000000000e+00 4.0000000000000000e+01 zlo zhi

Masses

1 3.896
2 5.36
3 20.064
4 8.378
5 8.378
6 8.378
7 8.378
8 8.378

Atoms # meso-molecular

1 2 2 1.4433031402590100e+00 -7.7373139637314767e-14 1.0000000000000000e+00 6.9991901957038642e+00 9.9991902398832533e+00 2.9991902177901970e+00 
2 3 2 1.4433031402590100e+00 -1.0316413037549105e-13 1.0000000000000000e+00 8.9991993786219382e+00 9.9991902398832533e+00 2.9991902177901970e+00 
3 4 2 1.4433031402590100e+00 -1.0316408389627434e-13 1.0000000000000000e+00 1.0999201254274945e+01 9.9991902398832533e+00 2.9991902177901970e+00 
4 5 2 1.4433031402590100e+00 -1.0316411168088531e-13 1.0000000000000000e+00 1.2999202426599375e+01 9.9991902398832533e+00 2.9991902177901970e+00 
5 6 2 1.4433031402590100e+00 -1.0316378244940884e-13 1.0000000000000000e+00 1.4999203594853046e+01 9.9991902398832533e+00 2.9991902177901970e+00 
6 7 2 1.4433031402590100e+00 -1.0316381833050656e-13 1.0000000000000000e+00 1.6999205099224707e+01 9.9991902398832533e+00 2.9991902177901970e+00 
7 8 2 1.4433031402590100e+00 -1.0316418636212141e-13 1.0000000000000000e+00 1.8999207450896890e+01 9.9991902398832533e+00 2.9991902177901970e+00 
8 9 2 1.4433031402590100e+00 -1.0316418521623120e-13 1.0000000000000000e+00 2.0999210996750882e+01 9.9991902398832533e+00 2.9991902177901970e+00 
9 10 2 1.4433031402590100e+00 -1.0316418362852049e-13 1.0000000000000000e+00 2.2999216596224578e+01 9.9991902398832533e+00 2.9991902177901970e+00 
10 11 2 1.4433031402590100e+00 -1.0316420258667295e-13 1.0000000000000000e+00 2.4999225286239795e+01 9.9991902398832533e+00 2.9991902177901970e+00 
11 12 2 1.4433031402590100e+00 -1.0316422883521083e-13 1.0000000000000000e+00 2.6999238452060546e+01 9.9991902398832533e+00 2.9991902177901970e+00 
12 13 2 1.4433031402590100e+00 -1.0316418416266432e-13 1.0000000000000000e+00 2.8999257312785485e+01 9.9991902398832533e+00 2.9991902177901970e+00 
13 14 2 1.4433031402590100e+00 -1.0316290936751758e-13 1.0000000000000000e+00 3.0999283606744754e+01 9.9991902398832533e+00 2.9991902177901970e+00 
14 15 2 1.4433031402590100e+00 -1.0316342435723585e-13 1.0000000000000000e+00 3.2999319249157175e+01 9.9991902398832533e+00 2.9991902177901970e+00 
463 464 2 1.4433031402590100e+00 -1.0316413148303432e-13 1.0000000000000000e+00 6.9991901957038642e+00 1.1999206875060965e+01 2.9991902177901970e+00 
464 465 2 1.4433031402590100e+00 -1.2895512222122004e-13 1.0000000000000000e+00 8.9991993786219382e+00 1.1999206875060965e+01 2.9991902177901970e+00 
465 466 2 1.4433031402590100e+00 -1.2895507574190409e-13 1.0000000000000000e+00 1.0999201254274945e+01 1.1999206875060965e+01 2.9991902177901970e+00 
466 467 2 1.4433031402590100e+00 -1.2895510352634182e-13 1.0000000000000000e+00 1.2999202426599375e+01 1.1999206875060965e+01 2.9991902177901970e+00 
467 468 2 1.4433031402590100e+00 -1.2895477429508074e-13 1.0000000000000000e+00 1.4999203594853046e+01 1.1999206875060965e+01 2.9991902177901970e+00 
468 469 2 1.4433031402590100e+00 -1.2895481017615178e-13 1.0000000000000000e+00 1.6999205099224707e+01 1.1999206875060965e+01 2.9991902177901970e+00 
469 470 2 1.4433031402590100e+00 -1.2895517820785794e-13 1.0000000000000000e+00 1.8999207450896890e+01 1.1999206875060965e+01 2.9991902177901970e+00 
470 471 2 1.4433031402590100e+00 -1.2895517706190937e-13 1.0000000000000000e+00 2.0999210996750882e+01 1.1999206875060965e+01 2.9991902177901970e+00 
471 472 2 1.4433031402590100e+00 -1.2895517547421885e-13 1.0000000000000000e+00 2.2999216596224578e+01 1.1999206875060965e+01 2.9991902177901970e+00 
472 473 2 1.4433031402590100e+00 -1.2895519443237777e-13 1.0000000000000000e+00 2.4999225286239795e+01 1.1999206875060965e+01 2.9991902177901970e+00 
473 474 2 1.4433031402590100e+00 -1.2895522068092723e-13 1.0000000000000000e+00 2.6999238452060546e+01 1.1999206875060965e+01 2.9991902177901970e+00 
474 475 2 1.4433031402590100e+00 -1.2895517600841774e-13 1.0000000000000000e+00 2.8999257312785485e+01 1.1999206875060965e+01 2.9991902177901970e+00 
475 476 2 1.4433031402590100e+00 -1.2895390121323288e-13 1.0000000000000000e+00 3.0999283606744754e+01 1.1999206875060965e+01 2.9991902177901970e+00 
476 477 2 1.4433031402590100e+00 -1.2895441620297109e-13 1.0000000000000000e+00 3.2999319249157175e+01 1.1999206875060965e+01 2.9991902177901970e+00 
925 926 2 1.4433031402590100e+00 -1.0316407982517624e-13 1.0000000000000000e+00 6.9991901957038642e+00 1.3999271015592596e+01 2.9991902177901970e+00 
926 927 2 1.4433031402590100e+00 -1.2895507056335476e-13 1.0000000000000000e+00 8.9991993786219382e+00 1.3999271015592596e+01 2.9991902177901970e+00 
927 928 2 1.4433031402590100e+00 -1.2895502408402893e-13 1.0000000000000000e+00 1.0999201254274945e+01 1.3999271015592596e+01 2.9991902177901970e+00 
928 929 2 1.4433031402590100e+00 -1.2895505186847752e-13 1.0000000000000000e+00 1.2999202426599375e+01 1.3999271015592596e+01 2.9991902177901970e+00 
929 930 2 1.4433031402590100e+00 -1.2895472263721358e-13 1.0000000000000000e+00 1.4999203594853046e+01 1.3999271015592596e+01 2.9991902177901970e+00 
930 931 2 1.4433031402590100e+00 -1.2895475851828382e-13 1.0000000000000000e+00 1.6999205099224707e+01 1.3999271015592596e+01 2.9991902177901970e+00 
931 932 2 1.4433031402590100e+00 -1.2895512654998624e-13 1.0000000000000000e+00 1.8999207450896890e+01 1.3999271015592596e+01 2.9991902177901970e+00 
932 933 2 1.4433031402590100e+00 -1.2895512540405534e-13 1.0000000000000000e+00 2.0999210996750882e+01 1.3999271015592596e+01 2.9991902177901970e+00 
933 934 2 1.4433031402590100e+00 -1.2895512381635804e-13 1.0000000000000000e+00 2.2999216596224578e+01 1.3999271015592596e+01 2.9991902177901970e+00 
934 935 2 1.4433031402590100e+00 -1.2895514277452026e-13 1.0000000000000000e+00 2.4999225286239795e+01 1.3999271015592596e+01 2.9991902177901970e+00 
935 936 2 1.4433031402590100e+00 -1.2895516902306947e-13 1.0000000000000000e+00 2.6999238452060546e+01 1.3999271015592596e+01 2.9991902177901970e+00 
936 937 2 1.4433031402590100e+00 -1.2895512435056073e-13 1.0000000000000000e+00 2.8999257312785485e+01 1.3999271015592596e+01 2.9991902177901970e+00 
937 938 2 1.4433031402590100e+00 -1.2895384955537414e-13 1.0000000000000000e+00 3.0999283606744754e+01 1.3999271015592596e+01 2.9991902177901970e+00 
938 939 2 1.4433031402590100e+00 -1.2895436454511714e-13 1.0000000000000000e+00 3.2999319249157175e+01 1.3999271015592596e+01 2.9991902177901970e+00 
1387 1388 2 1.4433031402590100e+00 -1.0316378438829969e-13 1.0000000000000000e+00 6.9991901957038642e+00 1.5999454747287073e+01 2.9991902177901970e+00 
1388 1389 2 1.4433031402590100e+00 -1.2895477512647278e-13 1.0000000000000000e+00 8.9991993786219382e+00 1.5999454747287073e+01 2.9991902177901970e+00 
1389 1390 2 1.4433031402590100e+00 -1.2895472864716488e-13 1.0000000000000000e+00 1.0999201254274945e+01 1.5999454747287073e+01 2.9991902177901970e+00 
1390 1391 2 1.4433031402590100e+00 -1.2895475643159999e-13 1.0000000000000000e+00 1.2999202426599375e+01 1.5999454747287073e+01 2.9991902177901970e+00 
1391 1392 2 1.4433031402590100e+00 -1.2895442720033529e-13 1.0000000000000000e+00 1.4999203594853046e+01 1.5999454747287073e+01 2.9991902177901970e+00 
1392 1393 2 1.4433031402590100e+00 -1.2895446308141994e-13 1.0000000000000000e+00 1.6999205099224707e+01 1.5999454747287073e+01 2.9991902177901970e+00 
1393 1394 2 1.4433031402590100e+00 -1.2895483111312042e-13 1.0000000000000000e+00 1.8999207450896890e+01 1.5999454747287073e+01 2.9991902177901970e+00 
1394 1395 2 1.4433031402590100e+00 -1.2895482996717929e-13 1.0000000000000000e+00 2.0999210996750882e+01 1.5999454747287073e+01 2.9991902177901970e+00 
1395 1396 2 1.4433031402590100e+00 -1.2895482837947790e-13 1.0000000000000000e+00 2.2999216596224578e+01 1.5999454747287073e+01 2.9991902177901970e+00 
1396 1397 2 1.4433031402590100e+00 -1.2895484733764124e-13 1.0000000000000000e+00 2.4999225286239795e+01 1.5999454747287073e+01 2.9991902177901970e+00 
1397 1398 2 1.4433031402590100e+00 -1.2895487358619117e-13 1.0000000000000000e+00 2.6999238452060546e+01 1.5999454747287073e+01 2.9991902177901970e+00 
1398 1399 2 1.4433031402590100e+00 -1.2895482891368105e-13 1.0000000000000000e+00 2.8999257312785485e+01 1.5999454747287073e+01 2.9991902177901970e+00 
1399 1400 2 1.4433031402590100e+00 -1.2895355411849360e-13 1.0000000000000000e+00 3.0999283606744754e+01 1.5999454747287073e+01 2.9991902177901970e+00 
1400 1401 2 1.4433031402590100e+00 -1.2895406910823155e-13 1.0000000000000000e+00 3.2999319249157175e+01 1.5999454747287073e+01 2.9991902177901970e+00 
1849 1850 2 1.4433031402590100e+00 -1.0316498333225802e-13 1.0000000000000000e+00 6.9991901957038642e+00 1.7999792398513705e+01 2.9991902177901970e+00 
1850 1851 2 1.4433031402590100e+00 -1.2895597407042205e-13 1.0000000000000000e+00 8.9991993786219382e+00 1.7999792398513705e+01 2.9991902177901970e+00 
1851 1852 2 1.4433031402590100e+00 -1.2895592759112884e-13 1.0000000000000000e+00 1.0999201254274945e+01 1.7999792398513705e+01 2.9991902177901970e+00 
1852 1853 2 1.4433031402590100e+00 -1.2895595537556273e-13 1.0000000000000000e+00 1.2999202426599375e+01 1.7999792398513705e+01 2.9991902177901970e+00 
1853 1854 2 1.4433031402590100e+00 -1.2895562614430248e-13 1.0000000000000000e+00 1.4999203594853046e+01 1.7999792398513705e+01 2.9991902177901970e+00 
1854 1855 2 1.4433031402590100e+00 -1.2895566202539673e-13 1.0000000000000000e+00 1.6999205099224707e+01 1.7999792398513705e+01 2.9991902177901970e+00 
1855 1856 2 1.4433031402590100e+00 -1.2895603005708605e-13 1.0000000000000000e+00 1.8999207450896890e+01 1.7999792398513705e+01 2.9991902177901970e+00 
1856 1857 2 1.4433031402590100e+00 -1.2895602891114207e-13 1.0000000000000000e+00 2.0999210996750882e+01 1.7999792398513705e+01 2.9991902177901970e+00 
1857 1858 2 1.4433031402590100e+00 -1.2895602732344294e-13 1.0000000000000000e+00 2.2999216596224578e+01 1.7999792398513705e+01 2.9991902177901970e+00 
1858 1859 2 1.4433031402590100e+00 -1.2895604628160118e-13 1.0000000000000000e+00 2.4999225286239795e+01 1.7999792398513705e+01 2.9991902177901970e+00 
1859 1860 2 1.4433031402590100e+00 -1.2895607253015443e-13 1.0000000000000000e+00 2.6999238452060546e+01 1.7999792398513705e+01 2.9991902177901970e+00 
1860 1861 2 1.4433031402590100e+00 -1.2895602785764610e-13 1.0000000000000000e+00 2.8999257312785485e+01 1.7999792398513705e+01 2.9991902177901970e+00 
1861 1862 2 1.4433031402590100e+00 -1.2895475306245738e-13 1.0000000000000000e+00 3.0999283606744754e+01 1.7999792398513705e+01 2.9991902177901970e+00 
1862 1863 2 1.4433031402590100e+00 -1.2895526805219781e-13 1.0000000000000000e+00 3.2999319249157175e+01 1.7999792398513705e+01 2.9991902177901970e+00 
43 44 2 1.4433031402590100e+00 -1.0316417337581982e-13 1.0000000000000000e+00 6.9991901957038642e+00 9.9991902398832533e+00 4.9992031676264865e+00 
44 45 2 1.4433031402590100e+00 -1.2895516411398028e-13 1.0000000000000000e+00 8.9991993786219382e+00 9.9991902398832533e+00 4.9992031676264865e+00 
45 46 2 1.4433031402590100e+00 -1.2895511763467811e-13 1.0000000000000000e+00 1.0999201254274945e+01 9.9991902398832533e+00 4.9992031676264865e+00 
46 47 2 1.4433031402590100e+00 -1.2895514541910746e-13 1.0000000000000000e+00 1.2999202426599375e+01 9.9991902398832533e+00 4.9992031676264865e+00 
47 48 2 1.4433031402590100e+00 -1.2895481618784905e-13 1.0000000000000000e+00 1.4999203594853046e+01 9.9991902398832533e+00 4.9992031676264865e+00 
48 49 2 1.4433031402590100e+00 -1.2895485206894294e-13 1.0000000000000000e+00 1.6999205099224707e+01 9.9991902398832533e+00 4.9992031676264865e+00 
49 50 2 1.4433031402590100e+00 -1.2895522010063156e-13 1.0000000000000000e+00 1.8999207450896890e+01 9.9991902398832533e+00 4.9992031676264865e+00 
50 51 2 1.4433031402590100e+00 -1.2895521895469154e-13 1.0000000000000000e+00 2.0999210996750882e+01 9.9991902398832533e+00 4.9992031676264865e+00 
51 52 2 1.4433031402590100e+00 -1.2895521736700065e-13 1.0000000000000000e+00 2.2999216596224578e+01 9.9991902398832533e+00 4.9992031676264865e+00 
52 53 2 1.4433031402590100e+00 -1.2895523632515989e-13 1.0000000000000000e+00 2.4999225286239795e+01 9.9991902398832533e+00 4.9992031676264865e+00 
53 54 2 1.4433031402590100e+00 -1.2895526257370728e-13 1.0000000000000000e+00 2.6999238452060546e+01 9.9991902398832533e+00 4.9992031676264865e+00 
54 55 2 1.4433031402590100e+00 -1.2895521790119408e-13 1.0000000000000000e+00 2.8999257312785485e+01 9.9991902398832533e+00 4.9992031676264865e+00 
55 56 2 1.4433031402590100e+00 -1.2895394310600448e-13 1.0000000000000000e+00 3.0999283606744754e+01 9.9991902398832533e+00 4.9992031676264865e+00 
56 57 2 1.4433031402590100e+00 -1.2895445809575288e-13 1.0000000000000000e+00 3.2999319249157175e+01 9.9991902398832533e+00 4.9992031676264865e+00 
505 506 2 1.4433031402590100e+00 -1.2895516522153665e-13 1.0000000000000000e+00 6.9991901957038642e+00 1.1999206875060965e+01 4.9992031676264865e+00 
506 507 2 1.4433031402590100e+00 -1.5474615595971698e-13 1.0000000000000000e+00 8.9991993786219382e+00 1.1999206875060965e+01 4.9992031676264865e+00 
507 508 2 1.4433031402590100e+00 -1.5474610948040365e-13 1.0000000000000000e+00 1.0999201254274945e+01 1.1999206875060965e+01 4.9992031676264865e+00 
508 509 2 1.4433031402590100e+00 -1.5474613726483056e-13 1.0000000000000000e+00 1.2999202426599375e+01 1.1999206875060965e+01 4.9992031676264865e+00 
509 510 2 1.4433031402590100e+00 -1.5474580803357030e-13 1.0000000000000000e+00 1.4999203594853046e+01 1.1999206875060965e+01 4.9992031676264865e+00 
510 511 2 1.4433031402590100e+00 -1.5474584391466001e-13 1.0000000000000000e+00 1.6999205099224707e+01 1.1999206875060965e+01 4.9992031676264865e+00 
511 512 2 1.4433031402590100e+00 -1.5474621194635937e-13 1.0000000000000000e+00 1.8999207450896890e+01 1.1999206875060965e+01 4.9992031676264865e+00 
512 513 2 1.4433031402590100e+00 -1.5474621080043137e-13 1.0000000000000000e+00 2.0999210996750882e+01 1.1999206875060965e+01 4.9992031676264865e+00 
513 514 2 1.4433031402590100e+00 -1.5474620921272516e-13 1.0000000000000000e+00 2.2999216596224578e+01 1.1999206875060965e+01 4.9992031676264865e+00 
514 515 2 1.4433031402590100e+00 -1.5474622817086694e-13 1.0000000000000000e+00 2.4999225286239795e+01 1.1999206875060965e+01 4.9992031676264865e+00 
515 516 2 1.4433031402590100e+00 -1.5474625441943121e-13 1.0000000000000000e+00 2.6999238452060546e+01 1.1999206875060965e+01 4.9992031676264865e+00 
516 517 2 1.4433031402590100e+00 -1.5474620974692563e-13 1.0000000000000000e+00 2.8999257312785485e+01 1.1999206875060965e+01 4.9992031676264865e+00 
517 518 2 1.4433031402590100e+00 -1.5474493495174247e-13 1.0000000000000000e+00 3.0999283606744754e+01 1.1999206875060965e+01 4.9992031676264865e+00 
518 519 2 1.4433031402590100e+00 -1.5474544994148487e-13 1.0000000000000000e+00 3.2999319249157175e+01 1.1999206875060965e+01 4.9992031676264865e+00 
967 968 2 1.4433031402590100e+00 -1.2895511356367202e-13 1.0000000000000000e+00 6.9991901957038642e+00 1.3999271015592596e+01 4.9992031676264865e+00 
968 969 2 1.4433031402590100e+00 -1.5474610430184526e-13 1.0000000000000000e+00 8.9991993786219382e+00 1.3999271015592596e+01 4.9992031676264865e+00 
969 970 2 1.4433031402590100e+00 -1.5474605782253317e-13 1.0000000000000000e+00 1.0999201254274945e+01 1.3999271015592596e+01 4.9992031676264865e+00 
970 971 2 1.4433031402590100e+00 -1.5474608560696257e-13 1.0000000000000000e+00 1.2999202426599375e+01 1.3999271015592596e+01 4.9992031676264865e+00 
971 972 2 1.4433031402590100e+00 -1.5474575637570638e-13 1.0000000000000000e+00 1.4999203594853046e+01 1.3999271015592596e+01 4.9992031676264865e+00 
972 973 2 1.4433031402590100e+00 -1.5474579225677172e-13 1.0000000000000000e+00 1.6999205099224707e+01 1.3999271015592596e+01 4.9992031676264865e+00 
973 974 2 1.4433031402590100e+00 -1.5474616028847950e-13 1.0000000000000000e+00 1.8999207450896890e+01 1.3999271015592596e+01 4.9992031676264865e+00 
974 975 2 1.4433031402590100e+00 -1.5474615914255500e-13 1.0000000000000000e+00 2.0999210996750882e+01 1.3999271015592596e+01 4.9992031676264865e+00 
975 976 2 1.4433031402590100e+00 -1.5474615755486022e-13 1.0000000000000000e+00 2.2999216596224578e+01 1.3999271015592596e+01 4.9992031676264865e+00 
976 977 2 1.4433031402590100e+00 -1.5474617651300610e-13 1.0000000000000000e+00 2.4999225286239795e+01 1.3999271015592596e+01 4.9992031676264865e+00 
977 978 2 1.4433031402590100e+00 -1.5474620276156916e-13 1.0000000000000000e+00 2.6999238452060546e+01 1.3999271015592596e+01 4.9992031676264865e+00 
978 979 2 1.4433031402590100e+00 -1.5474615808906572e-13 1.0000000000000000e+00 2.8999257312785485e+01 1.3999271015592596e+01 4.9992031676264865e+00 
979 980 2 1.4433031402590100e+00 -1.5474488329388382e-13 1.0000000000000000e+00 3.0999283606744754e+01 1.3999271015592596e+01 4.9992031676264865e+00 
980 981 2 1.4433031402590100e+00 -1.5474539828362395e-13 1.0000000000000000e+00 3.2999319249157175e+01 1.3999271015592596e+01 4.9992031676264865e+00 
1429 1430 2 1.4433031402590100e+00 -1.2895481812679746e-13 1.0000000000000000e+00 6.9991901957038642e+00 1.5999454747287073e+01 4.9992031676264865e+00 
1430 1431 2 1.4433031402590100e+00 -1.5474580886496184e-13 1.0000000000000000e+00 8.9991993786219382e+00 1.5999454747287073e+01 4.9992031676264865e+00 
1431 1432 2 1.4433031402590100e+00 -1.5474576238565021e-13 1.0000000000000000e+00 1.0999201254274945e+01 1.5999454747287073e+01 4.9992031676264865e+00 
1432 1433 2 1.4433031402590100e+00 -1.5474579017009993e-13 1.0000000000000000e+00 1.2999202426599375e+01 1.5999454747287073e+01 4.9992031676264865e+00 
1433 1434 2 1.4433031402590100e+00 -1.5474546093882461e-13 1.0000000000000000e+00 1.4999203594853046e+01 1.5999454747287073e+01 4.9992031676264865e+00 
1434 1435 2 1.4433031402590100e+00 -1.5474549681992549e-13 1.0000000000000000e+00 1.6999205099224707e+01 1.5999454747287073e+01 4.9992031676264865e+00 
1435 1436 2 1.4433031402590100e+00 -1.5474586485161751e-13 1.0000000000000000e+00 1.8999207450896890e+01 1.5999454747287073e+01 4.9992031676264865e+00 
1436 1437 2 1.4433031402590100e+00 -1.5474586370567891e-13 1.0000000000000000e+00 2.0999210996750882e+01 1.5999454747287073e+01 4.9992031676264865e+00 
1437 1438 2 1.4433031402590100e+00 -1.5474586211799135e-13 1.0000000000000000e+00 2.2999216596224578e+01 1.5999454747287073e+01 4.9992031676264865e+00 
1438 1439 2 1.4433031402590100e+00 -1.5474588107612240e-13 1.0000000000000000e+00 2.4999225286239795e+01 1.5999454747287073e+01 4.9992031676264865e+00 
1439 1440 2 1.4433031402590100e+00 -1.5474590732468352e-13 1.0000000000000000e+00 2.6999238452060546e+01 1.5999454747287073e+01 4.9992031676264865e+00 
1440 1441 2 1.4433031402590100e+00 -1.5474586265218218e-13 1.0000000000000000e+00 2.8999257312785485e+01 1.5999454747287073e+01 4.9992031676264865e+00 
1441 1442 2 1.4433031402590100e+00 -1.5474458785699960e-13 1.0000000000000000e+00 3.0999283606744754e+01 1.5999454747287073e+01 4.9992031676264865e+00 
1442 1443 2 1.4433031402590100e+00 -1.5474510284673947e-13 1.0000000000000000e+00 3.2999319249157175e+01 1.5999454747287073e+01 4.9992031676264865e+00 
1891 1892 2 1.4433031402590100e+00 -1.2895601707075617e-13 1.0000000000000000e+00 6.9991901957038642e+00 1.7999792398513705e+01 4.9992031676264865e+00 
1892 1893 2 1.4433031402590100e+00 -1.5474700780893825e-13 1.0000000000000000e+00 8.9991993786219382e+00 1.7999792398513705e+01 4.9992031676264865e+00 
1893 1894 2 1.4433031402590100e+00 -1.5474696132963754e-13 1.0000000000000000e+00 1.0999201254274945e+01 1.7999792398513705e+01 4.9992031676264865e+00 
1894 1895 2 1.4433031402590100e+00 -1.5474698911405917e-13 1.0000000000000000e+00 1.2999202426599375e+01 1.7999792398513705e+01 4.9992031676264865e+00 
1895 1896 2 1.4433031402590100e+00 -1.5474665988279533e-13 1.0000000000000000e+00 1.4999203594853046e+01 1.7999792398513705e+01 4.9992031676264865e+00 
1896 1897 2 1.4433031402590100e+00 -1.5474669576388574e-13 1.0000000000000000e+00 1.6999205099224707e+01 1.7999792398513705e+01 4.9992031676264865e+00 
1897 1898 2 1.4433031402590100e+00 -1.5474706379557599e-13 1.0000000000000000e+00 1.8999207450896890e+01 1.7999792398513705e+01 4.9992031676264865e+00 
1898 1899 2 1.4433031402590100e+00 -1.5474706264964673e-13 1.0000000000000000e+00 2.0999210996750882e+01 1.7999792398513705e+01 4.9992031676264865e+00 
1899 1900 2 1.4433031402590100e+00 -1.5474706106196041e-13 1.0000000000000000e+00 2.2999216596224578e+01 1.7999792398513705e+01 4.9992031676264865e+00 
1900 1901 2 1.4433031402590100e+00 -1.5474708002009833e-13 1.0000000000000000e+00 2.4999225286239795e+01 1.7999792398513705e+01 4.9992031676264865e+00 
1901 1902 2 1.4433031402590100e+00 -1.5474710626865414e-13 1.0000000000000000e+00 2.6999238452060546e+01 1.7999792398513705e+01 4.9992031676264865e+00 
1902 1903 2 1.4433031402590100e+00 -1.5474706159614861e-13 1.0000000000000000e+00 2.8999257312785485e+01 1.7999792398513705e+01 4.9992031676264865e+00 
1903 1904 2 1.4433031402590100e+00 -1.5474578680096989e-13 1.0000000000000000e+00 3.0999283606744754e+01 1.7999792398513705e+01 4.9992031676264865e+00 
1904 1905 2 1.4433031402590100e+00 -1.5474630179071174e-13 1.0000000000000000e+00 3.2999319249157175e+01 1.7999792398513705e+01 4.9992031676264865e+00 
85 86 2 1.4433031402590100e+00 -1.0316404251351239e-13 1.0000000000000000e+00 6.9991901957038642e+00 9.9991902398832533e+00 6.9992442079891370e+00 
86 87 2 1.4433031402590100e+00 -1.2895503325169022e-13 1.0000000000000000e+00 8.9991993786219382e+00 9.9991902398832533e+00 6.9992442079891370e+00 
87 88 2 1.4433031402590100e+00 -1.2895498677238237e-13 1.0000000000000000e+00 1.0999201254274945e+01 9.9991902398832533e+00 6.9992442079891370e+00 
88 89 2 1.4433031402590100e+00 -1.2895501455681265e-13 1.0000000000000000e+00 1.2999202426599375e+01 9.9991902398832533e+00 6.9992442079891370e+00 
89 90 2 1.4433031402590100e+00 -1.2895468532555654e-13 1.0000000000000000e+00 1.4999203594853046e+01 9.9991902398832533e+00 6.9992442079891370e+00 
90 91 2 1.4433031402590100e+00 -1.2895472120663248e-13 1.0000000000000000e+00 1.6999205099224707e+01 9.9991902398832533e+00 6.9992442079891370e+00 
91 92 2 1.4433031402590100e+00 -1.2895508923833657e-13 1.0000000000000000e+00 1.8999207450896890e+01 9.9991902398832533e+00 6.9992442079891370e+00 
92 93 2 1.4433031402590100e+00 -1.2895508809239648e-13 1.0000000000000000e+00 2.0999210996750882e+01 9.9991902398832533e+00 6.9992442079891370e+00 
93 94 2 1.4433031402590100e+00 -1.2895508650471149e-13 1.0000000000000000e+00 2.2999216596224578e+01 9.9991902398832533e+00 6.9992442079891370e+00 
94 95 2 1.4433031402590100e+00 -1.2895510546286115e-13 1.0000000000000000e+00 2.4999225286239795e+01 9.9991902398832533e+00 6.9992442079891370e+00 
95 96 2 1.4433031402590100e+00 -1.2895513171141252e-13 1.0000000000000000e+00 2.6999238452060546e+01 9.9991902398832533e+00 6.9992442079891370e+00 
96 97 2 1.4433031402590100e+00 -1.2895508703889957e-13 1.0000000000000000e+00 2.8999257312785485e+01 9.9991902398832533e+00 6.9992442079891370e+00 
97 98 2 1.4433031402590100e+00 -1.2895381224371830e-13 1.0000000000000000e+00 3.0999283606744754e+01 9.9991902398832533e+00 6.9992442079891370e+00 
98 99 2 1.4433031402590100e+00 -1.2895432723345439e-13 1.0000000000000000e+00 3.2999319249157175e+01 9.9991902398832533e+00 6.9992442079891370e+00 
547 548 2 1.4433031402590100e+00 -1.2895503435923790e-13 1.0000000000000000e+00 6.9991901957038642e+00 1.1999206875060965e+01 6.9992442079891370e+00 
548 549 2 1.4433031402590100e+00 -1.5474602509741819e-13 1.0000000000000000e+00 8.9991993786219382e+00 1.1999206875060965e+01 6.9992442079891370e+00 
549 550 2 1.4433031402590100e+00 -1.5474597861810925e-13 1.0000000000000000e+00 1.0999201254274945e+01 1.1999206875060965e+01 6.9992442079891370e+00 
550 551 2 1.4433031402590100e+00 -1.5474600640254113e-13 1.0000000000000000e+00 1.2999202426599375e+01 1.1999206875060965e+01 6.9992442079891370e+00 
551 552 2 1.4433031402590100e+00 -1.5474567717128368e-13 1.0000000000000000e+00 1.4999203594853046e+01 1.1999206875060965e+01 6.9992442079891370e+00 
552 553 2 1.4433031402590100e+00 -1.5474571305235783e-13 1.0000000000000000e+00 1.6999205099224707e+01 1.1999206875060965e+01 6.9992442079891370e+00 
553 554 2 1.4433031402590100e+00 -1.5474608108406101e-13 1.0000000000000000e+00 1.8999207450896890e+01 1.1999206875060965e+01 6.9992442079891370e+00 
554 555 2 1.4433031402590100e+00 -1.5474607993812705e-13 1.0000000000000000e+00 2.0999210996750882e+01 1.1999206875060965e+01 6.9992442079891370e+00 
555 556 2 1.4433031402590100e+00 -1.5474607835042924e-13 1.0000000000000000e+00 2.2999216596224578e+01 1.1999206875060965e+01 6.9992442079891370e+00 
556 557 2 1.4433031402590100e+00 -1.5474609730857455e-13 1.0000000000000000e+00 2.4999225286239795e+01 1.1999206875060965e+01 6.9992442079891370e+00 
557 558 2 1.4433031402590100e+00 -1.5474612355712598e-13 1.0000000000000000e+00 2.6999238452060546e+01 1.1999206875060965e+01 6.9992442079891370e+00 
558 559 2 1.4433031402590100e+00 -1.5474607888463125e-13 1.0000000000000000e+00 2.8999257312785485e+01 1.1999206875060965e+01 6.9992442079891370e+00 
559 560 2 1.4433031402590100e+00 -1.5474480408944579e-13 1.0000000000000000e+00 3.0999283606744754e+01 1.1999206875060965e+01 6.9992442079891370e+00 
560 561 2 1.4433031402590100e+00 -1.5474531907919137e-13 1.0000000000000000e+00 3.2999319249157175e+01 1.1999206875060965e+01 6.9992442079891370e+00 
1009 1010 2 1.4433031402590100e+00 -1.2895498270136615e-13 1.0000000000000000e+00 6.9991901957038642e+00 1.3999271015592596e+01 6.9992442079891370e+00 
1010 1011 2 1.4433031402590100e+00 -1.5474597343954210e-13 1.0000000000000000e+00 8.9991993786219382e+00 1.3999271015592596e+01 6.9992442079891370e+00 
1011 1012 2 1.4433031402590100e+00 -1.5474592696022748e-13 1.0000000000000000e+00 1.0999201254274945e+01 1.3999271015592596e+01 6.9992442079891370e+00 
1012 1013 2 1.4433031402590100e+00 -1.5474595474467834e-13 1.0000000000000000e+00 1.2999202426599375e+01 1.3999271015592596e+01 6.9992442079891370e+00 
1013 1014 2 1.4433031402590100e+00 -1.5474562551340769e-13 1.0000000000000000e+00 1.4999203594853046e+01 1.3999271015592596e+01 6.9992442079891370e+00 
1014 1015 2 1.4433031402590100e+00 -1.5474566139449413e-13 1.0000000000000000e+00 1.6999205099224707e+01 1.3999271015592596e+01 6.9992442079891370e+00 
1015 1016 2 1.4433031402590100e+00 -1.5474602942618126e-13 1.0000000000000000e+00 1.8999207450896890e+01 1.3999271015592596e+01 6.9992442079891370e+00 
1016 1017 2 1.4433031402590100e+00 -1.5474602828025320e-13 1.0000000000000000e+00 2.0999210996750882e+01 1.3999271015592596e+01 6.9992442079891370e+00 
1017 1018 2 1.4433031402590100e+00 -1.5474602669255878e-13 1.0000000000000000e+00 2.2999216596224578e+01 1.3999271015592596e+01 6.9992442079891370e+00 
1018 1019 2 1.4433031402590100e+00 -1.5474604565070031e-13 1.0000000000000000e+00 2.4999225286239795e+01 1.3999271015592596e+01 6.9992442079891370e+00 
1019 1020 2 1.4433031402590100e+00 -1.5474607189926357e-13 1.0000000000000000e+00 2.6999238452060546e+01 1.3999271015592596e+01 6.9992442079891370e+00 
1020 1021 2 1.4433031402590100e+00 -1.5474602722675728e-13 1.0000000000000000e+00 2.8999257312785485e+01 1.3999271015592596e+01 6.9992442079891370e+00 
1021 1022 2 1.4433031402590100e+00 -1.5474475243157766e-13 1.0000000000000000e+00 3.0999283606744754e+01 1.3999271015592596e+01 6.9992442079891370e+00 
1022 1023 2 1.4433031402590100e+00 -1.5474526742132101e-13 1.0000000000000000e+00 3.2999319249157175e+01 1.3999271015592596e+01 6.9992442079891370e+00 
1471 1472 2 1.4433031402590100e+00 -1.2895468726449263e-13 1.0000000000000000e+00 6.9991901957038642e+00 1.5999454747287073e+01 6.9992442079891370e+00 
1472 1473 2 1.4433031402590100e+00 -1.5474567800267511e-13 1.0000000000000000e+00 8.9991993786219382e+00 1.5999454747287073e+01 6.9992442079891370e+00 
1473 1474 2 1.4433031402590100e+00 -1.5474563152336168e-13 1.0000000000000000e+00 1.0999201254274945e+01 1.5999454747287073e+01 6.9992442079891370e+00 
1474 1475 2 1.4433031402590100e+00 -1.5474565930779169e-13 1.0000000000000000e+00 1.2999202426599375e+01 1.5999454747287073e+01 6.9992442079891370e+00 
1475 1476 2 1.4433031402590100e+00 -1.5474533007652813e-13 1.0000000000000000e+00 1.4999203594853046e+01 1.5999454747287073e+01 6.9992442079891370e+00 
1476 1477 2 1.4433031402590100e+00 -1.5474536595762026e-13 1.0000000000000000e+00 1.6999205099224707e+01 1.5999454747287073e+01 6.9992442079891370e+00 
1477 1478 2 1.4433031402590100e+00 -1.5474573398932412e-13 1.0000000000000000e+00 1.8999207450896890e+01 1.5999454747287073e+01 6.9992442079891370e+00 
1478 1479 2 1.4433031402590100e+00 -1.5474573284338082e-13 1.0000000000000000e+00 2.0999210996750882e+01 1.5999454747287073e+01 6.9992442079891370e+00 
1479 1480 2 1.4433031402590100e+00 -1.5474573125568352e-13 1.0000000000000000e+00 2.2999216596224578e+01 1.5999454747287073e+01 6.9992442079891370e+00 
1480 1481 2 1.4433031402590100e+00 -1.5474575021382951e-13 1.0000000000000000e+00 2.4999225286239795e+01 1.5999454747287073e+01 6.9992442079891370e+00 
1481 1482 2 1.4433031402590100e+00 -1.5474577646238889e-13 1.0000000000000000e+00 2.6999238452060546e+01 1.5999454747287073e+01 6.9992442079891370e+00 
1482 1483 2 1.4433031402590100e+00 -1.5474573178988760e-13 1.0000000000000000e+00 2.8999257312785485e+01 1.5999454747287073e+01 6.9992442079891370e+00 
1483 1484 2 1.4433031402590100e+00 -1.5474445699470721e-13 1.0000000000000000e+00 3.0999283606744754e+01 1.5999454747287073e+01 6.9992442079891370e+00 
1484 1485 2 1.4433031402590100e+00 -1.5474497198444653e-13 1.0000000000000000e+00 3.2999319249157175e+01 1.5999454747287073e+01 6.9992442079891370e+00 
1933 1934 2 1.4433031402590100e+00 -1.2895588620846197e-13 1.0000000000000000e+00 6.9991901957038642e+00 1.7999792398513705e+01 6.9992442079891370e+00 