LAMMPS data file via write_data, version 30 Jul 2016, timestep = 600000

2080 atoms
8 atom types

0.0000000000000000e+00 4.0000000000000000e+01 xlo xhi
0.0000000000000000e+00 4.0000000000000000e+01 ylo yhi
0.0000000000000000e+00 1.0000000000000000e+02 zlo zhi

Masses

1 3.896
2 10.72
3 1058.08
4 8.378
5 8.378
6 8.378
7 8.378
8 8.378

Atoms # meso-molecular

1 2 4 2.2559723595316457e+00 1.1246467344360467e+00 4.2000000000000000e+03 0.0000000000000000e+00 0.0000000000000000e+00 2.5000000000000000e+00 
21 2 4 2.2559723595316457e+00 -1.5852406635528938e+01 4.2000000000000000e+03 2.0000000000000000e+00 0.0000000000000000e+00 2.5000000000000000e+00 
41 2 4 2.2559723595316457e+00 -1.6693764613103212e+02 4.2000000000000000e+03 4.0000000000000000e+00 0.0000000000000000e+00 2.5000000000000000e+00 
61 2 4 2.2559723595316457e+00 1.0000655541125676e+00 4.2000000000000000e+03 6.0000000000000000e+00 0.0000000000000000e+00 2.5000000000000000e+00 
81 2 4 2.2559723595316457e+00 -2.0378303728601065e-02 4.2000000000000000e+03 8.0000000000000000e+00 0.0000000000000000e+00 2.5000000000000000e+00 
101 2 4 2.2559723595316457e+00 6.4963312611593498e+00 4.2000000000000000e+03 1.0000000000000000e+01 0.0000000000000000e+00 2.5000000000000000e+00 
121 2 4 2.2559723595316457e+00 -1.2879906446024068e+00 4.2000000000000000e+03 1.2000000000000000e+01 0.0000000000000000e+00 2.5000000000000000e+00 
141 2 4 2.2559723595316457e+00 1.3642236607417071e-01 4.2000000000000000e+03 1.4000000000000000e+01 0.0000000000000000e+00 2.5000000000000000e+00 
161 2 4 2.2559723595316457e+00 -5.2396092104661935e+00 4.2000000000000000e+03 1.6000000000000000e+01 0.0000000000000000e+00 2.5000000000000000e+00 
181 2 4 2.2559723595316457e+00 1.0009601131204438e+00 4.2000000000000000e+03 1.8000000000000000e+01 0.0000000000000000e+00 2.5000000000000000e+00 
2 2 4 2.2559723595316457e+00 1.4590571908176719e+00 4.2000000000000000e+03 0.0000000000000000e+00 2.0000000000000000e+00 2.5000000000000000e+00 
22 2 4 2.2559723595316457e+00 -3.6309809840974832e+00 4.2000000000000000e+03 2.0000000000000000e+00 2.0000000000000000e+00 2.5000000000000000e+00 
42 2 4 2.2559723595316457e+00 5.0206599535521708e+00 4.2000000000000000e+03 4.0000000000000000e+00 2.0000000000000000e+00 2.5000000000000000e+00 
62 2 4 2.2559723595316457e+00 1.4248174175020685e+00 4.2000000000000000e+03 6.0000000000000000e+00 2.0000000000000000e+00 2.5000000000000000e+00 
82 2 4 2.2559723595316457e+00 -8.5845760767905777e+00 4.2000000000000000e+03 8.0000000000000000e+00 2.0000000000000000e+00 2.5000000000000000e+00 
102 2 4 2.2559723595316457e+00 8.5739194875280789e-01 4.2000000000000000e+03 1.0000000000000000e+01 2.0000000000000000e+00 2.5000000000000000e+00 
122 2 4 2.2559723595316457e+00 -1.6418637134653906e+00 4.2000000000000000e+03 1.2000000000000000e+01 2.0000000000000000e+00 2.5000000000000000e+00 
142 2 4 2.2559723595316457e+00 9.6703404328089482e-01 4.2000000000000000e+03 1.4000000000000000e+01 2.0000000000000000e+00 2.5000000000000000e+00 
162 2 4 2.2559723595316457e+00 1.0865797861682087e+00 4.2000000000000000e+03 1.6000000000000000e+01 2.0000000000000000e+00 2.5000000000000000e+00 
182 2 4 2.2559723595316457e+00 9.9990174625476036e-01 4.2000000000000000e+03 1.8000000000000000e+01 2.0000000000000000e+00 2.5000000000000000e+00 
3 2 4 2.2559723595316457e+00 3.8772999591597557e-01 4.2000000000000000e+03 0.0000000000000000e+00 4.0000000000000000e+00 2.5000000000000000e+00 
23 2 4 2.2559723595316457e+00 1.3005487166000913e+00 4.2000000000000000e+03 2.0000000000000000e+00 4.0000000000000000e+00 2.5000000000000000e+00 
43 2 4 2.2559723595316457e+00 9.3310525702778846e-01 4.2000000000000000e+03 4.0000000000000000e+00 4.0000000000000000e+00 2.5000000000000000e+00 
63 2 4 2.2559723595316457e+00 -1.7640175838802803e+00 4.2000000000000000e+03 6.0000000000000000e+00 4.0000000000000000e+00 2.5000000000000000e+00 
83 2 4 2.2559723595316457e+00 -3.8697418571266522e+00 4.2000000000000000e+03 8.0000000000000000e+00 4.0000000000000000e+00 2.5000000000000000e+00 
103 2 4 2.2559723595316457e+00 -8.5328933273987440e-01 4.2000000000000000e+03 1.0000000000000000e+01 4.0000000000000000e+00 2.5000000000000000e+00 
123 2 4 2.2559723595316457e+00 8.3759344068675623e-01 4.2000000000000000e+03 1.2000000000000000e+01 4.0000000000000000e+00 2.5000000000000000e+00 
143 2 4 2.2559723595316457e+00 1.6328964432072737e+00 4.2000000000000000e+03 1.4000000000000000e+01 4.0000000000000000e+00 2.5000000000000000e+00 
163 2 4 2.2559723595316457e+00 2.6527450278989306e+00 4.2000000000000000e+03 1.6000000000000000e+01 4.0000000000000000e+00 2.5000000000000000e+00 
183 2 4 2.2559723595316457e+00 1.0019004140662404e+00 4.2000000000000000e+03 1.8000000000000000e+01 4.0000000000000000e+00 2.5000000000000000e+00 
4 2 4 2.2559723595316457e+00 -2.0430176381548462e+00 4.2000000000000000e+03 0.0000000000000000e+00 6.0000000000000000e+00 2.5000000000000000e+00 
24 2 4 2.2559723595316457e+00 2.1919048216106787e+00 4.2000000000000000e+03 2.0000000000000000e+00 6.0000000000000000e+00 2.5000000000000000e+00 
44 2 4 2.2559723595316457e+00 8.9129750780998962e-01 4.2000000000000000e+03 4.0000000000000000e+00 6.0000000000000000e+00 2.5000000000000000e+00 
64 2 4 2.2559723595316457e+00 1.0000000000000000e+00 4.2000000000000000e+03 6.0000000000000000e+00 6.0000000000000000e+00 2.5000000000000000e+00 
84 2 4 2.2559723595316457e+00 6.9751446871864964e-01 4.2000000000000000e+03 8.0000000000000000e+00 6.0000000000000000e+00 2.5000000000000000e+00 
104 2 4 2.2559723595316457e+00 -1.4424921867927786e+01 4.2000000000000000e+03 1.0000000000000000e+01 6.0000000000000000e+00 2.5000000000000000e+00 
124 2 4 2.2559723595316457e+00 -4.9037520146754105e+01 4.2000000000000000e+03 1.2000000000000000e+01 6.0000000000000000e+00 2.5000000000000000e+00 
144 2 4 2.2559723595316457e+00 3.4116751475514260e+00 4.2000000000000000e+03 1.4000000000000000e+01 6.0000000000000000e+00 2.5000000000000000e+00 
164 2 4 2.2559723595316457e+00 1.2404737918469941e+01 4.2000000000000000e+03 1.6000000000000000e+01 6.0000000000000000e+00 2.5000000000000000e+00 
184 2 4 2.2559723595316457e+00 1.3110290131925293e+01 4.2000000000000000e+03 1.8000000000000000e+01 6.0000000000000000e+00 2.5000000000000000e+00 
5 2 4 2.2559723595316457e+00 -9.2768420454348877e-01 4.2000000000000000e+03 0.0000000000000000e+00 8.0000000000000000e+00 2.5000000000000000e+00 
25 2 4 2.2559723595316457e+00 -8.9350289609262501e-01 4.2000000000000000e+03 2.0000000000000000e+00 8.0000000000000000e+00 2.5000000000000000e+00 
45 2 4 2.2559723595316457e+00 8.0340694302441999e+00 4.2000000000000000e+03 4.0000000000000000e+00 8.0000000000000000e+00 2.5000000000000000e+00 
65 2 4 2.2559723595316457e+00 1.0230377325877154e+01 4.2000000000000000e+03 6.0000000000000000e+00 8.0000000000000000e+00 2.5000000000000000e+00 
85 2 4 2.2559723595316457e+00 2.5460371902319299e+00 4.2000000000000000e+03 8.0000000000000000e+00 8.0000000000000000e+00 2.5000000000000000e+00 
105 2 4 2.2559723595316457e+00 4.9565046557420054e+00 4.2000000000000000e+03 1.0000000000000000e+01 8.0000000000000000e+00 2.5000000000000000e+00 
125 2 4 2.2559723595316457e+00 2.8434035335427197e+00 4.2000000000000000e+03 1.2000000000000000e+01 8.0000000000000000e+00 2.5000000000000000e+00 
145 2 4 2.2559723595316457e+00 1.4820608110152904e+00 4.2000000000000000e+03 1.4000000000000000e+01 8.0000000000000000e+00 2.5000000000000000e+00 
165 2 4 2.2559723595316457e+00 1.2215471568039877e+01 4.2000000000000000e+03 1.6000000000000000e+01 8.0000000000000000e+00 2.5000000000000000e+00 
185 2 4 2.2559723595316457e+00 4.0445057009468774e+00 4.2000000000000000e+03 1.8000000000000000e+01 8.0000000000000000e+00 2.5000000000000000e+00 
6 2 4 2.2559723595316457e+00 4.6089657281497537e+01 4.2000000000000000e+03 0.0000000000000000e+00 1.0000000000000000e+01 2.5000000000000000e+00 
26 2 4 2.2559723595316457e+00 2.9659050974462753e+00 4.2000000000000000e+03 2.0000000000000000e+00 1.0000000000000000e+01 2.5000000000000000e+00 
46 2 4 2.2559723595316457e+00 3.7342861634236266e+00 4.2000000000000000e+03 4.0000000000000000e+00 1.0000000000000000e+01 2.5000000000000000e+00 
66 2 4 2.2559723595316457e+00 3.4466596406690968e+00 4.2000000000000000e+03 6.0000000000000000e+00 1.0000000000000000e+01 2.5000000000000000e+00 
86 2 4 2.2559723595316457e+00 1.0001135590242365e+00 4.2000000000000000e+03 8.0000000000000000e+00 1.0000000000000000e+01 2.5000000000000000e+00 
106 2 4 2.2559723595316457e+00 -1.1850474522968204e+00 4.2000000000000000e+03 1.0000000000000000e+01 1.0000000000000000e+01 2.5000000000000000e+00 
126 2 4 2.2559723595316457e+00 -1.9225825536639161e+00 4.2000000000000000e+03 1.2000000000000000e+01 1.0000000000000000e+01 2.5000000000000000e+00 
146 2 4 2.2559723595316457e+00 1.0065571170173055e+00 4.2000000000000000e+03 1.4000000000000000e+01 1.0000000000000000e+01 2.5000000000000000e+00 
166 2 4 2.2559723595316457e+00 1.0000000000000000e+00 4.2000000000000000e+03 1.6000000000000000e+01 1.0000000000000000e+01 2.5000000000000000e+00 
186 2 4 2.2559723595316457e+00 4.2401220917778399e+00 4.2000000000000000e+03 1.8000000000000000e+01 1.0000000000000000e+01 2.5000000000000000e+00 
7 2 4 2.2559723595316457e+00 -9.3543622775259505e-01 4.2000000000000000e+03 0.0000000000000000e+00 1.2000000000000000e+01 2.5000000000000000e+00 
27 2 4 2.2559723595316457e+00 2.7274680640943294e+00 4.2000000000000000e+03 2.0000000000000000e+00 1.2000000000000000e+01 2.5000000000000000e+00 
47 2 4 2.2559723595316457e+00 7.9030774007688258e+00 4.2000000000000000e+03 4.0000000000000000e+00 1.2000000000000000e+01 2.5000000000000000e+00 
67 2 4 2.2559723595316457e+00 3.5487662166126448e+00 4.2000000000000000e+03 6.0000000000000000e+00 1.2000000000000000e+01 2.5000000000000000e+00 
87 2 4 2.2559723595316457e+00 1.2067333842062808e+00 4.2000000000000000e+03 8.0000000000000000e+00 1.2000000000000000e+01 2.5000000000000000e+00 
107 2 4 2.2559723595316457e+00 1.0128222977657324e+00 4.2000000000000000e+03 1.0000000000000000e+01 1.2000000000000000e+01 2.5000000000000000e+00 
127 2 4 2.2559723595316457e+00 9.5184166164959372e-01 4.2000000000000000e+03 1.2000000000000000e+01 1.2000000000000000e+01 2.5000000000000000e+00 
147 2 4 2.2559723595316457e+00 -2.2567838476147228e+00 4.2000000000000000e+03 1.4000000000000000e+01 1.2000000000000000e+01 2.5000000000000000e+00 
167 2 4 2.2559723595316457e+00 -2.7367021236948194e+01 4.2000000000000000e+03 1.6000000000000000e+01 1.2000000000000000e+01 2.5000000000000000e+00 
187 2 4 2.2559723595316457e+00 -1.2966825277908008e+01 4.2000000000000000e+03 1.8000000000000000e+01 1.2000000000000000e+01 2.5000000000000000e+00 
8 2 4 2.2559723595316457e+00 1.2429497106108393e+01 4.2000000000000000e+03 0.0000000000000000e+00 1.4000000000000000e+01 2.5000000000000000e+00 
28 2 4 2.2559723595316457e+00 1.3213032241557663e+01 4.2000000000000000e+03 2.0000000000000000e+00 1.4000000000000000e+01 2.5000000000000000e+00 
48 2 4 2.2559723595316457e+00 6.0807787825609729e+00 4.2000000000000000e+03 4.0000000000000000e+00 1.4000000000000000e+01 2.5000000000000000e+00 
68 2 4 2.2559723595316457e+00 -3.7545393862344573e-01 4.2000000000000000e+03 6.0000000000000000e+00 1.4000000000000000e+01 2.5000000000000000e+00 
88 2 4 2.2559723595316457e+00 -6.0706080096925605e+00 4.2000000000000000e+03 8.0000000000000000e+00 1.4000000000000000e+01 2.5000000000000000e+00 
108 2 4 2.2559723595316457e+00 2.0526604876942727e+01 4.2000000000000000e+03 1.0000000000000000e+01 1.4000000000000000e+01 2.5000000000000000e+00 
128 2 4 2.2559723595316457e+00 1.5601386831859345e+00 4.2000000000000000e+03 1.2000000000000000e+01 1.4000000000000000e+01 2.5000000000000000e+00 
148 2 4 2.2559723595316457e+00 3.4619271797771161e+00 4.2000000000000000e+03 1.4000000000000000e+01 1.4000000000000000e+01 2.5000000000000000e+00 
168 2 4 2.2559723595316457e+00 3.8834198123174852e+00 4.2000000000000000e+03 1.6000000000000000e+01 1.4000000000000000e+01 2.5000000000000000e+00 
188 2 4 2.2559723595316457e+00 1.3829866293133271e+00 4.2000000000000000e+03 1.8000000000000000e+01 1.4000000000000000e+01 2.5000000000000000e+00 
9 2 4 2.2559723595316457e+00 1.2005321995119291e+00 4.2000000000000000e+03 0.0000000000000000e+00 1.6000000000000000e+01 2.5000000000000000e+00 
29 2 4 2.2559723595316457e+00 5.1333869043766200e-01 4.2000000000000000e+03 2.0000000000000000e+00 1.6000000000000000e+01 2.5000000000000000e+00 
49 2 4 2.2559723595316457e+00 7.9645127030599538e-01 4.2000000000000000e+03 4.0000000000000000e+00 1.6000000000000000e+01 2.5000000000000000e+00 
69 2 4 2.2559723595316457e+00 9.9940971004883283e-01 4.2000000000000000e+03 6.0000000000000000e+00 1.6000000000000000e+01 2.5000000000000000e+00 
89 2 4 2.2559723595316457e+00 -3.4719516168359661e+01 4.2000000000000000e+03 8.0000000000000000e+00 1.6000000000000000e+01 2.5000000000000000e+00 
109 2 4 2.2559723595316457e+00 -1.3999886559014740e+01 4.2000000000000000e+03 1.0000000000000000e+01 1.6000000000000000e+01 2.5000000000000000e+00 
129 2 4 2.2559723595316457e+00 1.9615511841530302e+00 4.2000000000000000e+03 1.2000000000000000e+01 1.6000000000000000e+01 2.5000000000000000e+00 
149 2 4 2.2559723595316457e+00 4.7529399573717317e+00 4.2000000000000000e+03 1.4000000000000000e+01 1.6000000000000000e+01 2.5000000000000000e+00 
169 2 4 2.2559723595316457e+00 -8.2649189499130316e+00 4.2000000000000000e+03 1.6000000000000000e+01 1.6000000000000000e+01 2.5000000000000000e+00 
189 2 4 2.2559723595316457e+00 8.6388957163712448e+00 4.2000000000000000e+03 1.8000000000000000e+01 1.6000000000000000e+01 2.5000000000000000e+00 
10 2 4 2.2559723595316457e+00 9.9215727147305044e-01 4.2000000000000000e+03 0.0000000000000000e+00 1.8000000000000000e+01 2.5000000000000000e+00 
30 2 4 2.2559723595316457e+00 -8.1840002730585635e+00 4.2000000000000000e+03 2.0000000000000000e+00 1.8000000000000000e+01 2.5000000000000000e+00 
50 2 4 2.2559723595316457e+00 -1.7597480085579079e+01 4.2000000000000000e+03 4.0000000000000000e+00 1.8000000000000000e+01 2.5000000000000000e+00 
70 2 4 2.2559723595316457e+00 1.2764703598671776e-01 4.2000000000000000e+03 6.0000000000000000e+00 1.8000000000000000e+01 2.5000000000000000e+00 
90 2 4 2.2559723595316457e+00 9.9991986058575688e-01 4.2000000000000000e+03 8.0000000000000000e+00 1.8000000000000000e+01 2.5000000000000000e+00 
110 2 4 2.2559723595316457e+00 -2.4204935219682207e+00 4.2000000000000000e+03 1.0000000000000000e+01 1.8000000000000000e+01 2.5000000000000000e+00 
130 2 4 2.2559723595316457e+00 1.0677510151907974e+00 4.2000000000000000e+03 1.2000000000000000e+01 1.8000000000000000e+01 2.5000000000000000e+00 
150 2 4 2.2559723595316457e+00 7.9576912498812060e+00 4.2000000000000000e+03 1.4000000000000000e+01 1.8000000000000000e+01 2.5000000000000000e+00 
170 2 4 2.2559723595316457e+00 1.8354347667725972e+00 4.2000000000000000e+03 1.6000000000000000e+01 1.8000000000000000e+01 2.5000000000000000e+00 
190 2 4 2.2559723595316457e+00 5.3117337761572871e+00 4.2000000000000000e+03 1.8000000000000000e+01 1.8000000000000000e+01 2.5000000000000000e+00 
1972 1574 2 1.0280061187495557e+00 1.8507907726898127e+03 4.2000000000000000e+03 1.6196334071037050e+01 7.2297153444203470e+00 5.4538687679005999e+00 
1808 1410 2 1.0280061187495557e+00 -3.8826468143063943e+02 4.2000000000000000e+03 1.4852875816509362e+01 8.2644635310443562e+00 5.7559319428989300e+00 
1828 1430 2 1.0279750166121502e+00 -6.5571646479309838e+03 4.2000000000000000e+03 1.2963081111110563e+01 1.6571231287493056e+01 5.8007403223680249e+00 
1812 1414 2 1.0279750166121502e+00 4.2001974945389511e+03 4.2000000000000000e+03 1.3897868060385411e+01 1.8017860620963162e+01 5.8238122735355731e+00 
434 36 2 1.0280009210813374e+00 -1.8092602543962369e+03 4.2000000000000000e+03 1.1571121692377577e+01 1.9960068815244288e+01 6.2586380414745175e+00 
1636 1238 2 1.0279999896266308e+00 2.0218624659663911e+02 4.2000000000000000e+03 2.7277820643501649e-01 8.0481960225417062e+00 9.2673957509965899e+00 
1674 1276 2 1.0279998494646947e+00 -5.4517110673676452e+03 4.2000000000000000e+03 4.7454131365394741e+00 1.1208765312818755e+01 8.8625769856889498e+00 
526 128 2 1.0279998494646947e+00 3.1863555409253113e+03 4.2000000000000000e+03 6.3379897776744603e+00 1.1638512018250717e+01 8.3666956553657155e+00 
1467 1069 2 1.0275615621792304e+00 -9.0831475807732852e+02 4.2000000000000000e+03 1.1471427476084026e+01 1.2960887960812284e+01 8.3523365264739322e+00 
1435 1037 2 1.0284624557145485e+00 -3.8173754465520838e+03 4.2000000000000000e+03 1.0130374583378273e+01 1.4014565957782324e+01 8.6014372761105609e+00 
497 99 2 1.0274074854339783e+00 4.0096220147650847e+03 4.2000000000000000e+03 1.7007680050423467e+01 1.5525150092414865e+01 8.5926197990740079e+00 
1571 1173 2 1.0286391282627982e+00 -3.1295436513291484e+03 4.2000000000000000e+03 1.7106320324851939e+01 1.7207742461935769e+01 8.2303863844322880e+00 
1938 1540 2 1.0286358646068385e+00 8.6044637930750582e+02 4.2000000000000000e+03 1.7892670384412131e+01 1.9534250286107380e+01 9.3330831787914086e+00 
926 528 2 1.0279610492091127e+00 -2.5968085663959191e+03 4.2000000000000000e+03 1.6171386733751438e+00 3.3880909009830527e+00 1.1427090142572510e+01 
449 51 2 1.0280376798184621e+00 5.2455057975371092e+03 4.2000000000000000e+03 7.6138421867754519e-02 3.5537329596046172e+00 1.0674839647415867e+01 
1921 1523 2 1.0279999996448836e+00 -5.3755672086114218e+03 4.2000000000000000e+03 9.4103711988646559e+00 1.0189947939277227e+01 1.1763814959358834e+01 
575 177 2 1.0280061836124270e+00 -1.8789097243821965e+02 4.2000000000000000e+03 8.7071016234331839e+00 1.4730265092915765e+01 1.0810473230504272e+01 
1154 756 2 1.0279950793028449e+00 3.1295453725126181e+03 4.2000000000000000e+03 1.0435542233622916e+01 1.5721289649722715e+01 1.1599812569474665e+01 
737 339 2 1.0279969147791219e+00 8.5170179980905220e+02 4.2000000000000000e+03 9.2069774446754238e+00 1.6334144641176689e+01 9.9698207454798702e+00 
1946 1548 2 1.0279999939306248e+00 -2.8111838468251253e+03 4.2000000000000000e+03 1.2659893069710490e+01 1.8766613098233755e+01 9.9250270753548833e+00 
1437 1039 2 1.0279999939306248e+00 2.9396364140082787e+03 4.2000000000000000e+03 1.4114173755573528e+01 1.9598640218582428e+01 1.0324624573920186e+01 
1465 1067 2 1.0282976069349745e+00 -1.5037565589211090e+03 4.2000000000000000e+03 2.7029607219287204e+00 7.0268079616513890e-01 1.2107061829138186e+01 
1578 1180 2 1.0280000000272664e+00 -1.1556524784380961e+03 4.2000000000000000e+03 1.4660173165124585e+01 1.8073861763142671e+00 1.3076260363516591e+01 
942 544 2 1.0277687470040482e+00 -3.8358737131771068e+03 4.2000000000000000e+03 3.4728571165388749e+00 2.2566071692551466e+00 1.3261995787164045e+01 
430 32 2 1.0279999999988108e+00 2.6217645122705068e+02 4.2000000000000000e+03 1.3365960879459529e+01 3.1141667496169911e+00 1.2338622421572433e+01 
763 365 2 1.0279999999740901e+00 -1.0655891505061836e+03 4.2000000000000000e+03 1.5304084888220096e+01 3.5269493987512082e+00 1.2331108930726092e+01 
1086 688 2 1.0279999998887017e+00 -4.1520933347418786e+03 4.2000000000000000e+03 1.6013215614936680e+01 9.2365977797765471e+00 1.2543075238675465e+01 
1254 856 2 1.0279999998887017e+00 -3.8183031298975238e+03 4.2000000000000000e+03 1.7633434813113436e+01 9.3564005420734091e+00 1.3115278523447738e+01 
1281 883 2 1.0279999996448836e+00 -4.1975681816390597e+03 4.2000000000000000e+03 1.0154083170430503e+01 1.1710238686015694e+01 1.2083952589068062e+01 
1805 1407 2 1.0280052575506191e+00 -6.1048390660598500e+02 4.2000000000000000e+03 9.1587518632328795e+00 1.4601575188575106e+01 1.3297139622749651e+01 
1771 1373 2 1.0280051449258347e+00 1.4099140032426687e+03 4.2000000000000000e+03 1.1688186196084350e+01 1.5303349339489246e+01 1.3236245803185344e+01 
458 60 2 1.0280382026012929e+00 -4.4074678476670664e+02 4.2000000000000000e+03 8.8283840850061619e+00 1.7967283269763701e+01 1.1916154591853154e+01 
813 415 2 1.0279999947389244e+00 1.4407782774589534e+03 4.2000000000000000e+03 1.9859476797883392e+01 1.7217583268501574e+01 1.1990504946932491e+01 
1135 737 2 1.0279449380458707e+00 -6.2807843333554956e+01 4.2000000000000000e+03 7.2966876383336112e+00 1.8718475750583554e+01 1.2911584742614467e+01 
1970 1572 2 1.0279465366516896e+00 -1.6423147001996531e+02 4.2000000000000000e+03 1.0354068766626241e+01 1.8042211251686265e+01 1.3283503968483901e+01 
906 508 2 1.0280303774493225e+00 -1.4497919296313435e+03 4.2000000000000000e+03 1.3909548897166173e+01 1.9762539883470531e+01 1.3462677822127866e+01 
1282 884 2 1.0279999947389244e+00 -8.4815602245255980e+02 4.2000000000000000e+03 1.9151485023808981e+01 1.8322176864497159e+01 1.3106524763783664e+01 
1590 1192 2 1.0283578411574259e+00 -5.1281601515329394e+03 4.2000000000000000e+03 4.0058193526273627e+00 1.0201683983591874e+00 1.4602592434235612e+01 
1274 876 2 1.0279951459597820e+00 -2.8309123303757787e+02 4.2000000000000000e+03 2.4364699227017272e+00 4.5284826210182620e+00 1.5459470373873545e+01 
1757 1359 2 1.0281676644780922e+00 7.8728626085794451e+02 4.2000000000000000e+03 1.2862434585735425e+00 1.1017115332826965e+01 1.4987547598664115e+01 
1262 864 2 1.0278314826891661e+00 -2.2498884731255680e+03 4.2000000000000000e+03 5.4284117281137068e-01 1.2569429888013838e+01 1.4909931367220009e+01 
1323 925 2 1.0279915875485897e+00 2.7081260457102685e+03 4.2000000000000000e+03 1.0784661420884081e+01 1.3985575559572471e+01 1.4436099910944447e+01 
1969 1571 2 1.0280013520233746e+00 5.1702394431636867e+02 4.2000000000000000e+03 9.9068590186855143e+00 1.6080851705193343e+01 1.4375623854425815e+01 
1840 1442 2 1.0279723349530185e+00 1.1388394805023938e+03 4.2000000000000000e+03 1.5814212199955925e+01 1.7432020452039342e+01 1.5514458174530656e+01 
1079 681 2 1.0280482342605892e+00 -4.9363647198664521e+03 4.2000000000000000e+03 8.7683615113409523e+00 1.8769139267745562e+01 1.4292969126503355e+01 
2051 1653 2 1.0280303702385489e+00 2.2129086137855902e+03 4.2000000000000000e+03 1.6360856298972902e+01 1.8703614988750399e+01 1.4489105272863114e+01 
1273 875 2 1.0280081647447934e+00 1.0064546856834808e+03 4.2000000000000000e+03 3.0420962660570607e+00 3.1608553478024413e+00 1.6313715209320971e+01 
1580 1182 2 1.0279896177565748e+00 -5.0171310563831247e+02 4.2000000000000000e+03 1.8940554512150751e+00 1.1791893829636519e+01 1.7629554082499016e+01 
1787 1389 2 1.0279864506905030e+00 -2.3998992333282459e+02 4.2000000000000000e+03 1.4256409116374291e+01 1.1174676344169836e+01 1.6646862564647080e+01 
1927 1529 2 1.0279999997744360e+00 2.3696031039943873e+03 4.2000000000000000e+03 1.7964225390514816e+01 1.0835281075296429e+01 1.6334017975211125e+01 
1623 1225 2 1.0280087451498174e+00 -5.2459251123511312e+03 4.2000000000000000e+03 3.0454082049682447e+00 1.2528991937781203e+01 1.6581017789206253e+01 
415 17 2 1.0279999997744360e+00 3.8664835999569741e+03 4.2000000000000000e+03 1.8525417863200719e+01 1.2334418809069216e+01 1.5697992334317663e+01 
802 404 2 1.0280000000211145e+00 3.6572562293792753e+03 4.2000000000000000e+03 1.9026955993923369e+01 1.9370220214250580e+01 1.7311911686302665e+01 
1427 1029 2 1.0278373124169835e+00 3.9962962355381086e+02 4.2000000000000000e+03 1.5495372060229542e+01 7.7044926240062885e+00 1.9585079339701664e+01 
1620 1222 2 1.0280152591169696e+00 2.9882285569551427e+03 4.2000000000000000e+03 1.5296002400574674e+01 1.1314889360972176e+01 1.8013092381143487e+01 
1601 1203 2 1.0280000000211145e+00 6.9687589999798165e+03 4.2000000000000000e+03 1.9675364531768565e+01 1.8165930457274946e+01 1.8358874961319088e+01 
1083 685 2 1.0279999999962328e+00 -3.2648786180698226e+03 4.2000000000000000e+03 2.8308349290002552e+00 4.4919671552531630e+00 1.9643853843858100e+01 
602 204 2 1.0279999999997338e+00 -4.2669923651130466e+03 4.2000000000000000e+03 8.6188834000425985e+00 5.1944035084838838e+00 1.9936552429992425e+01 
448 50 2 1.0279999999997338e+00 2.3305250015400516e+03 4.2000000000000000e+03 9.8943385360821310e+00 4.2219789458159314e+00 2.0564632214730846e+01 
939 541 2 1.0279999999962328e+00 -7.9343669736245829e+03 4.2000000000000000e+03 2.0718175067191695e+00 6.0367947799253558e+00 1.9709273358382664e+01 
782 384 2 1.0281326470856487e+00 -4.8870465812125367e+03 4.2000000000000000e+03 1.6176039990548347e+01 9.2662704822772870e+00 1.9841676784677016e+01 
1307 909 2 1.0280000000015050e+00 1.9572559316905898e+02 4.2000000000000000e+03 1.1506987593315603e+01 1.1677893189196046e+01 2.0424753010651202e+01 
1116 718 2 1.0297659249722018e+00 -3.9289156611064273e+03 4.2000000000000000e+03 1.6643729324441985e+01 1.1923472167949678e+01 2.1116461758297813e+01 
403 5 2 1.0261898880131721e+00 1.4084251073848704e+03 4.2000000000000000e+03 1.8080351865477347e+01 1.1216448917891720e+01 2.0453515309675453e+01 
956 558 2 1.0280000000015050e+00 -2.4489118080809999e+03 4.2000000000000000e+03 1.0334864362085531e+01 1.2940036692754205e+01 2.0424076735782958e+01 
1243 845 2 1.0279999995269391e+00 -3.0820508022778135e+03 4.2000000000000000e+03 8.1844334794069944e+00 1.8563315426757711e+01 2.1089958817093777e+01 
1951 1553 2 1.0279899827153411e+00 -1.7048520666868333e+03 4.2000000000000000e+03 1.3563082561138089e+01 1.8236722927551046e+01 2.1168654620515209e+01 
929 531 2 1.0281596453275086e+00 -8.6075159607856210e+02 4.2000000000000000e+03 1.7495821761516293e+01 1.1421333455488760e+01 2.3446381779614768e+01 
945 547 2 1.0278689915857984e+00 -1.7291996598230535e+03 4.2000000000000000e+03 1.9312960475064916e+01 1.0932587445460129e+01 2.2779145175972079e+01 
1587 1189 2 1.0279999995269391e+00 -2.8681187555399442e+03 4.2000000000000000e+03 7.4415619973946621e+00 1.9509789859788519e+01 2.2322520240753633e+01 
772 374 2 1.0280102446878068e+00 2.4460884584303280e+03 4.2000000000000000e+03 1.3136841501249235e+01 1.9008255243047390e+01 2.2648527416226639e+01 
480 82 2 1.0280000005086225e+00 3.0137785956290131e+03 4.2000000000000000e+03 3.7634071928859298e+00 9.1066577959012496e-01 2.5056155099140565e+01 
1127 729 2 1.0279993599927997e+00 -2.9788181661069857e+03 4.2000000000000000e+03 7.9490889301538736e+00 7.0973424590274972e+00 2.4315376748178885e+01 
2073 1675 2 1.0280498531152842e+00 3.5203011239975649e+03 4.2000000000000000e+03 1.5950441021933829e+01 8.2491881141791765e+00 2.5262455630781531e+01 
584 186 2 1.0280163655624099e+00 1.2153300237774965e+03 4.2000000000000000e+03 1.9060120300490382e+01 1.1430824840647560e+01 2.4673502370747070e+01 
1331 933 2 1.0279999994949078e+00 -5.4012028967332008e+03 4.2000000000000000e+03 9.2061243441758869e+00 1.5328563579955405e+01 2.5042602348213723e+01 
1272 874 2 1.0279897947629588e+00 1.3487121453653938e+03 4.2000000000000000e+03 1.5106058352370086e+01 1.6306597888896846e+01 2.5008018741890101e+01 
1603 1205 2 1.0280100567354244e+00 -6.9034657094025306e+02 4.2000000000000000e+03 1.4444014364228732e+01 1.7896495958619504e+01 2.4978176259382948e+01 
1106 708 2 1.0279999947043912e+00 -3.1636038820017342e+02 4.2000000000000000e+03 9.8562224686785509e+00 1.9649740363229654e+01 2.4459461101021734e+01 
1043 645 2 1.0280000005086225e+00 -6.7881169281063640e+03 4.2000000000000000e+03 2.9842066544835286e+00 2.1649000206449851e+00 2.5943072533405285e+01 
455 57 2 1.0279993599927997e+00 5.1603536810765654e+03 4.2000000000000000e+03 7.0050101876583035e+00 7.8193147463539061e+00 2.5562115085271238e+01 
1422 1024 2 1.0279438480456111e+00 -2.2360965519461311e+03 4.2000000000000000e+03 1.6958017583759688e+01 6.6712097209101842e+00 2.6055537307001341e+01 
1155 757 2 1.0280639756979144e+00 3.4768685835943188e+03 4.2000000000000000e+03 1.8605067739137088e+01 6.0010711676601787e+00 2.6817726619760773e+01 
747 349 2 1.0279996994539347e+00 -3.3617817313517785e+03 4.2000000000000000e+03 1.0606611549532570e+01 8.3634112466819754e+00 2.5802527053177531e+01 
2034 1636 2 1.0279880915789315e+00 2.7313200813496064e+03 4.2000000000000000e+03 1.7169199233553535e+01 9.9626687636023519e+00 2.6563398085110016e+01 
1931 1533 2 1.0280190121671646e+00 -1.0315352700113519e+03 4.2000000000000000e+03 1.8859814857299572e+01 8.9167684841041535e+00 2.6777785644266078e+01 
1095 697 2 1.0279999999941667e+00 -2.0621375321247897e+03 4.2000000000000000e+03 1.4887155872142810e+00 1.1392390899693673e+01 2.6804726557487857e+01 
571 173 2 1.0279996994539347e+00 4.0663864147058353e+03 4.2000000000000000e+03 1.0297190182264661e+01 1.0034451391141886e+01 2.5521875267597910e+01 
1967 1569 2 1.0279751297521902e+00 5.4173831538733330e+03 4.2000000000000000e+03 1.5321429830959481e+01 1.0030482120224180e+01 2.5806799540467686e+01 
931 533 2 1.0279999999941667e+00 -3.6845830158473973e+03 4.2000000000000000e+03 1.4834061947970156e+00 1.2850242475412715e+01 2.5887382486977245e+01 
1480 1082 2 1.0279999994949078e+00 6.9206827915005749e+02 4.2000000000000000e+03 8.3912286445203197e+00 1.6678649408701318e+01 2.5735489646581485e+01 
936 538 2 1.0279558337577102e+00 4.0542853290765220e+03 4.2000000000000000e+03 1.9277433770023183e+01 7.4766567108476920e+00 2.8046581518772658e+01 
420 22 2 1.0281839974880942e+00 5.0934610608919538e+03 4.2000000000000000e+03 1.7866158581106628e+01 1.1555162113026553e+01 2.8918974881113591e+01 
789 391 2 1.0280000007358219e+00 1.9405740559938165e+03 4.2000000000000000e+03 6.5519404489205213e+00 1.9714910613167369e+01 2.7849342711418373e+01 
740 342 2 1.0279386759036093e+00 1.5438969680056553e+02 4.2000000000000000e+03 1.7071972870046409e+01 5.3785940968113879e+00 3.0828656674521913e+01 
783 385 2 1.0280529379771868e+00 -5.7710482075284863e+03 4.2000000000000000e+03 1.8158637052160078e+01 5.8349567549004764e+00 2.9542130351268302e+01 
401 3 2 1.0284226509487535e+00 -6.2112742623922668e+02 4.2000000000000000e+03 1.7703438260566603e+01 8.9173352881453631e+00 2.9776021120626272e+01 
1913 1515 2 1.0275929812586539e+00 -5.7012527258464092e+02 4.2000000000000000e+03 1.8254658102272707e+01 8.1297356299209937e+00 3.1206832780720273e+01 
411 13 2 1.0278282277792492e+00 6.8842418277641127e+03 4.2000000000000000e+03 1.8134229265674325e+01 1.2673694090823700e+01 3.0201707875927752e+01 