LAMMPS data file via write_data, version 30 Jul 2016, timestep = 50400000

1520 atoms
8 atom types

0.0000000000000000e+00 4.0000000000000000e+01 xlo xhi
0.0000000000000000e+00 4.0000000000000000e+01 ylo yhi
0.0000000000000000e+00 1.0000000000000000e+02 zlo zhi

Masses

1 3.896
2 5.36
3 20.064
4 8.378
5 8.378
6 8.378
7 8.378
8 8.378

Atoms # meso-molecular

752 753 2 1.0279999987982076e+00 -9.6107581193204824e+03 1.0000000000000000e+00 1.2274207753695640e+01 1.3185366961296381e+01 1.1606966479152594e+00 
1314 1315 2 1.0279999998999496e+00 -1.1320192261735894e+04 1.0000000000000000e+00 1.1383440378726709e+01 1.2836857275323867e+01 1.2727696857338893e+00 
1168 1169 2 1.0280000001506111e+00 1.8182903133756176e+03 1.0000000000000000e+00 1.1255404061457336e+01 1.2880093808869198e+01 1.3706095038807971e+00 
740 741 2 1.0280000002891345e+00 -8.3837306145269868e+03 1.0000000000000000e+00 1.1229439270089348e+01 1.3026844606830112e+01 1.6025328964658649e+00 
696 697 2 1.0279999994845426e+00 -2.2987838954017980e+03 1.0000000000000000e+00 1.3590852935706978e+01 1.3082833909128338e+01 3.0435014996758669e-01 
1474 1475 2 1.0279999993462445e+00 -1.8360043316243835e+04 1.0000000000000000e+00 1.3482256955567969e+01 1.3079686041198329e+01 3.7434856854038773e-01 
1166 1167 2 1.0279999992456741e+00 -6.7621569518927927e+03 1.0000000000000000e+00 9.4852097150869401e+00 1.4379968908983386e+01 1.5786996546814183e-01 
624 625 2 1.0280000002917875e+00 4.9915102851676038e+03 1.0000000000000000e+00 9.7150307111198249e+00 1.3532727290524102e+01 3.4214446449286351e-01 
79 80 2 1.0279999994734619e+00 -1.4179750954983624e+03 1.0000000000000000e+00 8.0589951591003501e+00 1.5730928763403545e+01 1.4057069252635965e+00 
134 135 2 1.0279999994988596e+00 -1.9053531279698705e+03 1.0000000000000000e+00 8.0204339085677212e+00 1.5734031405507318e+01 1.4159744623904544e+00 
423 424 2 1.0279999995268283e+00 1.7227785417900354e+03 1.0000000000000000e+00 8.0078269028434335e+00 1.5746679918127251e+01 1.4183895206079780e+00 
1389 1390 2 1.0279999998963709e+00 -6.3215288995819401e+02 1.0000000000000000e+00 7.6060345269263792e+00 1.5896657821192804e+01 1.5553933046982185e+00 
143 144 2 1.0279999999515919e+00 -6.5685734453104396e+03 1.0000000000000000e+00 7.4354236644645288e+00 1.5892124544798806e+01 1.6361289376315131e+00 
1060 1061 2 1.0280000000607086e+00 1.2650125094196897e+04 1.0000000000000000e+00 6.7413946788164472e+00 1.6185256958001435e+01 2.2509937590471010e+00 
1509 1510 2 1.0279999992315700e+00 1.6940302627650286e+04 1.0000000000000000e+00 1.0109481707455705e+01 1.5132964340066723e+01 2.4107640842256919e-01 
115 116 2 1.0280000011583519e+00 -3.5558636545873419e+03 1.0000000000000000e+00 1.1278543112751519e+01 1.5647384741295982e+01 7.4714922008072537e-01 
1239 1240 2 1.0280000017564050e+00 -7.6254702974646552e+03 1.0000000000000000e+00 1.2663746519917419e+01 1.6542762830505197e+01 1.1717977065167378e+00 
443 444 2 1.0279999993522551e+00 -5.8001841037613176e+03 1.0000000000000000e+00 1.3561578165680375e+01 1.3556162308524128e+01 4.5737358059858502e-01 
1032 1033 2 1.0279999996011930e+00 -8.9178841500983199e+03 1.0000000000000000e+00 9.5808948238642024e+00 1.8115399758618054e+01 1.9907550278745032e+00 
1077 1078 2 1.0279999998296825e+00 4.5689566702721395e+03 1.0000000000000000e+00 9.6116451634317173e+00 1.8461509336760759e+01 2.2408287546005266e+00 
716 717 2 1.0279999999978007e+00 -3.6775572800535992e+03 1.0000000000000000e+00 9.5114716418604317e+00 1.8510501062287652e+01 2.3083193152901345e+00 
148 149 2 1.0280000007188621e+00 5.3927265760616019e+03 1.0000000000000000e+00 7.9374947157986924e+00 1.8075476620894378e+01 2.6602592340741151e+00 
592 593 2 1.0279999972495755e+00 -6.8625451799434886e+03 1.0000000000000000e+00 1.0000646193064950e+01 1.7250564675557190e+01 1.5783731252957358e+00 
159 160 2 1.0279999966586673e+00 9.9703477502236274e+03 1.0000000000000000e+00 1.2112454322553582e+01 1.6970282881769371e+01 4.8491305705966564e-01 
389 390 2 1.0279999966566986e+00 4.9424137637255890e+03 1.0000000000000000e+00 1.2437574322030239e+01 1.7281043212157638e+01 6.3681137101913454e-01 
1283 1284 2 1.0280000016103161e+00 -4.0421381862908302e+03 1.0000000000000000e+00 1.2782033723932138e+01 1.6681804562414403e+01 1.1368798718612649e+00 
515 516 2 1.0279999985057968e+00 5.9093340571937515e+03 1.0000000000000000e+00 1.2432545493229233e+01 1.7311744913009107e+01 1.2808246630519668e+00 
1022 1023 2 1.0280000015581554e+00 2.5106817901692889e+03 1.0000000000000000e+00 1.2443855707392791e+01 1.6818055092554346e+01 1.4802749185040014e+00 
1016 1017 2 1.0279999988920907e+00 -5.7347643529919424e+02 1.0000000000000000e+00 1.0382267836336846e+01 1.8393669934246578e+01 2.0904512273251301e+00 
1043 1044 2 1.0280000014502377e+00 8.7992337382697060e+03 1.0000000000000000e+00 1.1907871222485420e+01 1.7602339615989411e+01 3.0299285949084473e+00 
338 339 2 1.0279999991607474e+00 2.4357700804439307e+02 1.0000000000000000e+00 9.6774502360872514e+00 1.3222494399757389e+01 3.8467442546005297e+00 
538 539 2 1.0279999999293596e+00 -4.0043069317510622e+03 1.0000000000000000e+00 6.2816799177349614e+00 1.6336855849541937e+01 3.4491339301264614e+00 
105 106 2 1.0279999999344482e+00 -3.5677733521758018e+03 1.0000000000000000e+00 6.2717224069490207e+00 1.6337847339539270e+01 3.4869988952797084e+00 
1148 1149 2 1.0280000001146763e+00 1.5871121589723962e+03 1.0000000000000000e+00 6.1167115158940017e+00 1.6365837723905166e+01 4.0384908427787023e+00 
841 842 2 1.0279999996384861e+00 -5.3824833808111161e+03 1.0000000000000000e+00 5.8951382861992689e+00 1.5662979607844782e+01 4.1266090608843875e+00 
1277 1278 2 1.0280000005979761e+00 2.8316027508085726e+03 1.0000000000000000e+00 6.2988633696506477e+00 1.4239297918628779e+01 5.7420670240180458e+00 
397 398 2 1.0280000005868946e+00 8.0633429399295146e+03 1.0000000000000000e+00 6.2707781717723208e+00 1.4265046961567084e+01 5.7611718729523007e+00 
2 3 2 1.0279999995155478e+00 1.6251052269515430e+03 1.0000000000000000e+00 7.5186779252553766e+00 1.3894288060644797e+01 3.3256398126844280e+00 
482 483 2 1.0279999998763611e+00 1.1626152640689841e+04 1.0000000000000000e+00 6.9680945938430048e+00 1.3983956407060013e+01 3.5329051499541619e+00 
131 132 2 1.0279999997754068e+00 2.2151811058205794e+03 1.0000000000000000e+00 7.1831597447590614e+00 1.3827104456885840e+01 3.6875171424162931e+00 
1293 1294 2 1.0280000000861240e+00 8.2263797019126159e+03 1.0000000000000000e+00 6.8588578895787524e+00 1.3845416657964362e+01 4.0538156969812720e+00 
981 982 2 1.0280000004989818e+00 -1.1527110337065413e+04 1.0000000000000000e+00 8.9769495346210526e+00 1.6000332077241055e+01 4.1496429042476253e+00 
1435 1436 2 1.0280000004730871e+00 -1.4788309515741108e+04 1.0000000000000000e+00 8.8622565780160283e+00 1.6053248459821923e+01 4.1960389063522374e+00 
1391 1392 2 1.0280000001706300e+00 3.8828000463848575e+03 1.0000000000000000e+00 6.7996913602663795e+00 1.3836533698899524e+01 4.2270438605616434e+00 
1504 1505 2 1.0279999994259246e+00 9.1860064667034821e+03 1.0000000000000000e+00 9.9037071336797933e+00 1.3732539411292873e+01 4.9055955633679940e+00 
1351 1352 2 1.0279999991012054e+00 1.1304711530733850e+04 1.0000000000000000e+00 8.9846872499781369e+00 1.4570260004466935e+01 5.6893139863145352e+00 
955 956 2 1.0280000002570082e+00 6.0367028242926772e+03 1.0000000000000000e+00 1.0809000072443904e+01 1.3632232229902336e+01 3.2401451449167218e+00 
1343 1344 2 1.0280000000756846e+00 -4.9747402610863737e+03 1.0000000000000000e+00 1.0695591606151483e+01 1.3465946980425507e+01 3.2678431417718903e+00 
396 397 2 1.0280000011526254e+00 1.9593926655059245e+03 1.0000000000000000e+00 1.0014316025845231e+01 1.5433892419363659e+01 3.6814559506770967e+00 
665 666 2 1.0280000008618977e+00 -1.2512104784105240e+03 1.0000000000000000e+00 1.0207132288257107e+01 1.5252319661286649e+01 3.6838820045338343e+00 
939 940 2 1.0279999996067808e+00 8.9237385465198568e+03 1.0000000000000000e+00 1.0522731120149906e+01 1.3461402468975859e+01 3.9634372096182826e+00 
119 120 2 1.0279999994094431e+00 1.5508671509230794e+03 1.0000000000000000e+00 1.0162299849065469e+01 1.3354256145937065e+01 4.2303919705705768e+00 
1048 1049 2 1.0279999998189111e+00 -8.1657875331455052e+03 1.0000000000000000e+00 1.0313770225881955e+01 1.4306756236056547e+01 4.7550216712567535e+00 
741 742 2 1.0279999986285804e+00 -8.2377760233971621e+03 1.0000000000000000e+00 6.6533968029058315e+00 1.9095124112208552e+01 4.9530733744173565e+00 
1149 1150 2 1.0279999988871198e+00 6.3557676359861362e+03 1.0000000000000000e+00 6.2449344854068052e+00 1.9159479232303678e+01 5.0688361448967720e+00 
1014 1015 2 1.0279999994780165e+00 8.0596527873255018e+03 1.0000000000000000e+00 4.8543511947604809e+00 1.8644375153183937e+01 5.4297066334352451e+00 
1087 1088 2 1.0279999992320930e+00 2.4467449829213647e+03 1.0000000000000000e+00 4.7821841166044869e+00 1.9023539033427138e+01 5.6738701882873848e+00 
495 496 2 1.0279999996783831e+00 -3.0991520433839978e+03 1.0000000000000000e+00 3.9739752359088052e+00 1.6726270639191718e+01 5.7591478453008893e+00 
1390 1391 2 1.0279999997988150e+00 3.3761141076470767e+03 1.0000000000000000e+00 3.7986774577198106e+00 1.6710315361784893e+01 5.8135901115603064e+00 
214 215 2 1.0279999998812475e+00 5.9094853138670969e+03 1.0000000000000000e+00 3.6662944944071292e+00 1.6706921569207363e+01 5.8588466318302048e+00 
218 219 2 1.0280000000819787e+00 -4.5911828674611479e+03 1.0000000000000000e+00 9.8554314321622538e+00 1.9198519469030160e+01 3.5094634765868276e+00 
963 964 2 1.0279999989750321e+00 8.7765559006566618e+03 1.0000000000000000e+00 8.1856159754272291e+00 1.8736920022567283e+01 3.6273460601843772e+00 
117 118 2 1.0279999989680251e+00 2.5907754634405393e+01 1.0000000000000000e+00 8.0783638871527010e+00 1.8711103040775455e+01 3.6512348832468620e+00 
412 413 2 1.0279999981917718e+00 -2.3538047149920385e+03 1.0000000000000000e+00 7.6040588871095833e+00 1.8766853641290236e+01 4.1053225455916138e+00 
511 512 2 1.0279999991864086e+00 -1.2508900740574300e+03 1.0000000000000000e+00 6.7683999205043941e+00 1.9017979027458594e+01 5.4433623709455317e+00 
921 922 2 1.0279999991892754e+00 5.3164572885288680e+03 1.0000000000000000e+00 6.7695097811055431e+00 1.9016884781664295e+01 5.4443149306241390e+00 
405 406 2 1.0280000045750457e+00 3.5370393837288743e+03 1.0000000000000000e+00 7.1438096857547153e+00 1.7678568814054643e+01 5.4629421698142835e+00 
1251 1252 2 1.0280000010176331e+00 1.7325952162776935e+03 1.0000000000000000e+00 1.1808578478992835e+01 1.7590059162145199e+01 3.5536650038697331e+00 
1472 1473 2 1.0280000001671246e+00 3.1173483119806144e+02 1.0000000000000000e+00 1.1123702682333274e+01 1.9094904573293608e+01 3.6342140417895088e+00 
150 151 2 1.0279999999463976e+00 9.3277175684831968e+02 1.0000000000000000e+00 1.1970144929291255e+01 1.8423406276936173e+01 4.5317996054785921e+00 
1387 1388 2 1.0279999998992806e+00 -3.2109663224448441e+03 1.0000000000000000e+00 1.1975339871098312e+01 1.8441171622951817e+01 4.6327370692635395e+00 
1313 1314 2 1.0280000001680549e+00 5.6867592117669246e+03 1.0000000000000000e+00 1.1571264243050582e+01 1.7428064934364397e+01 4.9326859622935704e+00 
1256 1257 2 1.0279999998735385e+00 8.5175071186181467e+03 1.0000000000000000e+00 1.1612001720316568e+01 1.9112261803753761e+01 5.0427296639890731e+00 
1035 1036 2 1.0280000000207783e+00 -3.6067267542593981e+03 1.0000000000000000e+00 1.0393979518792534e+01 1.9379749079330470e+01 5.3481072037053297e+00 
575 576 2 1.0279999999990972e+00 6.4469245253253011e+03 1.0000000000000000e+00 1.0245188101093193e+01 1.9288710247179740e+01 5.6939447778672623e+00 
155 156 2 1.0280000000055178e+00 -1.3806240522287130e+03 1.0000000000000000e+00 1.1178287668209132e+01 1.7481347805217471e+01 5.9957871154754976e+00 
326 327 2 1.0279999998460752e+00 2.1405503528240561e+03 1.0000000000000000e+00 2.5285481454915399e+00 1.5867655727127550e+01 7.1177741112906441e+00 
316 317 2 1.0279999998258933e+00 4.9064489968263069e+03 1.0000000000000000e+00 2.6041662954695508e+00 1.5665325181035215e+01 7.2088784752468484e+00 
669 670 2 1.0279999997315314e+00 1.6851340934487317e+02 1.0000000000000000e+00 2.5266176878707762e+00 1.5763237414343017e+01 7.7207070855179714e+00 
639 640 2 1.0279999996520846e+00 -9.1771965293645171e+03 1.0000000000000000e+00 2.4829213513313326e+00 1.6023866228763907e+01 7.7250309882105368e+00 
297 298 2 1.0279999999243385e+00 5.2835320706001930e+03 1.0000000000000000e+00 2.6668968036134331e+00 1.5485522380924754e+01 7.8901184064242438e+00 
313 314 2 1.0279999967574798e+00 5.7409019349397659e+03 1.0000000000000000e+00 5.0448812564727161e+00 1.5524174535137147e+01 6.2435464460202965e+00 
348 349 2 1.0279999986081398e+00 -1.2006389748162778e+03 1.0000000000000000e+00 4.5036278192517454e+00 1.5498024302452038e+01 6.3899914568810701e+00 
124 125 2 1.0280000002745311e+00 4.5787818725340921e+03 1.0000000000000000e+00 6.5305318424497898e+00 1.6075653933505023e+01 7.1401033152926541e+00 
471 472 2 1.0280000022790159e+00 -2.7990661630316990e+03 1.0000000000000000e+00 4.8298277564706380e+00 1.5769289192035737e+01 8.1685979886312587e+00 
458 459 2 1.0279999999193001e+00 -2.1464842973660097e+03 1.0000000000000000e+00 6.4895196111382560e+00 1.4059720118882593e+01 8.7091194972002253e+00 
549 550 2 1.0279999996973286e+00 -1.3406416756451563e+04 1.0000000000000000e+00 8.0160612029548872e+00 1.4322735652798317e+01 6.3650776274506349e+00 
448 449 2 1.0279999996546685e+00 3.4218656093750360e+03 1.0000000000000000e+00 8.0396204313122723e+00 1.4374314354644648e+01 6.3972069416939288e+00 
240 241 2 1.0279999997861435e+00 5.3468097146735226e+03 1.0000000000000000e+00 7.8242764499618200e+00 1.4389881615164208e+01 6.6807316487779262e+00 
586 587 2 1.0280000006085952e+00 1.0470188574726806e+04 1.0000000000000000e+00 7.1529056111004303e+00 1.6160987452136013e+01 7.0776779487073300e+00 
756 757 2 1.0279999998136311e+00 2.8163768964201809e+03 1.0000000000000000e+00 7.7490348339215878e+00 1.6027235140117636e+01 7.6673118262776567e+00 
24 25 2 1.0279999999459100e+00 -3.3213511138779029e+02 1.0000000000000000e+00 7.7179150001867596e+00 1.6055807090362428e+01 7.7235341199786207e+00 
887 888 2 1.0279999999436433e+00 4.8232797580997012e+03 1.0000000000000000e+00 6.7985752031540603e+00 1.4131394940162682e+01 8.3153384725917423e+00 
637 638 2 1.0280000000753222e+00 -2.7473768160476861e+03 1.0000000000000000e+00 2.6997381539565741e+00 1.6884640144348989e+01 6.6330189993852828e+00 
1093 1094 2 1.0279999989873625e+00 1.1193870458260881e+03 1.0000000000000000e+00 3.2957019843063917e+00 1.9649298917399271e+01 7.5699267532172225e+00 
399 400 2 1.0279999994969584e+00 6.3389097042273206e+03 1.0000000000000000e+00 2.9105846778931967e+00 1.9043523903153744e+01 7.5705182859048836e+00 
616 617 2 1.0279999990214344e+00 2.1094901280423414e+03 1.0000000000000000e+00 3.0878517904456806e+00 1.9778314013805208e+01 7.9150633989856418e+00 
479 480 2 1.0279999991602740e+00 9.0625489250367373e+03 1.0000000000000000e+00 2.3819447565163019e+00 1.9546613789938323e+01 8.6256132795473146e+00 
1082 1083 2 1.0279999993517606e+00 9.3935651824737377e+01 1.0000000000000000e+00 5.2986916481268764e+00 1.9458064549585330e+01 6.0876038891326010e+00 
1133 1134 2 1.0279999993425912e+00 1.3185866795377342e+02 1.0000000000000000e+00 4.1754635940020517e+00 1.9200994082807064e+01 6.2515802068634256e+00 
1336 1337 2 1.0279999992363167e+00 7.3052860042518660e+03 1.0000000000000000e+00 4.0397539856036957e+00 1.9695484837006692e+01 7.2565894466203229e+00 
420 421 2 1.0280000011186354e+00 -8.8259145260904336e+02 1.0000000000000000e+00 5.0581447495533363e+00 1.9551196377060226e+01 7.5584104708999957e+00 
1326 1327 2 1.0280000027833724e+00 7.1565520512556541e+03 1.0000000000000000e+00 3.5090379387362658e+00 1.7496172648037255e+01 8.2149138904714434e+00 
1415 1416 2 1.0279999996482705e+00 -1.7230498719537725e+04 1.0000000000000000e+00 9.7710164424877153e+00 1.7588377308910498e+01 6.8386846498549119e+00 
242 243 2 1.0279999999889184e+00 8.5366419687792732e+03 1.0000000000000000e+00 9.6875607312538179e+00 1.8610329849546542e+01 6.9831114963297685e+00 
1215 1216 2 1.0279999976230032e+00 1.1279014482533644e+03 1.0000000000000000e+00 9.3265378826308201e+00 1.7879933850481297e+01 7.1779084123295229e+00 
516 517 2 1.0280000007915953e+00 -1.2260672918722554e+04 1.0000000000000000e+00 8.4846329960157654e+00 1.7391174195838357e+01 8.5477279538518349e+00 
1204 1205 2 1.0279999996648932e+00 5.5399833092536428e+03 1.0000000000000000e+00 7.5565094750717163e+00 1.9942590249425709e+01 8.5640622153171897e+00 
1101 1102 2 1.0279999996625817e+00 -2.8541477458338068e+03 1.0000000000000000e+00 7.5732916176953662e+00 1.9958389293199374e+01 8.5754737462102835e+00 
1297 1298 2 1.0280000007364383e+00 1.2357954269843052e+04 1.0000000000000000e+00 9.2191991873548478e+00 1.7965354600110562e+01 8.6907077971560902e+00 
1344 1345 2 1.0279999999753036e+00 1.1813667146354968e+04 1.0000000000000000e+00 1.1109225639495032e+01 1.7706448430814891e+01 6.3636639675859783e+00 
500 501 2 1.0280000001212479e+00 4.1519248168942122e+03 1.0000000000000000e+00 1.0785612350112318e+01 1.9032110620890951e+01 6.3736516722962842e+00 
1505 1506 2 1.0280000001592742e+00 -2.0970513501161668e+03 1.0000000000000000e+00 1.0361249021699569e+01 1.7889808696486156e+01 6.9770343362177005e+00 
1381 1382 2 1.0279999994713176e+00 -5.0152211643727492e+02 1.0000000000000000e+00 7.7116874603958385e-01 1.6630958817855120e+01 1.0484417208945299e+01 
1495 1496 2 1.0279999992330930e+00 -9.8410888638094475e+03 1.0000000000000000e+00 1.8052477048736857e+00 1.5202255966724785e+01 1.0510885656962687e+01 
1403 1404 2 1.0279999977073353e+00 -1.7525346687469491e+03 1.0000000000000000e+00 1.2707245101967406e+00 1.6256003265389776e+01 1.0635605641466300e+01 
1378 1379 2 1.0280000000997283e+00 -4.4712717867773399e+03 1.0000000000000000e+00 2.4596626033330544e+00 1.4290004687909688e+01 1.0740278636614267e+01 
1465 1466 2 1.0280000000784593e+00 -4.5506990200394084e+03 1.0000000000000000e+00 2.4011213063612691e+00 1.4335845734722621e+01 1.0758100615540215e+01 
339 340 2 1.0280000000918128e+00 1.5427657518043875e+03 1.0000000000000000e+00 2.3936230107445247e+00 1.4344775461078365e+01 1.0851630396539216e+01 
434 435 2 1.0280000004665546e+00 4.8082045697582835e+03 1.0000000000000000e+00 2.8630098847019601e+00 1.4553682177920553e+01 1.1886415084872549e+01 
1494 1495 2 1.0279999998704006e+00 -1.0631642145070966e+04 1.0000000000000000e+00 6.0261906994664045e+00 1.4018743790250490e+01 9.1524982557030761e+00 
1081 1082 2 1.0280000003155774e+00 7.6180517760260991e+03 1.0000000000000000e+00 3.9637991125926728e+00 1.4369129215760395e+01 9.1990045557844446e+00 
890 891 2 1.0279999998586515e+00 4.7667002496716386e+03 1.0000000000000000e+00 5.9656574391026629e+00 1.4016124474999438e+01 9.2203871692542254e+00 
249 250 2 1.0279999996463858e+00 5.5349984003084191e+03 1.0000000000000000e+00 4.6095174736473616e+00 1.4242563217893348e+01 9.3850141873847406e+00 
416 417 2 1.0280000003939218e+00 -3.4603877043328093e+03 1.0000000000000000e+00 3.4037646618304849e+00 1.4234691828622935e+01 9.5477516836532086e+00 
1516 1517 2 1.0279999994215130e+00 5.4830035190240833e+03 1.0000000000000000e+00 4.2639825334303865e+00 1.4196925147391905e+01 1.0775247244874420e+01 
35 36 2 1.0279999977835586e+00 1.4947123714308973e+03 1.0000000000000000e+00 4.9266141573726827e+00 1.5126341075373347e+01 1.0943122297852225e+01 
123 124 2 1.0279999996067108e+00 -7.8126012093454956e+03 1.0000000000000000e+00 6.6173966332574548e+00 1.5993066500504254e+01 1.1113092552363462e+01 
1362 1363 2 1.0279999995438092e+00 8.1992966250243353e+03 1.0000000000000000e+00 4.2223033147527191e+00 1.5021093370753329e+01 1.1549495709749459e+01 
1502 1503 2 1.0280000003062826e+00 -6.8753587453182154e+03 1.0000000000000000e+00 7.7229201894753663e+00 1.4943138067639046e+01 1.0311025304162662e+01 
226 227 2 1.0279999998958935e+00 1.0616863070738873e+04 1.0000000000000000e+00 8.3314701177660151e+00 1.6332464136920557e+01 1.0404941792511799e+01 
596 597 2 1.0280000002711200e+00 4.1994657214735798e+03 1.0000000000000000e+00 7.7059757512433409e+00 1.5000728063300636e+01 1.0405870030086572e+01 
523 524 2 1.0280000002414713e+00 3.4222099118923970e+03 1.0000000000000000e+00 7.7517431886633839e+00 1.5109724576826094e+01 1.0445057140994349e+01 
166 167 2 1.0280000001437231e+00 7.2465043281238031e+03 1.0000000000000000e+00 7.2395920550323769e+00 1.4765067446710198e+01 1.0647085063639613e+01 
905 906 2 1.0279999999964264e+00 8.2613141646095141e+02 1.0000000000000000e+00 7.1281170224824537e+00 1.5045895171560327e+01 1.0863790838738890e+01 
1132 1133 2 1.0279999996099727e+00 5.8824115646400933e+03 1.0000000000000000e+00 2.0699388508459013e+00 1.9859960721915922e+01 9.1470846882383032e+00 
823 824 2 1.0279999997926004e+00 -2.6606087651120089e+02 1.0000000000000000e+00 2.0170584624378436e+00 1.9928197752814381e+01 9.2506539074395668e+00 
1421 1422 2 1.0279999999722393e+00 -2.8803708135614024e+03 1.0000000000000000e+00 1.8580693598664504e+00 1.9993381982357388e+01 9.5142642747472763e+00 
1 2 2 1.0279999999166429e+00 -7.3146347262526924e+03 1.0000000000000000e+00 4.0622710880902901e-01 1.6986546026687417e+01 1.0346466523986219e+01 
709 710 2 1.0279999998624907e+00 9.9142742181637295e+03 1.0000000000000000e+00 4.5348551923958058e-01 1.6898409531181297e+01 1.0379666400284984e+01 
1084 1085 2 1.0279999986106603e+00 8.6816410793671675e+03 1.0000000000000000e+00 6.0779860296841770e-01 1.9374754610090310e+01 1.1031500629287482e+01 
186 187 2 1.0280000007872843e+00 9.8647405022391604e+02 1.0000000000000000e+00 2.5066664375491459e+00 1.9830675721094963e+01 1.1644322620150993e+01 
517 518 2 1.0280000011873389e+00 -1.0772035586987520e+04 1.0000000000000000e+00 1.9716978898200588e+00 1.7182417720516025e+01 1.1895477218359980e+01 
789 790 2 1.0280000000322655e+00 1.1170075124855398e+02 1.0000000000000000e+00 1.5268569852756351e+00 1.8382855185853003e+01 1.2025567708627282e+01 
1167 1168 2 1.0280000013465276e+00 -7.3043293622637466e+03 1.0000000000000000e+00 5.0701115074783036e+00 1.8447314819775961e+01 9.4224864057374944e+00 
672 673 2 1.0279999993251012e+00 1.6747430402637547e+03 1.0000000000000000e+00 6.1441704602419520e+00 1.7948133115979591e+01 9.4408623957832081e+00 
294 295 2 1.0280000008156711e+00 -9.2267154181050901e+03 1.0000000000000000e+00 5.1481153278172940e+00 1.8300593947864225e+01 9.8344928765680084e+00 
225 226 2 1.0280000004532290e+00 9.6275048549790226e+03 1.0000000000000000e+00 5.3010071686591429e+00 1.8215916071781869e+01 9.8891975252364634e+00 
846 847 2 1.0280000010303316e+00 4.5932334630798978e+03 1.0000000000000000e+00 5.1668543160030715e+00 1.8058859749933749e+01 1.0439204533882162e+01 
1225 1226 2 1.0279999967209283e+00 8.6765874723445704e+03 1.0000000000000000e+00 4.1219381656103566e+00 1.8825114559209883e+01 1.1273770217466355e+01 
1187 1188 2 1.0279999999332627e+00 2.3282754707631534e+03 1.0000000000000000e+00 3.9813654391224036e+00 1.8471391379521592e+01 1.1600703306748196e+01 
465 466 2 1.0279999996168367e+00 5.6736291556274955e+03 1.0000000000000000e+00 5.7636134123656513e+00 1.7423652578819411e+01 1.1740866437029682e+01 
1137 1138 2 1.0280000001381664e+00 1.3774733384326886e+04 1.0000000000000000e+00 9.0797646298291372e+00 1.9573840933640096e+01 9.5756848527012348e+00 
870 871 2 1.0280000001713701e+00 -4.8609457479309367e+02 1.0000000000000000e+00 8.9828757805485218e+00 1.7482806904687770e+01 1.0063415178953020e+01 
283 284 2 1.0280000002512752e+00 -6.4507469623010529e+03 1.0000000000000000e+00 9.2636556330269411e+00 1.8713797342781941e+01 1.0233599905152156e+01 
445 446 2 1.0280000001072054e+00 4.2783919785690559e+03 1.0000000000000000e+00 8.9187371385099592e+00 1.9481966631744399e+01 1.0415846367259359e+01 
88 89 2 1.0279999998454132e+00 2.4093110916342903e+03 1.0000000000000000e+00 8.5859536366413298e+00 1.7962873688921935e+01 1.1045023187604313e+01 
987 988 2 1.0279999996436511e+00 -2.2790406991912505e+03 1.0000000000000000e+00 8.2041920613143429e+00 1.8195346980831474e+01 1.1257431410910577e+01 
785 786 2 1.0279999994492608e+00 -1.1662620414955883e+04 1.0000000000000000e+00 7.7699165552679821e+00 1.8525116397671827e+01 1.1328951370094131e+01 
986 987 2 1.0279999992968594e+00 -3.2389856515523916e+03 1.0000000000000000e+00 7.7627992877434657e+00 1.8130075440299873e+01 1.1363643999645385e+01 
782 783 2 1.0280000009694865e+00 7.2293788449921976e+03 1.0000000000000000e+00 2.9025284002186069e+00 1.5195988711493214e+01 1.2562739993620445e+01 
317 318 2 1.0280000013627009e+00 5.1299100382605111e+03 1.0000000000000000e+00 3.2846954241150397e+00 1.5409131827546545e+01 1.2828217969822081e+01 
1512 1513 2 1.0279999986767152e+00 1.5963302982345267e+04 1.0000000000000000e+00 3.0875517922464608e+00 1.5830374729197905e+01 1.4321267403772257e+01 
304 305 2 1.0279999994031248e+00 7.6854852529739946e+03 1.0000000000000000e+00 1.4267574608402918e+00 1.5450297839000385e+01 1.5054700848863551e+01 
1013 1014 2 1.0280000002700580e+00 1.6306002019728103e+03 1.0000000000000000e+00 3.4454680581716368e+00 1.5767295127798187e+01 1.3669658341083419e+01 
954 955 2 1.0279999984315968e+00 6.2474646708355594e+03 1.0000000000000000e+00 3.3581610397193304e+00 1.6169263152360458e+01 1.4724107636458095e+01 
1096 1097 2 1.0280000006709320e+00 6.1259927514225024e+02 1.0000000000000000e+00 3.3063732270894768e+00 1.7963562148988977e+01 1.2447834837030191e+01 
760 761 2 1.0280000007742911e+00 -6.6481827417478853e+03 1.0000000000000000e+00 3.2948816594636425e+00 1.7963893494893266e+01 1.2516639423226277e+01 
49 50 2 1.0280000000099669e+00 -3.4931630473605283e+03 1.0000000000000000e+00 3.8349789118318311e-01 1.8018959948067366e+01 1.2769634753022769e+01 
703 704 2 1.0279999995986284e+00 1.0213042601612819e+04 1.0000000000000000e+00 3.2558010292149242e+00 1.9095587773584736e+01 1.5006962267397387e+01 
927 928 2 1.0280000003247223e+00 -3.8281452368386153e+03 1.0000000000000000e+00 5.1626020039508500e+00 1.6675648911388269e+01 1.3396278362255888e+01 
1211 1212 2 1.0279999998991636e+00 -1.0961827557137663e+03 1.0000000000000000e+00 5.7930772372235486e+00 1.7987538848601236e+01 1.3483141381435642e+01 
521 522 2 1.0279999999792053e+00 -1.7877260925744951e+04 1.0000000000000000e+00 5.7743235369062615e+00 1.8250932072605352e+01 1.3947387633696733e+01 
3 4 2 1.0279999999923881e+00 1.9897370707480713e+03 1.0000000000000000e+00 5.7271605476676877e+00 1.7792345997128002e+01 1.4000039441859267e+01 
1010 1011 2 1.0280000001077387e+00 -1.1670399941393234e+03 1.0000000000000000e+00 3.6520644481388049e+00 1.9733067142858960e+01 1.4017596401568673e+01 
714 715 2 1.0280000000649483e+00 3.9508940428190308e+03 1.0000000000000000e+00 5.2963151591722095e+00 1.7086132430774320e+01 1.4213353558902508e+01 
320 321 2 1.0279999999128973e+00 4.2729053342878515e+03 1.0000000000000000e+00 5.6368980385085434e+00 1.9449600769574868e+01 1.4309666426411519e+01 
1009 1010 2 1.0279999998783667e+00 5.0489924379260026e+02 1.0000000000000000e+00 5.0693363143297683e+00 1.7368705136472226e+01 1.4733811677395618e+01 
681 682 2 1.0279999996911449e+00 6.6417463442578119e+03 1.0000000000000000e+00 4.7552251352713411e+00 1.7463887296482962e+01 1.4982970397290565e+01 
1143 1144 2 1.0279999995798710e+00 2.8306789779176902e+03 1.0000000000000000e+00 1.2123932535077442e+00 1.5393484211536435e+01 1.5186330378163332e+01 
189 190 2 1.0279999997179368e+00 6.6031828832467982e+03 1.0000000000000000e+00 9.7877126901712375e-01 1.5417059053329313e+01 1.5264945361067065e+01 
1258 1259 2 1.0279999997377887e+00 4.7967459751877268e+03 1.0000000000000000e+00 1.0171988320048191e+00 1.5350295641973853e+01 1.5320428825706333e+01 
934 935 2 1.0279999998559126e+00 6.1833865700795313e+03 1.0000000000000000e+00 2.5929117138164894e+00 1.5950029984952527e+01 1.5756190086039743e+01 
1396 1397 2 1.0279999999890013e+00 -4.1268869264837440e+03 1.0000000000000000e+00 2.4164318845005564e-01 1.5443807352053526e+01 1.5788831628422793e+01 
1088 1089 2 1.0280000004034053e+00 3.3974400446311620e+03 1.0000000000000000e+00 2.4551444942715297e+00 1.6139999921573548e+01 1.6508266128120695e+01 
228 229 2 1.0280000004394076e+00 8.5666550209344095e+03 1.0000000000000000e+00 1.5713895091203072e+00 1.6076621402193879e+01 1.7677303627212197e+01 
1267 1268 2 1.0280000002864460e+00 -3.5253661981982741e+03 1.0000000000000000e+00 1.2360719397823319e+00 1.6163712883416359e+01 1.7916939970966212e+01 
174 175 2 1.0280000002722578e+00 -1.0448531291866409e+04 1.0000000000000000e+00 1.3015842022792834e+00 1.6237003915236023e+01 1.7947608552150875e+01 
744 745 2 1.0280000003101435e+00 -8.6446163379255304e+03 1.0000000000000000e+00 2.1667883373425147e+00 1.9988356075916474e+01 1.5965975396774224e+01 
125 126 2 1.0280000010318864e+00 -3.3789448822777404e+03 1.0000000000000000e+00 2.8402112196513474e+00 1.7881873892875522e+01 1.6218349552422662e+01 
187 188 2 1.0280000005261452e+00 2.9568655597465977e+02 1.0000000000000000e+00 2.1516154711629092e+00 1.8926733265661458e+01 1.6560780761608374e+01 
310 311 2 1.0279999999367244e+00 -3.7194420466519496e+03 1.0000000000000000e+00 3.3208232036116252e+00 1.8295238956561292e+01 1.8007932274505201e+01 
670 671 2 1.0279999999509164e+00 -8.7446853148820401e+02 1.0000000000000000e+00 3.3145457339614834e+00 1.8389089000659677e+01 1.8163624913924178e+01 
699 700 2 1.0279999995763600e+00 -3.6650667033418620e+02 1.0000000000000000e+00 4.8693307524304270e+00 1.9523077410280894e+01 1.6383480143543530e+01 
732 733 2 1.0279999995952707e+00 -8.6752865952241075e+02 1.0000000000000000e+00 4.3637445429160628e+00 1.9810902729646784e+01 1.7248439060628062e+01 
329 330 2 1.0279999999383278e+00 -5.6730906344458090e+03 1.0000000000000000e+00 3.3346091242387308e+00 1.8368498031798790e+01 1.8093656384577187e+01 
1054 1055 2 1.0279999999327256e+00 -2.1224640753684262e+03 1.0000000000000000e+00 1.0113924480510281e+00 1.6455672353718828e+01 1.8208322133350784e+01 