LAMMPS data file via write_data, version 30 Jul 2016, timestep = 50000000

1520 atoms
8 atom types

0.0000000000000000e+00 4.0000000000000000e+01 xlo xhi
0.0000000000000000e+00 4.0000000000000000e+01 ylo yhi
0.0000000000000000e+00 1.0000000000000000e+02 zlo zhi

Masses

1 3.896
2 5.36
3 20.064
4 8.378
5 8.378
6 8.378
7 8.378
8 8.378

Atoms # meso-molecular

263 264 2 1.0279999996466300e+00 5.2267706615699281e+03 1.0000000000000000e+00 1.2919099604700188e+01 1.2664032848810736e+01 9.7318878495656902e-01 
1281 1282 2 1.0279999997429641e+00 6.2061783630648370e+03 1.0000000000000000e+00 1.0689060993698682e+01 1.3137067218086242e+01 1.3749290926679820e+00 
619 620 2 1.0280000000258496e+00 -1.1367367106233811e+04 1.0000000000000000e+00 1.0429422390379930e+01 1.3172958316072609e+01 1.5042155970242279e+00 
1003 1004 2 1.0280000006444390e+00 2.1952531750222470e+03 1.0000000000000000e+00 1.3498014304291127e+01 1.2732778314148785e+01 2.9491315461967643e-01 
946 947 2 1.0279999998698994e+00 5.0112688023941573e+03 1.0000000000000000e+00 1.4223992474567156e+01 1.3241547973659872e+01 1.8604403291349672e+00 
696 697 2 1.0279999994713171e+00 -2.2987838954017980e+03 1.0000000000000000e+00 1.3582964028064199e+01 1.3081490824544792e+01 2.2700995591866318e+00 
1474 1475 2 1.0279999993299755e+00 -1.8360043316243835e+04 1.0000000000000000e+00 1.3474415167728713e+01 1.3078338236545402e+01 2.3401594843279363e+00 
1141 1142 2 1.0279999998165474e+00 1.3614470852308281e+04 1.0000000000000000e+00 9.7972789804200815e+00 1.4204111484551085e+01 1.6706011660666704e+00 
1166 1167 2 1.0279999992181659e+00 -6.7621569518927927e+03 1.0000000000000000e+00 9.4781477028207348e+00 1.4378873398657568e+01 2.1239513376205288e+00 
624 625 2 1.0280000002991632e+00 4.9915102851676038e+03 1.0000000000000000e+00 9.7080497892872764e+00 1.3531633246466701e+01 2.3082998217791699e+00 
1243 1244 2 1.0279999983360222e+00 -5.0226771779440987e+03 1.0000000000000000e+00 1.2832360005520655e+01 1.3469048528276385e+01 2.6251243398352447e-01 
1023 1024 2 1.0279999993568079e+00 3.8062600504232123e+03 1.0000000000000000e+00 1.0891322031238611e+01 1.3974114037527631e+01 1.1279185395682327e+00 
1177 1178 2 1.0279999998514879e+00 -2.7810505545293718e+03 1.0000000000000000e+00 1.0234446575625469e+01 1.4297136729045800e+01 1.4177363208817428e+00 
1509 1510 2 1.0279999992099749e+00 1.6940302627650286e+04 1.0000000000000000e+00 1.0102569411347728e+01 1.5131991410560023e+01 2.2071502958069669e+00 
115 116 2 1.0280000012171406e+00 -3.5558636545873419e+03 1.0000000000000000e+00 1.1271689688722656e+01 1.5646201437252172e+01 2.7134199796531995e+00 
10 11 2 1.0280000024037745e+00 -7.6821437305760883e+03 1.0000000000000000e+00 1.3550236952720931e+01 1.5888400136321065e+01 4.4423325232944677e-01 
518 519 2 1.0279999969704106e+00 5.7042648412135313e+03 1.0000000000000000e+00 1.5925800958884379e+01 1.4221982500475224e+01 5.5057316742372486e-01 
243 244 2 1.0279999989935187e+00 6.7275455324371742e+03 1.0000000000000000e+00 1.6275905218630758e+01 1.4804044169026106e+01 6.5018775614298430e-01 
979 980 2 1.0279999994800653e+00 4.4246772425030613e+03 1.0000000000000000e+00 1.4950772861246232e+01 1.5150415738647615e+01 1.2125136746897798e+00 
866 867 2 1.0279999996032267e+00 1.7044607122587036e+03 1.0000000000000000e+00 1.4696505081058159e+01 1.3338638904154474e+01 1.4069253970813664e+00 
1041 1042 2 1.0280000004223413e+00 1.6135239724866942e+03 1.0000000000000000e+00 1.3969539563473724e+01 1.5690573127422120e+01 1.8378348363585810e+00 
443 444 2 1.0279999993344904e+00 -5.8001841037613176e+03 1.0000000000000000e+00 1.3553749157656554e+01 1.3554972712052921e+01 2.4232270630758950e+00 
1519 1520 2 1.0279999997068019e+00 2.6631614901843341e+03 1.0000000000000000e+00 1.7056956533925785e+01 1.4306483052351210e+01 3.3896363467116282e-02 
424 425 2 1.0280000002165246e+00 -8.5994970219532734e+03 1.0000000000000000e+00 1.7285086663622121e+01 1.4867464040844624e+01 2.9945609745135854e-01 
159 160 2 1.0279999965986690e+00 9.9703477502236274e+03 1.0000000000000000e+00 1.2105137522620348e+01 1.6969423630707276e+01 2.4506290923568823e+00 
389 390 2 1.0279999965745432e+00 4.9424137637255890e+03 1.0000000000000000e+00 1.2430517154799785e+01 1.7280470942859850e+01 2.6027499297059307e+00 
542 543 2 1.0279999993828928e+00 2.2383225341908960e+03 1.0000000000000000e+00 1.4355303808486937e+01 1.7454443220179506e+01 7.0116620494176740e-01 
833 834 2 1.0279999991712885e+00 7.0601286595734091e+03 1.0000000000000000e+00 1.4285278393019995e+01 1.7416554057237640e+01 8.8186185478579515e-01 
1260 1261 2 1.0279999990134845e+00 3.5565740180400389e+03 1.0000000000000000e+00 1.4164442302752937e+01 1.7395599640209724e+01 1.0145188738421829e+00 
379 380 2 1.0279999989124142e+00 5.4679467576478532e+02 1.0000000000000000e+00 1.4212233034417967e+01 1.7359364914781672e+01 1.1072018298743307e+00 
338 339 2 1.0279999991420126e+00 2.4357700802165570e+02 1.0000000000000000e+00 9.6718452660156800e+00 1.3221632218085144e+01 5.8134617934289583e+00 
752 753 2 1.0279999987660418e+00 -9.6107581193204824e+03 1.0000000000000000e+00 1.2266941662884767e+01 1.3184135682662552e+01 3.1270256995911798e+00 
1314 1315 2 1.0279999998942919e+00 -1.1320192261735894e+04 1.0000000000000000e+00 1.1376258625666759e+01 1.2835739146562053e+01 3.2389862549519819e+00 
1168 1169 2 1.0280000001493008e+00 1.8182903133756176e+03 1.0000000000000000e+00 1.1248285682336283e+01 1.2879050854629119e+01 3.3368235989733583e+00 
740 741 2 1.0280000002850562e+00 -8.3837306145269868e+03 1.0000000000000000e+00 1.1222424435079022e+01 1.3025869125626002e+01 3.5687705657676134e+00 
538 539 2 1.0279999999223937e+00 -4.0043069317510622e+03 1.0000000000000000e+00 6.2766636978025732e+00 1.6336302186593027e+01 5.4163302020027286e+00 
105 106 2 1.0279999999272205e+00 -3.5677733521758018e+03 1.0000000000000000e+00 6.2667222120062593e+00 1.6337296106763933e+01 5.4542002185738001e+00 
1148 1149 2 1.0280000001029141e+00 1.5871121589723962e+03 1.0000000000000000e+00 6.1119685094321161e+00 1.6365322975842567e+01 6.0057709100213321e+00 
79 80 2 1.0279999994494506e+00 -1.4179750954983624e+03 1.0000000000000000e+00 8.0530718506351313e+00 1.5730143133392014e+01 3.3723779950429864e+00 
134 135 2 1.0279999994761813e+00 -1.9053531279698705e+03 1.0000000000000000e+00 8.0145165243997045e+00 1.5733249553611865e+01 3.3826550703278291e+00 
423 424 2 1.0279999995051816e+00 1.7227785417900354e+03 1.0000000000000000e+00 8.0019128965510564e+00 1.5745901679009217e+01 3.3850765389063717e+00 
1389 1390 2 1.0279999998898171e+00 -6.3215288995819401e+02 1.0000000000000000e+00 7.6002191634676679e+00 1.5895933807254147e+01 3.5222120113598376e+00 
143 144 2 1.0279999999476315e+00 -6.5685734453104396e+03 1.0000000000000000e+00 7.4296533704562817e+00 1.5891414400140990e+01 3.6029879314798485e+00 
1060 1061 2 1.0280000000632430e+00 1.2650125094196897e+04 1.0000000000000000e+00 6.7359187647109398e+00 1.6184618406270996e+01 4.2180347908010019e+00 
2 3 2 1.0279999995092335e+00 1.6251052269515430e+03 1.0000000000000000e+00 7.5133542541659155e+00 1.3893562250548184e+01 5.2926130493455652e+00 
482 483 2 1.0279999998766305e+00 1.1626152640689841e+04 1.0000000000000000e+00 6.9628902338438232e+00 1.3983334216561977e+01 5.5000012851433402e+00 
131 132 2 1.0279999997745939e+00 2.2151811058205794e+03 1.0000000000000000e+00 7.1779468042846934e+00 1.3826460397628301e+01 5.6546004337868725e+00 
1293 1294 2 1.0280000000914611e+00 8.2263797019126159e+03 1.0000000000000000e+00 6.8537927164944517e+00 1.3844866473395260e+01 6.0209741725749177e+00 
1239 1240 2 1.0280000017791544e+00 -7.6254702974646552e+03 1.0000000000000000e+00 1.2656592326582743e+01 1.6541714290092262e+01 3.1378936956905972e+00 
955 956 2 1.0280000002433562e+00 6.0367028242926772e+03 1.0000000000000000e+00 1.0803002416156378e+01 1.3631590218817045e+01 5.2067064234630456e+00 
1343 1344 2 1.0280000000583238e+00 -4.9747402610863737e+03 1.0000000000000000e+00 1.0689648288603477e+01 1.3465280763032659e+01 5.2344117745820924e+00 
396 397 2 1.0280000011899737e+00 1.9593926655059245e+03 1.0000000000000000e+00 1.0008680163314613e+01 1.5433230676861101e+01 5.6482445594901574e+00 
665 666 2 1.0280000008849941e+00 -1.2512104784105240e+03 1.0000000000000000e+00 1.0201458883369254e+01 1.5251692818168227e+01 5.6506351658465706e+00 
939 940 2 1.0279999995926190e+00 8.9237385465198568e+03 1.0000000000000000e+00 1.0517141603622637e+01 1.3460731209873712e+01 5.9301325270930150e+00 
592 593 2 1.0279999971934746e+00 -6.8625451799434886e+03 1.0000000000000000e+00 9.9945958870187965e+00 1.7249873993394328e+01 3.5446261077545747e+00 
1032 1033 2 1.0279999995943017e+00 -8.9178841500983199e+03 1.0000000000000000e+00 9.5752060453044407e+00 1.8114898940132594e+01 3.9575133665079210e+00 
1077 1078 2 1.0279999998279803e+00 4.5689566702721395e+03 1.0000000000000000e+00 9.6060932882315626e+00 1.8461040078574094e+01 4.2076747300596651e+00 
716 717 2 1.0279999999993452e+00 -3.6775572800535992e+03 1.0000000000000000e+00 9.5059600558699291e+00 1.8510009547630379e+01 4.2752017315610411e+00 
148 149 2 1.0280000007320620e+00 5.3927265760616019e+03 1.0000000000000000e+00 7.9322096348909872e+00 1.8074753604984103e+01 4.6273529077988016e+00 
218 219 2 1.0280000000877587e+00 -4.5911828674611479e+03 1.0000000000000000e+00 9.8503643682410047e+00 1.9197987632890641e+01 5.4764602930967454e+00 
963 964 2 1.0279999989376856e+00 8.7765559006566618e+03 1.0000000000000000e+00 8.1805621183752706e+00 1.8736539674469590e+01 5.5944232565310417e+00 
117 118 2 1.0279999989299964e+00 2.5907754623036709e+01 1.0000000000000000e+00 8.0733163629564295e+00 1.8710710366043710e+01 5.6183221301460469e+00 
1283 1284 2 1.0280000016256392e+00 -4.0421381862908302e+03 1.0000000000000000e+00 1.2774835811002696e+01 1.6680702100871017e+01 3.1029768474529593e+00 
515 516 2 1.0279999984473163e+00 5.9093340571937515e+03 1.0000000000000000e+00 1.2425898471604105e+01 1.7310893944816389e+01 3.2473014627590469e+00 
1022 1023 2 1.0280000015686845e+00 2.5106817901692889e+03 1.0000000000000000e+00 1.2436943337641532e+01 1.6817016009279133e+01 3.4465494072324958e+00 
1016 1017 2 1.0279999988723603e+00 -5.7347643529919424e+02 1.0000000000000000e+00 1.0376636420155151e+01 1.8393324225660773e+01 4.0571103686488703e+00 
1043 1044 2 1.0280000014592972e+00 8.7992337382697060e+03 1.0000000000000000e+00 1.1901794541464183e+01 1.7601580725934507e+01 4.9967318831951744e+00 
1251 1252 2 1.0280000010219490e+00 1.7325952162776935e+03 1.0000000000000000e+00 1.1802793939122937e+01 1.7589377508746630e+01 5.5204493535660912e+00 
1472 1473 2 1.0280000001753773e+00 3.1173483119806144e+02 1.0000000000000000e+00 1.1118503738650833e+01 1.9094223210283111e+01 5.6011507680545805e+00 
326 327 2 1.0279999998432015e+00 2.1405503528240561e+03 1.0000000000000000e+00 2.5248193767478684e+00 1.5867579603667687e+01 9.0860608344390545e+00 
841 842 2 1.0279999996194387e+00 -5.3824833808111161e+03 1.0000000000000000e+00 5.8903147192017578e+00 1.5662499178659624e+01 6.0938276832159666e+00 
1277 1278 2 1.0280000006101668e+00 2.8316027508085726e+03 1.0000000000000000e+00 6.2945020177657600e+00 1.4238962626196903e+01 7.7094514737093025e+00 
397 398 2 1.0280000005986738e+00 8.0633429399295146e+03 1.0000000000000000e+00 6.2664308899599606e+00 1.4264708359376732e+01 7.7285630749844847e+00 
313 314 2 1.0279999966594779e+00 5.7409019349397659e+03 1.0000000000000000e+00 5.0407519783469352e+00 1.5523628872747352e+01 8.2112121991078837e+00 
348 349 2 1.0279999985644492e+00 -1.2006389748162778e+03 1.0000000000000000e+00 4.4996206329168276e+00 1.5497589315771719e+01 8.3578718821060463e+00 
981 982 2 1.0280000005286491e+00 -1.1527110337065413e+04 1.0000000000000000e+00 8.9716529610460700e+00 1.5999729587958889e+01 6.1166385995649879e+00 
1435 1436 2 1.0280000005003906e+00 -1.4788309515741108e+04 1.0000000000000000e+00 8.8569884909276926e+00 1.6052647479191727e+01 6.1630550733442933e+00 
1391 1392 2 1.0280000001776854e+00 3.8828000463848575e+03 1.0000000000000000e+00 6.7946850516482593e+00 1.3836012137067327e+01 6.1942182551711760e+00 
1504 1505 2 1.0279999994084013e+00 9.1860064667034821e+03 1.0000000000000000e+00 9.8984257602729802e+00 1.3731926707834212e+01 6.8725766560571699e+00 
1351 1352 2 1.0279999990632251e+00 1.1304711530733850e+04 1.0000000000000000e+00 8.9798108584878804e+00 1.4569839495665979e+01 7.6565859687090958e+00 
549 550 2 1.0279999996770650e+00 -1.3406416756451563e+04 1.0000000000000000e+00 8.0114495325848711e+00 1.4322324453786424e+01 8.3324901351348366e+00 
448 449 2 1.0279999996327629e+00 3.4218656093750360e+03 1.0000000000000000e+00 8.0350249153194007e+00 1.4373908249713955e+01 8.3646290070253038e+00 
240 241 2 1.0279999997682192e+00 5.3468097146735226e+03 1.0000000000000000e+00 7.8197934765204353e+00 1.4389509023430559e+01 8.6482110465107862e+00 
586 587 2 1.0280000006444692e+00 1.0470188574726806e+04 1.0000000000000000e+00 7.1487290972671307e+00 1.6160677521123695e+01 9.0452507292630084e+00 
119 120 2 1.0279999993933404e+00 1.5508671509230794e+03 1.0000000000000000e+00 1.0156812849817054e+01 1.3353521782727247e+01 6.1971809200740866e+00 
1048 1049 2 1.0279999998121081e+00 -8.1657875331455052e+03 1.0000000000000000e+00 1.0308420256368633e+01 1.4306290242764666e+01 6.7218406397530472e+00 
637 638 2 1.0280000000792267e+00 -2.7473768160476861e+03 1.0000000000000000e+00 2.6959474402333887e+00 1.6884520364183285e+01 8.6012846786012496e+00 
741 742 2 1.0279999985880330e+00 -8.2377760233971621e+03 1.0000000000000000e+00 6.6490198968425194e+00 1.9094888826226075e+01 6.9205943345960010e+00 
1149 1150 2 1.0279999988541368e+00 6.3557676359861362e+03 1.0000000000000000e+00 6.2405828561829946e+00 1.9159268024042479e+01 7.0364078850124088e+00 
1014 1015 2 1.0279999994678797e+00 8.0596527873255018e+03 1.0000000000000000e+00 4.8501906004602677e+00 1.8644084125699322e+01 7.3974373221392860e+00 
1087 1088 2 1.0279999992159226e+00 2.4467449829213647e+03 1.0000000000000000e+00 4.7780838005804309e+00 1.9023363156352168e+01 7.6416577253468763e+00 
495 496 2 1.0279999996655742e+00 -3.0991520433839978e+03 1.0000000000000000e+00 3.9699215345725669e+00 1.6726086478264243e+01 7.7270552086435549e+00 
1390 1391 2 1.0279999997905176e+00 3.3761141076470767e+03 1.0000000000000000e+00 3.7946339930814506e+00 1.6710146208839987e+01 7.7815543182868296e+00 
214 215 2 1.0279999998760421e+00 5.9094853138670969e+03 1.0000000000000000e+00 3.6622631280586480e+00 1.6706762737291388e+01 7.8268532414836027e+00 
1082 1083 2 1.0279999993284421e+00 9.3935651813368693e+01 1.0000000000000000e+00 5.2947763251229265e+00 1.9457953165812331e+01 8.0555807682419172e+00 
1133 1134 2 1.0279999993264959e+00 1.3185866795377342e+02 1.0000000000000000e+00 4.1715809691745953e+00 1.9200869147029351e+01 8.2195685848387114e+00 
412 413 2 1.0279999981372188e+00 -2.3538047149920385e+03 1.0000000000000000e+00 7.5992027860431230e+00 1.8766542889111701e+01 6.0725310017526928e+00 
511 512 2 1.0279999991575495e+00 -1.2508900740574300e+03 1.0000000000000000e+00 6.7641561548416407e+00 1.9017600655388204e+01 7.4110923998265053e+00 
921 922 2 1.0279999991604927e+00 5.3164572885288680e+03 1.0000000000000000e+00 6.7652660010647949e+00 1.9016505496023509e+01 7.4120450542300826e+00 
405 406 2 1.0280000047209485e+00 3.5370393837288743e+03 1.0000000000000000e+00 7.1391339603982553e+00 1.7678039933320743e+01 7.4302101291546823e+00 
1415 1416 2 1.0279999996426239e+00 -1.7230498719537725e+04 1.0000000000000000e+00 9.7664879056473346e+00 1.7587792077889045e+01 8.8059243236445663e+00 
242 243 2 1.0279999999646861e+00 8.5366419687792732e+03 1.0000000000000000e+00 9.6831563916182191e+00 1.8609848753632736e+01 8.9504036664903293e+00 
150 151 2 1.0279999999402007e+00 9.3277175684831968e+02 1.0000000000000000e+00 1.1964999194434601e+01 1.8422695420483056e+01 6.4985805879494762e+00 
1387 1388 2 1.0279999998929512e+00 -3.2109663224448441e+03 1.0000000000000000e+00 1.1970232383366124e+01 1.8440468656494684e+01 6.5995179203380747e+00 
1313 1314 2 1.0280000001676806e+00 5.6867592117669246e+03 1.0000000000000000e+00 1.1566129097271139e+01 1.7427416350297463e+01 6.8994247372868323e+00 
1256 1257 2 1.0279999998714018e+00 8.5175071186181467e+03 1.0000000000000000e+00 1.1607064763724006e+01 1.9111638235065925e+01 7.0095716886534456e+00 
1035 1036 2 1.0280000000233049e+00 -3.6067267542593981e+03 1.0000000000000000e+00 1.0389202780656021e+01 1.9379186457327048e+01 7.3150732712893198e+00 
575 576 2 1.0280000000003930e+00 6.4469245253253011e+03 1.0000000000000000e+00 1.0240475929947921e+01 1.9288170317123175e+01 7.6609512739281405e+00 
155 156 2 1.0280000000029517e+00 -1.3806240522287130e+03 1.0000000000000000e+00 1.1173482642910470e+01 1.7480716102794627e+01 7.9626427661567867e+00 
1344 1345 2 1.0279999999720559e+00 1.1813667146354968e+04 1.0000000000000000e+00 1.1104517099304879e+01 1.7705836088392267e+01 8.3306002400058237e+00 
500 501 2 1.0280000001232346e+00 4.1519248168942122e+03 1.0000000000000000e+00 1.0780943970968936e+01 1.9031543568391346e+01 8.3406373500724342e+00 
1505 1506 2 1.0280000001541174e+00 -2.0970513501161668e+03 1.0000000000000000e+00 1.0356719372814384e+01 1.7889278852299405e+01 8.9441813629968028e+00 
316 317 2 1.0279999998218441e+00 4.9064489968263069e+03 1.0000000000000000e+00 2.6004579328348187e+00 1.5665234814814788e+01 9.1771719601520658e+00 
669 670 2 1.0279999997165528e+00 1.6851340934487317e+02 1.0000000000000000e+00 2.5230529597219662e+00 1.5763176423713153e+01 9.6890193404460980e+00 
639 640 2 1.0279999996346589e+00 -9.1771965293645171e+03 1.0000000000000000e+00 2.4793524304100059e+00 1.6023826296785675e+01 9.6933475650250944e+00 
297 298 2 1.0279999999113523e+00 5.2835320706001930e+03 1.0000000000000000e+00 2.6634079027476050e+00 1.5485461615142574e+01 9.8584292352277032e+00 
124 125 2 1.0280000003017467e+00 4.5787818725340921e+03 1.0000000000000000e+00 6.5265061387095837e+00 1.6075416242956425e+01 9.1077926868183763e+00 
471 472 2 1.0280000023752724e+00 -2.7990661630316990e+03 1.0000000000000000e+00 4.8261664831736715e+00 1.5769151641024159e+01 1.0136650538012846e+01 
458 459 2 1.0279999999068525e+00 -2.1464842973660097e+03 1.0000000000000000e+00 6.4859241350256145e+00 1.4059495752819764e+01 1.0676895384899490e+01 
1494 1495 2 1.0279999998591864e+00 -1.0631642145070966e+04 1.0000000000000000e+00 6.0227455095949392e+00 1.4018524785289712e+01 1.1120315805901464e+01 
1081 1082 2 1.0280000003111249e+00 7.6180517760260991e+03 1.0000000000000000e+00 3.9605618801629467e+00 1.4369084894594650e+01 1.1167183956804978e+01 
890 891 2 1.0279999998476221e+00 4.7667002496716386e+03 1.0000000000000000e+00 5.9622317032838712e+00 1.4015904879723591e+01 1.1188212547055400e+01 
249 250 2 1.0279999996266256e+00 5.5349984003084191e+03 1.0000000000000000e+00 4.6062368288248123e+00 1.4242389289667237e+01 1.1353032962410076e+01 
416 417 2 1.0280000003975100e+00 -3.4603877043328093e+03 1.0000000000000000e+00 3.4006850882623194e+00 1.4234665151046197e+01 1.1516047129872254e+01 
756 757 2 1.0279999997993583e+00 2.8163768964201809e+03 1.0000000000000000e+00 7.7449239686874343e+00 1.6027000643340511e+01 9.6349102196338645e+00 
24 25 2 1.0279999999347027e+00 -3.3213511138779029e+02 1.0000000000000000e+00 7.7138158688846463e+00 1.6055566535650495e+01 9.6911419697620911e+00 
887 888 2 1.0279999999300544e+00 4.8232797580997012e+03 1.0000000000000000e+00 6.7948310904293905e+00 1.4131157024300560e+01 1.0283087337325192e+01 
1093 1094 2 1.0279999989587627e+00 1.1193870458260881e+03 1.0000000000000000e+00 3.2923379325033140e+00 1.9649289846733012e+01 9.5381601835338898e+00 
399 400 2 1.0279999994800344e+00 6.3389097042273206e+03 1.0000000000000000e+00 2.9071736690280048e+00 1.9043299593280146e+01 9.5388118569578300e+00 
616 617 2 1.0279999989946054e+00 2.1094901280423414e+03 1.0000000000000000e+00 3.0846010957803482e+00 1.9778335103969646e+01 9.8833652777586991e+00 
479 480 2 1.0279999991357087e+00 9.0625489250367373e+03 1.0000000000000000e+00 2.3788944735076494e+00 1.9546561601253416e+01 1.0594047221036599e+01 
1132 1133 2 1.0279999995929645e+00 5.8824115646400933e+03 1.0000000000000000e+00 2.0671294649861878e+00 1.9860023797831442e+01 1.1115661136724970e+01 
823 824 2 1.0279999997795575e+00 -2.6606087651120089e+02 1.0000000000000000e+00 2.0143023436609995e+00 1.9928273171186863e+01 1.1219266741720592e+01 
1421 1422 2 1.0279999999631266e+00 -2.8803708135614024e+03 1.0000000000000000e+00 1.8554204249518267e+00 1.9993478275113329e+01 1.1482929277175542e+01 
1336 1337 2 1.0279999992118112e+00 7.3052860042518660e+03 1.0000000000000000e+00 4.0363289011927268e+00 1.9695448939756051e+01 9.2248196230346924e+00 
420 421 2 1.0280000011187809e+00 -8.8259145260904336e+02 1.0000000000000000e+00 5.0546640463661570e+00 1.9550799009531580e+01 9.5266705693883580e+00 
1326 1327 2 1.0280000028530554e+00 7.1565520512556541e+03 1.0000000000000000e+00 3.5058018744288648e+00 1.7496051346427333e+01 1.0182907926919803e+01 
1167 1168 2 1.0280000013977129e+00 -7.3043293622637466e+03 1.0000000000000000e+00 5.0670644561282696e+00 1.8447219321373986e+01 1.1390581965926007e+01 
672 673 2 1.0279999993227098e+00 1.6747430402637547e+03 1.0000000000000000e+00 6.1407988184649147e+00 1.7947884270699674e+01 1.1408647986233959e+01 
294 295 2 1.0280000008520140e+00 -9.2267154181050901e+03 1.0000000000000000e+00 5.1451146368169596e+00 1.8300511190766141e+01 1.1802511848552300e+01 
225 226 2 1.0280000004826804e+00 9.6275048549790226e+03 1.0000000000000000e+00 5.2979612830244616e+00 1.8215812886047647e+01 1.1857176502659236e+01 
1215 1216 2 1.0279999975776113e+00 1.1279014482533644e+03 1.0000000000000000e+00 9.3221128097858781e+00 1.7879342318738193e+01 9.1453636091159147e+00 
516 517 2 1.0280000007894556e+00 -1.2260672918722554e+04 1.0000000000000000e+00 8.4807840546793170e+00 1.7390878112930835e+01 1.0515463958432129e+01 
1204 1205 2 1.0279999996515252e+00 5.5399833092536428e+03 1.0000000000000000e+00 7.5531914517481313e+00 1.9942345698346855e+01 1.0531852014979854e+01 
1101 1102 2 1.0279999996494540e+00 -2.8541477458338068e+03 1.0000000000000000e+00 7.5699792675732276e+00 1.9958147622117863e+01 1.0543262449091531e+01 
1297 1298 2 1.0280000007363561e+00 1.2357954269843052e+04 1.0000000000000000e+00 9.2153104355880391e+00 1.7965022466996956e+01 1.0658410250856198e+01 
1137 1138 2 1.0280000001425071e+00 1.3774733384326886e+04 1.0000000000000000e+00 9.0764649436278635e+00 1.9573519335551854e+01 1.1543496056680148e+01 
870 871 2 1.0280000001752354e+00 -4.8609457479309367e+02 1.0000000000000000e+00 8.9794821255212831e+00 1.7482520237264126e+01 1.2031167227972164e+01 
1381 1382 2 1.0279999994464910e+00 -5.0152211643727492e+02 1.0000000000000000e+00 7.6874922215582919e-01 1.6631032346035855e+01 1.2453170908161825e+01 
1495 1496 2 1.0279999992111617e+00 -9.8410888638094475e+03 1.0000000000000000e+00 1.8024825920060703e+00 1.5202125756011538e+01 1.2479493876865234e+01 
1403 1404 2 1.0279999976264402e+00 -1.7525346687469491e+03 1.0000000000000000e+00 1.2682090122068184e+00 1.6255920141031016e+01 1.2604242138081208e+01 
1378 1379 2 1.0280000001048801e+00 -4.4712717867773399e+03 1.0000000000000000e+00 2.4569081416378991e+00 1.4289920890328725e+01 1.2708856268786395e+01 
1465 1466 2 1.0280000000831424e+00 -4.5506990200394084e+03 1.0000000000000000e+00 2.3983780966551649e+00 1.4335757435727812e+01 1.2726687283809948e+01 
339 340 2 1.0280000000970251e+00 1.5427657518043875e+03 1.0000000000000000e+00 2.3908956019075109e+00 1.4344695284776328e+01 1.2820228438643582e+01 
434 435 2 1.0280000004742438e+00 4.8082045697582835e+03 1.0000000000000000e+00 2.8604362917275599e+00 1.4553783680879899e+01 1.3854988563985719e+01 
782 783 2 1.0280000009698085e+00 7.2293788449921976e+03 1.0000000000000000e+00 2.9002497607253122e+00 1.5196175638793317e+01 1.4531243538552848e+01 
317 318 2 1.0280000013733854e+00 5.1299100382605111e+03 1.0000000000000000e+00 3.2823944699113698e+00 1.5409375240142252e+01 1.4796673085688168e+01 
1516 1517 2 1.0279999994072579e+00 5.4830035190240833e+03 1.0000000000000000e+00 4.2609793612310423e+00 1.4196695853671763e+01 1.2743619539037828e+01 
35 36 2 1.0279999977381988e+00 1.4947123714308973e+03 1.0000000000000000e+00 4.9237259477833240e+00 1.5126290290055735e+01 1.2911552342671234e+01 
123 124 2 1.0279999995892022e+00 -7.8126012093454956e+03 1.0000000000000000e+00 6.6143472881226133e+00 1.5992935493722298e+01 1.3081099265866394e+01 
1362 1363 2 1.0279999995350417e+00 8.1992966250243353e+03 1.0000000000000000e+00 4.2195130553809328e+00 1.5021074352427711e+01 1.3518040242612274e+01 
1502 1503 2 1.0280000003164669e+00 -6.8753587453182154e+03 1.0000000000000000e+00 7.7195869915944169e+00 1.4942982146524823e+01 1.2278782897563694e+01 
226 227 2 1.0279999998963247e+00 1.0616863070738873e+04 1.0000000000000000e+00 8.3281973285837942e+00 1.6332190857305203e+01 1.2372712251918347e+01 
596 597 2 1.0280000002809866e+00 4.1994657214735798e+03 1.0000000000000000e+00 7.7026683894334100e+00 1.5000561224696414e+01 1.2373627346653215e+01 
523 524 2 1.0280000002507825e+00 3.4222099118923970e+03 1.0000000000000000e+00 7.7484424433969403e+00 1.5109544850180294e+01 1.2412814134390228e+01 
166 167 2 1.0280000001508913e+00 7.2465043281238031e+03 1.0000000000000000e+00 7.2363977977815503e+00 1.4764896944160428e+01 1.2614879581107884e+01 
905 906 2 1.0279999999992095e+00 8.2613141646095141e+02 1.0000000000000000e+00 7.1249768537678895e+00 1.5045701107714182e+01 1.2831631167195372e+01 
1 2 2 1.0279999999090954e+00 -7.3146347262526924e+03 1.0000000000000000e+00 4.0383875287156551e-01 1.6986703826161815e+01 1.2315286724699057e+01 
709 710 2 1.0279999998526899e+00 9.9142742181637295e+03 1.0000000000000000e+00 4.5108962844220779e-01 1.6898554565107172e+01 1.2348477438795911e+01 
1084 1085 2 1.0279999985657780e+00 8.6816410793671675e+03 1.0000000000000000e+00 6.0558787178846807e-01 1.9375100023530027e+01 1.3000308330229345e+01 
186 187 2 1.0280000008265795e+00 9.8647405022391604e+02 1.0000000000000000e+00 2.5046017191453807e+00 1.9830789808671128e+01 1.3613038433008390e+01 
517 518 2 1.0280000012640675e+00 -1.0772035586987520e+04 1.0000000000000000e+00 1.9695097654615290e+00 1.7182567283329707e+01 1.3864260281194477e+01 
789 790 2 1.0280000000437080e+00 1.1170075124855398e+02 1.0000000000000000e+00 1.5248370930548907e+00 1.8383025678903731e+01 1.3994504798318166e+01 
1096 1097 2 1.0280000007126779e+00 6.1259927514225024e+02 1.0000000000000000e+00 3.3042414579328314e+00 1.7963747104509199e+01 1.4416464938289883e+01 
760 761 2 1.0280000008166899e+00 -6.6481827417478853e+03 1.0000000000000000e+00 3.2927784747551252e+00 1.7964075130668693e+01 1.4485261923353226e+01 
49 50 2 1.0280000000134297e+00 -3.4931630473605283e+03 1.0000000000000000e+00 3.8169418639624708e-01 1.8019163050200824e+01 1.4738714837555783e+01 
846 847 2 1.0280000010746342e+00 4.5932334630798978e+03 1.0000000000000000e+00 5.1639602537757607e+00 1.8058882846243343e+01 1.2407232776640820e+01 
1225 1226 2 1.0279999966214515e+00 8.6765874723445704e+03 1.0000000000000000e+00 4.1193499594994298e+00 1.8825144675726669e+01 1.3242298918028977e+01 
1187 1188 2 1.0279999999035128e+00 2.3282754707631534e+03 1.0000000000000000e+00 3.9789040323859450e+00 1.8471526789384736e+01 1.3569250511666423e+01 
465 466 2 1.0279999995661113e+00 5.6736291556274955e+03 1.0000000000000000e+00 5.7608970785014328e+00 1.7423697380641403e+01 1.3709117866229954e+01 
283 284 2 1.0280000002582341e+00 -6.4507469623010529e+03 1.0000000000000000e+00 9.2603388316418922e+00 1.8713495554075198e+01 1.2201365880528943e+01 
445 446 2 1.0280000001122689e+00 4.2783919785690559e+03 1.0000000000000000e+00 8.9155720626386472e+00 1.9481679196680805e+01 1.2383665007508913e+01 
88 89 2 1.0279999998435758e+00 2.4093110916342903e+03 1.0000000000000000e+00 8.5828477637791423e+00 1.7962593859350598e+01 1.3012894012033861e+01 
987 988 2 1.0279999996349261e+00 -2.2790406991912505e+03 1.0000000000000000e+00 8.2011376044792161e+00 1.8195102274666031e+01 1.3225411146851691e+01 
785 786 2 1.0279999994342268e+00 -1.1662620414955883e+04 1.0000000000000000e+00 7.7668816106366698e+00 1.8524935851132746e+01 1.3297035206757130e+01 
986 987 2 1.0279999992776065e+00 -3.2389856515523916e+03 1.0000000000000000e+00 7.7597656487253586e+00 1.8129856635453940e+01 1.3331745772169480e+01 
1512 1513 2 1.0279999986357298e+00 1.5963302982345267e+04 1.0000000000000000e+00 3.0859199226232303e+00 1.5830332571098474e+01 1.6289915877864583e+01 
304 305 2 1.0279999993824622e+00 7.6854852529739946e+03 1.0000000000000000e+00 1.4255878030063678e+00 1.5450297053311269e+01 1.7023634547514799e+01 
1143 1144 2 1.0279999995655513e+00 2.8306789779176902e+03 1.0000000000000000e+00 1.2112647102784315e+00 1.5393492038168025e+01 1.7155340190903416e+01 
189 190 2 1.0279999997079290e+00 6.6031828832467982e+03 1.0000000000000000e+00 9.7767064517476687e-01 1.5417094154426504e+01 1.7234007474135840e+01 
1258 1259 2 1.0279999997286391e+00 4.7967459751877268e+03 1.0000000000000000e+00 1.0161090189662954e+00 1.5350318052993870e+01 1.7289506245495467e+01 
934 935 2 1.0279999998519909e+00 6.1833865700795313e+03 1.0000000000000000e+00 2.5917739692631683e+00 1.5950183530419000e+01 1.7725303136076839e+01 
1396 1397 2 1.0279999999874605e+00 -4.1268869264837440e+03 1.0000000000000000e+00 2.4072898509788823e-01 1.5443895071079492e+01 1.7758082831021646e+01 
1013 1014 2 1.0280000002641101e+00 1.6306002019728103e+03 1.0000000000000000e+00 3.4435162418582159e+00 1.5767439302102741e+01 1.5638143645871633e+01 
954 955 2 1.0279999984006669e+00 6.2474646708355594e+03 1.0000000000000000e+00 3.3566817579259216e+00 1.6169289800642566e+01 1.6692934381215743e+01 
703 704 2 1.0279999995837876e+00 1.0213042601612819e+04 1.0000000000000000e+00 3.2543701112587282e+00 1.9095815633022649e+01 1.6975732210918974e+01 
744 745 2 1.0280000003238525e+00 -8.6446163379255304e+03 1.0000000000000000e+00 2.1659361260265877e+00 1.9988585968375876e+01 1.7935084013545247e+01 