LAMMPS data file via write_data, version 30 Jul 2016, timestep = 50000000

180 atoms
2 atom types

0.0000000000000000e+00 2.0000000000000000e+01 xlo xhi
0.0000000000000000e+00 2.0000000000000000e+01 ylo yhi
0.0000000000000000e+00 2.0000000000000000e+01 zlo zhi

Masses

1 3.896
2 4.31

Atoms # meso-molecular

148 1 2 4.8483142549226628e+00 -1.2243517476710135e+03 1.0000000000000000e+00 6.3166479474532116e+00 9.7037425999480398e+00 1.5691388314057040e+00 
79 1 2 4.8813086841391069e+00 -1.1655180988357274e+03 1.0000000000000000e+00 6.6382632799886503e+00 8.4145785850166384e+00 1.1243748650267384e+00 
57 1 2 5.0688486160508743e+00 -1.3379143277880237e+03 1.0000000000000000e+00 6.3490073828221893e+00 9.5137553462560067e+00 1.3785695929153192e+00 
44 1 2 4.9536295673360726e+00 -6.3304120129812679e+02 1.0000000000000000e+00 6.1339871548910088e+00 8.9910592348700415e+00 1.6092027159512838e+00 
102 1 2 5.1713297549433284e+00 -1.3119863319052611e+03 1.0000000000000000e+00 6.5100325455596320e+00 8.5195651690265510e+00 1.4345535283333717e+00 
75 1 2 4.9333495545339616e+00 3.5451623377601017e+01 1.0000000000000000e+00 6.5201263365854398e+00 8.4341448954537945e+00 1.9963128060910194e+00 
5 1 2 5.0770897035856493e+00 -1.4555104350094291e+03 1.0000000000000000e+00 6.4031618483641592e+00 9.6332890117276513e+00 1.6481456126148843e+00 
45 1 2 4.9657142019478906e+00 -1.6289219643330234e+03 1.0000000000000000e+00 6.3655804665861657e+00 8.5281307030428692e+00 1.8530501626876374e+00 
165 1 2 5.3003122239073708e+00 -1.2729576889709399e+03 1.0000000000000000e+00 6.6386105073294344e+00 8.7580729322347803e+00 2.1048203602436395e+00 
163 1 2 5.0671003003314876e+00 -1.6538346409952073e+03 1.0000000000000000e+00 6.6230560104061205e+00 8.8826123678928024e+00 9.3599405638625710e-01 
159 1 2 4.9094588106211514e+00 -1.0755989761105832e+03 1.0000000000000000e+00 6.2653219872402994e+00 8.5660953428282252e+00 1.6876690938460908e+00 
47 1 2 1.3056392907948278e+00 -8.6601782208729742e+02 1.0000000000000000e+00 6.4921031166825136e+00 7.4963298482665186e+00 1.2094842935566001e+01 
10 1 2 1.3056392907948278e+00 -1.1162944455139282e+03 1.0000000000000000e+00 6.4921031166825136e+00 7.4963298482665186e+00 1.2094842935566001e+01 
59 1 2 1.3056392907948278e+00 -9.9778017307345772e+02 1.0000000000000000e+00 6.4921031166825136e+00 7.4963298482665186e+00 1.2094842935566001e+01 
17 1 2 1.3056392907948278e+00 -1.3931551029556254e+03 1.0000000000000000e+00 6.4921031166825136e+00 7.4963298482665186e+00 1.2094842935566001e+01 
23 1 2 1.3056392907948278e+00 -1.1847068134256751e+03 1.0000000000000000e+00 6.4921031166825136e+00 7.4963298482665186e+00 1.2094842935566005e+01 
58 1 2 1.3056392907948278e+00 -1.1855303147415416e+03 1.0000000000000000e+00 6.4921031166825136e+00 7.4963298482665186e+00 1.2094842935566005e+01 
52 1 2 1.3056392907948278e+00 -1.1912726327736918e+03 1.0000000000000000e+00 6.4921031166825136e+00 7.4963298482665177e+00 1.2094842935566001e+01 
53 1 2 1.3056392907948278e+00 -1.4982774933606092e+03 1.0000000000000000e+00 6.4921031166825136e+00 7.4963298482665186e+00 1.2094842935566001e+01 
16 1 2 1.3056392907948278e+00 -1.2767230236986256e+03 1.0000000000000000e+00 6.4921031166825136e+00 7.4963298482665186e+00 1.2094842935566001e+01 
35 1 2 1.4507103231053642e-01 2.2795382457003790e+01 1.0000000000000000e+00 4.7519693174862301e+00 1.7885784995961181e+01 1.2737418044261009e+01 
1 1 2 5.3093154782672611e+00 -9.7158271501845127e+02 1.0000000000000000e+00 6.9752360122259702e+00 8.4109939053530187e+00 1.5253640838366562e+00 
11 1 2 5.0028384531794989e+00 -1.2520679696678155e+03 1.0000000000000000e+00 7.4919477378201318e+00 8.4417089132823122e+00 1.6408557739390586e+00 
104 1 2 4.8674299166331227e+00 -1.0974488090850364e+03 1.0000000000000000e+00 7.3404974798290841e+00 9.3026213461081522e+00 8.4935909876992899e-01 
37 1 2 4.8678122925290719e+00 -9.3945782551225511e+02 1.0000000000000000e+00 6.6826107251716209e+00 8.2159504438327406e+00 1.6835022408438070e+00 
60 1 2 5.0727385119355120e+00 -1.3977241327059194e+03 1.0000000000000000e+00 6.9129727151185687e+00 9.1327869274980671e+00 8.3596064531826597e-01 
108 1 2 5.2468931395305409e+00 -1.4476060580504964e+03 1.0000000000000000e+00 6.8053129707430591e+00 9.7751882781546762e+00 1.5977929709732148e+00 
72 1 2 4.9014537308793491e+00 -1.5556704267251150e+03 1.0000000000000000e+00 7.2470531493585693e+00 9.4994190980394020e+00 2.3317561686329635e+00 
55 1 2 4.7651074668468638e+00 -1.1779749604537947e+03 1.0000000000000000e+00 7.7168089015245878e+00 9.4836851080492952e+00 1.9900639570783460e+00 
13 1 2 4.9162095290308532e+00 -1.4120446276569619e+03 1.0000000000000000e+00 7.0007086280562536e+00 9.9686572470397934e+00 1.5585593844111774e+00 
180 1 2 4.8148242573891373e+00 -1.0611225800920809e+03 1.0000000000000000e+00 7.6838259045064525e+00 8.7420165983785409e+00 1.1963176307123338e+00 
81 1 2 4.6869608253385717e+00 -1.3048841993056417e+03 1.0000000000000000e+00 6.6867182190384469e+00 9.3636548161435282e+00 7.3119099043289981e-01 
103 1 2 5.2814132585606366e+00 -1.3645440332267117e+03 1.0000000000000000e+00 7.0208616281455241e+00 9.1447668899784240e+00 2.2880116992156831e+00 
151 1 2 4.6826384066588158e+00 -1.1979271482886029e+03 1.0000000000000000e+00 7.3998721752318559e+00 9.2729599178079756e+00 2.4638305315276572e+00 
39 1 2 4.6506721793681693e+00 -1.5664479728937633e+03 1.0000000000000000e+00 7.3011940930892427e+00 8.9239962104580464e+00 2.5334448401322840e+00 
6 1 2 5.0931690382093837e+00 -1.3039048197548716e+03 1.0000000000000000e+00 6.8279458798388140e+00 8.3085593611532342e+00 1.7790569790240609e+00 
67 1 2 4.6909055912363566e+00 -1.3358711403127784e+03 1.0000000000000000e+00 7.2225744773136356e+00 9.0698682646822810e+00 2.5515719101473304e+00 
19 1 2 4.8753199602321127e+00 -1.3971172634552449e+03 1.0000000000000000e+00 6.7014751992155661e+00 9.1168770383431728e+00 7.7732320825977164e-01 
12 1 2 4.9165114762473108e+00 -1.5802597842001992e+03 1.0000000000000000e+00 7.0022448011326288e+00 9.9685214446583217e+00 1.5598502990513934e+00 
87 1 2 5.0669810984163188e+00 -1.3894343041118484e+03 1.0000000000000000e+00 6.8292417587216692e+00 8.8846051379229376e+00 2.3749871098819719e+00 
123 1 2 4.6209653225297247e+00 -1.2101753996331790e+03 1.0000000000000000e+00 6.9163347708461957e+00 8.0558580740838792e+00 1.5662808215028665e+00 
36 1 2 4.8784229643139216e+00 -1.1926372184666561e+03 1.0000000000000000e+00 7.0386223128525600e+00 8.5147482347105719e+00 2.3110304949326466e+00 
117 1 2 5.0575000550048443e+00 -1.0073004325467325e+03 1.0000000000000000e+00 6.9736267370702745e+00 8.3327583864137384e+00 1.3046998694126541e+00 
29 1 2 5.0354552061885176e+00 -1.3046878323446210e+03 1.0000000000000000e+00 7.2259418308340981e+00 9.8397319914778265e+00 1.8059822947540347e+00 
21 1 2 5.2028120465158452e+00 -1.1883015488896481e+03 1.0000000000000000e+00 7.4770873916151555e+00 8.5981441539721786e+00 1.4757016605239386e+00 
24 1 2 5.0526390573856901e+00 -1.5888019171749429e+03 1.0000000000000000e+00 6.9662275553487065e+00 8.2815622752450864e+00 1.4446719069333360e+00 
8 1 2 4.8488908699932107e+00 -1.3544837035824389e+03 1.0000000000000000e+00 7.6823847599416126e+00 8.7398810632552504e+00 1.2295732795121022e+00 
70 1 2 4.7925900649862561e+00 -8.8395952129125885e+02 1.0000000000000000e+00 7.5646579147748927e+00 9.1924177036772949e+00 9.4032289229203059e-01 
66 1 2 4.9353221322114198e+00 -1.6426335231155092e+03 1.0000000000000000e+00 6.9818602725471397e+00 8.7769354660492276e+00 2.4247215281412808e+00 
34 1 2 4.9870587456256494e+00 -1.1957086821853163e+03 1.0000000000000000e+00 7.4472781170612112e+00 8.5505277770231647e+00 2.0524821680925269e+00 
170 1 2 4.8293596719348395e+00 -1.3940239508238492e+03 1.0000000000000000e+00 7.7199804352405677e+00 9.3668710260154686e+00 1.2300011725153146e+00 
49 1 2 4.9159731493037997e+00 -1.2400261786530903e+03 1.0000000000000000e+00 6.9994973243632792e+00 9.9687601588204906e+00 1.5575434057770778e+00 
54 1 2 4.9177376293791868e+00 -1.6990369420748539e+03 1.0000000000000000e+00 7.0084056933985241e+00 9.9679212605342382e+00 1.5650484558479179e+00 
18 1 2 4.9174354582554969e+00 -1.4062922732425911e+03 1.0000000000000000e+00 7.0068935247355348e+00 9.9680763632465954e+00 1.5637702504054083e+00 
48 1 2 4.9172357334979155e+00 -1.4765247204906293e+03 1.0000000000000000e+00 7.0058932615677580e+00 9.9681762976496735e+00 1.5629253736856090e+00 
143 1 2 5.2227369246768358e+00 -1.7534106110504640e+03 1.0000000000000000e+00 7.0731405240508867e+00 8.3692716266559710e+00 1.5261496556775822e+00 
7 1 2 4.9169476241082890e+00 -1.4560429663777188e+03 1.0000000000000000e+00 7.0044468892492127e+00 9.9683168453286672e+00 1.5617049303763093e+00 
137 1 2 4.9943889090373847e+00 -1.5931136101016702e+03 1.0000000000000000e+00 6.7006333133001119e+00 9.6380263644816466e+00 1.0494237505790600e+00 
40 1 2 5.8028412924214567e-01 -1.1326625641964445e+03 1.0000000000000000e+00 7.5049353646522059e+00 2.0340980576170327e+00 1.1534739302195039e+01 
41 1 2 5.8028412924214567e-01 -1.0915540385595727e+03 1.0000000000000000e+00 7.5049353646522095e+00 2.0340980576170327e+00 1.1534739302195030e+01 
46 1 2 5.8028412924214567e-01 -8.2185103860719914e+02 1.0000000000000000e+00 7.5049353646522148e+00 2.0340980576170313e+00 1.1534739302195044e+01 
4 1 2 5.8028412924214567e-01 -1.1122200629104666e+03 1.0000000000000000e+00 7.5049353646522095e+00 2.0340980576170344e+00 1.1534739302195023e+01 
88 1 2 2.9014206462107284e-01 -5.3698001814504175e+02 1.0000000000000000e+00 1.2051052032481666e+01 8.6696425347067176e+00 1.1317439651589000e+01 
94 1 2 2.9014206462107284e-01 -6.0141048098042450e+02 1.0000000000000000e+00 1.2051052032481666e+01 8.6696425347067372e+00 1.1317439651588980e+01 
96 1 2 8.7042619386321851e-01 -1.6446668512976319e+03 1.0000000000000000e+00 1.2462223062320170e+01 7.8554267363878250e+00 1.7971701432168494e+01 
126 1 2 8.7042619386321851e-01 -1.4374728124260066e+03 1.0000000000000000e+00 1.2462223062320156e+01 7.8554267363878250e+00 1.7971701432168530e+01 
85 1 2 8.7042619386321851e-01 -1.3083000425075502e+03 1.0000000000000000e+00 1.2462223062320161e+01 7.8554267363878196e+00 1.7971701432168505e+01 
89 1 2 8.7042619386321851e-01 -1.1532041676358222e+03 1.0000000000000000e+00 1.2462223062320172e+01 7.8554267363878214e+00 1.7971701432168516e+01 
90 1 2 8.7042619386321851e-01 -1.6628917740170255e+03 1.0000000000000000e+00 1.2462223062320163e+01 7.8554267363878241e+00 1.7971701432168530e+01 
121 1 2 8.7042619386321851e-01 -1.3358911941544984e+03 1.0000000000000000e+00 1.2462223062320170e+01 7.8554267363878223e+00 1.7971701432168537e+01 
14 1 2 4.8210240934399442e+00 -1.5582887668035110e+03 1.0000000000000000e+00 6.9370609895410063e+00 1.0016326974360174e+01 1.6001514615720185e+00 
128 1 2 1.7408523877264370e+00 -1.2097347034502359e+03 1.0000000000000000e+00 1.2879206318451391e+01 1.1984636772078648e+01 4.0398347384066566e+00 
91 1 2 1.7408523877264370e+00 -1.2097797066382427e+03 1.0000000000000000e+00 1.2879206318451391e+01 1.1984636772078652e+01 4.0398347384066566e+00 
97 1 2 1.7408523877264370e+00 -1.1609023022874308e+03 1.0000000000000000e+00 1.2879206318451411e+01 1.1984636772078648e+01 4.0398347384066566e+00 
127 1 2 1.7408523877264370e+00 -1.3599830950144774e+03 1.0000000000000000e+00 1.2879206318451391e+01 1.1984636772078648e+01 4.0398347384066566e+00 
133 1 2 1.7408523877264370e+00 -1.0341650087147987e+03 1.0000000000000000e+00 1.2879206318451391e+01 1.1984636772078652e+01 4.0398347384066566e+00 
98 1 2 1.7408523877264370e+00 -1.0097686934770867e+03 1.0000000000000000e+00 1.2879206318451391e+01 1.1984636772078652e+01 4.0398347384066566e+00 
92 1 2 1.7408523877264370e+00 -1.4807717274690747e+03 1.0000000000000000e+00 1.2879206318451411e+01 1.1984636772078648e+01 4.0398347384066566e+00 
129 1 2 1.7408523877264370e+00 -1.5459091517507895e+03 1.0000000000000000e+00 1.2879206318451411e+01 1.1984636772078652e+01 4.0398347384066566e+00 
135 1 2 1.7408523877264370e+00 -1.1062400540140252e+03 1.0000000000000000e+00 1.2879206318451391e+01 1.1984636772078652e+01 4.0398347384066566e+00 
99 1 2 1.7408523877264370e+00 -1.1987379293061099e+03 1.0000000000000000e+00 1.2879206318451411e+01 1.1984636772078652e+01 4.0398347384066566e+00 
93 1 2 1.7408523877264370e+00 -1.0580628017656823e+03 1.0000000000000000e+00 1.2879206318451411e+01 1.1984636772078652e+01 4.0398347384066566e+00 
134 1 2 1.7408523877264370e+00 -1.4433670086886232e+03 1.0000000000000000e+00 1.2879206318451391e+01 1.1984636772078652e+01 4.0398347384066566e+00 
50 1 2 5.0017194199278974e+00 -1.2688705608420821e+03 1.0000000000000000e+00 7.1063321674760669e+00 1.3723375121266027e+01 7.8323210820263878e+00 
164 1 2 5.0011099263792813e+00 -1.3167459291573787e+03 1.0000000000000000e+00 7.5958509910130028e+00 1.4054830665056437e+01 7.8238684065771675e+00 
149 1 2 5.0060324002972738e+00 -1.4896380285112973e+03 1.0000000000000000e+00 7.1291482027986657e+00 1.3703886499886034e+01 7.8515625265676627e+00 
122 1 2 5.0007979230979531e+00 -9.5500886283154387e+02 1.0000000000000000e+00 7.1029709013482680e+00 1.3728997199486171e+01 7.8562013816485647e+00 
136 1 2 5.0023457136393636e+00 -1.1215212464386786e+03 1.0000000000000000e+00 7.1130860725303906e+00 1.3714881398951677e+01 7.8233464263507004e+00 
168 1 2 4.9995488501524488e+00 -1.3836828261915011e+03 1.0000000000000000e+00 7.1174378923058415e+00 1.3704491465987967e+01 7.8539987996038301e+00 
69 1 2 5.0022335429696971e+00 -1.2454544801058687e+03 1.0000000000000000e+00 7.5706016270201602e+00 1.4083344288414537e+01 7.8161139290929746e+00 
38 1 2 5.0005632179837907e+00 -9.9932088737800677e+02 1.0000000000000000e+00 7.1095101231596400e+00 1.3717687966612758e+01 7.8527118992193072e+00 
22 1 2 5.0010602497289378e+00 -1.3369620307398809e+03 1.0000000000000000e+00 7.1103691296876761e+00 1.3715990221936808e+01 7.8380370329474829e+00 
131 1 2 5.0013276214563867e+00 -1.5469803319184562e+03 1.0000000000000000e+00 7.1168659235916873e+00 1.3707231129746551e+01 7.8284242166155078e+00 
178 1 2 5.0009688191110593e+00 -1.3177107581483713e+03 1.0000000000000000e+00 7.1221481688370014e+00 1.3699910788221633e+01 7.8378066116493859e+00 
179 1 2 4.9918260279577069e+00 -1.0515495240551220e+03 1.0000000000000000e+00 7.6125945268556139e+00 1.4052465432946061e+01 7.8295570150105611e+00 
174 1 2 5.0015347066904567e+00 -1.3004282008964069e+03 1.0000000000000000e+00 7.1190550098237182e+00 1.3704838947139256e+01 7.8238447150452304e+00 
74 1 2 5.0025971513122638e+00 1.1508529336963348e+02 1.0000000000000000e+00 7.5901417178396207e+00 1.4058154399694997e+01 7.8070358339531118e+00 
56 1 2 5.0006913748128197e+00 -1.4408169728192715e+03 1.0000000000000000e+00 7.1113598736222121e+00 1.3714196951438485e+01 7.8441469169880875e+00 
61 1 2 5.0008779133177237e+00 -1.0488151497236956e+03 1.0000000000000000e+00 7.1254544771032347e+00 1.3695562482855978e+01 7.8361904754337726e+00 
3 1 2 5.0010540709094391e+00 -1.4976172784160080e+03 1.0000000000000000e+00 7.1222524054606975e+00 1.3699682891186882e+01 7.8234711942352186e+00 
157 1 2 5.0007651407409428e+00 -1.1554325622963197e+03 1.0000000000000000e+00 7.1213989141917775e+00 1.3700356467369611e+01 7.8370550924270637e+00 
63 1 2 5.0029240869718334e+00 -1.2622288102003713e+03 1.0000000000000000e+00 7.5786854628819214e+00 1.4071383362913220e+01 7.8018400260565262e+00 
110 1 2 5.0011667659421910e+00 -1.4059166995274970e+03 1.0000000000000000e+00 7.6001921298068291e+00 1.4048279281501356e+01 7.8213230146455270e+00 
172 1 2 5.0017608987457933e+00 -1.0693521900236037e+03 1.0000000000000000e+00 7.1347556682635602e+00 1.3687111656443371e+01 7.8423743136971531e+00 
64 1 2 5.0012473147463643e+00 -1.1945034113714858e+03 1.0000000000000000e+00 7.6029094469809060e+00 1.4043529204171010e+01 7.8144824309819088e+00 
62 1 2 5.0008371487964336e+00 -1.0931957947931533e+03 1.0000000000000000e+00 7.5961866066267660e+00 1.4054878823833086e+01 7.8192076062025428e+00 
43 1 2 5.0016809186818421e+00 -1.2026650853423150e+03 1.0000000000000000e+00 7.5967362189254084e+00 1.4052096445585095e+01 7.8205501751794300e+00 
177 1 2 5.0014993034272228e+00 -1.2261473528544423e+03 1.0000000000000000e+00 7.5966089626182143e+00 1.4052808579825774e+01 7.8242919222832850e+00 
116 1 2 5.0019378161513366e+00 -1.0130777055848055e+03 1.0000000000000000e+00 7.5718117034794998e+00 1.4082619049222904e+01 7.8157964812892038e+00 
166 1 2 5.0018680057330229e+00 -1.5604995807268558e+03 1.0000000000000000e+00 7.5756380884091286e+00 1.4076855708389845e+01 7.7992054920493494e+00 
115 1 2 5.0025414843903695e+00 -1.1826917834877970e+03 1.0000000000000000e+00 7.5898860963193959e+00 1.4058755617927092e+01 7.8081594960027738e+00 
51 1 2 5.0013876007902542e+00 -1.2528033916856346e+03 1.0000000000000000e+00 7.5982206910773993e+00 1.4050657251785633e+01 7.8209151323603123e+00 
25 1 2 5.0003501540812554e+00 -8.5504829249405793e+02 1.0000000000000000e+00 7.5952359667913170e+00 1.4053604180101930e+01 7.7901100337357994e+00 
152 1 2 5.0019057126618964e+00 -1.2750937534206009e+03 1.0000000000000000e+00 7.5876075243943859e+00 1.4060848382138518e+01 7.7922022083022062e+00 
33 1 2 4.9999224210852553e+00 -1.1135700757091458e+03 1.0000000000000000e+00 7.1154762953330444e+00 1.3708123868152395e+01 7.8550129220098288e+00 
132 1 2 5.0014650123729707e+00 -1.2545911615886321e+03 1.0000000000000000e+00 7.6054725588818410e+00 1.4038839404780520e+01 7.8144258127129493e+00 
171 1 2 5.0008090561108087e+00 -1.0879432344573793e+03 1.0000000000000000e+00 7.1018974999652142e+00 1.3729093650090320e+01 7.8456697372622877e+00 
160 1 2 5.0023059273126957e+00 -9.9768869574076200e+02 1.0000000000000000e+00 7.5848537294475884e+00 1.4064749505212447e+01 7.7992236466719715e+00 
138 1 2 5.0006770297374175e+00 -1.4126936591037254e+03 1.0000000000000000e+00 7.1069825210542819e+00 1.3722516542830689e+01 7.8570110368832102e+00 
65 1 2 2.9014206462107284e-01 -6.7534412925034826e+02 1.0000000000000000e+00 7.9168829487573298e+00 1.4712773431788118e+01 1.2593012488929793e+01 
71 1 2 2.9014206462107284e-01 -6.7702033822422572e+02 1.0000000000000000e+00 7.9168829487573200e+00 1.4712773431788097e+01 1.2593012488929794e+01 
153 1 2 5.8028412924214567e-01 -1.3512359598972905e+03 1.0000000000000000e+00 1.6624649418261196e+01 2.9695567189344132e+00 8.0012242351106533e+00 
147 1 2 5.8028412924214567e-01 -1.3305070670762866e+03 1.0000000000000000e+00 1.6624649418261210e+01 2.9695567189344132e+00 8.0012242351106408e+00 
111 1 2 5.8028412924214567e-01 -1.1824751674264110e+03 1.0000000000000000e+00 1.6624649418261246e+01 2.9695567189344132e+00 8.0012242351106533e+00 
154 1 2 5.8028412924214567e-01 -1.0052668745357018e+03 1.0000000000000000e+00 1.6624649418261239e+01 2.9695567189344154e+00 8.0012242351106533e+00 
124 1 2 1.5957813554159006e+00 -1.2219605057953647e+03 1.0000000000000000e+00 1.3507006520793174e+01 3.5608040092530699e+00 1.2304303344192878e+01 
76 1 2 1.5957813554159006e+00 -1.2180677458381288e+03 1.0000000000000000e+00 1.3507006520793166e+01 3.5608040092530682e+00 1.2304303344192851e+01 
83 1 2 1.5957813554159006e+00 -1.2007653523133013e+03 1.0000000000000000e+00 1.3507006520793174e+01 3.5608040092530682e+00 1.2304303344192851e+01 
112 1 2 1.5957813554159006e+00 -1.0410095895893819e+03 1.0000000000000000e+00 1.3507006520793174e+01 3.5608040092530713e+00 1.2304303344192878e+01 
125 1 2 1.5957813554159006e+00 -1.2469272605562530e+03 1.0000000000000000e+00 1.3507006520793174e+01 3.5608040092530699e+00 1.2304303344192849e+01 
120 1 2 1.5957813554159006e+00 -1.0769731153345988e+03 1.0000000000000000e+00 1.3507006520793166e+01 3.5608040092530699e+00 1.2304303344192851e+01 
119 1 2 1.5957813554159006e+00 -1.0334124833220876e+03 1.0000000000000000e+00 1.3507006520793166e+01 3.5608040092530682e+00 1.2304303344192878e+01 
118 1 2 1.5957813554159006e+00 -5.9147206985810521e+02 1.0000000000000000e+00 1.3507006520793166e+01 3.5608040092530744e+00 1.2304303344192851e+01 
82 1 2 1.5957813554159006e+00 -1.1386852162776356e+03 1.0000000000000000e+00 1.3507006520793174e+01 3.5608040092530699e+00 1.2304303344192878e+01 
77 1 2 1.5957813554159006e+00 -1.2022712870158487e+03 1.0000000000000000e+00 1.3507006520793174e+01 3.5608040092530682e+00 1.2304303344192851e+01 
113 1 2 1.5957813554159006e+00 -1.2823972347581400e+03 1.0000000000000000e+00 1.3507006520793174e+01 3.5608040092530682e+00 1.2304303344192878e+01 
161 1 2 5.8028412924214567e-01 -1.3330168888097210e+03 1.0000000000000000e+00 1.8116931103901628e+01 6.1871125357835428e+00 1.5564668265046153e+01 
162 1 2 5.8028412924214567e-01 -1.1560481389731140e+03 1.0000000000000000e+00 1.8116931103901607e+01 6.1871125357835455e+00 1.5564668265046143e+01 
156 1 2 5.8028412924214567e-01 -1.4194798504654359e+03 1.0000000000000000e+00 1.8116931103901617e+01 6.1871125357835437e+00 1.5564668265046141e+01 
155 1 2 5.8028412924214567e-01 -1.0436997760129595e+03 1.0000000000000000e+00 1.8116931103901621e+01 6.1871125357835366e+00 1.5564668265046153e+01 
142 1 2 5.1832086773315575e+00 -1.1353081507945981e+03 1.0000000000000000e+00 1.4531214694388442e+01 1.9430465413587637e+01 9.8794774759677075e+00 
42 1 2 4.8062305007048121e+00 -1.6083966459472895e+03 1.0000000000000000e+00 1.4092692128718257e+01 1.9566394459098561e+01 9.7753747429741775e+00 
80 1 2 4.9786893877749749e+00 -1.4295121000784823e+03 1.0000000000000000e+00 1.4830228878155344e+01 1.9122903783837955e+01 9.8445129067188866e+00 
84 1 2 4.8921603087825600e+00 -1.5642000683706344e+03 1.0000000000000000e+00 1.3983580490753026e+01 1.9090047814434293e+01 9.9855025060946314e+00 
100 1 2 4.8523027824272331e+00 -1.6196964671768153e+03 1.0000000000000000e+00 1.4907743279618263e+01 1.9423311408834419e+01 9.7616462222293023e+00 
158 1 2 4.9833990011735159e+00 -1.2930590768134623e+03 1.0000000000000000e+00 1.4306074366039987e+01 1.9359408315349082e+01 9.7320773723917373e+00 
32 1 2 4.9732194950731241e+00 -1.0666965529843026e+03 1.0000000000000000e+00 1.4743629495632327e+01 1.9116353685909406e+01 9.7858589598370660e+00 
15 1 2 4.8936017295104177e+00 -1.6553219290523916e+03 1.0000000000000000e+00 1.4929681950247305e+01 1.9074803256312986e+01 9.8802748724243763e+00 
146 1 2 5.0943055433351407e+00 -1.2618000498242570e+03 1.0000000000000000e+00 1.4150111554757697e+01 1.9027102536496734e+01 1.0393349586256905e+01 
28 1 2 5.0186595754546488e+00 -1.1987378665216761e+03 1.0000000000000000e+00 1.4762625031822360e+01 1.8874589163299884e+01 1.0139096731867648e+01 
2 1 2 4.9453009600811155e+00 -1.0108645320141575e+03 1.0000000000000000e+00 1.4975434266450344e+01 1.9641312448314579e+01 1.0376793898043246e+01 
27 1 2 4.9662122418667902e+00 -1.3879031829820535e+03 1.0000000000000000e+00 1.4017307809488404e+01 1.9609031925440402e+01 1.0139978924095656e+01 
86 1 2 4.9353842277467361e+00 -1.0101419815914652e+03 1.0000000000000000e+00 1.4748454019131277e+01 1.8899911847540977e+01 1.0579103114808914e+01 
175 1 2 5.0619208240937574e+00 -1.5208792205291682e+03 1.0000000000000000e+00 1.4992374008306053e+01 1.9257578728694810e+01 1.0294046417851945e+01 
176 1 2 5.0559900852577790e+00 -1.4403761062230603e+03 1.0000000000000000e+00 1.4234372241612659e+01 1.8902105742061799e+01 1.0148246620394564e+01 
26 1 2 5.2440237010829689e+00 -9.5916866747016934e+02 1.0000000000000000e+00 1.4704105689391346e+01 1.9070586785345196e+01 1.0277395066728870e+01 
173 1 2 5.1315604046646071e+00 -1.0727088609658774e+03 1.0000000000000000e+00 1.4376214031949822e+01 1.8988221773495685e+01 1.0515652856530927e+01 
95 1 2 4.9166599183093433e+00 -1.6279280464219109e+03 1.0000000000000000e+00 1.4707664219266738e+01 1.9581227133453186e+01 1.0759072401120390e+01 
140 1 2 5.3057654880856289e+00 -1.6152248249306363e+03 1.0000000000000000e+00 1.4297394067154075e+01 1.9449063618135110e+01 1.0195683484628239e+01 
109 1 2 4.9000280728965597e+00 -1.5756703014332395e+03 1.0000000000000000e+00 1.4964589322089390e+01 1.9650896203097371e+01 1.0017511463350621e+01 
73 1 2 4.9913081082649340e+00 -1.0977423244235981e+03 1.0000000000000000e+00 1.4781256753827790e+01 1.9664849175756327e+01 1.0583963686100931e+01 
78 1 2 5.0610943178922305e+00 -1.1365548927128850e+03 1.0000000000000000e+00 1.4001992434451559e+01 1.9309170611410192e+01 1.0346843186189552e+01 
144 1 2 4.8714553698493228e+00 -1.1600824804475981e+03 1.0000000000000000e+00 1.4352423505714100e+01 1.9571519827207005e+01 1.0821000702739548e+01 
68 1 2 4.8716629144709689e+00 -1.1397493979126468e+03 1.0000000000000000e+00 1.4266620683273951e+01 1.8764792452101421e+01 1.0049917491344427e+01 
107 1 2 4.9819024404462136e+00 -1.7312574334843075e+03 1.0000000000000000e+00 1.4413245032230115e+01 1.9599792511181072e+01 1.0734046958648911e+01 
106 1 2 5.0616343732087072e+00 -1.0698045958983585e+03 1.0000000000000000e+00 1.4663723910204864e+01 1.9730255560671111e+01 1.0490867081798475e+01 
167 1 2 4.9906647712512147e+00 -1.4447511421107158e+03 1.0000000000000000e+00 1.4883877087938330e+01 1.8974898857764497e+01 1.0060194284078753e+01 
150 1 2 5.3155859879608780e+00 -1.3640297497960282e+03 1.0000000000000000e+00 1.4279326705948833e+01 1.9332648259979948e+01 1.0183674563662894e+01 
169 1 2 5.0193140795302558e+00 -1.7189791498552840e+03 1.0000000000000000e+00 1.4065781935096927e+01 1.9449924879427385e+01 1.0544652587852156e+01 
101 1 2 4.9325665963804832e+00 -1.6882256267556409e+03 1.0000000000000000e+00 1.4781393391513321e+01 1.9831644483038602e+01 1.0372410008409089e+01 
141 1 2 4.8941235732992308e+00 -1.2807113492898407e+03 1.0000000000000000e+00 1.3930734405775818e+01 1.9246945713842379e+01 1.0506857919395818e+01 
130 1 2 4.9862975209636984e+00 -1.3258140062885054e+03 1.0000000000000000e+00 1.4160980646973274e+01 1.9597868436098672e+01 1.0604997995621202e+01 
20 1 2 4.8868826488154200e+00 -7.6246791629389315e+02 1.0000000000000000e+00 1.4744498540107990e+01 1.9842929224867039e+01 1.0497390364667982e+01 
139 1 2 4.9894475920909693e+00 -1.8180583487644546e+03 1.0000000000000000e+00 1.3945480504195283e+01 1.9329771964545628e+01 1.0339346467300942e+01 
105 1 2 5.0303837972200176e+00 -8.8409133705218483e+02 1.0000000000000000e+00 1.4978194887515974e+01 1.9366273734845411e+01 1.0459708462142727e+01 
9 1 2 4.8528909719063735e+00 -1.5637085240380752e+03 1.0000000000000000e+00 1.4086513295163282e+01 1.8969916354987785e+01 1.0613609590222243e+01 
114 1 2 4.9923496601814126e+00 -1.0575574320250507e+03 1.0000000000000000e+00 1.4403218584309556e+01 1.8804233058553745e+01 1.0420255209878826e+01 
145 1 2 5.1944436066935982e+00 -1.2235054768315417e+03 1.0000000000000000e+00 1.4197630999455502e+01 1.9275598259166184e+01 1.0021376878178662e+01 
31 1 2 5.1078218862894786e+00 -1.2909455930813194e+03 1.0000000000000000e+00 1.4708117810031744e+01 1.9672759676284766e+01 1.0040878049045899e+01 
30 1 2 5.0007400167978453e+00 -1.2819310417151662e+03 1.0000000000000000e+00 1.4979305716586657e+01 1.9405130547804429e+01 1.0004678108454724e+01 

Velocities

148 -4.7606641446403065e-02 5.9332343389858189e-01 8.2240920677918583e-01
79 -5.6093533085999937e-02 -3.5192461216115953e-02 -4.1586588137010538e-01
57 2.5393546203416512e-01 4.6733215493645602e-01 -9.0609891652763966e-02
44 -4.1858386196569834e-02 3.9486924192698732e-02 -2.8488279944949713e-01
102 -1.9698315518597417e-01 7.9072941333362734e-01 -1.2051178601858649e-01
75 -1.3999626942193952e-01 -3.6425403586698746e-01 2.0729577225295581e-01
5 7.0331266946750981e-01 2.9565190622075194e-01 -5.0810599653531970e-02
45 -6.8447070694949663e-01 1.5276714467663840e-02 -2.7925350747108518e-01
165 -3.0836265603434526e-01 6.5957477423677177e-02 6.8703411992651125e-03
163 1.4747939639857394e-02 5.1957335382208925e-02 3.2326286640692781e-01
159 -2.7227147397304774e-01 5.4901324796887818e-01 -3.0427883901062652e-01
47 -3.6373926416984276e-20 -2.8776424220097076e-14 2.4111258276401865e-13
10 -3.6373926416863653e-20 -2.8776424220097076e-14 2.4111258276401865e-13
59 -3.6373926416863653e-20 -2.8776424220097076e-14 2.4111258276401865e-13
17 -3.6373926416863653e-20 -2.8776424220097076e-14 2.4111258276401865e-13
23 -3.6373926416863653e-20 -2.8776424220097082e-14 -7.9531356594901298e-13
58 -3.6373926416863653e-20 -2.8776424220097082e-14 -7.9531356594901298e-13
52 -3.6373926416863653e-20 2.3033011295816466e-13 2.4111258276401865e-13
53 -3.6373926416863653e-20 -2.8776424220097076e-14 2.4111258276401865e-13
16 -3.6373926416863653e-20 -2.8776424220097076e-14 2.4111258276401865e-13
35 2.1243987445628539e-252 -1.1433999391519113e-252 -2.6875386404112930e-252
1 1.7037304635285958e-03 3.1187279185263046e-02 -5.6097073062671532e-01
11 -2.1748173031207504e-01 -4.9216818720841848e-01 -1.4753208361497419e-01
104 4.2414932506248632e-01 9.7640062255985385e-02 -2.0333012733854314e-03
37 -1.0974677421522419e-01 2.0730623178212135e-01 -7.6668873594882270e-01
60 7.4168094415406047e-02 1.4175462610337169e-01 1.9496482731792319e-01
108 -1.4366232943349727e-01 5.9020250618398651e-01 4.0402794679601511e-01
72 1.9735933828268007e-01 -3.6076633459559709e-01 3.1849902488354426e-01
55 5.8215068259209612e-01 -5.6889877539616107e-01 -1.7209934436319851e-01
13 3.2937132496873034e-01 -4.1380891245788490e-02 3.4526022734032641e-01
180 -6.8851138699560901e-02 -4.9759867574390576e-01 2.4551585130088791e-02
81 1.6497074269540096e-01 3.2706908579821442e-01 3.6284448725838164e-02
103 1.3922700978046504e-01 -6.2552983226555459e-01 1.6401437349504713e-01
151 5.1377659401292956e-02 -8.6580679968685778e-02 4.0729935652391919e-01
39 -1.2480448426934464e-01 -4.9377170761125944e-01 5.8461519418104535e-01
6 -7.7400843889820292e-01 -1.3727799411508146e-01 2.2148208123798674e-01
67 9.3242844835454801e-03 -6.5389190247725670e-01 1.3241142236248410e-01
19 4.0315938974069002e-02 3.0718423956893243e-01 -5.4613202698270336e-01
12 3.2929169456934043e-01 -4.2228463415072130e-02 3.4557532184414613e-01
87 2.0456630825003197e-01 -1.1578330108402883e-01 -5.8228408300998669e-01
123 -5.5960580715917874e-01 4.1439830603936234e-01 1.4592748678546710e-01
36 -3.9584334324596548e-01 -6.8419074403919256e-01 -2.1297528529261464e-01