LAMMPS data file via write_data, version 30 Jul 2016, timestep = 50400000

180 atoms
2 atom types

0.0000000000000000e+00 2.0000000000000000e+01 xlo xhi
0.0000000000000000e+00 2.0000000000000000e+01 ylo yhi
0.0000000000000000e+00 2.0000000000000000e+01 zlo zhi

Masses

1 3.896
2 4.31

Atoms # meso-molecular

70 1 2 4.9992145420816723e+00 -8.8368356551860109e+02 1.0000000000000000e+00 6.4408475709833510e+00 8.5085974358459726e+00 2.0383244142933896e+00 
5 1 2 5.0011268652443874e+00 -1.4547954610517779e+03 1.0000000000000000e+00 6.5177170004461376e+00 8.3486783376809051e+00 1.9545800402289617e+00 
163 1 2 4.9995074309566014e+00 -1.6535486219350876e+03 1.0000000000000000e+00 6.4607617812636482e+00 8.7869550582346427e+00 1.6014561577427617e+00 
8 1 2 4.9997463271116409e+00 -1.3542975157087640e+03 1.0000000000000000e+00 6.5146121917270357e+00 8.9834641524258085e+00 2.3811511789625586e+00 
170 1 2 4.9997564002487724e+00 -1.3936296623827345e+03 1.0000000000000000e+00 6.5366959932067417e+00 8.3593519338116646e+00 1.7744072414472041e+00 
148 1 2 4.9998371582095897e+00 -1.2233412498663247e+03 1.0000000000000000e+00 6.6264890876718612e+00 9.4391684002915124e+00 1.8704993534660950e+00 
47 1 2 1.3056392907948278e+00 -8.6601782208729742e+02 1.0000000000000000e+00 6.4921031166825136e+00 7.4963298482665186e+00 1.2094842935566001e+01 
10 1 2 1.3056392907948278e+00 -1.1162944455139282e+03 1.0000000000000000e+00 6.4921031166825136e+00 7.4963298482665186e+00 1.2094842935566001e+01 
59 1 2 1.3056392907948278e+00 -9.9778017307345772e+02 1.0000000000000000e+00 6.4921031166825136e+00 7.4963298482665186e+00 1.2094842935566001e+01 
17 1 2 1.3056392907948278e+00 -1.3931551029556254e+03 1.0000000000000000e+00 6.4921031166825136e+00 7.4963298482665186e+00 1.2094842935566001e+01 
23 1 2 1.3056392907948278e+00 -1.1847068134256751e+03 1.0000000000000000e+00 6.4921031166825136e+00 7.4963298482665186e+00 1.2094842935566005e+01 
58 1 2 1.3056392907948278e+00 -1.1855303147415416e+03 1.0000000000000000e+00 6.4921031166825136e+00 7.4963298482665186e+00 1.2094842935566005e+01 
52 1 2 1.3056392907948278e+00 -1.1912726327736918e+03 1.0000000000000000e+00 6.4921031166825136e+00 7.4963298482665177e+00 1.2094842935566001e+01 
53 1 2 1.3056392907948278e+00 -1.4982774933606092e+03 1.0000000000000000e+00 6.4921031166825136e+00 7.4963298482665186e+00 1.2094842935566001e+01 
16 1 2 1.3056392907948278e+00 -1.2767230236986256e+03 1.0000000000000000e+00 6.4921031166825136e+00 7.4963298482665186e+00 1.2094842935566001e+01 
35 1 2 1.4507103231053642e-01 2.2795382457003790e+01 1.0000000000000000e+00 4.7519693174862301e+00 1.7885784995961181e+01 1.2737418044261009e+01 
1 1 2 4.9995271389682108e+00 -9.7142131362012788e+02 1.0000000000000000e+00 6.8862996938705940e+00 9.6269180610058402e+00 1.9571598692025538e+00 
102 1 2 5.0020318651132705e+00 -1.3113196398774380e+03 1.0000000000000000e+00 7.9905380303338243e+00 8.7134366305449564e+00 2.1935951853268523e+00 
104 1 2 5.0008099783239013e+00 -1.0971588775210098e+03 1.0000000000000000e+00 7.2412968518277339e+00 8.8684191214266193e+00 2.7898177594069349e+00 
79 1 2 4.9969650917081028e+00 -1.1653932172179209e+03 1.0000000000000000e+00 7.1606000018872384e+00 9.6029889968101099e+00 1.5850317275048629e+00 
60 1 2 4.9980464542682874e+00 -1.3975233816139400e+03 1.0000000000000000e+00 7.0586014829649502e+00 9.6418609555679957e+00 1.7076568289083738e+00 
14 1 2 4.9994002182418251e+00 -1.5579610107386225e+03 1.0000000000000000e+00 7.0345144864513571e+00 8.1858356616835106e+00 2.4971908014830282e+00 
72 1 2 5.0000921951490147e+00 -1.5553146854810998e+03 1.0000000000000000e+00 6.8431324219374208e+00 8.5749431612332057e+00 1.2655440288898248e+00 
75 1 2 5.0003970399688100e+00 3.5964795844549045e+01 1.0000000000000000e+00 7.1035475983639245e+00 8.0206208335549682e+00 1.7083720197711372e+00 
13 1 2 5.0002089060879804e+00 -1.4115751064116268e+03 1.0000000000000000e+00 7.1752591033062849e+00 7.9674606886932020e+00 1.9919428051939418e+00 
45 1 2 5.0005009852772009e+00 -1.6284563591698920e+03 1.0000000000000000e+00 7.9516704334018637e+00 9.1986201503989893e+00 1.9626436068078867e+00 
81 1 2 5.0001842673812371e+00 -1.3048199366101417e+03 1.0000000000000000e+00 7.3235554755899548e+00 8.3066882768358674e+00 2.6201177786841225e+00 
103 1 2 5.0003771959900600e+00 -1.3646207410949432e+03 1.0000000000000000e+00 6.8878187188810136e+00 9.2025372986991041e+00 1.2847910196805334e+00 
151 1 2 4.9972178947542005e+00 -1.1977256978285393e+03 1.0000000000000000e+00 6.8519583947717573e+00 8.0561876508507684e+00 2.0961297670436196e+00 
37 1 2 4.9988046188062611e+00 -9.3898193976969594e+02 1.0000000000000000e+00 7.3783065348370336e+00 8.9663359609544937e+00 2.7643358903651740e+00 
7 1 2 5.0002385961347553e+00 -1.4555737470306860e+03 1.0000000000000000e+00 7.1736503247606498e+00 7.9675016897918551e+00 1.9904943571661153e+00 
67 1 2 4.9988714699784058e+00 -1.3357534042342461e+03 1.0000000000000000e+00 7.1486274277879591e+00 9.6933543786478129e+00 1.9517370112871335e+00 
19 1 2 4.9988033749566299e+00 -1.3965914715284794e+03 1.0000000000000000e+00 7.4823335025817155e+00 9.1546484821898382e+00 2.6804723975467977e+00 
12 1 2 5.0002210731334573e+00 -1.5797903869620854e+03 1.0000000000000000e+00 7.1745986539242077e+00 7.9674768139464334e+00 1.9913492154674488e+00 
87 1 2 5.0024591161106526e+00 -1.3888610917811570e+03 1.0000000000000000e+00 7.2558738062981298e+00 8.2099561375718952e+00 1.4090327378232863e+00 
137 1 2 4.9992500339044579e+00 -1.5904323081151197e+03 1.0000000000000000e+00 7.5523027819464383e+00 8.4245096402649882e+00 2.6161726627432667e+00 
57 1 2 4.9994009668014279e+00 -1.3371276019841673e+03 1.0000000000000000e+00 7.2766145664302826e+00 8.0019833111760441e+00 2.2000841539252702e+00 
55 1 2 4.9996988184223765e+00 -1.1776114953285150e+03 1.0000000000000000e+00 7.2834355645139848e+00 9.6804038465068558e+00 2.0881497426261828e+00 
34 1 2 5.0008079995888570e+00 -1.1951529537648037e+03 1.0000000000000000e+00 7.7026838557364217e+00 9.2709216377857970e+00 2.4754779711153510e+00 
159 1 2 4.9998532282536994e+00 -1.0750029941027085e+03 1.0000000000000000e+00 7.8866489709133356e+00 8.4605745582739313e+00 2.2746554376666954e+00 
44 1 2 5.0026028888147787e+00 -6.3268755979629043e+02 1.0000000000000000e+00 7.5045603649314288e+00 8.9977962058724152e+00 1.2201906722019289e+00 
36 1 2 4.9996997092438074e+00 -1.1923112282817933e+03 1.0000000000000000e+00 7.5379792758486781e+00 9.4825694811755028e+00 2.3923736083419174e+00 
29 1 2 4.9994639777946865e+00 -1.3043062841632643e+03 1.0000000000000000e+00 7.1534520387423743e+00 9.6407246456267188e+00 1.6716219700138741e+00 
66 1 2 5.0013162151351578e+00 -1.6422107748870560e+03 1.0000000000000000e+00 7.1377691070270908e+00 8.4982933614479848e+00 1.2144223042880118e+00 
108 1 2 4.9984620244719977e+00 -1.4471657191905604e+03 1.0000000000000000e+00 7.6414962266958879e+00 8.3915553427039900e+00 2.5380209153613666e+00 
39 1 2 4.9980228673264397e+00 -1.5665203970050256e+03 1.0000000000000000e+00 7.4898076117194208e+00 9.6070823068532203e+00 1.7294770815514935e+00 
49 1 2 5.0001992992778836e+00 -1.2395565599729116e+03 1.0000000000000000e+00 7.1757821086067288e+00 7.9674486129913920e+00 1.9924114909618704e+00 
54 1 2 5.0002707946456804e+00 -1.6985680400790943e+03 1.0000000000000000e+00 7.1719123288533027e+00 7.9675525861620500e+00 1.9889237067270573e+00 
18 1 2 5.0002583330022530e+00 -1.4058232507553312e+03 1.0000000000000000e+00 7.1725847813869663e+00 7.9675320766144582e+00 1.9895315592038891e+00 
48 1 2 5.0002502146405838e+00 -1.4760556177154649e+03 1.0000000000000000e+00 7.1730228739991873e+00 7.9675192702346562e+00 1.9899275787561026e+00 
143 1 2 5.0009038601485960e+00 -1.7530880957458694e+03 1.0000000000000000e+00 7.9859236673678362e+00 8.9436259103011277e+00 1.7404250463061823e+00 
117 1 2 5.0005153115295107e+00 -1.0066963646901895e+03 1.0000000000000000e+00 7.5245696421160861e+00 9.4539357296465116e+00 2.4381556403623836e+00 
24 1 2 5.0008393263701807e+00 -1.5885940412877308e+03 1.0000000000000000e+00 7.3096975666096489e+00 9.6481768827506365e+00 1.7107955141160682e+00 
123 1 2 5.0010109247176002e+00 -1.2100495536867711e+03 1.0000000000000000e+00 7.9440456440855218e+00 8.9680550707803199e+00 1.6383118690065566e+00 
6 1 2 5.0015481426047605e+00 -1.3032492300032995e+03 1.0000000000000000e+00 7.8244621488067461e+00 9.2278685631774344e+00 1.5807657800697397e+00 
165 1 2 5.0014021238593331e+00 -1.2730346472735841e+03 1.0000000000000000e+00 6.9354018127697081e+00 9.1334687191541200e+00 1.2366088882219699e+00 
11 1 2 4.9972730168195287e+00 -1.2519036886996093e+03 1.0000000000000000e+00 6.9365508539523733e+00 9.6254106590045598e+00 1.7679082954791705e+00 
21 1 2 5.0001463946063280e+00 -1.1882160369911871e+03 1.0000000000000000e+00 6.7553332347261543e+00 9.5522937653571098e+00 1.9098654572760985e+00 
180 1 2 5.0007939450498631e+00 -1.0610290374977337e+03 1.0000000000000000e+00 6.6689294273876891e+00 9.4849603622752152e+00 1.9382050695287121e+00 
40 1 2 5.8028412924214567e-01 -1.1326625641964445e+03 1.0000000000000000e+00 7.5049353646522059e+00 2.0340980576170327e+00 1.1534739302195039e+01 
41 1 2 5.8028412924214567e-01 -1.0915540385595727e+03 1.0000000000000000e+00 7.5049353646522095e+00 2.0340980576170327e+00 1.1534739302195030e+01 
46 1 2 5.8028412924214567e-01 -8.2185103860719914e+02 1.0000000000000000e+00 7.5049353646522148e+00 2.0340980576170313e+00 1.1534739302195044e+01 
4 1 2 5.8028412924214567e-01 -1.1122200629104666e+03 1.0000000000000000e+00 7.5049353646522095e+00 2.0340980576170344e+00 1.1534739302195023e+01 
88 1 2 2.9014206462107284e-01 -5.3698001814504175e+02 1.0000000000000000e+00 1.2051052032481666e+01 8.6696425347067176e+00 1.1317439651589000e+01 
94 1 2 2.9014206462107284e-01 -6.0141048098042450e+02 1.0000000000000000e+00 1.2051052032481666e+01 8.6696425347067372e+00 1.1317439651588980e+01 
90 1 2 8.7042619386321851e-01 -1.6628917740170255e+03 1.0000000000000000e+00 1.2462223062320163e+01 7.8554267363878241e+00 1.7971701432168530e+01 
96 1 2 8.7042619386321851e-01 -1.6446668512976319e+03 1.0000000000000000e+00 1.2462223062320170e+01 7.8554267363878250e+00 1.7971701432168494e+01 
126 1 2 8.7042619386321851e-01 -1.4374728124260066e+03 1.0000000000000000e+00 1.2462223062320156e+01 7.8554267363878250e+00 1.7971701432168530e+01 
121 1 2 8.7042619386321851e-01 -1.3358911941544984e+03 1.0000000000000000e+00 1.2462223062320170e+01 7.8554267363878223e+00 1.7971701432168537e+01 
89 1 2 8.7042619386321851e-01 -1.1532041676358222e+03 1.0000000000000000e+00 1.2462223062320172e+01 7.8554267363878214e+00 1.7971701432168516e+01 
85 1 2 8.7042619386321851e-01 -1.3083000425075502e+03 1.0000000000000000e+00 1.2462223062320161e+01 7.8554267363878196e+00 1.7971701432168505e+01 
128 1 2 1.7408523877264370e+00 -1.2097347034502359e+03 1.0000000000000000e+00 1.2879206318451391e+01 1.1984636772078648e+01 4.0398347384066566e+00 
91 1 2 1.7408523877264370e+00 -1.2097797066382427e+03 1.0000000000000000e+00 1.2879206318451391e+01 1.1984636772078652e+01 4.0398347384066566e+00 
97 1 2 1.7408523877264370e+00 -1.1609023022874308e+03 1.0000000000000000e+00 1.2879206318451411e+01 1.1984636772078648e+01 4.0398347384066566e+00 
127 1 2 1.7408523877264370e+00 -1.3599830950144774e+03 1.0000000000000000e+00 1.2879206318451391e+01 1.1984636772078648e+01 4.0398347384066566e+00 
133 1 2 1.7408523877264370e+00 -1.0341650087147987e+03 1.0000000000000000e+00 1.2879206318451391e+01 1.1984636772078652e+01 4.0398347384066566e+00 
98 1 2 1.7408523877264370e+00 -1.0097686934770867e+03 1.0000000000000000e+00 1.2879206318451391e+01 1.1984636772078652e+01 4.0398347384066566e+00 
92 1 2 1.7408523877264370e+00 -1.4807717274690747e+03 1.0000000000000000e+00 1.2879206318451411e+01 1.1984636772078648e+01 4.0398347384066566e+00 
129 1 2 1.7408523877264370e+00 -1.5459091517507895e+03 1.0000000000000000e+00 1.2879206318451411e+01 1.1984636772078652e+01 4.0398347384066566e+00 
135 1 2 1.7408523877264370e+00 -1.1062400540140252e+03 1.0000000000000000e+00 1.2879206318451391e+01 1.1984636772078652e+01 4.0398347384066566e+00 
99 1 2 1.7408523877264370e+00 -1.1987379293061099e+03 1.0000000000000000e+00 1.2879206318451411e+01 1.1984636772078652e+01 4.0398347384066566e+00 
93 1 2 1.7408523877264370e+00 -1.0580628017656823e+03 1.0000000000000000e+00 1.2879206318451411e+01 1.1984636772078652e+01 4.0398347384066566e+00 
134 1 2 1.7408523877264370e+00 -1.4433670086886232e+03 1.0000000000000000e+00 1.2879206318451391e+01 1.1984636772078652e+01 4.0398347384066566e+00 
171 1 2 5.0005099466400891e+00 -1.0879431624338388e+03 1.0000000000000000e+00 7.1425437868701280e+00 1.3712155007262268e+01 7.8712802075788852e+00 
160 1 2 5.0006820776315974e+00 -9.9768864512478240e+02 1.0000000000000000e+00 7.6277166616265442e+00 1.4047659750486519e+01 7.8251405335403810e+00 
138 1 2 5.0006059832947116e+00 -1.4126935724431014e+03 1.0000000000000000e+00 7.1467983156390673e+00 1.3707325964063443e+01 7.8817039966607991e+00 
50 1 2 5.0005533479678910e+00 -1.2688705140513821e+03 1.0000000000000000e+00 7.1461421505417455e+00 1.3705359425883795e+01 7.8554269422631133e+00 
164 1 2 5.0003784300389933e+00 -1.3167458565861568e+03 1.0000000000000000e+00 7.6363316037495057e+00 1.4038623712004593e+01 7.8472567893798546e+00 
149 1 2 5.0007527048894342e+00 -1.4896381389803646e+03 1.0000000000000000e+00 7.1670977668294196e+00 1.3679471730050583e+01 7.8788537813986075e+00 
122 1 2 5.0005962123090937e+00 -9.5500878137042241e+02 1.0000000000000000e+00 7.1438460054120547e+00 1.3712149887756011e+01 7.8824951660375877e+00 
136 1 2 5.0003990154195508e+00 -1.1215212225874793e+03 1.0000000000000000e+00 7.1524626771096083e+00 1.3695673471199717e+01 7.8478706180342277e+00 
168 1 2 5.0003416550461557e+00 -1.3836827347505987e+03 1.0000000000000000e+00 7.1586516509631641e+00 1.3689192893604488e+01 7.8787246405281497e+00 
69 1 2 5.0008907658050505e+00 -1.2454543990431939e+03 1.0000000000000000e+00 7.6140854841621337e+00 1.4065016614727696e+01 7.8411543125677845e+00 
38 1 2 5.0004709435177528e+00 -9.9932081223478065e+02 1.0000000000000000e+00 7.1498820181583547e+00 1.3701617270050734e+01 7.8778252260935062e+00 
22 1 2 5.0004149180216997e+00 -1.3369619725713435e+03 1.0000000000000000e+00 7.1505689906985683e+00 1.3698750448132007e+01 7.8628785432738209e+00 
131 1 2 5.0003399358738347e+00 -1.5469802809410412e+03 1.0000000000000000e+00 7.1570784464946815e+00 1.3689168385118908e+01 7.8527783945092571e+00 
178 1 2 5.0003783392439116e+00 -1.3177106984725033e+03 1.0000000000000000e+00 7.1625637404338081e+00 1.3682450270209612e+01 7.8615758097129556e+00 
179 1 2 4.9994693589945483e+00 -1.0515493785670542e+03 1.0000000000000000e+00 7.6417645634986568e+00 1.4032932514430586e+01 7.8540578248861896e+00 
174 1 2 5.0003293372235369e+00 -1.3004281543496386e+03 1.0000000000000000e+00 7.1592689754134708e+00 1.3686306158507767e+01 7.8479006164501683e+00 
74 1 2 5.0006608054713739e+00 1.1508533117409115e+02 1.0000000000000000e+00 7.6329051059596669e+00 1.4041733899067124e+01 7.8322963996791071e+00 
56 1 2 5.0003939358562768e+00 -1.4408169059727056e+03 1.0000000000000000e+00 7.1517826535673725e+00 1.3697503484099535e+01 7.8691912726084743e+00 
61 1 2 5.0002626966016068e+00 -1.0488150863506680e+03 1.0000000000000000e+00 7.1657455880600960e+00 1.3678231161708004e+01 7.8603577042272503e+00 
3 1 2 5.0001778057776765e+00 -1.4976172133362593e+03 1.0000000000000000e+00 7.1630191886875414e+00 1.3681216402311707e+01 7.8478192954062918e+00 
157 1 2 5.0002932136071134e+00 -1.1554324978430814e+03 1.0000000000000000e+00 7.1618963407728629e+00 1.3683093068138271e+01 7.8614659417651511e+00 
63 1 2 5.0001894612127327e+00 -1.2622287683629659e+03 1.0000000000000000e+00 7.6214287172222228e+00 1.4056763998956610e+01 7.8266639981175707e+00 
110 1 2 5.0003627159116641e+00 -1.4059166277925360e+03 1.0000000000000000e+00 7.6405111740177798e+00 1.4032516039135276e+01 7.8448327119277419e+00 
172 1 2 5.0003990528630169e+00 -1.0693521494531119e+03 1.0000000000000000e+00 7.1735577029509638e+00 1.3669834079990684e+01 7.8660786048298945e+00 
64 1 2 5.0003830422159714e+00 -1.1945033416965850e+03 1.0000000000000000e+00 7.6431896626957103e+00 1.4028009337627303e+01 7.8384398866972278e+00 
62 1 2 5.0003283276726691e+00 -1.0931957153390395e+03 1.0000000000000000e+00 7.6362992838687376e+00 1.4038633824864979e+01 7.8427982997062218e+00 
43 1 2 5.0004895756686096e+00 -1.2026650267005291e+03 1.0000000000000000e+00 7.6378653325996018e+00 1.4036075865220909e+01 7.8443744225633081e+00 
177 1 2 5.0004490814656073e+00 -1.2261472899251532e+03 1.0000000000000000e+00 7.6375374112781165e+00 1.4036746004210151e+01 7.8478315497027635e+00 
116 1 2 5.0008038658315241e+00 -1.0130776255604942e+03 1.0000000000000000e+00 7.6150278391787767e+00 1.4064139193756072e+01 7.8409184928922580e+00 
166 1 2 5.0007650159895611e+00 -1.5604995028095327e+03 1.0000000000000000e+00 7.6185285012200143e+00 1.4058775674822957e+01 7.8253607099306661e+00 
115 1 2 5.0006485829931311e+00 -1.1826917445370555e+03 1.0000000000000000e+00 7.6325912381031324e+00 1.4042303164911933e+01 7.8333530040855361e+00 
51 1 2 5.0004286440792463e+00 -1.2528033259287618e+03 1.0000000000000000e+00 7.6389228384615988e+00 1.4034694497690158e+01 7.8446004405408756e+00 
25 1 2 5.0002794509808552e+00 -8.5504820209834611e+02 1.0000000000000000e+00 7.6351472263127356e+00 1.4036896584471053e+01 7.8159681971680337e+00 
152 1 2 5.0005764935000849e+00 -1.2750936973194225e+03 1.0000000000000000e+00 7.6297900754640970e+00 1.4044029541102958e+01 7.8182872750787151e+00 
33 1 2 5.0003606702127188e+00 -1.1135699917295437e+03 1.0000000000000000e+00 7.1564077293142088e+00 1.3692448529182860e+01 7.8799722311781837e+00 
132 1 2 5.0004088675511946e+00 -1.2545910973492043e+03 1.0000000000000000e+00 7.6459158436428396e+00 1.4023617648088226e+01 7.8384424235211343e+00 
65 1 2 2.9014206462107284e-01 -6.7534412925034826e+02 1.0000000000000000e+00 7.9168829487573298e+00 1.4712773431788118e+01 1.2593012488929793e+01 
71 1 2 2.9014206462107284e-01 -6.7702033822422572e+02 1.0000000000000000e+00 7.9168829487573200e+00 1.4712773431788097e+01 1.2593012488929794e+01 
9 1 2 5.4448678861231192e+00 -1.6260108482279395e+03 1.0000000000000000e+00 1.4276319243136102e+01 1.6378080822320196e-01 9.5280654399822673e+00 
107 1 2 5.1724257992423395e+00 -1.7670229336312161e+03 1.0000000000000000e+00 1.3993949183441512e+01 2.6037890989696122e-01 9.3774773681428432e+00 
68 1 2 4.6425827943629869e+00 -1.1705438606766656e+03 1.0000000000000000e+00 1.3457064866722241e+01 9.0736732330364778e-01 9.4406917574057196e+00 
139 1 2 5.4665879441957106e+00 -1.8350605357045849e+03 1.0000000000000000e+00 1.3621096596473107e+01 3.5124469342273762e-01 9.8862544540965249e+00 
114 1 2 5.3498433499718310e+00 -1.0719102387865109e+03 1.0000000000000000e+00 1.4898742213883050e+01 2.2173394871068711e-01 9.8690658225112866e+00 
175 1 2 4.8999012918353646e+00 -1.5521070081564924e+03 1.0000000000000000e+00 1.4365016920647866e+01 2.6435333502863984e-01 9.2098140974915204e+00 
145 1 2 4.8241836597996688e+00 -1.2340078209827566e+03 1.0000000000000000e+00 1.3479997095672092e+01 1.0238399373385296e+00 9.5775246191058763e+00 
142 1 2 5.3941172402120552e+00 -1.1896774461182154e+03 1.0000000000000000e+00 1.4546398967290544e+01 6.8670246634720128e-02 9.6442473183483237e+00 
84 1 2 5.1487676938969065e+00 -1.5781948205261056e+03 1.0000000000000000e+00 1.3827077780732667e+01 3.2849906741157431e-01 9.4191651493523736e+00 
86 1 2 5.0344862025818333e+00 -1.0421702254143595e+03 1.0000000000000000e+00 1.4483651385716552e+01 7.6921899939608240e-01 9.2614744292308870e+00 
28 1 2 4.9278682074378919e+00 -1.2520885491867323e+03 1.0000000000000000e+00 1.3470296570948310e+01 8.2623754952812190e-01 9.5796063850626769e+00 
167 1 2 5.6694047676922690e+00 -1.5475495303911796e+03 1.0000000000000000e+00 1.4258776937606394e+01 9.3951729809049866e-01 9.5947300796242754e+00 
73 1 2 5.1496722043285779e+00 -1.1438612950900681e+03 1.0000000000000000e+00 1.4355628855289357e+01 1.5022623981563836e+00 9.8426127820798541e+00 
105 1 2 5.1016318745246405e+00 -9.0189507128482171e+02 1.0000000000000000e+00 1.3796268156717117e+01 3.6655316863354781e-01 9.3998644473418906e+00 
176 1 2 5.1403110738380731e+00 -1.4944824494874097e+03 1.0000000000000000e+00 1.4499932127528204e+01 1.4779333020804171e+00 9.8716155377699337e+00 
140 1 2 4.9783422133044599e+00 -1.6526315078418256e+03 1.0000000000000000e+00 1.4720075246896734e+01 1.2982692427099856e+00 9.6521609028139004e+00 
141 1 2 4.8921152705903257e+00 -1.2934683557662008e+03 1.0000000000000000e+00 1.3772120728210821e+01 2.7911870588869753e-01 9.3365173450395762e+00 
124 1 2 5.1698183937710800e+00 -1.2777770413855510e+03 1.0000000000000000e+00 1.4049725532852483e+01 1.3847452022181261e+00 1.0779475747717820e+01 
76 1 2 5.1698183937716049e+00 -1.2738842814283264e+03 1.0000000000000000e+00 1.4049725532851689e+01 1.3847452022191229e+00 1.0779475747716067e+01 
83 1 2 5.1698183937709743e+00 -1.2565818879034839e+03 1.0000000000000000e+00 1.4049725532853634e+01 1.3847452022176423e+00 1.0779475747718797e+01 
112 1 2 5.1698183937713624e+00 -1.0968261251795768e+03 1.0000000000000000e+00 1.4049725532851800e+01 1.3847452022188831e+00 1.0779475747716550e+01 
125 1 2 5.1698183937701758e+00 -1.3027437961464329e+03 1.0000000000000000e+00 1.4049725532855355e+01 1.3847452022155771e+00 1.0779475747722243e+01 
120 1 2 5.1698183937716040e+00 -1.1327896509247964e+03 1.0000000000000000e+00 1.4049725532851689e+01 1.3847452022191231e+00 1.0779475747716067e+01 
119 1 2 5.1698183937707780e+00 -1.0892290189122662e+03 1.0000000000000000e+00 1.4049725532853557e+01 1.3847452022166520e+00 1.0779475747720037e+01 
118 1 2 5.1698183937716049e+00 -6.4728860544815097e+02 1.0000000000000000e+00 1.4049725532851689e+01 1.3847452022191229e+00 1.0779475747716067e+01 
82 1 2 5.1698183937710800e+00 -1.1945017518678219e+03 1.0000000000000000e+00 1.4049725532852483e+01 1.3847452022181261e+00 1.0779475747717820e+01 
77 1 2 5.1698183937709707e+00 -1.2580878226060313e+03 1.0000000000000000e+00 1.4049725532853595e+01 1.3847452022177418e+00 1.0779475747718678e+01 
113 1 2 5.1698183937712860e+00 -1.3382137703483324e+03 1.0000000000000000e+00 1.4049725532852181e+01 1.3847452022184361e+00 1.0779475747717228e+01 
101 1 2 4.7198212351657860e+00 -1.6930311947971693e+03 1.0000000000000000e+00 1.4763961688363604e+01 1.8330609159603889e-01 1.1002189380927321e+01 
30 1 2 5.6671073763781337e+00 -1.3084834079849511e+03 1.0000000000000000e+00 1.4619701186072559e+01 5.5002958275178415e-01 1.0704373380533365e+01 
146 1 2 4.7884533402239660e+00 -1.3241895522710802e+03 1.0000000000000000e+00 1.3671251464824490e+01 1.4060990976096055e+00 1.0788224571028703e+01 
80 1 2 5.5177814851583635e+00 -1.4420943908390325e+03 1.0000000000000000e+00 1.3895856600411392e+01 5.4729930455088283e-01 1.0807818617962489e+01 
20 1 2 5.0616911079048856e+00 -7.7786441707535471e+02 1.0000000000000000e+00 1.3737086834647718e+01 7.8029659160133269e-01 1.0976908367766276e+01 
130 1 2 5.4282816903155888e+00 -1.3782020704325091e+03 1.0000000000000000e+00 1.4948271837666729e+01 5.9493620229132871e-01 1.0483012362328861e+01 
100 1 2 4.7815723179033416e+00 -1.7232522476749070e+03 1.0000000000000000e+00 1.4985681123157846e+01 3.8260192528559211e-01 1.0876571905888028e+01 
106 1 2 5.1287734755611414e+00 -1.0920865114850635e+03 1.0000000000000000e+00 1.4045719200432112e+01 1.5675457888454649e+00 1.0492335234962619e+01 
158 1 2 5.0996713597480516e+00 -1.3662429503784056e+03 1.0000000000000000e+00 1.3908831820835099e+01 1.5706178736278824e+00 1.0370579546640743e+01 
109 1 2 4.8064703151684931e+00 -1.6224854128695104e+03 1.0000000000000000e+00 1.3859708658398413e+01 1.5551295192796744e+00 1.0743827576365534e+01 
150 1 2 4.8294236364652336e+00 -1.4074196068604460e+03 1.0000000000000000e+00 1.3962032718990425e+01 1.7217286744179072e+00 1.0235895752002643e+01 
42 1 2 4.9880355903796225e+00 -1.6207446338932866e+03 1.0000000000000000e+00 1.4755312117098716e+01 1.4713705587699804e+00 1.0045380182021235e+01 
144 1 2 5.1049772420718762e+00 -1.1756428944028924e+03 1.0000000000000000e+00 1.4879337138276490e+01 5.6463099791042651e-02 1.0536357560295402e+01 
15 1 2 5.3808589688818556e+00 -1.6579356334934573e+03 1.0000000000000000e+00 1.4978724124132732e+01 3.1202496672780006e-01 1.0191525110150334e+01 
156 1 2 5.8028412924214567e-01 -1.4194798504654359e+03 1.0000000000000000e+00 1.8116931103901617e+01 6.1871125357835437e+00 1.5564668265046141e+01 
155 1 2 5.8028412924214567e-01 -1.0436997760129595e+03 1.0000000000000000e+00 1.8116931103901621e+01 6.1871125357835366e+00 1.5564668265046153e+01 
161 1 2 5.8028412924214567e-01 -1.3330168888097210e+03 1.0000000000000000e+00 1.8116931103901628e+01 6.1871125357835428e+00 1.5564668265046153e+01 
162 1 2 5.8028412924214567e-01 -1.1560481389731140e+03 1.0000000000000000e+00 1.8116931103901607e+01 6.1871125357835455e+00 1.5564668265046143e+01 
169 1 2 5.0770053128914681e+00 -1.7312700262485935e+03 1.0000000000000000e+00 1.3915866616544823e+01 1.9812663253844462e+01 9.8092119141675500e+00 
78 1 2 4.7525536903873480e+00 -1.1545189327118510e+03 1.0000000000000000e+00 1.4484548234328205e+01 1.9871216631539525e+01 9.3822068817740707e+00 
2 1 2 5.0169973542321822e+00 -1.0538192556144459e+03 1.0000000000000000e+00 1.4623585756380109e+01 1.9716666328946918e+01 9.9885358747378099e+00 
27 1 2 4.8383867311871329e+00 -1.4142836798467567e+03 1.0000000000000000e+00 1.4669926399192414e+01 1.9754587518459783e+01 9.6832519274374977e+00 
32 1 2 5.1901930019585123e+00 -1.0791131082466425e+03 1.0000000000000000e+00 1.4182257545501093e+01 1.9751905381132318e+01 9.9152786191760587e+00 
173 1 2 4.8449735409437222e+00 -1.0922614706304007e+03 1.0000000000000000e+00 1.4884673768783472e+01 1.9915327366107292e+01 9.6898371462982897e+00 
95 1 2 5.5060447667634342e+00 -1.6864215845342139e+03 1.0000000000000000e+00 1.4086340016562490e+01 1.9904559618889927e+01 1.0151245790283017e+01 
154 1 2 5.0669357757754874e+00 -1.2563824665549275e+03 1.0000000000000000e+00 1.4548078373542650e+01 1.9712790405090225e+01 1.0253228265899137e+01 
147 1 2 5.0669357757863729e+00 -1.5816226590955412e+03 1.0000000000000000e+00 1.4548078373542316e+01 1.9712790405095209e+01 1.0253228265898656e+01 
31 1 2 4.8946599282066394e+00 -1.3027161606077486e+03 1.0000000000000000e+00 1.4369056150196641e+01 1.9592936773171534e+01 1.0048928300137426e+01 
153 1 2 5.0669357757901627e+00 -1.6023515519166328e+03 1.0000000000000000e+00 1.4548078373555246e+01 1.9712790405103799e+01 1.0253228265916292e+01 
111 1 2 5.0669357757748390e+00 -1.4335907594456251e+03 1.0000000000000000e+00 1.4548078373544429e+01 1.9712790405090804e+01 1.0253228265901249e+01 
26 1 2 4.9721048027317876e+00 -9.7904281017734445e+02 1.0000000000000000e+00 1.4564372404764342e+01 1.9930408163310354e+01 1.0775828138040515e+01 

Velocities

70 2.7134745818731391e-03 9.7528195012715169e-04 -1.8896366759876474e-04
5 1.0940051259140694e-03 7.1856811978769251e-04 2.0692088576039708e-04
163 2.2083474049376167e-03 1.6787273462745970e-04 1.4402692151854824e-03
8 -1.4283547207170253e-03 2.0295709641480000e-04 7.4130842807832819e-04
170 -2.4371296255444931e-03 -1.3352677313746366e-03 -3.5507131971348294e-04
148 5.0488301042074665e-04 -6.3527420954123984e-04 1.7049054096972637e-04
47 -1.2787221239067066e-31 -2.6875275178126727e-14 2.1500220142501942e-13
10 -1.2787221239024725e-31 -2.6875275178126727e-14 2.1500220142501942e-13
59 -1.2787221239024725e-31 -2.6875275178126727e-14 2.1500220142501942e-13
17 -1.2787221239024725e-31 -2.6875275178126727e-14 2.1500220142501942e-13
23 -1.2787221239024725e-31 -2.6875275178126727e-14 -7.5250770498755889e-13
58 -1.2787221239024725e-31 -2.6875275178126727e-14 -7.5250770498755889e-13
52 -1.2787221239024725e-31 2.1500220142501419e-13 2.1500220142501942e-13
53 -1.2787221239024725e-31 -2.6875275178126727e-14 2.1500220142501942e-13
16 -1.2787221239024725e-31 -2.6875275178126727e-14 2.1500220142501942e-13
35 7.4683047508546705e-264 -4.0196122406637183e-264 -9.4480180087000408e-264
1 -7.3662353979554436e-04 8.2289500986242091e-04 5.0246669721046700e-05
102 6.5365865000222984e-03 -1.1185492670125936e-03 2.2287833679829091e-03
104 -4.3532501647329373e-04 -3.1539810409630074e-04 -3.4380772112341884e-03
79 -2.4513774970345587e-04 -5.5339935772098685e-03 3.4115930619114279e-03
60 1.1973955420275106e-04 -2.8790902720209261e-03 1.1796617231130827e-03
14 1.0860863044018678e-04 1.2760600615346180e-03 -1.2804368555485474e-03
72 -1.2676707630617139e-03 -5.0147673926771957e-04 -1.2715915169837497e-03
75 -3.2146277193582218e-04 1.2737123745757346e-03 9.3659722167763193e-04
13 -4.5638412832632943e-04 4.4356118813989540e-04 2.9937332526324344e-04
45 -3.0307684513137781e-03 -8.4657150695214818e-04 3.4650068872049043e-04
81 4.2303585815362020e-04 -3.6273351983009171e-03 5.1394284841537975e-03
103 -5.3903806937287424e-04 2.2071659992766270e-04 1.6838530498408576e-04
151 8.2402630192891281e-04 2.0648409472271822e-03 -2.0038461477047298e-04
37 1.7393632378986472e-03 1.8098620541316893e-03 1.1419616166154532e-02
7 -4.5565323823642482e-04 3.9628880760173913e-04 3.0111229784897782e-04
67 -5.3221715832132922e-04 4.3910763299226987e-04 6.0425801915786919e-05
19 -2.5426643662091008e-03 -2.4082105985779138e-03 -5.6738133413558175e-03
12 -4.5605748552768154e-04 4.2418304248289189e-04 3.0010866192646237e-04
87 -1.4144934217091837e-04 -3.1963496643857337e-03 -2.8824259076617505e-03
137 -3.6844897586023038e-03 3.0636132645276942e-03 -5.8289412934518581e-03
57 -6.8959023907959663e-04 1.7026789693971836e-03 -3.2278379907279197e-04
55 -1.0332731863737986e-04 4.3514971417617449e-03 8.6259539843459268e-04
34 -3.9761216012722406e-05 4.5682383280752978e-04 7.3053247267303905e-04
159 -4.7801625658443437e-03 1.7825033643302499e-03 -1.3392511994036341e-03
44 -6.5190098458268086e-04 1.5533059681912338e-04 1.8786712622782768e-04
36 -2.1106297022695820e-03 -2.7532197802280995e-03 -2.0019744027628102e-03