LAMMPS data file via write_data, version 30 Jul 2016, timestep = 50400000

504 atoms
2 atom types

0.0000000000000000e+00 2.0000000000000000e+01 xlo xhi
0.0000000000000000e+00 2.0000000000000000e+01 ylo yhi
0.0000000000000000e+00 2.0000000000000000e+01 zlo zhi

Masses

1 3.89
2 4.3

Atoms # meso-molecular

299 1 2 1.0279999999999840e+00 -1.2927593921096751e+01 1.0000000000000000e+00 9.9605556652902667e+00 5.7539277896130328e+00 3.2575657480686471e+00 
232 1 2 1.0279999999999920e+00 -3.7248514774977394e+01 1.0000000000000000e+00 1.0287270479345420e+01 5.2148446977969618e+00 2.8606117683979129e+00 
423 1 2 1.0279999999999749e+00 1.1783355190673571e+01 1.0000000000000000e+00 1.1756528249615631e+01 5.4247247923582789e+00 1.2250807959474703e+00 
504 1 2 1.0279999999999756e+00 -9.5570587018942490e+01 1.0000000000000000e+00 1.1782807029918404e+01 4.3388604654879535e+00 2.3188577377602120e+00 
364 1 2 1.0279999999999863e+00 -1.3133420848442068e+01 1.0000000000000000e+00 1.2114594450137252e+01 5.5728888455587366e+00 9.8216369236344148e-01 
282 1 2 1.0279999999999783e+00 -1.2889364358681263e+01 1.0000000000000000e+00 1.2197646346020537e+01 5.4711403822010123e+00 1.1096728420600164e+00 
25 1 2 1.0279999999999943e+00 6.4272470711635464e+01 1.0000000000000000e+00 1.2271244989916731e+01 5.6044487094149016e+00 9.4087020593094650e-01 
29 1 2 1.0279999999999949e+00 -2.3329624891796549e+01 1.0000000000000000e+00 1.2514130215597067e+01 5.8954628397934394e+00 5.7364123558883928e-01 
351 1 2 1.0279999999999816e+00 7.9652718581267152e+01 1.0000000000000000e+00 1.2087689394207670e+01 3.5317954451438336e+00 3.1510580191775679e+00 
107 1 2 1.0280000000000153e+00 -1.5764818476814618e+01 1.0000000000000000e+00 1.2405116016139800e+01 4.6641181173713422e+00 2.0178789272112470e+00 
349 1 2 1.0280000000000016e+00 -1.8157232302365344e+01 1.0000000000000000e+00 1.2739768890854728e+01 5.3648356077465431e+00 1.3849771225461276e+00 
94 1 2 1.0279999999999965e+00 5.0009994959043851e+01 1.0000000000000000e+00 1.2764093415538435e+01 4.8754022804614321e+00 1.9807596832723764e+00 
318 1 2 1.0280000000000149e+00 2.5718000611089202e+01 1.0000000000000000e+00 1.2658120196352115e+01 6.2589825421691936e+00 1.1213576929745256e-01 
441 1 2 1.0280000000000387e+00 -1.0289394699241267e+01 1.0000000000000000e+00 9.4535275604305440e+00 7.0667761573224652e+00 1.0130382246693257e+00 
16 1 2 1.0280000000000129e+00 -2.2718244120643931e+01 1.0000000000000000e+00 9.5304525585807234e+00 7.8041763616688122e+00 2.8355429204097384e+00 
482 1 2 1.0280000000000067e+00 -2.9617715364888838e+01 1.0000000000000000e+00 9.6403058925960625e+00 8.1192620577931578e+00 2.9736536575625219e+00 
223 1 2 1.0279999999999858e+00 -5.9702740773066722e+01 1.0000000000000000e+00 9.2732062498538319e+00 9.1398125930482852e+00 9.4683430844328198e-01 
258 1 2 1.0279999999999885e+00 -4.6557767605862615e+01 1.0000000000000000e+00 9.6224773320619992e+00 7.9406652265007116e+00 3.1966864709437655e+00 
260 1 2 1.0280000000000102e+00 5.4199209417500370e+01 1.0000000000000000e+00 9.4599422922442020e+00 7.4643293613305843e+00 2.5560044230513150e+00 
197 1 2 1.0280000000000493e+00 1.0022631718589745e+01 1.0000000000000000e+00 9.4840192687866285e+00 7.3997958328147293e+00 2.7042969325235986e+00 
442 1 2 1.0280000000000511e+00 -2.2651540212767237e+01 1.0000000000000000e+00 9.5172008670949744e+00 7.1979498676764546e+00 2.8357821537599226e+00 
23 1 2 1.0280000000000165e+00 4.0683625948514319e+01 1.0000000000000000e+00 9.9300161757876193e+00 8.5706029044731160e+00 3.2432022894550494e+00 
283 1 2 1.0280000000000511e+00 4.2379803352777735e+01 1.0000000000000000e+00 1.0034864775339816e+01 9.5767723171246573e+00 1.6407224409368928e+00 
153 1 2 1.0279999999997320e+00 1.7183351726778049e+01 1.0000000000000000e+00 1.1175120483809193e+01 9.7272871671091554e+00 1.4302942314129248e+00 
479 1 2 1.0280000000000391e+00 -4.4515403080990495e+01 1.0000000000000000e+00 1.0298108539192752e+01 6.7896925346366714e+00 2.7752367817154615e-02 
266 1 2 1.0280000000000202e+00 3.9007205746622500e+00 1.0000000000000000e+00 1.2167612128381377e+01 2.0845169763608045e+00 4.9472897314747204e+00 
147 1 2 1.0279999999999965e+00 6.3745268209548286e+01 1.0000000000000000e+00 1.2088282984991491e+01 9.9052400619705749e-01 5.7637095354161207e+00 
461 1 2 1.0279999999999987e+00 -2.3169803861360684e+01 1.0000000000000000e+00 1.2317287904195076e+01 9.5698137879168355e-01 5.6179464538955646e+00 
184 1 2 1.0279999999999918e+00 7.2419677874529967e+01 1.0000000000000000e+00 1.2352680333438725e+01 1.2714737955127731e+00 5.4678968166148385e+00 
19 1 2 1.0279999999999827e+00 -2.7597658711480655e+01 1.0000000000000000e+00 1.2453298350016929e+01 2.2480100322644412e+00 4.5574922221608736e+00 
335 1 2 1.0280000000000098e+00 2.7266725495982442e+01 1.0000000000000000e+00 1.2510104679058500e+01 1.6033714849194678e+00 5.1701404636936701e+00 
272 1 2 1.0279999999999923e+00 -1.0586509046406718e+01 1.0000000000000000e+00 1.1518706422444877e+01 3.0186963842367347e+00 4.0868747635505924e+00 
456 1 2 1.0280000000000118e+00 -2.2415364836717579e+01 1.0000000000000000e+00 9.7277447900100888e+00 6.5519674097441492e+00 3.5206759612178784e+00 
376 1 2 1.0280000000000418e+00 -2.3940896450094005e+01 1.0000000000000000e+00 9.7511475786301336e+00 6.5769822562599876e+00 3.6919732699074039e+00 
175 1 2 1.0280000000000311e+00 -1.1813774843112462e+01 1.0000000000000000e+00 1.0642084826952178e+01 4.0685583662050693e+00 3.7269615595836250e+00 
306 1 2 1.0280000000000411e+00 3.6959530703886769e+00 1.0000000000000000e+00 1.0552214570410399e+01 4.1597735574109089e+00 3.8168515395083582e+00 
227 1 2 1.0279999999999654e+00 -4.6966763351333036e+01 1.0000000000000000e+00 1.0741033485359193e+01 3.8237521518207309e+00 3.9244445776423120e+00 
444 1 2 1.0280000000000333e+00 -2.2718595494112989e+01 1.0000000000000000e+00 1.0492084481528240e+01 4.0759856526920935e+00 4.2219055998833053e+00 
202 1 2 1.0280000000000065e+00 -3.4969378700936076e+01 1.0000000000000000e+00 1.0513566329618671e+01 4.0257266092538480e+00 4.2484599052439407e+00 
343 1 2 1.0280000000000511e+00 9.9062549872810507e+01 1.0000000000000000e+00 1.0460170749066688e+01 4.1129700617494382e+00 4.2801506646189029e+00 
380 1 2 1.0279999999999490e+00 -2.3732967771856837e+00 1.0000000000000000e+00 1.0331946270234038e+01 3.8762456426761220e+00 5.6298943520399876e+00 
122 1 2 1.0279999999999268e+00 3.2904580089343582e+01 1.0000000000000000e+00 1.0154969882006627e+01 4.8034402841243846e+00 5.2153326106408286e+00 
8 1 2 1.0280000000000258e+00 -6.3351955440108171e+01 1.0000000000000000e+00 1.2743751515890166e+01 4.3745480244445849e+00 5.4180392933214172e+00 
62 1 2 1.0279999999999971e+00 -5.7758569181255922e+01 1.0000000000000000e+00 1.3083642998541460e+01 6.1036943564506521e+00 3.5385409701668924e+00 
295 1 2 1.0280000000000877e+00 -1.8848379229266982e+01 1.0000000000000000e+00 1.1008641566714482e+01 9.2192587147927476e+00 4.0967911209703987e+00 
132 1 2 1.0280000000000367e+00 -3.6648246633717015e+01 1.0000000000000000e+00 1.1184195915228930e+01 9.1856055370585512e+00 4.3958846911155627e+00 
362 1 2 1.0280000000000986e+00 2.2732706694813267e+01 1.0000000000000000e+00 1.1428051864058400e+01 9.0202348934004082e+00 5.2675584440287828e+00 
409 1 2 1.0280000000000906e+00 -2.1816939601471450e+01 1.0000000000000000e+00 1.1564650484048608e+01 9.0061545736886952e+00 5.6317975418468738e+00 
75 1 2 1.0280000000000069e+00 2.3577060160118648e+01 1.0000000000000000e+00 1.0242123172257683e+01 7.2522851698224224e+00 5.1430800344210281e+00 
400 1 2 1.0280000000000651e+00 6.1511155149521173e+01 1.0000000000000000e+00 1.0718959692368365e+01 7.7671932015015495e+00 6.3332775060592876e+00 
345 1 2 1.0280000000000584e+00 -6.0151512676488778e+01 1.0000000000000000e+00 1.0518359199834785e+01 7.5437485439993477e+00 5.6599373706554141e+00 
363 1 2 1.0280000000000016e+00 5.5933954087218751e+01 1.0000000000000000e+00 1.0565471351586186e+01 7.6446490345518283e+00 5.7789979629722827e+00 
207 1 2 1.0279999999998515e+00 -1.7913148480517116e+01 1.0000000000000000e+00 1.1525464959844374e+01 7.2216853007030037e+00 5.4847269217257386e+00 
143 1 2 1.0279999999999050e+00 1.9545661609910464e+01 1.0000000000000000e+00 1.1775779938699774e+01 9.1043845591322121e+00 4.8319462891268765e+00 
117 1 2 1.0279999999999117e+00 2.1760349855195740e+00 1.0000000000000000e+00 1.1628080345828447e+01 9.1733541545995525e+00 4.5882293582846074e+00 
222 1 2 1.0279999999999032e+00 -1.9984441848077296e+01 1.0000000000000000e+00 1.1433466515226476e+01 9.2704331974596279e+00 4.2292992831172223e+00 
160 1 2 1.0280000000001037e+00 -2.9985803268595333e+01 1.0000000000000000e+00 1.2923955719175979e+01 9.4727151053710710e+00 3.7372116656773646e+00 
124 1 2 1.0280000000001053e+00 -5.3618897987047092e+00 1.0000000000000000e+00 1.3285477420716292e+01 8.5805092447673310e+00 5.6784183347260706e+00 
307 1 2 1.0280000000000664e+00 4.8472504498034766e+01 1.0000000000000000e+00 9.8432829707602227e+00 5.9573685133325416e-01 9.3222096024148371e+00 
452 1 2 1.0280000000000233e+00 3.0284451666653611e+00 1.0000000000000000e+00 9.8971760099404502e+00 5.6738127728615495e-01 9.0773311588524255e+00 
110 1 2 1.0279999999999636e+00 2.8021274025676743e+01 1.0000000000000000e+00 9.9374173876375664e+00 1.3178758844401577e+00 8.8405173223598617e+00 
128 1 2 1.0280000000000011e+00 -3.8230898814807802e+01 1.0000000000000000e+00 9.9843459239458809e+00 1.7694532016392917e+00 8.9042714690514977e+00 
145 1 2 1.0279999999999956e+00 3.6725120797774032e+01 1.0000000000000000e+00 1.0586293624103238e+01 9.6030032989958902e-01 7.5075668905662098e+00 
498 1 2 1.0280000000000269e+00 -5.3687160302608827e+00 1.0000000000000000e+00 1.0290687525995564e+01 1.7190720967291584e+00 8.1735301084628738e+00 
484 1 2 1.0280000000000260e+00 -4.7307898381982511e+01 1.0000000000000000e+00 1.0124638526303780e+01 7.0459297798807817e-03 9.0425392023773625e+00 
472 1 2 1.0279999999999174e+00 -1.2564509664248247e+01 1.0000000000000000e+00 1.0155922539064695e+01 3.2677051451477737e+00 8.2583017151576357e+00 
199 1 2 1.0279999999999678e+00 -3.5583713341240824e+01 1.0000000000000000e+00 9.7045457338092636e+00 4.5647826763147652e+00 8.3231364693502297e+00 
317 1 2 1.0280000000000065e+00 -1.8269516682606394e+01 1.0000000000000000e+00 9.7009820965410576e+00 4.3379531390716615e+00 8.2293725564436002e+00 
474 1 2 1.0280000000000076e+00 1.1066549580448631e+02 1.0000000000000000e+00 9.8007219711049611e+00 3.8166779547073637e+00 7.8788043998310364e+00 
212 1 2 1.0279999999999965e+00 -4.3932252294327427e+01 1.0000000000000000e+00 9.8417383376265661e+00 3.9412857865868793e+00 7.2329782203393265e+00 
226 1 2 1.0280000000000507e+00 -4.5540395422926210e+01 1.0000000000000000e+00 9.8773899959314075e+00 3.7007801384721506e+00 7.7025591586255242e+00 
101 1 2 1.0279999999999958e+00 -1.5600649512566758e+01 1.0000000000000000e+00 9.9097140888004063e+00 5.3998000743064294e+00 7.3550125843160892e+00 
492 1 2 1.0280000000000165e+00 -4.8172765552726531e+01 1.0000000000000000e+00 9.9522287332769697e+00 3.8182120523961567e+00 7.0467534273456947e+00 
61 1 2 1.0280000000000278e+00 6.1327718294910003e+00 1.0000000000000000e+00 9.9658422414617309e+00 3.7605295172503448e+00 7.1464198876296763e+00 
497 1 2 1.0280000000000051e+00 -1.0034655991069737e+01 1.0000000000000000e+00 9.9814969187886131e+00 3.7627730753018773e+00 7.0861103334317583e+00 
372 1 2 1.0280000000000775e+00 -2.7183422154177535e+01 1.0000000000000000e+00 1.0156850095889897e+01 5.6969240611274428e+00 7.2787963012200221e+00 
367 1 2 1.0280000000001006e+00 9.4332063021997669e+01 1.0000000000000000e+00 1.0160098936643175e+01 5.7464371066592701e+00 7.4673672918970881e+00 
475 1 2 1.0279999999999940e+00 -4.6252868245068498e+01 1.0000000000000000e+00 1.0126583466111281e+01 5.9186703172559980e+00 8.1682572041119865e+00 
18 1 2 1.0279999999999980e+00 -5.0582701339079343e+01 1.0000000000000000e+00 9.6833695557252515e+00 7.0137938027562949e+00 9.4117276592815902e+00 
83 1 2 1.0280000000000409e+00 4.1128881238624750e+01 1.0000000000000000e+00 1.1113693131821162e+01 8.7824555594452942e+00 8.3731982852972937e+00 
47 1 2 1.0280000000000549e+00 -2.5818224240997246e+01 1.0000000000000000e+00 1.1562746161878106e+01 9.9124535969010292e+00 8.6789711154850178e+00 
12 1 2 1.0280000000000875e+00 -1.1767556347214946e+01 1.0000000000000000e+00 1.0098570347967614e+01 8.0139486308366461e+00 9.9703046382714398e+00 
177 1 2 1.0279999999999720e+00 5.7340004131035016e+01 1.0000000000000000e+00 1.1534376886823134e+01 9.7798244611970855e+00 8.3397738944620592e+00 
251 1 2 1.0279999999999812e+00 -3.5437049948909518e+01 1.0000000000000000e+00 1.0687372124971661e+01 8.1718501575966176e+00 7.7541672712574092e+00 
439 1 2 1.0280000000000769e+00 6.6470814267695985e+01 1.0000000000000000e+00 1.0081306647480069e+01 7.9357283521915605e+00 9.6662699674710808e+00 
63 1 2 1.0279999999999374e+00 -4.0340017356104624e+01 1.0000000000000000e+00 1.0518970260824251e+01 7.1061955275973050e+00 9.5032781185432622e+00 
410 1 2 1.0279999999999025e+00 -7.1731639279214363e+01 1.0000000000000000e+00 1.0624348701491474e+01 7.4749956689392896e+00 7.7996580541826770e+00 
426 1 2 1.0280000000000293e+00 4.1861295525925954e+01 1.0000000000000000e+00 1.1490482171785613e+01 9.5974988657953215e+00 8.5797391374439655e+00 
60 1 2 1.0280000000000491e+00 -2.8220701553038477e+01 1.0000000000000000e+00 1.1449193279692043e+01 9.4577773062724493e+00 8.5529723184560780e+00 
407 1 2 1.0280000000000658e+00 -1.7287394969376519e+00 1.0000000000000000e+00 1.0151188059737853e+01 7.8979000320540846e+00 9.4976725641035777e+00 
219 1 2 1.0279999999997327e+00 2.2181331219803376e+01 1.0000000000000000e+00 1.0259711840097864e+01 6.9092282800647338e+00 8.4404828338417328e+00 
406 1 2 1.0280000000000202e+00 9.8446740766946697e+00 1.0000000000000000e+00 1.1078217008893999e+01 8.8777684053713770e+00 8.0599162330779421e+00 
495 1 2 1.0279999999999687e+00 -4.0906174522630067e+01 1.0000000000000000e+00 9.8226728107793839e+00 3.2736111618453432e+00 1.0921078086572692e+01 
370 1 2 1.0279999999999845e+00 9.7494058154811487e+00 1.0000000000000000e+00 8.9272367396533934e+00 1.4001661914639443e-02 1.1955745365578496e+01 
390 1 2 1.0280000000000000e+00 -2.9813850699373042e+01 1.0000000000000000e+00 1.0523056424635655e+01 2.7574160145499635e+00 1.2255574927285519e+01 
221 1 2 1.0279999999999252e+00 -2.8540371182511377e+00 1.0000000000000000e+00 1.0116388613335317e+01 2.1010118645186542e+00 1.0262107331008709e+01 
450 1 2 1.0279999999999772e+00 3.6688298785763567e+00 1.0000000000000000e+00 1.0227484083229548e+01 3.3167885281746132e+00 1.2158651442022256e+01 
341 1 2 1.0280000000000180e+00 -6.8993440312414833e+00 1.0000000000000000e+00 1.2340820824985959e+01 2.1425859893762227e+00 1.2581110440092399e+01 
305 1 2 1.0280000000000367e+00 -9.0542067747167341e+00 1.0000000000000000e+00 1.2357867575556975e+01 2.3817178546370537e+00 1.2855767585442232e+01 
239 1 2 1.0279999999999980e+00 1.7222445510424478e+01 1.0000000000000000e+00 1.0260547108757775e+01 1.0887390148577121e+00 1.0346557870895804e+01 
163 1 2 1.0280000000000207e+00 -7.8710405250631766e+01 1.0000000000000000e+00 1.2462826898810373e+01 2.4278605063866916e+00 1.2882705740393781e+01 
446 1 2 1.0280000000000178e+00 -2.7405012612021892e+01 1.0000000000000000e+00 1.2554163088432455e+01 2.0520771472208748e+00 1.2408668526865339e+01 
275 1 2 1.0280000000000238e+00 -3.1219899297763742e+01 1.0000000000000000e+00 1.2591801112923198e+01 2.1515422270864515e+00 1.2557630916479745e+01 
296 1 2 1.0280000000000078e+00 5.3302947406707858e+01 1.0000000000000000e+00 1.0554435247410598e+01 4.4337757372452774e-01 1.0042159149063309e+01 
470 1 2 1.0280000000000351e+00 -1.8202303508184404e+01 1.0000000000000000e+00 1.2869056593282396e+01 2.6592107469212705e+00 1.2899147874577192e+01 
34 1 2 1.0280000000000113e+00 -8.0436140486617376e+01 1.0000000000000000e+00 1.2934260998919711e+01 2.0184119962171008e+00 1.2213216893034865e+01 
104 1 2 1.0279999999999860e+00 1.3602218250825835e+01 1.0000000000000000e+00 1.2943338497435255e+01 3.0942860849092431e+00 1.3004138477902726e+01 
247 1 2 1.0280000000000640e+00 -2.6582037429486796e+01 1.0000000000000000e+00 1.3218844965156247e+01 2.6375262419595873e+00 1.2636107338844159e+01 
164 1 2 1.0279999999999827e+00 2.0297925076994332e+01 1.0000000000000000e+00 9.4957887517639339e+00 6.5359643242815251e+00 1.1379139921674357e+01 
481 1 2 1.0280000000000051e+00 -5.6071296169977494e+01 1.0000000000000000e+00 9.5267881684490483e+00 6.2098312976847305e+00 1.1366186225964736e+01 
429 1 2 1.0280000000000218e+00 3.0589084599569112e+01 1.0000000000000000e+00 9.5361333134884134e+00 5.9647893813014061e+00 1.1353837186179366e+01 
22 1 2 1.0280000000000371e+00 1.4835009050368168e+01 1.0000000000000000e+00 9.5570351132911551e+00 5.8608748213818220e+00 1.1368119083263165e+01 
88 1 2 1.0279999999999270e+00 -3.1971503186108492e+01 1.0000000000000000e+00 9.6146042963025131e+00 5.3081646407452183e+00 1.1413394990104591e+01 
198 1 2 1.0280000000000449e+00 1.8243313992275638e+01 1.0000000000000000e+00 9.6555958084888402e+00 4.0110805117940993e+00 1.0980705421030159e+01 
463 1 2 1.0279999999999805e+00 -6.6276288518510825e+01 1.0000000000000000e+00 9.7772075450215095e+00 4.4414942170334983e+00 1.1641155639464856e+01 
389 1 2 1.0280000000000260e+00 -4.0403730496317252e+01 1.0000000000000000e+00 9.8240612394801961e+00 4.0040013972138588e+00 1.1675076171000367e+01 
465 1 2 1.0280000000000187e+00 1.9770816105499929e+00 1.0000000000000000e+00 9.8505915786003904e+00 4.0781524906591464e+00 1.1739462748176495e+01 
138 1 2 1.0280000000000140e+00 9.2189261354992240e+01 1.0000000000000000e+00 9.9229154494084675e+00 3.7722622708226496e+00 1.1815905769011856e+01 
243 1 2 1.0280000000000220e+00 -2.6943760191825923e+01 1.0000000000000000e+00 9.9669809091287753e+00 3.7689134040042567e+00 1.1891750844010797e+01 
278 1 2 1.0280000000000682e+00 -2.7095142463823684e+01 1.0000000000000000e+00 1.0762451263821367e+01 3.5388906833743614e+00 1.0441091796381539e+01 
420 1 2 1.0279999999999616e+00 5.7562185135064343e+00 1.0000000000000000e+00 1.2159714056676721e+01 3.7890030428155641e+00 1.3142084919376547e+01 
168 1 2 1.0279999999999663e+00 7.9193595041623754e-01 1.0000000000000000e+00 1.2400719676910413e+01 4.0283543377612911e+00 1.3079787343054933e+01 
100 1 2 1.0280000000004617e+00 -1.7119790336097985e+01 1.0000000000000000e+00 1.3122798209550002e+01 6.2004780859430619e+00 1.2560537145300991e+01 
191 1 2 1.0279999999999205e+00 -4.2207717812230128e-01 1.0000000000000000e+00 1.3098877751873042e+01 5.4707880798123734e+00 1.2578432972801853e+01 
301 1 2 1.0279999999999434e+00 -1.7810973114467089e+01 1.0000000000000000e+00 1.3069919755643795e+01 4.1303931286318614e+00 1.2864012641346818e+01 
293 1 2 1.0279999999999250e+00 -5.2724192687218945e+01 1.0000000000000000e+00 1.3093985220580095e+01 4.9601720281933712e+00 1.2669210172293409e+01 
85 1 2 1.0280000000000349e+00 4.2057271637680188e+01 1.0000000000000000e+00 9.3862272423320796e+00 7.1376226844631407e+00 1.1415311786072117e+01 
92 1 2 1.0280000000000478e+00 5.4462669937800030e+01 1.0000000000000000e+00 9.3933609362396542e+00 7.3871644454580183e+00 1.1501009820557620e+01 
250 1 2 1.0280000000000049e+00 3.9603733121694148e+01 1.0000000000000000e+00 9.2313630851079722e+00 7.8636084145281533e+00 1.1544174691993691e+01 
357 1 2 1.0279999999997249e+00 7.7336376062045872e+01 1.0000000000000000e+00 9.1991270406211196e+00 8.2262875402956794e+00 1.1802503815763082e+01 
49 1 2 1.0279999999999698e+00 3.0445379219786297e+01 1.0000000000000000e+00 8.4724989854571895e+00 9.5658819760486509e+00 1.2879284849982204e+01 
189 1 2 1.0280000000001599e+00 -5.0772092775834547e+00 1.0000000000000000e+00 8.8200372731401178e+00 9.1617046588311482e+00 1.2170890044410543e+01 
17 1 2 1.0280000000001546e+00 -7.9346801357646854e+01 1.0000000000000000e+00 8.7244202730012894e+00 9.3342554121111583e+00 1.2315136907976701e+01 
279 1 2 1.0279999999998286e+00 2.4316698644117380e+01 1.0000000000000000e+00 9.4187565258919044e+00 8.3553685096111021e+00 1.1175321155175393e+01 
408 1 2 1.0280000000001619e+00 -4.2056254657847859e+01 1.0000000000000000e+00 9.0008596688214251e+00 9.2971312622875146e+00 1.2057936600207897e+01 
473 1 2 1.0280000000000598e+00 -1.0713588216568247e+01 1.0000000000000000e+00 8.8732409119950724e+00 9.5413639160215329e+00 1.2234935864418379e+01 
53 1 2 1.0279999999997154e+00 -6.9104463475542502e+01 1.0000000000000000e+00 1.2985078107612077e+01 6.8403793335142318e+00 1.2435253203229115e+01 
308 1 2 1.0279999999998994e+00 -7.3427860405937500e+00 1.0000000000000000e+00 1.3260739611524384e+01 6.9915680974337615e+00 1.3193888844730019e+01 
388 1 2 1.0280000000000200e+00 6.5052700349544352e+01 1.0000000000000000e+00 7.9764451179382263e+00 9.4627457826435890e+00 1.6622461302543751e+01 
228 1 2 1.0280000000000318e+00 2.7048786628148598e+01 1.0000000000000000e+00 7.9954994269273207e+00 9.5772023730941367e+00 1.6463767439819993e+01 
394 1 2 1.0279999999999798e+00 -3.0976610374630489e+01 1.0000000000000000e+00 8.1378245722783014e+00 9.8507687417034155e+00 1.6004074146303367e+01 
365 1 2 1.0279999999999749e+00 2.7020660110976930e+01 1.0000000000000000e+00 8.0457109405111353e+00 9.7892814783046767e+00 1.6221011716103185e+01 
458 1 2 1.0279999999999152e+00 -8.8082577202024517e+00 1.0000000000000000e+00 1.2319756667327326e+01 9.6504220875360840e+00 1.3867112296054099e+01 
468 1 2 1.0280000000001366e+00 -2.2657585927073406e+01 1.0000000000000000e+00 1.2421370158607298e+01 8.2229941445930379e+00 1.3679430900331120e+01 
462 1 2 1.0280000000000797e+00 -2.5978099077791143e+01 1.0000000000000000e+00 1.2598829701894779e+01 7.4735981525226283e+00 1.4599528765851142e+01 
304 1 2 1.0279999999999003e+00 3.8512713967013298e+01 1.0000000000000000e+00 1.2282727679590176e+01 9.7736468197630160e+00 1.3866508887404443e+01 
96 1 2 1.0279999999999765e+00 1.5363506025337159e+02 1.0000000000000000e+00 1.2702468874038336e+01 7.3248456370062627e+00 1.3967645654114282e+01 
333 1 2 1.0280000000000331e+00 2.4992256438344281e+01 1.0000000000000000e+00 1.2697939582875714e+01 7.3975001516658976e+00 1.5796400544027600e+01 
26 1 2 1.0280000000000491e+00 2.1915732467050901e+00 1.0000000000000000e+00 1.2711888159068993e+01 7.3944123100640722e+00 1.5623273337622491e+01 
431 1 2 1.0280000000000622e+00 5.2997508972937226e+01 1.0000000000000000e+00 1.2712236368497678e+01 7.4019227302828838e+00 1.5978253141002602e+01 
72 1 2 1.0280000000000871e+00 -2.3040845381225900e+01 1.0000000000000000e+00 1.2736115443186634e+01 7.4273403909164930e+00 1.6362127921697265e+01 
31 1 2 1.0280000000000662e+00 -5.8631425146912861e+01 1.0000000000000000e+00 1.2773811935182611e+01 7.3827777767960923e+00 1.5192956523644604e+01 
327 1 2 1.0280000000000904e+00 2.4966896607771805e+00 1.0000000000000000e+00 1.2874121223865789e+01 7.4269892495186083e+00 1.5463728480336053e+01 
339 1 2 1.0280000000000131e+00 -4.5725045143755764e+01 1.0000000000000000e+00 9.3144223324787347e+00 7.7299274549031658e+00 1.9365053507270609e+01 
294 1 2 1.0280000000000118e+00 2.6532431703364301e+00 1.0000000000000000e+00 9.2797020571835684e+00 7.7501415680968355e+00 1.9374518051049208e+01 
261 1 2 1.0279999999999816e+00 4.1593869409230393e+01 1.0000000000000000e+00 8.5712851727552550e+00 8.4273680950846757e+00 1.8328754651829907e+01 
319 1 2 1.0279999999999978e+00 9.2972660474368155e+01 1.0000000000000000e+00 8.4269674344721732e+00 8.6045118458457424e+00 1.7893032951511497e+01 
21 1 2 1.0280000000000014e+00 1.4494251604980629e+01 1.0000000000000000e+00 8.0880187140831552e+00 8.9108707166978665e+00 1.7795055480087814e+01 
396 1 2 1.0280000000000098e+00 1.1630622550461742e+02 1.0000000000000000e+00 7.9942701752113354e+00 9.2002699344066290e+00 1.7012382095018417e+01 
255 1 2 1.0280000000000098e+00 4.1353935410102665e+01 1.0000000000000000e+00 7.9721609870714838e+00 9.1668302887666453e+00 1.7163624435905842e+01 
347 1 2 1.0280000000000107e+00 -2.7024629242856523e+01 1.0000000000000000e+00 7.9727375684706496e+00 9.2238430380198491e+00 1.7018641669165149e+01 
502 1 2 1.0280000000000171e+00 5.1546928728254340e+00 1.0000000000000000e+00 7.9779181304011049e+00 9.2560278401695104e+00 1.6937620188553289e+01 
111 1 2 1.0280000000000256e+00 3.4634851827449474e+01 1.0000000000000000e+00 7.9729671859132125e+00 9.2568854653778629e+00 1.6948554141343362e+01 
71 1 2 1.0279999999999696e+00 3.2142291750179552e+01 1.0000000000000000e+00 9.5820063225601064e+00 7.4237497609763965e+00 1.9656400200123727e+01 
192 1 2 1.0279999999999634e+00 2.1125086125433352e+01 1.0000000000000000e+00 9.6762084937100692e+00 7.3047715101990223e+00 1.9763601064197260e+01 
269 1 2 1.0279999999999687e+00 9.3624166548072878e+01 1.0000000000000000e+00 9.7134047456480825e+00 7.1959765330496044e+00 1.9917505960247077e+01 
84 1 2 1.0279999999999625e+00 -1.5007653622968348e+01 1.0000000000000000e+00 9.7302698566469079e+00 7.2152126330631550e+00 1.9861126725184977e+01 
457 1 2 1.0279999999999694e+00 -7.3310951230213428e+00 1.0000000000000000e+00 9.8262695052490336e+00 7.1128086524948602e+00 1.9931348475215934e+01 
46 1 2 1.0279999999998031e+00 -1.7177166803416426e+01 1.0000000000000000e+00 1.3214553260850050e+01 8.4630744473387978e+00 1.9815760417127290e+01 
211 1 2 1.0279999999999976e+00 8.9223189289595567e+01 1.0000000000000000e+00 1.3027321244423035e+01 8.4542327673269071e+00 1.7254794932433626e+01 
297 1 2 1.0279999999999667e+00 8.9389427116921336e+00 1.0000000000000000e+00 1.2675620435117759e+01 7.4467143306991499e+00 1.7639607852829670e+01 
173 1 2 1.0280000000002809e+00 1.1858271632219941e+01 1.0000000000000000e+00 1.0843134691228796e+01 8.2648824354109198e+00 1.8882608795562717e+01 
108 1 2 1.0280000000001044e+00 2.5108923401836037e+01 1.0000000000000000e+00 1.0840517236529053e+01 8.7115446414409785e+00 1.9183628818151835e+01 
395 1 2 1.0279999999999723e+00 -3.9096029101657550e+01 1.0000000000000000e+00 1.2624340703226832e+01 7.4517417554207954e+00 1.7461547905427658e+01 
386 1 2 1.0279999999999558e+00 -2.6211330598898535e+01 1.0000000000000000e+00 1.2654372094056431e+01 7.4576014485698359e+00 1.6920928537827621e+01 
14 1 2 1.0279999999999681e+00 -6.2672013508013036e-01 1.0000000000000000e+00 1.2552274113326870e+01 7.2768824005606794e+00 1.8280934878389683e+01 
220 1 2 1.0279999999999665e+00 3.1160681041204050e+01 1.0000000000000000e+00 1.2620892919018434e+01 7.3194980416287274e+00 1.8205392594272475e+01 
328 1 2 1.0279999999999698e+00 1.5883894263741999e+01 1.0000000000000000e+00 1.2722408520659162e+01 7.4711547138292991e+00 1.6965552859420733e+01 
133 1 2 1.0279999999999829e+00 -8.7284976344762057e+00 1.0000000000000000e+00 1.2639605191329025e+01 7.4526173758978107e+00 1.6829864620280823e+01 
55 1 2 1.0280000000000016e+00 2.8962012062593175e+01 1.0000000000000000e+00 9.9800434735733425e+00 1.3296561061883205e+01 5.8085393995170098e-01 
6 1 2 1.0279999999999989e+00 -4.8919489843647614e+00 1.0000000000000000e+00 9.1425872187476678e+00 1.1118106269590415e+01 4.1830131730640770e-02 
448 1 2 1.0280000000000002e+00 -9.4337900599646414e+00 1.0000000000000000e+00 9.1872571641623342e+00 1.1008741587323833e+01 1.1809754829921533e-01 
378 1 2 1.0279999999999951e+00 7.5457054238301055e+01 1.0000000000000000e+00 9.2762303791700234e+00 1.0736199691424531e+01 2.7231386430073184e-01 
326 1 2 1.0280000000000002e+00 -1.8928330872926772e+01 1.0000000000000000e+00 9.2826559410513489e+00 1.0724328107032632e+01 2.8229815586035184e-01 
13 1 2 1.0280000000000009e+00 -2.9981666590343067e+01 1.0000000000000000e+00 9.3812297445960429e+00 1.0274309730210353e+01 5.1143184475496140e-01 
181 1 2 1.0279999999999982e+00 -3.4864801445095608e+01 1.0000000000000000e+00 9.1185671383922351e+00 1.1100083237478136e+01 1.0861557941932810e-02 
375 1 2 1.0280000000000051e+00 -1.2898804360719399e+01 1.0000000000000000e+00 1.0335871589650187e+01 1.3011869267350139e+01 1.1510442856444654e+00 
193 1 2 1.0280000000000129e+00 3.3261486188783024e+01 1.0000000000000000e+00 1.0680158875090493e+01 1.2476847880307769e+01 1.6506253187821498e+00 
170 1 2 1.0280000000000180e+00 3.1554493182905986e+01 1.0000000000000000e+00 1.0963710460550757e+01 1.1456180038727899e+01 1.9838971689052622e+00 
273 1 2 1.0280000000000360e+00 -1.6588267459960342e+01 1.0000000000000000e+00 1.1137139037303895e+01 1.1227421687613651e+01 2.1268812905151404e+00 
86 1 2 1.0280000000000145e+00 8.5701998798281949e+01 1.0000000000000000e+00 1.1322033570613895e+01 1.1630511879514321e+01 2.2056083086713500e+00 
140 1 2 1.0280000000000120e+00 4.4563355486474492e+01 1.0000000000000000e+00 1.1576904991309066e+01 1.1300403953988010e+01 2.3623361608984204e+00 
480 1 2 1.0279999999999825e+00 -5.7541514628647903e+01 1.0000000000000000e+00 1.2549241154278988e+01 1.1962096198717942e+01 2.2695785240522004e+00 
93 1 2 1.0280000000000002e+00 3.6504543187441856e+00 1.0000000000000000e+00 1.2078577946113437e+01 1.0384706395349236e+01 3.6065321408898804e-01 
54 1 2 1.0280000000000384e+00 4.9471435811526611e+01 1.0000000000000000e+00 1.3109082140125958e+01 1.0478470291002012e+01 2.6308568377271286e+00 
244 1 2 1.0280000000000320e+00 1.0125410015571886e+02 1.0000000000000000e+00 1.3330785547118577e+01 1.1878781509759015e+01 7.6573756557632544e-01 
27 1 2 1.0279999999999798e+00 -6.5807201916953346e+00 1.0000000000000000e+00 1.2982800746186106e+01 1.2067948178221386e+01 1.8907289724231477e+00 
206 1 2 1.0279999999999800e+00 2.5156801508197503e+01 1.0000000000000000e+00 1.2980890066034540e+01 1.2077079452585787e+01 1.8926696517628263e+00 
179 1 2 1.0279999999999969e+00 -4.8216328516076942e+01 1.0000000000000000e+00 1.0113933796755770e+01 1.4468336364641520e+01 2.5994173621930894e-01 
416 1 2 1.0280000000000025e+00 1.2879506528105054e+02 1.0000000000000000e+00 1.1249554399004774e+01 1.4385558035625968e+01 1.5464173858683847e+00 
102 1 2 1.0280000000000040e+00 3.3728764940371605e+01 1.0000000000000000e+00 1.1629972073239287e+01 1.5236044990628104e+01 7.4891423524879996e-01 