LAMMPS data file via write_data, version 30 Jul 2016, timestep = 50400000

180 atoms
2 atom types

0.0000000000000000e+00 2.0000000000000000e+01 xlo xhi
0.0000000000000000e+00 2.0000000000000000e+01 ylo yhi
0.0000000000000000e+00 2.0000000000000000e+01 zlo zhi

Masses

1 3.896
2 4.31

Atoms # meso-molecular

13 1 2 1.4507103231053642e-01 1.2160083416756387e+02 1.0000000000000000e+00 4.0944282366663680e+00 7.9077664758887138e+00 1.6583147378355273e-01 
8 1 2 4.3521309693160926e-01 -2.5464962391450103e+04 1.0000000000000000e+00 5.2913625059934235e+00 6.1471418947164471e+00 5.1070813472487124e+00 
15 1 2 4.3521309693160926e-01 -2.3135653327904438e+04 1.0000000000000000e+00 5.2913625059934235e+00 6.1471418947164471e+00 5.1070813472487124e+00 
14 1 2 4.3521309693160926e-01 -2.3340664678612200e+04 1.0000000000000000e+00 5.2913625059934235e+00 6.1471418947164471e+00 5.1070813472487124e+00 
45 1 2 7.2535516155268209e-01 -3.3852896979273901e+04 1.0000000000000000e+00 6.4701011406770013e+00 5.0041586022919331e+00 9.9767529386308933e+00 
9 1 2 7.2535516155268209e-01 -2.8567162729831380e+04 1.0000000000000000e+00 6.4701011406770013e+00 5.0041586022919331e+00 9.9767529386308933e+00 
10 1 2 7.2535516155268209e-01 -3.0270078902844365e+04 1.0000000000000000e+00 6.4701011406770013e+00 5.0041586022919331e+00 9.9767529386308933e+00 
52 1 2 7.2535516155268209e-01 -3.2121763025899825e+04 1.0000000000000000e+00 6.4701011406770013e+00 5.0041586022919331e+00 9.9767529386308933e+00 
46 1 2 7.2535516155268209e-01 -3.4697546941934765e+04 1.0000000000000000e+00 6.4701011406770013e+00 5.0041586022919331e+00 9.9767529386308933e+00 
17 1 2 5.8028412924214567e-01 -2.7820101721689156e+04 1.0000000000000000e+00 5.3530640767857607e+00 6.1000414878949689e+00 1.5423510108389555e+01 
12 1 2 5.8028412924214567e-01 -3.0681654289863163e+04 1.0000000000000000e+00 5.3530640767857607e+00 6.1000414878949689e+00 1.5423510108389555e+01 
18 1 2 5.8028412924214567e-01 -2.5669567850353782e+04 1.0000000000000000e+00 5.3530640767857607e+00 6.1000414878949689e+00 1.5423510108389555e+01 
11 1 2 5.8028412924214567e-01 -2.2843477202549308e+04 1.0000000000000000e+00 5.3530640767857607e+00 6.1000414878949689e+00 1.5423510108389555e+01 
33 1 2 5.8028412924214567e-01 -2.8842866214975933e+04 1.0000000000000000e+00 5.0920929717211809e+00 1.8864945777254942e+01 5.3937870499109648e+00 
3 1 2 5.8028412924214567e-01 -2.8217210612998741e+04 1.0000000000000000e+00 5.0920929717211809e+00 1.8864945777254942e+01 5.3937870499109648e+00 
2 1 2 5.8028412924214567e-01 -2.8214493929712255e+04 1.0000000000000000e+00 5.0920929717211809e+00 1.8864945777254942e+01 5.3937870499109648e+00 
32 1 2 5.8028412924214567e-01 -2.6536469571558900e+04 1.0000000000000000e+00 5.0920929717211809e+00 1.8864945777254942e+01 5.3937870499109648e+00 
109 1 2 9.1773589902568862e+00 -2.8517207616528405e+04 1.0000000000000000e+00 6.2309237969583293e+00 1.1266889924412146e+01 8.6270357551227903e+00 
121 1 2 9.2796150268846027e+00 -4.0721918079673400e+04 1.0000000000000000e+00 6.2062316355374803e+00 1.1308848873716210e+01 8.8343607037534699e+00 
81 1 2 9.2798411818798900e+00 -2.8838475275482335e+04 1.0000000000000000e+00 6.2116158904152412e+00 1.1299244996104125e+01 8.8350771896735516e+00 
62 1 2 9.2692808125532480e+00 -3.7851329062079167e+04 1.0000000000000000e+00 6.2398511123185072e+00 1.1242094655110590e+01 8.8150741463699180e+00 
54 1 2 9.2735381272884609e+00 -4.2313704579364072e+04 1.0000000000000000e+00 6.2382567649495790e+00 1.1262033665249971e+01 8.8107637280913842e+00 
118 1 2 9.2798153351507651e+00 -4.1659286756976566e+04 1.0000000000000000e+00 6.2120772063164535e+00 1.1297199031862650e+01 8.8320955356572313e+00 
85 1 2 9.2795505079020160e+00 -4.5925558013492970e+04 1.0000000000000000e+00 6.2087550447388145e+00 1.1300819715867018e+01 8.8448719378132115e+00 
120 1 2 9.2798408805159802e+00 -4.5336053717518444e+04 1.0000000000000000e+00 6.2101232464557290e+00 1.1300455654960921e+01 8.8347587861080630e+00 
79 1 2 9.2780453756685084e+00 -4.5853878604646576e+04 1.0000000000000000e+00 6.2195256866452366e+00 1.1287315501253168e+01 8.8573067946787116e+00 
105 1 2 9.2796934923288887e+00 -3.3211004411924521e+04 1.0000000000000000e+00 6.2159703337999304e+00 1.1306916395132008e+01 8.8360202766042271e+00 
76 1 2 9.2795981524925395e+00 -2.5727813151226786e+04 1.0000000000000000e+00 6.2137928989916151e+00 1.1309973132609107e+01 8.8371567079919728e+00 
39 1 2 9.2797850513350735e+00 -3.0024121382792258e+04 1.0000000000000000e+00 6.2098522386110409e+00 1.1305037337406862e+01 8.8354090752851917e+00 
150 1 2 9.2795831958845003e+00 -4.2149785963985552e+04 1.0000000000000000e+00 6.2077308159713525e+00 1.1305476196577155e+01 8.8424891628141236e+00 
70 1 2 9.2796244981144920e+00 -3.3980455113457094e+04 1.0000000000000000e+00 6.2146233104164397e+00 1.1296096645295815e+01 8.8256513488431469e+00 
40 1 2 9.2796244981176308e+00 -3.7579443691118329e+04 1.0000000000000000e+00 6.2146233107537014e+00 1.1296096645560738e+01 8.8256513489120412e+00 
4 1 2 9.2796244981176308e+00 -3.4095121010291019e+04 1.0000000000000000e+00 6.2146233107537014e+00 1.1296096645560738e+01 8.8256513489120412e+00 
136 1 2 9.2798206016950147e+00 -3.7874343331023003e+04 1.0000000000000000e+00 6.2101377615978812e+00 1.1298610048627220e+01 8.8364271637030836e+00 
100 1 2 9.2798206016947766e+00 -2.7257052838213607e+04 1.0000000000000000e+00 6.2101377616000031e+00 1.1298610048618473e+01 8.8364271637184864e+00 
99 1 2 9.2798206016948939e+00 -3.4998621028479640e+04 1.0000000000000000e+00 6.2101377616008397e+00 1.1298610048622431e+01 8.8364271637112370e+00 
135 1 2 9.2798206016951799e+00 -3.7030589478982962e+04 1.0000000000000000e+00 6.2101377615868980e+00 1.1298610048638173e+01 8.8364271636905691e+00 
106 1 2 9.2798206016948104e+00 -3.2539139878125952e+04 1.0000000000000000e+00 6.2101377616034608e+00 1.1298610048617645e+01 8.8364271637170102e+00 
64 1 2 9.2798206016948157e+00 -2.7469151092639800e+04 1.0000000000000000e+00 6.2101377615995261e+00 1.1298610048620370e+01 8.8364271637157668e+00 
142 1 2 9.2798206016950679e+00 -3.5148114893665363e+04 1.0000000000000000e+00 6.2101377615952353e+00 1.1298610048630861e+01 8.8364271636995628e+00 
115 1 2 9.2798334113309764e+00 -3.4451336704684021e+04 1.0000000000000000e+00 6.2125869132704921e+00 1.1300873570454009e+01 8.8360785045996142e+00 
108 1 2 9.2798301699903956e+00 -3.5508035768902279e+04 1.0000000000000000e+00 6.2099192092649584e+00 1.1299716664605315e+01 8.8359740241743943e+00 
137 1 2 9.2798301699903512e+00 -3.8503294712467199e+04 1.0000000000000000e+00 6.2099192092666931e+00 1.1299716664612133e+01 8.8359740241831179e+00 
138 1 2 9.2798301699903565e+00 -4.0710165497802715e+04 1.0000000000000000e+00 6.2099192092690174e+00 1.1299716664610743e+01 8.8359740241842761e+00 
144 1 2 9.2798301699903529e+00 -3.6170764242648409e+04 1.0000000000000000e+00 6.2099192092620248e+00 1.1299716664601331e+01 8.8359740241755738e+00 
102 1 2 9.2798301699903689e+00 -2.8058001826362884e+04 1.0000000000000000e+00 6.2099192092645055e+00 1.1299716664604759e+01 8.8359740241768829e+00 
107 1 2 9.2798301699903742e+00 -3.2003293027232994e+04 1.0000000000000000e+00 6.2099192092635986e+00 1.1299716664605194e+01 8.8359740241753553e+00 
143 1 2 9.2798301699904133e+00 -3.6118876347859106e+04 1.0000000000000000e+00 6.2099192092690760e+00 1.1299716664612950e+01 8.8359740241781939e+00 
47 1 2 9.2798320375317722e+00 -4.0721334424240718e+04 1.0000000000000000e+00 6.2099807357570445e+00 1.1299857514692063e+01 8.8358648720181101e+00 
114 1 2 9.2798314314966603e+00 -4.0064740530675670e+04 1.0000000000000000e+00 6.2099192247322534e+00 1.1300001641465322e+01 8.8359146913197009e+00 
41 1 2 9.2798320375317473e+00 -3.6827659228385834e+04 1.0000000000000000e+00 6.2099807357614143e+00 1.1299857514688835e+01 8.8358648720235227e+00 
42 1 2 9.2798320375317793e+00 -4.1339327387454905e+04 1.0000000000000000e+00 6.2099807357633345e+00 1.1299857514696175e+01 8.8358648720231514e+00 
6 1 2 9.2798320375317740e+00 -4.1567938671999545e+04 1.0000000000000000e+00 6.2099807357677861e+00 1.1299857514693882e+01 8.8358648720263950e+00 
83 1 2 9.2798320375318699e+00 -3.7090753385239113e+04 1.0000000000000000e+00 6.2099807357677070e+00 1.1299857514697617e+01 8.8358648720174653e+00 
5 1 2 9.2798320375317864e+00 -3.8516738152711187e+04 1.0000000000000000e+00 6.2099807357629908e+00 1.1299857514690897e+01 8.8358648720203803e+00 
82 1 2 9.2798320375318344e+00 -3.8495276930598506e+04 1.0000000000000000e+00 6.2099807357702579e+00 1.1299857514702175e+01 8.8358648720240822e+00 
77 1 2 9.2798320375317971e+00 -4.1599090411526107e+04 1.0000000000000000e+00 6.2099807357648276e+00 1.1299857514691560e+01 8.8358648720211317e+00 
145 1 2 9.2798341403808937e+00 -4.0894872027566737e+04 1.0000000000000000e+00 6.2099811177324131e+00 1.1300246951205473e+01 8.8356935345492982e+00 
48 1 2 9.2798213646055636e+00 -4.4096268277997049e+04 1.0000000000000000e+00 6.2106048189825547e+00 1.1298696937109087e+01 8.8366334433150815e+00 
151 1 2 9.2798362321159367e+00 -4.2313654064296745e+04 1.0000000000000000e+00 6.2099421640523325e+00 1.1300376282508225e+01 8.8353851630918516e+00 
69 1 2 9.2797524953825388e+00 -3.3773656529044063e+04 1.0000000000000000e+00 6.2068163319714316e+00 1.1298987464439888e+01 8.8379689156295793e+00 
113 1 2 9.2796868015940248e+00 -4.2358595801361931e+04 1.0000000000000000e+00 6.2100315750432591e+00 1.1302259618194046e+01 8.8418854137881908e+00 
119 1 2 9.2796873055742282e+00 -3.0563035310392821e+04 1.0000000000000000e+00 6.2100351913657299e+00 1.1302253275674781e+01 8.8418739340885857e+00 
147 1 2 9.2798357428215734e+00 -3.6214156548171763e+04 1.0000000000000000e+00 6.2116153857480070e+00 1.1298906850877353e+01 8.8355829439694027e+00 
148 1 2 9.2798357321208798e+00 -4.4345790994383729e+04 1.0000000000000000e+00 6.2116149156339500e+00 1.1298908159993765e+01 8.8355855177281573e+00 
117 1 2 9.2796871662748721e+00 -3.3051104863815010e+04 1.0000000000000000e+00 6.2100341915244170e+00 1.1302255029759303e+01 8.8418771090947654e+00 
154 1 2 9.2796874475861415e+00 -4.5066487798592490e+04 1.0000000000000000e+00 6.2100362109365657e+00 1.1302251486632644e+01 8.8418706956571391e+00 
112 1 2 9.2797487005650865e+00 -4.1252736934571920e+04 1.0000000000000000e+00 6.2105097145375545e+00 1.1301382095701703e+01 8.8402821908648743e+00 
111 1 2 9.2798153267467605e+00 -3.6623555417649055e+04 1.0000000000000000e+00 6.2120772417627004e+00 1.1297198780120993e+01 8.8320949904388346e+00 
156 1 2 9.2795897364300899e+00 -3.8377149038325530e+04 1.0000000000000000e+00 6.2111639254504540e+00 1.1300886916280888e+01 8.8444370905967951e+00 
75 1 2 9.2793603025334654e+00 -2.4804484577299707e+04 1.0000000000000000e+00 6.2123252186179032e+00 1.1293067681354781e+01 8.8463893737372228e+00 
73 1 2 9.2797280982253749e+00 -4.1730614110094488e+04 1.0000000000000000e+00 6.2086803592586737e+00 1.1294432542788730e+01 8.8311462731806678e+00 
63 1 2 9.2794396464683810e+00 -3.5914595142458413e+04 1.0000000000000000e+00 6.2106287446208777e+00 1.1289185777104485e+01 8.8268208951045324e+00 
21 1 2 9.2731300715907476e+00 -3.1975244910873127e+04 1.0000000000000000e+00 6.2247460173352565e+00 1.1250123092673286e+01 8.8478087480999257e+00 
162 1 2 9.2787591863189771e+00 -3.3110676572072509e+04 1.0000000000000000e+00 6.1908478697129494e+00 1.1299893344389497e+01 8.8403374627355724e+00 
84 1 2 9.2747601366661279e+00 -4.6221034313395561e+04 1.0000000000000000e+00 6.1872362257382783e+00 1.1337351254848222e+01 8.8183279734242994e+00 
78 1 2 9.1581662200670397e+00 -4.2678732619909126e+04 1.0000000000000000e+00 6.1632151153747525e+00 1.1461686631940006e+01 8.6776473246511774e+00 
29 1 2 9.2698242060356524e+00 -2.8719932121362279e+04 1.0000000000000000e+00 6.2239313352143588e+00 1.1306952312934184e+01 8.8982292850262219e+00 
28 1 2 9.2698242060356524e+00 -4.3192263160366783e+04 1.0000000000000000e+00 6.2239313352143588e+00 1.1306952312934184e+01 8.8982292850262219e+00 
34 1 2 9.2698242060356524e+00 -4.4318498865692345e+04 1.0000000000000000e+00 6.2239313352143588e+00 1.1306952312934184e+01 8.8982292850262219e+00 
27 1 2 9.2698242060356524e+00 -3.6237328286634838e+04 1.0000000000000000e+00 6.2239313352143588e+00 1.1306952312934184e+01 8.8982292850262219e+00 
98 1 2 4.0619889046950171e+00 -4.2743659252956815e+04 1.0000000000000000e+00 2.5711201099113530e+00 1.1577519277515840e+01 1.5589309852343726e+01 
128 1 2 4.0619889046950171e+00 -4.2959546407553986e+04 1.0000000000000000e+00 2.5711201099113530e+00 1.1577519277515840e+01 1.5589309852343726e+01 
91 1 2 4.0619889046950171e+00 -3.4232369939272874e+04 1.0000000000000000e+00 2.5711201099113530e+00 1.1577519277515840e+01 1.5589309852343726e+01 
92 1 2 4.0619889046950171e+00 -3.7822197165917794e+04 1.0000000000000000e+00 2.5711201099114693e+00 1.1577519277517430e+01 1.5589309852343487e+01 
157 1 2 4.0619889046950171e+00 -2.0461154692420307e+04 1.0000000000000000e+00 2.5711201099119836e+00 1.1577519277516044e+01 1.5589309852343607e+01 
163 1 2 4.0619889046950171e+00 -2.2221979452321480e+04 1.0000000000000000e+00 2.5711201099115177e+00 1.1577519277516606e+01 1.5589309852345272e+01 
133 1 2 4.0619889046950171e+00 -3.0200394563211699e+04 1.0000000000000000e+00 2.5711201099120204e+00 1.1577519277517510e+01 1.5589309852343757e+01 
176 1 2 4.0619889046950171e+00 -4.6362680638383594e+04 1.0000000000000000e+00 2.5711201099112104e+00 1.1577519277516410e+01 1.5589309852344627e+01 
175 1 2 4.0619889046950171e+00 -3.8394803906800335e+04 1.0000000000000000e+00 2.5711201099114933e+00 1.1577519277515680e+01 1.5589309852343780e+01 
170 1 2 4.0619889046950171e+00 -2.9128667011501071e+04 1.0000000000000000e+00 2.5711201099118925e+00 1.1577519277517260e+01 1.5589309852344403e+01 
164 1 2 4.0619889046950171e+00 -3.0928647282324247e+04 1.0000000000000000e+00 2.5711201099112104e+00 1.1577519277516410e+01 1.5589309852344627e+01 
140 1 2 4.0619889046950171e+00 -4.3779091285778668e+04 1.0000000000000000e+00 2.5711201099116092e+00 1.1577519277516846e+01 1.5589309852343064e+01 
139 1 2 4.0619889046950171e+00 -4.3608053057219411e+04 1.0000000000000000e+00 2.5711201099114933e+00 1.1577519277515680e+01 1.5589309852343780e+01 
169 1 2 4.0619889046950171e+00 -4.0283749587848768e+04 1.0000000000000000e+00 2.5711201099117065e+00 1.1577519277515790e+01 1.5589309852345359e+01 
61 1 2 4.0619889046950171e+00 -3.9814575256113312e+04 1.0000000000000000e+00 2.5711201099115906e+00 1.1577519277515927e+01 1.5589309852343495e+01 
25 1 2 4.0619889046950171e+00 -3.7586750159775984e+04 1.0000000000000000e+00 2.5711201099117584e+00 1.1577519277516142e+01 1.5589309852344396e+01 
26 1 2 4.0619889046950171e+00 -3.9241973556343568e+04 1.0000000000000000e+00 2.5711201099117584e+00 1.1577519277516142e+01 1.5589309852344396e+01 
19 1 2 4.0619889046950171e+00 -4.7920892377443568e+04 1.0000000000000000e+00 2.5711201099117584e+00 1.1577519277516142e+01 1.5589309852344396e+01 
55 1 2 4.0619889046950171e+00 -4.6831183369436578e+04 1.0000000000000000e+00 2.5711201099115861e+00 1.1577519277515906e+01 1.5589309852344361e+01 
56 1 2 4.0619889046950171e+00 -3.1963515000271393e+04 1.0000000000000000e+00 2.5711201099115906e+00 1.1577519277515927e+01 1.5589309852343495e+01 
20 1 2 4.0619889046950171e+00 -3.0620058565781270e+04 1.0000000000000000e+00 2.5711201099115906e+00 1.1577519277515927e+01 1.5589309852343495e+01 
58 1 2 4.0619889046950171e+00 -3.0300291498977298e+04 1.0000000000000000e+00 2.5711201099114587e+00 1.1577519277516297e+01 1.5589309852345355e+01 
22 1 2 4.0619889046950171e+00 -3.2210043645734437e+04 1.0000000000000000e+00 2.5711201099114587e+00 1.1577519277516297e+01 1.5589309852345355e+01 
16 1 2 4.0619889046950171e+00 -3.2855408929981990e+04 1.0000000000000000e+00 2.5711201099114587e+00 1.1577519277516297e+01 1.5589309852345355e+01 
23 1 2 4.0619889046950171e+00 -3.1085729332608171e+04 1.0000000000000000e+00 2.5711201099114587e+00 1.1577519277516297e+01 1.5589309852345355e+01 
134 1 2 4.0619889046950171e+00 -3.9378124468603164e+04 1.0000000000000000e+00 2.5711201099117291e+00 1.1577519277515698e+01 1.5589309852344352e+01 
97 1 2 4.0619889046950171e+00 -3.1515389626082942e+04 1.0000000000000000e+00 2.5711201099118264e+00 1.1577519277517327e+01 1.5589309852344762e+01 
127 1 2 4.0619889046950171e+00 -3.2886335010223804e+04 1.0000000000000000e+00 2.5711201099117025e+00 1.1577519277516839e+01 1.5589309852343296e+01 
36 1 2 8.7042619386321851e-01 -4.1015697578576721e+04 1.0000000000000000e+00 6.4046509205815116e+00 1.5655168986483694e+01 1.6323176503283904e+01 
24 1 2 8.7042619386321851e-01 -2.9457211657679982e+04 1.0000000000000000e+00 6.4046509205815116e+00 1.5655168986483694e+01 1.6323176503283904e+01 
30 1 2 8.7042619386321851e-01 -3.8869762830050866e+04 1.0000000000000000e+00 6.4046509205815116e+00 1.5655168986483694e+01 1.6323176503283904e+01 
35 1 2 8.7042619386321851e-01 -3.8851053138410563e+04 1.0000000000000000e+00 6.4046509205815116e+00 1.5655168986483694e+01 1.6323176503283904e+01 
71 1 2 8.7042619386321851e-01 -3.2634234498406291e+04 1.0000000000000000e+00 6.4046509205815116e+00 1.5655168986483694e+01 1.6323176503283904e+01 
72 1 2 8.7042619386321851e-01 -3.9069559126254811e+04 1.0000000000000000e+00 6.4046509205815116e+00 1.5655168986483694e+01 1.6323176503283904e+01 
37 1 2 8.7042619386321851e-01 -2.8110791245230128e+04 1.0000000000000000e+00 7.1223585335291490e+00 3.5868339795318138e+00 2.4815940806865928e+00 
38 1 2 8.7042619386321851e-01 -2.4939386395785121e+04 1.0000000000000000e+00 7.1223585335291490e+00 3.5868339795318138e+00 2.4815940806865928e+00 
43 1 2 8.7042619386321851e-01 -3.0900105813118284e+04 1.0000000000000000e+00 7.1223585335291490e+00 3.5868339795318138e+00 2.4815940806865928e+00 
49 1 2 8.7042619386321851e-01 -2.9140756220259129e+04 1.0000000000000000e+00 7.1223585335291490e+00 3.5868339795318138e+00 2.4815940806865928e+00 
44 1 2 8.7042619386321851e-01 -2.8553111161301473e+04 1.0000000000000000e+00 7.1223585335291490e+00 3.5868339795318138e+00 2.4815940806865928e+00 
7 1 2 8.7042619386321851e-01 -3.2953962732527223e+04 1.0000000000000000e+00 7.1223585335291490e+00 3.5868339795318138e+00 2.4815940806865928e+00 
86 1 2 4.3521309693160926e-01 -2.6955135859698148e+04 1.0000000000000000e+00 1.3185345814886789e+01 5.9323839336241342e+00 3.9871592309615833e+00 
80 1 2 4.3521309693160926e-01 -2.0605504177780811e+04 1.0000000000000000e+00 1.3185345814886789e+01 5.9323839336241342e+00 3.9871592309615833e+00 
122 1 2 4.3521309693160926e-01 -2.5386669273393953e+04 1.0000000000000000e+00 1.3185345814886789e+01 5.9323839336241342e+00 3.9871592309615833e+00 
94 1 2 1.4507103231053642e+00 -3.1129160834478967e+04 1.0000000000000000e+00 1.1776642682537259e+01 8.4929764318617131e+00 9.0420138704510045e+00 
123 1 2 1.4507103231053642e+00 -3.0848109357668640e+04 1.0000000000000000e+00 1.1776642682537259e+01 8.4929764318617131e+00 9.0420138704510045e+00 
88 1 2 1.4507103231053642e+00 -3.1565287293979709e+04 1.0000000000000000e+00 1.1776642682537259e+01 8.4929764318617131e+00 9.0420138704510045e+00 
93 1 2 1.4507103231053642e+00 -3.4814032516930332e+04 1.0000000000000000e+00 1.1776642682537259e+01 8.4929764318617131e+00 9.0420138704510045e+00 
50 1 2 1.4507103231053642e+00 -2.8789747364943556e+04 1.0000000000000000e+00 1.1776642682537259e+01 8.4929764318617131e+00 9.0420138704510045e+00 
51 1 2 1.4507103231053642e+00 -3.4899573659683476e+04 1.0000000000000000e+00 1.1776642682537259e+01 8.4929764318617131e+00 9.0420138704510045e+00 
57 1 2 1.4507103231053642e+00 -3.2893001480071616e+04 1.0000000000000000e+00 1.1776642682537259e+01 8.4929764318617131e+00 9.0420138704510045e+00 
130 1 2 1.4507103231053642e+00 -3.4923679944450298e+04 1.0000000000000000e+00 1.1776642682537259e+01 8.4929764318617131e+00 9.0420138704510045e+00 
124 1 2 1.4507103231053642e+00 -2.9075036229688325e+04 1.0000000000000000e+00 1.1776642682537259e+01 8.4929764318617131e+00 9.0420138704510045e+00 
87 1 2 1.4507103231053642e+00 -2.9896335759452941e+04 1.0000000000000000e+00 1.1776642682537259e+01 8.4929764318617131e+00 9.0420138704510045e+00 
53 1 2 2.9014206462107284e-01 -2.2139152022908358e+04 1.0000000000000000e+00 9.8908248478067478e+00 7.6604619675582546e+00 1.4273380529142353e+01 
89 1 2 2.9014206462107284e-01 -1.7574881320952376e+04 1.0000000000000000e+00 9.8908248478067460e+00 7.6604619675582555e+00 1.4273380529142354e+01 
1 1 2 5.8028412924214567e-01 -2.5289053410900942e+04 1.0000000000000000e+00 6.9072382715496214e+00 1.8095070978575404e+01 1.7302155948748335e+00 
67 1 2 5.8028412924214567e-01 -1.8811475611516646e+04 1.0000000000000000e+00 6.9072382715496214e+00 1.8095070978575404e+01 1.7302155948748335e+00 
31 1 2 5.8028412924214567e-01 -2.7932289972335086e+04 1.0000000000000000e+00 6.9072382715496214e+00 1.8095070978575404e+01 1.7302155948748335e+00 
68 1 2 5.8028412924214567e-01 -2.1164028585804819e+04 1.0000000000000000e+00 6.9072382715496214e+00 1.8095070978575404e+01 1.7302155948748335e+00 
74 1 2 4.3521309693160926e-01 -2.6309700341438242e+04 1.0000000000000000e+00 1.0691353685819339e+01 1.8188435579947843e+01 3.4481281797845011e+00 
103 1 2 4.3521309693160926e-01 -2.2999212200507045e+04 1.0000000000000000e+00 1.0691353685819339e+01 1.8188435579947843e+01 3.4481281797845011e+00 
104 1 2 4.3521309693160926e-01 -2.8599620034205138e+04 1.0000000000000000e+00 1.0691353685819339e+01 1.8188435579947843e+01 3.4481281797845011e+00 
59 1 2 1.0154972261737549e+00 -3.1041258478004187e+04 1.0000000000000000e+00 9.9238106142548848e+00 1.2207473690590618e+01 1.5173956704721778e+01 
65 1 2 1.0154972261737549e+00 -3.7516654597238361e+04 1.0000000000000000e+00 9.9238106142548848e+00 1.2207473690590618e+01 1.5173956704721778e+01 
66 1 2 1.0154972261737549e+00 -2.4497159324680957e+04 1.0000000000000000e+00 9.9238106142548848e+00 1.2207473690590618e+01 1.5173956704721778e+01 
95 1 2 1.0154972261737549e+00 -3.7513969588702450e+04 1.0000000000000000e+00 9.9238106142548848e+00 1.2207473690590618e+01 1.5173956704721778e+01 
96 1 2 1.0154972261737549e+00 -2.2179088359932255e+04 1.0000000000000000e+00 9.9238106142548848e+00 1.2207473690590618e+01 1.5173956704721778e+01 
101 1 2 1.0154972261737549e+00 -3.1363931372469538e+04 1.0000000000000000e+00 9.9238106142548848e+00 1.2207473690590618e+01 1.5173956704721778e+01 
60 1 2 1.0154972261737549e+00 -2.5803183584958933e+04 1.0000000000000000e+00 9.9238106142548848e+00 1.2207473690590618e+01 1.5173956704721778e+01 
116 1 2 8.7042619386321851e-01 -2.7166230657169501e+04 1.0000000000000000e+00 1.6740103269113852e+01 3.5579478162253397e+00 3.8425927909473963e+00 
110 1 2 8.7042619386321851e-01 -3.2340607646221142e+04 1.0000000000000000e+00 1.6740103269113852e+01 3.5579478162253397e+00 3.8425927909473963e+00 
146 1 2 8.7042619386321851e-01 -3.2070782934185903e+04 1.0000000000000000e+00 1.6740103269113852e+01 3.5579478162253397e+00 3.8425927909473963e+00 
152 1 2 8.7042619386321851e-01 -4.0844867715907909e+04 1.0000000000000000e+00 1.6740103269113852e+01 3.5579478162253397e+00 3.8425927909473963e+00 
158 1 2 8.7042619386321851e-01 -3.3060031509993030e+04 1.0000000000000000e+00 1.6740103269113852e+01 3.5579478162253397e+00 3.8425927909473963e+00 
153 1 2 8.7042619386321851e-01 -3.3463920606615320e+04 1.0000000000000000e+00 1.6740103269113852e+01 3.5579478162253397e+00 3.8425927909473963e+00 
165 1 2 4.3521309693160926e-01 -1.3726148374784605e+04 1.0000000000000000e+00 1.6354711118872469e+01 9.6710337795329355e+00 7.0656238665289344e+00 
129 1 2 4.3521309693160926e-01 -1.6904835628986490e+04 1.0000000000000000e+00 1.6354711118872469e+01 9.6710337795329355e+00 7.0656238665289344e+00 
159 1 2 4.3521309693160926e-01 -1.6766156369272801e+04 1.0000000000000000e+00 1.6354711118872469e+01 9.6710337795329355e+00 7.0656238665289344e+00 
166 1 2 2.9014206462107284e-01 -1.7592250858359625e+04 1.0000000000000000e+00 1.8368954872217543e+01 8.8061127200118072e+00 1.0807854516600852e+01 
160 1 2 2.9014206462107284e-01 -1.7160696658187197e+04 1.0000000000000000e+00 1.8368954872217540e+01 8.8061127200118072e+00 1.0807854516600850e+01 
168 1 2 1.1605682584842913e+00 -3.9590770259937875e+04 1.0000000000000000e+00 1.5421859954444173e+01 9.1701545542401295e+00 1.5235106341011480e+01 
167 1 2 1.1605682584842913e+00 -3.4795484356090419e+04 1.0000000000000000e+00 1.5421859954444173e+01 9.1701545542401295e+00 1.5235106341011480e+01 
132 1 2 1.1605682584842913e+00 -3.6213420458171247e+04 1.0000000000000000e+00 1.5421859954444173e+01 9.1701545542401295e+00 1.5235106341011480e+01 
161 1 2 1.1605682584842913e+00 -1.8670263838774081e+04 1.0000000000000000e+00 1.5421859954444173e+01 9.1701545542401295e+00 1.5235106341011480e+01 
90 1 2 1.1605682584842913e+00 -2.3624893427857995e+04 1.0000000000000000e+00 1.5421859954444173e+01 9.1701545542401295e+00 1.5235106341011480e+01 
131 1 2 1.1605682584842913e+00 -3.5793492144020187e+04 1.0000000000000000e+00 1.5421859954444173e+01 9.1701545542401295e+00 1.5235106341011480e+01 
125 1 2 1.1605682584842913e+00 -1.7784245665631701e+04 1.0000000000000000e+00 1.5421859954444173e+01 9.1701545542401295e+00 1.5235106341011480e+01 
126 1 2 1.1605682584842913e+00 -3.1624060505041933e+04 1.0000000000000000e+00 1.5421859954444173e+01 9.1701545542401295e+00 1.5235106341011480e+01 
141 1 2 5.8028412924214567e-01 -3.5685314272723364e+04 1.0000000000000000e+00 1.7248765075473344e+01 1.5925320411641943e+01 7.9792231012841324e+00 
177 1 2 5.8028412924214567e-01 -3.6407451617913393e+04 1.0000000000000000e+00 1.7248765075473344e+01 1.5925320411641943e+01 7.9792231012841324e+00 
171 1 2 5.8028412924214567e-01 -3.0427435949449617e+04 1.0000000000000000e+00 1.7248765075473344e+01 1.5925320411641943e+01 7.9792231012841324e+00 
172 1 2 5.8028412924214567e-01 -2.8949416893448251e+04 1.0000000000000000e+00 1.7248765075473344e+01 1.5925320411641943e+01 7.9792231012841324e+00 
149 1 2 5.8028412924214567e-01 -3.3164821176336191e+04 1.0000000000000000e+00 1.8049512594527055e+01 1.9695657962520652e+01 1.3082529502326462e+01 
178 1 2 5.8028412924214567e-01 -3.0611031271878848e+04 1.0000000000000000e+00 1.8049512594527055e+01 1.9695657962520656e+01 1.3082529502326462e+01 
179 1 2 5.8028412924214567e-01 -2.9086915795209839e+04 1.0000000000000000e+00 1.8049512594527055e+01 1.9695657962520656e+01 1.3082529502326462e+01 
155 1 2 5.8028412924214567e-01 -2.9708553935174801e+04 1.0000000000000000e+00 1.8049512594527055e+01 1.9695657962520652e+01 1.3082529502326462e+01 
173 1 2 4.3521309693160926e-01 -2.8959107465394380e+04 1.0000000000000000e+00 1.7893305545038757e+01 1.5336725951516998e+01 1.6300889297430608e+01 
174 1 2 4.3521309693160926e-01 -2.8655237876397667e+04 1.0000000000000000e+00 1.7893305545038757e+01 1.5336725951516998e+01 1.6300889297430608e+01 
180 1 2 4.3521309693160926e-01 -3.1076224995159311e+04 1.0000000000000000e+00 1.7893305545038757e+01 1.5336725951516998e+01 1.6300889297430608e+01 

Velocities

13 4.9406564584124654e-324 -4.9406564584124654e-324 4.9406564584124654e-324
8 4.9406564584124654e-324 -4.9406564584124654e-324 -4.9406564584124654e-324
15 4.9406564584124654e-324 -4.9406564584124654e-324 -4.9406564584124654e-324
14 4.9406564584124654e-324 -4.9406564584124654e-324 -4.9406564584124654e-324
45 -4.9406564584124654e-324 -4.9406564584124654e-324 4.9406564584124654e-324
9 -4.9406564584124654e-324 -4.9406564584124654e-324 4.9406564584124654e-324
10 -4.9406564584124654e-324 -4.9406564584124654e-324 4.9406564584124654e-324
52 -4.9406564584124654e-324 -4.9406564584124654e-324 4.9406564584124654e-324
46 -4.9406564584124654e-324 -4.9406564584124654e-324 4.9406564584124654e-324
17 -4.9406564584124654e-324 -4.9406564584124654e-324 4.9406564584124654e-324
12 -4.9406564584124654e-324 -4.9406564584124654e-324 4.9406564584124654e-324
18 -4.9406564584124654e-324 -4.9406564584124654e-324 4.9406564584124654e-324
11 -4.9406564584124654e-324 -4.9406564584124654e-324 4.9406564584124654e-324
33 -4.9406564584124654e-324 4.9406564584124654e-324 4.9406564584124654e-324
3 -4.9406564584124654e-324 4.9406564584124654e-324 4.9406564584124654e-324
2 -4.9406564584124654e-324 4.9406564584124654e-324 4.9406564584124654e-324
32 -4.9406564584124654e-324 4.9406564584124654e-324 4.9406564584124654e-324
109 1.2215527468065610e+00 -2.2970217563936757e+00 -2.3702592782779606e+00
121 8.8879436537341663e-02 2.3966654895564782e-01 2.2428801103622817e-02
81 -1.1556083847754811e-01 1.6949379897166114e-01 -7.9115032965923829e-02
62 5.3346614921397573e-01 -9.6426749994081642e-02 4.7110241834535260e-01
54 -1.1742688638244250e-01 8.4064867874712818e-02 -6.3585775652174423e-02
118 -3.6488656663005263e-02 7.6256638836770307e-02 4.5451500041726926e-02
85 -1.2571038250187333e-01 -4.6591223215173005e-02 -3.9191760826698001e-02
120 -4.1999644711440069e-02 1.1567527757510132e-01 1.4159488668250067e-01
79 -7.2216405236939540e-01 1.1166344163873584e-01 -1.1275887364221966e+00
105 1.0429040125407713e-01 -6.7754284443047680e-02 -3.9770826863245634e-01
76 -2.0388925389709153e-01 1.4919905370766381e-01 2.5994405399138498e-01
39 -2.3002875711828741e-01 1.6679146842256021e-01 2.9375746179409012e-01
150 -2.2558118166466141e-02 1.3989359349406757e-02 -5.8564521649250641e-04
70 -9.3083301823977616e-02 7.2267125690639172e-02 1.0215488187180169e-01
40 -9.3083302888038344e-02 7.2267128068070466e-02 1.0215488601517476e-01
4 -9.3083302888038344e-02 7.2267128068070466e-02 1.0215488601517476e-01
136 -5.0984695152516753e-02 1.1571349457809806e-01 1.1684793823152759e-01
100 -5.0984695137383254e-02 1.1571349461004343e-01 1.1684793802950805e-01
99 -5.0984695153879746e-02 1.1571349462068514e-01 1.1684793817335114e-01
135 -5.0984695000103372e-02 1.1571349476158427e-01 1.1684793838523268e-01
106 -5.0984695211728479e-02 1.1571349456216265e-01 1.1684793804884466e-01
64 -5.0984695129676176e-02 1.1571349464289762e-01 1.1684793812075561e-01
142 -5.0984695105941502e-02 1.1571349472344372e-01 1.1684793833415429e-01
115 -3.6317119064866905e-02 9.3664391125767479e-02 1.3716500814219926e-01
108 -3.6635053852183116e-02 1.1499676736394254e-01 1.2953625503304483e-01