LAMMPS data file via write_data, version 30 Jul 2016, timestep = 50000000

180 atoms
2 atom types

0.0000000000000000e+00 2.0000000000000000e+01 xlo xhi
0.0000000000000000e+00 2.0000000000000000e+01 ylo yhi
0.0000000000000000e+00 2.0000000000000000e+01 zlo zhi

Masses

1 3.896
2 4.31

Atoms # meso-molecular

13 1 2 1.4507103231053642e-01 1.2160083416756387e+02 1.0000000000000000e+00 4.0944282366663680e+00 7.9077664758887138e+00 1.6583147378355273e-01 
8 1 2 4.3521309693160926e-01 -2.5464962391450103e+04 1.0000000000000000e+00 5.2913625059934235e+00 6.1471418947164471e+00 5.1070813472487124e+00 
15 1 2 4.3521309693160926e-01 -2.3135653327904438e+04 1.0000000000000000e+00 5.2913625059934235e+00 6.1471418947164471e+00 5.1070813472487124e+00 
14 1 2 4.3521309693160926e-01 -2.3340664678612200e+04 1.0000000000000000e+00 5.2913625059934235e+00 6.1471418947164471e+00 5.1070813472487124e+00 
45 1 2 7.2535516155268209e-01 -3.3852896979273901e+04 1.0000000000000000e+00 6.4701011406770013e+00 5.0041586022919331e+00 9.9767529386308933e+00 
9 1 2 7.2535516155268209e-01 -2.8567162729831380e+04 1.0000000000000000e+00 6.4701011406770013e+00 5.0041586022919331e+00 9.9767529386308933e+00 
10 1 2 7.2535516155268209e-01 -3.0270078902844365e+04 1.0000000000000000e+00 6.4701011406770013e+00 5.0041586022919331e+00 9.9767529386308933e+00 
52 1 2 7.2535516155268209e-01 -3.2121763025899825e+04 1.0000000000000000e+00 6.4701011406770013e+00 5.0041586022919331e+00 9.9767529386308933e+00 
46 1 2 7.2535516155268209e-01 -3.4697546941934765e+04 1.0000000000000000e+00 6.4701011406770013e+00 5.0041586022919331e+00 9.9767529386308933e+00 
17 1 2 5.8028412924214567e-01 -2.7820101721689156e+04 1.0000000000000000e+00 5.3530640767857607e+00 6.1000414878949689e+00 1.5423510108389555e+01 
12 1 2 5.8028412924214567e-01 -3.0681654289863163e+04 1.0000000000000000e+00 5.3530640767857607e+00 6.1000414878949689e+00 1.5423510108389555e+01 
18 1 2 5.8028412924214567e-01 -2.5669567850353782e+04 1.0000000000000000e+00 5.3530640767857607e+00 6.1000414878949689e+00 1.5423510108389555e+01 
11 1 2 5.8028412924214567e-01 -2.2843477202549308e+04 1.0000000000000000e+00 5.3530640767857607e+00 6.1000414878949689e+00 1.5423510108389555e+01 
33 1 2 5.8028412924214567e-01 -2.8842866214975933e+04 1.0000000000000000e+00 5.0920929717211809e+00 1.8864945777254942e+01 5.3937870499109648e+00 
3 1 2 5.8028412924214567e-01 -2.8217210612998741e+04 1.0000000000000000e+00 5.0920929717211809e+00 1.8864945777254942e+01 5.3937870499109648e+00 
2 1 2 5.8028412924214567e-01 -2.8214493929712255e+04 1.0000000000000000e+00 5.0920929717211809e+00 1.8864945777254942e+01 5.3937870499109648e+00 
32 1 2 5.8028412924214567e-01 -2.6536469571558900e+04 1.0000000000000000e+00 5.0920929717211809e+00 1.8864945777254942e+01 5.3937870499109648e+00 
109 1 2 9.1888134343206396e+00 -2.8556648104115538e+04 1.0000000000000000e+00 6.1536015125071932e+00 1.1404785226870244e+01 8.9912792439629428e+00 
121 1 2 9.2792872518313221e+00 -4.0723608217812500e+04 1.0000000000000000e+00 6.2228410470683739e+00 1.1290309340487456e+01 8.8366764840529246e+00 
81 1 2 9.2797198848333959e+00 -2.8840108060771989e+04 1.0000000000000000e+00 6.2138988253061180e+00 1.1299976481992722e+01 8.8398356693453923e+00 
62 1 2 9.2749462976854637e+00 -3.7858550842863006e+04 1.0000000000000000e+00 6.2321715337042720e+00 1.1262892450131003e+01 8.8504950489976402e+00 
54 1 2 9.2616971048855135e+00 -4.2316370860831055e+04 1.0000000000000000e+00 6.1677529264558357e+00 1.1372484019420071e+01 8.8591485648550350e+00 
118 1 2 9.2797207855207926e+00 -4.1660873839879394e+04 1.0000000000000000e+00 6.2121287443365585e+00 1.1304958870230426e+01 8.8381640352310242e+00 
85 1 2 9.2797861932910983e+00 -4.5927273425409359e+04 1.0000000000000000e+00 6.2111162022819073e+00 1.1303359879635909e+01 8.8299568194387170e+00 
120 1 2 9.2798019790586039e+00 -4.5337629964432155e+04 1.0000000000000000e+00 6.2152158939027595e+00 1.1299800495823265e+01 8.8337102026152774e+00 
79 1 2 9.2783447198157614e+00 -4.5861913984637416e+04 1.0000000000000000e+00 6.1933546731261204e+00 1.1285802785878182e+01 8.8440741794675262e+00 
105 1 2 9.2793292316778242e+00 -3.3213130798344486e+04 1.0000000000000000e+00 6.2147099821590457e+00 1.1293417181501608e+01 8.8203872701960808e+00 
76 1 2 9.2790943583815810e+00 -2.5729532027163732e+04 1.0000000000000000e+00 6.2093956703200197e+00 1.1284260419966964e+01 8.8247770708896720e+00 
39 1 2 9.2790696735291771e+00 -3.0025797506699426e+04 1.0000000000000000e+00 6.2159369535174989e+00 1.1285548381691161e+01 8.8230692726517184e+00 
150 1 2 9.2797135619309454e+00 -4.2151439842646592e+04 1.0000000000000000e+00 6.2152083184587834e+00 1.1296425205807090e+01 8.8280814860593306e+00 
70 1 2 9.2795408605474492e+00 -3.3982103386493807e+04 1.0000000000000000e+00 6.2085369041341840e+00 1.1303264836600293e+01 8.8436598513196696e+00 
40 1 2 9.2795408605570557e+00 -3.7581091964148465e+04 1.0000000000000000e+00 6.2085369039397769e+00 1.1303264836365837e+01 8.8436598511437889e+00 
4 1 2 9.2795408605570557e+00 -3.4096769283321155e+04 1.0000000000000000e+00 6.2085369039397769e+00 1.1303264836365837e+01 8.8436598511437889e+00 
136 1 2 9.2798160358806498e+00 -3.7875920988831152e+04 1.0000000000000000e+00 6.2137256798272702e+00 1.1301279630859247e+01 8.8318528608722797e+00 
100 1 2 9.2798160358805077e+00 -2.7258630496019839e+04 1.0000000000000000e+00 6.2137256798237939e+00 1.1301279630869489e+01 8.8318528608536084e+00 
99 1 2 9.2798160358805735e+00 -3.5000198686287455e+04 1.0000000000000000e+00 6.2137256798252318e+00 1.1301279630865739e+01 8.8318528608631919e+00 
135 1 2 9.2798160358805468e+00 -3.7032167136791359e+04 1.0000000000000000e+00 6.2137256798470260e+00 1.1301279630852738e+01 8.8318528608846147e+00 
106 1 2 9.2798160358805912e+00 -3.2540717535932323e+04 1.0000000000000000e+00 6.2137256798177223e+00 1.1301279630868995e+01 8.8318528608563085e+00 
64 1 2 9.2798160358805237e+00 -2.7470728750446215e+04 1.0000000000000000e+00 6.2137256798259815e+00 1.1301279630867743e+01 8.8318528608573743e+00 
142 1 2 9.2798160358805752e+00 -3.5149692551473876e+04 1.0000000000000000e+00 6.2137256798354663e+00 1.1301279630858962e+01 8.8318528608749851e+00 
115 1 2 9.2798136654568282e+00 -3.4452916302910984e+04 1.0000000000000000e+00 6.2144289880628234e+00 1.1299867491433087e+01 8.8323315433455694e+00 
108 1 2 9.2798019991262812e+00 -3.5509611647064747e+04 1.0000000000000000e+00 6.2151392611950271e+00 1.1300394379245047e+01 8.8323862219137226e+00 
137 1 2 9.2798019991259810e+00 -3.8504870590629856e+04 1.0000000000000000e+00 6.2151392612088330e+00 1.1300394379246422e+01 8.8323862218991049e+00 
138 1 2 9.2798019991259224e+00 -4.0711741375965241e+04 1.0000000000000000e+00 6.2151392612114194e+00 1.1300394379250751e+01 8.8323862218970088e+00 
144 1 2 9.2798019991262670e+00 -3.6172340120810775e+04 1.0000000000000000e+00 6.2151392611951470e+00 1.1300394379249084e+01 8.8323862219114115e+00 
102 1 2 9.2798019991261658e+00 -2.8059577704520227e+04 1.0000000000000000e+00 6.2151392612000560e+00 1.1300394379248553e+01 8.8323862219089406e+00 
107 1 2 9.2798019991262901e+00 -3.2004868905390758e+04 1.0000000000000000e+00 6.2151392611944809e+00 1.1300394379244233e+01 8.8323862219126301e+00 
143 1 2 9.2798019991261409e+00 -3.6120452226021865e+04 1.0000000000000000e+00 6.2151392612022391e+00 1.1300394379242356e+01 8.8323862219081661e+00 
47 1 2 9.2798030476266433e+00 -4.0722910935941596e+04 1.0000000000000000e+00 6.2151368861364702e+00 1.1300183726359132e+01 8.8325898255195749e+00 
114 1 2 9.2798000227464250e+00 -4.0066316735936060e+04 1.0000000000000000e+00 6.2152973472270752e+00 1.1300040821487125e+01 8.8325109600131935e+00 
41 1 2 9.2798030476266078e+00 -3.6829235740086522e+04 1.0000000000000000e+00 6.2151368861363574e+00 1.1300183726367758e+01 8.8325898255109365e+00 
42 1 2 9.2798030476265190e+00 -4.1340903899155492e+04 1.0000000000000000e+00 6.2151368861418943e+00 1.1300183726362247e+01 8.8325898255106150e+00 
6 1 2 9.2798030476265989e+00 -4.1569515183700700e+04 1.0000000000000000e+00 6.2151368861363112e+00 1.1300183726367166e+01 8.8325898255061013e+00 
83 1 2 9.2798030476266522e+00 -3.7092329896940515e+04 1.0000000000000000e+00 6.2151368861356362e+00 1.1300183726359485e+01 8.8325898255202748e+00 
5 1 2 9.2798030476266611e+00 -3.8518314664411875e+04 1.0000000000000000e+00 6.2151368861341769e+00 1.1300183726364420e+01 8.8325898255156066e+00 
82 1 2 9.2798030476264870e+00 -3.8496853442298874e+04 1.0000000000000000e+00 6.2151368861436449e+00 1.1300183726359620e+01 8.8325898255104978e+00 
77 1 2 9.2798030476266877e+00 -4.1600666923227131e+04 1.0000000000000000e+00 6.2151368861329015e+00 1.1300183726365432e+01 8.8325898255148800e+00 
145 1 2 9.2797938694368263e+00 -4.0896448344770404e+04 1.0000000000000000e+00 6.2156520886033508e+00 1.1299945405339299e+01 8.8327576182957390e+00 
48 1 2 9.2797969869315668e+00 -4.4097845484738435e+04 1.0000000000000000e+00 6.2148682937157718e+00 1.1301683993634649e+01 8.8317837960301482e+00 
151 1 2 9.2797910150777287e+00 -4.2315230577256065e+04 1.0000000000000000e+00 6.2158119371135507e+00 1.1299891183809279e+01 8.8330757733718794e+00 
69 1 2 9.2795971699311437e+00 -3.3775275442964550e+04 1.0000000000000000e+00 6.2204891913611426e+00 1.1298183696959740e+01 8.8291310350468173e+00 
113 1 2 9.2797758857016124e+00 -4.2360233549460863e+04 1.0000000000000000e+00 6.2146260408499572e+00 1.1301362188082352e+01 8.8294779599539481e+00 
119 1 2 9.2797760832929832e+00 -3.0564672954048583e+04 1.0000000000000000e+00 6.2146223491621484e+00 1.1301367822411102e+01 8.8294883356795726e+00 
147 1 2 9.2797861665569652e+00 -3.6215752342428554e+04 1.0000000000000000e+00 6.2128504245474314e+00 1.1304008533731832e+01 8.8350387374063875e+00 
148 1 2 9.2797861980997212e+00 -4.4347386799808846e+04 1.0000000000000000e+00 6.2128510439009590e+00 1.1304007654775745e+01 8.8350364700762505e+00 
117 1 2 9.2797760287257098e+00 -3.3052742536344216e+04 1.0000000000000000e+00 6.2146233698640643e+00 1.1301366264654295e+01 8.8294854665539884e+00 
154 1 2 9.2797761388879607e+00 -4.5068125412802532e+04 1.0000000000000000e+00 6.2146213082909911e+00 1.1301369410919026e+01 8.8294912617963046e+00 
112 1 2 9.2797964841837430e+00 -4.1254361130563055e+04 1.0000000000000000e+00 6.2141294325656560e+00 1.1302116665218783e+01 8.8309068036534608e+00 
111 1 2 9.2797207727970807e+00 -3.6625142500423630e+04 1.0000000000000000e+00 6.2121286634395325e+00 1.1304958953164149e+01 8.8381645181235839e+00 
156 1 2 9.2796505375602845e+00 -3.8378782542585141e+04 1.0000000000000000e+00 6.2105366096025891e+00 1.1298759704616179e+01 8.8243238887439741e+00 
75 1 2 9.2791131346063587e+00 -2.4806220170496581e+04 1.0000000000000000e+00 6.2125166634846538e+00 1.1313065666142199e+01 8.8213949090722146e+00 
73 1 2 9.2795749069813294e+00 -4.1732219840686899e+04 1.0000000000000000e+00 6.2168794472732536e+00 1.1307334568427516e+01 8.8384865076332044e+00 
63 1 2 9.2778497973791687e+00 -3.5916370294124732e+04 1.0000000000000000e+00 6.2264557740182180e+00 1.1281694305336764e+01 8.8160044775080006e+00 
21 1 2 9.2348852370928967e+00 -3.1977307629738960e+04 1.0000000000000000e+00 6.2612542125019743e+00 1.1177467727311052e+01 8.7891599140019476e+00 
162 1 2 9.2775440471682220e+00 -3.3112884953883615e+04 1.0000000000000000e+00 6.1814348552093383e+00 1.1290341533586176e+01 8.8347861621428248e+00 
84 1 2 9.2734023499233764e+00 -4.6224508187886611e+04 1.0000000000000000e+00 6.2390535423142488e+00 1.1258051311572107e+01 8.8172080278252096e+00 
78 1 2 9.2086264565672042e+00 -4.2711912699572851e+04 1.0000000000000000e+00 6.2169262768312645e+00 1.1254791878853011e+01 9.0028234825412419e+00 
29 1 2 9.2668438024863935e+00 -2.8723481188646139e+04 1.0000000000000000e+00 6.1816610456044145e+00 1.1322001493109784e+01 8.7680935341591741e+00 
28 1 2 9.2668438024863935e+00 -4.3195812227652626e+04 1.0000000000000000e+00 6.1816610456044145e+00 1.1322001493109784e+01 8.7680935341591741e+00 
34 1 2 9.2668438024863935e+00 -4.4322047932978188e+04 1.0000000000000000e+00 6.1816610456044145e+00 1.1322001493109784e+01 8.7680935341591741e+00 
27 1 2 9.2668438024863935e+00 -3.6240877353920681e+04 1.0000000000000000e+00 6.1816610456044145e+00 1.1322001493109784e+01 8.7680935341591741e+00 
98 1 2 4.0619889046950171e+00 -4.2743659252956815e+04 1.0000000000000000e+00 2.5711201029999815e+00 1.1577519281291730e+01 1.5589309842113998e+01 
128 1 2 4.0619889046950171e+00 -4.2959546407553986e+04 1.0000000000000000e+00 2.5711201029999815e+00 1.1577519281291730e+01 1.5589309842113998e+01 
91 1 2 4.0619889046950171e+00 -3.4232369939272874e+04 1.0000000000000000e+00 2.5711201029999815e+00 1.1577519281291730e+01 1.5589309842113998e+01 
92 1 2 4.0619889046950171e+00 -3.7822197165917794e+04 1.0000000000000000e+00 2.5711201029994970e+00 1.1577519281293354e+01 1.5589309842111804e+01 
157 1 2 4.0619889046950171e+00 -2.0461154692420307e+04 1.0000000000000000e+00 2.5711201029998469e+00 1.1577519281293188e+01 1.5589309842113900e+01 
163 1 2 4.0619889046950171e+00 -2.2221979452321480e+04 1.0000000000000000e+00 2.5711201029995276e+00 1.1577519281291943e+01 1.5589309842111755e+01 
133 1 2 4.0619889046950171e+00 -3.0200394563211699e+04 1.0000000000000000e+00 2.5711201030003070e+00 1.1577519281293036e+01 1.5589309842114934e+01 
176 1 2 4.0619889046950171e+00 -4.6362680638383594e+04 1.0000000000000000e+00 2.5711201030001125e+00 1.1577519281291204e+01 1.5589309842113984e+01 
175 1 2 4.0619889046950171e+00 -3.8394803906800335e+04 1.0000000000000000e+00 2.5711201030004402e+00 1.1577519281291796e+01 1.5589309842113250e+01 
170 1 2 4.0619889046950171e+00 -2.9128667011501071e+04 1.0000000000000000e+00 2.5711201030001014e+00 1.1577519281291439e+01 1.5589309842112892e+01 
164 1 2 4.0619889046950171e+00 -3.0928647282324247e+04 1.0000000000000000e+00 2.5711201030001125e+00 1.1577519281291204e+01 1.5589309842113984e+01 
140 1 2 4.0619889046950171e+00 -4.3779091285778668e+04 1.0000000000000000e+00 2.5711201030006974e+00 1.1577519281291304e+01 1.5589309842114069e+01 
139 1 2 4.0619889046950171e+00 -4.3608053057219411e+04 1.0000000000000000e+00 2.5711201030004402e+00 1.1577519281291796e+01 1.5589309842113250e+01 
169 1 2 4.0619889046950171e+00 -4.0283749587848768e+04 1.0000000000000000e+00 2.5711201029998278e+00 1.1577519281292505e+01 1.5589309842112769e+01 
61 1 2 4.0619889046950171e+00 -3.9814575256113312e+04 1.0000000000000000e+00 2.5711201030003710e+00 1.1577519281292039e+01 1.5589309842114178e+01 
25 1 2 4.0619889046950171e+00 -3.7586750159775984e+04 1.0000000000000000e+00 2.5711201029992199e+00 1.1577519281291996e+01 1.5589309842113636e+01 
26 1 2 4.0619889046950171e+00 -3.9241973556343568e+04 1.0000000000000000e+00 2.5711201029992199e+00 1.1577519281291996e+01 1.5589309842113636e+01 
19 1 2 4.0619889046950171e+00 -4.7920892377443568e+04 1.0000000000000000e+00 2.5711201029992199e+00 1.1577519281291996e+01 1.5589309842113636e+01 
55 1 2 4.0619889046950171e+00 -4.6831183369436578e+04 1.0000000000000000e+00 2.5711201030000068e+00 1.1577519281287454e+01 1.5589309842110172e+01 
56 1 2 4.0619889046950171e+00 -3.1963515000271393e+04 1.0000000000000000e+00 2.5711201030003710e+00 1.1577519281292039e+01 1.5589309842114178e+01 
20 1 2 4.0619889046950171e+00 -3.0620058565781270e+04 1.0000000000000000e+00 2.5711201030003710e+00 1.1577519281292039e+01 1.5589309842114178e+01 
58 1 2 4.0619889046950171e+00 -3.0300291498977298e+04 1.0000000000000000e+00 2.5711201030002702e+00 1.1577519281291881e+01 1.5589309842112931e+01 
22 1 2 4.0619889046950171e+00 -3.2210043645734437e+04 1.0000000000000000e+00 2.5711201030002702e+00 1.1577519281291881e+01 1.5589309842112931e+01 
16 1 2 4.0619889046950171e+00 -3.2855408929981990e+04 1.0000000000000000e+00 2.5711201030002702e+00 1.1577519281291881e+01 1.5589309842112931e+01 
23 1 2 4.0619889046950171e+00 -3.1085729332608171e+04 1.0000000000000000e+00 2.5711201030002702e+00 1.1577519281291881e+01 1.5589309842112931e+01 
134 1 2 4.0619889046950171e+00 -3.9378124468603164e+04 1.0000000000000000e+00 2.5711201029997039e+00 1.1577519281292746e+01 1.5589309842115005e+01 
97 1 2 4.0619889046950171e+00 -3.1515389626082942e+04 1.0000000000000000e+00 2.5711201030000903e+00 1.1577519281290353e+01 1.5589309842113034e+01 
127 1 2 4.0619889046950171e+00 -3.2886335010223804e+04 1.0000000000000000e+00 2.5711201029996582e+00 1.1577519281291165e+01 1.5589309842113115e+01 
36 1 2 8.7042619386321851e-01 -4.1015697578576721e+04 1.0000000000000000e+00 6.4046509205815116e+00 1.5655168986483694e+01 1.6323176503283904e+01 
24 1 2 8.7042619386321851e-01 -2.9457211657679982e+04 1.0000000000000000e+00 6.4046509205815116e+00 1.5655168986483694e+01 1.6323176503283904e+01 
30 1 2 8.7042619386321851e-01 -3.8869762830050866e+04 1.0000000000000000e+00 6.4046509205815116e+00 1.5655168986483694e+01 1.6323176503283904e+01 
35 1 2 8.7042619386321851e-01 -3.8851053138410563e+04 1.0000000000000000e+00 6.4046509205815116e+00 1.5655168986483694e+01 1.6323176503283904e+01 
71 1 2 8.7042619386321851e-01 -3.2634234498406291e+04 1.0000000000000000e+00 6.4046509205815116e+00 1.5655168986483694e+01 1.6323176503283904e+01 
72 1 2 8.7042619386321851e-01 -3.9069559126254811e+04 1.0000000000000000e+00 6.4046509205815116e+00 1.5655168986483694e+01 1.6323176503283904e+01 
37 1 2 8.7042619386321851e-01 -2.8110791245230128e+04 1.0000000000000000e+00 7.1223585335291490e+00 3.5868339795318138e+00 2.4815940806865928e+00 
38 1 2 8.7042619386321851e-01 -2.4939386395785121e+04 1.0000000000000000e+00 7.1223585335291490e+00 3.5868339795318138e+00 2.4815940806865928e+00 
43 1 2 8.7042619386321851e-01 -3.0900105813118284e+04 1.0000000000000000e+00 7.1223585335291490e+00 3.5868339795318138e+00 2.4815940806865928e+00 
49 1 2 8.7042619386321851e-01 -2.9140756220259129e+04 1.0000000000000000e+00 7.1223585335291490e+00 3.5868339795318138e+00 2.4815940806865928e+00 
44 1 2 8.7042619386321851e-01 -2.8553111161301473e+04 1.0000000000000000e+00 7.1223585335291490e+00 3.5868339795318138e+00 2.4815940806865928e+00 
7 1 2 8.7042619386321851e-01 -3.2953962732527223e+04 1.0000000000000000e+00 7.1223585335291490e+00 3.5868339795318138e+00 2.4815940806865928e+00 
86 1 2 4.3521309693160926e-01 -2.6955135859698148e+04 1.0000000000000000e+00 1.3185345814886789e+01 5.9323839336241342e+00 3.9871592309615833e+00 
80 1 2 4.3521309693160926e-01 -2.0605504177780811e+04 1.0000000000000000e+00 1.3185345814886789e+01 5.9323839336241342e+00 3.9871592309615833e+00 
122 1 2 4.3521309693160926e-01 -2.5386669273393953e+04 1.0000000000000000e+00 1.3185345814886789e+01 5.9323839336241342e+00 3.9871592309615833e+00 
94 1 2 1.4507103231053642e+00 -3.1129160834478967e+04 1.0000000000000000e+00 1.1776642682537259e+01 8.4929764318617131e+00 9.0420138704510045e+00 
123 1 2 1.4507103231053642e+00 -3.0848109357668640e+04 1.0000000000000000e+00 1.1776642682537259e+01 8.4929764318617131e+00 9.0420138704510045e+00 
88 1 2 1.4507103231053642e+00 -3.1565287293979709e+04 1.0000000000000000e+00 1.1776642682537259e+01 8.4929764318617131e+00 9.0420138704510045e+00 
93 1 2 1.4507103231053642e+00 -3.4814032516930332e+04 1.0000000000000000e+00 1.1776642682537259e+01 8.4929764318617131e+00 9.0420138704510045e+00 
50 1 2 1.4507103231053642e+00 -2.8789747364943556e+04 1.0000000000000000e+00 1.1776642682537259e+01 8.4929764318617131e+00 9.0420138704510045e+00 
51 1 2 1.4507103231053642e+00 -3.4899573659683476e+04 1.0000000000000000e+00 1.1776642682537259e+01 8.4929764318617131e+00 9.0420138704510045e+00 
57 1 2 1.4507103231053642e+00 -3.2893001480071616e+04 1.0000000000000000e+00 1.1776642682537259e+01 8.4929764318617131e+00 9.0420138704510045e+00 
130 1 2 1.4507103231053642e+00 -3.4923679944450298e+04 1.0000000000000000e+00 1.1776642682537259e+01 8.4929764318617131e+00 9.0420138704510045e+00 
124 1 2 1.4507103231053642e+00 -2.9075036229688325e+04 1.0000000000000000e+00 1.1776642682537259e+01 8.4929764318617131e+00 9.0420138704510045e+00 
87 1 2 1.4507103231053642e+00 -2.9896335759452941e+04 1.0000000000000000e+00 1.1776642682537259e+01 8.4929764318617131e+00 9.0420138704510045e+00 
53 1 2 2.9014206462107284e-01 -2.2139152022908358e+04 1.0000000000000000e+00 9.8908248478067478e+00 7.6604619675582546e+00 1.4273380529142353e+01 
89 1 2 2.9014206462107284e-01 -1.7574881320952376e+04 1.0000000000000000e+00 9.8908248478067460e+00 7.6604619675582555e+00 1.4273380529142354e+01 
1 1 2 5.8028412924214567e-01 -2.5289053410900942e+04 1.0000000000000000e+00 6.9072382715496214e+00 1.8095070978575404e+01 1.7302155948748335e+00 
67 1 2 5.8028412924214567e-01 -1.8811475611516646e+04 1.0000000000000000e+00 6.9072382715496214e+00 1.8095070978575404e+01 1.7302155948748335e+00 
31 1 2 5.8028412924214567e-01 -2.7932289972335086e+04 1.0000000000000000e+00 6.9072382715496214e+00 1.8095070978575404e+01 1.7302155948748335e+00 
68 1 2 5.8028412924214567e-01 -2.1164028585804819e+04 1.0000000000000000e+00 6.9072382715496214e+00 1.8095070978575404e+01 1.7302155948748335e+00 
74 1 2 4.3521309693160926e-01 -2.6309700341438242e+04 1.0000000000000000e+00 1.0691353685819339e+01 1.8188435579947843e+01 3.4481281797845011e+00 
103 1 2 4.3521309693160926e-01 -2.2999212200507045e+04 1.0000000000000000e+00 1.0691353685819339e+01 1.8188435579947843e+01 3.4481281797845011e+00 
104 1 2 4.3521309693160926e-01 -2.8599620034205138e+04 1.0000000000000000e+00 1.0691353685819339e+01 1.8188435579947843e+01 3.4481281797845011e+00 
59 1 2 1.0154972261737549e+00 -3.1041258478004187e+04 1.0000000000000000e+00 9.9238106142548848e+00 1.2207473690590618e+01 1.5173956704721778e+01 
65 1 2 1.0154972261737549e+00 -3.7516654597238361e+04 1.0000000000000000e+00 9.9238106142548848e+00 1.2207473690590618e+01 1.5173956704721778e+01 
66 1 2 1.0154972261737549e+00 -2.4497159324680957e+04 1.0000000000000000e+00 9.9238106142548848e+00 1.2207473690590618e+01 1.5173956704721778e+01 
95 1 2 1.0154972261737549e+00 -3.7513969588702450e+04 1.0000000000000000e+00 9.9238106142548848e+00 1.2207473690590618e+01 1.5173956704721778e+01 
96 1 2 1.0154972261737549e+00 -2.2179088359932255e+04 1.0000000000000000e+00 9.9238106142548848e+00 1.2207473690590618e+01 1.5173956704721778e+01 
101 1 2 1.0154972261737549e+00 -3.1363931372469538e+04 1.0000000000000000e+00 9.9238106142548848e+00 1.2207473690590618e+01 1.5173956704721778e+01 
60 1 2 1.0154972261737549e+00 -2.5803183584958933e+04 1.0000000000000000e+00 9.9238106142548848e+00 1.2207473690590618e+01 1.5173956704721778e+01 
116 1 2 8.7042619386321851e-01 -2.7166230657169501e+04 1.0000000000000000e+00 1.6740103269113852e+01 3.5579478162253397e+00 3.8425927909473963e+00 
110 1 2 8.7042619386321851e-01 -3.2340607646221142e+04 1.0000000000000000e+00 1.6740103269113852e+01 3.5579478162253397e+00 3.8425927909473963e+00 
146 1 2 8.7042619386321851e-01 -3.2070782934185903e+04 1.0000000000000000e+00 1.6740103269113852e+01 3.5579478162253397e+00 3.8425927909473963e+00 
152 1 2 8.7042619386321851e-01 -4.0844867715907909e+04 1.0000000000000000e+00 1.6740103269113852e+01 3.5579478162253397e+00 3.8425927909473963e+00 
158 1 2 8.7042619386321851e-01 -3.3060031509993030e+04 1.0000000000000000e+00 1.6740103269113852e+01 3.5579478162253397e+00 3.8425927909473963e+00 
153 1 2 8.7042619386321851e-01 -3.3463920606615320e+04 1.0000000000000000e+00 1.6740103269113852e+01 3.5579478162253397e+00 3.8425927909473963e+00 
165 1 2 4.3521309693160926e-01 -1.3726148374784605e+04 1.0000000000000000e+00 1.6354711118872469e+01 9.6710337795329355e+00 7.0656238665289344e+00 
129 1 2 4.3521309693160926e-01 -1.6904835628986490e+04 1.0000000000000000e+00 1.6354711118872469e+01 9.6710337795329355e+00 7.0656238665289344e+00 
159 1 2 4.3521309693160926e-01 -1.6766156369272801e+04 1.0000000000000000e+00 1.6354711118872469e+01 9.6710337795329355e+00 7.0656238665289344e+00 
166 1 2 2.9014206462107284e-01 -1.7592250858359625e+04 1.0000000000000000e+00 1.8368954872217543e+01 8.8061127200118072e+00 1.0807854516600852e+01 
160 1 2 2.9014206462107284e-01 -1.7160696658187197e+04 1.0000000000000000e+00 1.8368954872217540e+01 8.8061127200118072e+00 1.0807854516600850e+01 
168 1 2 1.1605682584842913e+00 -3.9590770259937875e+04 1.0000000000000000e+00 1.5421859954444173e+01 9.1701545542401295e+00 1.5235106341011480e+01 
167 1 2 1.1605682584842913e+00 -3.4795484356090419e+04 1.0000000000000000e+00 1.5421859954444173e+01 9.1701545542401295e+00 1.5235106341011480e+01 
132 1 2 1.1605682584842913e+00 -3.6213420458171247e+04 1.0000000000000000e+00 1.5421859954444173e+01 9.1701545542401295e+00 1.5235106341011480e+01 
161 1 2 1.1605682584842913e+00 -1.8670263838774081e+04 1.0000000000000000e+00 1.5421859954444173e+01 9.1701545542401295e+00 1.5235106341011480e+01 
90 1 2 1.1605682584842913e+00 -2.3624893427857995e+04 1.0000000000000000e+00 1.5421859954444173e+01 9.1701545542401295e+00 1.5235106341011480e+01 
131 1 2 1.1605682584842913e+00 -3.5793492144020187e+04 1.0000000000000000e+00 1.5421859954444173e+01 9.1701545542401295e+00 1.5235106341011480e+01 
125 1 2 1.1605682584842913e+00 -1.7784245665631701e+04 1.0000000000000000e+00 1.5421859954444173e+01 9.1701545542401295e+00 1.5235106341011480e+01 
126 1 2 1.1605682584842913e+00 -3.1624060505041933e+04 1.0000000000000000e+00 1.5421859954444173e+01 9.1701545542401295e+00 1.5235106341011480e+01 
141 1 2 5.8028412924214567e-01 -3.5685314272723364e+04 1.0000000000000000e+00 1.7248765075473344e+01 1.5925320411641943e+01 7.9792231012841324e+00 
177 1 2 5.8028412924214567e-01 -3.6407451617913393e+04 1.0000000000000000e+00 1.7248765075473344e+01 1.5925320411641943e+01 7.9792231012841324e+00 
171 1 2 5.8028412924214567e-01 -3.0427435949449617e+04 1.0000000000000000e+00 1.7248765075473344e+01 1.5925320411641943e+01 7.9792231012841324e+00 
172 1 2 5.8028412924214567e-01 -2.8949416893448251e+04 1.0000000000000000e+00 1.7248765075473344e+01 1.5925320411641943e+01 7.9792231012841324e+00 
149 1 2 5.8028412924214567e-01 -3.3164821176336191e+04 1.0000000000000000e+00 1.8049512594527055e+01 1.9695657962520652e+01 1.3082529502326462e+01 
178 1 2 5.8028412924214567e-01 -3.0611031271878848e+04 1.0000000000000000e+00 1.8049512594527055e+01 1.9695657962520656e+01 1.3082529502326462e+01 
179 1 2 5.8028412924214567e-01 -2.9086915795209839e+04 1.0000000000000000e+00 1.8049512594527055e+01 1.9695657962520656e+01 1.3082529502326462e+01 
155 1 2 5.8028412924214567e-01 -2.9708553935174801e+04 1.0000000000000000e+00 1.8049512594527055e+01 1.9695657962520652e+01 1.3082529502326462e+01 
173 1 2 4.3521309693160926e-01 -2.8959107465394380e+04 1.0000000000000000e+00 1.7893305545038757e+01 1.5336725951516998e+01 1.6300889297430608e+01 
174 1 2 4.3521309693160926e-01 -2.8655237876397667e+04 1.0000000000000000e+00 1.7893305545038757e+01 1.5336725951516998e+01 1.6300889297430608e+01 
180 1 2 4.3521309693160926e-01 -3.1076224995159311e+04 1.0000000000000000e+00 1.7893305545038757e+01 1.5336725951516998e+01 1.6300889297430608e+01 

Velocities

13 4.9406564584124654e-324 -4.9406564584124654e-324 4.9406564584124654e-324
8 4.9406564584124654e-324 -4.9406564584124654e-324 -4.9406564584124654e-324
15 4.9406564584124654e-324 -4.9406564584124654e-324 -4.9406564584124654e-324
14 4.9406564584124654e-324 -4.9406564584124654e-324 -4.9406564584124654e-324
45 -4.9406564584124654e-324 -4.9406564584124654e-324 4.9406564584124654e-324
9 -4.9406564584124654e-324 -4.9406564584124654e-324 4.9406564584124654e-324
10 -4.9406564584124654e-324 -4.9406564584124654e-324 4.9406564584124654e-324
52 -4.9406564584124654e-324 -4.9406564584124654e-324 4.9406564584124654e-324
46 -4.9406564584124654e-324 -4.9406564584124654e-324 4.9406564584124654e-324
17 -4.9406564584124654e-324 -4.9406564584124654e-324 4.9406564584124654e-324
12 -4.9406564584124654e-324 -4.9406564584124654e-324 4.9406564584124654e-324
18 -4.9406564584124654e-324 -4.9406564584124654e-324 4.9406564584124654e-324
11 -4.9406564584124654e-324 -4.9406564584124654e-324 4.9406564584124654e-324
33 -4.9406564584124654e-324 4.9406564584124654e-324 4.9406564584124654e-324
3 -4.9406564584124654e-324 4.9406564584124654e-324 4.9406564584124654e-324
2 -4.9406564584124654e-324 4.9406564584124654e-324 4.9406564584124654e-324
32 -4.9406564584124654e-324 4.9406564584124654e-324 4.9406564584124654e-324
109 -1.7443350775827369e+00 3.0285136248838103e+00 1.1306370850930505e+00
121 -1.4680854338177188e-01 -7.2211555432580454e-02 1.7096218873642374e-02
81 8.3515368621433439e-02 -1.5392973971821697e-01 7.8367206368440398e-02
62 3.9689819873744975e-01 1.3152569469032702e-01 8.9415089360017275e-01
54 2.3232071705463689e-01 -5.6748830299649533e-01 -1.8689325172183041e-01
118 2.9632514252583526e-02 -8.3347185132666257e-02 -1.3265093552596493e-02
85 1.2707130379838996e-01 6.3403976800918346e-02 7.3163376337393837e-02
120 3.6435434185069018e-02 -9.9875279822849911e-02 -7.5210027291285494e-02
79 8.9921055028161001e-02 -1.8530669795684857e-01 1.2200397610291709e+00
105 2.3677602258109251e-01 -1.4809762504347590e-01 -5.1297242296416556e-01
76 7.8582552061606650e-02 7.4321832538328053e-02 -5.1032062579479676e-02
39 1.0401994264578966e-01 2.2045412640458520e-02 -8.9132669640317075e-02
150 8.5161715924480363e-03 2.5152543766766552e-02 6.5199608366225376e-02
70 9.2510508449357542e-02 -1.5059668654590316e-01 -1.5374299181388695e-01
40 9.2510503882498707e-02 -1.5059668769266438e-01 -1.5374299072090891e-01
4 9.2510503882498707e-02 -1.5059668769266438e-01 -1.5374299072090891e-01
136 4.7448798033128931e-02 -8.2448155873025772e-02 -7.0498402310586072e-02
100 4.7448798043708884e-02 -8.2448155792719968e-02 -7.0498402276795880e-02
99 4.7448798022561106e-02 -8.2448155857711661e-02 -7.0498402343243755e-02
135 4.7448798132538134e-02 -8.2448156037215101e-02 -7.0498402339121871e-02
106 4.7448798015201049e-02 -8.2448155784238114e-02 -7.0498402286672285e-02
64 4.7448798046422783e-02 -8.2448155833758113e-02 -7.0498402337791630e-02
142 4.7448798072452780e-02 -8.2448155999120060e-02 -7.0498402374856425e-02
115 -8.8819457068499644e-03 -9.1653621903511256e-02 -7.9544968248529871e-02