LAMMPS data file via write_data, version 30 Jul 2016, timestep = 50000000

4620 atoms
8 atom types

0.0000000000000000e+00 1.0000000000000000e+02 xlo xhi
0.0000000000000000e+00 4.0000000000000000e+01 ylo yhi
0.0000000000000000e+00 4.0000000000000000e+01 zlo zhi

Masses

1 3.896
2 5.36
3 20.064
4 8.378
5 8.378
6 8.378
7 8.378
8 8.378

Atoms # meso-molecular

237 238 2 1.2467813888044947e+00 1.6396003624531381e+00 1.0000000000000000e+00 7.7779629575304443e-01 1.0000000000000000e+01 2.2254032915176170e-01 
418 419 2 1.2467813888044947e+00 -3.1825660790293906e+00 1.0000000000000000e+00 5.4404334599992898e+00 1.0000000000000000e+01 4.9655712876949698e-01 
310 311 2 1.2467814799860926e+00 -5.8683889102924178e+00 1.0000000000000000e+00 7.7962133081832716e+00 1.0000000000000000e+01 3.9198269647559231e-01 
410 411 2 1.2467813888044947e+00 -4.6755599414908291e+00 1.0000000000000000e+00 1.3765364116050630e+01 1.0000000000000000e+01 5.2683772129672235e-01 
145 146 2 1.2467813888044947e+00 -2.6221751665966124e+00 1.0000000000000000e+00 2.2697120298379762e+01 1.0000000000000000e+01 9.8996493064805124e-01 
277 278 2 1.2467814439878961e+00 -3.8262808100511818e+00 1.0000000000000000e+00 2.6467149058049852e+01 1.0000000000000000e+01 1.2571547590299523e+00 
269 270 2 1.2467813888044947e+00 -3.3144746990103409e+00 1.0000000000000000e+00 3.0242299296177727e+01 1.0000000000000000e+01 1.3836553117222992e+00 
699 700 2 1.2467813888044947e+00 1.6396003624531381e+00 1.0000000000000000e+00 7.7779629575304443e-01 1.2199999999999999e+01 2.2254032915176170e-01 
880 881 2 1.2467813888044947e+00 -3.1825660790293906e+00 1.0000000000000000e+00 5.4404334599992898e+00 1.2199999999999999e+01 4.9655712876949698e-01 
772 773 2 1.2467814799860926e+00 -5.8683889102924178e+00 1.0000000000000000e+00 7.7962133081832716e+00 1.2199999999999999e+01 3.9198269647559231e-01 
872 873 2 1.2467813888044947e+00 -4.6755599414908291e+00 1.0000000000000000e+00 1.3765364116050630e+01 1.2199999999999999e+01 5.2683772129672235e-01 
607 608 2 1.2467813888044947e+00 -2.6221751665966124e+00 1.0000000000000000e+00 2.2697120298379762e+01 1.2199999999999999e+01 9.8996493064805124e-01 
739 740 2 1.2467814439878961e+00 -3.8262808100511818e+00 1.0000000000000000e+00 2.6467149058049852e+01 1.2199999999999999e+01 1.2571547590299523e+00 
731 732 2 1.2467813888044947e+00 -3.3144746990103409e+00 1.0000000000000000e+00 3.0242299296177727e+01 1.2199999999999999e+01 1.3836553117222992e+00 
1145 1146 2 1.2467813888044947e+00 -2.3476115086260418e+00 1.0000000000000000e+00 2.9677146036687323e+00 1.4400000000000000e+01 3.4478836745262115e-01 
1131 1132 2 1.2467813888044947e+00 -1.7556161832612891e+00 1.0000000000000000e+00 5.5337173278089837e+00 1.4400000000000000e+01 1.2668343016733927e+00 
1171 1172 2 1.2467813888044947e+00 -2.8621345772817377e+00 1.0000000000000000e+00 8.7804665919638651e+00 1.4400000000000000e+01 9.0182625021014939e-01 
1004 1005 2 1.2467813888044947e+00 -7.5454918872668864e-01 1.0000000000000000e+00 1.2734485273889758e+01 1.4400000000000000e+01 3.2768146029619377e-01 
1132 1133 2 1.2467813888044947e+00 -3.4607895853391470e+00 1.0000000000000000e+00 1.5416183754630337e+01 1.4400000000000000e+01 2.8678047866098411e-01 
1371 1372 2 1.2467813888044947e+00 6.3536151536676311e+00 1.0000000000000000e+00 2.1954590076807879e+01 1.4400000000000000e+01 5.5076520564988773e-01 
1110 1111 2 1.2467813888044947e+00 -4.5829337527359852e+00 1.0000000000000000e+00 2.4531438012224456e+01 1.4400000000000000e+01 1.2853990063605998e+00 
925 926 2 1.2467813888044947e+00 1.1561187055838285e+01 1.0000000000000000e+00 3.1969732467709644e+01 1.4400000000000000e+01 5.3598086523277022e-01 
1756 1757 2 1.2467813888044947e+00 -3.8654165203203421e+00 1.0000000000000000e+00 1.5769555563422903e+00 1.6600000000000001e+01 9.2360142689571247e-03 
1703 1704 2 1.2467813888044947e+00 -5.7456475363142545e-01 1.0000000000000000e+00 4.1987932143701885e+00 1.6600000000000001e+01 1.2904506359163403e+00 
1593 1594 2 1.2467813888044947e+00 -1.7983493936856245e+00 1.0000000000000000e+00 7.4423991203117037e+00 1.6600000000000001e+01 9.2053971809359347e-01 
1419 1420 2 1.2467813888044947e+00 3.5255225293527968e+00 1.0000000000000000e+00 1.2884491212573623e+01 1.6600000000000001e+01 1.0336949981588393e+00 
1618 1619 2 1.2467813888044947e+00 6.7635159557607794e-01 1.0000000000000000e+00 1.7569449287694109e+01 1.6600000000000001e+01 1.1556479555719632e+00 
1458 1459 2 1.2467813888044947e+00 -1.6983170608561518e+00 1.0000000000000000e+00 2.8991026270850689e+01 1.6600000000000001e+01 7.2741582901815760e-01 
2175 2176 2 1.2467813888044947e+00 -1.0096028465416913e+00 1.0000000000000000e+00 1.0240563450633568e+01 1.8800000000000001e+01 9.1254385756497677e-02 
2108 2109 2 1.2467813888044947e+00 -4.5583429645358375e+00 1.0000000000000000e+00 1.3912850961334048e+01 1.8800000000000001e+01 2.9669273971396148e-01 
2260 2261 2 1.2467813888044947e+00 -1.4891251855731475e+00 1.0000000000000000e+00 2.3059926481690059e+01 1.8800000000000001e+01 3.1804341512496148e-01 
1911 1912 2 1.2467813888044947e+00 -3.5091882097983191e+00 1.0000000000000000e+00 2.8662261826410379e+01 1.8800000000000001e+01 3.7505354291365212e-01 
2252 2253 2 1.2467813888044947e+00 -3.6085405295437782e+00 1.0000000000000000e+00 3.2188110113143530e+01 1.8800000000000001e+01 3.2011963478413608e-01 
242 243 2 1.2467813888044947e+00 -2.2445055453199014e+00 1.0000000000000000e+00 1.9596441374182803e+00 1.0000000000000000e+01 2.4874398128974526e+00 
365 366 2 1.2467813888044947e+00 -4.8482947824086065e+00 1.0000000000000000e+00 4.4098469330270689e+00 1.0000000000000000e+01 2.4081426294904884e+00 
230 231 2 1.2467814799860926e+00 -1.4147572328154776e+00 1.0000000000000000e+00 8.3994450471512216e+00 1.0000000000000000e+01 2.3850854412657325e+00 
322 323 2 1.2467813888044947e+00 -3.7023826363533914e+00 1.0000000000000000e+00 1.1858835788281599e+01 1.0000000000000000e+01 1.6052061637087196e+00 
228 229 2 1.2467813888044947e+00 4.8380146684676012e-01 1.0000000000000000e+00 1.7877113392519355e+01 1.0000000000000000e+01 2.8379991080671001e+00 
18 19 2 1.2467821633781779e+00 3.8656109068198861e+00 1.0000000000000000e+00 2.4842342733253233e+01 1.0000000000000000e+01 2.5617830298368216e+00 
704 705 2 1.2467813888044947e+00 -2.2445055453199014e+00 1.0000000000000000e+00 1.9596441374182803e+00 1.2199999999999999e+01 2.4874398128974526e+00 
827 828 2 1.2467813888044947e+00 -4.8482947824086065e+00 1.0000000000000000e+00 4.4098469330270689e+00 1.2199999999999999e+01 2.4081426294904884e+00 
692 693 2 1.2467814799860926e+00 -1.4147572328154776e+00 1.0000000000000000e+00 8.3994450471512216e+00 1.2199999999999999e+01 2.3850854412657325e+00 
784 785 2 1.2467813888044947e+00 -3.7023826363533914e+00 1.0000000000000000e+00 1.1858835788281599e+01 1.2199999999999999e+01 1.6052061637087196e+00 
690 691 2 1.2467813888044947e+00 4.8380146684676012e-01 1.0000000000000000e+00 1.7877113392519355e+01 1.2199999999999999e+01 2.8379991080671001e+00 
480 481 2 1.2467821633781779e+00 3.8656109068198861e+00 1.0000000000000000e+00 2.4842342733253233e+01 1.2199999999999999e+01 2.5617830298368216e+00 
1230 1231 2 1.2467813888044947e+00 -4.2831003612877696e+00 1.0000000000000000e+00 1.4939629707188069e+00 1.4400000000000000e+01 2.7897456981418847e+00 
1259 1260 2 1.2467813888044947e+00 -2.0983186763693458e+00 1.0000000000000000e+00 3.5722125766569497e+00 1.4400000000000000e+01 2.3991463580267731e+00 
1020 1021 2 1.2467813888044947e+00 -5.3026483390487513e+00 1.0000000000000000e+00 1.3547112185591919e+01 1.4400000000000000e+01 2.5910936665116364e+00 
1361 1362 2 1.2467813888044947e+00 4.0164372816441407e+00 1.0000000000000000e+00 1.9600944845104625e+01 1.4400000000000000e+01 1.9573240694603791e+00 
1164 1165 2 1.2467813888044947e+00 -1.5897317444238623e+00 1.0000000000000000e+00 2.7156849780873802e+01 1.4400000000000000e+01 1.7546744299646710e+00 
1670 1671 2 1.2467813888044947e+00 -5.1651788536081753e+00 1.0000000000000000e+00 9.7875359028829703e+00 1.6600000000000001e+01 1.4541330891505788e+00 
1749 1750 2 1.2467813888044947e+00 -2.3374510885858264e+00 1.0000000000000000e+00 2.1609409321386696e+01 1.6600000000000001e+01 1.7068651374744155e+00 
1485 1486 2 1.2467813888044947e+00 -2.6787314640690485e+00 1.0000000000000000e+00 2.4233662207195337e+01 1.6600000000000001e+01 2.8103712762387714e+00 
1802 1803 2 1.2467813888044947e+00 -2.5203785410772324e+00 1.0000000000000000e+00 2.6797285736548130e+01 1.6600000000000001e+01 2.7959365271184673e+00 
1621 1622 2 1.2467813888044947e+00 1.5991141905667883e+00 1.0000000000000000e+00 3.1305570913494662e+01 1.6600000000000001e+01 1.5873362302126404e+00 
1491 1492 2 1.2467813888044947e+00 -3.0191918254835555e+00 1.0000000000000000e+00 3.3333327359351813e+01 1.6600000000000001e+01 2.3760072803440853e+00 
1984 1985 2 1.2467813888044947e+00 -5.2376827505097756e+00 1.0000000000000000e+00 7.5642675615829447e+00 1.8800000000000001e+01 2.7051890627380262e+00 
2158 2159 2 1.2467813888044947e+00 -5.8354600809746096e+00 1.0000000000000000e+00 1.1326046913913656e+01 1.8800000000000001e+01 2.2186125265307837e+00 
2303 2304 2 1.2467813888044947e+00 4.4323987502431859e+00 1.0000000000000000e+00 1.4644034601373626e+01 1.8800000000000001e+01 2.7554645256317034e+00 
2262 2263 2 1.2467813888044947e+00 -7.6229585547681866e-01 1.0000000000000000e+00 2.2824885523410369e+01 1.8800000000000001e+01 2.8292231059240263e+00 
1884 1885 2 1.2467813888044947e+00 3.4188389393165828e+00 1.0000000000000000e+00 2.9444811513973082e+01 1.8800000000000001e+01 2.5271543693306695e+00 
362 363 2 1.2467813888044947e+00 -4.1063833423075584e+00 1.0000000000000000e+00 1.3766451849383406e+01 1.0000000000000000e+01 3.1374139460761810e+00 
251 252 2 1.2467813888044947e+00 -1.6690210235708327e+00 1.0000000000000000e+00 2.0822088438730923e+01 1.0000000000000000e+01 3.9579627227126939e+00 
448 449 2 1.2467821081947765e+00 5.0768576334590989e+00 1.0000000000000000e+00 2.3038014445085647e+01 1.0000000000000000e+01 3.5789302051509995e+00 
276 277 2 1.2467813888044947e+00 -3.1353597777948239e+00 1.0000000000000000e+00 2.7823034836491779e+01 1.0000000000000000e+01 3.5328023140057581e+00 
341 342 2 1.2467813888044947e+00 -1.0488745806013731e-01 1.0000000000000000e+00 3.0090511633428971e+01 1.0000000000000000e+01 4.2360061189590166e+00 
168 169 2 1.2467813888044947e+00 1.7465558342739822e+00 1.0000000000000000e+00 3.1920675218715903e+01 1.0000000000000000e+01 3.1870318271264209e+00 
824 825 2 1.2467813888044947e+00 -4.1063833423075584e+00 1.0000000000000000e+00 1.3766451849383406e+01 1.2199999999999999e+01 3.1374139460761810e+00 
713 714 2 1.2467813888044947e+00 -1.6690210235708327e+00 1.0000000000000000e+00 2.0822088438730923e+01 1.2199999999999999e+01 3.9579627227126939e+00 
910 911 2 1.2467821081947765e+00 5.0768576334590989e+00 1.0000000000000000e+00 2.3038014445085647e+01 1.2199999999999999e+01 3.5789302051509995e+00 
738 739 2 1.2467813888044947e+00 -3.1353597777948239e+00 1.0000000000000000e+00 2.7823034836491779e+01 1.2199999999999999e+01 3.5328023140057581e+00 
803 804 2 1.2467813888044947e+00 -1.0488745806013731e-01 1.0000000000000000e+00 3.0090511633428971e+01 1.2199999999999999e+01 4.2360061189590166e+00 
630 631 2 1.2467813888044947e+00 1.7465558342739822e+00 1.0000000000000000e+00 3.1920675218715903e+01 1.2199999999999999e+01 3.1870318271264209e+00 
1186 1187 2 1.2467813888044947e+00 -4.5130310786434285e+00 1.0000000000000000e+00 1.1421844280421658e+01 1.4400000000000000e+01 3.0987412339025386e+00 
1266 1267 2 1.2467813888044947e+00 -3.0155114276050838e+00 1.0000000000000000e+00 2.0713190103667653e+01 1.4400000000000000e+01 3.8921366407084719e+00 
1312 1313 2 1.2467813888044947e+00 -3.6508770629315626e+00 1.0000000000000000e+00 2.5834145922344074e+01 1.4400000000000000e+01 4.0385994394114570e+00 
1018 1019 2 1.2467813888044947e+00 -1.0943953190354061e+00 1.0000000000000000e+00 2.8719994362304316e+01 1.4400000000000000e+01 4.1577666345380608e+00 
1078 1079 2 1.2467813888044947e+00 -1.5364393421959137e+00 1.0000000000000000e+00 3.2873308242230870e+01 1.4400000000000000e+01 3.4148989828748291e+00 
1761 1762 2 1.2467813888044947e+00 -2.5572605547611271e+00 1.0000000000000000e+00 2.4558008528103281e+00 1.6600000000000001e+01 3.2720281898091557e+00 
1788 1789 2 1.2467813888044947e+00 -3.9613205743386004e+00 1.0000000000000000e+00 7.8621964047601027e+00 1.6600000000000001e+01 3.3847088971784793e+00 
1579 1580 2 1.2467813888044947e+00 -3.4393696979034791e+00 1.0000000000000000e+00 1.5908743458776003e+01 1.6600000000000001e+01 3.3256187765520342e+00 
1823 1824 2 1.2467813888044947e+00 4.5091195400845603e+00 1.0000000000000000e+00 1.9487873562644186e+01 1.6600000000000001e+01 2.8805953273152287e+00 
1937 1938 2 1.2467813888044947e+00 -2.0499248353186101e+00 1.0000000000000000e+00 1.7070774130759614e-01 1.8800000000000001e+01 3.6561772361591993e+00 
2250 2251 2 1.2467813888044947e+00 -4.1710546981062953e+00 1.0000000000000000e+00 1.8974243361341440e+01 1.8800000000000001e+01 3.4161004817212555e+00 
2281 2282 2 1.2467813888044947e+00 4.2139079418320335e+00 1.0000000000000000e+00 2.7137505743864477e+01 1.8800000000000001e+01 3.2652464259675069e+00 
1913 1914 2 1.2467813888044947e+00 5.2178554914742703e-01 1.0000000000000000e+00 3.1701138334698392e+01 1.8800000000000001e+01 3.8017982590589114e+00 
220 221 2 1.2467813888044947e+00 -1.8140530734206188e+00 1.0000000000000000e+00 2.8140453247886295e+00 1.0000000000000000e+01 4.6048973905428987e+00 
13 14 2 1.2467813888044947e+00 4.0208399876815406e+00 1.0000000000000000e+00 8.0032272046155413e+00 1.0000000000000000e+01 4.4902217273014591e+00 
82 83 2 1.2467813888044947e+00 -3.0176091893209298e+00 1.0000000000000000e+00 1.0571797459619386e+01 1.0000000000000000e+01 4.8351802204306695e+00 
180 181 2 1.2467813888044947e+00 -4.6140233896143457e+00 1.0000000000000000e+00 1.4831985237971914e+01 1.0000000000000000e+01 5.2488819755481346e+00 
682 683 2 1.2467813888044947e+00 -1.8140530734206046e+00 1.0000000000000000e+00 2.8140453247886295e+00 1.2199999999999999e+01 4.6048973905428987e+00 
475 476 2 1.2467813888044947e+00 4.0208399876815406e+00 1.0000000000000000e+00 8.0032272046155413e+00 1.2199999999999999e+01 4.4902217273014591e+00 
544 545 2 1.2467813888044947e+00 -3.0176091893209298e+00 1.0000000000000000e+00 1.0571797459619386e+01 1.2199999999999999e+01 4.8351802204306695e+00 
642 643 2 1.2467813888044947e+00 -4.6140233896143457e+00 1.0000000000000000e+00 1.4831985237971914e+01 1.2199999999999999e+01 5.2488819755481346e+00 
1050 1051 2 1.2467813888044947e+00 3.4343495440139966e+00 1.0000000000000000e+00 2.9667831980538919e+00 1.4400000000000000e+01 5.4439811234804392e+00 
941 942 2 1.2467813888044947e+00 4.3229692700602733e+00 1.0000000000000000e+00 5.5824191338951774e+00 1.4400000000000000e+01 5.1727836339063309e+00 
1000 1001 2 1.2467813888044947e+00 -3.6963236723715029e+00 1.0000000000000000e+00 7.5644789784779505e+00 1.4400000000000000e+01 4.3871265811792890e+00 
1348 1349 2 1.2467813888044947e+00 4.5681864115874955e+00 1.0000000000000000e+00 1.8299966727436651e+01 1.4400000000000000e+01 4.3320031352342410e+00 
949 950 2 1.2467813888044947e+00 8.2394360524748222e+00 1.0000000000000000e+00 2.3312930837671519e+01 1.4400000000000000e+01 4.6430894731006855e+00 
1471 1472 2 1.2467831925611190e+00 4.5952362644074762e+00 1.0000000000000000e+00 5.3932628932749649e-01 1.6600000000000001e+01 5.6707973174840181e+00 
1603 1604 2 1.2467813888044947e+00 1.1798304229419165e-03 1.0000000000000000e+00 4.4708352571189405e+00 1.6600000000000001e+01 5.6069143555825063e+00 
1762 1763 2 1.2467813954483962e+00 -4.0147603689040334e+00 1.0000000000000000e+00 1.1536284011914740e+01 1.6600000000000001e+01 4.3247821412708438e+00 
1408 1409 2 1.2467813888044947e+00 4.9040056570965866e+00 1.0000000000000000e+00 1.6581566189602707e+01 1.6600000000000001e+01 5.6824372310265296e+00 
1620 1621 2 1.2467813888044947e+00 -1.0676960087410968e-01 1.0000000000000000e+00 2.6202115606378737e+01 1.6600000000000001e+01 4.9771735728043085e+00 
1462 1463 2 1.2467813888044947e+00 -3.3313034137883424e+00 1.0000000000000000e+00 2.9619992026259400e+01 1.6600000000000001e+01 4.6223419902399057e+00 
1705 1706 2 1.2467813888044947e+00 -1.8805707981315196e+00 1.0000000000000000e+00 3.1900734044908887e+01 1.6600000000000001e+01 4.6743277460631880e+00 
2077 2078 2 1.2467813888044947e+00 1.7859754181561236e+00 1.0000000000000000e+00 5.3408658960542779e+00 1.8800000000000001e+01 5.1923186084482253e+00 
2076 2077 2 1.2467813888044947e+00 1.5202591492718645e+00 1.0000000000000000e+00 1.0532190854392693e+01 1.8800000000000001e+01 5.0071241768528516e+00 
2284 2285 2 1.2467813888044947e+00 4.9554358177487092e+00 1.0000000000000000e+00 1.3055308023333160e+01 1.8800000000000001e+01 5.2875684270229470e+00 
1985 1986 2 1.2467813888044947e+00 -2.4390429833388008e+00 1.0000000000000000e+00 1.6336026817483237e+01 1.8800000000000001e+01 5.6945393912028974e+00 
2032 2033 2 1.2467813888044947e+00 -3.2063528866291309e+00 1.0000000000000000e+00 2.2321336043221553e+01 1.8800000000000001e+01 5.4030407980443265e+00 
2130 2131 2 1.2467813888044947e+00 -1.4018522270730789e+00 1.0000000000000000e+00 2.6866821878715960e+01 1.8800000000000001e+01 5.3975316184593600e+00 
117 118 2 1.2467813888044947e+00 -9.0686649379982343e-01 1.0000000000000000e+00 6.2904988870234098e+00 1.0000000000000000e+01 7.0864534111536930e+00 
176 177 2 1.2467813888044947e+00 -4.4081458617560392e+00 1.0000000000000000e+00 8.9097274973836313e+00 1.0000000000000000e+01 6.4078027079481936e+00 
238 239 2 1.2467813887822099e+00 -1.1448777627152142e+00 1.0000000000000000e+00 1.3007529573840351e+01 1.0000000000000000e+01 7.1163467539412411e+00 
133 134 2 1.2467813888044947e+00 -3.6685995672240925e+00 1.0000000000000000e+00 1.8915264012191443e+01 1.0000000000000000e+01 6.1441106978304116e+00 
247 248 2 1.2467813888044947e+00 -2.9065630507331086e+00 1.0000000000000000e+00 2.1610660141044693e+01 1.0000000000000000e+01 6.8051659177492150e+00 
431 432 2 1.2467813888044947e+00 7.1424520777573779e+00 1.0000000000000000e+00 2.6708125791163180e+01 1.0000000000000000e+01 5.7960020144665672e+00 
404 405 2 1.2467815574102814e+00 -3.2864044689432323e+00 1.0000000000000000e+00 2.8878270057448521e+01 1.0000000000000000e+01 6.8396843653973249e+00 
324 325 2 1.2467813888044947e+00 -5.2490828999435823e+00 1.0000000000000000e+00 3.1833977218347048e+01 1.0000000000000000e+01 5.8882183818641671e+00 
579 580 2 1.2467813888044947e+00 -9.0686649379982343e-01 1.0000000000000000e+00 6.2904988870234098e+00 1.2199999999999999e+01 7.0864534111536930e+00 
638 639 2 1.2467813888044947e+00 -4.4081458617560392e+00 1.0000000000000000e+00 8.9097274973836313e+00 1.2199999999999999e+01 6.4078027079481936e+00 
700 701 2 1.2467813887822099e+00 -1.1448777627152142e+00 1.0000000000000000e+00 1.3007529573840351e+01 1.2199999999999999e+01 7.1163467539412411e+00 
595 596 2 1.2467813888044947e+00 -3.6685995672240925e+00 1.0000000000000000e+00 1.8915264012191443e+01 1.2199999999999999e+01 6.1441106978304116e+00 
709 710 2 1.2467813888044947e+00 -2.9065630507331086e+00 1.0000000000000000e+00 2.1610660141044693e+01 1.2199999999999999e+01 6.8051659177492150e+00 
893 894 2 1.2467813888044947e+00 7.1424520777573779e+00 1.0000000000000000e+00 2.6708125791163180e+01 1.2199999999999999e+01 5.7960020144665672e+00 
866 867 2 1.2467815574102814e+00 -3.2864044689432323e+00 1.0000000000000000e+00 2.8878270057448521e+01 1.2199999999999999e+01 6.8396843653973249e+00 
786 787 2 1.2467813888044947e+00 -5.2490828999435823e+00 1.0000000000000000e+00 3.1833977218347048e+01 1.2199999999999999e+01 5.8882183818641671e+00 
1207 1208 2 1.2467813888044947e+00 -8.3058817856554112e-02 1.0000000000000000e+00 1.2000741541021029e+01 1.4400000000000000e+01 7.0452017561675717e+00 
1262 1263 2 1.2467813888044947e+00 -4.1106335271729941e+00 1.0000000000000000e+00 1.6373693164550961e+01 1.4400000000000000e+01 6.1184368221289960e+00 
1036 1037 2 1.2467813888044947e+00 -1.4901531693124157e+00 1.0000000000000000e+00 1.8757729504836231e+01 1.4400000000000000e+01 6.4940088623837147e+00 
1244 1245 2 1.2467813888044947e+00 -3.2759446429145820e+00 1.0000000000000000e+00 2.1944199556064511e+01 1.4400000000000000e+01 6.9481059191150969e+00 
1054 1055 2 1.2467813888044947e+00 -3.8398512171241874e+00 1.0000000000000000e+00 2.6570566741974481e+01 1.4400000000000000e+01 6.9018142895864418e+00 
1129 1130 2 1.2467813888044947e+00 -2.2179510942997411e+00 1.0000000000000000e+00 2.9391096294296009e+01 1.4400000000000000e+01 6.2732168824064694e+00 
1228 1229 2 1.2467813888044947e+00 -5.3593128706775692e+00 1.0000000000000000e+00 3.1982882868185598e+01 1.4400000000000000e+01 6.2038217749845082e+00 
1448 1449 2 1.2467813954483962e+00 -2.2055634023769666e+00 1.0000000000000000e+00 1.2114278997812306e+01 1.6600000000000001e+01 6.3337621592830775e+00 
1587 1588 2 1.2467813888044947e+00 -2.8935541015371804e+00 1.0000000000000000e+00 3.3318841858000418e+01 1.6600000000000001e+01 6.5714507508122999e+00 
2186 2187 2 1.2467813888044947e+00 -3.2307489927326216e+00 1.0000000000000000e+00 1.5570499918927044e-01 1.8800000000000001e+01 6.1739257046591156e+00 
2029 2030 2 1.2467813888044947e+00 -9.6650514857722847e-01 1.0000000000000000e+00 2.3303171137384711e+00 1.8800000000000001e+01 5.8117303092050268e+00 
1944 1945 2 1.2467813888044947e+00 -6.0810101071480078e+00 1.0000000000000000e+00 8.4500287246420598e+00 1.8800000000000001e+01 6.2905561672894965e+00 
2231 2232 2 1.2467813888044947e+00 -3.2153266860687006e+00 1.0000000000000000e+00 1.9942871766851397e+01 1.8800000000000001e+01 5.9819822775168170e+00 
1887 1888 2 1.2467813888044947e+00 3.4330361622564185e+00 1.0000000000000000e+00 3.1985912885613118e+01 1.8800000000000001e+01 5.9856784543100954e+00 
35 36 2 1.2467813887822099e+00 6.6307792026398156e+00 1.0000000000000000e+00 1.0908402993184263e+01 1.0000000000000000e+01 7.1466296129435189e+00 
177 178 2 1.2467813888044947e+00 -4.8532635360773870e+00 1.0000000000000000e+00 1.9982263438479261e+01 1.0000000000000000e+01 8.3697051684893502e+00 
166 167 2 1.2467815574102814e+00 -1.1557383790837332e+00 1.0000000000000000e+00 3.0231146807369829e+01 1.0000000000000000e+01 8.4202193464981168e+00 
497 498 2 1.2467813887822099e+00 6.6307792026398156e+00 1.0000000000000000e+00 1.0908402993184263e+01 1.2199999999999999e+01 7.1466296129435189e+00 
639 640 2 1.2467813888044947e+00 -4.8532635360773870e+00 1.0000000000000000e+00 1.9982263438479261e+01 1.2199999999999999e+01 8.3697051684893502e+00 
628 629 2 1.2467815574102814e+00 -1.1557383790837332e+00 1.0000000000000000e+00 3.0231146807369829e+01 1.2199999999999999e+01 8.4202193464981168e+00 
1227 1228 2 1.2467813888044947e+00 -3.2863716614710885e+00 1.0000000000000000e+00 1.7970837917763351e+00 1.4400000000000000e+01 8.0992092716243356e+00 
1106 1107 2 1.2467813888044947e+00 -1.8631316372824500e+00 1.0000000000000000e+00 4.1859575135959171e+00 1.4400000000000000e+01 7.7629223325037735e+00 
1031 1032 2 1.2467813888044947e+00 -2.2427152450386885e+00 1.0000000000000000e+00 6.9080804750036044e+00 1.4400000000000000e+01 7.2648530199666785e+00 
989 990 2 1.2467813888044947e+00 -1.7537883270941701e-01 1.0000000000000000e+00 1.9454707995847297e+01 1.4400000000000000e+01 8.5701224928793724e+00 
1137 1138 2 1.2467813888044947e+00 -2.1304886308021738e+00 1.0000000000000000e+00 2.4259540432920346e+01 1.4400000000000000e+01 7.5046074061784669e+00 
1261 1262 2 1.2467813888044947e+00 3.2079019518917873e+00 1.0000000000000000e+00 3.2841469290814331e+01 1.4400000000000000e+01 8.3558933863262173e+00 
1430 1431 2 1.2467813888044947e+00 -7.2963068626337513e-01 1.0000000000000000e+00 1.5292072110059072e+00 1.6600000000000001e+01 7.6609899918820847e+00 
1461 1462 2 1.2467813888044947e+00 -4.2981463665228388e+00 1.0000000000000000e+00 6.1601549949867875e+00 1.6600000000000001e+01 7.4752349619535368e+00 
1449 1450 2 1.2467813888044947e+00 -3.3212723811667324e+00 1.0000000000000000e+00 9.6413172813886909e+00 1.6600000000000001e+01 7.2403840718376280e+00 
1608 1609 2 1.2467813888044947e+00 -8.9504217725555524e-01 1.0000000000000000e+00 1.2023705204246850e+01 1.6600000000000001e+01 8.5057005621038773e+00 
1533 1534 2 1.2467813888044947e+00 -1.1217867562081543e+00 1.0000000000000000e+00 1.5087299519863473e+01 1.6600000000000001e+01 7.4170416854671952e+00 
1496 1497 2 1.2467813888044947e+00 -2.9665560387826222e+00 1.0000000000000000e+00 1.9726008873696756e+01 1.6600000000000001e+01 8.1441897360226445e+00 
1780 1781 2 1.2467813888044947e+00 -2.8456756632878144e+00 1.0000000000000000e+00 2.4081207075185382e+01 1.6600000000000001e+01 7.4374631031695495e+00 
1750 1751 2 1.2467813888044947e+00 -4.7340748201117666e+00 1.0000000000000000e+00 3.1326320716133939e+01 1.6600000000000001e+01 7.9786447278381587e+00 
1971 1972 2 1.2467813888044947e+00 -4.3275080294736075e+00 1.0000000000000000e+00 3.9179410109328905e-01 1.8800000000000001e+01 8.5088733347088485e+00 
2268 2269 2 1.2467813888044947e+00 5.6517156913729298e+00 1.0000000000000000e+00 6.6486433726463376e+00 1.8800000000000001e+01 8.3968163502648743e+00 
2249 2250 2 1.2467813888044947e+00 8.9897528657952042e-01 1.0000000000000000e+00 1.5778620816600588e+01 1.8800000000000001e+01 8.2863242641030705e+00 
2264 2265 2 1.2467813888044947e+00 -4.2618797561640269e+00 1.0000000000000000e+00 1.8828675807329390e+01 1.8800000000000001e+01 8.1583048076152984e+00 
1872 1873 2 1.2467813888044947e+00 2.7363667652692216e+00 1.0000000000000000e+00 2.5534317126743986e+01 1.8800000000000001e+01 7.6744642183613125e+00 
216 217 2 1.2467813888044947e+00 -1.8846874563074181e+00 1.0000000000000000e+00 5.4060673566036010e+00 1.0000000000000000e+01 9.2344129294448987e+00 
26 27 2 1.2467813888044947e+00 4.1053316483841140e+00 1.0000000000000000e+00 9.2992719558292212e+00 1.0000000000000000e+01 9.1091604756474513e+00 
259 260 2 1.2467836291843635e+00 -2.7279587612580656e+00 1.0000000000000000e+00 1.2840835020904404e+01 1.0000000000000000e+01 9.4790336013881404e+00 
445 446 2 1.2467813888044947e+00 4.6888049734789625e+00 1.0000000000000000e+00 1.7658374552192626e+01 1.0000000000000000e+01 8.8272772690395698e+00 
86 87 2 1.2467813888044947e+00 -2.4445630053700467e+00 1.0000000000000000e+00 2.2682636587710171e+01 1.0000000000000000e+01 8.7080926498293358e+00 
266 267 2 1.2467813888044947e+00 -3.0005258641367423e+00 1.0000000000000000e+00 2.5458286999521576e+01 1.0000000000000000e+01 8.5957363338420496e+00 
309 310 2 1.2467813888044947e+00 -5.0086470507933250e+00 1.0000000000000000e+00 2.7526182694463856e+01 1.0000000000000000e+01 9.5422027222149577e+00 
17 18 2 1.2467813888044947e+00 4.6200660192510004e+00 1.0000000000000000e+00 3.3095722524389025e+01 1.0000000000000000e+01 9.4026543067451005e+00 
678 679 2 1.2467813888044947e+00 -1.8846874563074181e+00 1.0000000000000000e+00 5.4060673566036010e+00 1.2199999999999999e+01 9.2344129294448987e+00 
488 489 2 1.2467813888044947e+00 4.1053316483841140e+00 1.0000000000000000e+00 9.2992719558292212e+00 1.2199999999999999e+01 9.1091604756474513e+00 
721 722 2 1.2467836291843635e+00 -2.7279587612580656e+00 1.0000000000000000e+00 1.2840835020904404e+01 1.2199999999999999e+01 9.4790336013881404e+00 
907 908 2 1.2467813888044947e+00 4.6888049734789625e+00 1.0000000000000000e+00 1.7658374552192626e+01 1.2199999999999999e+01 8.8272772690395698e+00 
548 549 2 1.2467813888044947e+00 -2.4445630053700467e+00 1.0000000000000000e+00 2.2682636587710171e+01 1.2199999999999999e+01 8.7080926498293358e+00 
728 729 2 1.2467813888044947e+00 -3.0005258641367423e+00 1.0000000000000000e+00 2.5458286999521576e+01 1.2199999999999999e+01 8.5957363338420496e+00 
771 772 2 1.2467813888044947e+00 -5.0086470507933250e+00 1.0000000000000000e+00 2.7526182694463856e+01 1.2199999999999999e+01 9.5422027222149577e+00 
479 480 2 1.2467813888044947e+00 4.6200660192510004e+00 1.0000000000000000e+00 3.3095722524389025e+01 1.2199999999999999e+01 9.4026543067451005e+00 
1168 1169 2 1.2467813888044947e+00 -1.4593679532741470e+00 1.0000000000000000e+00 9.1601555131560577e+00 1.4400000000000000e+01 9.6865875665432188e+00 
1067 1068 2 1.2467813888044947e+00 -2.6214773526663500e+00 1.0000000000000000e+00 1.2321816901186924e+01 1.4400000000000000e+01 9.1455017694454916e+00 
1134 1135 2 1.2467813888044947e+00 2.6810871388285413e+00 1.0000000000000000e+00 1.5208480733290747e+01 1.4400000000000000e+01 9.4790097746066930e+00 
1184 1185 2 1.2467813888044947e+00 -4.2524543727825890e+00 1.0000000000000000e+00 2.6093307385886387e+01 1.4400000000000000e+01 9.4487128014144641e+00 
1700 1701 2 1.2467813888044947e+00 -3.6673041162126472e+00 1.0000000000000000e+00 1.0902436421974917e+00 1.6600000000000001e+01 9.7209739781987032e+00 
1638 1639 2 1.2467813888044947e+00 6.4283857996248734e+00 1.0000000000000000e+00 8.4600625211978162e+00 1.6600000000000001e+01 9.0678142905128372e+00 
1716 1717 2 1.2467813888044947e+00 -3.2550011706376170e+00 1.0000000000000000e+00 1.6925812008406449e+01 1.6600000000000001e+01 8.8248383358023759e+00 
1571 1572 2 1.2467814955810559e+00 -2.4782157787259491e+00 1.0000000000000000e+00 2.1950180723569357e+01 1.6600000000000001e+01 8.6053386858844405e+00 
1427 1428 2 1.2467813888044947e+00 4.3489323830701156e+00 1.0000000000000000e+00 2.5997002891766513e+01 1.6600000000000001e+01 9.7384555336022185e+00 
1534 1535 2 1.2467813888044947e+00 -5.9612222258384140e+00 1.0000000000000000e+00 2.8848447281972607e+01 1.6600000000000001e+01 9.0029029858512910e+00 
2040 2041 2 1.2467813888044947e+00 -1.1043961516912817e+00 1.0000000000000000e+00 3.8282336728252169e+00 1.8800000000000001e+01 9.3426551117226264e+00 
1956 1957 2 1.2467813888044947e+00 -3.5064138987153690e+00 1.0000000000000000e+00 1.0084677717234699e+01 1.8800000000000001e+01 9.9764016126858284e+00 
2070 2071 2 1.2467813888044947e+00 -1.8444816842078113e+00 1.0000000000000000e+00 1.2591633619551818e+01 1.8800000000000001e+01 9.7379550281247660e+00 