LAMMPS data file via write_data, version 30 Jul 2016, timestep = 50400000

644 atoms
2 atom types

0.0000000000000000e+00 2.0000000000000000e+01 xlo xhi
0.0000000000000000e+00 2.0000000000000000e+01 ylo yhi
0.0000000000000000e+00 2.0000000000000000e+01 zlo zhi

Masses

1 7
2 3.896

Atoms # meso-molecular

311 0 1 1.0257657700703924e+00 -5.0389147872888415e+01 1.0000000000000000e+00 2.1791718155652009e+00 8.8139342558324518e-01 3.1346680768886115e+00 
104 0 1 1.0491465078321678e+00 -5.1288641958510304e+01 1.0000000000000000e+00 2.1243737013286896e+00 1.3172357761753841e+00 3.0871292011964790e+00 
586 0 1 1.0181130541586183e+00 -4.6590928988755831e+00 1.0000000000000000e+00 2.2909286346573019e+00 1.5477181492583039e+00 1.9601319492941094e+00 
470 0 1 9.9849594770988104e-01 -1.3067688405856725e+01 1.0000000000000000e+00 2.6635716287738154e+00 3.3288570394331622e+00 1.8184300112699303e+00 
535 0 1 1.0202779530564523e+00 -4.7292200025294925e+01 1.0000000000000000e+00 2.7690185409678612e+00 3.0447791757427192e+00 1.6155402291088550e+00 
514 0 1 1.0366066854936193e+00 -3.7911997817389484e+01 1.0000000000000000e+00 4.0370050802678810e+00 1.7721894033488113e+00 2.2984912084242257e+00 
491 0 1 1.0029183424918582e+00 -5.0628554929235882e+01 1.0000000000000000e+00 5.7050504999195528e+00 1.6937650321052963e-01 2.1018978485741839e+00 
318 0 1 1.0536986261444885e+00 -3.8021300253247631e+01 1.0000000000000000e+00 6.2286617076214394e+00 3.0149382359810915e+00 9.7311929565183941e-01 
502 0 1 1.0241903904039247e+00 -3.3161785661370594e+01 1.0000000000000000e+00 5.8161839383219762e+00 2.9864291948232942e+00 1.4579957179026160e+00 
211 0 1 1.0328913745160435e+00 -5.4405679850594915e+01 1.0000000000000000e+00 3.6221024786658882e+00 3.8694255258310490e+00 4.9760303543551399e-01 
77 0 1 1.0253399886937589e+00 -1.5490886977449209e+01 1.0000000000000000e+00 5.3047408683516730e+00 6.1564026730051840e+00 2.7412907652896618e-01 
362 0 1 1.0322180491677819e+00 -2.4881871143534696e+01 1.0000000000000000e+00 5.0498411216029417e+00 4.8799522087289855e+00 1.5616728240060240e+00 
266 0 1 1.0218482500814678e+00 -2.9500706205031189e+01 1.0000000000000000e+00 6.3768324362267803e+00 5.0102397791731867e+00 2.4249441872085766e+00 
624 0 1 1.0081324918165406e+00 -3.2385286613015715e+01 1.0000000000000000e+00 6.2683135801082557e+00 4.8060567241631871e+00 2.7171595981712140e+00 
613 0 1 1.0169904991718139e+00 -1.1964881244843591e+01 1.0000000000000000e+00 2.9106133833058703e+00 7.5858388281511768e+00 1.5315841763518359e+00 
150 0 1 1.0091350015845879e+00 -1.8625576386498835e+01 1.0000000000000000e+00 3.0892702241095811e+00 6.9372073626526198e+00 2.4932936115345736e+00 
305 0 1 1.0028184095727140e+00 -3.9276029664036663e+01 1.0000000000000000e+00 1.5112499224081997e+00 9.1557170996142077e+00 2.4247171959594080e+00 
349 0 1 1.0649176702254464e+00 -5.4826922796484659e+01 1.0000000000000000e+00 1.4508503886210846e+00 9.6797119693746172e+00 1.6974116311064444e+00 
37 0 1 1.0381226218345900e+00 -1.7839711483215059e+01 1.0000000000000000e+00 2.9703585711842857e+00 7.8498520314811326e+00 2.9021945705201251e+00 
326 0 1 1.0035461884910970e+00 -4.1634170047266714e+01 1.0000000000000000e+00 1.1213243947452047e+00 9.9920644526361375e+00 1.8013399543159139e+00 
94 0 1 1.0314931861796552e+00 -2.9819316842145625e+01 1.0000000000000000e+00 3.5587792369635776e+00 8.1887389331527132e+00 9.4031743897658060e-01 
160 0 1 1.0366891188948293e+00 -3.9520626989141974e+01 1.0000000000000000e+00 6.2249893801688891e+00 8.8927150697299666e+00 2.2959139113140381e+00 
130 0 1 1.0335697304839913e+00 -3.4257149830637061e+01 1.0000000000000000e+00 4.0197163839107350e+00 8.1041466011067733e+00 6.6111557871387905e-01 
43 0 1 1.0262088816128787e+00 -3.3726920565745175e+01 1.0000000000000000e+00 4.5899325102344539e+00 9.7091870542584378e+00 1.4235118277516432e+00 
32 0 1 1.0324978650109200e+00 -1.8070292483664797e+01 1.0000000000000000e+00 5.4950420426343625e+00 9.5587015719111896e+00 2.7626155375788191e+00 
240 0 1 1.0498994497523033e+00 -1.3688845448112772e+01 1.0000000000000000e+00 2.9357753692654307e+00 4.2072859462764411e-01 3.6198250398689580e+00 
153 0 1 1.0274958006156665e+00 -5.5701873130558859e+01 1.0000000000000000e+00 3.7593375280912760e+00 1.6717725374996355e+00 3.4528939642638528e+00 
431 0 1 9.9213026510829128e-01 -2.8032464699319103e+01 1.0000000000000000e+00 4.2184448727076864e+00 2.4035933658499831e-01 4.8578877518337693e+00 
48 0 1 1.0172055047031789e+00 -2.8138609871553076e+01 1.0000000000000000e+00 4.9195405915413346e+00 2.7542694236314764e+00 6.4179928866978466e+00 
29 0 1 1.0280953497566425e+00 -2.7685267782215295e+01 1.0000000000000000e+00 3.2890084457196811e+00 4.2202276782916046e+00 3.9752359898790552e+00 
410 0 1 1.0262899787556814e+00 -2.7267430126569412e+01 1.0000000000000000e+00 2.9089764126932898e+00 5.0231761286799683e+00 3.4546349792676239e+00 
44 0 1 1.0297652775730899e+00 -4.5412683349420258e+00 1.0000000000000000e+00 3.2344670384196337e+00 5.9614941468915363e+00 4.5204998119646511e+00 
569 0 1 1.0607182005113067e+00 -1.6418233553086036e+01 1.0000000000000000e+00 3.6255225548286583e+00 4.2629747867059811e+00 3.3787632658064033e+00 
102 0 1 1.0049429509309242e+00 -4.2601461431391911e+01 1.0000000000000000e+00 3.8143324788179380e+00 4.3524957788648964e+00 5.5648161027161445e+00 
89 0 1 1.0243303132082724e+00 -1.3592807894900266e+01 1.0000000000000000e+00 5.3635013655472585e+00 5.5273323704006803e+00 5.6820548655678635e+00 
369 0 1 1.0030521039880527e+00 -3.2189052008947336e+01 1.0000000000000000e+00 3.7299928218931235e+00 5.1015070688301165e+00 5.9907772480012174e+00 
217 0 1 1.0629899451610774e+00 -1.3059167819207614e+01 1.0000000000000000e+00 6.6585465565750379e+00 6.0786523413020452e+00 4.7468534130272486e+00 
237 0 1 1.0025794829802719e+00 -4.6087171068553140e+01 1.0000000000000000e+00 1.4516497923393603e+00 9.8745242568681135e+00 5.2365058110120355e+00 
316 0 1 1.0181884967095640e+00 -9.4941699806402848e+00 1.0000000000000000e+00 3.8283267508442025e+00 6.7368641656309709e+00 3.7199650114007046e+00 
245 0 1 9.8870594152438762e-01 -1.6883855411758336e+01 1.0000000000000000e+00 5.8948692278228974e+00 7.5441224775535760e+00 3.9404607988106788e+00 
587 0 1 1.0169105395306535e+00 1.8849828051822765e+01 1.0000000000000000e+00 3.7803614598304249e+00 8.8893446900257373e+00 4.9036579214480511e+00 
80 0 1 1.0189688761486744e+00 -1.2835125779006750e+01 1.0000000000000000e+00 4.1389937124778333e+00 9.3241963808550832e+00 4.5754008569307905e+00 
79 0 1 1.0509954548209661e+00 -1.4071208228701511e+01 1.0000000000000000e+00 4.5167266106954820e+00 8.8615016097946242e+00 5.7951459733536268e+00 
341 0 1 1.0400692711085204e+00 -2.4806845951547640e+01 1.0000000000000000e+00 5.7356021461665305e+00 8.1069362223446984e+00 5.0742445464888544e+00 
97 0 1 9.8228223107198309e-01 -3.2482647498306029e+01 1.0000000000000000e+00 4.3750795425524940e+00 2.3310866409697333e+00 6.6989464270847527e+00 
241 0 1 9.9982371727208186e-01 -4.1435689251830539e+01 1.0000000000000000e+00 4.1274664525913813e+00 8.9971928597666440e-01 6.9782519673496788e+00 
493 0 1 1.0424727796222062e+00 2.4619322523038520e+00 1.0000000000000000e+00 6.4525082311306008e+00 2.1385660242404008e+00 9.1893589394414921e+00 
100 0 1 1.0461343575298614e+00 -3.3066158818452877e+01 1.0000000000000000e+00 4.9487970948505167e+00 1.8908688544405310e+00 8.3786780073010352e+00 
292 0 1 1.0405431593595136e+00 -3.0330520880146469e+01 1.0000000000000000e+00 4.6358654083928688e+00 3.5786179561416526e-01 8.2028974245466380e+00 
219 0 1 1.0070354199815645e+00 -4.9185815526446376e+01 1.0000000000000000e+00 4.7230461816376632e+00 4.2185523635965561e-01 8.7541594722989355e+00 
425 0 1 1.0104941657963615e+00 -2.7183135165252569e+01 1.0000000000000000e+00 5.4253791077958740e+00 3.7786097410943476e+00 6.7877255769328144e+00 
65 0 1 1.0214758153436228e+00 -2.1055440216740717e+01 1.0000000000000000e+00 4.6728694117216030e+00 6.6014485029806407e+00 7.0942185269396303e+00 
13 0 1 1.0319640279742952e+00 -2.7013477666538552e+01 1.0000000000000000e+00 6.1136886914872646e+00 3.3545750190938892e+00 8.0717779954971967e+00 
393 0 1 1.0170467562836005e+00 1.5593205530611806e+01 1.0000000000000000e+00 2.2523563068595074e+00 9.3212613824492703e+00 9.9983934152741298e+00 
299 0 1 1.0288357655078011e+00 -4.9965920114309746e+01 1.0000000000000000e+00 3.3168701271541576e+00 9.3348546032190232e+00 9.0574148568479043e+00 
280 0 1 1.0363575795901421e+00 -4.8723513861428714e+01 1.0000000000000000e+00 4.3559460048956877e+00 6.7161741910610990e+00 6.7372665417624740e+00 
346 0 1 1.0086762588009843e+00 -2.3751137546507788e+01 1.0000000000000000e+00 6.0087039126479231e+00 9.8879436620426002e+00 9.5274936226549567e+00 
475 0 1 1.0274894638443299e+00 -2.4141830522781877e+01 1.0000000000000000e+00 5.0754447744092825e+00 7.0013122537788623e+00 7.1676094087229254e+00 
189 0 1 9.9832354837697634e-01 -1.7281118455578177e+01 1.0000000000000000e+00 5.9971225731827147e+00 7.2137983052988819e+00 9.2761074007994520e+00 
444 0 1 1.0125068563806041e+00 -4.9490457205190168e+01 1.0000000000000000e+00 6.3448992518256837e+00 6.8759832513952519e+00 9.8160572096502428e+00 
156 0 1 1.0391466221463326e+00 -2.1051608490171592e+01 1.0000000000000000e+00 4.8326989702626202e+00 7.8115794056271364e+00 8.6899981900899288e+00 
38 0 1 1.0160187033683821e+00 1.0738487498628777e+01 1.0000000000000000e+00 4.7892212970260495e+00 9.7489774175901545e+00 7.6637335645230005e+00 
59 0 1 1.0232909525612122e+00 -4.3664376030244396e+00 1.0000000000000000e+00 5.1981357778923076e+00 9.9589999404303260e+00 7.6540532972827728e+00 
644 0 1 1.0472847933181137e+00 -1.9245212084416348e+01 1.0000000000000000e+00 5.2334481185068995e+00 8.2024233979236338e-01 1.1231862291113940e+01 
39 0 1 1.0113978023085364e+00 -1.0614405029510797e+01 1.0000000000000000e+00 5.5031343863998190e+00 2.4791261386481955e+00 1.2843995172973244e+01 
615 0 1 1.0326696549653280e+00 1.7032310127289492e+01 1.0000000000000000e+00 4.9773566100395241e+00 1.8718573282822743e-02 1.2479995270393367e+01 
570 0 1 1.0260191744859104e+00 7.4080907776451683e+00 1.0000000000000000e+00 5.0963014676244924e+00 2.2955830858252297e+00 1.1478050428883000e+01 
597 0 1 1.0599295729837335e+00 -1.5387021392286753e+01 1.0000000000000000e+00 6.3426929801365981e+00 8.4165599391845713e-01 1.1627562216594042e+01 
49 0 1 1.0135124401268834e+00 -3.4015165477627725e+01 1.0000000000000000e+00 5.3377073518206357e+00 2.8478674359855036e+00 1.1309982505784408e+01 
294 0 1 1.0320777362548221e+00 -2.4738693841530964e+01 1.0000000000000000e+00 5.2627295631717859e+00 4.3890466036570066e+00 1.3220282565123314e+01 
155 0 1 1.0369994076217592e+00 -1.8175798108684305e+01 1.0000000000000000e+00 2.4341169033230972e+00 8.5939174505100802e+00 1.2757357268943991e+01 
14 0 1 9.9953420821840833e-01 -2.0780293761254477e+01 1.0000000000000000e+00 3.1790809036113821e+00 9.1193163062363780e+00 1.2157039940288657e+01 
562 0 1 1.0174390497775623e+00 -1.6735239411481397e+00 1.0000000000000000e+00 2.5835228229380012e+00 9.0032482885617338e+00 1.2312553759079190e+01 
542 0 1 1.0514355916987217e+00 -2.6141727219426880e+01 1.0000000000000000e+00 3.7249873782441432e+00 9.1932274526681219e+00 1.0757363078659138e+01 
111 0 1 1.0147369406416182e+00 -2.8310051604009143e+01 1.0000000000000000e+00 6.6412512093211173e+00 8.8595765982849848e+00 1.2108658005263651e+01 
540 0 1 1.0174143946151728e+00 -1.2815400881765566e+01 1.0000000000000000e+00 5.7362847676920135e+00 8.9940198819273931e+00 1.0808484656859639e+01 
210 0 1 1.0516980799514484e+00 -4.4253874617326197e+01 1.0000000000000000e+00 4.9710025367142352e+00 8.2555941771010843e+00 1.0011197716792877e+01 
379 0 1 1.0249008030605127e+00 -2.0358040792648411e+00 1.0000000000000000e+00 3.8640963934232317e+00 2.6132799913674409e-01 1.3729674481342515e+01 
534 0 1 1.0415501370274998e+00 -2.1998162264640435e+01 1.0000000000000000e+00 4.6653942534768253e+00 2.7049804809664986e+00 1.5187853987830815e+01 
215 0 1 1.0437868401721717e+00 -3.6383160826207977e+01 1.0000000000000000e+00 3.5264701429892233e+00 1.3772565095274751e+00 1.5666782870625324e+01 
198 0 1 1.0186113124581930e+00 -2.2688853255266771e+01 1.0000000000000000e+00 3.4209514116627560e+00 2.7931991761318098e-01 1.4293052925298209e+01 
264 0 1 1.0085293893263632e+00 -3.2568247332206681e+01 1.0000000000000000e+00 3.8467447209645664e+00 2.6198598900823393e+00 1.5354310569527115e+01 
465 0 1 1.0352525445378082e+00 -5.9440671640578607e+01 1.0000000000000000e+00 3.5451411386833569e+00 2.4129046797526978e+00 1.6509880542048993e+01 
190 0 1 1.0193098269756615e+00 -8.7067820329395431e+00 1.0000000000000000e+00 4.9440716337807098e+00 3.8342856583251375e+00 1.3704909334293593e+01 
628 0 1 1.0135816478069286e+00 -1.1330961547842508e+01 1.0000000000000000e+00 5.4623054634879624e+00 4.5577563812108810e+00 1.3924607757124489e+01 
124 0 1 1.0130840527786902e+00 -2.6025728875631266e+01 1.0000000000000000e+00 2.2972625737862953e+00 7.7921970021885549e+00 1.3448464141700512e+01 
536 0 1 1.0197821374397162e+00 -4.1796913560719531e+01 1.0000000000000000e+00 3.0920321564231061e+00 7.2497540346671308e+00 1.5677378719354678e+01 
324 0 1 1.0520302541864266e+00 -1.9941857728166106e+01 1.0000000000000000e+00 2.5753133422144709e+00 7.3739216194396793e+00 1.4042825055128453e+01 
494 0 1 1.0138377652789241e+00 -2.2386789409849484e+01 1.0000000000000000e+00 3.4051520985963526e+00 7.1144355620986719e+00 1.5901127083580015e+01 
636 0 1 9.9014770566812482e-01 -2.9081222511345093e+01 1.0000000000000000e+00 3.9422436934981335e+00 6.7094426439026158e+00 1.5487578272353188e+01 
76 0 1 1.0146096080787461e+00 2.5024724451276801e+00 1.0000000000000000e+00 3.6083664309788199e+00 7.2876148008843167e+00 1.3606667714075904e+01 
105 0 1 1.0441982407245971e+00 -1.9987431434950278e+01 1.0000000000000000e+00 5.2428505913552641e+00 8.2554471885531981e+00 1.4447302539018054e+01 
574 0 1 9.9821860784780303e-01 -3.4644404728348213e+01 1.0000000000000000e+00 4.3816124960568308e+00 8.7947458643718939e+00 1.6028409912436420e+01 
295 0 1 1.0156439591003734e+00 -1.6199315344705596e+01 1.0000000000000000e+00 6.5365970058195257e+00 9.3337905085992734e+00 1.4780774119173325e+01 
490 0 1 1.0127490580583451e+00 -1.4353396061938737e+01 1.0000000000000000e+00 4.3808168425234149e+00 8.8496722459067385e+00 1.5375396437401115e+01 
368 0 1 9.9043044097203148e-01 -3.7081990270734266e+01 1.0000000000000000e+00 6.4097269178629537e+00 8.2145448675143484e+00 1.3435005423148139e+01 
67 0 1 1.0182436355195732e+00 -2.7071752613777246e+01 1.0000000000000000e+00 6.1662652312328534e+00 7.7860150787597222e+00 1.6159239733782151e+01 
438 0 1 9.8917371100301132e-01 -4.6354086409615768e+01 1.0000000000000000e+00 3.7178164503887250e+00 2.1721246227898567e+00 1.7511765019774302e+01 
497 0 1 1.0204231270992052e+00 -7.3840140381813351e+00 1.0000000000000000e+00 5.2442356326710939e+00 1.3554752069329630e+00 1.9181693986260189e+01 
389 0 1 1.0016318998907860e+00 -6.3287083201306999e+01 1.0000000000000000e+00 4.5425475597365548e+00 9.7598626658375531e-01 1.9486232574231813e+01 
180 0 1 1.0436533864940953e+00 -4.7593956004367833e+01 1.0000000000000000e+00 4.3650060379084001e+00 3.0433908399203751e+00 1.7867550681929149e+01 
136 0 1 1.0256581611641415e+00 -3.1646600900364970e+01 1.0000000000000000e+00 3.8920539374562266e+00 6.5023492897089905e-02 1.9257386092654933e+01 
194 0 1 9.9708855452806899e-01 -1.2333929151306091e+01 1.0000000000000000e+00 3.3160051813425144e+00 5.2814711719558360e+00 1.9512524035687346e+01 
20 0 1 1.0105747902415256e+00 -7.6704303315976965e+00 1.0000000000000000e+00 5.1436678349271618e+00 3.6220707656997644e+00 1.6919926249237122e+01 
544 0 1 1.0170334776674299e+00 -2.7714832442643036e+01 1.0000000000000000e+00 3.9072489173720926e+00 5.1325408035682418e+00 1.8477369131220378e+01 
269 0 1 1.0037872330381610e+00 -3.5323695355913394e+01 1.0000000000000000e+00 6.6110466655008624e+00 6.3209779641052855e+00 1.8050424980267827e+01 
632 0 1 1.0630167750075568e+00 -3.0719912916527512e+01 1.0000000000000000e+00 4.3504878890707568e+00 3.5434475040112741e+00 1.9721632372518304e+01 
511 0 1 1.0580020963229320e+00 -2.3095327048920726e+01 1.0000000000000000e+00 5.9576629563733992e+00 4.3054727262721020e+00 1.8403385206920387e+01 
51 0 1 1.0353498915113235e+00 2.6430263808785277e+00 1.0000000000000000e+00 3.4958016415028195e+00 5.6146454756449042e+00 1.9457122039023332e+01 
408 0 1 1.0175862622018148e+00 -3.2726181364196201e+00 1.0000000000000000e+00 5.9058335721824404e+00 6.4833736262106205e+00 1.9751048522889633e+01 
526 0 1 1.0504632846067556e+00 -3.8500436890398433e+00 1.0000000000000000e+00 5.8372146043572890e+00 7.3531102137607371e+00 1.7755015952289931e+01 
158 0 1 9.7801158876442462e-01 -3.1522510590279115e+01 1.0000000000000000e+00 4.2665568245375809e+00 6.6780997085588201e+00 1.8441740024094507e+01 
137 0 1 1.0318841226149049e+00 -2.7473396688574155e+01 1.0000000000000000e+00 5.2406750727519276e+00 8.5018766902776903e+00 1.8571678525525833e+01 
527 0 1 1.0159986518736139e+00 -3.9933537055209420e+01 1.0000000000000000e+00 5.5922830525258691e+00 9.4983127928907276e+00 1.7803308889090662e+01 
271 0 1 1.0517638759227717e+00 -3.8582144810690401e+01 1.0000000000000000e+00 5.5301303544924734e+00 8.6126865188852584e+00 1.9791957478623711e+01 
568 0 1 1.0464412318422862e+00 -3.4367618493746846e+01 1.0000000000000000e+00 2.6641928095490433e+00 1.1380240781653963e+01 1.6774181288160528e+00 
109 0 1 1.0431900556861140e+00 -1.2340157153321849e+01 1.0000000000000000e+00 1.7452076925174596e+00 1.0960674210245893e+01 1.5392751706411540e+00 
321 0 1 1.0433156011160716e+00 -3.9924182318733408e+01 1.0000000000000000e+00 2.8090751212181351e+00 1.1118053184068870e+01 1.5312668187693435e+00 
515 0 1 1.0200272417142657e+00 -1.8268630448362668e+01 1.0000000000000000e+00 2.8553678948743286e+00 1.3298350233977127e+01 5.0994454184019811e-01 
163 0 1 9.9435337968714410e-01 -2.7206525484197233e+01 1.0000000000000000e+00 6.0751849067659451e+00 1.1193041856687167e+01 8.8068827638779079e-01 
476 0 1 1.0288370556382804e+00 -1.4581674156141204e+01 1.0000000000000000e+00 5.3233358522167249e+00 1.1384684088040398e+01 2.8168154589444003e+00 
589 0 1 1.0049690141204177e+00 -2.9347918675736331e+01 1.0000000000000000e+00 6.2526442594741978e+00 1.2254413778713447e+01 7.1686833379301429e-01 
265 0 1 1.0359539100341466e+00 -4.1743957980474576e+01 1.0000000000000000e+00 4.8998365088870939e+00 1.1498714545043891e+01 1.0152909222048867e-01 
468 0 1 1.0682678860573651e+00 -4.3983314980632130e+01 1.0000000000000000e+00 2.5197539846925436e+00 1.4252068014097805e+01 2.9346755147661816e+00 
71 0 1 1.0312468751669628e+00 -9.3314868793601935e+00 1.0000000000000000e+00 2.1096080398733768e+00 1.5622049964222237e+01 2.8791610254739526e+00 
352 0 1 1.0360433091365393e+00 -3.8960360022508432e+01 1.0000000000000000e+00 3.0930154314037561e+00 1.3515090113407400e+01 2.1039743001713335e-01 
131 0 1 1.0410991421593441e+00 -4.2953531444692359e+01 1.0000000000000000e+00 3.3466254442197854e+00 1.3717780637094672e+01 1.9197288246998570e+00 
436 0 1 1.0377853620252946e+00 -3.6265521924812901e+01 1.0000000000000000e+00 6.0211661993274097e+00 1.5475569824206097e+01 1.9065703014703697e+00 
528 0 1 1.0287146944742873e+00 -2.6119765406488746e+01 1.0000000000000000e+00 4.6843486977404840e+00 1.3511864294776528e+01 1.5513840239415504e+00 
82 0 1 1.0217800439802696e+00 -1.5893003494963068e+01 1.0000000000000000e+00 5.5970936231637278e+00 1.5244553287092343e+01 1.0258475163798237e+00 
314 0 1 1.0202477233173726e+00 -5.3861217530119887e+01 1.0000000000000000e+00 5.7786151755327761e+00 1.6399271118220515e+01 1.1607497505956723e+00 
508 0 1 1.0405984331589953e+00 -3.5323775505829097e+01 1.0000000000000000e+00 6.5309722057618291e+00 1.6633299676316579e+01 3.2157076860363398e+00 
529 0 1 1.0278444166036278e+00 -2.9568714350866699e+01 1.0000000000000000e+00 6.6308700831465819e+00 1.3670306389259032e+01 2.4710837477608597e-01 
287 0 1 1.0163233185188627e+00 -3.8996673194119764e-02 1.0000000000000000e+00 2.1812100980752809e+00 1.7030315956346225e+01 2.2809585933244163e+00 
168 0 1 1.0390459375407313e+00 -1.2644860724088776e+01 1.0000000000000000e+00 3.0580047980604665e+00 1.8531584714109933e+01 2.1563806904002636e+00 
256 0 1 1.0248834624301770e+00 -3.4973431589167923e+01 1.0000000000000000e+00 1.9719447608101950e+00 1.7011756856860199e+01 2.9143469839795779e+00 
259 0 1 1.0086153814352563e+00 -1.0187282105175763e+01 1.0000000000000000e+00 3.6395904921836810e+00 1.7179668198463588e+01 1.7850897302118356e+00 
543 0 1 1.0371991468795365e+00 -2.7575705360222912e+01 1.0000000000000000e+00 3.8922188162554563e+00 1.7956228080285925e+01 8.6386934620646916e-01 
610 0 1 1.0130092190953321e+00 -2.1172113566062794e+01 1.0000000000000000e+00 3.5786838270192307e+00 1.9258824198723037e+01 1.2465524956194816e+00 
23 0 1 9.9062280148671678e-01 -3.5398380380707486e+01 1.0000000000000000e+00 5.2056731386610737e+00 1.8802912824857973e+01 2.3996270550668997e+00 
58 0 1 1.0372175773068111e+00 -3.4779588368572924e+01 1.0000000000000000e+00 5.3026737476114478e+00 1.9353746187452774e+01 1.6455925837374932e+00 
619 0 1 1.0430547110264894e+00 1.8909935626718127e+01 1.0000000000000000e+00 2.6961069956741013e+00 1.0072159761398925e+01 6.5984892179354171e+00 
383 0 1 9.9851452250427841e-01 -2.1254398130893914e+01 1.0000000000000000e+00 8.4992156356170734e-01 1.1077030318780620e+01 4.7192261271311340e+00 
251 0 1 1.0590026599202504e+00 -3.4066017041295119e+01 1.0000000000000000e+00 2.0684654178889312e+00 1.0242328008546634e+01 3.9969477048475315e+00 
27 0 1 1.0278210075057805e+00 -1.3988773042833072e+01 1.0000000000000000e+00 9.6851276958492771e-01 1.0807766902058949e+01 4.7685614639440983e+00 
185 0 1 1.0395004201696780e+00 -2.1703484162896203e+01 1.0000000000000000e+00 1.1077415275156566e+00 1.3214788868606949e+01 4.9338281509173427e+00 
166 0 1 1.0291423393505192e+00 -1.5915087587858896e+01 1.0000000000000000e+00 3.0129487086507671e+00 1.2028262017895715e+01 5.7962294486138015e+00 
629 0 1 1.0227451592093009e+00 -1.7236379385376292e+01 1.0000000000000000e+00 1.0136455673333826e+00 1.2713209194996285e+01 4.8478729959566325e+00 
617 0 1 9.9475802607014319e-01 -1.8775212581785228e+00 1.0000000000000000e+00 2.2316584764323624e+00 1.0026302954384219e+01 6.4740362261166924e+00 
641 0 1 1.0180492647746349e+00 -3.8672490646918523e-01 1.0000000000000000e+00 5.8723909175858013e+00 1.1351778345650805e+01 3.9645515061569707e+00 
380 0 1 1.0342040008075477e+00 -3.5733907920150749e+01 1.0000000000000000e+00 5.9009592468537875e+00 1.2376617756375058e+01 4.2632705871098127e+00 
426 0 1 1.0222314839388225e+00 -3.1450924619310570e+01 1.0000000000000000e+00 4.5718507912182229e+00 1.1313549876745686e+01 4.7688842682827932e+00 
360 0 1 1.0427271030859218e+00 -5.3804072736282656e+01 1.0000000000000000e+00 4.8398774497795971e+00 1.2516325140933745e+01 4.1382442128970931e+00 
450 0 1 9.8845530237144630e-01 -4.2832023765455055e+01 1.0000000000000000e+00 6.5415614811559060e+00 1.3256458830807919e+01 6.1103191946608613e+00 
296 0 1 1.0089003378719250e+00 -4.1850765521795545e+01 1.0000000000000000e+00 3.4532230257165999e+00 1.3112877282516662e+01 3.6295076099723707e+00 
592 0 1 1.0539519153455590e+00 -6.6322444825105418e+00 1.0000000000000000e+00 2.0102730903423267e+00 1.4964885801235797e+01 4.2108534308065249e+00 
370 0 1 9.9952309247811333e-01 -2.7946713704788390e+01 1.0000000000000000e+00 1.6270733972105167e+00 1.3551844866606622e+01 3.5781922449951313e+00 
443 0 1 1.0173769567976514e+00 -4.1094271692934036e+01 1.0000000000000000e+00 1.2210310251466998e+00 1.4013370574043279e+01 6.3680233063895484e+00 
50 0 1 9.7988608827925883e-01 -1.4707756340815287e+01 1.0000000000000000e+00 3.6824221766974476e+00 1.4581191462479810e+01 5.3485049674886014e+00 
456 0 1 1.0344307471796723e+00 -5.3422110492935808e+01 1.0000000000000000e+00 5.1429158499050454e+00 1.5573415368962976e+01 5.9459982816537194e+00 
193 0 1 1.0018288874715033e+00 -3.9268658782934587e+01 1.0000000000000000e+00 4.1232082305749929e+00 1.4826120711600735e+01 5.7890582179457910e+00 
428 0 1 1.0385864241565168e+00 -2.1718494698078914e+01 1.0000000000000000e+00 2.3299907209423689e+00 1.7072150701134198e+01 3.7160749411790643e+00 
354 0 1 1.0581451192357303e+00 -2.7180902208425195e+01 1.0000000000000000e+00 2.8824114743160494e+00 1.7378877614369632e+01 5.5890754109092846e+00 
188 0 1 1.0205122014541377e+00 -1.7153013825718546e+01 1.0000000000000000e+00 2.3472255956968815e+00 1.7151366320768140e+01 5.6406279233930245e+00 
170 0 1 1.0284051954886078e+00 -1.8507050074848980e+01 1.0000000000000000e+00 4.9459586855422097e+00 1.7125360405160489e+01 5.3674436120828357e+00 
501 0 1 9.9492118676323404e-01 -3.0469081129427671e+01 1.0000000000000000e+00 3.8375794997397308e+00 1.8304526980812199e+01 5.5374334961338709e+00 
412 0 1 1.0476558654860595e+00 -2.9992009190875201e+01 1.0000000000000000e+00 5.3627654751622327e+00 1.6854698640910463e+01 4.8741415120003895e+00 
407 0 1 1.0423842791058318e+00 -3.5770952600049085e+01 1.0000000000000000e+00 6.5945684611542470e+00 1.8345373716921166e+01 4.7680836654371284e+00 
612 0 1 1.0228148649486051e+00 -3.2733856080466886e+01 1.0000000000000000e+00 4.3146406341539549e+00 1.9725023447198556e+01 5.4787085944233596e+00 
225 0 1 1.0369488968862541e+00 -3.8977763165207854e+01 1.0000000000000000e+00 4.9763521177327998e+00 1.9993535966201904e+01 5.6244688774078533e+00 
548 0 1 1.0389284758513724e+00 -4.8260590171721667e+01 1.0000000000000000e+00 2.3611643634026835e+00 1.1516951664502862e+01 9.6762640908599522e+00 
578 0 1 1.0625508768881968e+00 -2.1723781432853784e+01 1.0000000000000000e+00 3.0090529399565997e+00 1.1396130319336981e+01 7.1578757786633656e+00 
46 0 1 9.7177725488884958e-01 -1.6250969188358418e+01 1.0000000000000000e+00 1.7807325047337856e+00 1.2731229892702318e+01 9.0213365190757742e+00 
611 0 1 1.0196569776406708e+00 1.1826068069119691e+01 1.0000000000000000e+00 1.7088630526007300e+00 1.2527420941471744e+01 7.6803707588159442e+00 
17 0 1 1.0268207475372981e+00 -3.2476776134307639e+00 1.0000000000000000e+00 2.0058484258152909e+00 1.0005117682522130e+01 9.7130781248575513e+00 
489 0 1 1.0235476227931282e+00 -3.8367258982121449e+01 1.0000000000000000e+00 3.8522508889824452e+00 1.1835564212563739e+01 8.8323617052767371e+00 
274 0 1 1.0481301114183270e+00 -3.3383756413536734e+00 1.0000000000000000e+00 6.1589788454228911e+00 1.1047318069836237e+01 6.9177529439344259e+00 
186 0 1 1.0023478648736921e+00 -4.8720644379828421e+01 1.0000000000000000e+00 4.9245186698518850e+00 1.2771766228225701e+01 7.2479867363223178e+00 
70 0 1 1.0262810007015284e+00 -2.2797907654063181e+01 1.0000000000000000e+00 3.4991917018603660e+00 1.2931724062212259e+01 9.5589543767024736e+00 
375 0 1 1.0036891651166824e+00 -1.2242151192501414e+01 1.0000000000000000e+00 6.6379269551628752e+00 1.2104757324306584e+01 8.9642545040101052e+00 
54 0 1 1.0364066648059054e+00 -2.9796739750848036e+00 1.0000000000000000e+00 1.3806687216768507e+00 1.3956397211136297e+01 8.1163875544368729e+00 
290 0 1 1.0287770810923393e+00 -3.1757922967531066e+01 1.0000000000000000e+00 1.2396823803956689e+00 1.4188750830233523e+01 6.8530684054179263e+00 
496 0 1 1.0199613512935122e+00 -1.4479669571481530e+01 1.0000000000000000e+00 2.0773720172124648e+00 1.4858859864298161e+01 8.8580293362533791e+00 
204 0 1 1.0317955261552409e+00 -1.4822986154279546e+01 1.0000000000000000e+00 1.7170114988812311e+00 1.6218709916696493e+01 6.6925335451130792e+00 
181 0 1 1.0738165613258523e+00 -3.0424900943964154e+01 1.0000000000000000e+00 2.5760280596076455e+00 1.6391512796367678e+01 8.1860751009342732e+00 
52 0 1 1.0351766608803903e+00 -3.9988327040034938e-01 1.0000000000000000e+00 2.9461695722826358e+00 1.6475513728082969e+01 8.3456206634536709e+00 
92 0 1 1.0511668491316251e+00 -2.5386154239380687e+01 1.0000000000000000e+00 3.1969613075288033e+00 1.5095026472514750e+01 8.8346167031641798e+00 
474 0 1 1.0441114307084463e+00 -2.3826010416562969e+01 1.0000000000000000e+00 3.8664544630774542e+00 1.3578027122628331e+01 6.8055279789796597e+00 
363 0 1 9.9854825291971294e-01 -3.1796721843761816e+01 1.0000000000000000e+00 4.2791001690057149e+00 1.4214101245264613e+01 9.4902558968549098e+00 
376 0 1 1.0401886740971766e+00 -2.7179992351114205e+01 1.0000000000000000e+00 5.8577734029234634e+00 1.4918854975926980e+01 8.1793631642560261e+00 
128 0 1 1.0182326960180073e+00 -4.4298856735275045e+01 1.0000000000000000e+00 5.7111906331935200e+00 1.3756860404264460e+01 7.4359333480311518e+00 
359 0 1 1.0043667920076393e+00 -3.0029008790347845e+01 1.0000000000000000e+00 5.7655160032128672e+00 1.6563160878729889e+01 8.0434274555905905e+00 
86 0 1 1.0626275125509432e+00 -2.7120961338082473e+01 1.0000000000000000e+00 6.6463004132740000e+00 1.4666158215835043e+01 9.5056411514030916e+00 
112 0 1 1.0386446254438266e+00 -2.8725744454934162e+01 1.0000000000000000e+00 2.0794436126022569e+00 1.6853096784591617e+01 7.0817333083165801e+00 
40 0 1 1.0314668098263129e+00 -1.6834888327354822e+01 1.0000000000000000e+00 4.3344287565967647e+00 1.7814852447631210e+01 8.9242809366096303e+00 
464 0 1 1.0231989872433718e+00 -3.1867872067436231e+01 1.0000000000000000e+00 4.2742222156282672e+00 1.8673935529057399e+01 9.6813849795265146e+00 
31 0 1 1.0182638934235206e+00 -1.5841619577528414e+01 1.0000000000000000e+00 5.7133541689302509e+00 1.7222497866213594e+01 9.1337760597459461e+00 
19 0 1 1.0324656036180913e+00 -1.8096916452368454e+01 1.0000000000000000e+00 6.4419024498118125e+00 1.7984948413052294e+01 8.2441146910148912e+00 
36 0 1 1.0580224482740037e+00 -6.6778120902795175e+00 1.0000000000000000e+00 5.8030283124520254e+00 1.8922376620184490e+01 8.6183796481127821e+00 
577 0 1 1.0214996552160340e+00 -2.6100063909906574e+01 1.0000000000000000e+00 2.0731337869888966e+00 1.0527080480892726e+01 1.0172646535687344e+01 