LAMMPS data file via write_data, version 30 Jul 2016, timestep = 50000000

644 atoms
2 atom types

0.0000000000000000e+00 2.0000000000000000e+01 xlo xhi
0.0000000000000000e+00 2.0000000000000000e+01 ylo yhi
0.0000000000000000e+00 2.0000000000000000e+01 zlo zhi

Masses

1 7
2 3.896

Atoms # meso-molecular

610 0 1 9.9890717435567222e-01 -2.1680551078768683e+01 1.0000000000000000e+00 4.7444869035105599e+00 8.4299483092768257e-01 2.5427974303323602e+00 
209 0 1 1.0333908028282923e+00 -4.8527985432437411e+01 1.0000000000000000e+00 6.0831395084291131e+00 1.1713836107783873e-01 1.9111429607213180e+00 
467 0 1 1.0322166240121009e+00 -1.4313901806698849e+01 1.0000000000000000e+00 6.3448962660639907e+00 2.7895351786821809e+00 8.4921414135835427e-01 
491 0 1 1.0400317830704426e+00 -5.0196605469683384e+01 1.0000000000000000e+00 4.6497235594443103e+00 2.2039472279032038e-01 2.7356812781689066e+00 
56 0 1 9.8119426376355379e-01 -4.1754489989125808e+01 1.0000000000000000e+00 3.9748899889478997e+00 5.0607734369971202e-01 2.6244620071115660e-01 
508 0 1 1.0248467181823149e+00 -3.4734880859705385e+01 1.0000000000000000e+00 5.6350661279492043e+00 2.3791718979901195e+00 1.7394823334865211e-01 
104 0 1 1.0145621187515317e+00 -5.1100317705105276e+01 1.0000000000000000e+00 6.2354987122240066e+00 2.5786967750868190e+00 3.0096666810194357e+00 
357 0 1 1.0268008860213118e+00 -2.6409306793993061e+01 1.0000000000000000e+00 6.4857799645488630e+00 5.9428021479281874e+00 1.7063623023433927e+00 
89 0 1 1.0174770274398941e+00 -1.5406838623197803e+01 1.0000000000000000e+00 5.4370668432242208e+00 5.8656327893262228e+00 2.4421445951772447e+00 
608 0 1 9.8917857444933033e-01 -8.3608595488182296e+00 1.0000000000000000e+00 5.1065675127469010e+00 4.7842728436000135e+00 2.5200998912206813e+00 
37 0 1 1.0127532249434650e+00 -1.8458690530315867e+01 1.0000000000000000e+00 5.2518615728687879e+00 5.0929180853023155e+00 1.7586420347245069e+00 
59 0 1 1.0159450083700883e+00 -3.6224097142498448e+00 1.0000000000000000e+00 1.8084541794425311e+00 7.7826263746870223e+00 3.1018733540081187e+00 
321 0 1 1.0529491265421096e+00 -4.0141122769865383e+01 1.0000000000000000e+00 3.0108276497745079e+00 9.0549574537428814e+00 2.6244427771786727e+00 
635 0 1 1.0133164964393870e+00 -3.0043951481229964e+01 1.0000000000000000e+00 3.2483781079732479e+00 9.4060556865680685e+00 1.1468471119290968e+00 
216 0 1 1.0054250061441785e+00 -3.0085517948751690e+01 1.0000000000000000e+00 5.5224065125655839e+00 9.0047297930351622e+00 2.1380350763604943e+00 
94 0 1 1.0349861229338406e+00 -2.8146986838343405e+01 1.0000000000000000e+00 5.8453249019197475e+00 9.0584722482106415e+00 3.1338517376462205e+00 
108 0 1 1.0263429435493316e+00 -2.4037525911442824e+01 1.0000000000000000e+00 4.3352833795929220e+00 9.1831380989497351e+00 1.4406163715391531e+00 
329 0 1 1.0339688410331762e+00 -2.8226507968348290e+01 1.0000000000000000e+00 5.6369173662827246e+00 8.6401605778418133e+00 2.5186221031376660e-01 
100 0 1 1.0408498708482494e+00 -3.3092066364783385e+01 1.0000000000000000e+00 2.2500155814623564e+00 2.0469364697803183e+00 6.1385840931389826e+00 
369 0 1 1.0389924187308304e+00 -3.1812074881449043e+01 1.0000000000000000e+00 1.3742986526156467e+00 1.1339491679904186e+00 6.3779917260337307e+00 
314 0 1 1.0209486132316365e+00 -5.2018709813659953e+01 1.0000000000000000e+00 2.7509506906058343e+00 2.4414917622667609e+00 6.3787200105879123e+00 
77 0 1 1.0364163620529503e+00 -1.3734793809690711e+01 1.0000000000000000e+00 5.7922015074392510e+00 1.2430424698082838e+00 4.5190980791820889e+00 
422 0 1 9.9989012595338767e-01 -4.7974814472794115e+01 1.0000000000000000e+00 5.5033616606472693e+00 6.8361046581088958e-01 6.2169235322569305e+00 
266 0 1 1.0287275959725950e+00 -3.0120506052390919e+01 1.0000000000000000e+00 6.3902897824924478e+00 3.0454235854890914e+00 4.7679869038721368e+00 
588 0 1 1.0132712787435929e+00 -2.5399335500187263e+01 1.0000000000000000e+00 4.6768016418891989e+00 1.9919199590147860e+00 6.6206646209877382e+00 
502 0 1 1.0352407906373442e+00 -3.3441798030255981e+01 1.0000000000000000e+00 3.3164560748796110e+00 6.2668932370100592e+00 5.2232562039843673e+00 
48 0 1 1.0560886950174388e+00 -2.7879799426630527e+01 1.0000000000000000e+00 6.6131035191963790e+00 5.2386820370241605e+00 5.2642137856856994e+00 
316 0 1 1.0095182954090296e+00 -9.8296811966637030e+00 1.0000000000000000e+00 4.5664776611745843e+00 4.6256411925135970e+00 5.2072252664271765e+00 
135 0 1 1.0271613562986999e+00 -2.2142846869270659e+01 1.0000000000000000e+00 3.7099062189817178e+00 5.2514945956128560e+00 5.5945088925116169e+00 
80 0 1 1.0308088830616486e+00 -1.3311017545516734e+01 1.0000000000000000e+00 5.1695696446252688e+00 4.4473688324684639e+00 4.1574082566243007e+00 
34 0 1 9.9033333235353804e-01 -1.2742596323594805e+01 1.0000000000000000e+00 6.5390740862004977e+00 5.3321425183021720e+00 5.7505851560884560e+00 
185 0 1 1.0570540400875326e+00 -2.1392966640811309e+01 1.0000000000000000e+00 1.3575142335340245e+00 7.8996296576763321e+00 4.1682000548726030e+00 
29 0 1 1.0203624089109571e+00 -2.7868837397256808e+01 1.0000000000000000e+00 1.8102715614858595e+00 7.2799185368462789e+00 4.2904648228413507e+00 
587 0 1 1.0249817957779630e+00 1.8352858370068688e+01 1.0000000000000000e+00 2.7413603584799953e+00 7.3082540280433630e+00 4.0547100281903132e+00 
271 0 1 1.0033231473665503e+00 -3.9537910877641387e+01 1.0000000000000000e+00 1.1558592917073596e+00 9.2751199159089825e+00 3.8801254055611674e+00 
613 0 1 1.0116289362710207e+00 -1.1739372238012063e+01 1.0000000000000000e+00 1.2568666769312813e+00 9.4621663988043263e+00 3.7295332822753879e+00 
122 0 1 1.0120331362560477e+00 -3.0171131530893831e+01 1.0000000000000000e+00 6.2590377724925155e+00 7.0703744807046132e+00 3.6158859124870393e+00 
507 0 1 1.0046290493534069e+00 -3.6526993585249542e+01 1.0000000000000000e+00 5.4789146782302209e+00 8.5198621090940847e+00 4.3539026667168619e+00 
341 0 1 1.0428729144873283e+00 -2.5559833408381962e+01 1.0000000000000000e+00 4.3012649952591966e+00 6.8599406045037616e+00 5.1528284838582294e+00 
361 0 1 1.0043182295318374e+00 -2.7892160423396444e+01 1.0000000000000000e+00 6.4963468351519511e+00 9.4784219788613466e+00 5.4603488026854219e+00 
70 0 1 1.0284306695008318e+00 -2.3245843648178052e+01 1.0000000000000000e+00 4.5161064525629762e+00 9.5509436429503047e+00 6.6142341546743006e+00 
586 0 1 1.0065764268507473e+00 -4.4546871037785465e+00 1.0000000000000000e+00 6.5056687203891830e+00 7.3130532438508675e+00 5.8204221130494735e+00 
358 0 1 1.0334347564773181e+00 -2.8073604309387342e+01 1.0000000000000000e+00 5.3826498643620013e+00 9.8194864410281077e+00 6.0960399983271509e+00 
188 0 1 1.0115127642310169e+00 -1.8349984604555274e+01 1.0000000000000000e+00 1.4824253309370836e+00 9.5193044048421416e-01 7.7601442197531414e+00 
493 0 1 1.0353400605431171e+00 1.8205332558841714e+00 1.0000000000000000e+00 7.3821941501857202e-01 1.4531768873655100e+00 7.2668256916407907e+00 
36 0 1 1.0238172942862691e+00 -7.0356523348196403e+00 1.0000000000000000e+00 1.7730963597894702e+00 1.5956145225035998e+00 8.0416779907661979e+00 
97 0 1 1.0463165610033416e+00 -3.3103387690299783e+01 1.0000000000000000e+00 1.0833762529563180e+00 2.3242116290144073e+00 7.0069941680219179e+00 
28 0 1 1.0197647286075542e+00 -4.1652616597530653e+01 1.0000000000000000e+00 4.0946021364901712e+00 8.6984799596104068e-01 6.9436870603525671e+00 
261 0 1 9.8287670569719277e-01 -3.8946130779735128e+01 1.0000000000000000e+00 4.5297768900413065e+00 1.2154094430031756e-01 7.7448403492373492e+00 
615 0 1 1.0295496702955635e+00 1.7129821766261635e+01 1.0000000000000000e+00 5.0252991593169751e+00 3.2376768773368334e+00 8.4412022551446029e+00 
482 0 1 1.0202128939508541e+00 -3.2884401251771003e+01 1.0000000000000000e+00 3.9925671533270153e+00 6.2459989017613404e-01 9.4085157603233682e+00 
450 0 1 1.0263163766922243e+00 -4.3855493119900210e+01 1.0000000000000000e+00 5.8392829692799051e+00 6.3614628383913308e-01 7.2605475395696235e+00 
52 0 1 1.0553481849530157e+00 1.2946733360566847e+00 1.0000000000000000e+00 2.9564323730740734e+00 5.8948115952304807e+00 8.7826591938365581e+00 
489 0 1 1.0175507593976401e+00 -3.6709543812072262e+01 1.0000000000000000e+00 2.0849416341730307e+00 5.9772301244682176e+00 7.9149365258446220e+00 
33 0 1 9.9067708427873369e-01 -1.5235021464379612e+01 1.0000000000000000e+00 3.3486458417037364e+00 4.6188274812142032e+00 7.3233650864519317e+00 
156 0 1 9.9801725691547793e-01 -1.9944686500745515e+01 1.0000000000000000e+00 4.2499996899194752e+00 4.7657747747025345e+00 7.4418455882989676e+00 
536 0 1 1.0082836806861903e+00 -4.1150349964584926e+01 1.0000000000000000e+00 6.1635041190272553e+00 3.7050355557466901e+00 8.8754832795082343e+00 
475 0 1 1.0259876844716718e+00 -2.2662557350742759e+01 1.0000000000000000e+00 4.5450102755351365e+00 3.4435341925340230e+00 7.4754932866078141e+00 
469 0 1 1.0210273220482560e+00 -3.6724884052451614e+01 1.0000000000000000e+00 2.3263560156771064e+00 6.7038268903748364e+00 9.8175716722120487e+00 
360 0 1 1.0233961439502126e+00 -5.3510216841756872e+01 1.0000000000000000e+00 2.1060869475646204e+00 6.8185283551248297e+00 7.1475385259771862e+00 
150 0 1 1.0366697425726108e+00 -1.8509950018677852e+01 1.0000000000000000e+00 1.9535962121805079e+00 7.0542414398403963e+00 7.5040914144347370e+00 
380 0 1 1.0461598183897223e+00 -3.4893525745283128e+01 1.0000000000000000e+00 3.2085314551450153e+00 8.4997549310847180e+00 7.5514928022699603e+00 
562 0 1 1.0256912337107200e+00 -2.2897894066608848e+00 1.0000000000000000e+00 2.1395023029140359e+00 9.2734437681069437e+00 9.5540908678444030e+00 
410 0 1 1.0210814874955616e+00 -2.6989831365581843e+01 1.0000000000000000e+00 2.0210708535805351e+00 8.3889648389617815e+00 9.0721548145885738e+00 
569 0 1 1.0007236115352165e+00 -1.7426535146716482e+01 1.0000000000000000e+00 2.3780146938861950e+00 9.1530228286538673e+00 8.0650987019846703e+00 
193 0 1 1.0173770773997841e+00 -3.9861938166161117e+01 1.0000000000000000e+00 4.3880397713463415e+00 7.6448256407439557e+00 6.6865531213555460e+00 
624 0 1 1.0060170156175632e+00 -3.2709916017211938e+01 1.0000000000000000e+00 5.2758258670356213e+00 8.0268187447019841e+00 6.8380772813984603e+00 
20 0 1 1.0507571601256449e+00 -7.5279300496985604e+00 1.0000000000000000e+00 5.7092240494019162e+00 9.5213567428692070e+00 8.3359971077292450e+00 
181 0 1 1.0245469218484813e+00 -3.0572871910934509e+01 1.0000000000000000e+00 3.9411739978484213e+00 1.8464082288729700e+00 1.0102309607092810e+01 
494 0 1 1.0223951486068081e+00 -2.4523414236972361e+01 1.0000000000000000e+00 3.7092490273259973e+00 1.3289790511254433e+00 1.0998422380912036e+01 
202 0 1 1.0352157982569863e+00 -2.1652352170301540e+01 1.0000000000000000e+00 4.6239697061706124e+00 1.5003234205589893e+00 1.2626753249106120e+01 
447 0 1 1.0122127611528859e+00 -4.2572570484457849e+01 1.0000000000000000e+00 3.8763652798561128e+00 2.1717474961555672e+00 1.0355350220676151e+01 
464 0 1 1.0336189711871666e+00 -3.2215301353438264e+01 1.0000000000000000e+00 5.2671306868899332e+00 1.6348086219685948e-01 1.1446895583399174e+01 
628 0 1 1.0530032766438175e+00 -1.1669400021959900e+01 1.0000000000000000e+00 2.8861850898893704e+00 5.9948388115350504e+00 1.0172778599421438e+01 
289 0 1 1.0272619551857813e+00 -2.5191811122067769e+01 1.0000000000000000e+00 3.1635250108652770e+00 6.3572563767316508e+00 1.1557227271964150e+01 
479 0 1 1.0117302620019564e+00 -1.7698469012678103e+01 1.0000000000000000e+00 5.1481638609333400e+00 3.9860528894322638e+00 1.0060088023684292e+01 
190 0 1 9.9828429782031480e-01 -9.7697468072681968e+00 1.0000000000000000e+00 5.8980312965953088e+00 5.1204834973566067e+00 1.1340219002983183e+01 
366 0 1 1.0246331980303085e+00 -3.1900895358401225e+01 1.0000000000000000e+00 4.0200411867398085e+00 4.4134117039502989e+00 1.1533718062896195e+01 
644 0 1 9.9963916982061152e-01 -1.9992499479653222e+01 1.0000000000000000e+00 5.1732911000519817e+00 3.4679298786927872e+00 1.2581620221226444e+01 
124 0 1 1.0262285998450589e+00 -2.5712937621073639e+01 1.0000000000000000e+00 4.0267506006292271e+00 4.2903865785757072e+00 1.0631403330290961e+01 
226 0 1 1.0296577949804395e+00 -2.2139942609274613e+01 1.0000000000000000e+00 5.2204876976059067e+00 6.0911458514929047e+00 1.1725492837531023e+01 
336 0 1 1.0524244376060501e+00 -7.8290609082641236e+00 1.0000000000000000e+00 3.3711463591115138e+00 7.3422015051242662e+00 1.1444400942000721e+01 
105 0 1 1.0303828155859991e+00 -2.0756001950580650e+01 1.0000000000000000e+00 4.0970395775231419e+00 9.1160011360785287e+00 1.2963081613191507e+01 
619 0 1 1.0244669109519369e+00 1.7514830641744606e+01 1.0000000000000000e+00 4.4489341147303634e+00 7.0156729435905945e+00 1.1125790641226585e+01 
14 0 1 1.0427287183511125e+00 -2.2502134665798273e+01 1.0000000000000000e+00 4.3413195171720202e+00 8.3871117135064051e+00 1.2575914699405320e+01 
500 0 1 1.0230609453656658e+00 -4.5639961014136134e+01 1.0000000000000000e+00 3.6535776641153457e+00 9.1666719873765299e+00 1.0701943073901404e+01 
453 0 1 1.0201665464284762e+00 -3.7127393144779646e+01 1.0000000000000000e+00 2.2243541331257166e+00 6.5728046350456293e-01 1.6223056807497880e+01 
180 0 1 1.0609916567301390e+00 -4.8140628654856897e+01 1.0000000000000000e+00 3.1896206022706397e+00 6.2460062182849962e-01 1.4821497377465894e+01 
379 0 1 1.0351722471278304e+00 -2.4475190395106923e+00 1.0000000000000000e+00 3.1897361053568343e+00 1.0601253436566829e+00 1.4405004668048152e+01 
39 0 1 1.0566285979696945e+00 -1.0729050836806405e+01 1.0000000000000000e+00 4.5008034236078664e+00 1.9604821771144285e+00 1.3489897574134574e+01 
574 0 1 1.0386972026965751e+00 -3.6140571623323162e+01 1.0000000000000000e+00 4.1501273726518351e+00 2.9196997670527014e+00 1.5290789958354162e+01 
103 0 1 1.0140322468545193e+00 -3.7864154291487480e+01 1.0000000000000000e+00 3.4361977224870448e+00 2.5799116612082891e+00 1.4740236832428952e+01 
236 0 1 1.0456353031438848e+00 -6.1020370862935195e+01 1.0000000000000000e+00 4.3185516974612481e+00 2.2998348383876688e+00 1.5569582552030871e+01 
160 0 1 1.0213565410846068e+00 -4.0599544166810233e+01 1.0000000000000000e+00 4.6732832518789049e+00 8.5665069603604416e-01 1.6491012265257268e+01 
564 0 1 1.0455725807864467e+00 -5.8729252458162151e+01 1.0000000000000000e+00 5.4508327393456364e+00 4.0109808784708365e+00 1.4463626649307212e+01 
295 0 1 1.0042422848892214e+00 -1.4871943128213539e+01 1.0000000000000000e+00 3.7706856172030219e+00 6.0568952623531720e+00 1.4964091777626420e+01 
155 0 1 1.0279548228547826e+00 -1.6499904432733043e+01 1.0000000000000000e+00 4.2984771849508672e+00 4.8226189451756722e+00 1.3452534026343640e+01 
632 0 1 9.9948769662592873e-01 -2.9128070607409398e+01 1.0000000000000000e+00 5.3665224193332053e+00 4.7977411359538804e+00 1.6300360246123905e+01 
269 0 1 1.0180628962118099e+00 -3.5170884498480966e+01 1.0000000000000000e+00 3.9526166401856657e+00 5.8377410359621376e+00 1.4347523314870129e+01 
534 0 1 1.0241511747120686e+00 -2.3478741997303334e+01 1.0000000000000000e+00 3.9586444446129621e+00 6.1551555535885978e+00 1.4633784843440340e+01 
294 0 1 9.9039192983196844e-01 -2.4740905250607408e+01 1.0000000000000000e+00 5.2347562639505583e+00 4.8217065866528364e+00 1.6503099959401585e+01 
76 0 1 1.0261095444296533e+00 3.8122971464103692e+00 1.0000000000000000e+00 4.1244096733785485e+00 9.2996632259141201e+00 1.3494167372006210e+01 
438 0 1 1.0583838006384318e+00 -4.6516381159689033e+01 1.0000000000000000e+00 4.0826196265982242e+00 8.3637239074443332e+00 1.4660065428386888e+01 
527 0 1 1.0208345645362664e+00 -4.0220074851552290e+01 1.0000000000000000e+00 4.0089702828758451e+00 8.8768861728260102e+00 1.6063783416886956e+01 
223 0 1 1.0142903229898781e+00 -4.3508262066626870e+01 1.0000000000000000e+00 4.1427386961588786e+00 8.1226784172715298e+00 1.6377197332793756e+01 
110 0 1 1.0169548078994317e+00 -1.5735596004193404e+01 1.0000000000000000e+00 4.4076072760515208e+00 9.9426348018236173e+00 1.5255520027856933e+01 
303 0 1 1.0013479697680117e+00 -4.4164614992526054e+01 1.0000000000000000e+00 1.9109928592930410e+00 5.5553974076114987e-01 1.7404034022316207e+01 
544 0 1 1.0178839196894274e+00 -2.7076201221297566e+01 1.0000000000000000e+00 1.9664782259197506e+00 5.3505946239652857e-01 1.7389134442241289e+01 
497 0 1 1.0357888042052232e+00 -7.0872878640561456e+00 1.0000000000000000e+00 1.8863637019566464e+00 1.5410784031129851e-01 1.8350454955933905e+01 
198 0 1 1.0153206952680123e+00 -2.2372095175722407e+01 1.0000000000000000e+00 5.5941866198826595e+00 1.9975793386214563e-01 1.7523136336315158e+01 
311 0 1 1.0335286675111726e+00 -5.1446540875857877e+01 1.0000000000000000e+00 4.2730273846408293e+00 8.3712412003439884e-01 1.9841294518222082e+01 
397 0 1 9.9376859281977747e-01 -4.8352361378867776e+01 1.0000000000000000e+00 4.6511592456194180e+00 1.6730861530775964e+00 1.9947052675880130e+01 
136 0 1 1.0050477746716857e+00 -3.1300419384643391e+01 1.0000000000000000e+00 4.9913720392304928e+00 7.5102077611780149e-01 1.8806070858687566e+01 
245 0 1 1.0486864736883172e+00 -1.7837217265805638e+01 1.0000000000000000e+00 5.4368046588226777e+00 5.3791381508902898e+00 1.9293546408048382e+01 
465 0 1 1.0081261370237014e+00 -5.8050492255201512e+01 1.0000000000000000e+00 5.9613302073685759e+00 4.2595084488825492e+00 1.8878809480437887e+01 
61 0 1 1.0109807539678446e+00 -1.5761875900302970e+01 1.0000000000000000e+00 4.8647471338763504e+00 5.5515707372658785e+00 1.6920354957647675e+01 
511 0 1 1.0529556761366787e+00 -2.3446270615846728e+01 1.0000000000000000e+00 5.5941643974953301e+00 5.6972700088545487e+00 1.9861969287388476e+01 
404 0 1 1.0039427049114582e+00 -2.9326942094770974e+01 1.0000000000000000e+00 5.3075427494568661e+00 6.4083216947918142e+00 1.9079107711970529e+01 
640 0 1 1.0022389580151119e+00 -1.4736924892960408e+01 1.0000000000000000e+00 5.7269638108871481e+00 7.8011954716207228e+00 1.7219281617926221e+01 
101 0 1 1.0171021664302216e+00 -3.2257272849242341e+01 1.0000000000000000e+00 4.9328324534920682e+00 7.3841405936142213e+00 1.6891458857737973e+01 
441 0 1 1.0189877071413542e+00 -2.0580664436200710e+01 1.0000000000000000e+00 5.6854227508712540e+00 8.2548243809873760e+00 1.9347700075522962e+01 
377 0 1 1.0337080744919878e+00 -2.9755205036152571e+01 1.0000000000000000e+00 6.2724700685962427e+00 8.6345993342218108e+00 1.9770353838056444e+01 
542 0 1 1.0366281051020070e+00 -2.6164470241635222e+01 1.0000000000000000e+00 3.1181310978047856e+00 1.1734365832051013e+01 1.5821282458820238e+00 
383 0 1 1.0030975695802686e+00 -2.1092999141198959e+01 1.0000000000000000e+00 2.5898927438238744e+00 1.0984999241633412e+01 2.0497272449990528e-01 
526 0 1 1.0265397726797729e+00 -4.4644060122514606e+00 1.0000000000000000e+00 2.8910794390540149e+00 1.0002265807447046e+01 7.3332355735655219e-01 
102 0 1 1.0431627283718081e+00 -4.3146927843072199e+01 1.0000000000000000e+00 2.1239897722713361e+00 1.0399476439321035e+01 3.1039512750040088e+00 
251 0 1 1.0086622760911914e+00 -3.4082127381807794e+01 1.0000000000000000e+00 1.1483432154090671e+00 1.2981762246231861e+01 4.1907192411869915e-01 
378 0 1 1.0131880397445761e+00 6.9633346505441063e+00 1.0000000000000000e+00 6.4694064731983776e+00 1.1426106178491015e+01 6.0817668578682771e-01 
340 0 1 9.8901770841728354e-01 -4.3074323124175834e+01 1.0000000000000000e+00 6.5784244983174949e+00 1.1394964442132697e+01 1.9008773967050929e+00 
592 0 1 1.0303602389653486e+00 -8.2604180082101006e+00 1.0000000000000000e+00 6.3608415939169038e+00 1.1964840982042725e+01 5.6214705683216126e-01 
535 0 1 1.0497369796909981e+00 -4.6389834334283371e+01 1.0000000000000000e+00 2.9269497550999257e+00 1.3851843101447352e+01 8.7708624961883874e-01 
256 0 1 9.9728219443197152e-01 -3.5439106843720161e+01 1.0000000000000000e+00 2.2781313249648032e+00 1.6606408596770461e+01 1.7275931840047405e+00 
548 0 1 1.0388935387567049e+00 -4.7494308012127846e+01 1.0000000000000000e+00 3.6673638900863552e+00 1.3399416123094122e+01 1.5160495891211165e+00 
629 0 1 1.0173401150640489e+00 -1.7828620117800284e+01 1.0000000000000000e+00 3.5512463559254996e+00 1.5409439274013204e+01 3.2558270387374786e+00 
211 0 1 1.0108069626576734e+00 -5.3127448196566050e+01 1.0000000000000000e+00 5.3747280207003456e+00 1.5722691206759603e+01 1.5137898610824636e+00 
224 0 1 1.0466760662490773e+00 -3.3054735236654203e+01 1.0000000000000000e+00 4.5503589695742885e+00 1.3838191716710872e+01 9.9487814786820616e-01 
514 0 1 1.0384311761297460e+00 -3.8597205584058287e+01 1.0000000000000000e+00 3.6979557899366648e+00 1.6605159278533538e+01 2.5119783434746910e+00 
82 0 1 1.0179066656071585e+00 -1.4287270115278382e+01 1.0000000000000000e+00 5.6988049290606719e+00 1.5428551640183164e+01 1.0771774405892667e+00 
244 0 1 1.0458496219803726e+00 -2.6925915671544100e+01 1.0000000000000000e+00 6.0712634916234576e+00 1.4407010483241171e+01 3.2286518174771595e+00 
349 0 1 1.0170467353647932e+00 -5.4848439802523792e+01 1.0000000000000000e+00 3.8118691431852825e+00 1.3728339474745068e+01 2.8307403705152994e+00 
305 0 1 1.0503999623311882e+00 -4.0018318006711766e+01 1.0000000000000000e+00 6.3544176116446920e+00 1.3619944907606685e+01 5.7538099150553412e-01 
389 0 1 1.0336120781138811e+00 -6.3818274636435724e+01 1.0000000000000000e+00 1.9131298253404874e+00 1.6674174149504179e+01 7.3400224895568766e-01 
428 0 1 1.0058598675286039e+00 -2.1058399531841530e+01 1.0000000000000000e+00 1.6311389885833454e+00 1.7076296810683424e+01 1.0595435778536173e+00 
259 0 1 1.0310638201947273e+00 -9.2003656391048008e+00 1.0000000000000000e+00 2.0865019055772409e+00 1.8623641125929879e+01 6.1317426522569130e-01 
384 0 1 1.0320693868175821e+00 -2.9750276885923505e+01 1.0000000000000000e+00 3.2562823689301927e+00 1.7460864075685862e+01 2.7843233576050053e-01 
50 0 1 1.0264420332082320e+00 -1.4321521447978849e+01 1.0000000000000000e+00 5.9070553637110752e+00 1.8469595179956219e+01 2.2964861513659458e+00 
584 0 1 1.0360566304799474e+00 -8.2766058471439354e+00 1.0000000000000000e+00 5.3769020495697708e+00 1.8629478029563433e+01 1.5467095073503614e-01 
299 0 1 1.0781346285288875e+00 -4.8715307722261969e+01 1.0000000000000000e+00 2.9473759667337931e+00 1.1368963196069044e+01 5.4946486931442591e+00 
54 0 1 1.0619471685829132e+00 -2.7864435888662298e+00 1.0000000000000000e+00 2.6997128423852863e+00 1.1694204447778723e+01 4.1104221513294048e+00 
577 0 1 1.0139086287423587e+00 -2.5675750720848388e+01 1.0000000000000000e+00 3.0073282723548185e+00 1.0376858015256580e+01 5.1205695403934000e+00 
617 0 1 1.0136657799302873e+00 -1.8159378603485898e+00 1.0000000000000000e+00 2.9383237818558885e+00 1.1925703691660200e+01 5.6336249415814033e+00 
363 0 1 1.0264476263444882e+00 -3.0613200918242377e+01 1.0000000000000000e+00 5.8921980969698948e+00 1.2777008468025544e+01 3.4483535979807032e+00 
478 0 1 1.0406338667774158e+00 -3.2086050312179708e+01 1.0000000000000000e+00 3.8881494845851172e+00 1.1816845274506472e+01 3.4568167118787225e+00 
568 0 1 1.0054195556607664e+00 -3.5751810379920634e+01 1.0000000000000000e+00 4.2319223755625694e+00 1.1226369814694014e+01 3.7969829058745135e+00 
274 0 1 1.0485421423172112e+00 -4.9182694928524393e+00 1.0000000000000000e+00 6.5340023719924387e+00 1.3050950701411104e+01 5.6010886198346483e+00 
111 0 1 1.0104733692583818e+00 -2.7309925237672768e+01 1.0000000000000000e+00 6.3607545553539335e+00 1.1184333195737564e+01 4.7980162649635831e+00 
543 0 1 1.0558773694163774e+00 -2.8212460621184317e+01 1.0000000000000000e+00 2.8672206116555232e+00 1.6463227904852737e+01 4.3571096196497630e+00 
287 0 1 1.0237417511267590e+00 -9.4096848370906827e-01 1.0000000000000000e+00 2.6723122189315145e+00 1.6610226028367162e+01 4.2034582450695845e+00 
451 0 1 1.0208920374056252e+00 -3.0618885970254276e+01 1.0000000000000000e+00 5.0561299515134346e+00 1.4739094693232644e+01 3.6824301860327564e+00 
612 0 1 1.0114229087925362e+00 -3.1805662969039645e+01 1.0000000000000000e+00 6.2279716930514395e+00 1.4045337721452240e+01 3.4056066982573587e+00 
148 0 1 1.0460050835522912e+00 -2.4974466620875614e+01 1.0000000000000000e+00 4.7136740537332846e+00 1.6601830193143609e+01 5.7979760831467795e+00 
541 0 1 9.9722582330862763e-01 -4.3954971062192527e+01 1.0000000000000000e+00 3.0698141617239569e+00 1.7753383706543310e+01 4.2562352475410998e+00 
71 0 1 1.0207778632346891e+00 -1.0467860249723403e+01 1.0000000000000000e+00 5.9671159630638062e+00 1.6928921128546818e+01 3.3505162181172725e+00 
40 0 1 1.0200170230444732e+00 -1.4998274076199749e+01 1.0000000000000000e+00 6.5146533531812860e+00 1.7143688267036978e+01 5.3174132774434870e+00 
112 0 1 1.0341616723580855e+00 -2.8636375180033049e+01 1.0000000000000000e+00 4.5548503806796452e+00 1.7648802263574773e+01 6.0272961611430240e+00 
641 0 1 1.0360636120521500e+00 -1.1031494962827413e+00 1.0000000000000000e+00 4.8169178373352572e+00 1.9539328774729434e+01 3.6074551399868948e+00 
370 0 1 1.0094489036084255e+00 -2.8206411047458186e+01 1.0000000000000000e+00 3.6484326712739534e+00 1.7989789224826790e+01 4.1445873257739727e+00 
113 0 1 1.0527677410272656e+00 -1.0063563393762442e+01 1.0000000000000000e+00 5.7833291148896109e+00 1.9945752901947984e+01 4.0211118556739809e+00 
346 0 1 1.0138113591487774e+00 -2.4060560372500110e+01 1.0000000000000000e+00 2.8771105516258584e+00 1.1417424305227728e+01 9.5833435155683784e+00 
578 0 1 1.0291699497541422e+00 -2.1787577787389946e+01 1.0000000000000000e+00 2.7951968042956659e+00 1.3087315688856132e+01 7.9064674664238010e+00 
17 0 1 1.0163312957021098e+00 -3.0888893104658326e+00 1.0000000000000000e+00 2.4649292029615895e+00 1.0575450315177930e+01 8.6968078658125165e+00 
46 0 1 1.0392778122051720e+00 -1.6462682409204408e+01 1.0000000000000000e+00 3.2412150515790277e+00 1.2137596587766467e+01 7.2526790394750220e+00 
233 0 1 1.0084023626593874e+00 -2.6316526246147493e+01 1.0000000000000000e+00 6.0601523461077589e+00 1.2555067481697179e+01 8.8140886285248268e+00 
375 0 1 1.0260085631436722e+00 -1.1682549296966446e+01 1.0000000000000000e+00 6.4532307599845051e+00 1.1622771563543099e+01 7.9923906778909481e+00 
27 0 1 1.0417732590345077e+00 -1.4707130040218052e+01 1.0000000000000000e+00 3.8379364518031456e+00 1.2601036928341863e+01 7.2469564687308763e+00 
170 0 1 1.0322466331710010e+00 -2.0973519227027086e+01 1.0000000000000000e+00 6.1313474147144991e+00 1.2189326939673085e+01 6.8587972733946296e+00 
99 0 1 1.0246783015530501e+00 -2.7429228290829716e+01 1.0000000000000000e+00 5.0081211513689965e+00 1.0259910201287489e+01 8.9071683051609138e+00 
253 0 1 1.0105022434563640e+00 -1.7673624936768139e+01 1.0000000000000000e+00 5.6964890130757055e+00 1.0976868912773595e+01 9.7651836744232785e+00 
468 0 1 9.9385295316744371e-01 -4.3901632789457402e+01 1.0000000000000000e+00 1.7614094439812249e+00 1.5775675967191630e+01 7.8870662271395959e+00 
131 0 1 1.0511329652374324e+00 -4.3112497435048574e+01 1.0000000000000000e+00 1.8006686883970842e+00 1.5981949036698287e+01 8.4150322324697626e+00 
601 0 1 9.9797814211382541e-01 -6.3465439820235181e+00 1.0000000000000000e+00 2.0925499332705111e+00 1.3809827883911019e+01 9.0656608289397269e+00 
204 0 1 9.9652567519701551e-01 -1.4766472145058998e+01 1.0000000000000000e+00 1.9998234838456550e+00 1.4798131717553458e+01 9.9002958086894228e+00 
166 0 1 9.8955091682886986e-01 -1.6038927665925716e+01 1.0000000000000000e+00 1.8525858017112866e+00 1.6077013222233212e+01 9.3207279090913335e+00 
456 0 1 1.0055528169298986e+00 -5.2781450378827252e+01 1.0000000000000000e+00 2.8575779740580947e+00 1.6001892775330592e+01 7.1188105846482719e+00 
290 0 1 1.0340300841894403e+00 -3.1393203569496844e+01 1.0000000000000000e+00 3.3383831057334512e+00 1.6201740932568615e+01 7.0831552754719418e+00 
352 0 1 1.0388059547450652e+00 -4.1258263797758502e+01 1.0000000000000000e+00 3.5927321586182317e+00 1.4037954039280056e+01 8.2779597350356280e+00 
306 0 1 1.0457600982884687e+00 -2.9113534949677152e+01 1.0000000000000000e+00 5.3758550362583613e+00 1.3375826476570074e+01 7.9823934391044755e+00 
496 0 1 1.0673070201265744e+00 -1.4011100903061260e+01 1.0000000000000000e+00 5.8988141494037558e+00 1.6459233161898545e+01 8.0937900880197216e+00 
19 0 1 1.0346835221462738e+00 -1.7978590446488880e+01 1.0000000000000000e+00 6.4537188271948809e+00 1.4518334186027657e+01 7.9862675212355052e+00 
128 0 1 1.0303698158097945e+00 -4.6048839837620186e+01 1.0000000000000000e+00 6.5577691283695358e+00 1.5328346208572475e+01 7.9139290102292703e+00 
334 0 1 1.0328114078515325e+00 -2.6267637180909645e+01 1.0000000000000000e+00 5.8283909900775450e+00 1.8294386790453437e+01 9.5558655099969911e+00 
219 0 1 1.0381139825892127e+00 -4.8780965047243129e+01 1.0000000000000000e+00 4.3915075180064918e+00 1.8260036759860018e+01 9.0013791210758498e+00 
444 0 1 1.0220249446284171e+00 -5.1181602213680854e+01 1.0000000000000000e+00 4.1616854179175551e+00 1.9092844283740320e+01 9.6441405060401522e+00 
474 0 1 1.0257933866685789e+00 -2.3540923277470394e+01 1.0000000000000000e+00 3.9163867398058558e+00 1.7476201091745345e+01 6.7446257773585234e+00 
240 0 1 1.0214244112779973e+00 -1.3536678026362100e+01 1.0000000000000000e+00 5.6216231647414565e+00 1.7686710758199538e+01 7.7544406619670241e+00 
393 0 1 1.0426093881540992e+00 1.5814542158067720e+01 1.0000000000000000e+00 3.0231304371084367e+00 1.0852072048614753e+01 1.0367087021460936e+01 
116 0 1 1.0434834057728231e+00 -3.2399338400345286e+01 1.0000000000000000e+00 3.3193795407575681e+00 1.0657641900917801e+01 1.0699282671623301e+01 
78 0 1 1.0329674951577976e+00 -1.5709983409803890e+01 1.0000000000000000e+00 5.0872757691333552e+00 1.0344238695608821e+01 1.1616149816012369e+01 
566 0 1 1.0291081722852966e+00 -5.0779042234648706e+01 1.0000000000000000e+00 4.8940295170638706e+00 1.2961450484564081e+01 1.1082214888820296e+01 
288 0 1 1.0434503826871095e+00 -1.7836594301132024e+01 1.0000000000000000e+00 5.4518387647525737e+00 1.1597407707762049e+01 1.2514854765190369e+01 