LAMMPS data file via write_data, version 30 Jul 2016, timestep = 50400000

180 atoms
2 atom types

0.0000000000000000e+00 2.0000000000000000e+01 xlo xhi
0.0000000000000000e+00 2.0000000000000000e+01 ylo yhi
0.0000000000000000e+00 2.0000000000000000e+01 zlo zhi

Masses

1 3.896
2 4.31

Atoms # meso-molecular

59 1 2 1.0280019477087543e+00 -2.4034580326666207e+02 1.0000000000000000e+00 5.1775024860240038e+00 3.5084871885891795e+00 3.0162441136010965e+00 
89 1 2 1.0280019477087543e+00 -2.0621136917186990e+02 1.0000000000000000e+00 5.1775024860239780e+00 3.5084871885891875e+00 3.0162441136011848e+00 
53 1 2 1.0280019477087543e+00 -2.0241582477872365e+02 1.0000000000000000e+00 5.1775024860239780e+00 3.5084871885891875e+00 3.0162441136011848e+00 
52 1 2 1.0280019477087543e+00 -2.3266159885981017e+02 1.0000000000000000e+00 5.1775024860240038e+00 3.5084871885891795e+00 3.0162441136010965e+00 
58 1 2 1.0280019477087543e+00 -2.3393347758015480e+02 1.0000000000000000e+00 5.1775024860239691e+00 3.5084871885891729e+00 3.0162441136012101e+00 
94 1 2 1.0280019477087543e+00 -1.9734032266356454e+02 1.0000000000000000e+00 5.1775024860240331e+00 3.5084871885890552e+00 3.0162441136009894e+00 
54 1 2 1.0280019477087543e+00 -2.4324137731017171e+02 1.0000000000000000e+00 5.1775024860239975e+00 3.5084871885890863e+00 3.0162441136011084e+00 
44 1 2 1.0279996324476173e+00 -2.4579176545036913e+02 1.0000000000000000e+00 2.3682906240329764e+00 2.3727279035869815e+00 5.8355921050126316e+00 
145 1 2 1.0279996324726981e+00 -2.3738580106778468e+02 1.0000000000000000e+00 2.3682890681817819e+00 2.3727268443960847e+00 5.8355917525424337e+00 
87 1 2 1.0279996324371876e+00 -2.5805372162414278e+02 1.0000000000000000e+00 2.3682912710213038e+00 2.3727283436219380e+00 5.8355922515411613e+00 
146 1 2 1.0279996324726990e+00 -2.4985132955044722e+02 1.0000000000000000e+00 2.3682890681482158e+00 2.3727268443741414e+00 5.8355917525349339e+00 
81 1 2 1.0279996325019187e+00 -2.2929791953530349e+02 1.0000000000000000e+00 2.3682872552543688e+00 2.3727256069922622e+00 5.8355913414906091e+00 
151 1 2 1.0279996324727034e+00 -2.5021866988032301e+02 1.0000000000000000e+00 2.3682890679180102e+00 2.3727268442162535e+00 5.8355917524826557e+00 
27 1 2 1.0279988590768061e+00 2.6688511829967018e+02 1.0000000000000000e+00 2.0949358785586472e+00 3.4508482035339165e+00 6.6406476941491226e+00 
8 1 2 1.0280001813203785e+00 -2.2912483651205929e+02 1.0000000000000000e+00 4.5567745616268089e+00 3.2035824838712768e-01 7.5598765930907046e+00 
2 1 2 1.0280001813203781e+00 -2.8831205874245200e+02 1.0000000000000000e+00 4.5567745616270043e+00 3.2035824838684746e-01 7.5598765930905989e+00 
7 1 2 1.0280001813198134e+00 -1.7062647138067399e+02 1.0000000000000000e+00 4.5567738901920505e+00 3.2035804869885809e-01 7.5598779765157440e+00 
13 1 2 1.0280001813198141e+00 -1.7263643683363352e+02 1.0000000000000000e+00 4.5567738901919830e+00 3.2035804869877077e-01 7.5598779765159421e+00 
1 1 2 1.0280001813203783e+00 -2.4070704275054166e+02 1.0000000000000000e+00 4.5567745616270239e+00 3.2035824838696897e-01 7.5598765930904577e+00 
86 1 2 1.0280001813166550e+00 -1.9514009127049997e+02 1.0000000000000000e+00 4.5567702674051933e+00 3.2035694617540739e-01 7.5598854626568528e+00 
92 1 2 1.0280002120238314e+00 -2.1023677809114031e+02 1.0000000000000000e+00 4.6163485378499924e-01 4.0564665126189210e+00 7.3952842666287362e+00 
93 1 2 1.0280002120237390e+00 -2.5786885903208059e+02 1.0000000000000000e+00 4.6163485281303962e-01 4.0564666002929854e+00 7.3952842961706020e+00 
135 1 2 1.0280002120238265e+00 -2.7736589615034632e+02 1.0000000000000000e+00 4.6163485405651355e-01 4.0564664998287734e+00 7.3952842622157711e+00 
178 1 2 1.0280002120238496e+00 -2.6146726289049093e+02 1.0000000000000000e+00 4.6163485453502878e-01 4.0564664417512599e+00 7.3952842427779562e+00 
127 1 2 1.0280000299952801e+00 -2.1480789608563205e+02 1.0000000000000000e+00 1.9535325415975811e+00 6.3337758609729171e+00 7.7858498397971374e+00 
105 1 2 1.0280000299956575e+00 9.0391568810404743e-01 1.0000000000000000e+00 1.9535330632002079e+00 6.3337761209458661e+00 7.7858505430833578e+00 
157 1 2 1.0280000299952803e+00 -2.5932254115193393e+02 1.0000000000000000e+00 1.9535325417944855e+00 6.3337758610919748e+00 7.7858498401269172e+00 
121 1 2 1.0280000299952798e+00 -2.4847737415248528e+02 1.0000000000000000e+00 1.9535325415523874e+00 6.3337758609454884e+00 7.7858498397211298e+00 
158 1 2 1.0280000299952929e+00 -2.6207911333188639e+02 1.0000000000000000e+00 1.9535325593306792e+00 6.3337758717676138e+00 7.7858498697194873e+00 
163 1 2 1.0280000299952801e+00 -2.3799747643775518e+02 1.0000000000000000e+00 1.9535325416847316e+00 6.3337758610253871e+00 7.7858498399424043e+00 
113 1 2 1.0280002337423970e+00 -2.3249081082308604e+02 1.0000000000000000e+00 1.4489116102980515e+00 3.3936779687531380e+00 8.9704747576469313e+00 
19 1 2 1.0280002358766782e+00 -1.7778463006645515e+02 1.0000000000000000e+00 1.4086786253561216e+00 3.3874708723736546e+00 8.9720217717957720e+00 
114 1 2 1.0280002242867659e+00 -2.1574199929036260e+02 1.0000000000000000e+00 1.0842156642189893e+00 3.3656200761809876e+00 9.0141178876759831e+00 
180 1 2 1.0279998891666335e+00 -2.6265986687837602e+02 1.0000000000000000e+00 2.9703056855207741e+00 4.4574336594861208e+00 9.0574187206020298e+00 
144 1 2 1.0279998891666318e+00 -3.1281708607816421e+02 1.0000000000000000e+00 2.9703056855666805e+00 4.4574336595518345e+00 9.0574187205587897e+00 
139 1 2 1.0279998891666331e+00 -3.2947822859007937e+02 1.0000000000000000e+00 2.9703056855863301e+00 4.4574336595793085e+00 9.0574187205400989e+00 
33 1 2 1.0279998891672972e+00 -1.6947067075172843e+01 1.0000000000000000e+00 2.9703040564814218e+00 4.4574318465651936e+00 9.0574203936845272e+00 
175 1 2 1.0279998891666329e+00 -2.2143112993238120e+02 1.0000000000000000e+00 2.9703056854651293e+00 4.4574336594066466e+00 9.0574187206545016e+00 
97 1 2 1.0280060673982550e+00 -1.9880616555061172e+02 1.0000000000000000e+00 5.4527860458212221e+00 3.5797969545656407e+00 6.9161877591271974e+00 
134 1 2 1.0280060673982547e+00 -2.3275209918683052e+02 1.0000000000000000e+00 5.4527860458212167e+00 3.5797969545656310e+00 6.9161877591271619e+00 
91 1 2 1.0280060673982550e+00 -2.0351325131466743e+02 1.0000000000000000e+00 5.4527860458212221e+00 3.5797969545656407e+00 6.9161877591271974e+00 
29 1 2 1.0280060673982550e+00 -1.8438137764063748e+02 1.0000000000000000e+00 5.4527860458212221e+00 3.5797969545656407e+00 6.9161877591271974e+00 
30 1 2 1.0280060673982547e+00 -2.1086851679659938e+02 1.0000000000000000e+00 5.4527860458212167e+00 3.5797969545656310e+00 6.9161877591271619e+00 
72 1 2 1.0280060673982550e+00 -2.2111539626967235e+02 1.0000000000000000e+00 5.4527860458212221e+00 3.5797969545656407e+00 6.9161877591271974e+00 
36 1 2 1.0280060673982550e+00 -2.2214979832059655e+02 1.0000000000000000e+00 5.4527860458212221e+00 3.5797969545656407e+00 6.9161877591271974e+00 
61 1 2 1.0280000737173454e+00 -1.9522080409069000e+02 1.0000000000000000e+00 3.5110829652394898e-01 1.1808883044125635e+00 1.2459662184918857e+01 
17 1 2 1.0280000737173445e+00 -2.0378947616685249e+02 1.0000000000000000e+00 3.5110829652384923e-01 1.1808883044126108e+00 1.2459662184918821e+01 
11 1 2 1.0280000737173449e+00 -2.1407960492013706e+02 1.0000000000000000e+00 3.5110829652380776e-01 1.1808883044126339e+00 1.2459662184918800e+01 
16 1 2 1.0280000737173447e+00 -1.9319314873542564e+02 1.0000000000000000e+00 3.5110829652385811e-01 1.1808883044125995e+00 1.2459662184918827e+01 
112 1 2 1.0279542540743856e+00 -2.1912585793118387e+02 1.0000000000000000e+00 6.4657132698987034e+00 6.6388457893544128e+00 1.1468790307373911e+01 
90 1 2 1.0279542540743856e+00 -2.9327557968524849e+02 1.0000000000000000e+00 6.4657132698985817e+00 6.6388457893545567e+00 1.1468790307373816e+01 
118 1 2 1.0279542540743856e+00 -2.1604220006147469e+02 1.0000000000000000e+00 6.4657132698985311e+00 6.6388457893546944e+00 1.1468790307373759e+01 
125 1 2 1.0279542540743856e+00 -2.5076423429696473e+02 1.0000000000000000e+00 6.4657132698988162e+00 6.6388457893541348e+00 1.1468790307374032e+01 
119 1 2 1.0279542540743858e+00 -2.6731192338963081e+02 1.0000000000000000e+00 6.4657132698986244e+00 6.6388457893547770e+00 1.1468790307373784e+01 
169 1 2 1.0279542540743856e+00 -1.7632993594107100e+02 1.0000000000000000e+00 6.4657132698983011e+00 6.6388457893550585e+00 1.1468790307373560e+01 
170 1 2 1.0279542540743856e+00 -1.7371850749494911e+02 1.0000000000000000e+00 6.4657132698982958e+00 6.6388457893551145e+00 1.1468790307373544e+01 
25 1 2 1.0280000267086618e+00 -5.2781375215431126e+01 1.0000000000000000e+00 5.8606196718828860e+00 1.7682652590719062e+01 1.1326902592868078e+00 
69 1 2 1.0280000267697775e+00 1.4192320583143728e+01 1.0000000000000000e+00 5.8720120298188050e+00 1.7671520605307609e+01 1.1314835196173392e+00 
128 1 2 1.0280000251975290e+00 -2.2677679307251580e+02 1.0000000000000000e+00 5.7951602089691852e+00 1.7767670836064738e+01 1.1299108516893825e+00 
164 1 2 1.0280000277515673e+00 -2.3277355445486108e+02 1.0000000000000000e+00 5.9426715410529605e+00 1.7540418405479944e+01 1.1110186595503859e+00 
122 1 2 1.0280000242983547e+00 -2.4172811154296056e+02 1.0000000000000000e+00 6.0694393517746992e+00 1.7121715583162764e+01 8.8408357127368431e-01 
141 1 2 1.0280000164566421e+00 -1.6763273587679140e+02 1.0000000000000000e+00 3.1227748121886965e+00 1.6034841151308957e+01 5.4689773437170901e+00 
79 1 2 1.0280000164562455e+00 -2.9086644363291299e+02 1.0000000000000000e+00 3.1227778791826006e+00 1.6034839406284036e+01 5.4689760756961769e+00 
142 1 2 1.0280000164566427e+00 -1.7252166493290420e+02 1.0000000000000000e+00 3.1227748121889580e+00 1.6034841151308694e+01 5.4689773437166433e+00 
106 1 2 1.0280000164566423e+00 -1.7282947291247467e+02 1.0000000000000000e+00 3.1227748121888865e+00 1.6034841151308889e+01 5.4689773437171327e+00 
68 1 2 1.0280000164566105e+00 1.4501479811711997e+01 1.0000000000000000e+00 3.1227749822036874e+00 1.6034841054579683e+01 5.4689772734398909e+00 
137 1 2 1.0279996641681157e+00 -2.2998329789500519e+02 1.0000000000000000e+00 2.6855646887050475e+00 1.9586188248962046e+01 5.7265586244111786e+00 
138 1 2 1.0279996641688014e+00 -2.5821898100438835e+02 1.0000000000000000e+00 2.6855639452683948e+00 1.9586186332520509e+01 5.7265587797758730e+00 
108 1 2 1.0279996640847278e+00 -3.0913988845339424e+02 1.0000000000000000e+00 2.6856414364410068e+00 1.9586433692723240e+01 5.7265490822321459e+00 
102 1 2 1.0279996633757937e+00 -3.1181550878335332e+02 1.0000000000000000e+00 2.6862640333351622e+00 1.9588541257428311e+01 5.7264881065040765e+00 
49 1 2 1.0279999573077838e+00 -1.7404335790181946e+02 1.0000000000000000e+00 3.7961224664998769e+00 1.7323198464344202e+01 4.8466112588099932e+00 
162 1 2 1.0279999574317580e+00 -2.6540644780302603e+02 1.0000000000000000e+00 3.7961868821031333e+00 1.7321456723958914e+01 4.8457529257687124e+00 
132 1 2 1.0279999574317600e+00 -2.3751006666088523e+02 1.0000000000000000e+00 3.7961868832194678e+00 1.7321456688028700e+01 4.8457529078924972e+00 
168 1 2 1.0279999574317573e+00 -2.8164017430898343e+02 1.0000000000000000e+00 3.7961868816943873e+00 1.7321456737142533e+01 4.8457529323287165e+00 
176 1 2 1.0280003732702687e+00 -2.7167478709666221e+02 1.0000000000000000e+00 2.7893746586272736e+00 1.8764766046130358e+01 7.2112566104831819e+00 
177 1 2 1.0280003732702692e+00 -2.1761871175277918e+02 1.0000000000000000e+00 2.7893746586275414e+00 1.8764766046130308e+01 7.2112566104833480e+00 
140 1 2 1.0280003732702696e+00 -2.1411265096903844e+02 1.0000000000000000e+00 2.7893746586278252e+00 1.8764766046130397e+01 7.2112566104836411e+00 
96 1 2 1.0280003732702654e+00 -1.9249299847537037e+02 1.0000000000000000e+00 2.7893746593226187e+00 1.8764766045400162e+01 7.2112566104235629e+00 
70 1 2 1.0279999220681701e+00 -2.1268442929865768e+02 1.0000000000000000e+00 1.7291956555421353e+00 1.9793476057766455e+01 1.1668453288534206e+01 
88 1 2 1.0279999220699172e+00 -1.9552156733099054e+02 1.0000000000000000e+00 1.7291882144358837e+00 1.9793469790528320e+01 1.1668451318040104e+01 
5 1 2 1.0279999220674649e+00 -2.1321318724546023e+02 1.0000000000000000e+00 1.7291981687169033e+00 1.9793478345629531e+01 1.1668453654036053e+01 
38 1 2 1.0279999220648690e+00 -2.1439252736762214e+02 1.0000000000000000e+00 1.7292073140023998e+00 1.9793486754901490e+01 1.1668454837593506e+01 
123 1 2 1.0279999220653115e+00 -2.2895760802934441e+02 1.0000000000000000e+00 1.7292054665237711e+00 1.9793485187648294e+01 1.1668454367736809e+01 
78 1 2 1.0279999220670843e+00 -2.3014605347257225e+02 1.0000000000000000e+00 1.7291994803516755e+00 1.9793479552876708e+01 1.1668453821666830e+01 
24 1 2 1.0279999968482390e+00 -3.0281229097513608e+02 1.0000000000000000e+00 6.1165399982377204e+00 1.3699120297023818e+01 1.4508233667295364e+01 
60 1 2 1.0279999968482478e+00 -2.3861557967646138e+02 1.0000000000000000e+00 6.1165398811446297e+00 1.3699120128329747e+01 1.4508233665965140e+01 
98 1 2 1.0279999968482476e+00 -2.6404047565983933e+02 1.0000000000000000e+00 6.1165398813715806e+00 1.3699120128656780e+01 1.4508233665967605e+01 
99 1 2 1.0279999968482478e+00 -2.7251551756040521e+02 1.0000000000000000e+00 6.1165398805785616e+00 1.3699120127514796e+01 1.4508233665957702e+01 
124 1 2 1.0279999816320182e+00 -2.1546450388886200e+02 1.0000000000000000e+00 4.5645653318179535e+00 1.5988192812317797e+01 1.6516949690078384e+01 
152 1 2 1.0279999842279481e+00 -1.7725017387034848e+02 1.0000000000000000e+00 6.4733026056787164e+00 1.5654502175559013e+01 1.6338792922106176e+01 
159 1 2 1.0279999842279481e+00 -1.9719129098771612e+02 1.0000000000000000e+00 6.4733026056788372e+00 1.5654502175559346e+01 1.6338792922105903e+01 
153 1 2 1.0279999842279486e+00 -1.9241276680269144e+02 1.0000000000000000e+00 6.4733026056788132e+00 1.5654502175559241e+01 1.6338792922106009e+01 
117 1 2 1.0279999842287586e+00 -2.1293777247790001e+02 1.0000000000000000e+00 6.4733157104495671e+00 1.5654507753154688e+01 1.6338803267644352e+01 
12 1 2 1.0279999841988932e+00 -2.8819751149487792e+02 1.0000000000000000e+00 6.4734576638899011e+00 1.5654437753267032e+01 1.6339086316762607e+01 
100 1 2 1.0279999832945570e+00 -2.2978559971811916e+02 1.0000000000000000e+00 4.2988210229505448e+00 1.9049890407809897e+01 1.5871843584208149e+01 
65 1 2 1.0279999832945568e+00 -2.2620681269853611e+02 1.0000000000000000e+00 4.2988210229335531e+00 1.9049890407788357e+01 1.5871843584190616e+01 
84 1 2 1.0279999832945572e+00 -3.3358192243520978e+02 1.0000000000000000e+00 4.2988210229095687e+00 1.9049890407757360e+01 1.5871843584164319e+01 
101 1 2 1.0279999832945581e+00 -2.5601576015400059e+02 1.0000000000000000e+00 4.2988210229337724e+00 1.9049890407788549e+01 1.5871843584190628e+01 
95 1 2 1.0279999832945570e+00 -2.2635047106049473e+02 1.0000000000000000e+00 4.2988210229336934e+00 1.9049890407788425e+01 1.5871843584190474e+01 
46 1 2 1.0280000264606097e+00 -2.8636567233922273e+02 1.0000000000000000e+00 5.8970791468511967e+00 1.8292304793874731e+01 1.6065799439360873e+01 
3 1 2 1.0280000264606075e+00 -2.4078556175281170e+02 1.0000000000000000e+00 5.8970791468558685e+00 1.8292304793858985e+01 1.6065799439352077e+01 
47 1 2 1.0280000264606233e+00 -2.3209977717229043e+02 1.0000000000000000e+00 5.8970792309377229e+00 1.8292304516083181e+01 1.6065799293066039e+01 
4 1 2 1.0280000264606102e+00 -2.5988924044425352e+02 1.0000000000000000e+00 5.8970791468449315e+00 1.8292304793895948e+01 1.6065799439372849e+01 
83 1 2 1.0279999961814728e+00 -2.1901733198493261e+02 1.0000000000000000e+00 4.0754908886408163e+00 1.6619511492787073e+01 1.7091924498121976e+01 
41 1 2 1.0279999961814164e+00 -2.4095518577404880e+02 1.0000000000000000e+00 4.0754910377203624e+00 1.6619512871108565e+01 1.7091926036606058e+01 
48 1 2 1.0279999961823514e+00 -2.8706750088170253e+02 1.0000000000000000e+00 4.0754892705768144e+00 1.6619494856275676e+01 1.7091906276924252e+01 
6 1 2 1.0279999961821196e+00 -2.5714170798399823e+02 1.0000000000000000e+00 4.0754896138220298e+00 1.6619498592548993e+01 1.7091910330417559e+01 
42 1 2 1.0279999961825175e+00 -2.7441521411343950e+02 1.0000000000000000e+00 4.0754888880449629e+00 1.6619490822198056e+01 1.7091901877282854e+01 
71 1 2 1.0279999579642354e+00 -2.3345351760495305e+02 1.0000000000000000e+00 5.2457745154540651e+00 1.7986028941187833e+01 1.9715590938194698e+01 
77 1 2 1.0279999579642345e+00 -2.0372329780760134e+02 1.0000000000000000e+00 5.2457745142801953e+00 1.7986028958691591e+01 1.9715590961021547e+01 
136 1 2 1.0279999579559800e+00 -2.9408863270323417e+02 1.0000000000000000e+00 5.2457911302009590e+00 1.7985985153911123e+01 1.9715512978911313e+01 
107 1 2 1.0279999579642614e+00 -2.3152124618164146e+02 1.0000000000000000e+00 5.2457745041470849e+00 1.7986029086158627e+01 1.9715591129669711e+01 
23 1 2 1.0279980196195064e+00 -2.8805670708677258e+02 1.0000000000000000e+00 8.3036516548062007e+00 3.3868257502943799e+00 3.9558778958298544e+00 
9 1 2 1.0279980196195064e+00 -1.8232173396791097e+02 1.0000000000000000e+00 8.3036516548062007e+00 3.3868257502943799e+00 3.9558778958298544e+00 
66 1 2 1.0279980196195062e+00 -2.4359883386108692e+02 1.0000000000000000e+00 8.3036516548044403e+00 3.3868257502928873e+00 3.9558778958355316e+00 
45 1 2 1.0279980196195064e+00 -1.6650354264795703e+02 1.0000000000000000e+00 8.3036516548062007e+00 3.3868257502943799e+00 3.9558778958298544e+00 
51 1 2 1.0279980196195067e+00 -1.8740448151516080e+02 1.0000000000000000e+00 8.3036516548066839e+00 3.3868257502940966e+00 3.9558778958281962e+00 
85 1 2 1.0279980196195064e+00 -2.1146010382015322e+02 1.0000000000000000e+00 8.3036516548062007e+00 3.3868257502943799e+00 3.9558778958298544e+00 
82 1 2 1.0279980196195067e+00 -2.2910604635706949e+02 1.0000000000000000e+00 8.3036516548066839e+00 3.3868257502940966e+00 3.9558778958281962e+00 
104 1 2 1.0280473603961864e+00 -2.5136184405315629e+02 1.0000000000000000e+00 7.8836128032637864e+00 5.9624062920565670e+00 8.6039721581558197e+00 
37 1 2 1.0280473603961864e+00 -1.9991475871138604e+02 1.0000000000000000e+00 7.8836128032637864e+00 5.9624062920565670e+00 8.6039721581558197e+00 
130 1 2 1.0280473603961864e+00 -1.8408060950805753e+02 1.0000000000000000e+00 7.8836128032638522e+00 5.9624062920565608e+00 8.6039721581558553e+00 
67 1 2 1.0280473603961864e+00 -2.0781953548944472e+02 1.0000000000000000e+00 7.8836128032637864e+00 5.9624062920565670e+00 8.6039721581558197e+00 
73 1 2 1.0280473603961864e+00 -2.9065412087294135e+02 1.0000000000000000e+00 7.8836128032638175e+00 5.9624062920565821e+00 8.6039721581558322e+00 
103 1 2 1.0280473603961864e+00 -3.0451315753725709e+02 1.0000000000000000e+00 7.8836128032637864e+00 5.9624062920565670e+00 8.6039721581558197e+00 
109 1 2 1.0280473603961864e+00 -2.6865249329146451e+02 1.0000000000000000e+00 7.8836128032637864e+00 5.9624062920565670e+00 8.6039721581558197e+00 
50 1 2 1.0279999834500833e+00 -1.5985939327940179e+02 1.0000000000000000e+00 6.9356746271508474e+00 1.2793566540139382e+01 1.3616776355022512e+01 
129 1 2 1.0279999943089844e+00 -1.5038298132650709e+02 1.0000000000000000e+00 6.8200778054621711e+00 1.2573981743877376e+01 1.3725617057332288e+01 
165 1 2 1.0279999943089804e+00 -2.1364747470982519e+02 1.0000000000000000e+00 6.8200778025219462e+00 1.2573981739914787e+01 1.3725617061218880e+01 
171 1 2 1.0279999943089804e+00 -2.5277757244962950e+02 1.0000000000000000e+00 6.8200777985698693e+00 1.2573981734098540e+01 1.3725617067246960e+01 
166 1 2 1.0279999943089801e+00 -2.3587586247507630e+02 1.0000000000000000e+00 6.8200778035138239e+00 1.2573981741537283e+01 1.3725617059438935e+01 
126 1 2 1.0279981168435133e+00 -3.3694548134149898e+02 1.0000000000000000e+00 1.0940747518581507e+01 1.4087736989953219e+01 1.5703207319748429e+01 
155 1 2 1.0279981168435133e+00 -2.6937493399685422e+02 1.0000000000000000e+00 1.0940747518581507e+01 1.4087736989953219e+01 1.5703207319748429e+01 
150 1 2 1.0279981168435133e+00 -1.9352756737070882e+02 1.0000000000000000e+00 1.0940747518581507e+01 1.4087736989953219e+01 1.5703207319748429e+01 
18 1 2 1.0279981168435133e+00 -2.8924625397179972e+02 1.0000000000000000e+00 1.0940747518581516e+01 1.4087736989953225e+01 1.5703207319748447e+01 
149 1 2 1.0279981168435133e+00 -2.3452580259093574e+02 1.0000000000000000e+00 1.0940747518581507e+01 1.4087736989953219e+01 1.5703207319748429e+01 
156 1 2 1.0279981168435133e+00 -2.6001975361249430e+02 1.0000000000000000e+00 1.0940747518581507e+01 1.4087736989953219e+01 1.5703207319748429e+01 
28 1 2 1.0279981168435133e+00 -4.2724474694584273e+01 1.0000000000000000e+00 1.0940747518581507e+01 1.4087736989953219e+01 1.5703207319748429e+01 
167 1 2 1.0280019029638319e+00 -2.1733332381613076e+02 1.0000000000000000e+00 9.8949304537354443e+00 1.7139267004293242e+01 1.5188481516765838e+01 
179 1 2 1.0280019029638319e+00 -3.1095882317143202e+02 1.0000000000000000e+00 9.8949304537365688e+00 1.7139267004266802e+01 1.5188481516607395e+01 
172 1 2 1.0280019029638321e+00 -2.6994260564034641e+02 1.0000000000000000e+00 9.8949304537291809e+00 1.7139267004299150e+01 1.5188481516813324e+01 
131 1 2 1.0280019029638312e+00 -1.8429158951466155e+02 1.0000000000000000e+00 9.8949304537740783e+00 1.7139267004219274e+01 1.5188481516251263e+01 
174 1 2 1.0280019029638316e+00 -2.3435205105806494e+02 1.0000000000000000e+00 9.8949304537324014e+00 1.7139267004284822e+01 1.5188481516722193e+01 
173 1 2 1.0280019029638310e+00 -2.4334119597324789e+02 1.0000000000000000e+00 9.8949304537462694e+00 1.7139267004245283e+01 1.5188481516460717e+01 
143 1 2 1.0280019029638319e+00 -3.0475277574224282e+02 1.0000000000000000e+00 9.8949304537308809e+00 1.7139267004300812e+01 1.5188481516819712e+01 
40 1 2 1.0280000306086963e+00 -2.6785205777912364e+02 1.0000000000000000e+00 7.3446919346578028e+00 1.6626313674359345e+01 1.8632468523304080e+01 
55 1 2 1.0280000306086967e+00 -2.3516085326820820e+02 1.0000000000000000e+00 7.3446919346575958e+00 1.6626313674361153e+01 1.8632468523306475e+01 
39 1 2 1.0280000306086967e+00 -2.7071047178609297e+02 1.0000000000000000e+00 7.3446919346577619e+00 1.6626313674359270e+01 1.8632468523304215e+01 
120 1 2 1.0280000306086969e+00 -2.6941195335544160e+02 1.0000000000000000e+00 7.3446919346589805e+00 1.6626313674350310e+01 1.8632468523291408e+01 
76 1 2 1.0280000306086969e+00 -2.3111251979507784e+02 1.0000000000000000e+00 7.3446919346578028e+00 1.6626313674359345e+01 1.8632468523304073e+01 
75 1 2 1.0280000306086967e+00 -3.0913886224488863e+02 1.0000000000000000e+00 7.3446919346578028e+00 1.6626313674359427e+01 1.8632468523304144e+01 
35 1 2 1.0280000000000822e+00 -2.6275384209710933e+02 1.0000000000000000e+00 1.5208569446968660e+01 1.8147469291244607e+00 5.6741037249959279e+00 
26 1 2 1.0280000000000817e+00 -5.4710760909757141e+01 1.0000000000000000e+00 1.5208569890738357e+01 1.8147471719171813e+00 5.6741035498889429e+00 
64 1 2 1.0280000000000817e+00 3.1797356098952434e+01 1.0000000000000000e+00 1.5208569890732246e+01 1.8147471719137078e+00 5.6741035498915462e+00 
32 1 2 1.0280000000000820e+00 -1.0009288420779778e+02 1.0000000000000000e+00 1.5208569890732260e+01 1.8147471719136636e+00 5.6741035498916172e+00 
63 1 2 1.0280000000000820e+00 7.9696716610869387e+01 1.0000000000000000e+00 1.5208569890738424e+01 1.8147471719171455e+00 5.6741035498890229e+00 
31 1 2 1.0280000000000820e+00 -9.9938562340577363e+01 1.0000000000000000e+00 1.5208569890732289e+01 1.8147471719136661e+00 5.6741035498916252e+00 
62 1 2 1.0280000000000820e+00 -1.0377651125756321e+02 1.0000000000000000e+00 1.5208569890738399e+01 1.8147471719171577e+00 5.6741035498889953e+00 
115 1 2 1.0280000235282636e+00 -2.0064569295112193e+02 1.0000000000000000e+00 1.8930673350214398e+01 2.9985726540722717e+00 8.9196253534853422e+00 
116 1 2 1.0280000235282638e+00 -2.0524324136672641e+02 1.0000000000000000e+00 1.8930673350214448e+01 2.9985726540722308e+00 8.9196253534853120e+00 
147 1 2 1.0280000235906435e+00 -1.8264858779331843e+02 1.0000000000000000e+00 1.8930668993456308e+01 2.9985385849955430e+00 8.9196899239427054e+00 
110 1 2 1.0280000235906432e+00 -2.0501407582913220e+02 1.0000000000000000e+00 1.8930668993509023e+01 2.9985385849290949e+00 8.9196899239423946e+00 
111 1 2 1.0280000235906421e+00 -1.9222271913774478e+02 1.0000000000000000e+00 1.8930668992559127e+01 2.9985385861283764e+00 8.9196899239447642e+00 
148 1 2 1.0279999538121287e+00 -2.8575375228731212e+02 1.0000000000000000e+00 1.8961854655416449e+01 2.4657204966210902e+00 1.2465947293070082e+01 
161 1 2 1.0279999538121287e+00 -2.5276986253781729e+02 1.0000000000000000e+00 1.8961854655412321e+01 2.4657204966255035e+00 1.2465947293069160e+01 
154 1 2 1.0279999538121281e+00 -2.6803697940584431e+02 1.0000000000000000e+00 1.8961854655416705e+01 2.4657204966213149e+00 1.2465947293069927e+01 
160 1 2 1.0279999538121285e+00 -2.3379195215902519e+02 1.0000000000000000e+00 1.8961854655412306e+01 2.4657204966254378e+00 1.2465947293069192e+01 
133 1 2 1.0280000781581666e+00 -2.9835758903285796e+02 1.0000000000000000e+00 1.7386368398689235e+01 2.8874779534414343e+00 1.1244427317033248e+01 
43 1 2 1.0280000781591290e+00 -2.4031160621165643e+02 1.0000000000000000e+00 1.7386369493156760e+01 2.8874960868286634e+00 1.1244421895704745e+01 
10 1 2 1.0280000781591367e+00 -2.0971643215919110e+02 1.0000000000000000e+00 1.7386369470550779e+01 2.8874956741437741e+00 1.1244422063528212e+01 
80 1 2 1.0280000781591245e+00 -2.3363776977737956e+02 1.0000000000000000e+00 1.7386369493156803e+01 2.8874960868295685e+00 1.1244421895704543e+01 
74 1 2 1.0280000781591352e+00 -2.2637528527745823e+02 1.0000000000000000e+00 1.7386369494034629e+01 2.8874961029375399e+00 1.1244421889065935e+01 
34 1 2 1.0280003021387740e+00 -2.4540470030750703e+02 1.0000000000000000e+00 1.8338518727936243e+01 3.4062828072005167e+00 1.0176593160987670e+01 
57 1 2 1.0280000000001002e+00 -2.8427745457688508e+02 1.0000000000000000e+00 1.5944464319779055e+01 1.9181055544113853e+01 3.8873639179869386e+00 
21 1 2 1.0280000000001002e+00 -1.9414340929939669e+02 1.0000000000000000e+00 1.5944464319779055e+01 1.9181055544113853e+01 3.8873639179869386e+00 
56 1 2 1.0280000000001002e+00 -3.2267552348323699e+02 1.0000000000000000e+00 1.5944464319779055e+01 1.9181055544113853e+01 3.8873639179869386e+00 
14 1 2 1.0280000000001002e+00 -2.5808616397488350e+02 1.0000000000000000e+00 1.5944464319779055e+01 1.9181055544113853e+01 3.8873639179869386e+00 
20 1 2 1.0280000000001002e+00 -2.6378784218156278e+02 1.0000000000000000e+00 1.5944464319779055e+01 1.9181055544113853e+01 3.8873639179869386e+00 
15 1 2 1.0280000000001002e+00 -2.1470661775302278e+02 1.0000000000000000e+00 1.5944464319854507e+01 1.9181055544179948e+01 3.8873639179205903e+00 
22 1 2 1.0280000000001002e+00 -2.0059350066154605e+02 1.0000000000000000e+00 1.5944464319854507e+01 1.9181055544179948e+01 3.8873639179205903e+00 

Velocities

59 -1.3128952759848325e-01 -1.8072043365395499e-03 3.5380798497876625e-01
89 -1.3128952759848375e-01 -1.8072043365395317e-03 3.5380798497876631e-01
53 -1.3128952759848375e-01 -1.8072043365395317e-03 3.5380798497876631e-01
52 -1.3128952759848325e-01 -1.8072043365395499e-03 3.5380798497876625e-01
58 -1.3128952759848328e-01 -1.8072043365395529e-03 3.5380798497876637e-01
94 -1.3128952759848392e-01 -1.8072043365396015e-03 3.5380798497876609e-01
54 -1.3128952759848370e-01 -1.8072043365395868e-03 3.5380798497876625e-01
44 -1.3227101501423064e-01 3.4532490010231822e-03 3.5459452575304301e-01
145 -1.3227101466678701e-01 3.4532492438009263e-03 3.5459452527882124e-01
87 -1.3227101515869999e-01 3.4532489001067100e-03 3.5459452595015334e-01
146 -1.3227101466677973e-01 3.4532492438072121e-03 3.5459452527880075e-01
81 -1.3227101426178889e-01 3.4532495269159308e-03 3.5459452472637992e-01
151 -1.3227101466672858e-01 3.4532492438427084e-03 3.5459452527873470e-01
27 -1.3226042178611289e-01 3.4582789447630889e-03 3.5457229247176447e-01
8 -1.3224510364526762e-01 3.3615368602124326e-03 3.5465852077033949e-01
2 -1.3224510364526507e-01 3.3615368602137184e-03 3.5465852077034149e-01
7 -1.3224510367616593e-01 3.3615369513612932e-03 3.5465852081850940e-01
13 -1.3224510367616435e-01 3.3615369513616444e-03 3.5465852081850952e-01
1 -1.3224510364526543e-01 3.3615368602133481e-03 3.5465852077034071e-01
86 -1.3224510384199190e-01 3.3615374464379894e-03 3.5465852107871015e-01
92 -1.3215604790150523e-01 3.5612093758924418e-03 3.5449821013777183e-01
93 -1.3215604789897714e-01 3.5612093792029525e-03 3.5449821014278232e-01
135 -1.3215604790182911e-01 3.5612093753912824e-03 3.5449821013707816e-01
178 -1.3215604790351465e-01 3.5612093732065378e-03 3.5449821013375765e-01
127 -1.3213897220158852e-01 3.5656214948246588e-03 3.5455961893113247e-01
105 -1.3213897220624488e-01 3.5656215114019483e-03 3.5455961893149618e-01
157 -1.3213897220159018e-01 3.5656214948200809e-03 3.5455961893113513e-01
121 -1.3213897220158805e-01 3.5656214948242802e-03 3.5455961893113225e-01
158 -1.3213897220176571e-01 3.5656214955947381e-03 3.5455961893110949e-01
163 -1.3213897220158932e-01 3.5656214948277518e-03 3.5455961893113253e-01
113 -1.3214218899008734e-01 3.5615386982125494e-03 3.5455448811749363e-01
19 -1.3214233632481318e-01 3.5618401917912228e-03 3.5455393678745944e-01
114 -1.3214431540754953e-01 3.5674555951775038e-03 3.5454889568206938e-01
180 -1.3221705914068538e-01 3.5896384526582850e-03 3.5462169384503139e-01
144 -1.3221705914067763e-01 3.5896384526568907e-03 3.5462169384505388e-01
139 -1.3221705914068496e-01 3.5896384526588102e-03 3.5462169384505093e-01
33 -1.3221705888555405e-01 3.5896383841561331e-03 3.5462169364568313e-01
175 -1.3221705914068077e-01 3.5896384526565815e-03 3.5462169384502373e-01
97 -1.3198374154174478e-01 3.3955130942239799e-03 3.5461984345527259e-01
134 -1.3198374154174489e-01 3.3955130942238012e-03 3.5461984345527298e-01
91 -1.3198374154174478e-01 3.3955130942239799e-03 3.5461984345527259e-01
29 -1.3198374154174478e-01 3.3955130942239799e-03 3.5461984345527259e-01