LAMMPS data file via write_data, version 30 Jul 2016, timestep = 50000000

180 atoms
2 atom types

0.0000000000000000e+00 2.0000000000000000e+01 xlo xhi
0.0000000000000000e+00 2.0000000000000000e+01 ylo yhi
0.0000000000000000e+00 2.0000000000000000e+01 zlo zhi

Masses

1 3.896
2 4.31

Atoms # meso-molecular

35 1 2 1.0279999999987652e+00 -2.6275384209710933e+02 1.0000000000000000e+00 4.1861153280841551e-01 2.6262056143929615e+00 1.1477920858915345e+01 
62 1 2 1.0279999999987652e+00 -1.0377651125756321e+02 1.0000000000000000e+00 4.1861197657814081e-01 2.6262058571857239e+00 1.1477920683808460e+01 
31 1 2 1.0279999999987652e+00 -9.9938562340577363e+01 1.0000000000000000e+00 4.1861197657202648e-01 2.6262058571822338e+00 1.1477920683811085e+01 
63 1 2 1.0279999999987652e+00 7.9696716610869387e+01 1.0000000000000000e+00 4.1861197657816779e-01 2.6262058571857150e+00 1.1477920683808485e+01 
32 1 2 1.0279999999987652e+00 -1.0009288420779778e+02 1.0000000000000000e+00 4.1861197657199783e-01 2.6262058571822293e+00 1.1477920683811080e+01 
64 1 2 1.0279999999987652e+00 3.1797356098952434e+01 1.0000000000000000e+00 4.1861197657198501e-01 2.6262058571822782e+00 1.1477920683811005e+01 
26 1 2 1.0279999999987652e+00 -5.4710760909757141e+01 1.0000000000000000e+00 4.1861197657809446e-01 2.6262058571857474e+00 1.1477920683808406e+01 
92 1 2 1.0280002166701228e+00 -2.1023677817204893e+02 1.0000000000000000e+00 5.7474577715419946e+00 3.9131846574106732e+00 1.3215089373252027e+01 
135 1 2 1.0280002166701299e+00 -2.7736589624129579e+02 1.0000000000000000e+00 5.7474577718206046e+00 3.9131846446412379e+00 1.3215089368854354e+01 
178 1 2 1.0280002166701601e+00 -2.6146726298144040e+02 1.0000000000000000e+00 5.7474577723320142e+00 3.9131845866574402e+00 1.3215089349486430e+01 
93 1 2 1.0280002166701145e+00 -2.5786885912303006e+02 1.0000000000000000e+00 5.7474577705206640e+00 3.9131847449423018e+00 1.3215089402688600e+01 
147 1 2 1.0280001650851400e+00 -1.8264858784091913e+02 1.0000000000000000e+00 4.2170473036423362e+00 2.8538791841377211e+00 1.4740151175927974e+01 
110 1 2 1.0280001650851405e+00 -2.0501407587673290e+02 1.0000000000000000e+00 4.2170473036949243e+00 2.8538791840713715e+00 1.4740151175927611e+01 
111 1 2 1.0280001650851407e+00 -1.9222271918534548e+02 1.0000000000000000e+00 4.2170473027473285e+00 2.8538791852690291e+00 1.4740151175930807e+01 
116 1 2 1.0280001650489747e+00 -2.0524324141432405e+02 1.0000000000000000e+00 4.2170516466779144e+00 2.8539132283383268e+00 1.4740086625075715e+01 
115 1 2 1.0280001650489747e+00 -2.0064569299871957e+02 1.0000000000000000e+00 4.2170516466778691e+00 2.8539132283383646e+00 1.4740086625075747e+01 
34 1 2 1.0280003064817755e+00 -2.4540470038737092e+02 1.0000000000000000e+00 3.6250646552363688e+00 3.2585966597128184e+00 1.5997188259235987e+01 
114 1 2 1.0279997696156671e+00 -2.1574199933439593e+02 1.0000000000000000e+00 6.3694104677222567e+00 3.2219284298426456e+00 1.4833381615109433e+01 
133 1 2 1.0279999944158231e+00 -2.9835758907833269e+02 1.0000000000000000e+00 2.6729620997276822e+00 2.7395450961333028e+00 1.7065251040026400e+01 
43 1 2 1.0279999944167353e+00 -2.4031160624758934e+02 1.0000000000000000e+00 2.6729631991791338e+00 2.7395632304163944e+00 1.7065245614996137e+01 
74 1 2 1.0279999944167395e+00 -2.2637528531339115e+02 1.0000000000000000e+00 2.6729632000626644e+00 2.7395632465269157e+00 1.7065245608353539e+01 
80 1 2 1.0279999944167353e+00 -2.3363776981331247e+02 1.0000000000000000e+00 2.6729631991791916e+00 2.7395632304172906e+00 1.7065245614995941e+01 
10 1 2 1.0279999944167046e+00 -2.0971643219512407e+02 1.0000000000000000e+00 2.6729631764293056e+00 2.7395628176900377e+00 1.7065245782915628e+01 
148 1 2 1.0280000518227896e+00 -2.8575375234150090e+02 1.0000000000000000e+00 4.2469718409927069e+00 2.3164404416549194e+00 1.8287806582980931e+01 
154 1 2 1.0280000518227896e+00 -2.6803697946003308e+02 1.0000000000000000e+00 4.2469718409929591e+00 2.3164404416551347e+00 1.8287806582980778e+01 
160 1 2 1.0280000518227919e+00 -2.3379195221592940e+02 1.0000000000000000e+00 4.2469718409885440e+00 2.3164404416592523e+00 1.8287806582980039e+01 
161 1 2 1.0280000518227908e+00 -2.5276986259472150e+02 1.0000000000000000e+00 4.2469718409885733e+00 2.3164404416593229e+00 1.8287806582980007e+01 
11 1 2 1.0279999843990391e+00 -2.1407960496078684e+02 1.0000000000000000e+00 5.6349350806502505e+00 1.0302113731523053e+00 1.8283466895702063e+01 
61 1 2 1.0279999843990393e+00 -1.9522080413133978e+02 1.0000000000000000e+00 5.6349350806503971e+00 1.0302113731522369e+00 1.8283466895702123e+01 
16 1 2 1.0279999843990391e+00 -1.9319314877607542e+02 1.0000000000000000e+00 5.6349350806503020e+00 1.0302113731522713e+00 1.8283466895702087e+01 
17 1 2 1.0279999843990388e+00 -2.0378947620750228e+02 1.0000000000000000e+00 5.6349350806502931e+00 1.0302113731522851e+00 1.8283466895702084e+01 
57 1 2 1.0279999999987834e+00 -2.8427745457688508e+02 1.0000000000000000e+00 1.1545068213404106e+00 1.9992514458433796e+01 9.6911808854616197e+00 
22 1 2 1.0279999999987834e+00 -2.0059350066154605e+02 1.0000000000000000e+00 1.1545068214158660e+00 1.9992514458499887e+01 9.6911808853952746e+00 
15 1 2 1.0279999999987834e+00 -2.1470661775302278e+02 1.0000000000000000e+00 1.1545068214158660e+00 1.9992514458499887e+01 9.6911808853952746e+00 
20 1 2 1.0279999999987834e+00 -2.6378784218156278e+02 1.0000000000000000e+00 1.1545068213404106e+00 1.9992514458433796e+01 9.6911808854616197e+00 
14 1 2 1.0279999999987834e+00 -2.5808616397488350e+02 1.0000000000000000e+00 1.1545068213404106e+00 1.9992514458433796e+01 9.6911808854616197e+00 
56 1 2 1.0279999999987834e+00 -3.2267552348323699e+02 1.0000000000000000e+00 1.1545068213404106e+00 1.9992514458433796e+01 9.6911808854616197e+00 
21 1 2 1.0279999999987834e+00 -1.9414340929939669e+02 1.0000000000000000e+00 1.1545068213404106e+00 1.9992514458433796e+01 9.6911808854616197e+00 
59 1 2 1.0280069530160778e+00 -2.4034580395936874e+02 1.0000000000000000e+00 1.0428758278951431e+01 3.5809625055676708e+00 8.8642944197386218e+00 
89 1 2 1.0280069530160778e+00 -2.0621136986457657e+02 1.0000000000000000e+00 1.0428758278951404e+01 3.5809625055676779e+00 8.8642944197387052e+00 
53 1 2 1.0280069530160778e+00 -2.0241582547143031e+02 1.0000000000000000e+00 1.0428758278951404e+01 3.5809625055676779e+00 8.8642944197387052e+00 
52 1 2 1.0280069530160778e+00 -2.3266159955251683e+02 1.0000000000000000e+00 1.0428758278951431e+01 3.5809625055676708e+00 8.8642944197386218e+00 
58 1 2 1.0280069530160778e+00 -2.3393347827286146e+02 1.0000000000000000e+00 1.0428758278951397e+01 3.5809625055676637e+00 8.8642944197387283e+00 
94 1 2 1.0280069530160778e+00 -1.9734032335627120e+02 1.0000000000000000e+00 1.0428758278951458e+01 3.5809625055675549e+00 8.8642944197385152e+00 
54 1 2 1.0280069530160778e+00 -2.4324137800287838e+02 1.0000000000000000e+00 1.0428758278951424e+01 3.5809625055675833e+00 8.8642944197386289e+00 
27 1 2 1.0279999931540968e+00 2.6688511818115654e+02 1.0000000000000000e+00 7.3812841986570552e+00 3.3106823659419367e+00 1.2457960486713358e+01 
44 1 2 1.0279998707485367e+00 -2.4579176548047829e+02 1.0000000000000000e+00 7.6556068562342725e+00 2.2335055867940761e+00 1.1651388526832372e+01 
151 1 2 1.0279998707572935e+00 -2.5021866991043211e+02 1.0000000000000000e+00 7.6556052971754571e+00 2.2335045240046658e+00 1.1651388183576614e+01 
81 1 2 1.0279998707674989e+00 -2.2929791956541254e+02 1.0000000000000000e+00 7.6556034810829239e+00 2.2335032827948482e+00 1.1651387783386999e+01 
146 1 2 1.0279998707572913e+00 -2.4985132958055632e+02 1.0000000000000000e+00 7.6556052974061064e+00 2.2335045241630782e+00 1.1651388183627523e+01 
87 1 2 1.0279998707449005e+00 -2.5805372165372876e+02 1.0000000000000000e+00 7.6556075044468201e+00 2.2335060282500572e+00 1.1651388669504914e+01 
145 1 2 1.0279998707572917e+00 -2.3738580109789379e+02 1.0000000000000000e+00 7.6556052974397364e+00 2.2335045241850939e+00 1.1651388183634827e+01 
36 1 2 1.0280001266481664e+00 -2.2214980431702145e+02 1.0000000000000000e+00 1.0735643338629750e+01 3.4441863949158678e+00 1.2725990780649436e+01 
72 1 2 1.0280001266481664e+00 -2.2111540226609725e+02 1.0000000000000000e+00 1.0735643338629750e+01 3.4441863949158678e+00 1.2725990780649436e+01 
30 1 2 1.0280001266481666e+00 -2.1086852279302428e+02 1.0000000000000000e+00 1.0735643338629744e+01 3.4441863949158620e+00 1.2725990780649406e+01 
29 1 2 1.0280001266481664e+00 -1.8438138363706238e+02 1.0000000000000000e+00 1.0735643338629750e+01 3.4441863949158678e+00 1.2725990780649436e+01 
91 1 2 1.0280001266481664e+00 -2.0351325731109233e+02 1.0000000000000000e+00 1.0735643338629750e+01 3.4441863949158678e+00 1.2725990780649436e+01 
134 1 2 1.0280001266481666e+00 -2.3275210518325542e+02 1.0000000000000000e+00 1.0735643338629744e+01 3.4441863949158620e+00 1.2725990780649406e+01 
97 1 2 1.0280001266481664e+00 -1.9880617154703663e+02 1.0000000000000000e+00 1.0735643338629750e+01 3.4441863949158678e+00 1.2725990780649436e+01 
8 1 2 1.0280000409369325e+00 -2.2912483654674853e+02 1.0000000000000000e+00 9.8463906230669576e+00 1.8274749507007088e-01 1.3374007459600540e+01 
2 1 2 1.0280000409369328e+00 -2.8831205877426328e+02 1.0000000000000000e+00 9.8463906230671459e+00 1.8274749506978194e-01 1.3374007459600453e+01 
7 1 2 1.0280000409365593e+00 -1.7062647141536323e+02 1.0000000000000000e+00 9.8463899527593401e+00 1.8274729494261022e-01 1.3374008842802072e+01 
13 1 2 1.0280000409365595e+00 -1.7263643686832276e+02 1.0000000000000000e+00 9.8463899527592567e+00 1.8274729494252592e-01 1.3374008842802292e+01 
1 1 2 1.0280000409369332e+00 -2.4070704278523090e+02 1.0000000000000000e+00 9.8463906230671707e+00 1.8274749506990831e-01 1.3374007459600294e+01 
86 1 2 1.0280000409345527e+00 -1.9514009130518915e+02 1.0000000000000000e+00 9.8463863360824639e+00 1.8274619004066917e-01 1.3374016327750859e+01 
19 1 2 1.0279998376848680e+00 -1.7778463010684470e+02 1.0000000000000000e+00 6.6940178708309919e+00 3.2440669553497261e+00 1.4790923719765416e+01 
113 1 2 1.0279998450506289e+00 -2.3249081086313782e+02 1.0000000000000000e+00 6.7342700438400271e+00 3.2503080887435947e+00 1.4789338608934905e+01 
105 1 2 1.0279998640381403e+00 9.0391567651244875e-01 1.0000000000000000e+00 7.2387341350259335e+00 6.1912631913334204e+00 1.3603801858262189e+01 
127 1 2 1.0279998640381807e+00 -2.1480789609215299e+02 1.0000000000000000e+00 7.2387336128134132e+00 6.1912629310310807e+00 1.3603801154301797e+01 
121 1 2 1.0279998640381820e+00 -2.4847737415900622e+02 1.0000000000000000e+00 7.2387336127681685e+00 6.1912629310036174e+00 1.3603801154225717e+01 
163 1 2 1.0279998640381816e+00 -2.3799747644427612e+02 1.0000000000000000e+00 7.2387336129006572e+00 6.1912629310836067e+00 1.3603801154447202e+01 
158 1 2 1.0279998640381702e+00 -2.6207911333715424e+02 1.0000000000000000e+00 7.2387336305673102e+00 6.1912629418379987e+00 1.3603801184253522e+01 
157 1 2 1.0279998640381820e+00 -2.5932254115720178e+02 1.0000000000000000e+00 7.2387336130105222e+00 6.1912629311502680e+00 1.3603801154631899e+01 
180 1 2 1.0280000951377146e+00 -2.6265986693022376e+02 1.0000000000000000e+00 8.2560106525962436e+00 4.3147054601611714e+00 1.4874544337924091e+01 
175 1 2 1.0280000951377122e+00 -2.2143112998102683e+02 1.0000000000000000e+00 8.2560106525406098e+00 4.3147054600817345e+00 1.4874544337976642e+01 
33 1 2 1.0280000951371682e+00 -1.6947067123840434e+01 1.0000000000000000e+00 8.2560090239121546e+00 4.3147036478850849e+00 1.4874546013208223e+01 
139 1 2 1.0280000951377135e+00 -3.2947822864192710e+02 1.0000000000000000e+00 8.2560106526618000e+00 4.3147054602543076e+00 1.4874544337862059e+01 
144 1 2 1.0280000951377146e+00 -3.1281708613001194e+02 1.0000000000000000e+00 8.2560106526421251e+00 4.3147054602268486e+00 1.4874544337880804e+01 
170 1 2 1.0280000000011931e+00 -1.7371850748719260e+02 1.0000000000000000e+00 1.1994551803838233e+01 6.9618749044437243e+00 1.7117039957283719e+01 
169 1 2 1.0280000000011928e+00 -1.7632993593331449e+02 1.0000000000000000e+00 1.1994551803838240e+01 6.9618749044436656e+00 1.7117039957283737e+01 
119 1 2 1.0280000000011931e+00 -2.6731192338231381e+02 1.0000000000000000e+00 1.1994551803838561e+01 6.9618749044433734e+00 1.7117039957283964e+01 
125 1 2 1.0280000000011931e+00 -2.5076423428920822e+02 1.0000000000000000e+00 1.1994551803838773e+01 6.9618749044427046e+00 1.7117039957284227e+01 
118 1 2 1.0280000000011931e+00 -2.1604220005371818e+02 1.0000000000000000e+00 1.1994551803838476e+01 6.9618749044432855e+00 1.7117039957283943e+01 
90 1 2 1.0280000000011931e+00 -2.9327557967793149e+02 1.0000000000000000e+00 1.1994551803838521e+01 6.9618749044431452e+00 1.7117039957283996e+01 
112 1 2 1.0280000000011931e+00 -2.1912585792342736e+02 1.0000000000000000e+00 1.1994551803838647e+01 6.9618749044429968e+00 1.7117039957284096e+01 
83 1 2 1.0279999998916418e+00 -2.1901733198738259e+02 1.0000000000000000e+00 9.3297331248279090e+00 1.6529805781801908e+01 2.9682001242157505e+00 
41 1 2 1.0279999998911771e+00 -2.4095518577649878e+02 1.0000000000000000e+00 9.3297332729936713e+00 1.6529807159699359e+01 2.9682016630380184e+00 
42 1 2 1.0279999998984664e+00 -2.7441521411343950e+02 1.0000000000000000e+00 9.3297311376619820e+00 1.6529785117446504e+01 2.9681774983830116e+00 
48 1 2 1.0279999998971914e+00 -2.8706750088170253e+02 1.0000000000000000e+00 9.3297315175815676e+00 1.6529789150312833e+01 2.9681818989963529e+00 
6 1 2 1.0279999998959308e+00 -2.5714170798399823e+02 1.0000000000000000e+00 9.3297318584201481e+00 1.6529792885470190e+01 2.9681859533860582e+00 
124 1 2 1.0280000449312960e+00 -2.1546450388952158e+02 1.0000000000000000e+00 9.8188330706082017e+00 1.5898525396053998e+01 2.3931825879851552e+00 
12 1 2 1.0279999675808604e+00 -2.8819751288132028e+02 1.0000000000000000e+00 1.1727693942586701e+01 1.5564484746919518e+01 2.2148735144546778e+00 
152 1 2 1.0279999677020122e+00 -1.7725017525658896e+02 1.0000000000000000e+00 1.1727538779756886e+01 1.5564549304854788e+01 2.2145801958630571e+00 
159 1 2 1.0279999677020124e+00 -1.9719129237395660e+02 1.0000000000000000e+00 1.1727538779757003e+01 1.5564549304855118e+01 2.2145801958627822e+00 
153 1 2 1.0279999677020129e+00 -1.9241276818893192e+02 1.0000000000000000e+00 1.1727538779757003e+01 1.5564549304855024e+01 2.2145801958629092e+00 
117 1 2 1.0279999677118778e+00 -2.1293777386435980e+02 1.0000000000000000e+00 1.1727551893865989e+01 1.5564554878527261e+01 2.2145905040578215e+00 
24 1 2 1.0279999147915728e+00 -3.0281229098630121e+02 1.0000000000000000e+00 1.1368669218251243e+01 1.3608238333178519e+01 3.8538796515639445e-01 
99 1 2 1.0279999147916494e+00 -2.7251551757157034e+02 1.0000000000000000e+00 1.1368669100563103e+01 1.3608238163547734e+01 3.8538796384188601e-01 
98 1 2 1.0279999147916481e+00 -2.6404047567100446e+02 1.0000000000000000e+00 1.1368669101356323e+01 1.3608238164690558e+01 3.8538796385162022e-01 
60 1 2 1.0279999147916474e+00 -2.3861557969016974e+02 1.0000000000000000e+00 1.1368669101129308e+01 1.3608238164363279e+01 3.8538796384921370e-01 
101 1 2 1.0279999898133128e+00 -2.5601576015400059e+02 1.0000000000000000e+00 9.5533768587218511e+00 1.8960411240371215e+01 1.7483650652852094e+00 
84 1 2 1.0279999898133114e+00 -3.3358192243520978e+02 1.0000000000000000e+00 9.5533768586976215e+00 1.8960411240340026e+01 1.7483650652589344e+00 
65 1 2 1.0279999898133123e+00 -2.2620681269853611e+02 1.0000000000000000e+00 9.5533768587216432e+00 1.8960411240371030e+01 1.7483650652851979e+00 
95 1 2 1.0279999898133119e+00 -2.2635047106049473e+02 1.0000000000000000e+00 9.5533768587217676e+00 1.8960411240371098e+01 1.7483650652850828e+00 
100 1 2 1.0279999898133119e+00 -2.2978559971811916e+02 1.0000000000000000e+00 9.5533768587386305e+00 1.8960411240392567e+01 1.7483650653027356e+00 
4 1 2 1.0280000043785853e+00 -2.5988924044425352e+02 1.0000000000000000e+00 1.1151480340836569e+01 1.8202655948884473e+01 1.9422756877660130e+00 
47 1 2 1.0280000043785165e+00 -2.3209977717229043e+02 1.0000000000000000e+00 1.1151480424896519e+01 1.8202655671106619e+01 1.9422755414733766e+00 
3 1 2 1.0280000043785864e+00 -2.4078556175281170e+02 1.0000000000000000e+00 1.1151480340847494e+01 1.8202655948847521e+01 1.9422756877452623e+00 
46 1 2 1.0280000043785826e+00 -2.8636567233922273e+02 1.0000000000000000e+00 1.1151480340842825e+01 1.8202655948863299e+01 1.9422756877540650e+00 
39 1 2 1.0280000887037894e+00 -2.7071047179238911e+02 1.0000000000000000e+00 1.2597251116332570e+01 1.6536076176048603e+01 4.5088409180469089e+00 
55 1 2 1.0280000887037894e+00 -2.3516085327648534e+02 1.0000000000000000e+00 1.2597251116332403e+01 1.6536076176050475e+01 4.5088409180491560e+00 
120 1 2 1.0280000887037897e+00 -2.6941195336173774e+02 1.0000000000000000e+00 1.2597251116333803e+01 1.6536076176039646e+01 4.5088409180341085e+00 
76 1 2 1.0280000887037899e+00 -2.3111251980335499e+02 1.0000000000000000e+00 1.2597251116332609e+01 1.6536076176048667e+01 4.5088409180467606e+00 
40 1 2 1.0280000887037899e+00 -2.6785205778541979e+02 1.0000000000000000e+00 1.2597251116332609e+01 1.6536076176048667e+01 4.5088409180467686e+00 
75 1 2 1.0280000887037890e+00 -3.0913886225118478e+02 1.0000000000000000e+00 1.2597251116332613e+01 1.6536076176048745e+01 4.5088409180468227e+00 
71 1 2 1.0279998966831234e+00 -2.3345351761146347e+02 1.0000000000000000e+00 1.0497719805404140e+01 1.7895372123682382e+01 5.5921196946840714e+00 
107 1 2 1.0279998966831747e+00 -2.3152124618815188e+02 1.0000000000000000e+00 1.0497719794099220e+01 1.7895372268622904e+01 5.5921198863039381e+00 
136 1 2 1.0279998966650912e+00 -2.9408863270323417e+02 1.0000000000000000e+00 1.0497736429125341e+01 1.7895328354069896e+01 5.5920416775186830e+00 
77 1 2 1.0279998966831247e+00 -2.0372329781411176e+02 1.0000000000000000e+00 1.0497719804230716e+01 1.7895372141182506e+01 5.5921197175279884e+00 
122 1 2 1.0280000945205339e+00 -2.4172811154296056e+02 1.0000000000000000e+00 1.1321400245903481e+01 1.7030988816054339e+01 6.7604948533052758e+00 
164 1 2 1.0280000797931477e+00 -2.3277355445486108e+02 1.0000000000000000e+00 1.1194595528092171e+01 1.7449468653944916e+01 6.9874445954200368e+00 
128 1 2 1.0280000622955139e+00 -2.2677679307251580e+02 1.0000000000000000e+00 1.1047123187286253e+01 1.7676620476312056e+01 7.0064032361472233e+00 
25 1 2 1.0280000697048728e+00 -5.2781375217129302e+01 1.0000000000000000e+00 1.1112564190879279e+01 1.7591635274159550e+01 7.0091507717737711e+00 
69 1 2 1.0280000703868961e+00 1.4192320581037645e+01 1.0000000000000000e+00 1.1123953064339819e+01 1.7580508122957824e+01 7.0079408001913137e+00 
141 1 2 1.0279999266358431e+00 -1.6763273587679140e+02 1.0000000000000000e+00 8.4141835266611302e+00 1.5895961863133619e+01 1.1284436268134497e+01 
79 1 2 1.0279999266360271e+00 -2.9086644363291299e+02 1.0000000000000000e+00 8.4141865959752646e+00 1.5895960117603526e+01 1.1284434999447821e+01 
142 1 2 1.0279999266358431e+00 -1.7252166493290420e+02 1.0000000000000000e+00 8.4141835266613931e+00 1.5895961863133362e+01 1.1284436268134067e+01 
106 1 2 1.0279999266358433e+00 -1.7282947291247467e+02 1.0000000000000000e+00 8.4141835266613274e+00 1.5895961863133552e+01 1.1284436268134540e+01 
68 1 2 1.0279999266358462e+00 1.4501479809909217e+01 1.0000000000000000e+00 8.4141836968045087e+00 1.5895961766376438e+01 1.1284436197820352e+01 
177 1 2 1.0279999508996522e+00 -2.1761871176087413e+02 1.0000000000000000e+00 8.0796681626396083e+00 1.8626211945318079e+01 1.3026203853769019e+01 
96 1 2 1.0279999508996525e+00 -1.9249299848346533e+02 1.0000000000000000e+00 8.0796681633349614e+00 1.8626211944588075e+01 1.3026203853709200e+01 
140 1 2 1.0279999508996502e+00 -2.1411265097713340e+02 1.0000000000000000e+00 8.0796681626398890e+00 1.8626211945318172e+01 1.3026203853769321e+01 
176 1 2 1.0279999508996502e+00 -2.7167478710374183e+02 1.0000000000000000e+00 8.0796681626393330e+00 1.8626211945318140e+01 1.3026203853768861e+01 
137 1 2 1.0279999705561815e+00 -2.2998329791853936e+02 1.0000000000000000e+00 7.9754109480534652e+00 1.9447147558837237e+01 1.1541271113128351e+01 
108 1 2 1.0279999705417069e+00 -3.0913988848725870e+02 1.0000000000000000e+00 7.9754875966280556e+00 1.9447393020104617e+01 1.1541261511675875e+01 
138 1 2 1.0279999705562661e+00 -2.5821898103824213e+02 1.0000000000000000e+00 7.9754102052787648e+00 1.9447145642246245e+01 1.1541271268990910e+01 
102 1 2 1.0279999704155933e+00 -3.1181550881730828e+02 1.0000000000000000e+00 7.9761093142105315e+00 1.9449500732276913e+01 1.1541200036663287e+01 
49 1 2 1.0280000797394198e+00 -1.7404335790181946e+02 1.0000000000000000e+00 9.0872738763338354e+00 1.7184441239650930e+01 1.0662081208556572e+01 
168 1 2 1.0280000796747129e+00 -2.8164017430898343e+02 1.0000000000000000e+00 9.0873388173657954e+00 1.7182700404041256e+01 1.0661223341316104e+01 
162 1 2 1.0280000796747106e+00 -2.6540644780302603e+02 1.0000000000000000e+00 9.0873388177785355e+00 1.7182700390864376e+01 1.0661223334759548e+01 
132 1 2 1.0280000796747095e+00 -2.3751006666088523e+02 1.0000000000000000e+00 9.0873388189058097e+00 1.7182700354952729e+01 1.0661223316892901e+01 
50 1 2 1.0279999948913314e+00 -1.5985939327940179e+02 1.0000000000000000e+00 1.2187638092486507e+01 1.2702385545786399e+01 1.9494088602544672e+01 
129 1 2 1.0280000356571752e+00 -1.5038298132650709e+02 1.0000000000000000e+00 1.2071998518316667e+01 1.2482829388590776e+01 1.9602974888467042e+01 
166 1 2 1.0280000356571781e+00 -2.3587586247507630e+02 1.0000000000000000e+00 1.2071998516368037e+01 1.2482829386251609e+01 1.9602974890574018e+01 
171 1 2 1.0280000356571686e+00 -2.5277757244962950e+02 1.0000000000000000e+00 1.2071998511423098e+01 1.2482829378815675e+01 1.9602974898382939e+01 
165 1 2 1.0280000356571732e+00 -2.1364747470982519e+02 1.0000000000000000e+00 1.2071998515375924e+01 1.2482829384629708e+01 1.9602974892354144e+01 
78 1 2 1.0280000016819557e+00 -2.3014605347257225e+02 1.0000000000000000e+00 7.0125589374610247e+00 1.9641747594871468e+01 1.7493296929264229e+01 
5 1 2 1.0280000016824697e+00 -2.1321318724546023e+02 1.0000000000000000e+00 7.0125576252356572e+00 1.9641746388104863e+01 1.7493296761928178e+01 
38 1 2 1.0280000016789217e+00 -2.1439252736762214e+02 1.0000000000000000e+00 7.0125667746368805e+00 1.9641754794040338e+01 1.7493297943431969e+01 
88 1 2 1.0280000016858235e+00 -1.9552156733099054e+02 1.0000000000000000e+00 7.0125476670091915e+00 1.9641737836129149e+01 1.7493294427810653e+01 
123 1 2 1.0280000016795312e+00 -2.2895760802934441e+02 1.0000000000000000e+00 7.0125649264438863e+00 1.9641753227348808e+01 1.7493297473912257e+01 
70 1 2 1.0280000016834001e+00 -2.1268442929865768e+02 1.0000000000000000e+00 7.0125551109501849e+00 1.9641744101138908e+01 1.7493296396976721e+01 
82 1 2 1.0279929838208510e+00 -2.2910604637691597e+02 1.0000000000000000e+00 1.3556111632129673e+01 3.4628699084908714e+00 9.8006563849985859e+00 
23 1 2 1.0279929838208506e+00 -2.8805670710210569e+02 1.0000000000000000e+00 1.3556111632129163e+01 3.4628699084911729e+00 9.8006563850003392e+00 
9 1 2 1.0279929838208506e+00 -1.8232173398775745e+02 1.0000000000000000e+00 1.3556111632129163e+01 3.4628699084911729e+00 9.8006563850003392e+00 
66 1 2 1.0279929838208506e+00 -2.4359883388093340e+02 1.0000000000000000e+00 1.3556111632127296e+01 3.4628699084896004e+00 9.8006563850063859e+00 
45 1 2 1.0279929838208506e+00 -1.6650354266780352e+02 1.0000000000000000e+00 1.3556111632129163e+01 3.4628699084911729e+00 9.8006563850003392e+00 
51 1 2 1.0279929838208510e+00 -1.8740448153500728e+02 1.0000000000000000e+00 1.3556111632129673e+01 3.4628699084908714e+00 9.8006563849985859e+00 
85 1 2 1.0279929838208506e+00 -2.1146010383999970e+02 1.0000000000000000e+00 1.3556111632129163e+01 3.4628699084911729e+00 9.8006563850003392e+00 
130 1 2 1.0280000000011931e+00 -1.8408061480995144e+02 1.0000000000000000e+00 1.3411744282004468e+01 6.2849783972318685e+00 1.4252831984475197e+01 
37 1 2 1.0280000000011931e+00 -1.9991476401327995e+02 1.0000000000000000e+00 1.3411744282004404e+01 6.2849783972318702e+00 1.4252831984475165e+01 
67 1 2 1.0280000000011931e+00 -2.0781954079133862e+02 1.0000000000000000e+00 1.3411744282004404e+01 6.2849783972318702e+00 1.4252831984475165e+01 
73 1 2 1.0280000000011931e+00 -2.9065412617478756e+02 1.0000000000000000e+00 1.3411744282004442e+01 6.2849783972318898e+00 1.4252831984475179e+01 
103 1 2 1.0280000000011931e+00 -3.0451316283910330e+02 1.0000000000000000e+00 1.3411744282004404e+01 6.2849783972318702e+00 1.4252831984475165e+01 
109 1 2 1.0280000000011931e+00 -2.6865249859331072e+02 1.0000000000000000e+00 1.3411744282004404e+01 6.2849783972318702e+00 1.4252831984475165e+01 
104 1 2 1.0280000000011931e+00 -2.5136184935505020e+02 1.0000000000000000e+00 1.3411744282004404e+01 6.2849783972318702e+00 1.4252831984475165e+01 
155 1 2 1.0279856776523266e+00 -2.6937493424420768e+02 1.0000000000000000e+00 1.6117074649111007e+01 1.3859886005904940e+01 1.3654684609596544e+00 
126 1 2 1.0279856776523266e+00 -3.3694548158885243e+02 1.0000000000000000e+00 1.6117074649111007e+01 1.3859886005904940e+01 1.3654684609596544e+00 
28 1 2 1.0279856776523266e+00 -4.2724474941788856e+01 1.0000000000000000e+00 1.6117074649111007e+01 1.3859886005904940e+01 1.3654684609596544e+00 
156 1 2 1.0279856776523266e+00 -2.6001975385984775e+02 1.0000000000000000e+00 1.6117074649111007e+01 1.3859886005904940e+01 1.3654684609596544e+00 
149 1 2 1.0279856776523266e+00 -2.3452580283830048e+02 1.0000000000000000e+00 1.6117074649111007e+01 1.3859886005904940e+01 1.3654684609596544e+00 
18 1 2 1.0279856776523266e+00 -2.8924625421915317e+02 1.0000000000000000e+00 1.6117074649111022e+01 1.3859886005904949e+01 1.3654684609596752e+00 
150 1 2 1.0279856776523266e+00 -1.9352756761807356e+02 1.0000000000000000e+00 1.6117074649111007e+01 1.3859886005904940e+01 1.3654684609596544e+00 
179 1 2 1.0280143386757923e+00 -3.1095882439360247e+02 1.0000000000000000e+00 1.5058412951537314e+01 1.6909116476065169e+01 8.6221240518581677e-01 
143 1 2 1.0280143386757943e+00 -3.0475277696441327e+02 1.0000000000000000e+00 1.5058412951532166e+01 1.6909116476095932e+01 8.6221240537871624e-01 
173 1 2 1.0280143386757941e+00 -2.4334119719542591e+02 1.0000000000000000e+00 1.5058412951546121e+01 1.6909116476045632e+01 8.6221240505262076e-01 
174 1 2 1.0280143386757927e+00 -2.3435205228024296e+02 1.0000000000000000e+00 1.5058412951533537e+01 1.6909116476081490e+01 8.6221240529017940e-01 
131 1 2 1.0280143386757956e+00 -1.8429159073683957e+02 1.0000000000000000e+00 1.5058412951571430e+01 1.6909116476021989e+01 8.6221240486223505e-01 
167 1 2 1.0280143386757938e+00 -2.1733332503830877e+02 1.0000000000000000e+00 1.5058412951536303e+01 1.6909116476089071e+01 8.6221240532975607e-01 
172 1 2 1.0280143386757943e+00 -2.6994260686251687e+02 1.0000000000000000e+00 1.5058412951530611e+01 1.6909116476094432e+01 8.6221240537290911e-01 

Velocities

35 -1.3025101917101128e-01 -2.0286460611400464e-02 3.5490448986855594e-01
62 -1.3025101917101073e-01 -2.0286460611403583e-02 3.5490448986855500e-01
31 -1.3025101917101070e-01 -2.0286460611403722e-02 3.5490448986855505e-01
63 -1.3025101917101065e-01 -2.0286460611403608e-02 3.5490448986855511e-01
32 -1.3025101917101076e-01 -2.0286460611403666e-02 3.5490448986855488e-01
64 -1.3025101917101048e-01 -2.0286460611404138e-02 3.5490448986855472e-01
26 -1.3025101917101059e-01 -2.0286460611404031e-02 3.5490448986855466e-01
92 -1.3214486410513215e-01 3.5910211515727932e-03 3.5449567664904075e-01
135 -1.3214486410529361e-01 3.5910211509653490e-03 3.5449567664866705e-01
178 -1.3214486410624052e-01 3.5910211482999793e-03 3.5449567664675791e-01
93 -1.3214486410397419e-01 3.5910211556950140e-03 3.5449567665163456e-01
147 -1.3215905166507760e-01 3.6238767628945247e-03 3.5447382730002286e-01
110 -1.3215905166507377e-01 3.6238767628914235e-03 3.5447382730002475e-01
111 -1.3215905166514774e-01 3.6238767629410851e-03 3.5447382729999838e-01
116 -1.3215905138694123e-01 3.6238776899544579e-03 3.5447382646922254e-01
115 -1.3215905138694123e-01 3.6238776899543989e-03 3.5447382646922387e-01
34 -1.3216338204001835e-01 3.7076074883522513e-03 3.5447260105768180e-01
114 -1.3212632801795715e-01 3.6028105122681694e-03 3.5450566195963007e-01
133 -1.3216294861185296e-01 3.7127052336804029e-03 3.5446534076311637e-01
43 -1.3216294877026638e-01 3.7127051903895051e-03 3.5446534087963066e-01
74 -1.3216294877049203e-01 3.7127051903315849e-03 3.5446534087975512e-01
80 -1.3216294877026730e-01 3.7127051903895775e-03 3.5446534087963055e-01
10 -1.3216294876571014e-01 3.7127051919392043e-03 3.5446534087655240e-01
148 -1.3211952479678740e-01 3.7498412166355579e-03 3.5443377309419671e-01
154 -1.3211952479678510e-01 3.7498412166393092e-03 3.5443377309420482e-01
160 -1.3211952479678560e-01 3.7498412166394124e-03 3.5443377309420665e-01
161 -1.3211952479678588e-01 3.7498412166388924e-03 3.5443377309420482e-01
11 -1.3208215723542335e-01 3.7902154191698733e-03 3.5437758312873091e-01
61 -1.3208215723542333e-01 3.7902154191698915e-03 3.5437758312873058e-01
16 -1.3208215723542216e-01 3.7902154191675921e-03 3.5437758312872297e-01
17 -1.3208215723542371e-01 3.7902154191704293e-03 3.5437758312873230e-01
57 -1.3025103649635197e-01 -2.0286470186497367e-02 3.5490449678963010e-01
22 -1.3025103649635195e-01 -2.0286470186497221e-02 3.5490449678963015e-01
15 -1.3025103649635195e-01 -2.0286470186497221e-02 3.5490449678963015e-01
20 -1.3025103649635197e-01 -2.0286470186497367e-02 3.5490449678963010e-01
14 -1.3025103649635197e-01 -2.0286470186497367e-02 3.5490449678963010e-01
56 -1.3025103649635197e-01 -2.0286470186497367e-02 3.5490449678963010e-01
21 -1.3025103649635197e-01 -2.0286470186497367e-02 3.5490449678963010e-01
59 -1.3127101596175669e-01 -1.8199581348987536e-03 3.5378689347598369e-01
89 -1.3127101596175758e-01 -1.8199581348987120e-03 3.5378689347598385e-01
53 -1.3127101596175758e-01 -1.8199581348987120e-03 3.5378689347598385e-01
52 -1.3127101596175669e-01 -1.8199581348987536e-03 3.5378689347598369e-01