LAMMPS data file via write_data, version 30 Jul 2016, timestep = 50000000

180 atoms
2 atom types

0.0000000000000000e+00 2.0000000000000000e+01 xlo xhi
0.0000000000000000e+00 2.0000000000000000e+01 ylo yhi
0.0000000000000000e+00 2.0000000000000000e+01 zlo zhi

Masses

1 3.896
2 4.31

Atoms # meso-molecular

31 1 2 2.2282910562898398e-01 -3.7080500238672897e+02 1.0000000000000000e+00 4.8135926797477415e+00 1.9068534212757992e+01 1.8899778788963975e+00 
1 1 2 2.2282910562898398e-01 -3.8997742456337119e+02 1.0000000000000000e+00 4.8135926797477415e+00 1.9068534212757946e+01 1.8899778788963961e+00 
2 1 2 2.2282910562898398e-01 -4.0427243229183273e+02 1.0000000000000000e+00 4.8135926797477318e+00 1.9068534212757946e+01 1.8899778788963961e+00 
62 1 2 1.0280000000000300e+00 -4.2188435825331823e+02 1.0000000000000000e+00 6.3020581970975718e+00 1.3381685337019801e+01 7.7602055290270009e+00 
27 1 2 1.0280000000000014e+00 -4.2809600836288746e+02 1.0000000000000000e+00 6.3020494497812729e+00 1.3381788881318894e+01 7.7601577017882324e+00 
33 1 2 1.0279999999999987e+00 -5.3313357213400786e+02 1.0000000000000000e+00 6.3020971135781290e+00 1.3381701434635344e+01 7.7600670423508893e+00 
26 1 2 1.0280000000000105e+00 -5.7000228646538403e+02 1.0000000000000000e+00 6.3020787099882991e+00 1.3381680432585998e+01 7.7601423817047239e+00 
68 1 2 1.0280000000000100e+00 -4.3904976711527075e+02 1.0000000000000000e+00 6.3020701765740155e+00 1.3381669709171982e+01 7.7601780575849224e+00 
25 1 2 1.0280000000000322e+00 -5.9042613343207222e+02 1.0000000000000000e+00 6.3021006419856889e+00 1.3381707222266600e+01 7.7600513065412944e+00 
32 1 2 1.0280000000000113e+00 -5.7172755414853134e+02 1.0000000000000000e+00 6.3020750231946625e+00 1.3381681117605455e+01 7.7601538736415012e+00 
71 1 2 6.6848731688695207e-01 -5.0887937049290008e+02 1.0000000000000000e+00 5.7722710715789107e+00 1.6030884958242925e+01 1.3846039762276732e+01 
5 1 2 6.6848731688695207e-01 -5.6711001234737842e+02 1.0000000000000000e+00 5.7722710715789178e+00 1.6030884958242929e+01 1.3846039762276794e+01 
70 1 2 6.6848731688695207e-01 -3.6761960870574865e+02 1.0000000000000000e+00 5.7722710715789223e+00 1.6030884958242929e+01 1.3846039762276732e+01 
34 1 2 6.6848731688695207e-01 -4.6625135142524766e+02 1.0000000000000000e+00 5.7722710715789107e+00 1.6030884958242932e+01 1.3846039762276698e+01 
65 1 2 6.6848731688695207e-01 -4.9613688553552066e+02 1.0000000000000000e+00 5.7722710715789223e+00 1.6030884958242932e+01 1.3846039762276698e+01 
29 1 2 6.6848731688695207e-01 -4.4090231546277590e+02 1.0000000000000000e+00 5.7722710715789169e+00 1.6030884958242929e+01 1.3846039762276792e+01 
30 1 2 6.6848731688695207e-01 -4.2073674111560990e+02 1.0000000000000000e+00 5.7722710715789169e+00 1.6030884958242929e+01 1.3846039762276799e+01 
35 1 2 6.6848731688695207e-01 -5.7395388263464338e+02 1.0000000000000000e+00 5.7722710715789169e+00 1.6030884958242932e+01 1.3846039762276792e+01 
36 1 2 6.6848731688695207e-01 -6.6635457877712156e+02 1.0000000000000000e+00 5.7722710715789187e+00 1.6030884958242932e+01 1.3846039762276694e+01 
13 1 2 1.0279999999999989e+00 -5.3934907460305647e+02 1.0000000000000000e+00 7.0154442365188858e+00 5.4659845006771715e+00 1.8476571222613720e+00 
18 1 2 1.0279999999999969e+00 -4.8773041792659876e+02 1.0000000000000000e+00 7.0154442446056136e+00 5.4659844840796215e+00 1.8476571231941532e+00 
7 1 2 1.0279999999999994e+00 -5.4890535725263157e+02 1.0000000000000000e+00 7.0154442414667031e+00 5.4659844900869592e+00 1.8476571229471208e+00 
15 1 2 1.0279999999999874e+00 -3.9433155569250732e+02 1.0000000000000000e+00 6.8453150234795066e+00 6.3487803598924577e+00 2.2700520327663916e+00 
14 1 2 1.0279999999999938e+00 -4.5248448420313093e+02 1.0000000000000000e+00 6.8456843043553235e+00 6.3499812076325632e+00 2.2717764750590512e+00 
49 1 2 1.0279999999999960e+00 -5.1922729580795692e+02 1.0000000000000000e+00 6.8456137427023283e+00 6.3498202753098996e+00 2.2715740336050096e+00 
55 1 2 1.0279999999999847e+00 -4.2776018746201373e+02 1.0000000000000000e+00 6.8456154471451560e+00 6.3498322892478472e+00 2.2715941200266134e+00 
19 1 2 1.0279999999999849e+00 -4.6009807627595006e+02 1.0000000000000000e+00 6.8456205731500637e+00 6.3498463961310465e+00 2.2716133393258566e+00 
50 1 2 1.0279999999999847e+00 -5.4220794817774663e+02 1.0000000000000000e+00 6.8456652471845674e+00 6.3499397317912925e+00 2.2717254999041208e+00 
56 1 2 1.0279999999999820e+00 -4.6958174297900797e+02 1.0000000000000000e+00 6.8456278165466466e+00 6.3498692915374582e+00 2.2716460405278478e+00 
20 1 2 1.0279999999999849e+00 -5.3431099695859211e+02 1.0000000000000000e+00 6.8456221622195290e+00 6.3498496939770286e+00 2.2716172863102662e+00 
37 1 2 1.0280000000000094e+00 -4.2779328307248221e+02 1.0000000000000000e+00 8.2642498989583242e+00 4.8540345441946213e+00 3.6204332231566219e+00 
73 1 2 1.0280000000000091e+00 -4.8411694138200767e+02 1.0000000000000000e+00 8.2642498989583721e+00 4.8540345441946791e+00 3.6204332231566254e+00 
74 1 2 1.0280000000000094e+00 -5.5635046873167710e+02 1.0000000000000000e+00 8.2642498989583384e+00 4.8540345441947101e+00 3.6204332231566823e+00 
79 1 2 1.0280000000000091e+00 -5.5775335461602299e+02 1.0000000000000000e+00 8.2642498989582887e+00 4.8540345441947990e+00 3.6204332231568022e+00 
80 1 2 1.0280000000000094e+00 -5.6250266514939415e+02 1.0000000000000000e+00 8.2642498989581572e+00 4.8540345441948149e+00 3.6204332231569372e+00 
43 1 2 1.0280000000000094e+00 -5.7727551320869838e+02 1.0000000000000000e+00 8.2642498989579760e+00 4.8540345441948585e+00 3.6204332231571406e+00 
44 1 2 1.0280000000000094e+00 -5.8536046176456216e+02 1.0000000000000000e+00 8.2642498989578765e+00 4.8540345441951054e+00 3.6204332231574377e+00 
38 1 2 1.0280000000000094e+00 -4.5534710784124428e+02 1.0000000000000000e+00 8.2642498989573099e+00 4.8540345441954074e+00 3.6204332231582126e+00 
8 1 2 1.0280000000000094e+00 -5.2930959232282362e+02 1.0000000000000000e+00 8.2642498989564714e+00 4.8540345441962280e+00 3.6204332231596692e+00 
51 1 2 1.0280000000000094e+00 -3.4345175821295715e+02 1.0000000000000000e+00 8.2642498989538176e+00 4.8540345442025554e+00 3.6204332231673768e+00 
45 1 2 5.1993457980096269e-01 -3.9147894871133894e+02 1.0000000000000000e+00 7.2730697318308408e+00 2.3943941341508390e+00 7.8898708870032133e+00 
4 1 2 5.1993457980096269e-01 -5.3650855264881602e+02 1.0000000000000000e+00 7.2730697318308088e+00 2.3943941341508377e+00 7.8898708870032372e+00 
76 1 2 5.1993457980096269e-01 -3.5721913896740080e+02 1.0000000000000000e+00 7.2730697318308088e+00 2.3943941341508377e+00 7.8898708870032372e+00 
3 1 2 5.1993457980096269e-01 -6.4378605799954676e+02 1.0000000000000000e+00 7.2730697318308408e+00 2.3943941341508506e+00 7.8898708870032346e+00 
40 1 2 5.1993457980096269e-01 -4.7053955771791317e+02 1.0000000000000000e+00 7.2730697318308088e+00 2.3943941341508377e+00 7.8898708870032133e+00 
9 1 2 5.1993457980096269e-01 -4.4897309485578785e+02 1.0000000000000000e+00 7.2730697318308408e+00 2.3943941341508390e+00 7.8898708870032133e+00 
39 1 2 5.1993457980096269e-01 -5.1443476183902260e+02 1.0000000000000000e+00 7.2730697318308408e+00 2.3943941341508381e+00 7.8898708870032133e+00 
46 1 2 8.9131642251593612e-01 -4.9641984270949519e+02 1.0000000000000000e+00 8.2485081254698560e+00 6.5756081520698020e+00 1.1356681137201939e+01 
47 1 2 8.9131642251593612e-01 -4.4544034986494347e+02 1.0000000000000000e+00 8.2485081254698365e+00 6.5756081520697531e+00 1.1356681137201983e+01 
53 1 2 8.9131642251593612e-01 -4.3996853746602437e+02 1.0000000000000000e+00 8.2485081254699146e+00 6.5756081520697762e+00 1.1356681137201875e+01 
11 1 2 8.9131642251593612e-01 -4.7668562103313673e+02 1.0000000000000000e+00 8.2485081254699146e+00 6.5756081520697487e+00 1.1356681137201990e+01 
10 1 2 8.9131642251593612e-01 -4.4971743526409853e+02 1.0000000000000000e+00 8.2485081254699608e+00 6.5756081520698020e+00 1.1356681137201861e+01 
16 1 2 8.9131642251593612e-01 -5.2971067430620496e+02 1.0000000000000000e+00 8.2485081254699395e+00 6.5756081520697442e+00 1.1356681137201996e+01 
88 1 2 8.9131642251593612e-01 -4.8944426571443807e+02 1.0000000000000000e+00 8.2485081254699608e+00 6.5756081520697567e+00 1.1356681137201866e+01 
82 1 2 8.9131642251593612e-01 -6.2750201175899201e+02 1.0000000000000000e+00 8.2485081254698152e+00 6.5756081520698144e+00 1.1356681137201868e+01 
81 1 2 8.9131642251593612e-01 -5.4437506657716540e+02 1.0000000000000000e+00 8.2485081254699324e+00 6.5756081520697975e+00 1.1356681137201875e+01 
87 1 2 8.9131642251593612e-01 -5.8623898753007336e+02 1.0000000000000000e+00 8.2485081254699217e+00 6.5756081520698144e+00 1.1356681137201939e+01 
52 1 2 8.9131642251593612e-01 -4.2435341877080191e+02 1.0000000000000000e+00 8.2485081254699217e+00 6.5756081520697505e+00 1.1356681137201939e+01 
17 1 2 8.9131642251593612e-01 -5.5977477708420463e+02 1.0000000000000000e+00 8.2485081254698382e+00 6.5756081520697824e+00 1.1356681137201939e+01 
41 1 2 5.1993457980096269e-01 -3.6383432732193540e+02 1.0000000000000000e+00 8.4239266419977330e+00 1.0050308543951374e+00 1.6195824155316554e+01 
48 1 2 5.1993457980096269e-01 -3.2401686176565181e+02 1.0000000000000000e+00 8.4239266419977259e+00 1.0050308543951394e+00 1.6195824155316689e+01 
42 1 2 5.1993457980096269e-01 -3.4223547867631817e+02 1.0000000000000000e+00 8.4239266419976939e+00 1.0050308543951374e+00 1.6195824155316554e+01 
77 1 2 5.1993457980096269e-01 -3.0252974624988980e+02 1.0000000000000000e+00 8.4239266419977348e+00 1.0050308543951365e+00 1.6195824155316554e+01 
78 1 2 5.1993457980096269e-01 -3.3896900272249604e+02 1.0000000000000000e+00 8.4239266419977330e+00 1.0050308543951312e+00 1.6195824155316689e+01 
6 1 2 5.1993457980096269e-01 -3.1750837130315784e+02 1.0000000000000000e+00 8.4239266419977259e+00 1.0050308543951374e+00 1.6195824155316689e+01 
12 1 2 5.1993457980096269e-01 -2.8076290556701412e+02 1.0000000000000000e+00 8.4239266419977259e+00 1.0050308543951374e+00 1.6195824155316689e+01 
96 1 2 7.4276368542994675e-01 -4.0211824435694280e+02 1.0000000000000000e+00 8.9904706399577687e+00 9.8661136287684990e+00 1.5205218374375452e+01 
90 1 2 7.4276368542994675e-01 -4.2913687157697547e+02 1.0000000000000000e+00 8.9904706399577208e+00 9.8661136287684990e+00 1.5205218374375450e+01 
23 1 2 7.4276368542994675e-01 -4.3931121928892219e+02 1.0000000000000000e+00 8.9904706399577599e+00 9.8661136287684990e+00 1.5205218374375454e+01 
95 1 2 7.4276368542994675e-01 -3.0693677509079527e+02 1.0000000000000000e+00 8.9904706399577687e+00 9.8661136287684990e+00 1.5205218374375477e+01 
89 1 2 7.4276368542994675e-01 -3.7509123862321565e+02 1.0000000000000000e+00 8.9904706399577687e+00 9.8661136287684990e+00 1.5205218374375459e+01 
54 1 2 7.4276368542994675e-01 -4.6393808079945427e+02 1.0000000000000000e+00 8.9904706399577261e+00 9.8661136287684563e+00 1.5205218374375455e+01 
59 1 2 7.4276368542994675e-01 -6.4053107437168092e+02 1.0000000000000000e+00 8.9904706399577261e+00 9.8661136287684563e+00 1.5205218374375452e+01 
60 1 2 7.4276368542994675e-01 -4.2962778684751504e+02 1.0000000000000000e+00 8.9904706399577066e+00 9.8661136287684563e+00 1.5205218374375450e+01 
24 1 2 7.4276368542994675e-01 -6.0337429157966722e+02 1.0000000000000000e+00 8.9904706399577350e+00 9.8661136287684563e+00 1.5205218374375439e+01 
66 1 2 7.4276368542994675e-01 -4.3997833758628940e+02 1.0000000000000000e+00 8.9904706399577208e+00 9.8661136287684563e+00 1.5205218374375455e+01 
135 1 2 1.0279966716137678e+00 -5.0478421963195933e+02 1.0000000000000000e+00 1.3286968308165820e+01 1.4988324009255821e+01 4.4219243170025200e+00 
147 1 2 1.0280032388789770e+00 -6.5866843357935500e+02 1.0000000000000000e+00 1.2706459278996268e+01 1.5547621675799439e+01 5.1811642090480561e+00 
75 1 2 1.0280032388789770e+00 -4.9792023680386689e+02 1.0000000000000000e+00 1.2706459278996268e+01 1.5547621675799439e+01 5.1811642090480561e+00 
111 1 2 1.0280032388789770e+00 -5.0377958247510810e+02 1.0000000000000000e+00 1.2706459278996268e+01 1.5547621675799439e+01 5.1811642090480561e+00 
112 1 2 1.0280032388789770e+00 -6.4892912727408850e+02 1.0000000000000000e+00 1.2706459278996268e+01 1.5547621675799439e+01 5.1811642090480561e+00 
177 1 2 1.0280032388789770e+00 -5.0800223823675560e+02 1.0000000000000000e+00 1.2706459278996268e+01 1.5547621675799439e+01 5.1811642090480561e+00 
176 1 2 1.0280032388789770e+00 -4.6704190000916975e+02 1.0000000000000000e+00 1.2706459278996268e+01 1.5547621675799439e+01 5.1811642090480561e+00 
178 1 2 1.0280032388789770e+00 -5.2667404327741394e+02 1.0000000000000000e+00 1.2706459278996268e+01 1.5547621675799439e+01 5.1811642090480561e+00 
141 1 2 1.0280032388789770e+00 -5.6735675254755370e+02 1.0000000000000000e+00 1.2706459278996268e+01 1.5547621675799439e+01 5.1811642090480561e+00 
142 1 2 1.0280032388789770e+00 -4.1165238011536007e+02 1.0000000000000000e+00 1.2706459278996268e+01 1.5547621675799439e+01 5.1811642090480561e+00 
69 1 2 1.0279999999999867e+00 -3.0064436598764507e+02 1.0000000000000000e+00 6.6818266381601585e+00 1.3964001511685879e+01 7.9868365874263807e+00 
21 1 2 1.0279999999999905e+00 -4.9548567575092147e+02 1.0000000000000000e+00 7.2636030047836275e+00 1.3524127855398639e+01 8.0390581267623809e+00 
57 1 2 1.0280000000000051e+00 -5.2943061029752312e+02 1.0000000000000000e+00 7.2636091733205825e+00 1.3524132545482308e+01 8.0390343207234682e+00 
28 1 2 1.0279999999999871e+00 -4.8256766567757700e+02 1.0000000000000000e+00 7.2636047391036085e+00 1.3524128945250778e+01 8.0390514943790539e+00 
64 1 2 1.0279999999999800e+00 -3.3856186934438142e+02 1.0000000000000000e+00 7.2636089120575118e+00 1.3524131831237224e+01 8.0390354650709401e+00 
63 1 2 1.0279999999999840e+00 -3.7890623424377105e+02 1.0000000000000000e+00 7.2637596751555265e+00 1.3524294260051764e+01 8.0384393597691730e+00 
22 1 2 1.0279999999999909e+00 -3.2750264329920446e+02 1.0000000000000000e+00 7.2635994150006473e+00 1.3524125437004741e+01 8.0390718964312065e+00 
58 1 2 1.0279999999999703e+00 -3.1488652620663839e+02 1.0000000000000000e+00 7.2635991568054488e+00 1.3524125219038019e+01 8.0390728983543625e+00 
94 1 2 3.7138184271497332e-01 -4.0238165583634998e+02 1.0000000000000000e+00 1.2088901682654381e+01 1.4133149514624435e+01 1.1612958246164014e+01 
100 1 2 3.7138184271497332e-01 -4.5353721667079316e+02 1.0000000000000000e+00 1.2088901682654381e+01 1.4133149514624357e+01 1.1612958246164018e+01 
106 1 2 3.7138184271497332e-01 -5.4575936676987260e+02 1.0000000000000000e+00 1.2088901682654377e+01 1.4133149514624380e+01 1.1612958246164006e+01 
136 1 2 3.7138184271497332e-01 -5.4100972611977897e+02 1.0000000000000000e+00 1.2088901682654338e+01 1.4133149514624435e+01 1.1612958246164029e+01 
101 1 2 3.7138184271497332e-01 -5.5423365294050507e+02 1.0000000000000000e+00 1.2088901682654377e+01 1.4133149514624380e+01 1.1612958246164006e+01 
102 1 2 5.9421094834395738e-01 -3.5452387984544623e+02 1.0000000000000000e+00 1.0055389295623176e+01 1.6589408070919148e+01 1.8400238273727368e+01 
97 1 2 5.9421094834395738e-01 -4.3657773978663158e+02 1.0000000000000000e+00 1.0055389295623176e+01 1.6589408070919148e+01 1.8400238273727368e+01 
61 1 2 5.9421094834395738e-01 -4.8212380381657999e+02 1.0000000000000000e+00 1.0055389295623176e+01 1.6589408070919148e+01 1.8400238273727368e+01 
103 1 2 5.9421094834395738e-01 -4.4608372852311373e+02 1.0000000000000000e+00 1.0055389295623248e+01 1.6589408070919148e+01 1.8400238273727556e+01 
67 1 2 5.9421094834395738e-01 -3.7403467312170244e+02 1.0000000000000000e+00 1.0055389295623248e+01 1.6589408070919148e+01 1.8400238273727343e+01 
72 1 2 5.9421094834395738e-01 -4.2028681933168838e+02 1.0000000000000000e+00 1.0055389295623195e+01 1.6589408070919024e+01 1.8400238273727549e+01 
108 1 2 5.9421094834395738e-01 -3.5782126684199460e+02 1.0000000000000000e+00 1.0055389295623195e+01 1.6589408070919024e+01 1.8400238273727549e+01 
107 1 2 5.9421094834395738e-01 -3.8689575293539701e+02 1.0000000000000000e+00 1.0055389295623176e+01 1.6589408070919024e+01 1.8400238273727549e+01 
109 1 2 7.4276368542994675e-01 -4.7385488803690527e+02 1.0000000000000000e+00 1.5636352679220431e+01 2.3687212543549454e+00 2.1454480577422230e+00 
110 1 2 7.4276368542994675e-01 -4.6079901395051155e+02 1.0000000000000000e+00 1.5636352679220396e+01 2.3687212543549347e+00 2.1454480577422181e+00 
116 1 2 7.4276368542994675e-01 -5.1120249210701695e+02 1.0000000000000000e+00 1.5636352679220344e+01 2.3687212543549330e+00 2.1454480577422319e+00 
146 1 2 7.4276368542994675e-01 -5.7801890158778065e+02 1.0000000000000000e+00 1.5636352679220431e+01 2.3687212543549361e+00 2.1454480577422181e+00 
145 1 2 7.4276368542994675e-01 -5.1795555367426959e+02 1.0000000000000000e+00 1.5636352679220442e+01 2.3687212543549356e+00 2.1454480577422208e+00 
115 1 2 7.4276368542994675e-01 -5.5314974199010896e+02 1.0000000000000000e+00 1.5636352679220421e+01 2.3687212543549454e+00 2.1454480577422208e+00 
139 1 2 7.4276368542994675e-01 -4.4996718976406345e+02 1.0000000000000000e+00 1.5636352679220376e+01 2.3687212543549414e+00 2.1454480577422212e+00 
151 1 2 7.4276368542994675e-01 -4.8194233349371564e+02 1.0000000000000000e+00 1.5636352679220334e+01 2.3687212543549454e+00 2.1454480577422181e+00 
158 1 2 7.4276368542994675e-01 -5.6968472016907890e+02 1.0000000000000000e+00 1.5636352679220332e+01 2.3687212543549347e+00 2.1454480577422181e+00 
152 1 2 7.4276368542994675e-01 -5.8436783587961077e+02 1.0000000000000000e+00 1.5636352679220332e+01 2.3687212543549347e+00 2.1454480577422181e+00 
117 1 2 8.1704005397294144e-01 -4.5249248251997471e+02 1.0000000000000000e+00 1.6475693034486763e+01 5.9922030788531817e+00 9.3094475413102113e+00 
118 1 2 8.1704005397294144e-01 -4.6979959441530190e+02 1.0000000000000000e+00 1.6475693034486870e+01 5.9922030788531657e+00 9.3094475413102042e+00 
159 1 2 8.1704005397294144e-01 -5.3796768825103982e+02 1.0000000000000000e+00 1.6475693034486728e+01 5.9922030788531897e+00 9.3094475413102113e+00 
123 1 2 8.1704005397294144e-01 -3.7021660155871592e+02 1.0000000000000000e+00 1.6475693034486746e+01 5.9922030788531924e+00 9.3094475413102202e+00 
124 1 2 8.1704005397294144e-01 -4.6313649157216867e+02 1.0000000000000000e+00 1.6475693034486859e+01 5.9922030788531817e+00 9.3094475413101563e+00 
160 1 2 8.1704005397294144e-01 -5.0149360564107997e+02 1.0000000000000000e+00 1.6475693034486710e+01 5.9922030788531782e+00 9.3094475413102202e+00 
166 1 2 8.1704005397294144e-01 -4.6003144397498716e+02 1.0000000000000000e+00 1.6475693034486827e+01 5.9922030788531488e+00 9.3094475413102202e+00 
130 1 2 8.1704005397294144e-01 -4.0170610565880713e+02 1.0000000000000000e+00 1.6475693034486834e+01 5.9922030788531613e+00 9.3094475413102113e+00 
153 1 2 8.1704005397294144e-01 -4.7491106247346221e+02 1.0000000000000000e+00 1.6475693034486714e+01 5.9922030788531515e+00 9.3094475413101794e+00 
148 1 2 8.1704005397294144e-01 -3.8780671166174784e+02 1.0000000000000000e+00 1.6475693034486788e+01 5.9922030788531515e+00 9.3094475413102202e+00 
154 1 2 8.1704005397294144e-01 -4.2704331846738182e+02 1.0000000000000000e+00 1.6475693034486870e+01 5.9922030788531515e+00 9.3094475413101794e+00 
150 1 2 1.0280000000000098e+00 -5.4681546278558426e+02 1.0000000000000000e+00 1.6291953258627348e+01 5.0279980576247905e+00 1.6260495445140990e+01 
149 1 2 1.0279999999999818e+00 -4.5159185292945773e+02 1.0000000000000000e+00 1.6291939097226830e+01 5.0279806401518758e+00 1.6260486128215259e+01 
113 1 2 1.0279999999999834e+00 -4.0090484796533559e+02 1.0000000000000000e+00 1.6291914203705225e+01 5.0279571956644071e+00 1.6260482830167540e+01 
114 1 2 1.0279999999999794e+00 -3.7620743800676718e+02 1.0000000000000000e+00 1.6291881892079221e+01 5.0279278086448151e+00 1.6260480447532764e+01 
119 1 2 1.0280000000000105e+00 -4.0489018872565612e+02 1.0000000000000000e+00 1.6291752882988106e+01 5.0277894696722871e+00 1.6260432535914841e+01 
120 1 2 1.0279999999999887e+00 -4.5812989535707050e+02 1.0000000000000000e+00 1.6291457633199862e+01 5.0274911842904260e+00 1.6260355862441433e+01 
125 1 2 1.0279999999999825e+00 -4.8633768122965984e+02 1.0000000000000000e+00 1.5086860631563610e+01 5.1687755231855528e+00 1.5516313375369197e+01 
155 1 2 1.0279999999999905e+00 -5.1828975722484427e+02 1.0000000000000000e+00 1.6291651481079686e+01 5.0274495164526662e+00 1.6259972281673605e+01 
83 1 2 1.0279999999999792e+00 -4.3209471982405034e+02 1.0000000000000000e+00 1.6290400877667349e+01 5.0264970574685295e+00 1.6260211005899134e+01 
84 1 2 1.0280000000000071e+00 -5.1212696322249212e+02 1.0000000000000000e+00 1.6289823346089182e+01 5.0260786465065648e+00 1.6260357633804805e+01 
132 1 2 1.0280000000000054e+00 -5.4844802025381512e+02 1.0000000000000000e+00 1.5101286984914180e+01 6.5904202814753807e+00 1.5506141051703958e+01 
131 1 2 1.0280000000000180e+00 -6.0355834955924229e+02 1.0000000000000000e+00 1.5101504317075698e+01 6.5904866561157824e+00 1.5505956073456739e+01 
167 1 2 1.0280000000000136e+00 -4.5834082162007451e+02 1.0000000000000000e+00 1.5101949381858162e+01 6.5907847083586715e+00 1.5505958992089582e+01 
126 1 2 1.0280000000000011e+00 -5.2480426720822470e+02 1.0000000000000000e+00 1.5101523709124198e+01 6.5907949975710816e+00 1.5506651081601911e+01 
161 1 2 1.0280000000000227e+00 -4.7034833164636547e+02 1.0000000000000000e+00 1.5101989051243438e+01 6.5908210235015083e+00 1.5505982220101185e+01 
168 1 2 1.0280000000000060e+00 -6.1818311982704995e+02 1.0000000000000000e+00 1.5102004745485065e+01 6.5910614785801567e+00 1.5506523508318576e+01 
162 1 2 1.0280000000000100e+00 -4.2250005810788116e+02 1.0000000000000000e+00 1.5102941555973553e+01 6.5926348541654312e+00 1.5508777098407018e+01 
156 1 2 1.0280000000000094e+00 -5.0144482225465265e+02 1.0000000000000000e+00 1.5103283236131251e+01 6.5931534512298029e+00 1.5509475044238158e+01 
157 1 2 1.0279999999999967e+00 -4.3884007611352149e+02 1.0000000000000000e+00 1.5103356013957642e+01 6.5933546667810488e+00 1.5509841484707509e+01 
165 1 2 1.0279976085484315e+00 -5.1565108026457654e+02 1.0000000000000000e+00 1.4766673096279675e+01 1.5277526798985701e+01 5.0167592314796394e+00 
171 1 2 1.0279976075512962e+00 -5.5649713232089084e+02 1.0000000000000000e+00 1.4766762731691063e+01 1.5277784575302995e+01 5.0167509695140629e+00 
85 1 2 1.0279976078688502e+00 -3.7297163393251168e+02 1.0000000000000000e+00 1.4766766881757409e+01 1.5277741160940707e+01 5.0167878133697918e+00 
91 1 2 1.0279976078688502e+00 -3.9265276979352632e+02 1.0000000000000000e+00 1.4766766881757409e+01 1.5277741160940707e+01 5.0167878133697918e+00 
121 1 2 1.0279976078688502e+00 -4.9851862017750005e+02 1.0000000000000000e+00 1.4766766881757409e+01 1.5277741160940707e+01 5.0167878133697918e+00 
86 1 2 1.0279976078688502e+00 -4.6273614682001590e+02 1.0000000000000000e+00 1.4766766881757409e+01 1.5277741160940707e+01 5.0167878133697918e+00 
122 1 2 1.0279976078688502e+00 -4.1583642783442724e+02 1.0000000000000000e+00 1.4766766881757409e+01 1.5277741160940707e+01 5.0167878133697918e+00 
129 1 2 1.0279964873733942e+00 -5.0546625820506955e+02 1.0000000000000000e+00 1.3531836386725058e+01 1.4954332460667898e+01 4.3939094855505578e+00 
163 1 2 1.0279913580335482e+00 -5.8696675885228240e+02 1.0000000000000000e+00 1.7454122735855766e+01 1.6222845728242248e+01 6.3711091723084499e+00 
133 1 2 1.0279913580335576e+00 -4.4399187890462264e+02 1.0000000000000000e+00 1.7454122735855744e+01 1.6222845728242202e+01 6.3711091723084703e+00 
92 1 2 1.0280064696718756e+00 -4.4685305190240484e+02 1.0000000000000000e+00 1.7960966825488299e+01 1.4734629642630004e+01 6.4159396191083786e+00 
134 1 2 1.0280082941133888e+00 -4.3986373850668036e+02 1.0000000000000000e+00 1.8272922323343970e+01 1.4880173684368030e+01 6.2191108994690252e+00 
99 1 2 1.0280083098715178e+00 -3.2868157784332948e+02 1.0000000000000000e+00 1.8271410568787292e+01 1.4878789044767844e+01 6.2181470422481473e+00 
105 1 2 1.0280083096203132e+00 -3.6402310700224956e+02 1.0000000000000000e+00 1.8271433263998706e+01 1.4878809695044218e+01 6.2181645582665022e+00 
98 1 2 1.0280083052240883e+00 -4.9976264547107644e+02 1.0000000000000000e+00 1.8271848442360557e+01 1.4879188739991498e+01 6.2184456343261987e+00 
140 1 2 1.0280083057848342e+00 -3.8857799368685448e+02 1.0000000000000000e+00 1.8271793080119156e+01 1.4879138044265595e+01 6.2184130710828462e+00 
104 1 2 1.0280083041410475e+00 -4.1294973528654197e+02 1.0000000000000000e+00 1.8271947511040047e+01 1.4879279154672094e+01 6.2185186069378924e+00 
93 1 2 1.0280081872642839e+00 -4.6578297904091608e+02 1.0000000000000000e+00 1.8283357819617340e+01 1.4889995941497562e+01 6.2244612317491272e+00 
128 1 2 1.0280078804399779e+00 -5.0853739563647969e+02 1.0000000000000000e+00 1.8338476789341005e+01 1.4960824598104695e+01 6.1376693538680671e+00 
170 1 2 1.0279913580335545e+00 -5.5644274872147901e+02 1.0000000000000000e+00 1.7454122735855766e+01 1.6222845728242223e+01 6.3711091723084445e+00 
164 1 2 1.0279913580335460e+00 -5.9768055878188432e+02 1.0000000000000000e+00 1.7454122735855698e+01 1.6222845728242248e+01 6.3711091723084543e+00 
127 1 2 1.0279913580335474e+00 -4.3930709629009374e+02 1.0000000000000000e+00 1.7454122735855719e+01 1.6222845728242241e+01 6.3711091723084676e+00 
175 1 2 1.0279913580335474e+00 -5.5352205576287122e+02 1.0000000000000000e+00 1.7454122735855719e+01 1.6222845728242241e+01 6.3711091723084676e+00 
169 1 2 1.0279913580335474e+00 -5.4939104424877326e+02 1.0000000000000000e+00 1.7454122735855719e+01 1.6222845728242241e+01 6.3711091723084676e+00 
172 1 2 6.6848731688695207e-01 -4.0095405985114672e+02 1.0000000000000000e+00 1.6290224899688095e+01 1.5548523137988523e+01 1.5038958475981699e+01 
173 1 2 6.6848731688695207e-01 -3.5795724546172244e+02 1.0000000000000000e+00 1.6290224899688074e+01 1.5548523137988566e+01 1.5038958475981696e+01 
137 1 2 6.6848731688695207e-01 -3.9723107001841089e+02 1.0000000000000000e+00 1.6290224899688219e+01 1.5548523137988566e+01 1.5038958475981698e+01 
138 1 2 6.6848731688695207e-01 -4.3018837143261578e+02 1.0000000000000000e+00 1.6290224899688219e+01 1.5548523137988566e+01 1.5038958475981698e+01 
143 1 2 6.6848731688695207e-01 -4.9967431847001347e+02 1.0000000000000000e+00 1.6290224899688074e+01 1.5548523137988509e+01 1.5038958475981696e+01 
180 1 2 6.6848731688695207e-01 -3.7059098307165982e+02 1.0000000000000000e+00 1.6290224899688038e+01 1.5548523137988544e+01 1.5038958475981698e+01 
179 1 2 6.6848731688695207e-01 -4.4554710058448342e+02 1.0000000000000000e+00 1.6290224899688219e+01 1.5548523137988509e+01 1.5038958475981698e+01 
174 1 2 6.6848731688695207e-01 -4.6029465953882817e+02 1.0000000000000000e+00 1.6290224899688038e+01 1.5548523137988566e+01 1.5038958475981698e+01 
144 1 2 6.6848731688695207e-01 -4.9883100395114292e+02 1.0000000000000000e+00 1.6290224899688038e+01 1.5548523137988566e+01 1.5038958475981698e+01 

Velocities

31 -4.8858594853313799e-13 -4.6193580111604108e-12 -1.3325071186019985e-13
1 -4.8858594853313768e-13 2.3096790055931083e-12 6.6625355930760838e-14
2 9.7717188193392210e-13 2.3096790055931083e-12 6.6625355930760825e-14
62 -3.4844636725871396e-12 -8.5099820938622478e-13 -1.0832942907204239e-12
27 2.5205086815016176e-12 5.4391613685119844e-13 7.6863487404274919e-13
33 3.0969919730705015e-12 6.7760937719334585e-13 9.4645736398210640e-13
26 5.9908011954036873e-13 9.7376008908376863e-14 1.7563614126392462e-13
68 6.9500853188870808e-13 1.1959925485389610e-13 2.0550114568586172e-13
25 -3.9640978072968280e-12 -9.6216335547642308e-13 -1.2344444902448734e-12
32 4.0686097684700571e-13 5.2737888658878937e-14 1.1641328126738307e-13
71 9.4164398342358699e-13 7.0623298763705633e-13 2.4129627101359358e-12
5 -1.1770549803824128e-13 1.7655824690612475e-13 -6.8563452526550604e-12
70 -7.7979892395188144e-13 1.7655824690612457e-13 2.4129627101359358e-12
34 9.4164398342358699e-13 -3.5311649382480795e-13 7.4448727470796024e-12
65 -7.7979892395188154e-13 -3.5311649382480785e-13 7.4448727470796008e-12
29 1.4713187144487724e-14 1.7655824690612472e-13 -6.5915078822896419e-12
30 1.4713187144487715e-14 1.7655824690612480e-13 -7.6508573637518563e-12
35 1.4713187144487708e-14 -3.5311649382480760e-13 -6.5915078822896427e-12
36 -2.5012418322098100e-13 -3.5311649382480790e-13 7.9745474878106883e-12
13 -2.3624176092774075e-12 4.1313522875226379e-12 -8.8370576040181635e-13
18 -2.0757264402202885e-12 4.3975432657071349e-12 -1.3894395629229233e-13
7 -2.4298743882310263e-12 4.0687191589485755e-12 -1.0589438583272118e-12
15 1.1262562438518013e-12 -2.6432042734036460e-12 -1.3725035245838224e-13
14 -3.7578265798612014e-14 -1.0358086581845124e-12 -9.2870809972813294e-13
49 -4.2386699590591734e-13 -4.9485714696744677e-13 -1.1853869735421860e-12
55 1.5916586900278098e-12 -3.3080393493895570e-12 1.5931627240863872e-13
19 1.5508864717234742e-12 -3.2513811205895744e-12 1.3192827185702098e-13
50 1.5911021181559742e-12 -3.3093584083598958e-12 1.5779938629615799e-13
56 2.0801270417801110e-12 -3.9905180845833235e-12 4.8465999641857126e-13
20 1.5508689084862505e-12 -3.2514213213809029e-12 1.3188324855668840e-13
37 -2.0818222696578001e-13 8.6155747378821057e-13 3.3534698494005630e-13
73 -2.4798897427032719e-13 8.9725693705640411e-13 2.9228796976806809e-13
74 -2.0818222696567338e-13 8.6155747378891951e-13 3.3534698494052199e-13
79 -2.4798897427099655e-13 8.9725693705734004e-13 2.9228796976944113e-13
80 -2.0818222696714571e-13 8.6155747378975426e-13 3.3534698494253895e-13
43 -2.0818222696861370e-13 8.6155747379009666e-13 3.3534698494415333e-13
44 -2.0818222696943704e-13 8.6155747379207061e-13 3.3534698494648942e-13
38 -2.0818222697403922e-13 8.6155747379447066e-13 3.3534698495261926e-13
8 -2.0818222698087691e-13 8.6155747380100804e-13 3.3534698496413461e-13
51 -2.0818222700279937e-13 8.6155747385150897e-13 3.3534698502475992e-13
45 -2.0989306229135086e-12 1.4575907169533270e-13 1.5158943445374396e-12
4 2.7985741787937264e-12 3.4982177176646317e-13 -2.1572342567429168e-12
76 2.7985741787937264e-12 3.4982177176646317e-13 -2.1572342567429168e-12