LAMMPS data file via write_data, version 30 Jul 2016, timestep = 1000000

2080 atoms
8 atom types

0.0000000000000000e+00 4.0000000000000000e+01 xlo xhi
0.0000000000000000e+00 4.0000000000000000e+01 ylo yhi
0.0000000000000000e+00 1.0000000000000000e+02 zlo zhi

Masses

1 3.896
2 4.306
3 20.064
4 8.378
5 8.378
6 8.378
7 8.378
8 8.378

Atoms # meso-molecular

1 2 4 2.2559723595316457e+00 0.0000000000000000e+00 1.0000000000000000e+00 0.0000000000000000e+00 0.0000000000000000e+00 2.5000000000000000e+00 
2 2 4 2.2559723595316457e+00 0.0000000000000000e+00 1.0000000000000000e+00 0.0000000000000000e+00 2.0000000000000000e+00 2.5000000000000000e+00 
21 2 4 2.2559723595316457e+00 0.0000000000000000e+00 1.0000000000000000e+00 2.0000000000000000e+00 0.0000000000000000e+00 2.5000000000000000e+00 
22 2 4 2.2559723595316457e+00 0.0000000000000000e+00 1.0000000000000000e+00 2.0000000000000000e+00 2.0000000000000000e+00 2.5000000000000000e+00 
41 2 4 2.2559723595316457e+00 0.0000000000000000e+00 1.0000000000000000e+00 4.0000000000000000e+00 0.0000000000000000e+00 2.5000000000000000e+00 
42 2 4 2.2559723595316457e+00 0.0000000000000000e+00 1.0000000000000000e+00 4.0000000000000000e+00 2.0000000000000000e+00 2.5000000000000000e+00 
61 2 4 2.2559723595316457e+00 0.0000000000000000e+00 1.0000000000000000e+00 6.0000000000000000e+00 0.0000000000000000e+00 2.5000000000000000e+00 
62 2 4 2.2559723595316457e+00 0.0000000000000000e+00 1.0000000000000000e+00 6.0000000000000000e+00 2.0000000000000000e+00 2.5000000000000000e+00 
81 2 4 2.2559723595316457e+00 0.0000000000000000e+00 1.0000000000000000e+00 8.0000000000000000e+00 0.0000000000000000e+00 2.5000000000000000e+00 
82 2 4 2.2559723595316457e+00 0.0000000000000000e+00 1.0000000000000000e+00 8.0000000000000000e+00 2.0000000000000000e+00 2.5000000000000000e+00 
101 2 4 2.2559723595316457e+00 0.0000000000000000e+00 1.0000000000000000e+00 1.0000000000000000e+01 0.0000000000000000e+00 2.5000000000000000e+00 
102 2 4 2.2559723595316457e+00 0.0000000000000000e+00 1.0000000000000000e+00 1.0000000000000000e+01 2.0000000000000000e+00 2.5000000000000000e+00 
121 2 4 2.2559723595316457e+00 0.0000000000000000e+00 1.0000000000000000e+00 1.2000000000000000e+01 0.0000000000000000e+00 2.5000000000000000e+00 
122 2 4 2.2559723595316457e+00 0.0000000000000000e+00 1.0000000000000000e+00 1.2000000000000000e+01 2.0000000000000000e+00 2.5000000000000000e+00 
141 2 4 2.2559723595316923e+00 1.1899003496235991e-05 1.0000000000000000e+00 1.4000000000000000e+01 0.0000000000000000e+00 2.5000000000000000e+00 
142 2 4 2.2559723595316470e+00 1.0874155969932099e-06 1.0000000000000000e+00 1.4000000000000000e+01 2.0000000000000000e+00 2.5000000000000000e+00 
161 2 4 2.2559723595317456e+00 -8.2554119246177986e-04 1.0000000000000000e+00 1.6000000000000000e+01 0.0000000000000000e+00 2.5000000000000000e+00 
162 2 4 2.2559723595317944e+00 2.5029615481594930e-05 1.0000000000000000e+00 1.6000000000000000e+01 2.0000000000000000e+00 2.5000000000000000e+00 
181 2 4 2.2559723595318779e+00 6.6225148343558688e-07 1.0000000000000000e+00 1.8000000000000000e+01 0.0000000000000000e+00 2.5000000000000000e+00 
182 2 4 2.2559723595319632e+00 -7.2687520919512659e-03 1.0000000000000000e+00 1.8000000000000000e+01 2.0000000000000000e+00 2.5000000000000000e+00 
3 2 4 2.2559723595316457e+00 5.4291131866344923e-04 1.0000000000000000e+00 0.0000000000000000e+00 4.0000000000000000e+00 2.5000000000000000e+00 
23 2 4 2.2559723595316457e+00 0.0000000000000000e+00 1.0000000000000000e+00 2.0000000000000000e+00 4.0000000000000000e+00 2.5000000000000000e+00 
43 2 4 2.2559723595316457e+00 0.0000000000000000e+00 1.0000000000000000e+00 4.0000000000000000e+00 4.0000000000000000e+00 2.5000000000000000e+00 
63 2 4 2.2559723595316457e+00 0.0000000000000000e+00 1.0000000000000000e+00 6.0000000000000000e+00 4.0000000000000000e+00 2.5000000000000000e+00 
83 2 4 2.2559723595316457e+00 0.0000000000000000e+00 1.0000000000000000e+00 8.0000000000000000e+00 4.0000000000000000e+00 2.5000000000000000e+00 
103 2 4 2.2559723595316457e+00 0.0000000000000000e+00 1.0000000000000000e+00 1.0000000000000000e+01 4.0000000000000000e+00 2.5000000000000000e+00 
123 2 4 2.2559723595316457e+00 0.0000000000000000e+00 1.0000000000000000e+00 1.2000000000000000e+01 4.0000000000000000e+00 2.5000000000000000e+00 
143 2 4 2.2559723595316457e+00 0.0000000000000000e+00 1.0000000000000000e+00 1.4000000000000000e+01 4.0000000000000000e+00 2.5000000000000000e+00 
163 2 4 2.2559723595321817e+00 6.9280434032493974e-05 1.0000000000000000e+00 1.6000000000000000e+01 4.0000000000000000e+00 2.5000000000000000e+00 
183 2 4 2.2559723595318508e+00 2.3129541798891360e-04 1.0000000000000000e+00 1.8000000000000000e+01 4.0000000000000000e+00 2.5000000000000000e+00 
4 2 4 2.2559723595316457e+00 -3.5945539914486518e-03 1.0000000000000000e+00 0.0000000000000000e+00 6.0000000000000000e+00 2.5000000000000000e+00 
5 2 4 2.2559723595316457e+00 -2.9384260618754154e-03 1.0000000000000000e+00 0.0000000000000000e+00 8.0000000000000000e+00 2.5000000000000000e+00 
24 2 4 2.2559723595316457e+00 0.0000000000000000e+00 1.0000000000000000e+00 2.0000000000000000e+00 6.0000000000000000e+00 2.5000000000000000e+00 
25 2 4 2.2559723595316457e+00 0.0000000000000000e+00 1.0000000000000000e+00 2.0000000000000000e+00 8.0000000000000000e+00 2.5000000000000000e+00 
44 2 4 2.2559723595316457e+00 0.0000000000000000e+00 1.0000000000000000e+00 4.0000000000000000e+00 6.0000000000000000e+00 2.5000000000000000e+00 
45 2 4 2.2559723595316457e+00 0.0000000000000000e+00 1.0000000000000000e+00 4.0000000000000000e+00 8.0000000000000000e+00 2.5000000000000000e+00 
64 2 4 2.2559723595316457e+00 0.0000000000000000e+00 1.0000000000000000e+00 6.0000000000000000e+00 6.0000000000000000e+00 2.5000000000000000e+00 
65 2 4 2.2559723595316457e+00 0.0000000000000000e+00 1.0000000000000000e+00 6.0000000000000000e+00 8.0000000000000000e+00 2.5000000000000000e+00 
84 2 4 2.2559723595316457e+00 0.0000000000000000e+00 1.0000000000000000e+00 8.0000000000000000e+00 6.0000000000000000e+00 2.5000000000000000e+00 
85 2 4 2.2559723595316457e+00 0.0000000000000000e+00 1.0000000000000000e+00 8.0000000000000000e+00 8.0000000000000000e+00 2.5000000000000000e+00 
104 2 4 2.2559723595316457e+00 0.0000000000000000e+00 1.0000000000000000e+00 1.0000000000000000e+01 6.0000000000000000e+00 2.5000000000000000e+00 
105 2 4 2.2559723595316457e+00 0.0000000000000000e+00 1.0000000000000000e+00 1.0000000000000000e+01 8.0000000000000000e+00 2.5000000000000000e+00 
124 2 4 2.2559723595316457e+00 0.0000000000000000e+00 1.0000000000000000e+00 1.2000000000000000e+01 6.0000000000000000e+00 2.5000000000000000e+00 
125 2 4 2.2559723595316457e+00 0.0000000000000000e+00 1.0000000000000000e+00 1.2000000000000000e+01 8.0000000000000000e+00 2.5000000000000000e+00 
144 2 4 2.2559723595316457e+00 0.0000000000000000e+00 1.0000000000000000e+00 1.4000000000000000e+01 6.0000000000000000e+00 2.5000000000000000e+00 
145 2 4 2.2559723595316457e+00 0.0000000000000000e+00 1.0000000000000000e+00 1.4000000000000000e+01 8.0000000000000000e+00 2.5000000000000000e+00 
164 2 4 2.2559723595316457e+00 2.4141318954236421e-07 1.0000000000000000e+00 1.6000000000000000e+01 6.0000000000000000e+00 2.5000000000000000e+00 
165 2 4 2.2559723595316457e+00 4.7214187275910353e-09 1.0000000000000000e+00 1.6000000000000000e+01 8.0000000000000000e+00 2.5000000000000000e+00 
184 2 4 2.2559723595322834e+00 -2.7500942084449620e-05 1.0000000000000000e+00 1.8000000000000000e+01 6.0000000000000000e+00 2.5000000000000000e+00 
185 2 4 2.2559723595316457e+00 7.0974953946755090e-06 1.0000000000000000e+00 1.8000000000000000e+01 8.0000000000000000e+00 2.5000000000000000e+00 
6 2 4 2.2559723595316457e+00 0.0000000000000000e+00 1.0000000000000000e+00 0.0000000000000000e+00 1.0000000000000000e+01 2.5000000000000000e+00 
26 2 4 2.2559723595316457e+00 0.0000000000000000e+00 1.0000000000000000e+00 2.0000000000000000e+00 1.0000000000000000e+01 2.5000000000000000e+00 
46 2 4 2.2559723595316457e+00 0.0000000000000000e+00 1.0000000000000000e+00 4.0000000000000000e+00 1.0000000000000000e+01 2.5000000000000000e+00 
66 2 4 2.2559723595316457e+00 0.0000000000000000e+00 1.0000000000000000e+00 6.0000000000000000e+00 1.0000000000000000e+01 2.5000000000000000e+00 
86 2 4 2.2559723595316457e+00 0.0000000000000000e+00 1.0000000000000000e+00 8.0000000000000000e+00 1.0000000000000000e+01 2.5000000000000000e+00 
106 2 4 2.2559723595316457e+00 0.0000000000000000e+00 1.0000000000000000e+00 1.0000000000000000e+01 1.0000000000000000e+01 2.5000000000000000e+00 
126 2 4 2.2559723595316457e+00 0.0000000000000000e+00 1.0000000000000000e+00 1.2000000000000000e+01 1.0000000000000000e+01 2.5000000000000000e+00 
146 2 4 2.2559723595316457e+00 0.0000000000000000e+00 1.0000000000000000e+00 1.4000000000000000e+01 1.0000000000000000e+01 2.5000000000000000e+00 
166 2 4 2.2559723595316457e+00 0.0000000000000000e+00 1.0000000000000000e+00 1.6000000000000000e+01 1.0000000000000000e+01 2.5000000000000000e+00 
186 2 4 2.2559723595332586e+00 1.2987933320665138e-04 1.0000000000000000e+00 1.8000000000000000e+01 1.0000000000000000e+01 2.5000000000000000e+00 
7 2 4 2.2559723595316457e+00 0.0000000000000000e+00 1.0000000000000000e+00 0.0000000000000000e+00 1.2000000000000000e+01 2.5000000000000000e+00 
8 2 4 2.2559723595316457e+00 0.0000000000000000e+00 1.0000000000000000e+00 0.0000000000000000e+00 1.4000000000000000e+01 2.5000000000000000e+00 
27 2 4 2.2559723595316457e+00 0.0000000000000000e+00 1.0000000000000000e+00 2.0000000000000000e+00 1.2000000000000000e+01 2.5000000000000000e+00 
28 2 4 2.2559723595316457e+00 0.0000000000000000e+00 1.0000000000000000e+00 2.0000000000000000e+00 1.4000000000000000e+01 2.5000000000000000e+00 
47 2 4 2.2559723595316457e+00 0.0000000000000000e+00 1.0000000000000000e+00 4.0000000000000000e+00 1.2000000000000000e+01 2.5000000000000000e+00 
48 2 4 2.2559723595316457e+00 0.0000000000000000e+00 1.0000000000000000e+00 4.0000000000000000e+00 1.4000000000000000e+01 2.5000000000000000e+00 
67 2 4 2.2559723595316457e+00 0.0000000000000000e+00 1.0000000000000000e+00 6.0000000000000000e+00 1.2000000000000000e+01 2.5000000000000000e+00 
68 2 4 2.2559723595316457e+00 0.0000000000000000e+00 1.0000000000000000e+00 6.0000000000000000e+00 1.4000000000000000e+01 2.5000000000000000e+00 
87 2 4 2.2559723595316457e+00 0.0000000000000000e+00 1.0000000000000000e+00 8.0000000000000000e+00 1.2000000000000000e+01 2.5000000000000000e+00 
88 2 4 2.2559723595316457e+00 0.0000000000000000e+00 1.0000000000000000e+00 8.0000000000000000e+00 1.4000000000000000e+01 2.5000000000000000e+00 
107 2 4 2.2559723595316457e+00 0.0000000000000000e+00 1.0000000000000000e+00 1.0000000000000000e+01 1.2000000000000000e+01 2.5000000000000000e+00 
108 2 4 2.2559723595316457e+00 0.0000000000000000e+00 1.0000000000000000e+00 1.0000000000000000e+01 1.4000000000000000e+01 2.5000000000000000e+00 
127 2 4 2.2559723595316457e+00 0.0000000000000000e+00 1.0000000000000000e+00 1.2000000000000000e+01 1.2000000000000000e+01 2.5000000000000000e+00 
128 2 4 2.2559723595316457e+00 0.0000000000000000e+00 1.0000000000000000e+00 1.2000000000000000e+01 1.4000000000000000e+01 2.5000000000000000e+00 
147 2 4 2.2559723595316457e+00 0.0000000000000000e+00 1.0000000000000000e+00 1.4000000000000000e+01 1.2000000000000000e+01 2.5000000000000000e+00 
148 2 4 2.2559723595316457e+00 0.0000000000000000e+00 1.0000000000000000e+00 1.4000000000000000e+01 1.4000000000000000e+01 2.5000000000000000e+00 
167 2 4 2.2559723595316457e+00 0.0000000000000000e+00 1.0000000000000000e+00 1.6000000000000000e+01 1.2000000000000000e+01 2.5000000000000000e+00 
168 2 4 2.2559723595316457e+00 0.0000000000000000e+00 1.0000000000000000e+00 1.6000000000000000e+01 1.4000000000000000e+01 2.5000000000000000e+00 
187 2 4 2.2559723595316457e+00 2.8531860787199097e-03 1.0000000000000000e+00 1.8000000000000000e+01 1.2000000000000000e+01 2.5000000000000000e+00 
188 2 4 2.2559723595316457e+00 -1.7352910531096321e-03 1.0000000000000000e+00 1.8000000000000000e+01 1.4000000000000000e+01 2.5000000000000000e+00 
9 2 4 2.2559723595316457e+00 0.0000000000000000e+00 1.0000000000000000e+00 0.0000000000000000e+00 1.6000000000000000e+01 2.5000000000000000e+00 
29 2 4 2.2559723595316457e+00 0.0000000000000000e+00 1.0000000000000000e+00 2.0000000000000000e+00 1.6000000000000000e+01 2.5000000000000000e+00 
49 2 4 2.2559723595316457e+00 0.0000000000000000e+00 1.0000000000000000e+00 4.0000000000000000e+00 1.6000000000000000e+01 2.5000000000000000e+00 
69 2 4 2.2559723595316457e+00 0.0000000000000000e+00 1.0000000000000000e+00 6.0000000000000000e+00 1.6000000000000000e+01 2.5000000000000000e+00 
89 2 4 2.2559723595316457e+00 0.0000000000000000e+00 1.0000000000000000e+00 8.0000000000000000e+00 1.6000000000000000e+01 2.5000000000000000e+00 
109 2 4 2.2559723595316457e+00 0.0000000000000000e+00 1.0000000000000000e+00 1.0000000000000000e+01 1.6000000000000000e+01 2.5000000000000000e+00 
129 2 4 2.2559723595316457e+00 0.0000000000000000e+00 1.0000000000000000e+00 1.2000000000000000e+01 1.6000000000000000e+01 2.5000000000000000e+00 
149 2 4 2.2559723595316457e+00 0.0000000000000000e+00 1.0000000000000000e+00 1.4000000000000000e+01 1.6000000000000000e+01 2.5000000000000000e+00 
169 2 4 2.2559723595316457e+00 0.0000000000000000e+00 1.0000000000000000e+00 1.6000000000000000e+01 1.6000000000000000e+01 2.5000000000000000e+00 
189 2 4 2.2559723595316457e+00 8.0483579029679052e-04 1.0000000000000000e+00 1.8000000000000000e+01 1.6000000000000000e+01 2.5000000000000000e+00 
10 2 4 2.2559723595316457e+00 0.0000000000000000e+00 1.0000000000000000e+00 0.0000000000000000e+00 1.8000000000000000e+01 2.5000000000000000e+00 
30 2 4 2.2559723595316457e+00 0.0000000000000000e+00 1.0000000000000000e+00 2.0000000000000000e+00 1.8000000000000000e+01 2.5000000000000000e+00 
50 2 4 2.2559723595316457e+00 0.0000000000000000e+00 1.0000000000000000e+00 4.0000000000000000e+00 1.8000000000000000e+01 2.5000000000000000e+00 
70 2 4 2.2559723595316457e+00 0.0000000000000000e+00 1.0000000000000000e+00 6.0000000000000000e+00 1.8000000000000000e+01 2.5000000000000000e+00 
90 2 4 2.2559723595316457e+00 0.0000000000000000e+00 1.0000000000000000e+00 8.0000000000000000e+00 1.8000000000000000e+01 2.5000000000000000e+00 
110 2 4 2.2559723595316457e+00 0.0000000000000000e+00 1.0000000000000000e+00 1.0000000000000000e+01 1.8000000000000000e+01 2.5000000000000000e+00 
130 2 4 2.2559723595316457e+00 0.0000000000000000e+00 1.0000000000000000e+00 1.2000000000000000e+01 1.8000000000000000e+01 2.5000000000000000e+00 
150 2 4 2.2559723595316457e+00 0.0000000000000000e+00 1.0000000000000000e+00 1.4000000000000000e+01 1.8000000000000000e+01 2.5000000000000000e+00 
170 2 4 2.2559723595316457e+00 0.0000000000000000e+00 1.0000000000000000e+00 1.6000000000000000e+01 1.8000000000000000e+01 2.5000000000000000e+00 
190 2 4 2.2559723595316457e+00 -3.0857626189419595e-03 1.0000000000000000e+00 1.8000000000000000e+01 1.8000000000000000e+01 2.5000000000000000e+00 
1327 929 2 1.0280000877658444e+00 4.8079745475845783e+02 1.0000000000000000e+00 1.6196617796172376e+01 1.6458346923306888e+00 7.1814724605413582e+00 
1400 1002 2 1.0280000947282097e+00 1.0075015133985819e+03 1.0000000000000000e+00 1.6236471407458271e+01 1.6648357101484219e+00 7.1598443565807468e+00 
1091 693 2 1.0280001114903952e+00 2.0906569802815507e+03 1.0000000000000000e+00 1.6208915723279187e+01 1.6497503175707191e+00 7.1998787469588024e+00 
1639 1241 2 1.0280001165296333e+00 -2.4680325252407074e+03 1.0000000000000000e+00 1.6237127876152204e+01 1.6633920486427345e+00 7.1865517761134345e+00 
447 49 2 1.0280001290445744e+00 -1.3079504625512616e+03 1.0000000000000000e+00 1.6243059230998220e+01 1.6643998877969293e+00 7.1993422957296760e+00 
637 239 2 1.0280001314905214e+00 -2.9402815953025952e+03 1.0000000000000000e+00 1.6279090900306819e+01 1.6789548402510035e+00 7.1886624216467947e+00 
1755 1357 2 1.0279988924050238e+00 6.1631079218786172e+03 1.0000000000000000e+00 1.9092952958903339e+01 7.9462191283563177e-01 6.4079765760540344e+00 
1754 1356 2 1.0279988925499075e+00 6.1631072730116803e+03 1.0000000000000000e+00 1.9093082310461170e+01 7.9461851759274238e-01 6.4079416340275390e+00 
431 33 2 1.0280052480576152e+00 -5.8616291045553780e+03 1.0000000000000000e+00 1.8186213601346871e+01 1.0797398039727855e-01 6.4919496607026916e+00 
587 189 2 1.0279981401754914e+00 4.2799443543398975e+03 1.0000000000000000e+00 1.7695142666228179e+01 9.0149624539029671e-01 6.6023960364872538e+00 
1298 900 2 1.0280039270500181e+00 1.2602270449475620e+03 1.0000000000000000e+00 1.9760521423983775e+01 1.7514339026195730e-01 7.6569425028156681e+00 
1299 901 2 1.0279992478047768e+00 1.2565187740461217e+03 1.0000000000000000e+00 1.9799726880731299e+01 9.3353207082132905e-01 7.5023686361960236e+00 
641 243 2 1.0280014698059878e+00 -3.5410716731504349e+03 1.0000000000000000e+00 1.6887267524541368e+01 5.3420908405999654e+00 7.8222932619999845e+00 
766 368 2 1.0280003309693821e+00 -2.3816347014515036e+03 1.0000000000000000e+00 1.8999217559769708e+01 5.4064658673642176e+00 6.3256078311723600e+00 
1103 705 2 1.0280002455418797e+00 -3.1161354790726182e+03 1.0000000000000000e+00 1.8646184068200203e+01 5.3746657280052306e+00 6.3953206129654987e+00 
1769 1371 2 1.0280014756732920e+00 4.8419640263287465e+03 1.0000000000000000e+00 1.9327533901023553e+01 5.3612892752329007e+00 6.3885560145657863e+00 
767 369 2 1.0280003309693828e+00 -2.3816135699460415e+03 1.0000000000000000e+00 1.8999217559769324e+01 5.4064658673642114e+00 6.3256078311723796e+00 
1102 704 2 1.0279999664130164e+00 -3.1160946827143939e+03 1.0000000000000000e+00 1.8939205029689116e+01 5.3959434444602250e+00 6.3387555209276227e+00 
1364 966 2 1.0280032303121731e+00 -3.6579814329785922e+03 1.0000000000000000e+00 1.7589275266314193e+01 5.0893878145585010e+00 7.7507015440906351e+00 
1225 827 2 1.0280001964150556e+00 -2.7128856148691831e+01 1.0000000000000000e+00 1.6637611541063354e+01 7.2088888188161881e+00 7.0249299300085237e+00 
1078 680 2 1.0279990145842792e+00 1.8996874572159372e+03 1.0000000000000000e+00 1.6830755374764422e+01 7.2507042253558032e+00 6.5659176659949354e+00 
1725 1327 2 1.0279988989750561e+00 -2.2431257294675470e+03 1.0000000000000000e+00 1.6863720132722371e+01 7.1707077535269192e+00 6.5177324514218506e+00 
1728 1330 2 1.0279987825556141e+00 -2.2434350046716158e+03 1.0000000000000000e+00 1.7088899604074243e+01 8.1536635777639503e+00 6.3998856062134939e+00 
1772 1374 2 1.0280000082369389e+00 4.8419296706125324e+03 1.0000000000000000e+00 1.7184464848324147e+01 6.3244233166525454e+00 6.4009123268871955e+00 
1079 681 2 1.0279987486360145e+00 1.8991763599855992e+03 1.0000000000000000e+00 1.9146258636265454e+01 8.5312221849474064e+00 6.3727529481717395e+00 
1228 830 2 1.0279981376298466e+00 -2.7360546130302161e+01 1.0000000000000000e+00 1.9761040322828720e+01 7.8203942130801414e+00 6.8226494856505546e+00 
924 526 2 1.0280004811354910e+00 -1.6379249885690624e+02 1.0000000000000000e+00 1.8552683247296326e+01 8.3532235894878255e+00 7.9032813580329737e+00 
921 523 2 1.0280004952202417e+00 -1.6358239749754978e+02 1.0000000000000000e+00 1.8439345502773680e+01 8.3553499256515220e+00 7.9200766142224026e+00 
1331 933 2 1.0280005947324002e+00 3.1773192712309342e+03 1.0000000000000000e+00 1.9774362212446903e+01 7.4458823738281641e+00 8.0416707017286697e+00 
1330 932 2 1.0280007603642527e+00 3.1774277437884875e+03 1.0000000000000000e+00 1.8009032289794405e+01 7.6034771300886366e+00 8.2423562881074268e+00 
416 18 2 1.0279995210714201e+00 3.5300976916563350e+03 1.0000000000000000e+00 1.8825706059122719e+01 8.9807199402557973e+00 6.4872309191318749e+00 
413 15 2 1.0279996853496376e+00 3.5301849533115387e+03 1.0000000000000000e+00 1.7731707917399465e+01 9.0137352904726118e+00 6.5285618265980965e+00 
879 481 2 1.0279995551379826e+00 1.3542078780664062e+03 1.0000000000000000e+00 1.8539150096474721e+01 9.0191989692139121e+00 6.3399547704946206e+00 
878 480 2 1.0280083981530803e+00 1.3543184596531221e+03 1.0000000000000000e+00 1.8113316726979189e+01 9.0802914218474129e+00 6.3874368228675014e+00 
633 235 2 1.0280000066629882e+00 -8.4292458007697860e+02 1.0000000000000000e+00 1.7080629901932102e+01 1.3752877895049831e+01 8.2715148323832697e+00 
475 77 2 1.0280000160299279e+00 -3.3238972810816977e+03 1.0000000000000000e+00 1.7213492735534942e+01 1.4235744936078445e+01 8.0174822397242007e+00 
947 549 2 1.0280001512362520e+00 6.3193742121509842e+02 1.0000000000000000e+00 1.9300845862260147e+01 1.4945697316900791e+01 7.9370491405868728e+00 
409 11 2 1.0280001069449143e+00 2.5998558351081583e+03 1.0000000000000000e+00 1.8646274685983432e+01 1.4977891222543336e+01 7.9380587023636622e+00 
946 548 2 1.0280001080615873e+00 6.3153611334644415e+02 1.0000000000000000e+00 1.8541090581803118e+01 1.4988224118680467e+01 7.9436580771597498e+00 
412 14 2 1.0280002710586438e+00 2.6012485983253900e+03 1.0000000000000000e+00 1.9318915781190185e+01 1.5092550083323072e+01 8.0764932263279867e+00 
1376 978 2 1.0280065066419972e+00 -4.5897153893474724e+03 1.0000000000000000e+00 1.7881921617317175e+01 4.8812437761482714e+00 9.3643476979506577e+00 
1616 1218 2 1.0279997321170538e+00 -2.0648601952517322e+02 1.0000000000000000e+00 1.9033450992198969e+01 4.6116741703438704e+00 9.7922895564376109e+00 
1592 1194 2 1.0280016216665229e+00 -4.0528003575662621e+02 1.0000000000000000e+00 1.7920740452111531e+01 4.0289396448924295e+00 1.0916464368687155e+01 
1416 1018 2 1.0280011978639949e+00 -4.7714179024535673e+02 1.0000000000000000e+00 1.7953383778794684e+01 3.8826486911126330e+00 1.1039350399795042e+01 
1791 1393 2 1.0280009313613834e+00 -1.0473911055808815e+03 1.0000000000000000e+00 1.6536845050797773e+01 5.7267638862517325e+00 8.4017628730668168e+00 
1818 1420 2 1.0280005611610390e+00 5.9271289458795115e+02 1.0000000000000000e+00 1.6664064230552398e+01 6.0615871993681312e+00 8.8581634142654728e+00 
1074 676 2 1.0280005093156832e+00 -3.8211126786930040e+03 1.0000000000000000e+00 1.6714722276218900e+01 6.1242112549416232e+00 8.9086548773783747e+00 
1417 1019 2 1.0279992895335943e+00 1.5188205066336291e+03 1.0000000000000000e+00 1.8858531588457868e+01 5.7992168588032866e+00 1.0966235235567094e+01 
783 385 2 1.0280010925196328e+00 7.3103098827825261e+02 1.0000000000000000e+00 1.7237770691654067e+01 5.8284299521679372e+00 9.5690986172189803e+00 
1420 1022 2 1.0279993717243745e+00 1.5188154618885712e+03 1.0000000000000000e+00 1.9244906773806562e+01 5.8284222150086196e+00 1.0939042663473003e+01 
765 367 2 1.0280008366216848e+00 7.7730649607934413e+02 1.0000000000000000e+00 1.7259131527723632e+01 5.8772091488675526e+00 9.5531884236709690e+00 
1613 1215 2 1.0279999808277875e+00 -2.0644993701881054e+02 1.0000000000000000e+00 1.9869178163573118e+01 5.8764117915186969e+00 1.0161279080684597e+01 
1312 914 2 1.0279999902876285e+00 -3.8549307324850906e+03 1.0000000000000000e+00 1.7141872066184543e+01 1.3530136068216652e+01 8.5085277980645522e+00 
461 63 2 1.0279999809828211e+00 7.4426041095134724e+03 1.0000000000000000e+00 1.7102032456542364e+01 1.3583107022860712e+01 8.5397887373988350e+00 
477 79 2 1.0279999711091616e+00 1.0519892218935796e+04 1.0000000000000000e+00 1.7178437408626010e+01 1.3495746222329958e+01 8.6466980918403333e+00 
1448 1050 2 1.0279998904240937e+00 -7.9617075821603623e+02 1.0000000000000000e+00 1.9415455197472795e+01 1.3230859053112050e+01 8.9663132402021777e+00 
1445 1047 2 1.0279998972573281e+00 -7.9663208623286812e+02 1.0000000000000000e+00 1.8743661651712678e+01 1.3265139263140567e+01 8.9787766036217036e+00 
720 322 2 1.0279999012653556e+00 -4.8207109632414569e+02 1.0000000000000000e+00 1.7466375269331916e+01 1.3679607844718138e+01 9.1884099633151273e+00 
829 431 2 1.0280001895684110e+00 1.1913584801561353e+03 1.0000000000000000e+00 1.6897187075863329e+01 1.6788330249180326e+01 1.0076093652508886e+01 
1475 1077 2 1.0280003980127215e+00 3.0831435010210316e+03 1.0000000000000000e+00 1.7113729443630003e+01 1.6371234258079035e+01 9.9330816320402260e+00 
1157 759 2 1.0280003720412452e+00 -1.4251527672001303e+03 1.0000000000000000e+00 1.7225707708814241e+01 1.6243574875305868e+01 9.9824516911447585e+00 
819 421 2 1.0279998997234931e+00 -2.0141668331535809e+03 1.0000000000000000e+00 1.7571654599220466e+01 1.6167778928760050e+01 1.0264434167698516e+01 
2008 1610 2 1.0279998143211722e+00 1.1079243987693324e+04 1.0000000000000000e+00 1.7778260364056500e+01 1.6073720922359172e+01 1.0250197960526373e+01 
1137 739 2 1.0279983841973532e+00 -2.8929518194186403e+02 1.0000000000000000e+00 1.9248535672993320e+01 1.6900082577381610e+01 1.0849194722180529e+01 
1140 742 2 1.0279985354987335e+00 -2.8927467506517399e+02 1.0000000000000000e+00 1.8867568920537504e+01 1.6965604870382496e+01 1.0957338294504011e+01 
1669 1271 2 1.0280000968199110e+00 1.1913119621167784e+03 1.0000000000000000e+00 1.6881890528704112e+01 1.8650594493935301e+01 9.8868480873534921e+00 
971 573 2 1.0280003318784663e+00 3.0830537406579956e+03 1.0000000000000000e+00 1.7122152214636461e+01 1.9044461513910932e+01 9.6008307889907822e+00 
1484 1086 2 1.0280002691168111e+00 -3.5997498638844272e+03 1.0000000000000000e+00 1.7289503948883905e+01 1.7845048952531439e+01 9.0070829091414844e+00 
980 582 2 1.0280002523650758e+00 -3.5997842138578153e+03 1.0000000000000000e+00 1.7330465264374627e+01 1.7492679187420581e+01 9.0277829251448480e+00 
1325 927 2 1.0280002975596956e+00 -1.4252671658406678e+03 1.0000000000000000e+00 1.7244173685681943e+01 1.9166988966985105e+01 9.6855524124416217e+00 
1659 1261 2 1.0280002444177183e+00 -2.0143184150183847e+03 1.0000000000000000e+00 1.7575617650104164e+01 1.9240311472831390e+01 9.9691519676569271e+00 
496 98 2 1.0280002049010346e+00 1.1079030725314060e+04 1.0000000000000000e+00 1.7793963010626531e+01 1.9290047585807265e+01 9.9562924108657853e+00 
1305 907 2 1.0280006027788704e+00 -2.8943044695826057e+02 1.0000000000000000e+00 1.9190113149576664e+01 1.8292451000357204e+01 1.0436789039323953e+01 
1308 910 2 1.0280009354176214e+00 -2.8943144437009846e+02 1.0000000000000000e+00 1.8801285242834112e+01 1.8427558467876406e+01 1.0536704174248715e+01 
1482 1084 2 1.0279994364825158e+00 6.7275245145026395e+02 1.0000000000000000e+00 1.9216306811012867e+01 1.6747529160094234e+00 1.1944618068631732e+01 
741 343 2 1.0279990733336450e+00 1.3259807911880239e+03 1.0000000000000000e+00 1.8671073914401877e+01 1.7107817104500291e+00 1.2081401778235502e+01 
1483 1085 2 1.0279990474516356e+00 6.7172697712459751e+02 1.0000000000000000e+00 1.8650147835243288e+01 1.6991380090697095e+00 1.2106992435002503e+01 
1121 723 2 1.0279992784234668e+00 -2.7408910395016455e+03 1.0000000000000000e+00 1.9822050243859241e+01 1.1876452647040123e+00 1.2624577869573903e+01 
1124 726 2 1.0279982987537704e+00 -2.7415357107012701e+03 1.0000000000000000e+00 1.8387808814029036e+01 1.0911108307939070e+00 1.2886299458289637e+01 
1571 1173 2 1.0279988437605017e+00 4.0231523537233016e+02 1.0000000000000000e+00 1.9664330828002623e+01 2.7802775023295329e-02 1.1925602208558264e+01 
452 54 2 1.0280011191793452e+00 8.7477695290024967e+03 1.0000000000000000e+00 1.7777047007613326e+01 3.9886449679302731e+00 1.1675284304867489e+01 
1771 1373 2 1.0280010027929449e+00 -4.4120232793428486e+03 1.0000000000000000e+00 1.7771729104039604e+01 4.0315649734059535e+00 1.1828521907331588e+01 
1050 652 2 1.0280007455856328e+00 1.2329742865998992e+03 1.0000000000000000e+00 1.9225648984095002e+01 5.2816348653890701e+00 1.2481518060009623e+01 
1051 653 2 1.0280007208283453e+00 1.2328881395938154e+03 1.0000000000000000e+00 1.9087565175788566e+01 5.2794941770288268e+00 1.2487031285213703e+01 
501 103 2 1.0280003683246333e+00 9.1657612284346396e+03 1.0000000000000000e+00 1.8375064528752450e+01 4.1653936103226696e+00 1.3322795297307913e+01 
1264 866 2 1.0279999855185218e+00 -3.5175936071753522e+03 1.0000000000000000e+00 1.8226461505357886e+01 3.0430468550391798e+00 1.3406708070897739e+01 
1717 1319 2 1.0280007200996046e+00 -1.7688007103698550e+02 1.0000000000000000e+00 1.9551366053556848e+01 3.8479996617409751e+00 1.3790678089017332e+01 
1720 1322 2 1.0280005008600117e+00 -1.7676988963405782e+02 1.0000000000000000e+00 1.8852979731382273e+01 3.8004859267836202e+00 1.3824262063804987e+01 
1512 1114 2 1.0279999273888738e+00 -6.5235693941431782e+03 1.0000000000000000e+00 1.8782694830130463e+01 1.7119473459178721e+01 1.3731509293366093e+01 
1509 1111 2 1.0279999355592417e+00 -6.5239539550122263e+03 1.0000000000000000e+00 1.8639081347839888e+01 1.7117846809240895e+01 1.3738493171258153e+01 
816 418 2 1.0279988445847879e+00 1.4408427029593552e+03 1.0000000000000000e+00 1.8503272476357473e+01 1.7655814240845611e+01 1.3018243827737249e+01 
813 415 2 1.0279989060204262e+00 1.4407553217078103e+03 1.0000000000000000e+00 1.8685231459800498e+01 1.7743759548342389e+01 1.2958605732592082e+01 
942 544 2 1.0280004537299985e+00 1.4137240225169671e+03 1.0000000000000000e+00 1.9692903812184042e+01 1.8257189676840628e+00 1.4338377975235369e+01 
943 545 2 1.0280080271218965e+00 1.4131380030766543e+03 1.0000000000000000e+00 1.9322267958557457e+01 1.9100143976335668e+00 1.4769012374865873e+01 
968 570 2 1.0279957111220845e+00 -5.3868393624000209e+03 1.0000000000000000e+00 1.8969350332182266e+01 7.7157594090307913e-01 1.5463479703714320e+01 
1834 1436 2 1.0280138284880762e+00 2.2184248917007299e+03 1.0000000000000000e+00 1.9410954221987900e+01 1.5367314804880421e+00 1.5517424496845337e+01 
965 567 2 1.0280011761090462e+00 -5.3873669752441929e+03 1.0000000000000000e+00 1.9131127163118268e+01 6.9518675221327597e-01 1.5658951808527885e+01 
1835 1437 2 1.0280044105308817e+00 2.2174194095068519e+03 1.0000000000000000e+00 1.8708161000782358e+01 1.4012543112670015e+00 1.6313167810950766e+01 
1261 863 2 1.0280011957196202e+00 -3.5186558527611787e+03 1.0000000000000000e+00 1.9711052200935526e+01 3.3000370025488355e+00 1.3919786548350556e+01 