LAMMPS data file via write_data, version 30 Jul 2016, timestep = 600000

2080 atoms
8 atom types

0.0000000000000000e+00 4.0000000000000000e+01 xlo xhi
0.0000000000000000e+00 4.0000000000000000e+01 ylo yhi
0.0000000000000000e+00 1.0000000000000000e+02 zlo zhi

Masses

1 3.896
2 4.306
3 20.064
4 8.378
5 8.378
6 8.378
7 8.378
8 8.378

Atoms # meso-molecular

1 2 4 2.2559723595316457e+00 0.0000000000000000e+00 1.0000000000000000e+00 0.0000000000000000e+00 0.0000000000000000e+00 2.5000000000000000e+00 
2 2 4 2.2559723595316457e+00 0.0000000000000000e+00 1.0000000000000000e+00 0.0000000000000000e+00 2.0000000000000000e+00 2.5000000000000000e+00 
3 2 4 2.2559723595316457e+00 0.0000000000000000e+00 1.0000000000000000e+00 0.0000000000000000e+00 4.0000000000000000e+00 2.5000000000000000e+00 
4 2 4 2.2559723595316457e+00 0.0000000000000000e+00 1.0000000000000000e+00 0.0000000000000000e+00 6.0000000000000000e+00 2.5000000000000000e+00 
5 2 4 2.2559723595316457e+00 1.7538517643518494e-07 1.0000000000000000e+00 0.0000000000000000e+00 8.0000000000000000e+00 2.5000000000000000e+00 
6 2 4 2.2559723595316457e+00 -4.6366179215604292e-02 1.0000000000000000e+00 0.0000000000000000e+00 1.0000000000000000e+01 2.5000000000000000e+00 
7 2 4 2.2559723595316457e+00 -3.6444580360294226e-01 1.0000000000000000e+00 0.0000000000000000e+00 1.2000000000000000e+01 2.5000000000000000e+00 
8 2 4 2.2559723595316457e+00 -9.7032998169490126e-01 1.0000000000000000e+00 0.0000000000000000e+00 1.4000000000000000e+01 2.5000000000000000e+00 
9 2 4 2.2559723595316457e+00 -1.6578623811273892e+00 1.0000000000000000e+00 0.0000000000000000e+00 1.6000000000000000e+01 2.5000000000000000e+00 
10 2 4 2.2559723595316457e+00 -2.2241035678507957e+00 1.0000000000000000e+00 0.0000000000000000e+00 1.8000000000000000e+01 2.5000000000000000e+00 
21 2 4 2.2559723595316457e+00 0.0000000000000000e+00 1.0000000000000000e+00 2.0000000000000000e+00 0.0000000000000000e+00 2.5000000000000000e+00 
22 2 4 2.2559723595316457e+00 0.0000000000000000e+00 1.0000000000000000e+00 2.0000000000000000e+00 2.0000000000000000e+00 2.5000000000000000e+00 
23 2 4 2.2559723595316457e+00 -5.5460124604563834e-04 1.0000000000000000e+00 2.0000000000000000e+00 4.0000000000000000e+00 2.5000000000000000e+00 
24 2 4 2.2559723595316457e+00 -1.4347985621056894e-01 1.0000000000000000e+00 2.0000000000000000e+00 6.0000000000000000e+00 2.5000000000000000e+00 
25 2 4 2.2559723595316457e+00 -7.0070207419516484e-01 1.0000000000000000e+00 2.0000000000000000e+00 8.0000000000000000e+00 2.5000000000000000e+00 
26 2 4 2.2559723595316457e+00 -1.9727006609496327e+00 1.0000000000000000e+00 2.0000000000000000e+00 1.0000000000000000e+01 2.5000000000000000e+00 
27 2 4 2.2559723595316457e+00 -4.0396775381008210e+00 1.0000000000000000e+00 2.0000000000000000e+00 1.2000000000000000e+01 2.5000000000000000e+00 
28 2 4 2.2559723595316457e+00 -6.9707999052198568e+00 1.0000000000000000e+00 2.0000000000000000e+00 1.4000000000000000e+01 2.5000000000000000e+00 
29 2 4 2.2559723595316457e+00 -1.0759209450223537e+01 1.0000000000000000e+00 2.0000000000000000e+00 1.6000000000000000e+01 2.5000000000000000e+00 
30 2 4 2.2559723595316457e+00 -1.3553678977971762e+01 1.0000000000000000e+00 2.0000000000000000e+00 1.8000000000000000e+01 2.5000000000000000e+00 
41 2 4 2.2559723595316457e+00 0.0000000000000000e+00 1.0000000000000000e+00 4.0000000000000000e+00 0.0000000000000000e+00 2.5000000000000000e+00 
42 2 4 2.2559723595316457e+00 -2.3121727007002790e-01 1.0000000000000000e+00 4.0000000000000000e+00 2.0000000000000000e+00 2.5000000000000000e+00 
43 2 4 2.2559723595316457e+00 -2.5464126421836442e+00 1.0000000000000000e+00 4.0000000000000000e+00 4.0000000000000000e+00 2.5000000000000000e+00 
44 2 4 2.2559723595316457e+00 -9.6333699378826640e+00 1.0000000000000000e+00 4.0000000000000000e+00 6.0000000000000000e+00 2.5000000000000000e+00 
45 2 4 2.2559723595316457e+00 -2.2939715479435286e+01 1.0000000000000000e+00 4.0000000000000000e+00 8.0000000000000000e+00 2.5000000000000000e+00 
46 2 4 2.2559723595316457e+00 -4.1917201924104972e+01 1.0000000000000000e+00 4.0000000000000000e+00 1.0000000000000000e+01 2.5000000000000000e+00 
47 2 4 2.2559723595316457e+00 -6.3268095304021088e+01 1.0000000000000000e+00 4.0000000000000000e+00 1.2000000000000000e+01 2.5000000000000000e+00 
48 2 4 2.2559723595316457e+00 -8.3553122559168216e+01 1.0000000000000000e+00 4.0000000000000000e+00 1.4000000000000000e+01 2.5000000000000000e+00 
49 2 4 2.2559723595316457e+00 -9.9040325724080930e+01 1.0000000000000000e+00 4.0000000000000000e+00 1.6000000000000000e+01 2.5000000000000000e+00 
50 2 4 2.2559723595316457e+00 -1.0712446478044133e+02 1.0000000000000000e+00 4.0000000000000000e+00 1.8000000000000000e+01 2.5000000000000000e+00 
61 2 4 2.2559723595316457e+00 -5.1789747767648464e-01 1.0000000000000000e+00 6.0000000000000000e+00 0.0000000000000000e+00 2.5000000000000000e+00 
62 2 4 2.2559723595316457e+00 -6.2839790441164158e+00 1.0000000000000000e+00 6.0000000000000000e+00 2.0000000000000000e+00 2.5000000000000000e+00 
63 2 4 2.2559723595316457e+00 -2.7652874371101952e+01 1.0000000000000000e+00 6.0000000000000000e+00 4.0000000000000000e+00 2.5000000000000000e+00 
64 2 4 2.2559723595316457e+00 -7.4989911922065289e+01 1.0000000000000000e+00 6.0000000000000000e+00 6.0000000000000000e+00 2.5000000000000000e+00 
65 2 4 2.2559723595316457e+00 -1.5220802069484915e+02 1.0000000000000000e+00 6.0000000000000000e+00 8.0000000000000000e+00 2.5000000000000000e+00 
66 2 4 2.2559723595316457e+00 -2.5213318621902795e+02 1.0000000000000000e+00 6.0000000000000000e+00 1.0000000000000000e+01 2.5000000000000000e+00 
67 2 4 2.2559723595316457e+00 -3.5822652746805318e+02 1.0000000000000000e+00 6.0000000000000000e+00 1.2000000000000000e+01 2.5000000000000000e+00 
68 2 4 2.2559723595316457e+00 -4.5199436386919018e+02 1.0000000000000000e+00 6.0000000000000000e+00 1.4000000000000000e+01 2.5000000000000000e+00 
69 2 4 2.2559723595316457e+00 -5.1789926972663523e+02 1.0000000000000000e+00 6.0000000000000000e+00 1.6000000000000000e+01 2.5000000000000000e+00 
70 2 4 2.2559723595316457e+00 -5.5044670220896955e+02 1.0000000000000000e+00 6.0000000000000000e+00 1.8000000000000000e+01 2.5000000000000000e+00 
81 2 4 2.2559723595316457e+00 -6.4901407873011543e+00 1.0000000000000000e+00 8.0000000000000000e+00 0.0000000000000000e+00 2.5000000000000000e+00 
82 2 4 2.2559723595316457e+00 -3.7210657495290882e+01 1.0000000000000000e+00 8.0000000000000000e+00 2.0000000000000000e+00 2.5000000000000000e+00 
83 2 4 2.2559723595316457e+00 -1.2333430750727442e+02 1.0000000000000000e+00 8.0000000000000000e+00 4.0000000000000000e+00 2.5000000000000000e+00 
84 2 4 2.2559723595316457e+00 -2.8953726991621988e+02 1.0000000000000000e+00 8.0000000000000000e+00 6.0000000000000000e+00 2.5000000000000000e+00 
85 2 4 2.2559723595316457e+00 -5.4133126203703068e+02 1.0000000000000000e+00 8.0000000000000000e+00 8.0000000000000000e+00 2.5000000000000000e+00 
86 2 4 2.2559723595316457e+00 -8.5939056807823340e+02 1.0000000000000000e+00 8.0000000000000000e+00 1.0000000000000000e+01 2.5000000000000000e+00 
87 2 4 2.2559723595316457e+00 -1.2005137673751276e+03 1.0000000000000000e+00 8.0000000000000000e+00 1.2000000000000000e+01 2.5000000000000000e+00 
88 2 4 2.2559723595316457e+00 -1.5073306975378869e+03 1.0000000000000000e+00 8.0000000000000000e+00 1.4000000000000000e+01 2.5000000000000000e+00 
89 2 4 2.2559723595316457e+00 -1.7296506186553947e+03 1.0000000000000000e+00 8.0000000000000000e+00 1.6000000000000000e+01 2.5000000000000000e+00 
90 2 4 2.2559723595316457e+00 -1.8421751708952197e+03 1.0000000000000000e+00 8.0000000000000000e+00 1.8000000000000000e+01 2.5000000000000000e+00 
101 2 4 2.2559723595316457e+00 -2.9745555147105982e+01 1.0000000000000000e+00 1.0000000000000000e+01 0.0000000000000000e+00 2.5000000000000000e+00 
102 2 4 2.2559723595316457e+00 -1.2165863215626831e+02 1.0000000000000000e+00 1.0000000000000000e+01 2.0000000000000000e+00 2.5000000000000000e+00 
103 2 4 2.2559723595316457e+00 -3.4915719441194165e+02 1.0000000000000000e+00 1.0000000000000000e+01 4.0000000000000000e+00 2.5000000000000000e+00 
104 2 4 2.2559723595316457e+00 -7.5793681152206591e+02 1.0000000000000000e+00 1.0000000000000000e+01 6.0000000000000000e+00 2.5000000000000000e+00 
105 2 4 2.2559723595316457e+00 -1.3638686968010804e+03 1.0000000000000000e+00 1.0000000000000000e+01 8.0000000000000000e+00 2.5000000000000000e+00 
106 2 4 2.2559723595316457e+00 -2.1260289670529332e+03 1.0000000000000000e+00 1.0000000000000000e+01 1.0000000000000000e+01 2.5000000000000000e+00 
107 2 4 2.2559723595316457e+00 -2.9483887725683612e+03 1.0000000000000000e+00 1.0000000000000000e+01 1.2000000000000000e+01 2.5000000000000000e+00 
108 2 4 2.2559723595316457e+00 -3.7001345002384151e+03 1.0000000000000000e+00 1.0000000000000000e+01 1.4000000000000000e+01 2.5000000000000000e+00 
109 2 4 2.2559723595316457e+00 -4.2588185733498804e+03 1.0000000000000000e+00 1.0000000000000000e+01 1.6000000000000000e+01 2.5000000000000000e+00 
110 2 4 2.2559723595316457e+00 -4.5526284550230757e+03 1.0000000000000000e+00 1.0000000000000000e+01 1.8000000000000000e+01 2.5000000000000000e+00 
121 2 4 2.2559723595316457e+00 -8.1934469191489569e+01 1.0000000000000000e+00 1.2000000000000000e+01 0.0000000000000000e+00 2.5000000000000000e+00 
122 2 4 2.2559723595316457e+00 -2.7892010148667106e+02 1.0000000000000000e+00 1.2000000000000000e+01 2.0000000000000000e+00 2.5000000000000000e+00 
123 2 4 2.2559723595316457e+00 -7.3805621659553549e+02 1.0000000000000000e+00 1.2000000000000000e+01 4.0000000000000000e+00 2.5000000000000000e+00 
124 2 4 2.2559723595316457e+00 -1.5388117462700852e+03 1.0000000000000000e+00 1.2000000000000000e+01 6.0000000000000000e+00 2.5000000000000000e+00 
125 2 4 2.2559723595316457e+00 -2.7060881505147358e+03 1.0000000000000000e+00 1.2000000000000000e+01 8.0000000000000000e+00 2.5000000000000000e+00 
126 2 4 2.2559723595316457e+00 -4.1681120299607182e+03 1.0000000000000000e+00 1.2000000000000000e+01 1.0000000000000000e+01 2.5000000000000000e+00 
127 2 4 2.2559723595316457e+00 -5.7515081964789761e+03 1.0000000000000000e+00 1.2000000000000000e+01 1.2000000000000000e+01 2.5000000000000000e+00 
128 2 4 2.2559723595316457e+00 -7.2088872259346135e+03 1.0000000000000000e+00 1.2000000000000000e+01 1.4000000000000000e+01 2.5000000000000000e+00 
129 2 4 2.2559723595316457e+00 -8.3091814755229425e+03 1.0000000000000000e+00 1.2000000000000000e+01 1.6000000000000000e+01 2.5000000000000000e+00 
130 2 4 2.2559723595316457e+00 -8.8982829137225217e+03 1.0000000000000000e+00 1.2000000000000000e+01 1.8000000000000000e+01 2.5000000000000000e+00 
141 2 4 2.2559723595316457e+00 -1.6243707258129112e+02 1.0000000000000000e+00 1.4000000000000000e+01 0.0000000000000000e+00 2.5000000000000000e+00 
142 2 4 2.2559723595316457e+00 -4.9599953806504777e+02 1.0000000000000000e+00 1.4000000000000000e+01 2.0000000000000000e+00 2.5000000000000000e+00 
143 2 4 2.2559723595316457e+00 -1.2530458882712876e+03 1.0000000000000000e+00 1.4000000000000000e+01 4.0000000000000000e+00 2.5000000000000000e+00 
144 2 4 2.2559723595316457e+00 -2.5457065052833777e+03 1.0000000000000000e+00 1.4000000000000000e+01 6.0000000000000000e+00 2.5000000000000000e+00 
145 2 4 2.2559723595316457e+00 -4.4087621308317403e+03 1.0000000000000000e+00 1.4000000000000000e+01 8.0000000000000000e+00 2.5000000000000000e+00 
146 2 4 2.2559723595316457e+00 -6.7431692169869339e+03 1.0000000000000000e+00 1.4000000000000000e+01 1.0000000000000000e+01 2.5000000000000000e+00 
147 2 4 2.2559723595316457e+00 -9.2758181478134684e+03 1.0000000000000000e+00 1.4000000000000000e+01 1.2000000000000000e+01 2.5000000000000000e+00 
148 2 4 2.2559723595316457e+00 -1.1616985535162714e+04 1.0000000000000000e+00 1.4000000000000000e+01 1.4000000000000000e+01 2.5000000000000000e+00 
149 2 4 2.2559723595316457e+00 -1.3401617820822274e+04 1.0000000000000000e+00 1.4000000000000000e+01 1.6000000000000000e+01 2.5000000000000000e+00 
150 2 4 2.2559723595316457e+00 -1.4367586238185710e+04 1.0000000000000000e+00 1.4000000000000000e+01 1.8000000000000000e+01 2.5000000000000000e+00 
161 2 4 2.2559723595316457e+00 -2.4974710487143722e+02 1.0000000000000000e+00 1.6000000000000000e+01 0.0000000000000000e+00 2.5000000000000000e+00 
162 2 4 2.2559723595316457e+00 -7.1602610636952909e+02 1.0000000000000000e+00 1.6000000000000000e+01 2.0000000000000000e+00 2.5000000000000000e+00 
163 2 4 2.2559723595316457e+00 -1.7605886168446623e+03 1.0000000000000000e+00 1.6000000000000000e+01 4.0000000000000000e+00 2.5000000000000000e+00 
164 2 4 2.2559723595316457e+00 -3.5184200200397481e+03 1.0000000000000000e+00 1.6000000000000000e+01 6.0000000000000000e+00 2.5000000000000000e+00 
165 2 4 2.2559723595316457e+00 -6.0415669296438118e+03 1.0000000000000000e+00 1.6000000000000000e+01 8.0000000000000000e+00 2.5000000000000000e+00 
166 2 4 2.2559723595316457e+00 -9.2069850889891914e+03 1.0000000000000000e+00 1.6000000000000000e+01 1.0000000000000000e+01 2.5000000000000000e+00 
167 2 4 2.2559723595316457e+00 -1.2645764839226658e+04 1.0000000000000000e+00 1.6000000000000000e+01 1.2000000000000000e+01 2.5000000000000000e+00 
168 2 4 2.2559723595316457e+00 -1.5834320343036688e+04 1.0000000000000000e+00 1.6000000000000000e+01 1.4000000000000000e+01 2.5000000000000000e+00 
169 2 4 2.2559723595316457e+00 -1.8275872538785421e+04 1.0000000000000000e+00 1.6000000000000000e+01 1.6000000000000000e+01 2.5000000000000000e+00 
170 2 4 2.2559723595316457e+00 -1.9603763157831854e+04 1.0000000000000000e+00 1.6000000000000000e+01 1.8000000000000000e+01 2.5000000000000000e+00 
181 2 4 2.2559723595316457e+00 -3.0750576093592133e+02 1.0000000000000000e+00 1.8000000000000000e+01 0.0000000000000000e+00 2.5000000000000000e+00 
182 2 4 2.2559723595316457e+00 -8.5670261898499587e+02 1.0000000000000000e+00 1.8000000000000000e+01 2.0000000000000000e+00 2.5000000000000000e+00 
183 2 4 2.2559723595316457e+00 -2.0792852330538562e+03 1.0000000000000000e+00 1.8000000000000000e+01 4.0000000000000000e+00 2.5000000000000000e+00 
184 2 4 2.2559723595316457e+00 -4.1219862850646514e+03 1.0000000000000000e+00 1.8000000000000000e+01 6.0000000000000000e+00 2.5000000000000000e+00 
185 2 4 2.2559723595316457e+00 -7.0534001985975610e+03 1.0000000000000000e+00 1.8000000000000000e+01 8.0000000000000000e+00 2.5000000000000000e+00 
186 2 4 2.2559723595316457e+00 -1.0731288916386908e+04 1.0000000000000000e+00 1.8000000000000000e+01 1.0000000000000000e+01 2.5000000000000000e+00 
187 2 4 2.2559723595316457e+00 -1.4732909407298266e+04 1.0000000000000000e+00 1.8000000000000000e+01 1.2000000000000000e+01 2.5000000000000000e+00 
188 2 4 2.2559723595316457e+00 -1.8448173016976671e+04 1.0000000000000000e+00 1.8000000000000000e+01 1.4000000000000000e+01 2.5000000000000000e+00 
189 2 4 2.2559723595316457e+00 -2.1296629955874938e+04 1.0000000000000000e+00 1.8000000000000000e+01 1.6000000000000000e+01 2.5000000000000000e+00 
190 2 4 2.2559723595316457e+00 -2.2847735712704485e+04 1.0000000000000000e+00 1.8000000000000000e+01 1.8000000000000000e+01 2.5000000000000000e+00 
759 361 2 1.0391306542988812e+00 -4.1542732482264191e+03 1.0000000000000000e+00 1.5018726714147515e+01 1.7302531534370001e+01 2.2029867878689927e+01 
1609 1211 2 1.0368119511364391e+00 6.1728247910664522e+03 1.0000000000000000e+00 1.5597012935665266e+01 1.5426836559819590e+01 2.1914185722311707e+01 
1325 927 2 1.0248191852073709e+00 6.0195835192003151e+03 1.0000000000000000e+00 1.6883045314709534e+01 1.3917318699138013e+01 2.2161276252765170e+01 
1803 1405 2 1.0419982714587519e+00 8.0292004086956349e+03 1.0000000000000000e+00 1.8435787854795628e+01 1.5516198329335483e+01 2.0190157582810659e+01 
765 367 2 1.0353033127407525e+00 9.1025199636197812e+01 1.0000000000000000e+00 1.6480594249651382e+01 1.9540869601048950e+01 2.1085819599990341e+01 
522 124 2 1.0287235130451728e+00 -1.0608199958808033e+04 1.0000000000000000e+00 1.6099105271621781e+01 1.9163814302733879e+01 2.1077058952734237e+01 
964 566 2 1.0204313637466009e+00 1.1238420616255999e+04 1.0000000000000000e+00 1.6325637768414261e+01 1.8468978834785450e+01 2.0470288189765657e+01 
1232 834 2 1.0190565805548737e+00 5.9800233723079664e+03 1.0000000000000000e+00 1.4944891989172060e+01 1.7517717527423660e+01 2.1830950815584153e+01 
1918 1520 2 1.0172085727524089e+00 2.5955590716667379e+04 1.0000000000000000e+00 1.6642889534331868e+01 1.6309596963969700e+01 2.0199484142213368e+01 
1273 875 2 1.0169425054971273e+00 1.3259052736663773e+04 1.0000000000000000e+00 1.6458501829918291e+01 1.4825860654584540e+01 2.1170552389507005e+01 
864 466 2 1.0225250443116225e+00 1.7055462580364601e+04 1.0000000000000000e+00 1.6842670616159207e+01 1.8722948097417074e+01 2.0262155189183300e+01 
415 17 2 1.0259608432691807e+00 -1.0757380118650319e+04 1.0000000000000000e+00 1.7288861174560367e+01 1.9760426012225082e+01 2.0650538089728549e+01 
1714 1316 2 1.0225632997104190e+00 1.1496378012643463e+04 1.0000000000000000e+00 1.7686020525317545e+01 1.4116139425138375e+01 2.1272291782815518e+01 
874 476 2 1.0263318798195828e+00 1.1521179679836679e+04 1.0000000000000000e+00 1.8756637595358608e+01 1.4279128332889140e+01 2.0965623150987298e+01 
768 370 2 1.0237887966094656e+00 8.5993638610410258e+01 1.0000000000000000e+00 1.5774361578792909e+01 1.7827493830017787e+01 2.0812416070009654e+01 
2034 1636 2 1.0259101408113798e+00 -1.0616729993931527e+04 1.0000000000000000e+00 1.5071728145428324e+01 1.7006176274028650e+01 2.1737386695128198e+01 
1387 989 2 1.0278460170416637e+00 7.4902909841189839e+01 1.0000000000000000e+00 1.6909714449303415e+01 1.4108864831755767e+01 2.1840189642242834e+01 
708 310 2 1.0251660844766122e+00 6.5913523510703562e+03 1.0000000000000000e+00 1.6086261411791845e+01 1.5520762697059849e+01 2.1055862025536648e+01 
628 230 2 1.0285554789620759e+00 4.5556364012462682e+03 1.0000000000000000e+00 1.7812041085121116e+01 1.3665114583481376e+01 2.2044445071601352e+01 
623 225 2 1.0325809493053353e+00 7.0587385133840744e+03 1.0000000000000000e+00 1.8196713552269067e+01 1.4168722863310647e+01 2.1201577479202992e+01 
591 193 2 1.0305167885179942e+00 -5.6328404828489029e+03 1.0000000000000000e+00 1.6516621868700845e+01 1.4894601183980226e+01 2.1236514528175672e+01 
954 556 2 1.0222056367442380e+00 1.3900109925261317e+04 1.0000000000000000e+00 1.6802281376202817e+01 1.9597246753445305e+01 2.0749729703706972e+01 
1386 988 2 1.0290769483234747e+00 7.3086429267706663e+01 1.0000000000000000e+00 1.9867647538423014e+01 1.4086206553641642e+01 2.1561434073196647e+01 
1253 855 2 1.0231815377417364e+00 4.7343984074255704e+03 1.0000000000000000e+00 1.6278258169107712e+01 1.4894350656680432e+01 2.1356939537840699e+01 
890 492 2 1.0238785496879941e+00 1.3370023358276248e+03 1.0000000000000000e+00 1.9233037634365097e+01 1.4203878143939349e+01 2.1088771336391524e+01 
570 172 2 1.0289333411619876e+00 8.7067574313668538e+03 1.0000000000000000e+00 1.7079820792601769e+01 1.8311310022645348e+01 2.0077565055929984e+01 
1274 876 2 1.0318230149052237e+00 1.1644761736214012e+04 1.0000000000000000e+00 1.9518268161972244e+01 1.5953812029648157e+01 2.0015518235268505e+01 
891 493 2 1.0202173621038415e+00 1.3442565344129428e+03 1.0000000000000000e+00 1.7750911161483003e+01 1.3855435687289544e+01 2.1584034733820214e+01 
1255 857 2 1.0361849341907730e+00 -1.3598634629381838e+03 1.0000000000000000e+00 1.6473750996188805e+01 1.5823157551659197e+01 2.0688546347707884e+01 
1529 1131 2 1.0397569754473737e+00 -2.7018871422836760e+03 1.0000000000000000e+00 1.7046698236220941e+01 1.4926002944316751e+01 2.0948690671846670e+01 
1894 1496 2 1.0302444264791437e+00 -8.9225883490265405e+03 1.0000000000000000e+00 1.5528351396758351e+01 1.7169965539667096e+01 2.1122275279780151e+01 
605 207 2 1.0332137794633209e+00 4.3029385598767403e+03 1.0000000000000000e+00 1.6379262944046584e+01 1.7347651984445971e+01 2.0374791220641452e+01 
608 210 2 1.0356782516180463e+00 4.3066642291209600e+03 1.0000000000000000e+00 1.9430210804360208e+01 1.6478125004378636e+01 1.9875260822388540e+01 
1745 1347 2 1.0297147942261689e+00 1.6123432503125700e+03 1.0000000000000000e+00 1.5859354172607565e+01 1.5776093761788067e+01 2.1188091495079728e+01 
1279 881 2 1.0320755748509027e+00 1.1151954525046154e+04 1.0000000000000000e+00 1.7534538218560684e+01 1.4482402276837400e+01 2.1032548569217081e+01 
1600 1202 2 1.0215499869771314e+00 -1.9025993983486649e+03 1.0000000000000000e+00 1.5149134596926057e+01 1.8338865095138633e+01 2.1726293922353197e+01 
1466 1068 2 1.0188361690883898e+00 1.3556280643020829e+04 1.0000000000000000e+00 1.7603790701452560e+01 1.3722217208987017e+01 2.1858584244024115e+01 
772 374 2 1.0249424774853040e+00 6.2001556935062399e+03 1.0000000000000000e+00 1.4943722610475293e+01 1.6455405074376234e+01 2.2150605618482174e+01 
771 373 2 1.0290622295744820e+00 9.1636164491490945e+03 1.0000000000000000e+00 1.6117482872025764e+01 1.7609277424000901e+01 2.0537679807545775e+01 
1180 782 2 1.0396542255416634e+00 -2.4337678741178306e+03 1.0000000000000000e+00 1.6918380571571163e+01 1.9447175832613539e+01 2.0767489505841031e+01 
1922 1524 2 1.0316100445708456e+00 -1.9262389030520884e+04 1.0000000000000000e+00 1.9943236601072602e+01 1.9760780975268613e+01 2.0662122269676505e+01 
1784 1386 2 1.0332688011710134e+00 4.3029576102957317e+03 1.0000000000000000e+00 1.8622095697475974e+01 1.8973685091055227e+01 2.0004101776960752e+01 
1605 1207 2 1.0158756248580236e+00 9.1399981273657801e+01 1.0000000000000000e+00 1.5710712734073351e+01 1.4983279274634222e+01 2.1852733226182522e+01 
1300 902 2 1.0211667705950747e+00 -1.4914767725582792e+03 1.0000000000000000e+00 1.7596478591909207e+01 1.9718624670341040e+01 2.0454314221057363e+01 
1599 1201 2 1.0406453274183716e+00 -4.1425766418297635e+03 1.0000000000000000e+00 1.6438449796188095e+01 1.5251636880901540e+01 2.1125929997408921e+01 
1923 1525 2 1.0349279171917436e+00 -1.9272684190578850e+04 1.0000000000000000e+00 1.5871615637837397e+01 1.7827087346414118e+01 2.0844265127395929e+01 
2078 1680 2 1.0220865522820362e+00 -2.0953104839310847e+04 1.0000000000000000e+00 1.5437656079978710e+01 1.6428415065572700e+01 2.1282498445473141e+01 
1059 661 2 1.0365124601439477e+00 6.5424288912368474e+03 1.0000000000000000e+00 1.7719163417445259e+01 1.5747076549388016e+01 2.0140351192632735e+01 
1827 1429 2 1.0125403089639278e+00 -3.3114672377719185e+03 1.0000000000000000e+00 1.8797488963917228e+01 1.7701652030154126e+01 1.9526026193665327e+01 
414 16 2 1.0256612542777539e+00 -1.0756823465943595e+04 1.0000000000000000e+00 1.8710295470414565e+01 1.9677472710990354e+01 2.0302075614096683e+01 
1132 734 2 1.0363774697290462e+00 -1.4868557021734584e+03 1.0000000000000000e+00 1.6970297458673816e+01 1.6049025142792246e+01 2.0296251171869994e+01 
423 25 2 1.0219097032911746e+00 -1.7180789310255917e+04 1.0000000000000000e+00 1.6591835359245415e+01 1.5966267289289133e+01 2.0394014068694229e+01 
1379 981 2 1.0320664659177898e+00 1.7418451431820111e+04 1.0000000000000000e+00 1.6316253826163127e+01 1.4864224629339072e+01 2.1478190673437137e+01 
1518 1120 2 1.0267977668416981e+00 -9.9649239849941732e+03 1.0000000000000000e+00 1.5410432581702777e+01 1.6310715829243282e+01 2.1431942675414980e+01 
1368 970 2 1.0283693130880596e+00 5.2277704270894283e+03 1.0000000000000000e+00 1.7674857029576060e+01 1.8106718892735266e+01 1.9824906597811282e+01 
1598 1200 2 1.0412706119591215e+00 -4.1414552198565725e+03 1.0000000000000000e+00 1.8895581244709064e+01 1.3869442732313059e+01 2.1735020590863488e+01 
1014 616 2 1.0378117457130913e+00 -9.9632727084407179e+03 1.0000000000000000e+00 1.6461837388420630e+01 1.6399229353164049e+01 2.0494402425502336e+01 
1563 1165 2 1.0424003861945597e+00 6.5700462513790580e+03 1.0000000000000000e+00 1.6552956307069806e+01 1.6676388277917557e+01 2.0415052637851954e+01 
491 93 2 1.0305707915903028e+00 -5.1418644876578792e+03 1.0000000000000000e+00 1.5701095452020059e+01 1.7573478808447092e+01 2.0935623753255850e+01 
777 379 2 1.0205837837977629e+00 5.7312716580329688e+03 1.0000000000000000e+00 1.7558679846846850e+01 1.9984701620623639e+01 2.0657699193240017e+01 
695 297 2 1.0267243611241521e+00 1.4977541561537360e+04 1.0000000000000000e+00 1.7675737655959018e+01 1.9759562932229930e+01 2.0513707961502561e+01 
724 326 2 1.0310771501658245e+00 -3.8951395867964434e+03 1.0000000000000000e+00 1.9233364576964366e+01 1.3677190321207684e+01 2.1989330809537101e+01 
1088 690 2 1.0289440562136811e+00 4.7279643522696651e+03 1.0000000000000000e+00 1.9862970677674252e+01 1.8786328581059855e+01 2.0090635316737043e+01 
1620 1222 2 1.0388890126075572e+00 5.7289342263001845e+03 1.0000000000000000e+00 1.7143860547659884e+01 1.8049961845261326e+01 2.0082868150360397e+01 
1702 1304 2 1.0328215872443500e+00 5.1900414710298683e+04 1.0000000000000000e+00 1.8132218640353756e+01 1.7362195230289704e+01 1.9704883702657799e+01 
629 231 2 1.0334192999809828e+00 8.4728566338820747e+03 1.0000000000000000e+00 1.9091460893716853e+01 1.6682917384987778e+01 1.9760049312858428e+01 
1546 1148 2 1.0296961023506699e+00 1.7396742432596835e+04 1.0000000000000000e+00 1.9366103102915325e+01 1.8186937285273650e+01 1.9799808265713391e+01 
1816 1418 2 1.0325277735346063e+00 4.7359044038391357e+03 1.0000000000000000e+00 1.9620192115997448e+01 1.6352449708475323e+01 1.9923492912504575e+01 
817 419 2 1.0314687194552135e+00 3.0495238007290773e+03 1.0000000000000000e+00 1.8702537769202213e+01 1.6956681238233898e+01 1.9681395023566331e+01 
1573 1175 2 1.0348285003290036e+00 -1.6552340028897583e+04 1.0000000000000000e+00 1.5873737080668521e+01 1.5177046624625955e+01 2.1720071676124526e+01 
1495 1097 2 1.0434100038851351e+00 2.5954771470950623e+03 1.0000000000000000e+00 1.9039790864702404e+01 1.7630451499285130e+01 1.9792809942391703e+01 
926 528 2 1.0344672495276042e+00 3.2980670051453208e+03 1.0000000000000000e+00 1.5292898319524200e+01 1.7304363047925023e+01 2.1485774212596137e+01 
1106 708 2 1.0373063985394144e+00 1.1611371583279788e+04 1.0000000000000000e+00 1.8371859546721939e+01 1.6219162383800892e+01 1.9876131272938952e+01 
1547 1149 2 1.0428521980795531e+00 1.7400702690819089e+04 1.0000000000000000e+00 1.8131369125945490e+01 1.6836124020070372e+01 1.9820879337278758e+01 
1660 1262 2 1.0364532911323652e+00 3.0330903709123263e+03 1.0000000000000000e+00 1.5814132270446610e+01 1.5907274208143182e+01 2.1252527391266337e+01 
1269 871 2 1.0318490808540111e+00 4.1138912144711785e+03 1.0000000000000000e+00 1.5846360851279828e+01 1.6897083237491035e+01 2.0826873358319027e+01 
1707 1309 2 1.0356135862642823e+00 1.1347248918630079e+04 1.0000000000000000e+00 1.8289017310811527e+01 1.9585914780128661e+01 2.0360254620031807e+01 
938 540 2 1.0295593800625533e+00 1.1786711903214942e+04 1.0000000000000000e+00 1.8929453040099322e+01 1.6781255127370521e+01 1.9696786854517583e+01 
1888 1490 2 1.0149298888329692e+00 2.4877368359311645e+03 1.0000000000000000e+00 1.7378348289524059e+01 1.3649049256859961e+01 2.2073971083585750e+01 
1406 1008 2 1.0412256217601894e+00 2.1603140502023893e+04 1.0000000000000000e+00 1.8859724774756266e+01 1.4491404760984091e+01 2.0930850238961799e+01 
1686 1288 2 1.0349446588815712e+00 -7.3529877060813815e+03 1.0000000000000000e+00 1.9654283714339666e+01 1.4462212802285523e+01 2.1074616595281068e+01 
731 333 2 1.0382253586853820e+00 -1.0514873185253638e+04 1.0000000000000000e+00 1.9005842576677768e+01 1.6329094773378671e+01 1.9866117356608907e+01 
1819 1421 2 1.0406616953159331e+00 3.1744051354756357e+03 1.0000000000000000e+00 1.8887202759378098e+01 1.5274727243148627e+01 2.0316830719837704e+01 
1896 1498 2 1.0416923488535206e+00 -9.4519133618065814e+02 1.0000000000000000e+00 1.6369582479190822e+01 1.6773408440039073e+01 2.0514472643692017e+01 
1060 662 2 1.0364306417075577e+00 6.7492500236801416e+03 1.0000000000000000e+00 1.7542903264301220e+01 1.8679536047130327e+01 2.0086889416521895e+01 
632 234 2 1.0313867749874575e+00 8.4699384313734645e+03 1.0000000000000000e+00 1.9157169366737293e+01 1.5377586839776390e+01 2.0200749622587836e+01 
861 463 2 1.0362623742090591e+00 1.7055000037264090e+04 1.0000000000000000e+00 1.9931201479989227e+01 1.9155925964844844e+01 2.0341228440672882e+01 
999 601 2 1.0395744834296221e+00 1.0674856339566357e+04 1.0000000000000000e+00 1.7718704822449919e+01 1.6214671918645976e+01 1.9998543873634919e+01 
1721 1323 2 1.0313525212389139e+00 1.6536643141713037e+03 1.0000000000000000e+00 1.9153446391212579e+01 1.6300389482809159e+01 1.9832001423834242e+01 
2019 1621 2 1.0271551445974678e+00 -1.5288816575613630e+04 1.0000000000000000e+00 1.8816027504050318e+01 1.9182547147634544e+01 2.0045629280882032e+01 
1973 1575 2 1.0285653373530612e+00 -5.6371058198123565e+03 1.0000000000000000e+00 1.7382965370811618e+01 1.8465761645392128e+01 1.9999092364090906e+01 
1093 695 2 1.0255395252594652e+00 -2.5063136261352611e+03 1.0000000000000000e+00 1.9329501843479047e+01 1.5880248760055531e+01 1.9945009884733359e+01 
1023 625 2 1.0348146292803622e+00 -5.4747935875971853e+03 1.0000000000000000e+00 1.8827176089066246e+01 1.9749156473506101e+01 2.0441370720282453e+01 
1278 880 2 1.0188588472530948e+00 1.1147319026309580e+04 1.0000000000000000e+00 1.9697063999784582e+01 1.4183687806772612e+01 2.1202750930379374e+01 
1715 1317 2 1.0367427168171643e+00 1.1503005609419180e+04 1.0000000000000000e+00 1.9701363309042616e+01 1.4690638149172306e+01 2.0889381987310760e+01 
1813 1415 2 1.0198077187545764e+00 4.7305389989259411e+03 1.0000000000000000e+00 1.8974759789605368e+01 1.4799437033599620e+01 2.0436931437175041e+01 
461 63 2 1.0120350278989301e+00 -5.6137147521821707e+03 1.0000000000000000e+00 1.8841906402682753e+01 1.8725945615947261e+01 1.9732962810935906e+01 
531 133 2 1.0283862682711162e+00 -4.7649118926176852e+03 1.0000000000000000e+00 1.8197186534644604e+01 1.7902615196023955e+01 1.9698150208495303e+01 
1567 1169 2 1.0420070242672852e+00 4.9768546781822497e+03 1.0000000000000000e+00 1.8343534860933513e+01 1.6105389843070196e+01 1.9953932668806065e+01 