LAMMPS data file via write_data, version 30 Jul 2016, timestep = 50000000

180 atoms
2 atom types

0.0000000000000000e+00 2.0000000000000000e+01 xlo xhi
0.0000000000000000e+00 2.0000000000000000e+01 ylo yhi
0.0000000000000000e+00 2.0000000000000000e+01 zlo zhi

Masses

1 3.896
2 4.31

Atoms # meso-molecular

22 1 2 1.0280007274006324e+00 -3.1502715115122260e+02 1.0000000000000000e+00 3.7400968175225096e+00 1.1963248340055943e+01 6.5698146924719003e-01 
64 1 2 1.0279972108898847e+00 -2.8965382691041867e+02 1.0000000000000000e+00 5.1323764014809470e+00 1.3245928029172410e+01 2.2161332020742091e+00 
166 1 2 1.0279972109245714e+00 -4.0463896874366765e+02 1.0000000000000000e+00 5.1323659442116965e+00 1.3245921219468466e+01 2.2161389843630896e+00 
24 1 2 1.0279972109321018e+00 -3.2816812843913806e+02 1.0000000000000000e+00 5.1323639996203081e+00 1.3245919573634719e+01 2.2161400770834616e+00 
66 1 2 1.0279972109307924e+00 -3.6614151826702704e+02 1.0000000000000000e+00 5.1323643521485227e+00 1.3245919852809060e+01 2.2161398798749912e+00 
34 1 2 1.0279972108900008e+00 -4.9323138448532956e+02 1.0000000000000000e+00 5.1323763843290049e+00 1.3245927998166991e+01 2.2161332124743600e+00 
85 1 2 1.0279972109564584e+00 -2.9500769469828327e+02 1.0000000000000000e+00 5.1323576897032526e+00 1.3245914262407553e+01 2.2161436213384236e+00 
121 1 2 1.0279972109564341e+00 -2.7440137280587459e+02 1.0000000000000000e+00 5.1323576959367880e+00 1.3245914267852603e+01 2.2161436178280129e+00 
49 1 2 1.0279972108899804e+00 -3.7528242768952890e+02 1.0000000000000000e+00 5.1323763867332479e+00 1.3245928002593585e+01 2.2161332110128522e+00 
35 1 2 1.0279972108899944e+00 -3.2646264014376146e+02 1.0000000000000000e+00 5.1323763853125968e+00 1.3245927999936212e+01 2.2161332118783594e+00 
59 1 2 1.0279972108899738e+00 -2.5026264326309496e+02 1.0000000000000000e+00 5.1323763877012638e+00 1.3245928004297772e+01 2.2161332104280009e+00 
74 1 2 1.0279972110579063e+00 -4.7235375751709171e+02 1.0000000000000000e+00 5.1323281241270404e+00 1.3245893843481536e+01 2.2161600199524556e+00 
45 1 2 1.0280032599669142e+00 -4.1083436290070802e+02 1.0000000000000000e+00 6.2978939347082967e+00 1.7596636521254190e+01 9.9589178754373664e-01 
40 1 2 1.0280035487615189e+00 -2.9873098308461215e+02 1.0000000000000000e+00 6.4716425343247446e+00 1.7621964529878014e+01 1.0010289308304099e+00 
81 1 2 1.0280034485962184e+00 -3.2035516209533762e+02 1.0000000000000000e+00 6.3742553979033936e+00 1.7644348522246293e+01 1.0303365522661954e+00 
57 1 2 1.0280035029054424e+00 -2.6898410698586531e+02 1.0000000000000000e+00 6.4065515200841965e+00 1.7638359338911155e+01 1.0228207836497543e+00 
10 1 2 1.0280035079818419e+00 -2.7331886984774269e+02 1.0000000000000000e+00 6.4103039249064357e+00 1.7637588619754766e+01 1.0218242949827296e+00 
52 1 2 1.0280032604992539e+00 -2.9771672918884235e+02 1.0000000000000000e+00 6.3045194362109669e+00 1.7667698837974584e+01 1.0507972780672028e+00 
123 1 2 1.0280032687774914e+00 -2.4102500086265428e+02 1.0000000000000000e+00 6.3017180221996965e+00 1.7652057965552849e+01 1.0394809319812159e+00 
7 1 2 1.0279993604857458e+00 -4.3164324157425551e+02 1.0000000000000000e+00 6.3919843839058599e+00 1.5606203213846296e+01 7.9239550848014488e+00 
87 1 2 1.0279993604857478e+00 -3.1679783931846299e+02 1.0000000000000000e+00 6.3919843835971051e+00 1.5606203214430423e+01 7.9239550843259732e+00 
104 1 2 1.0279993604857416e+00 -4.1092854096191002e+02 1.0000000000000000e+00 6.3919843828453882e+00 1.5606203215852437e+01 7.9239550831683898e+00 
76 1 2 1.0279993604865982e+00 -2.7104550497893644e+02 1.0000000000000000e+00 6.3919847368274141e+00 1.5606202547076029e+01 7.9239556286217994e+00 
89 1 2 1.0279993604869888e+00 -2.9623040050187933e+02 1.0000000000000000e+00 6.3919848799457126e+00 1.5606202277107293e+01 7.9239558493191273e+00 
160 1 2 1.0279993604858408e+00 -3.9178154351014427e+02 1.0000000000000000e+00 6.3919844304053086e+00 1.5606203126399830e+01 7.9239551566114503e+00 
92 1 2 1.0279993604857438e+00 -2.9947117547550420e+02 1.0000000000000000e+00 6.3919843829664549e+00 1.5606203215623516e+01 7.9239550833548513e+00 
172 1 2 1.0279993604856530e+00 -3.1607584983844578e+02 1.0000000000000000e+00 6.3919843511311987e+00 1.5606203275982265e+01 7.9239550343829750e+00 
154 1 2 1.0279993604857467e+00 -3.8118385910784383e+02 1.0000000000000000e+00 6.3919843839607875e+00 1.5606203213742623e+01 7.9239550848861189e+00 
159 1 2 1.0279993604857427e+00 -2.5761812302202964e+02 1.0000000000000000e+00 6.3919843830647922e+00 1.5606203215437553e+01 7.9239550835063186e+00 
86 1 2 1.0279993604857438e+00 -2.7310609923581347e+02 1.0000000000000000e+00 6.3919843831189533e+00 1.5606203215334240e+01 7.9239550835893837e+00 
31 1 2 1.0279997325638512e+00 -4.5414862548660585e+02 1.0000000000000000e+00 5.2006489860376073e+00 1.9473645709835203e+01 7.5448499669385392e+00 
155 1 2 1.0280000348082143e+00 -3.4063878839049875e+02 1.0000000000000000e+00 5.2427505500626310e+00 1.9698392741518646e+01 8.2092216325637981e+00 
13 1 2 1.0279997340517757e+00 -3.7555612820273109e+02 1.0000000000000000e+00 5.1973154001155031e+00 1.9475494634048822e+01 7.5489375562579397e+00 
175 1 2 1.0279997340509337e+00 -3.1673542589622002e+02 1.0000000000000000e+00 5.1973164808300814e+00 1.9475493375306645e+01 7.5489364330514555e+00 
78 1 2 1.0279997340515339e+00 -2.7685888922266349e+02 1.0000000000000000e+00 5.1973156587851355e+00 1.9475494283131830e+01 7.5489373041909005e+00 
96 1 2 1.0279997340517337e+00 -2.9964994565956800e+02 1.0000000000000000e+00 5.1973154602671237e+00 1.9475494564995632e+01 7.5489374934005236e+00 
156 1 2 1.0279997340517784e+00 -3.0040675525237111e+02 1.0000000000000000e+00 5.1973153983933846e+00 1.9475494635510834e+01 7.5489375582315690e+00 
77 1 2 1.0279997340517826e+00 -2.7246670718104212e+02 1.0000000000000000e+00 5.1973153901345510e+00 1.9475494638729174e+01 7.5489375689784000e+00 
16 1 2 1.0279997340518079e+00 -3.1337628670837165e+02 1.0000000000000000e+00 5.1973153561199554e+00 1.9475494678345378e+01 7.5489376043311722e+00 
114 1 2 1.0279997340516778e+00 -3.6109493337572877e+02 1.0000000000000000e+00 5.1973155138588449e+00 1.9475494503616996e+01 7.5489374373492684e+00 
3 1 2 1.0279997340488760e+00 -4.4830464785385510e+02 1.0000000000000000e+00 5.1973188564845483e+00 1.9475490268271319e+01 7.5489340789563810e+00 
98 1 2 1.0279997323923795e+00 -2.6948317666984269e+02 1.0000000000000000e+00 5.2006710669924008e+00 1.9473333170952795e+01 7.5449243563087345e+00 
139 1 2 1.0279997323776910e+00 -3.2276007592100376e+02 1.0000000000000000e+00 5.2013320398484391e+00 1.9473460567110944e+01 7.5439630184195732e+00 
107 1 2 1.0279999215405544e+00 -2.8564649020086745e+02 1.0000000000000000e+00 5.8843348152928590e+00 1.7198906418031324e+01 1.4996411731071875e+01 
71 1 2 1.0279999256847208e+00 -2.8896763423294101e+02 1.0000000000000000e+00 5.8844774212146893e+00 1.7208582940189540e+01 1.4981350256168092e+01 
41 1 2 1.0279999453043935e+00 -3.2521871412172584e+02 1.0000000000000000e+00 5.8865261485097786e+00 1.7252489211657220e+01 1.4919682619456923e+01 
72 1 2 1.0280000064982651e+00 -3.5540863382767503e+02 1.0000000000000000e+00 5.9142053983056231e+00 1.7373683779867779e+01 1.4775527999866556e+01 
141 1 2 1.0279999966632447e+00 -3.5359087691028765e+02 1.0000000000000000e+00 5.8712462887230332e+00 1.7386351479674715e+01 1.4814397459427964e+01 
36 1 2 1.0280000173693649e+00 -3.7847078922416574e+02 1.0000000000000000e+00 5.9233590385301449e+00 1.7392811862626399e+01 1.4753138350050623e+01 
5 1 2 1.0280000161730762e+00 -5.0138014827305284e+02 1.0000000000000000e+00 5.9222847605210820e+00 1.7390738824752191e+01 1.4755581615009900e+01 
6 1 2 1.0280000302843770e+00 -3.7612894053256167e+02 1.0000000000000000e+00 5.9359547997737900e+00 1.7414819483197988e+01 1.4727010800715332e+01 
105 1 2 1.0280000825024314e+00 -4.1193644677847050e+02 1.0000000000000000e+00 6.0031699753851617e+00 1.7500272021427008e+01 1.4625127329899696e+01 
61 1 2 1.0280002309662986e+00 -3.1328657608327512e+02 1.0000000000000000e+00 6.3503859115292016e+00 1.7748096875684592e+01 1.4349518325184576e+01 
100 1 2 1.0280004891867069e+00 -4.2545110629457628e+02 1.0000000000000000e+00 5.8270321100163196e+00 1.7765868873367829e+01 1.6602652240982703e+01 
168 1 2 1.0280026668340223e+00 -3.6562642867647156e+02 1.0000000000000000e+00 3.5728019089407530e+00 1.2567995260670925e+01 1.9813677343095165e+01 
94 1 2 1.0280026668340216e+00 -2.9169793438656973e+02 1.0000000000000000e+00 3.5728019101723438e+00 1.2567995253768999e+01 1.9813677343662633e+01 
124 1 2 1.0280026668340263e+00 -3.0474539954846921e+02 1.0000000000000000e+00 3.5728019102324926e+00 1.2567995253437175e+01 1.9813677343689367e+01 
88 1 2 1.0280026668340265e+00 -2.6331786397123750e+02 1.0000000000000000e+00 3.5728019102136046e+00 1.2567995253541641e+01 1.9813677343680929e+01 
60 1 2 1.0280026668319160e+00 -3.7303586867478850e+02 1.0000000000000000e+00 3.5728012108727452e+00 1.2567998856213276e+01 1.9813677081826253e+01 
130 1 2 1.0280026668340247e+00 -3.7509780800903582e+02 1.0000000000000000e+00 3.5728019100821653e+00 1.2567995254273031e+01 1.9813677343621354e+01 
162 1 2 1.0280026668340247e+00 -3.4094261159564877e+02 1.0000000000000000e+00 3.5728019095321319e+00 1.2567995257372298e+01 1.9813677343364706e+01 
14 1 2 1.0280026669825508e+00 -3.4371706273628695e+02 1.0000000000000000e+00 3.5726109271969726e+00 1.2567795851746627e+01 1.9813831649161223e+01 
55 1 2 1.0280026676907119e+00 -4.3687841175854351e+02 1.0000000000000000e+00 3.5723294264997998e+00 1.2566682735512146e+01 1.9814217176421028e+01 
118 1 2 1.0280026676217715e+00 -3.3455999199672362e+02 1.0000000000000000e+00 3.5735896734651740e+00 1.2566498875446880e+01 1.9813486262897790e+01 
44 1 2 1.0280026681796905e+00 -2.8657843389646200e+02 1.0000000000000000e+00 3.5735791011794795e+00 1.2565550727984366e+01 1.9813676929037214e+01 
146 1 2 1.0280008354695955e+00 -4.2663054133285715e+02 1.0000000000000000e+00 5.8652924002315832e+00 1.7894506565495320e+01 1.6734772636271931e+01 
101 1 2 1.0280010284098100e+00 -3.0705837016673348e+02 1.0000000000000000e+00 5.8800588945515111e+00 1.7953772038176023e+01 1.6789898609770461e+01 
137 1 2 1.0280012336299458e+00 -3.3872549078405967e+02 1.0000000000000000e+00 5.8930197568674201e+00 1.8021031373686906e+01 1.6844224258631264e+01 
134 1 2 1.0279995100596866e+00 -3.0525236752601359e+02 1.0000000000000000e+00 6.1165410908659616e+00 1.7186548771076907e+01 1.9089513197366653e+01 
73 1 2 1.0279991100839367e+00 -3.1515580909755880e+02 1.0000000000000000e+00 4.4809472555324081e+00 1.9300893488348034e+01 1.9709745792589594e+01 
95 1 2 1.0279996568295482e+00 -2.7804517835561478e+02 1.0000000000000000e+00 5.8343777965899539e+00 1.7287017943963683e+01 1.8835993118669336e+01 
91 1 2 1.0280006973731886e+00 -3.6186436778274327e+02 1.0000000000000000e+00 6.0153386863093425e+00 1.8473973565560282e+01 1.6897870640757205e+01 
50 1 2 1.0279996674964278e+00 -2.5930009674769110e+02 1.0000000000000000e+00 5.4287989284752358e+00 1.7413420699251667e+01 1.8853181387507728e+01 
93 1 2 1.0279993875323246e+00 -3.0546180384013485e+02 1.0000000000000000e+00 4.4018971216914542e+00 1.8840072454101762e+01 1.9233612585696118e+01 
42 1 2 1.0279991100839363e+00 -3.3028025979627023e+02 1.0000000000000000e+00 4.4809472555412997e+00 1.9300893488361467e+01 1.9709745792621462e+01 
43 1 2 1.0279991100839403e+00 -3.0858288732670650e+02 1.0000000000000000e+00 4.4809472557634731e+00 1.9300893488697696e+01 1.9709745793411447e+01 
140 1 2 1.0279991102241577e+00 -3.4719026622751539e+02 1.0000000000000000e+00 4.4808122542676552e+00 1.9300690336289765e+01 1.9709251783367261e+01 
37 1 2 1.0279991100839359e+00 -3.7171579282854202e+02 1.0000000000000000e+00 4.4809472555330956e+00 1.9300893488349008e+01 1.9709745792592738e+01 
48 1 2 1.0279991100839367e+00 -3.3194599522916172e+02 1.0000000000000000e+00 4.4809472555471332e+00 1.9300893488370320e+01 1.9709745792641947e+01 
147 1 2 1.0279991100825949e+00 -4.3579885987121281e+02 1.0000000000000000e+00 4.4809486691241105e+00 1.9300895628694271e+01 1.9709750809398958e+01 
169 1 2 1.0279991121104366e+00 -2.3124531436530640e+02 1.0000000000000000e+00 4.4846980956205966e+00 1.9308042983663150e+01 1.9707888380682142e+01 
112 1 2 1.0279991100841144e+00 -3.6929032942008638e+02 1.0000000000000000e+00 4.4809470907922480e+00 1.9300893239101448e+01 1.9709745206014993e+01 
65 1 2 1.0280002658875191e+00 -3.7511874700170927e+02 1.0000000000000000e+00 7.8578553873011412e+00 1.1753342559841682e+00 9.1972875680172539e+00 
30 1 2 1.0280002658875182e+00 -4.1414232930457138e+02 1.0000000000000000e+00 7.8578553870363264e+00 1.1753342558946431e+00 9.1972875685590463e+00 
161 1 2 1.0280002658875180e+00 -3.7728752885467384e+02 1.0000000000000000e+00 7.8578553867115462e+00 1.1753342557845570e+00 9.1972875692238265e+00 
97 1 2 1.0280002658871517e+00 -2.9040991780807610e+02 1.0000000000000000e+00 7.8578562139772457e+00 1.1753347933919347e+00 9.1972855953396255e+00 
32 1 2 1.0280002658875582e+00 -3.8776115077058773e+02 1.0000000000000000e+00 7.8578551880327669e+00 1.1753342135307481e+00 9.1972879485194845e+00 
25 1 2 1.0280002658875538e+00 -4.3840575132850199e+02 1.0000000000000000e+00 7.8578551813762472e+00 1.1753342123649757e+00 9.1972879609548439e+00 
33 1 2 1.0280002658875564e+00 -3.1926828067596301e+02 1.0000000000000000e+00 7.8578551804902821e+00 1.1753342122581500e+00 9.1972879625571764e+00 
26 1 2 1.0280002658875558e+00 -4.1574547038699507e+02 1.0000000000000000e+00 7.8578551808247514e+00 1.1753342122567141e+00 9.1972879619978194e+00 
69 1 2 1.0280002658875533e+00 -2.3911285020643527e+02 1.0000000000000000e+00 7.8578551813172854e+00 1.1753342123532422e+00 9.1972879610665341e+00 
27 1 2 1.0280002658869207e+00 -3.9229261290637112e+02 1.0000000000000000e+00 7.8578577797008009e+00 1.1753351054301582e+00 9.1972826290089280e+00 
68 1 2 1.0280002658875524e+00 -4.1064503667437003e+02 1.0000000000000000e+00 7.8578551929846032e+00 1.1753342141079317e+00 9.1972879395852818e+00 
21 1 2 1.0280002658875558e+00 -3.5293772545946410e+02 1.0000000000000000e+00 7.8578551975189717e+00 1.1753342139585883e+00 9.1972879321436292e+00 
119 1 2 1.0280002658875189e+00 -3.3155606641516391e+02 1.0000000000000000e+00 7.8578553873275441e+00 1.1753342559933615e+00 9.1972875679629453e+00 
126 1 2 1.0280008403001655e+00 -3.0482915734006031e+02 1.0000000000000000e+00 7.6050517803434809e+00 1.8797056165188295e+00 1.6714669219025140e+01 
110 1 2 1.0280008403001664e+00 -4.0426840183997837e+02 1.0000000000000000e+00 7.6050517803615438e+00 1.8797056165172861e+00 1.6714669219017583e+01 
120 1 2 1.0280008403001659e+00 -2.6709844938846948e+02 1.0000000000000000e+00 7.6050517803900064e+00 1.8797056165158872e+00 1.6714669219007913e+01 
109 1 2 1.0280008403109369e+00 -4.1086547319374733e+02 1.0000000000000000e+00 7.6050489899437226e+00 1.8797058169492022e+00 1.6714670305285210e+01 
90 1 2 1.0280008403001659e+00 -3.3962107654435050e+02 1.0000000000000000e+00 7.6050517803483961e+00 1.8797056165182371e+00 1.6714669219022714e+01 
29 1 2 1.0280008403113903e+00 -3.5318197514196629e+02 1.0000000000000000e+00 7.6050488716344304e+00 1.8797058258647370e+00 1.6714670352255986e+01 
151 1 2 1.0280008403001657e+00 -3.8998320000297872e+02 1.0000000000000000e+00 7.6050517803396067e+00 1.8797056165192747e+00 1.6714669219027016e+01 
80 1 2 1.0280008403001655e+00 -3.4610910820178242e+02 1.0000000000000000e+00 7.6050517803479947e+00 1.8797056165182826e+00 1.6714669219022898e+01 
83 1 2 1.0280008403001664e+00 -1.9625640423958737e+02 1.0000000000000000e+00 7.6050517803549109e+00 1.8797056165175219e+00 1.6714669219019640e+01 
84 1 2 1.0280008403001664e+00 -2.7491279047377799e+02 1.0000000000000000e+00 7.6050517803554483e+00 1.8797056165179251e+00 1.6714669219020397e+01 
135 1 2 1.0280008403217644e+00 -3.1177059772340249e+02 1.0000000000000000e+00 7.6050466557305185e+00 1.8797061125792038e+00 1.6714671494060120e+01 
131 1 2 1.0280008403001664e+00 -3.1130324130404455e+02 1.0000000000000000e+00 7.6050517803538753e+00 1.8797056165175441e+00 1.6714669219019932e+01 
116 1 2 1.0280008426930849e+00 -4.7385277140493554e+02 1.0000000000000000e+00 7.6044561499217824e+00 1.8797547486923365e+00 1.6714916136140332e+01 
171 1 2 1.0280002935163211e+00 -2.9766585476643672e+02 1.0000000000000000e+00 7.1158657908778862e+00 1.7536744667971892e+01 5.1708219413443612e-01 
12 1 2 1.0279984154358413e+00 -3.8200642700668317e+02 1.0000000000000000e+00 8.8013093077552540e+00 1.3544683101766976e+01 6.0373215119912418e+00 
53 1 2 1.0279984154358399e+00 -2.8365497184520308e+02 1.0000000000000000e+00 8.8013093077552202e+00 1.3544683101767088e+01 6.0373215119909132e+00 
11 1 2 1.0279984154358401e+00 -3.9060220267747485e+02 1.0000000000000000e+00 8.8013093077551083e+00 1.3544683101766958e+01 6.0373215119911023e+00 
122 1 2 1.0279984154395210e+00 -3.2408449761047410e+02 1.0000000000000000e+00 8.8013087780945511e+00 1.3544682126653870e+01 6.0373233103820256e+00 
152 1 2 1.0279984154358464e+00 -3.9812709871445935e+02 1.0000000000000000e+00 8.8013093078383040e+00 1.3544683101915290e+01 6.0373215117208971e+00 
47 1 2 1.0279984154358415e+00 -3.1350386809173210e+02 1.0000000000000000e+00 8.8013093077553819e+00 1.3544683101767056e+01 6.0373215119912098e+00 
177 1 2 1.0279984154358686e+00 -4.0392018430395689e+02 1.0000000000000000e+00 8.8013093031938219e+00 1.3544683093607533e+01 6.0373215268771316e+00 
17 1 2 1.0279984154358404e+00 -3.1653427226719026e+02 1.0000000000000000e+00 8.8013093077549254e+00 1.3544683101766829e+01 6.0373215119911974e+00 
54 1 2 1.0279984154358386e+00 -3.2898867211236035e+02 1.0000000000000000e+00 8.8013093077549307e+00 1.3544683101766777e+01 6.0373215119913217e+00 
18 1 2 1.0279984154358401e+00 -3.9351444161471818e+02 1.0000000000000000e+00 8.8013093077552789e+00 1.3544683101767008e+01 6.0373215119911832e+00 
67 1 2 1.0280031231912159e+00 -3.5688199684097958e+02 1.0000000000000000e+00 7.2805657744625654e+00 1.5396309160284048e+01 4.2685121845358429e+00 
70 1 2 1.0280031231913194e+00 -2.6578633499806608e+02 1.0000000000000000e+00 7.2805658812874379e+00 1.5396309161992244e+01 4.2685121606969521e+00 
82 1 2 1.0280031231922779e+00 -2.7930557290063490e+02 1.0000000000000000e+00 7.2805656682876778e+00 1.5396308974893024e+01 4.2685120201672291e+00 
158 1 2 1.0280031231918729e+00 -3.3603738766467831e+02 1.0000000000000000e+00 7.2805655866010248e+00 1.5396309028868115e+01 4.2685120949927136e+00 
170 1 2 1.0280031231965940e+00 -3.7815831183285286e+02 1.0000000000000000e+00 7.2805649623990067e+00 1.5396308162684026e+01 4.2685113577207119e+00 
111 1 2 1.0280031231920803e+00 -3.4416140707978695e+02 1.0000000000000000e+00 7.2805656920463671e+00 1.5396309008092434e+01 4.2685120484652987e+00 
179 1 2 1.0280031231916669e+00 -2.8413685865855257e+02 1.0000000000000000e+00 7.2805656344411052e+00 1.5396309069362342e+01 4.2685121249909885e+00 
9 1 2 1.0280031231913656e+00 -2.5773079178007526e+02 1.0000000000000000e+00 7.2805658054956330e+00 1.5396309145776502e+01 4.2685121622500626e+00 
99 1 2 1.0280031231912972e+00 -2.5865069959609133e+02 1.0000000000000000e+00 7.2805658453425979e+00 1.5396309156441447e+01 4.2685121636238446e+00 
136 1 2 1.0280031231916109e+00 -3.8035351142387060e+02 1.0000000000000000e+00 7.2805651545656591e+00 1.5396309013754955e+01 4.2685121830064183e+00 
127 1 2 1.0280031231920370e+00 -3.6873483474773633e+02 1.0000000000000000e+00 7.2805656193087636e+00 1.5396309005576923e+01 4.2685120633129081e+00 
157 1 2 1.0280013757179594e+00 -2.9526984294277355e+02 1.0000000000000000e+00 9.4411310170809948e+00 1.2997961822173069e+01 9.4403538037416812e+00 
148 1 2 1.0280013869390168e+00 -4.3075006137792121e+02 1.0000000000000000e+00 9.2805842626092687e+00 1.3025432690972096e+01 9.5324340558479257e+00 
115 1 2 1.0280013869377438e+00 -3.2985721636839764e+02 1.0000000000000000e+00 9.2805841225628534e+00 1.3025433055194156e+01 9.5324342912452753e+00 
19 1 2 1.0280013867577253e+00 -4.8092043338174580e+02 1.0000000000000000e+00 9.2805644312071998e+00 1.3025484078669502e+01 9.5324672793848748e+00 
145 1 2 1.0280013869391642e+00 -4.7108660411785894e+02 1.0000000000000000e+00 9.2805842788489183e+00 1.3025432652010219e+01 9.5324340303904993e+00 
164 1 2 1.0280013869392266e+00 -3.3870663314239476e+02 1.0000000000000000e+00 9.2805842869160102e+00 1.3025432631124891e+01 9.5324340168843342e+00 
23 1 2 1.0280013869385556e+00 -3.4390396943192667e+02 1.0000000000000000e+00 9.2805842108638128e+00 1.3025432822549467e+01 9.5324341411396674e+00 
28 1 2 1.0280013869384923e+00 -4.0008612324115376e+02 1.0000000000000000e+00 9.2805842047589984e+00 1.3025432838110063e+01 9.5324341512232706e+00 
178 1 2 1.0280013869392852e+00 -3.0627749725707548e+02 1.0000000000000000e+00 9.2805842913382861e+00 1.3025432618131036e+01 9.5324340086122312e+00 
51 1 2 1.0280013869398570e+00 -2.8141668969652068e+02 1.0000000000000000e+00 9.2805843576711453e+00 1.3025432449814572e+01 9.5324338994747908e+00 
132 1 2 1.0280013869110964e+00 -3.4291047926770636e+02 1.0000000000000000e+00 9.2805810289646224e+00 1.3025440553502486e+01 9.5324391835004540e+00 
75 1 2 1.0280013869390363e+00 -2.5962328349814976e+02 1.0000000000000000e+00 9.2805842650372963e+00 1.3025432687440176e+01 9.5324340533303662e+00 
165 1 2 1.0280013866065276e+00 -3.3261798596177130e+02 1.0000000000000000e+00 9.2805536077105959e+00 1.3025528454994724e+01 9.5324945804541343e+00 
58 1 2 1.0280001917399282e+00 -3.1020372620435074e+02 1.0000000000000000e+00 9.3379884736701086e+00 1.6645145753004215e+01 7.2874396609567480e+00 
62 1 2 1.0280001831521504e+00 -2.2392349002764470e+02 1.0000000000000000e+00 9.4337772677723670e+00 1.6536292376340995e+01 7.3054987609739452e+00 
38 1 2 1.0280001829752097e+00 -3.4417069237559247e+02 1.0000000000000000e+00 9.4338358729237584e+00 1.6536094227738875e+01 7.3051657650203836e+00 
153 1 2 1.0280001828416314e+00 -4.8177488530770506e+02 1.0000000000000000e+00 9.4337740718114684e+00 1.6536065241290213e+01 7.3048532238553063e+00 
20 1 2 1.0280003574315770e+00 -2.3327041086076485e+02 1.0000000000000000e+00 9.3721594546800358e+00 1.6590452441009212e+01 7.9724267554979180e+00 
103 1 2 1.0280003696906626e+00 -2.9417122898644112e+02 1.0000000000000000e+00 9.3536185510189700e+00 1.6615834710477955e+01 7.9650106241245213e+00 
2 1 2 1.0280003708971353e+00 -3.5945960164538610e+02 1.0000000000000000e+00 9.3508515045715708e+00 1.6618470651149451e+01 7.9661866644980925e+00 
8 1 2 1.0280003708950880e+00 -4.9362495773209343e+02 1.0000000000000000e+00 9.3508553737756088e+00 1.6618466216328436e+01 7.9661866673833597e+00 
1 1 2 1.0280003708963086e+00 -3.8857216685499350e+02 1.0000000000000000e+00 9.3508531782558677e+00 1.6618468732787953e+01 7.9661866657793778e+00 
150 1 2 1.0280003712669525e+00 -3.0034668011562792e+02 1.0000000000000000e+00 9.3494221669685764e+00 1.6619346778627218e+01 7.9678236989065070e+00 
129 1 2 1.0280004641955462e+00 -3.1083548085849299e+02 1.0000000000000000e+00 8.7581337611141752e+00 1.6982414487465594e+01 8.0418986846328142e+00 
176 1 2 1.0280004630955437e+00 -2.5127176772160951e+02 1.0000000000000000e+00 8.7504287902463904e+00 1.6988336466992806e+01 8.0346188464394714e+00 
143 1 2 1.0279995249723719e+00 -2.1836070245410090e+02 1.0000000000000000e+00 8.9828787165521593e+00 1.8649677629941387e+01 1.4740202474093802e+01 
167 1 2 1.0279995408673814e+00 -3.7886304884803508e+02 1.0000000000000000e+00 8.9793795925614184e+00 1.8648575947042243e+01 1.4730190830392152e+01 
106 1 2 1.0279995521515570e+00 -4.0299382746653055e+02 1.0000000000000000e+00 8.9773508008105498e+00 1.8646937451484941e+01 1.4724274750480610e+01 
138 1 2 1.0279995551695482e+00 -3.8230204316140379e+02 1.0000000000000000e+00 8.9773318192062312e+00 1.8645595161398440e+01 1.4723810289637079e+01 
133 1 2 1.0279995551698848e+00 -3.0438542537639319e+02 1.0000000000000000e+00 8.9773317703807223e+00 1.8645595108153206e+01 1.4723810145102220e+01 
108 1 2 1.0279995551702710e+00 -3.1085003675108612e+02 1.0000000000000000e+00 8.9773317112066451e+00 1.8645595023910630e+01 1.4723809963884818e+01 
174 1 2 1.0279995551694587e+00 -4.3972260117920291e+02 1.0000000000000000e+00 8.9773318356754608e+00 1.8645595171567965e+01 1.4723810335999802e+01 
102 1 2 1.0279995551696046e+00 -3.6391306553758545e+02 1.0000000000000000e+00 8.9773318102026778e+00 1.8645595153888912e+01 1.4723810263692858e+01 
180 1 2 1.0279995551685017e+00 -4.6804959791067881e+02 1.0000000000000000e+00 8.9773320710478597e+00 1.8645595202773404e+01 1.4723810963585004e+01 
144 1 2 1.0279995551696590e+00 -4.0851314159916285e+02 1.0000000000000000e+00 8.9773317993660431e+00 1.8645595143136855e+01 1.4723810231940568e+01 
142 1 2 1.0279995565021176e+00 -3.7418144306873785e+02 1.0000000000000000e+00 8.9771351584948729e+00 1.8645323511170925e+01 1.4723211367807245e+01 
173 1 2 1.0279995567394942e+00 -3.8091630823646551e+02 1.0000000000000000e+00 8.9766588627951052e+00 1.8646028591454396e+01 1.4722183408281996e+01 
15 1 2 1.0279993153948197e+00 -3.3417305221616834e+02 1.0000000000000000e+00 7.7378903908662728e+00 1.9932318042742828e+01 1.9700089665611202e+01 
163 1 2 1.0279993154388414e+00 -3.4619192687731851e+02 1.0000000000000000e+00 7.7378934318144159e+00 1.9932326556331688e+01 1.9700067287478195e+01 
117 1 2 1.0279993153850913e+00 -3.3383285028228261e+02 1.0000000000000000e+00 7.7378897964416433e+00 1.9932316097066554e+01 1.9700094551170903e+01 
149 1 2 1.0279993153937463e+00 -3.0056842486067018e+02 1.0000000000000000e+00 7.7378903187461443e+00 1.9932317842933958e+01 1.9700090192516249e+01 
113 1 2 1.0279993153928588e+00 -3.1364051852003416e+02 1.0000000000000000e+00 7.7378902703597303e+00 1.9932317662947423e+01 1.9700090629448727e+01 
39 1 2 1.0279993154047422e+00 -3.3892240643560928e+02 1.0000000000000000e+00 7.7378910807227461e+00 1.9932319955907410e+01 1.9700084622075984e+01 
56 1 2 1.0279993153875420e+00 -1.6489659809367274e+02 1.0000000000000000e+00 7.7378899558888214e+00 1.9932316586452622e+01 1.9700093299741976e+01 
63 1 2 1.0279993153876656e+00 -2.8876479413767703e+02 1.0000000000000000e+00 7.7378899497974150e+00 1.9932316621144587e+01 1.9700093250583709e+01 
4 1 2 1.0279993153783227e+00 -4.0957075658045284e+02 1.0000000000000000e+00 7.7378893769639490e+00 1.9932314741925314e+01 1.9700097966330652e+01 
79 1 2 1.0279990169206987e+00 -3.4369608528131454e+02 1.0000000000000000e+00 7.7108013836215701e+00 1.7998720728579595e+01 1.9387022830235562e+01 
46 1 2 1.0279990168904571e+00 -3.4454405673759624e+02 1.0000000000000000e+00 7.7107205496829456e+00 1.7998533813070491e+01 1.9387183835606166e+01 
128 1 2 1.0279999374910336e+00 -2.7546391962715165e+02 1.0000000000000000e+00 7.3534954226222888e+00 1.8182983828920136e+01 1.6865515006662839e+01 
125 1 2 1.0280005369495016e+00 -2.9418795226996451e+02 1.0000000000000000e+00 7.1300917639654555e+00 1.8289062341533533e+01 1.7195110260456154e+01 

Velocities

22 2.9399394744987184e-01 2.2384301240691029e-01 7.9157148257348015e-02
64 2.9378081002489026e-01 2.2386913561958710e-01 7.8675880774430051e-02
166 2.9378081785426757e-01 2.2386914075913547e-01 7.8675877498011304e-02
24 2.9378081931702904e-01 2.2386914199684740e-01 7.8675876903746875e-02
66 2.9378081905215886e-01 2.2386914178672959e-01 7.8675877012193682e-02
34 2.9378081003810669e-01 2.2386913564275335e-01 7.8675880769890350e-02
85 2.9378082406299649e-01 2.2386914599127586e-01 7.8675874974508370e-02
121 2.9378082405831657e-01 2.2386914598717716e-01 7.8675874976431345e-02
49 2.9378081003624879e-01 2.2386913563944549e-01 7.8675880770516737e-02
35 2.9378081003734591e-01 2.2386913564143146e-01 7.8675880770144771e-02
59 2.9378081003550111e-01 2.2386913563817354e-01 7.8675880770763887e-02
74 2.9378084622021117e-01 2.2386916138789778e-01 7.8675865762577749e-02
45 2.9637119709685805e-01 2.2257021828350065e-01 8.1351174875001347e-02
40 2.9648824407815405e-01 2.2257207163869819e-01 8.1372570897836019e-02
81 2.9642085357163034e-01 2.2259452655047668e-01 8.1388210709021261e-02
57 2.9644290171225574e-01 2.2258715732293527e-01 8.1386102990450071e-02
10 2.9644549675293919e-01 2.2258630032623208e-01 8.1385677778001334e-02
52 2.9637623009361130e-01 2.2262095450912409e-01 8.1390403409355383e-02
123 2.9637405938465389e-01 2.2260933741250349e-01 8.1382885112822351e-02
7 2.9404719446529715e-01 2.2391171454146225e-01 7.9155353058995903e-02
87 2.9404719446541583e-01 2.2391171454141512e-01 7.9155353059066222e-02
104 2.9404719446556343e-01 2.2391171454127892e-01 7.9155353059306391e-02
76 2.9404719436204868e-01 2.2391171459989093e-01 7.9155352962983233e-02
89 2.9404719432074683e-01 2.2391171462364154e-01 7.9155352923737404e-02
160 2.9404719445129940e-01 2.2391171454906406e-01 7.9155353046488269e-02
92 2.9404719446552563e-01 2.2391171454129946e-01 7.9155353059273861e-02
172 2.9404719447475935e-01 2.2391171453599473e-01 7.9155353067946743e-02
154 2.9404719446528710e-01 2.2391171454147046e-01 7.9155353058978209e-02
159 2.9404719446549460e-01 2.2391171454131470e-01 7.9155353059247688e-02
86 2.9404719446549021e-01 2.2391171454132605e-01 7.9155353059228536e-02
31 2.9388332882784418e-01 2.2386461365288182e-01 7.8944621546432378e-02
155 2.9385600178255877e-01 2.2386191705578393e-01 7.8911663650196695e-02
13 2.9388347769392764e-01 2.2386453599246631e-01 7.8944230806774152e-02
175 2.9388347767323242e-01 2.2386453604860643e-01 7.8944230938175070e-02
78 2.9388347769101453e-01 2.2386453600824163e-01 7.8944230838469881e-02
96 2.9388347769269924e-01 2.2386453599554354e-01 7.8944230814057686e-02
156 2.9388347769396045e-01 2.2386453599240097e-01 7.8944230806553148e-02
77 2.9388347769440232e-01 2.2386453599227557e-01 7.8944230805595914e-02
16 2.9388347769509271e-01 2.2386453599051348e-01 7.8944230801488130e-02
114 2.9388347769169998e-01 2.2386453599828371e-01 7.8944230820616218e-02
3 2.9388347764136397e-01 2.2386453618797611e-01 7.8944231228487732e-02
98 2.9388333997630850e-01 2.2386462833712861e-01 7.8944625653983164e-02
139 2.9388328978966588e-01 2.2386462042307251e-01 7.8944699256631848e-02