LAMMPS data file via write_data, version 30 Jul 2016, timestep = 50400000

180 atoms
2 atom types

0.0000000000000000e+00 2.0000000000000000e+01 xlo xhi
0.0000000000000000e+00 2.0000000000000000e+01 ylo yhi
0.0000000000000000e+00 2.0000000000000000e+01 zlo zhi

Masses

1 3.896
2 4.31

Atoms # meso-molecular

17 1 2 1.0279983819383136e+00 -3.1653427215220711e+02 1.0000000000000000e+00 5.6363063973679828e-01 2.5000629776678687e+00 9.2173412365735050e+00 
177 1 2 1.0279983819383167e+00 -4.0392018418897374e+02 1.0000000000000000e+00 5.6363063525284274e-01 2.5000629695568271e+00 9.2173412511917956e+00 
47 1 2 1.0279983819383145e+00 -3.1350386797674895e+02 1.0000000000000000e+00 5.6363063973726912e-01 2.5000629776681156e+00 9.2173412365734837e+00 
152 1 2 1.0279983819383081e+00 -3.9812709859947620e+02 1.0000000000000000e+00 5.6363063981879269e-01 2.5000629778154448e+00 9.2173412363079894e+00 
122 1 2 1.0279983819420890e+00 -3.2408449749549322e+02 1.0000000000000000e+00 5.6363011913834238e-01 2.5000620082117848e+00 9.2173430027006518e+00 
11 1 2 1.0279983819383143e+00 -3.9060220256249170e+02 1.0000000000000000e+00 5.6363063973698357e-01 2.5000629776680081e+00 9.2173412365734002e+00 
53 1 2 1.0279983819383143e+00 -2.8365497173021993e+02 1.0000000000000000e+00 5.6363063973709182e-01 2.5000629776681329e+00 9.2173412365732226e+00 
12 1 2 1.0279983819383138e+00 -3.8200642689170002e+02 1.0000000000000000e+00 5.6363063973716510e-01 2.5000629776680374e+00 9.2173412365735459e+00 
18 1 2 1.0279983819383134e+00 -3.9351444149973503e+02 1.0000000000000000e+00 5.6363063973712824e-01 2.5000629776680587e+00 9.2173412365734393e+00 
54 1 2 1.0279983819383141e+00 -3.2898867199737720e+02 1.0000000000000000e+00 5.6363063973679794e-01 2.5000629776678318e+00 9.2173412365736045e+00 
157 1 2 1.0280014418104704e+00 -2.9526984298824829e+02 1.0000000000000000e+00 1.2047214454837976e+00 1.9429111795108229e+00 1.2611090189748037e+01 
75 1 2 1.0280014323254489e+00 -2.5962328354362450e+02 1.0000000000000000e+00 1.0414736910681055e+00 1.9708020531361561e+00 1.2704773786064997e+01 
148 1 2 1.0280014323254305e+00 -4.3075006142339595e+02 1.0000000000000000e+00 1.0414736885929998e+00 1.9708020567416999e+00 1.2704773788601489e+01 
115 1 2 1.0280014323239277e+00 -3.2985721641387238e+02 1.0000000000000000e+00 1.0414735456235735e+00 1.9708024284248067e+00 1.2704774025727495e+01 
145 1 2 1.0280014323255686e+00 -4.7108660416333367e+02 1.0000000000000000e+00 1.0414737051666201e+00 1.9708020169803506e+00 1.2704773762957061e+01 
164 1 2 1.0280014323256366e+00 -3.3870663318786950e+02 1.0000000000000000e+00 1.0414737134018124e+00 1.9708019956673770e+00 1.2704773749351910e+01 
23 1 2 1.0280014323248881e+00 -3.4390396947740140e+02 1.0000000000000000e+00 1.0414736357710683e+00 1.9708021910153084e+00 1.2704773874519887e+01 
28 1 2 1.0280014323248363e+00 -4.0008612328662849e+02 1.0000000000000000e+00 1.0414736295393350e+00 1.9708022068951569e+00 1.2704773884677607e+01 
178 1 2 1.0280014323256899e+00 -3.0627749730255022e+02 1.0000000000000000e+00 1.0414737179186395e+00 1.9708019824080751e+00 1.2704773741019375e+01 
51 1 2 1.0280014323263900e+00 -2.8141668974199541e+02 1.0000000000000000e+00 1.0414737856298462e+00 1.9708018106421410e+00 1.2704773631079956e+01 
132 1 2 1.0280014322933975e+00 -3.4291047931318110e+02 1.0000000000000000e+00 1.0414703881839655e+00 1.9708100805703277e+00 1.2704778953981840e+01 
19 1 2 1.0280014321176556e+00 -4.8092043342722053e+02 1.0000000000000000e+00 1.0414534435839669e+00 1.9708544970638944e+00 1.2704807255901448e+01 
165 1 2 1.0280014319449120e+00 -3.3261798600724603e+02 1.0000000000000000e+00 1.0414423728811364e+00 1.9708997748064494e+00 1.2704834754293842e+01 
38 1 2 1.0280001565662027e+00 -3.4417069294111838e+02 1.0000000000000000e+00 1.1961712448122299e+00 5.4902258311927472e+00 1.0474438360749639e+01 
62 1 2 1.0280001567638399e+00 -2.2392349058758035e+02 1.0000000000000000e+00 1.1961122593805491e+00 5.4904254387219664e+00 1.0474770512293272e+01 
153 1 2 1.0280001564201733e+00 -4.8177488587342242e+02 1.0000000000000000e+00 1.1961097272680496e+00 5.4901960785461528e+00 1.0474126842859404e+01 
20 1 2 1.0280003548991423e+00 -2.3327041128794988e+02 1.0000000000000000e+00 1.1335277056214155e+00 5.5461164897422348e+00 1.1141209379433999e+01 
103 1 2 1.0280003694806963e+00 -2.9417122939571374e+02 1.0000000000000000e+00 1.1149752744346138e+00 5.5715908582536429e+00 1.1133851757623841e+01 
8 1 2 1.0280003709832306e+00 -4.9362495814136605e+02 1.0000000000000000e+00 1.1122048905757649e+00 5.5742346599160104e+00 1.1135036064197987e+01 
2 1 2 1.0280003709857819e+00 -3.5945960205465872e+02 1.0000000000000000e+00 1.1122010148398498e+00 5.5742391127778772e+00 1.1135036072821144e+01 
1 1 2 1.0280003709846737e+00 -3.8857216726426611e+02 1.0000000000000000e+00 1.1122026913495962e+00 5.5742371866127742e+00 1.1135036069124414e+01 
150 1 2 1.0280003714885182e+00 -3.0034668052490053e+02 1.0000000000000000e+00 1.1107656628191738e+00 5.5751210053549620e+00 1.1136677382962343e+01 
58 1 2 1.0280001695418484e+00 -3.1020372674700354e+02 1.0000000000000000e+00 1.1002353786337422e+00 5.5996596897735147e+00 1.0456959427408654e+01 
129 1 2 1.0280005034553537e+00 -3.1083548109586559e+02 1.0000000000000000e+00 5.1754665259682409e-01 5.9392215815356062e+00 1.1211559068152168e+01 
176 1 2 1.0280005018948490e+00 -2.5127176795771223e+02 1.0000000000000000e+00 5.0982645615339162e-01 5.9451420064787648e+00 1.1204272411347812e+01 
143 1 2 1.0279994308060079e+00 -2.1836070240933563e+02 1.0000000000000000e+00 8.5074627427972349e-01 7.5522007114455700e+00 1.7988438062743594e+01 
167 1 2 1.0279994505938119e+00 -3.7886304880158423e+02 1.0000000000000000e+00 8.4731217412191651e-01 7.5511041643855616e+00 1.7978464629865073e+01 
174 1 2 1.0279994683290063e+00 -4.3972260113462346e+02 1.0000000000000000e+00 8.4531580463928913e-01 7.5481394605683976e+00 1.7972102618987169e+01 
144 1 2 1.0279994683292404e+00 -4.0851314155458340e+02 1.0000000000000000e+00 8.4531576908461570e-01 7.5481394322846773e+00 1.7972102515260133e+01 
180 1 2 1.0279994683278189e+00 -4.6804959786609925e+02 1.0000000000000000e+00 8.4531603604424221e-01 7.5481394916626003e+00 1.7972103244279026e+01 
102 1 2 1.0279994683291815e+00 -3.6391306549300600e+02 1.0000000000000000e+00 8.4531577968237426e-01 7.5481394429802222e+00 1.7972102546915618e+01 
106 1 2 1.0279994646079100e+00 -4.0299382742124908e+02 1.0000000000000000e+00 8.4532633134437929e-01 7.5494743067418648e+00 1.7972568017164296e+01 
138 1 2 1.0279994683291342e+00 -3.8230204311682434e+02 1.0000000000000000e+00 8.4531578849601519e-01 7.5481394504507424e+00 1.7972102572778173e+01 
133 1 2 1.0279994683294496e+00 -3.0438542533181374e+02 1.0000000000000000e+00 8.4531574077654847e-01 7.5481393974870183e+00 1.7972102428676703e+01 
108 1 2 1.0279994683299427e+00 -3.1085003670650678e+02 1.0000000000000000e+00 8.4531568306205840e-01 7.5481393136945165e+00 1.7972102247968376e+01 
142 1 2 1.0279994699813133e+00 -3.7418144302432722e+02 1.0000000000000000e+00 8.4512392398556713e-01 7.5478692490639245e+00 1.7971505341560533e+01 
173 1 2 1.0279994702972164e+00 -3.8091630819175680e+02 1.0000000000000000e+00 8.4465099105798025e-01 7.5485703173805554e+00 1.7970482658313383e+01 
118 1 2 1.0280029900085157e+00 -3.3455999198658941e+02 1.0000000000000000e+00 1.5327209618230471e+01 1.5247748951223157e+00 2.9624034962492898e+00 
44 1 2 1.0280029906906032e+00 -2.8657843388907185e+02 1.0000000000000000e+00 1.5327197841328362e+01 1.5237960998396796e+00 2.9625987408918655e+00 
162 1 2 1.0280029890505626e+00 -3.4094261158181723e+02 1.0000000000000000e+00 1.5326397698903712e+01 1.5263196583412539e+00 2.9626029349178062e+00 
168 1 2 1.0280029890505580e+00 -3.6562642866264002e+02 1.0000000000000000e+00 1.5326397698296244e+01 1.5263196617471286e+00 2.9626029346449307e+00 
94 1 2 1.0280029890505593e+00 -2.9169793437273819e+02 1.0000000000000000e+00 1.5326397699561248e+01 1.5263196546211322e+00 2.9626029352194516e+00 
130 1 2 1.0280029890505615e+00 -3.7509780799520428e+02 1.0000000000000000e+00 1.5326397699468687e+01 1.5263196551416125e+00 2.9626029351776029e+00 
60 1 2 1.0280029890479880e+00 -3.7303586866094821e+02 1.0000000000000000e+00 1.5326396981024624e+01 1.5263233735235251e+00 2.9626026708620365e+00 
88 1 2 1.0280029890505582e+00 -2.6331786395740596e+02 1.0000000000000000e+00 1.5326397699603616e+01 1.5263196543862456e+00 2.9626029352379764e+00 
124 1 2 1.0280029890505584e+00 -3.0474539953463767e+02 1.0000000000000000e+00 1.5326397699622991e+01 1.5263196542784330e+00 2.9626029352465237e+00 
14 1 2 1.0280029892329310e+00 -3.4371706272300099e+02 1.0000000000000000e+00 1.5326200333023282e+01 1.5261138110184467e+00 2.9627617944484199e+00 
55 1 2 1.0280029900994232e+00 -4.3687841174826491e+02 1.0000000000000000e+00 1.5325908660985343e+01 1.5249647201897869e+00 2.9631577577777208e+00 
50 1 2 1.0279996854922144e+00 -2.5930009639065281e+02 1.0000000000000000e+00 1.7286379452122276e+01 6.3303563216409593e+00 2.0910387564837523e+00 
95 1 2 1.0279996826859530e+00 -2.7804517805446699e+02 1.0000000000000000e+00 1.7692802802589977e+01 6.2031068033148102e+00 2.0733106727650163e+00 
134 1 2 1.0279995102994097e+00 -3.0525236720966842e+02 1.0000000000000000e+00 1.7975025636436207e+01 6.1032021149410829e+00 2.3255723078873296e+00 
93 1 2 1.0279993097125131e+00 -3.0546180375848746e+02 1.0000000000000000e+00 1.6263443164725906e+01 7.7593107892282482e+00 2.4739478602572582e+00 
169 1 2 1.0279989945962593e+00 -2.3124531431950587e+02 1.0000000000000000e+00 1.6347180519478112e+01 8.2245919752995764e+00 2.9449526915773623e+00 
37 1 2 1.0279989928364754e+00 -3.7171579277978304e+02 1.0000000000000000e+00 1.6343445757324499e+01 8.2175006026818949e+00 2.9467885191835119e+00 
42 1 2 1.0279989928364797e+00 -3.3028025974751125e+02 1.0000000000000000e+00 1.6343445757332670e+01 8.2175006026942956e+00 2.9467885192119820e+00 
112 1 2 1.0279989928366406e+00 -3.6929032937132763e+02 1.0000000000000000e+00 1.6343445593739791e+01 8.2175003549988670e+00 2.9467879380208406e+00 
147 1 2 1.0279989928349598e+00 -4.3579885982245349e+02 1.0000000000000000e+00 1.6343447161004455e+01 8.2175027295761165e+00 2.9467934896807222e+00 
73 1 2 1.0279989928364750e+00 -3.1515580904879982e+02 1.0000000000000000e+00 1.6343445757323817e+01 8.2175006026809303e+00 2.9467885191804064e+00 
48 1 2 1.0279989928364774e+00 -3.3194599518040275e+02 1.0000000000000000e+00 1.6343445757338458e+01 8.2175006027030957e+00 2.9467885192322942e+00 
43 1 2 1.0279989928364770e+00 -3.0858288727794752e+02 1.0000000000000000e+00 1.6343445757553280e+01 8.2175006030284408e+00 2.9467885199946493e+00 
140 1 2 1.0279989929849493e+00 -3.4719026617880974e+02 1.0000000000000000e+00 1.6343311711395899e+01 8.2172987147764491e+00 2.9462990739459509e+00 
79 1 2 1.0279989124921023e+00 -3.4369608573008202e+02 1.0000000000000000e+00 1.9570219806151375e+01 6.9207120643562359e+00 2.6247058380101267e+00 
46 1 2 1.0279989124603179e+00 -3.4454405718630051e+02 1.0000000000000000e+00 1.9570139292577540e+01 6.9205255053035462e+00 2.6248654981594348e+00 
125 1 2 1.0280006140504965e+00 -2.9418795188995540e+02 1.0000000000000000e+00 1.8998837139981077e+01 7.1975982921268384e+00 4.4109051764032386e-01 
15 1 2 1.0279992922891401e+00 -3.3417305283635608e+02 1.0000000000000000e+00 1.9597830852384373e+01 8.8476551325325428e+00 2.9401118423457882e+00 
39 1 2 1.0279992923008823e+00 -3.3892240705579439e+02 1.0000000000000000e+00 1.9597831574277524e+01 8.8476570473033807e+00 2.9401068598172118e+00 
56 1 2 1.0279992922805776e+00 -1.6489659870912575e+02 1.0000000000000000e+00 1.9597830393739066e+01 8.8476536753444002e+00 2.9401154322270608e+00 
63 1 2 1.0279992922807237e+00 -2.8876479475786670e+02 1.0000000000000000e+00 1.9597830388080343e+01 8.8476537099984913e+00 2.9401153837235214e+00 
4 1 2 1.0279992922695655e+00 -4.0957075720064489e+02 1.0000000000000000e+00 1.9597829784614447e+01 8.8476518295791386e+00 2.9401200420904541e+00 
113 1 2 1.0279992922869092e+00 -3.1364051914022247e+02 1.0000000000000000e+00 1.9597830725648826e+01 8.8476547524775224e+00 2.9401127944713861e+00 
149 1 2 1.0279992922879111e+00 -3.0056842548085825e+02 1.0000000000000000e+00 1.9597830776917728e+01 8.8476549325557343e+00 2.9401123628773673e+00 
117 1 2 1.0279992922776149e+00 -3.3383285090247296e+02 1.0000000000000000e+00 1.9597830226232794e+01 8.8476531856089000e+00 2.9401166684637565e+00 
163 1 2 1.0279992923412775e+00 -3.4619192749749476e+02 1.0000000000000000e+00 1.9597834035668480e+01 8.8476636531666131e+00 2.9400897349900204e+00 
91 1 2 1.0280005728070294e+00 -3.6186436746252815e+02 1.0000000000000000e+00 1.7879385720106306e+01 7.3841380863174964e+00 1.4409943501675243e-01 
128 1 2 1.0279999427012514e+00 -2.7546391932226584e+02 1.0000000000000000e+00 1.9222563556587453e+01 7.0910016453107962e+00 1.1113077856633530e-01 
137 1 2 1.0280014498228673e+00 -3.3872549028368491e+02 1.0000000000000000e+00 1.7755776761910493e+01 6.9292435272588353e+00 9.0482487181174839e-02 
101 1 2 1.0280012404405847e+00 -3.0705836966749774e+02 1.0000000000000000e+00 1.7743422503073422e+01 6.8615858165291268e+00 3.6188038489565005e-02 
22 1 2 1.0280008402420402e+00 -3.1502715174168333e+02 1.0000000000000000e+00 1.5501907825038348e+01 9.1568178829332214e-01 3.8264979953731975e+00 
64 1 2 1.0279967832706953e+00 -2.8965382612055424e+02 1.0000000000000000e+00 1.6884751116347847e+01 2.1992956493928530e+00 5.3645813191635723e+00 
74 1 2 1.0279967834990313e+00 -4.7235375672746807e+02 1.0000000000000000e+00 1.6884704424764188e+01 2.1992625768301899e+00 5.3646075065954575e+00 
24 1 2 1.0279967833280628e+00 -3.2816812764933411e+02 1.0000000000000000e+00 1.6884739121518002e+01 2.1992874693148345e+00 5.3645880314682373e+00 
66 1 2 1.0279967833262853e+00 -3.6614151747722116e+02 1.0000000000000000e+00 1.6884739462436670e+01 2.1992877394115560e+00 5.3645878388022306e+00 
85 1 2 1.0279967833611832e+00 -2.9500769390851434e+02 1.0000000000000000e+00 1.6884733019717427e+01 2.1992823306986433e+00 5.3645914950866134e+00 
121 1 2 1.0279967833611532e+00 -2.7440137201610565e+02 1.0000000000000000e+00 1.6884733025745110e+01 2.1992823359652962e+00 5.3645914916555206e+00 
166 1 2 1.0279967833178314e+00 -4.0463896795385278e+02 1.0000000000000000e+00 1.6884741001963551e+01 2.1992890616636576e+00 5.3645869635815160e+00 
34 1 2 1.0279967832708532e+00 -4.9323138369546524e+02 1.0000000000000000e+00 1.6884751099778086e+01 2.1992956193909134e+00 5.3645813293794786e+00 
49 1 2 1.0279967832708359e+00 -3.7528242689966459e+02 1.0000000000000000e+00 1.6884751102100569e+01 2.1992956236739136e+00 5.3645813279436192e+00 
35 1 2 1.0279967832708443e+00 -3.2646263935389715e+02 1.0000000000000000e+00 1.6884751100728153e+01 2.1992956211023698e+00 5.3645813287941708e+00 
59 1 2 1.0279967832708243e+00 -2.5026264247337753e+02 1.0000000000000000e+00 1.6884751103035629e+01 2.1992956253224842e+00 5.3645813273693816e+00 
45 1 2 1.0280036772998102e+00 -4.1083434415681495e+02 1.0000000000000000e+00 1.8148748254065826e+01 6.5021564884891214e+00 4.2454560859322150e+00 
123 1 2 1.0280036802145174e+00 -2.4102498223891720e+02 1.0000000000000000e+00 1.8152697796472417e+01 6.5593280857299892e+00 4.2904368156609101e+00 
52 1 2 1.0280036669046766e+00 -2.9771671063653383e+02 1.0000000000000000e+00 1.8155595882985654e+01 6.5754888079202445e+00 4.3020808452027008e+00 
171 1 2 1.0280002519804667e+00 -2.9766584788521970e+02 1.0000000000000000e+00 1.8979681811179141e+01 6.4510802038527677e+00 3.7522465786985464e+00 
81 1 2 1.0280038639542923e+00 -3.2035514296555391e+02 1.0000000000000000e+00 1.8227315860277663e+01 6.5509983598469352e+00 4.2814817344830480e+00 
10 1 2 1.0280039190196724e+00 -2.7331885057057116e+02 1.0000000000000000e+00 1.8264458522229088e+01 6.5438910005391424e+00 4.2728352090901351e+00 
57 1 2 1.0280039146285178e+00 -2.6898408771905770e+02 1.0000000000000000e+00 1.8260590971205300e+01 6.5446979241378687e+00 4.2738527928317369e+00 
40 1 2 1.0280039399864411e+00 -2.9873096375675925e+02 1.0000000000000000e+00 1.8327690685620837e+01 6.5276655074193828e+00 4.2514245858306809e+00 
127 1 2 1.0280033235365431e+00 -3.6873482227329629e+02 1.0000000000000000e+00 1.9042446537581466e+01 4.3474549727547158e+00 7.4281645347739405e+00 
136 1 2 1.0280033235354584e+00 -3.8035349894943067e+02 1.0000000000000000e+00 1.9042446056896345e+01 4.3474549798825235e+00 7.4281646594875612e+00 
99 1 2 1.0280033235362498e+00 -2.5865068712165231e+02 1.0000000000000000e+00 1.9042446771251139e+01 4.3474551282673195e+00 7.4281646383980862e+00 
9 1 2 1.0280033235362203e+00 -2.5773077930563613e+02 1.0000000000000000e+00 1.9042446730045818e+01 4.3474551172090443e+00 7.4281646370325269e+00 
179 1 2 1.0280033235362391e+00 -2.8413684618411287e+02 1.0000000000000000e+00 1.9042446553184099e+01 4.3474550382857027e+00 7.4281645986689853e+00 
111 1 2 1.0280033235366937e+00 -3.4416139460534691e+02 1.0000000000000000e+00 1.9042446612811762e+01 4.3474549755361451e+00 7.4281645192817241e+00 
170 1 2 1.0280033235395047e+00 -3.7815829935840588e+02 1.0000000000000000e+00 1.9042445858791993e+01 4.3474541055477411e+00 7.4281638045215512e+00 
158 1 2 1.0280033235363464e+00 -3.3603737519023838e+02 1.0000000000000000e+00 1.9042446503734759e+01 4.3474549965792830e+00 7.4281645676515335e+00 
82 1 2 1.0280033235368147e+00 -2.7930556042619475e+02 1.0000000000000000e+00 1.9042446588263704e+01 4.3474549413847408e+00 7.4281644899906834e+00 
70 1 2 1.0280033235363000e+00 -2.6578632252362706e+02 1.0000000000000000e+00 1.9042446808423630e+01 4.3474551340645222e+00 7.4281646353126582e+00 
67 1 2 1.0280033235360762e+00 -3.5688198436654056e+02 1.0000000000000000e+00 1.9042446697937823e+01 4.3474551320192321e+00 7.4281646601723450e+00 
159 1 2 1.0279993304396811e+00 -2.5761812347989627e+02 1.0000000000000000e+00 1.8156064682713435e+01 4.5610433114210238e+00 1.1094347849233303e+01 
86 1 2 1.0279993304396851e+00 -2.7310609969368011e+02 1.0000000000000000e+00 1.8156064682766942e+01 4.5610433113180777e+00 1.1094347849315731e+01 
7 1 2 1.0279993304396835e+00 -4.3164324203212215e+02 1.0000000000000000e+00 1.8156064683544507e+01 4.5610433098352550e+00 1.1094347850519151e+01 
87 1 2 1.0279993304396859e+00 -3.1679783977632962e+02 1.0000000000000000e+00 1.8156064683239439e+01 4.5610433104173511e+00 1.1094347850047120e+01 
104 1 2 1.0279993304396799e+00 -4.1092854141977665e+02 1.0000000000000000e+00 1.8156064682496655e+01 4.5610433118343945e+00 1.1094347848897806e+01 
154 1 2 1.0279993304396813e+00 -3.8118385956571046e+02 1.0000000000000000e+00 1.8156064683598796e+01 4.5610433097319225e+00 1.1094347850603270e+01 
172 1 2 1.0279993304396104e+00 -3.1607585029631241e+02 1.0000000000000000e+00 1.8156064651159937e+01 4.5610433717521657e+00 1.1094347800461779e+01 
92 1 2 1.0279993304396848e+00 -2.9947117593337083e+02 1.0000000000000000e+00 1.8156064682616304e+01 4.5610433116062916e+00 1.1094347849082965e+01 
160 1 2 1.0279993304398078e+00 -3.9178154396801091e+02 1.0000000000000000e+00 1.8156064729490591e+01 4.5610432226979452e+00 1.1094347921816128e+01 
89 1 2 1.0279993304409529e+00 -2.9623040095974619e+02 1.0000000000000000e+00 1.8156065173685310e+01 4.5610423764020531e+00 1.1094348609577631e+01 
76 1 2 1.0279993304405928e+00 -2.7104550543680330e+02 1.0000000000000000e+00 1.8156065032270245e+01 4.5610426454178494e+00 1.1094348390458144e+01 
3 1 2 1.0279995248086169e+00 -4.4830464773104444e+02 1.0000000000000000e+00 1.6953881760162929e+01 8.4282289664646850e+00 1.0708044003548208e+01 
13 1 2 1.0279995248134983e+00 -3.7555612807992145e+02 1.0000000000000000e+00 1.6953878307736733e+01 8.4282333200100901e+00 1.0708047457734320e+01 
175 1 2 1.0279995248120501e+00 -3.1673542577341016e+02 1.0000000000000000e+00 1.6953879387002381e+01 8.4282320647843019e+00 1.0708046341735482e+01 
78 1 2 1.0279995248131071e+00 -2.7685888909985374e+02 1.0000000000000000e+00 1.6953878566160419e+01 8.4282329700790708e+00 1.0708047207401744e+01 
77 1 2 1.0279995248134919e+00 -2.7246670705823249e+02 1.0000000000000000e+00 1.6953878297783486e+01 8.4282333246781818e+00 1.0708047470388975e+01 
114 1 2 1.0279995248133256e+00 -3.6109493325291913e+02 1.0000000000000000e+00 1.6953878421323644e+01 8.4282331899422669e+00 1.0708047339583439e+01 
16 1 2 1.0279995248135354e+00 -3.1337628658556201e+02 1.0000000000000000e+00 1.6953878263814413e+01 8.4282333641836260e+00 1.0708047505515035e+01 
96 1 2 1.0279995248134135e+00 -2.9964994553675837e+02 1.0000000000000000e+00 1.6953878367805824e+01 8.4282332511498410e+00 1.0708047395277489e+01 
156 1 2 1.0279995248134957e+00 -3.0040675512956147e+02 1.0000000000000000e+00 1.6953878306018201e+01 8.4282333214680492e+00 1.0708047459696253e+01 
98 1 2 1.0279995220519120e+00 -2.6948317654649429e+02 1.0000000000000000e+00 1.6957225769881475e+01 8.4260777108288512e+00 1.0704056020221804e+01 
31 1 2 1.0279995223429685e+00 -4.5414862536331566e+02 1.0000000000000000e+00 1.6957203135885678e+01 8.4263893419721629e+00 1.0703981423124466e+01 
139 1 2 1.0279995220386788e+00 -3.2276007579765036e+02 1.0000000000000000e+00 1.6957883962700564e+01 8.4262046480522503e+00 1.0703098772606181e+01 
155 1 2 1.0280000467785957e+00 -3.4063878829208767e+02 1.0000000000000000e+00 1.6997849353775777e+01 8.6508886473543356e+00 1.1366506530053918e+01 
6 1 2 1.0280000589974028e+00 -3.7612894047473026e+02 1.0000000000000000e+00 1.7806698131124861e+01 6.3192357539220474e+00 1.7970667593939556e+01 
5 1 2 1.0280000418720618e+00 -5.0138014821353579e+02 1.0000000000000000e+00 1.7793019727168041e+01 6.2951597780012074e+00 1.7999269518258895e+01 
36 1 2 1.0280000433288508e+00 -3.7847078916479273e+02 1.0000000000000000e+00 1.7794094581661302e+01 6.2972322774406164e+00 1.7996823689659831e+01 
72 1 2 1.0280000300527827e+00 -3.5540863376698974e+02 1.0000000000000000e+00 1.7784936550276239e+01 6.2781101204009024e+00 1.8019236184889792e+01 
105 1 2 1.0280001214177559e+00 -4.1193644672617393e+02 1.0000000000000000e+00 1.7873975597429407e+01 6.4047003208937934e+00 1.7868653920535916e+01 
141 1 2 1.0280000201206283e+00 -3.5359087684436207e+02 1.0000000000000000e+00 1.7741908449310550e+01 6.2908011794880361e+00 1.8058100951920267e+01 
41 1 2 1.0279999536071527e+00 -3.2521871405309827e+02 1.0000000000000000e+00 1.7757247878363010e+01 6.1570028873118687e+00 1.8163495109061305e+01 
107 1 2 1.0279999232329571e+00 -2.8564649012797923e+02 1.0000000000000000e+00 1.7755038376048169e+01 6.1034864631201762e+00 1.8240246033309397e+01 
71 1 2 1.0279999285525330e+00 -2.8896763416091136e+02 1.0000000000000000e+00 1.7755186000139240e+01 6.1131497473466698e+00 1.8225181894939116e+01 
61 1 2 1.0280002946989411e+00 -3.1328657603077983e+02 1.0000000000000000e+00 1.8221732399059668e+01 6.6527418382716874e+00 1.7592672378833647e+01 
100 1 2 1.0280006384253386e+00 -4.2545110582858155e+02 1.0000000000000000e+00 1.7692159413151245e+01 6.6728674253961850e+00 1.9848713982347942e+01 
146 1 2 1.0280010314752179e+00 -4.2663054084069927e+02 1.0000000000000000e+00 1.7729235505620430e+01 6.8020299569251517e+00 1.9981030324736199e+01 
65 1 2 1.0280004724641383e+00 -3.7511874696647322e+02 1.0000000000000000e+00 1.9612686163382136e+01 1.0131928049499285e+01 1.2354788655794826e+01 
119 1 2 1.0280004724641372e+00 -3.3155606637992787e+02 1.0000000000000000e+00 1.9612686163408632e+01 1.0131928049508504e+01 1.2354788655740311e+01 
21 1 2 1.0280004724642073e+00 -3.5293772542422806e+02 1.0000000000000000e+00 1.9612685972852425e+01 1.0131928007323150e+01 1.2354789021523032e+01 
68 1 2 1.0280004724641976e+00 -4.1064503663913399e+02 1.0000000000000000e+00 1.9612685968298869e+01 1.0131928007472832e+01 1.2354789028996739e+01 
27 1 2 1.0280004724628471e+00 -3.9229261287113485e+02 1.0000000000000000e+00 1.9612688564841594e+01 1.0131928901938737e+01 1.2354783694829793e+01 
69 1 2 1.0280004724641993e+00 -2.3911285017885919e+02 1.0000000000000000e+00 1.9612685956584816e+01 1.0131928005711602e+01 1.2354789050571767e+01 
26 1 2 1.0280004724642018e+00 -4.1574547035175902e+02 1.0000000000000000e+00 1.9612685956090267e+01 1.0131928005614748e+01 1.2354789051507217e+01 
33 1 2 1.0280004724641993e+00 -3.1926828064072697e+02 1.0000000000000000e+00 1.9612685955754344e+01 1.0131928005616205e+01 1.2354789052069085e+01 
25 1 2 1.0280004724641993e+00 -4.3840575129326595e+02 1.0000000000000000e+00 1.9612685956644025e+01 1.0131928005723372e+01 1.2354789050459575e+01 
32 1 2 1.0280004724641962e+00 -3.8776115073535169e+02 1.0000000000000000e+00 1.9612685963326950e+01 1.0131928006893387e+01 1.2354789037970098e+01 
97 1 2 1.0280004724634513e+00 -2.9040991777283995e+02 1.0000000000000000e+00 1.9612686992908817e+01 1.0131928588775343e+01 1.2354786674189237e+01 
161 1 2 1.0280004724641369e+00 -3.7728752881943780e+02 1.0000000000000000e+00 1.9612686162790357e+01 1.0131928049298946e+01 1.2354788657006695e+01 
30 1 2 1.0280004724641372e+00 -4.1414232926933533e+02 1.0000000000000000e+00 1.9612686163116319e+01 1.0131928049409453e+01 1.2354788656339009e+01 
116 1 2 1.0280009630467040e+00 -4.7385277129261084e+02 1.0000000000000000e+00 1.9472366106442315e+01 1.0795220081259725e+01 1.9964316354098106e+01 
29 1 2 1.0280009600311222e+00 -3.5318197502952995e+02 1.0000000000000000e+00 1.9472965937744274e+01 1.0795165498984803e+01 1.9964069835636295e+01 
135 1 2 1.0280009600442828e+00 -3.1177059761096660e+02 1.0000000000000000e+00 1.9472963694899356e+01 1.0795165810980414e+01 1.9964070981422047e+01 
109 1 2 1.0280009600305422e+00 -4.1086547308131099e+02 1.0000000000000000e+00 1.9472966057467264e+01 1.0795165488975393e+01 1.9964069788532925e+01 
110 1 2 1.0280009600169002e+00 -4.0426840172754146e+02 1.0000000000000000e+00 1.9472968881187803e+01 1.0795165263125076e+01 1.9964068699235863e+01 
120 1 2 1.0280009600169000e+00 -2.6709844927603257e+02 1.0000000000000000e+00 1.9472968881216641e+01 1.0795165263123438e+01 1.9964068699226164e+01 
126 1 2 1.0280009600169007e+00 -3.0482915722762340e+02 1.0000000000000000e+00 1.9472968881169546e+01 1.0795165263126774e+01 1.9964068699243420e+01 
83 1 2 1.0280009600169002e+00 -1.9625640412787118e+02 1.0000000000000000e+00 1.9472968881181114e+01 1.0795165263125359e+01 1.9964068699237909e+01 
151 1 2 1.0280009600169004e+00 -3.8998319989054181e+02 1.0000000000000000e+00 1.9472968881165617e+01 1.0795165263127268e+01 1.9964068699245310e+01 
131 1 2 1.0280009600168998e+00 -3.1130324119160764e+02 1.0000000000000000e+00 1.9472968881180069e+01 1.0795165263125394e+01 1.9964068699238208e+01 
80 1 2 1.0280009600169007e+00 -3.4610910808934551e+02 1.0000000000000000e+00 1.9472968881174111e+01 1.0795165263126185e+01 1.9964068699241178e+01 
84 1 2 1.0280009600168998e+00 -2.7491279036134108e+02 1.0000000000000000e+00 1.9472968881181654e+01 1.0795165263125774e+01 1.9964068699238670e+01 
90 1 2 1.0280009600169002e+00 -3.3962107643191359e+02 1.0000000000000000e+00 1.9472968881174509e+01 1.0795165263126135e+01 1.9964068699240983e+01 

Velocities

17 2.9411558240975727e-01 2.2382238496207413e-01 7.9622613364641159e-02
177 2.9411558241163926e-01 2.2382238496336657e-01 7.9622613358003982e-02
47 2.9411558240975805e-01 2.2382238496207499e-01 7.9622613364639369e-02
152 2.9411558240970764e-01 2.2382238496207438e-01 7.9622613364774719e-02
122 2.9411558263384430e-01 2.2382238510527816e-01 7.9622612557750633e-02
11 2.9411558240975877e-01 2.2382238496207230e-01 7.9622613364638523e-02
53 2.9411558240975888e-01 2.2382238496207366e-01 7.9622613364638842e-02
12 2.9411558240975993e-01 2.2382238496207155e-01 7.9622613364638647e-02
18 2.9411558240975733e-01 2.2382238496207427e-01 7.9622613364640535e-02
54 2.9411558240976055e-01 2.2382238496207196e-01 7.9622613364638384e-02
157 2.9414629757551480e-01 2.2356434689947963e-01 7.9384781871484372e-02
75 2.9407720131899440e-01 2.2357547853470391e-01 7.9425027555430114e-02
148 2.9407720131777376e-01 2.2357547853664508e-01 7.9425027555799305e-02
115 2.9407720124256670e-01 2.2357547872865680e-01 7.9425027595661460e-02
145 2.9407720132640164e-01 2.2357547851600232e-01 7.9425027551565913e-02
164 2.9407720133071596e-01 2.2357547850502030e-01 7.9425027549234778e-02
23 2.9407720129012754e-01 2.2357547860596155e-01 7.9425027570392617e-02
28 2.9407720128684828e-01 2.2357547861419944e-01 7.9425027572054011e-02
178 2.9407720133308707e-01 2.2357547849832582e-01 7.9425027547625843e-02
51 2.9407720136856436e-01 2.2357547840953423e-01 7.9425027529136563e-02
132 2.9407719960161505e-01 2.2357548268668781e-01 7.9425028429324029e-02
19 2.9407719068110783e-01 2.2357550561528167e-01 7.9425033200847497e-02
165 2.9407718429670737e-01 2.2357552878784567e-01 7.9425037769229836e-02
38 2.9410962613163655e-01 2.2380084825936497e-01 7.9343690100008760e-02
62 2.9410961709079303e-01 2.2380088592738903e-01 7.9343666716570893e-02
153 2.9410963328601286e-01 2.2380082817197408e-01 7.9343717473049857e-02
20 2.9408579271993812e-01 2.2384087633738856e-01 7.9328766162464454e-02
103 2.9408559423328312e-01 2.2384326090817702e-01 7.9330243636597672e-02
8 2.9408542450532854e-01 2.2384358103120766e-01 7.9330447353588976e-02
2 2.9408542435816526e-01 2.2384358149955949e-01 7.9330447640472562e-02
1 2.9408542442187380e-01 2.2384358129701315e-01 7.9330447516403627e-02
150 2.9408527824665254e-01 2.2384373240191083e-01 7.9330551001903740e-02
58 2.9410777269724825e-01 2.2381051768350413e-01 7.9349728926877985e-02
129 2.9403611236011695e-01 2.2387198432612168e-01 7.9348172674379686e-02
176 2.9403567620262033e-01 2.2387193828175334e-01 7.9347911444978866e-02
143 2.9664574149077810e-01 2.2260286876708621e-01 8.1110404079687407e-02
167 2.9664753078423706e-01 2.2260300178946907e-01 8.1111430082272423e-02
174 2.9664894514079027e-01 2.2260343037344446e-01 8.1111923025102464e-02
144 2.9664894516124302e-01 2.2260343037734684e-01 8.1111923034124123e-02
180 2.9664894503155803e-01 2.2260343037074859e-01 8.1111922963635855e-02
102 2.9664894515473628e-01 2.2260343037584462e-01 8.1111923031495364e-02
106 2.9664871256124759e-01 2.2260323099336454e-01 8.1111950969506949e-02
138 2.9664894514963003e-01 2.2260343037481226e-01 8.1111923029247898e-02