LAMMPS data file via write_data, version 30 Jul 2016, timestep = 600000

2080 atoms
8 atom types

0.0000000000000000e+00 4.0000000000000000e+01 xlo xhi
0.0000000000000000e+00 4.0000000000000000e+01 ylo yhi
0.0000000000000000e+00 1.0000000000000000e+02 zlo zhi

Masses

1 3.896
2 4.306
3 20.064
4 8.378
5 8.378
6 8.378
7 8.378
8 8.378

Atoms # meso-molecular

1 2 4 2.2559723595316457e+00 0.0000000000000000e+00 1.0000000000000000e+00 0.0000000000000000e+00 0.0000000000000000e+00 2.5000000000000000e+00 
2 2 4 2.2559723595316457e+00 0.0000000000000000e+00 1.0000000000000000e+00 0.0000000000000000e+00 2.0000000000000000e+00 2.5000000000000000e+00 
3 2 4 2.2559723595316457e+00 0.0000000000000000e+00 1.0000000000000000e+00 0.0000000000000000e+00 4.0000000000000000e+00 2.5000000000000000e+00 
4 2 4 2.2559723595316457e+00 0.0000000000000000e+00 1.0000000000000000e+00 0.0000000000000000e+00 6.0000000000000000e+00 2.5000000000000000e+00 
21 2 4 2.2559723595316457e+00 0.0000000000000000e+00 1.0000000000000000e+00 2.0000000000000000e+00 0.0000000000000000e+00 2.5000000000000000e+00 
22 2 4 2.2559723595316457e+00 0.0000000000000000e+00 1.0000000000000000e+00 2.0000000000000000e+00 2.0000000000000000e+00 2.5000000000000000e+00 
23 2 4 2.2559723595316457e+00 0.0000000000000000e+00 1.0000000000000000e+00 2.0000000000000000e+00 4.0000000000000000e+00 2.5000000000000000e+00 
24 2 4 2.2559723595316457e+00 0.0000000000000000e+00 1.0000000000000000e+00 2.0000000000000000e+00 6.0000000000000000e+00 2.5000000000000000e+00 
41 2 4 2.2559723595316457e+00 0.0000000000000000e+00 1.0000000000000000e+00 4.0000000000000000e+00 0.0000000000000000e+00 2.5000000000000000e+00 
42 2 4 2.2559723595316457e+00 0.0000000000000000e+00 1.0000000000000000e+00 4.0000000000000000e+00 2.0000000000000000e+00 2.5000000000000000e+00 
43 2 4 2.2559723595316457e+00 0.0000000000000000e+00 1.0000000000000000e+00 4.0000000000000000e+00 4.0000000000000000e+00 2.5000000000000000e+00 
44 2 4 2.2559723595316457e+00 0.0000000000000000e+00 1.0000000000000000e+00 4.0000000000000000e+00 6.0000000000000000e+00 2.5000000000000000e+00 
61 2 4 2.2559723595316457e+00 0.0000000000000000e+00 1.0000000000000000e+00 6.0000000000000000e+00 0.0000000000000000e+00 2.5000000000000000e+00 
62 2 4 2.2559723595316457e+00 0.0000000000000000e+00 1.0000000000000000e+00 6.0000000000000000e+00 2.0000000000000000e+00 2.5000000000000000e+00 
63 2 4 2.2559723595316457e+00 0.0000000000000000e+00 1.0000000000000000e+00 6.0000000000000000e+00 4.0000000000000000e+00 2.5000000000000000e+00 
64 2 4 2.2559723595316457e+00 0.0000000000000000e+00 1.0000000000000000e+00 6.0000000000000000e+00 6.0000000000000000e+00 2.5000000000000000e+00 
81 2 4 2.2559723595316457e+00 0.0000000000000000e+00 1.0000000000000000e+00 8.0000000000000000e+00 0.0000000000000000e+00 2.5000000000000000e+00 
82 2 4 2.2559723595316457e+00 0.0000000000000000e+00 1.0000000000000000e+00 8.0000000000000000e+00 2.0000000000000000e+00 2.5000000000000000e+00 
83 2 4 2.2559723595316457e+00 0.0000000000000000e+00 1.0000000000000000e+00 8.0000000000000000e+00 4.0000000000000000e+00 2.5000000000000000e+00 
84 2 4 2.2559723595316457e+00 0.0000000000000000e+00 1.0000000000000000e+00 8.0000000000000000e+00 6.0000000000000000e+00 2.5000000000000000e+00 
101 2 4 2.2559723595316457e+00 0.0000000000000000e+00 1.0000000000000000e+00 1.0000000000000000e+01 0.0000000000000000e+00 2.5000000000000000e+00 
102 2 4 2.2559723595316457e+00 0.0000000000000000e+00 1.0000000000000000e+00 1.0000000000000000e+01 2.0000000000000000e+00 2.5000000000000000e+00 
103 2 4 2.2559723595316457e+00 0.0000000000000000e+00 1.0000000000000000e+00 1.0000000000000000e+01 4.0000000000000000e+00 2.5000000000000000e+00 
104 2 4 2.2559723595316457e+00 5.6751451728641990e-06 1.0000000000000000e+00 1.0000000000000000e+01 6.0000000000000000e+00 2.5000000000000000e+00 
121 2 4 2.2559723595316457e+00 0.0000000000000000e+00 1.0000000000000000e+00 1.2000000000000000e+01 0.0000000000000000e+00 2.5000000000000000e+00 
122 2 4 2.2559723595316457e+00 0.0000000000000000e+00 1.0000000000000000e+00 1.2000000000000000e+01 2.0000000000000000e+00 2.5000000000000000e+00 
123 2 4 2.2559723595316457e+00 0.0000000000000000e+00 1.0000000000000000e+00 1.2000000000000000e+01 4.0000000000000000e+00 2.5000000000000000e+00 
124 2 4 2.2559723595316457e+00 -9.5683994940559707e+00 1.0000000000000000e+00 1.2000000000000000e+01 6.0000000000000000e+00 2.5000000000000000e+00 
141 2 4 2.2559723595316457e+00 0.0000000000000000e+00 1.0000000000000000e+00 1.4000000000000000e+01 0.0000000000000000e+00 2.5000000000000000e+00 
142 2 4 2.2559723595316457e+00 0.0000000000000000e+00 1.0000000000000000e+00 1.4000000000000000e+01 2.0000000000000000e+00 2.5000000000000000e+00 
143 2 4 2.2559723595316457e+00 -2.8954300419754136e-01 1.0000000000000000e+00 1.4000000000000000e+01 4.0000000000000000e+00 2.5000000000000000e+00 
144 2 4 2.2559723595316457e+00 -1.0375951938109903e+02 1.0000000000000000e+00 1.4000000000000000e+01 6.0000000000000000e+00 2.5000000000000000e+00 
161 2 4 2.2559723595316457e+00 0.0000000000000000e+00 1.0000000000000000e+00 1.6000000000000000e+01 0.0000000000000000e+00 2.5000000000000000e+00 
162 2 4 2.2559723595316457e+00 0.0000000000000000e+00 1.0000000000000000e+00 1.6000000000000000e+01 2.0000000000000000e+00 2.5000000000000000e+00 
163 2 4 2.2559723595316457e+00 -3.0338890895151600e+00 1.0000000000000000e+00 1.6000000000000000e+01 4.0000000000000000e+00 2.5000000000000000e+00 
164 2 4 2.2559723595316457e+00 -2.8886101964639244e+02 1.0000000000000000e+00 1.6000000000000000e+01 6.0000000000000000e+00 2.5000000000000000e+00 
181 2 4 2.2559723595316457e+00 0.0000000000000000e+00 1.0000000000000000e+00 1.8000000000000000e+01 0.0000000000000000e+00 2.5000000000000000e+00 
182 2 4 2.2559723595316457e+00 0.0000000000000000e+00 1.0000000000000000e+00 1.8000000000000000e+01 2.0000000000000000e+00 2.5000000000000000e+00 
183 2 4 2.2559723595316457e+00 -4.1590627600863126e+00 1.0000000000000000e+00 1.8000000000000000e+01 4.0000000000000000e+00 2.5000000000000000e+00 
184 2 4 2.2559723595316457e+00 -4.2129905508322230e+02 1.0000000000000000e+00 1.8000000000000000e+01 6.0000000000000000e+00 2.5000000000000000e+00 
5 2 4 2.2559723595316457e+00 0.0000000000000000e+00 1.0000000000000000e+00 0.0000000000000000e+00 8.0000000000000000e+00 2.5000000000000000e+00 
6 2 4 2.2559723595316457e+00 0.0000000000000000e+00 1.0000000000000000e+00 0.0000000000000000e+00 1.0000000000000000e+01 2.5000000000000000e+00 
7 2 4 2.2559723595316457e+00 0.0000000000000000e+00 1.0000000000000000e+00 0.0000000000000000e+00 1.2000000000000000e+01 2.5000000000000000e+00 
25 2 4 2.2559723595316457e+00 0.0000000000000000e+00 1.0000000000000000e+00 2.0000000000000000e+00 8.0000000000000000e+00 2.5000000000000000e+00 
26 2 4 2.2559723595316457e+00 0.0000000000000000e+00 1.0000000000000000e+00 2.0000000000000000e+00 1.0000000000000000e+01 2.5000000000000000e+00 
27 2 4 2.2559723595316457e+00 0.0000000000000000e+00 1.0000000000000000e+00 2.0000000000000000e+00 1.2000000000000000e+01 2.5000000000000000e+00 
45 2 4 2.2559723595316457e+00 0.0000000000000000e+00 1.0000000000000000e+00 4.0000000000000000e+00 8.0000000000000000e+00 2.5000000000000000e+00 
46 2 4 2.2559723595316457e+00 0.0000000000000000e+00 1.0000000000000000e+00 4.0000000000000000e+00 1.0000000000000000e+01 2.5000000000000000e+00 
47 2 4 2.2559723595316457e+00 0.0000000000000000e+00 1.0000000000000000e+00 4.0000000000000000e+00 1.2000000000000000e+01 2.5000000000000000e+00 
65 2 4 2.2559723595316457e+00 0.0000000000000000e+00 1.0000000000000000e+00 6.0000000000000000e+00 8.0000000000000000e+00 2.5000000000000000e+00 
66 2 4 2.2559723595316457e+00 0.0000000000000000e+00 1.0000000000000000e+00 6.0000000000000000e+00 1.0000000000000000e+01 2.5000000000000000e+00 
67 2 4 2.2559723595316457e+00 2.3752135204456351e-04 1.0000000000000000e+00 6.0000000000000000e+00 1.2000000000000000e+01 2.5000000000000000e+00 
85 2 4 2.2559723595316457e+00 0.0000000000000000e+00 1.0000000000000000e+00 8.0000000000000000e+00 8.0000000000000000e+00 2.5000000000000000e+00 
86 2 4 2.2559723595316457e+00 0.0000000000000000e+00 1.0000000000000000e+00 8.0000000000000000e+00 1.0000000000000000e+01 2.5000000000000000e+00 
87 2 4 2.2559723595316457e+00 2.0083599553821877e-05 1.0000000000000000e+00 8.0000000000000000e+00 1.2000000000000000e+01 2.5000000000000000e+00 
105 2 4 2.2559723595316457e+00 -2.8919296925639071e-01 1.0000000000000000e+00 1.0000000000000000e+01 8.0000000000000000e+00 2.5000000000000000e+00 
106 2 4 2.2559723595316457e+00 -3.0335155764760495e+00 1.0000000000000000e+00 1.0000000000000000e+01 1.0000000000000000e+01 2.5000000000000000e+00 
107 2 4 2.2559723595316457e+00 -4.1900910215889571e+00 1.0000000000000000e+00 1.0000000000000000e+01 1.2000000000000000e+01 2.5000000000000000e+00 
125 2 4 2.2559723595316457e+00 -1.0372985335421430e+02 1.0000000000000000e+00 1.2000000000000000e+01 8.0000000000000000e+00 2.5000000000000000e+00 
126 2 4 2.2559723595316457e+00 -2.8927136152776023e+02 1.0000000000000000e+00 1.2000000000000000e+01 1.0000000000000000e+01 2.5000000000000000e+00 
127 2 4 2.2559723595316457e+00 -4.2947885416580169e+02 1.0000000000000000e+00 1.2000000000000000e+01 1.2000000000000000e+01 2.5000000000000000e+00 
145 2 4 2.2559723595316457e+00 -6.3603551519545988e+02 1.0000000000000000e+00 1.4000000000000000e+01 8.0000000000000000e+00 2.5000000000000000e+00 
146 2 4 2.2559723595316457e+00 -1.5497993846357726e+03 1.0000000000000000e+00 1.4000000000000000e+01 1.0000000000000000e+01 2.5000000000000000e+00 
147 2 4 2.2559723595316457e+00 -2.2532391976320419e+03 1.0000000000000000e+00 1.4000000000000000e+01 1.2000000000000000e+01 2.5000000000000000e+00 
165 2 4 2.2559723595316457e+00 -1.5459095202887863e+03 1.0000000000000000e+00 1.6000000000000000e+01 8.0000000000000000e+00 2.5000000000000000e+00 
166 2 4 2.2559723595316457e+00 -3.6075477228544360e+03 1.0000000000000000e+00 1.6000000000000000e+01 1.0000000000000000e+01 2.5000000000000000e+00 
167 2 4 2.2559723595316457e+00 -5.1945441142645850e+03 1.0000000000000000e+00 1.6000000000000000e+01 1.2000000000000000e+01 2.5000000000000000e+00 
185 2 4 2.2559723595316457e+00 -2.2091481296714510e+03 1.0000000000000000e+00 1.8000000000000000e+01 8.0000000000000000e+00 2.5000000000000000e+00 
186 2 4 2.2559723595316457e+00 -5.1209657122147673e+03 1.0000000000000000e+00 1.8000000000000000e+01 1.0000000000000000e+01 2.5000000000000000e+00 
187 2 4 2.2559723595316457e+00 -7.3469392128567852e+03 1.0000000000000000e+00 1.8000000000000000e+01 1.2000000000000000e+01 2.5000000000000000e+00 
8 2 4 2.2559723595316457e+00 0.0000000000000000e+00 1.0000000000000000e+00 0.0000000000000000e+00 1.4000000000000000e+01 2.5000000000000000e+00 
9 2 4 2.2559723595316457e+00 0.0000000000000000e+00 1.0000000000000000e+00 0.0000000000000000e+00 1.6000000000000000e+01 2.5000000000000000e+00 
10 2 4 2.2559723595316457e+00 0.0000000000000000e+00 1.0000000000000000e+00 0.0000000000000000e+00 1.8000000000000000e+01 2.5000000000000000e+00 
28 2 4 2.2559723595316457e+00 0.0000000000000000e+00 1.0000000000000000e+00 2.0000000000000000e+00 1.4000000000000000e+01 2.5000000000000000e+00 
29 2 4 2.2559723595316457e+00 0.0000000000000000e+00 1.0000000000000000e+00 2.0000000000000000e+00 1.6000000000000000e+01 2.5000000000000000e+00 
30 2 4 2.2559723595316457e+00 0.0000000000000000e+00 1.0000000000000000e+00 2.0000000000000000e+00 1.8000000000000000e+01 2.5000000000000000e+00 
48 2 4 2.2559723595316457e+00 3.7024780822646940e-05 1.0000000000000000e+00 4.0000000000000000e+00 1.4000000000000000e+01 2.5000000000000000e+00 
49 2 4 2.2559723595316457e+00 3.3132159096186296e-06 1.0000000000000000e+00 4.0000000000000000e+00 1.6000000000000000e+01 2.5000000000000000e+00 
50 2 4 2.2559723595316457e+00 0.0000000000000000e+00 1.0000000000000000e+00 4.0000000000000000e+00 1.8000000000000000e+01 2.5000000000000000e+00 
68 2 4 2.2559723595316457e+00 3.9663529255248263e-03 1.0000000000000000e+00 6.0000000000000000e+00 1.4000000000000000e+01 2.5000000000000000e+00 
69 2 4 2.2559723595316457e+00 -2.8459414765991944e-04 1.0000000000000000e+00 6.0000000000000000e+00 1.6000000000000000e+01 2.5000000000000000e+00 
70 2 4 2.2559723595316457e+00 1.4618987326511187e-03 1.0000000000000000e+00 6.0000000000000000e+00 1.8000000000000000e+01 2.5000000000000000e+00 
88 2 4 2.2559723595316457e+00 6.4990581171293677e-04 1.0000000000000000e+00 8.0000000000000000e+00 1.4000000000000000e+01 2.5000000000000000e+00 
89 2 4 2.2559723595316457e+00 7.1967626408341631e-04 1.0000000000000000e+00 8.0000000000000000e+00 1.6000000000000000e+01 2.5000000000000000e+00 
90 2 4 2.2559723595316457e+00 1.2348030057914768e-02 1.0000000000000000e+00 8.0000000000000000e+00 1.8000000000000000e+01 2.5000000000000000e+00 
108 2 4 2.2559723595316457e+00 -4.4658830906150229e+00 1.0000000000000000e+00 1.0000000000000000e+01 1.4000000000000000e+01 2.5000000000000000e+00 
109 2 4 2.2559723595316457e+00 -4.4909160254495957e+00 1.0000000000000000e+00 1.0000000000000000e+01 1.6000000000000000e+01 2.5000000000000000e+00 
110 2 4 2.2559723595316457e+00 -4.4973810443835518e+00 1.0000000000000000e+00 1.0000000000000000e+01 1.8000000000000000e+01 2.5000000000000000e+00 
128 2 4 2.2559723595316457e+00 -4.7127998431641669e+02 1.0000000000000000e+00 1.2000000000000000e+01 1.4000000000000000e+01 2.5000000000000000e+00 
129 2 4 2.2559723595316457e+00 -4.7811796604537415e+02 1.0000000000000000e+00 1.2000000000000000e+01 1.6000000000000000e+01 2.5000000000000000e+00 
130 2 4 2.2559723595316457e+00 -4.7768588757010116e+02 1.0000000000000000e+00 1.2000000000000000e+01 1.8000000000000000e+01 2.5000000000000000e+00 
148 2 4 2.2559723595316457e+00 -2.4859742688281822e+03 1.0000000000000000e+00 1.4000000000000000e+01 1.4000000000000000e+01 2.5000000000000000e+00 
149 2 4 2.2559723595316457e+00 -2.5210994500449260e+03 1.0000000000000000e+00 1.4000000000000000e+01 1.6000000000000000e+01 2.5000000000000000e+00 
150 2 4 2.2559723595316457e+00 -2.5198119721616572e+03 1.0000000000000000e+00 1.4000000000000000e+01 1.8000000000000000e+01 2.5000000000000000e+00 
168 2 4 2.2559723595316457e+00 -5.7191775922615070e+03 1.0000000000000000e+00 1.6000000000000000e+01 1.4000000000000000e+01 2.5000000000000000e+00 
169 2 4 2.2559723595316457e+00 -5.7826898252814826e+03 1.0000000000000000e+00 1.6000000000000000e+01 1.6000000000000000e+01 2.5000000000000000e+00 
170 2 4 2.2559723595316457e+00 -5.7793692598670323e+03 1.0000000000000000e+00 1.6000000000000000e+01 1.8000000000000000e+01 2.5000000000000000e+00 
188 2 4 2.2559723595316457e+00 -8.0562236890922059e+03 1.0000000000000000e+00 1.8000000000000000e+01 1.4000000000000000e+01 2.5000000000000000e+00 
189 2 4 2.2559723595316457e+00 -8.1284097741611695e+03 1.0000000000000000e+00 1.8000000000000000e+01 1.6000000000000000e+01 2.5000000000000000e+00 
190 2 4 2.2559723595316457e+00 -8.1220573822533006e+03 1.0000000000000000e+00 1.8000000000000000e+01 1.8000000000000000e+01 2.5000000000000000e+00 
1781 1383 2 1.0279999278324357e+00 -8.7818458527051062e+03 1.0000000000000000e+00 1.9963928817909917e+01 1.8606623558232652e+01 8.2332160161663339e+01 
605 207 2 1.0280002702948114e+00 -8.7822605106563951e+03 1.0000000000000000e+00 1.9955577993483868e+01 1.8679426413934682e+01 8.2372229859149542e+01 
1272 874 2 1.0280022835856630e+00 -5.1729182819557798e+02 1.0000000000000000e+00 1.9784552276992056e+01 1.8586860804725031e+01 8.2611844442519143e+01 
1842 1444 2 1.0280005205718366e+00 2.9551779753857450e+03 1.0000000000000000e+00 1.9749636377716239e+01 1.8583662198673210e+01 8.2695375082519561e+01 
1104 706 2 1.0279995036591365e+00 -5.1424409069133833e+02 1.0000000000000000e+00 1.9788883335265155e+01 1.7789198572643350e+01 8.2778398416752125e+01 
1035 637 2 1.0280018865079721e+00 2.5697949043728349e+03 1.0000000000000000e+00 1.8290946295677816e+01 5.2496613102448393e+00 8.8238770264315463e+01 
632 234 2 1.0280016462690249e+00 -2.5579595771689874e+03 1.0000000000000000e+00 1.7711531567198030e+01 6.3335165079359044e+00 8.8307150440041099e+01 
2019 1621 2 1.0280023850771209e+00 -1.9716359716995912e+03 1.0000000000000000e+00 1.7117134441604538e+01 5.6168293337119923e+00 8.8311493226674884e+01 
1034 636 2 1.0280030749381519e+00 2.5699639261254097e+03 1.0000000000000000e+00 1.9254724899197786e+01 4.9365469059111966e+00 8.8391784872363445e+01 
675 277 2 1.0280026367031949e+00 -1.1373638329270177e+03 1.0000000000000000e+00 1.8118887280671654e+01 4.4279652130121105e+00 8.8412490191870418e+01 
674 276 2 1.0280020474146965e+00 -1.1373948711334976e+03 1.0000000000000000e+00 1.9426157905255248e+01 4.5258387845033088e+00 8.8603033308356899e+01 
683 285 2 1.0280011476971294e+00 -3.6136137336339270e+03 1.0000000000000000e+00 1.7464945825808435e+01 3.8901273595999188e+00 8.8601958581990900e+01 
1606 1208 2 1.0280001741787850e+00 9.5984801783178597e+01 1.0000000000000000e+00 1.6062055931867878e+01 6.5509280009926627e+00 8.8730095655740726e+01 
682 284 2 1.0280020360158977e+00 -3.6138137404625531e+03 1.0000000000000000e+00 1.9875802548840795e+01 4.4145731718249186e+00 8.8837008203760206e+01 
854 456 2 1.0280015824126110e+00 1.8878324958627505e+02 1.0000000000000000e+00 1.5148732310157556e+01 5.0596310094173411e+00 8.8859110718316032e+01 
2028 1630 2 1.0279979958745618e+00 -5.3204640964541341e+03 1.0000000000000000e+00 1.7377315943086955e+01 1.2542911598279256e+01 8.7060544391890190e+01 
461 63 2 1.0279986496982905e+00 -3.1600681763946372e+03 1.0000000000000000e+00 1.6962538015916873e+01 1.2827913427931536e+01 8.7081851502646103e+01 
1110 712 2 1.0279991195976708e+00 1.0022268302508028e+04 1.0000000000000000e+00 1.8000965999752765e+01 1.3097768372696990e+01 8.6987405552119981e+01 
2012 1614 2 1.0279975658497924e+00 -2.1971788804231105e+03 1.0000000000000000e+00 1.6274124648586518e+01 1.3068300871348152e+01 8.7201950822288879e+01 
1381 983 2 1.0279987982387191e+00 2.3275062707654474e+03 1.0000000000000000e+00 1.7687780080154528e+01 1.1374240849024535e+01 8.7343644832286159e+01 
1399 1001 2 1.0279992581681106e+00 3.5165749741302561e+03 1.0000000000000000e+00 1.6806197327122650e+01 1.3155718282291193e+01 8.7108923826262767e+01 
703 305 2 1.0280023189885745e+00 2.0424092341352309e+02 1.0000000000000000e+00 1.7976031191335593e+01 1.0954362264058899e+01 8.7533881271546576e+01 
1622 1224 2 1.0279999131952675e+00 4.2864029165931706e+03 1.0000000000000000e+00 1.8667261652407714e+01 1.1014057584184608e+01 8.7553054858175599e+01 
1623 1225 2 1.0280000654410837e+00 4.2862660324566532e+03 1.0000000000000000e+00 1.9476336457598830e+01 1.1149246500998409e+01 8.7588211189744655e+01 
574 176 2 1.0279964815973215e+00 -3.4114296025166350e+03 1.0000000000000000e+00 1.4371911370714180e+01 1.3216063930741154e+01 8.7913706981401731e+01 
474 76 2 1.0279956384664741e+00 -3.1661404196215267e+03 1.0000000000000000e+00 1.4149718031504946e+01 1.2051679536931559e+01 8.8188397802194174e+01 
1436 1038 2 1.0280030652720442e+00 3.9030653917795557e+03 1.0000000000000000e+00 1.9497492341193080e+01 7.4740944484318375e+00 8.8316660422842403e+01 
1594 1196 2 1.0280009940526069e+00 1.5532174331757713e+04 1.0000000000000000e+00 1.9506449471046484e+01 7.6321171977557167e+00 8.8345706825905410e+01 
664 266 2 1.0279960397465939e+00 -3.6655128305230405e+03 1.0000000000000000e+00 1.4752643880822717e+01 1.0739642254464153e+01 8.8477883238930261e+01 
2001 1603 2 1.0280011341121660e+00 -8.2989919462311846e+03 1.0000000000000000e+00 1.9647785807040229e+01 8.2783715201058161e+00 8.8466651231857782e+01 
1152 754 2 1.0280001367834521e+00 4.6221522744293443e+03 1.0000000000000000e+00 1.8953964093596852e+01 8.2717444150995014e+00 8.8610186620122079e+01 
1149 751 2 1.0280015296904563e+00 4.6222843510606344e+03 1.0000000000000000e+00 1.8646054286495968e+01 8.3319289297084733e+00 8.8709155233396913e+01 
799 401 2 1.0280012676365167e+00 -5.9728860184531129e+02 1.0000000000000000e+00 1.9299024840261033e+01 9.2493902946439217e+00 8.8718160399359306e+01 
1824 1426 2 1.0280018834212070e+00 -9.9090535185259760e+03 1.0000000000000000e+00 1.6828463328464082e+01 7.2115831141123738e+00 8.8739601233403334e+01 
798 400 2 1.0280008947543273e+00 -5.9675159782787114e+02 1.0000000000000000e+00 1.8541906386459697e+01 9.2877524619380889e+00 8.8763959374330625e+01 
1254 856 2 1.0280005205396905e+00 1.2833704689790350e+03 1.0000000000000000e+00 1.9019038063294310e+01 8.9284978150652936e+00 8.8776828432596076e+01 
2004 1606 2 1.0279994441211959e+00 -8.2984392092049111e+03 1.0000000000000000e+00 1.7415160969009953e+01 7.7248671855475592e+00 8.8789868576406874e+01 
904 506 2 1.0279999530897268e+00 -8.4530101127659418e+03 1.0000000000000000e+00 1.8374240427690211e+01 9.2203020872909978e+00 8.8820309510491413e+01 
1433 1035 2 1.0280013625239370e+00 3.9042976454044979e+03 1.0000000000000000e+00 1.8149445688416638e+01 8.3053718330977251e+00 8.8837255065267499e+01 
1595 1197 2 1.0279980287002402e+00 1.5533540273166975e+04 1.0000000000000000e+00 1.8497706056054550e+01 8.6767769676689017e+00 8.8878533069580143e+01 
1801 1403 2 1.0280011965411204e+00 -6.4452307907911663e+03 1.0000000000000000e+00 1.9854979355119191e+01 1.7359530298118003e+01 8.6329376760803200e+01 
1204 806 2 1.0279968252755927e+00 -1.3155818274039270e+03 1.0000000000000000e+00 1.7073156872032882e+01 1.4001365180140443e+01 8.7212582878531251e+01 
1810 1412 2 1.0279982296185519e+00 7.2634244501858052e+02 1.0000000000000000e+00 1.6137162643923755e+01 1.3607247185639325e+01 8.7308598895243335e+01 
839 441 2 1.0279983002725679e+00 -3.3161955193086305e+03 1.0000000000000000e+00 1.6239185242523053e+01 1.3563812179070043e+01 8.7274265760938832e+01 
1449 1051 2 1.0279985415743238e+00 9.4624639097560339e+03 1.0000000000000000e+00 1.6906770342546931e+01 1.3378149313912012e+01 8.7113768479796192e+01 
444 46 2 1.0279980719829389e+00 -7.3464953919090040e+03 1.0000000000000000e+00 1.6277948917287066e+01 1.3492949318877232e+01 8.7251426592535282e+01 
1283 885 2 1.0279977880812059e+00 6.3754177429902120e+03 1.0000000000000000e+00 1.6122009034451782e+01 1.3540580979812978e+01 8.7298246949372853e+01 
1185 787 2 1.0279980404946811e+00 -4.6946486222004700e+02 1.0000000000000000e+00 1.6299551105976999e+01 1.3436709659289248e+01 8.7236734169434598e+01 
1183 785 2 1.0279977264959665e+00 3.1805852185262256e+03 1.0000000000000000e+00 1.6165470828398991e+01 1.3436151311087480e+01 8.7268063156249809e+01 
449 51 2 1.0279977698917195e+00 -8.1502361003681199e+03 1.0000000000000000e+00 1.6228550048284980e+01 1.3391660264089145e+01 8.7245859563180133e+01 
2067 1669 2 1.0279978730433201e+00 -4.6137269922798268e+03 1.0000000000000000e+00 1.6232820288085854e+01 1.3413293313115098e+01 8.7248254587071770e+01 
1507 1109 2 1.0280010431805038e+00 5.4108759067111787e+03 1.0000000000000000e+00 1.9434307490021183e+01 1.5632224529823240e+01 8.6792098028287739e+01 
1990 1592 2 1.0280032731608824e+00 -3.9945997540458056e+03 1.0000000000000000e+00 1.9893910253567629e+01 1.7373265317942270e+01 8.3895117723669514e+01 
1991 1593 2 1.0280042734287436e+00 -3.9873984181374640e+03 1.0000000000000000e+00 1.9737879304763172e+01 1.5755592528290546e+01 8.6637063523028388e+01 
1506 1108 2 1.0279990377325430e+00 5.4113250322731037e+03 1.0000000000000000e+00 1.9169626799061518e+01 1.5429461260009761e+01 8.6935821584873096e+01 
1804 1406 2 1.0280054454051091e+00 -6.4430214817303358e+03 1.0000000000000000e+00 1.9743899754973285e+01 1.6879600794916605e+01 8.6402324358857072e+01 
1025 627 2 1.0279993136666912e+00 9.3341380205186742e+03 1.0000000000000000e+00 1.8963599784602380e+01 1.4546836084098958e+01 8.6949816713738571e+01 
1028 630 2 1.0279987815447291e+00 9.3337182727479012e+03 1.0000000000000000e+00 1.9294139638822049e+01 1.4573366678528025e+01 8.6869099002832286e+01 
1428 1030 2 1.0279973404940106e+00 7.0976282402416045e+03 1.0000000000000000e+00 1.5924754599085201e+01 1.3389902721021258e+01 8.7322635279294673e+01 
1899 1501 2 1.0279967392872427e+00 9.3552422148612113e+03 1.0000000000000000e+00 1.7678683583517124e+01 1.4585499237920862e+01 8.7288387939856591e+01 
969 571 2 1.0280011776980043e+00 4.5940996660369537e+03 1.0000000000000000e+00 1.9728844675711230e+01 1.7199806868010942e+01 8.6423567954284920e+01 
1547 1149 2 1.0279974075262093e+00 7.8102943345810072e+03 1.0000000000000000e+00 1.5831538447740835e+01 1.3565716349281349e+01 8.7382530150118200e+01 
1942 1544 2 1.0279967697034929e+00 -4.2333078563285983e+02 1.0000000000000000e+00 1.9281585979131503e+01 1.7331755536597299e+01 8.7096591220490737e+01 
1658 1260 2 1.0279974903583944e+00 -2.7440302270279635e+03 1.0000000000000000e+00 1.5644555020479631e+01 1.3620044384611374e+01 8.7452106682911719e+01 
1545 1147 2 1.0279972129237427e+00 5.1719861937008445e+03 1.0000000000000000e+00 1.5628241250143580e+01 1.3607699314763149e+01 8.7454399055369350e+01 
1583 1185 2 1.0279973711457746e+00 -2.4385383087518467e+03 1.0000000000000000e+00 1.5555072786309706e+01 1.3656011027200487e+01 8.7490075778344149e+01 
1011 613 2 1.0279972279785989e+00 9.1021474757720407e+03 1.0000000000000000e+00 1.5525499351916592e+01 1.3648570422821001e+01 8.7498099833000992e+01 
717 319 2 1.0279972693654160e+00 4.1805715328294173e+02 1.0000000000000000e+00 1.5509235197534313e+01 1.3684938085303934e+01 8.7512868146849243e+01 
616 218 2 1.0279967751154397e+00 -8.9816838071710972e+03 1.0000000000000000e+00 1.5205255066454654e+01 1.3677088389832418e+01 8.7620452090079766e+01 
820 422 2 1.0279968963191526e+00 -6.6180004476292352e+03 1.0000000000000000e+00 1.5104410192269796e+01 1.3789646948627864e+01 8.7690752668325459e+01 
1125 727 2 1.0279904291974533e+00 2.0340072601066520e+03 1.0000000000000000e+00 1.8991208128680203e+01 1.7387289283889963e+01 8.7602185906188964e+01 
1782 1384 2 1.0279977031910714e+00 -2.1913009429204212e+03 1.0000000000000000e+00 1.4824619692609987e+01 1.3506078318735963e+01 8.7737575448661019e+01 
501 103 2 1.0279965180708452e+00 -4.6046827214321238e+03 1.0000000000000000e+00 1.4782934313896339e+01 1.3759346701672104e+01 8.7816885589555184e+01 
1960 1562 2 1.0279873214700863e+00 -5.7317348280182805e+03 1.0000000000000000e+00 1.8829382119752715e+01 1.6937141341584958e+01 8.7775304847819115e+01 
1210 812 2 1.0279935793205306e+00 -3.7214827286169140e+02 1.0000000000000000e+00 1.9160626636980826e+01 1.8335610566366128e+01 8.7762212421230700e+01 
1275 877 2 1.0279875483682397e+00 1.4834937901800754e+03 1.0000000000000000e+00 1.8968078755288065e+01 1.8480901725957366e+01 8.7993895938096614e+01 
564 166 2 1.0279969686010837e+00 -1.4103596442927708e+04 1.0000000000000000e+00 1.4187297230860054e+01 1.3841905238525369e+01 8.8129213455876879e+01 
1304 906 2 1.0279969658310977e+00 5.6673739462554677e+03 1.0000000000000000e+00 1.4545832403743571e+01 1.4512597929695467e+01 8.8204347249042456e+01 
2043 1645 2 1.0279970525880855e+00 -1.0768859663618146e+04 1.0000000000000000e+00 1.4569394494438432e+01 1.4572482072395266e+01 8.8221566607393683e+01 
1943 1545 2 1.0279872951378974e+00 -4.2043653636346289e+02 1.0000000000000000e+00 1.8833531540082674e+01 1.8954273814352078e+01 8.8216638532407330e+01 
1604 1206 2 1.0279971641305667e+00 -2.9356434344940121e+03 1.0000000000000000e+00 1.4059193849587174e+01 1.4253019352873080e+01 8.8332218129537651e+01 
1169 771 2 1.0279975334645282e+00 5.0706532184226317e+03 1.0000000000000000e+00 1.3664821032647653e+01 1.3443844967197052e+01 8.8353600554203808e+01 
1189 791 2 1.0279960806161035e+00 6.9777743721836396e+03 1.0000000000000000e+00 1.3635014129264519e+01 1.3877020991801183e+01 8.8453628885320398e+01 
1128 730 2 1.0279912971898537e+00 2.0368935140056176e+03 1.0000000000000000e+00 1.8242448243384672e+01 1.8901205114040639e+01 8.8510708330872518e+01 
1508 1110 2 1.0279868382107791e+00 3.7664555844900210e+03 1.0000000000000000e+00 1.8132884625289041e+01 1.8892319186168965e+01 8.8551841170197051e+01 
1505 1107 2 1.0279880446285354e+00 3.7661346375298076e+03 1.0000000000000000e+00 1.6743713046148152e+01 1.5917688916421573e+01 8.8640472913189882e+01 
578 180 2 1.0279949999931448e+00 -9.3384427810539989e+02 1.0000000000000000e+00 1.7435723059178045e+01 1.8666466762014696e+01 8.8752496429791847e+01 
915 517 2 1.0279946353883493e+00 2.4875934719065381e+03 1.0000000000000000e+00 1.6978386661916755e+01 1.5653339255665735e+01 8.8852984837459047e+01 
585 187 2 1.0280006145923641e+00 6.8023172661662204e+02 1.0000000000000000e+00 1.3006814528749842e+01 5.8151308392798953e+00 8.9735954670394534e+01 
1248 850 2 1.0280013463813231e+00 -6.5359700443639701e+02 1.0000000000000000e+00 1.2162308121053089e+01 6.1547864407994863e+00 9.1013359006775303e+01 
1669 1271 2 1.0280013005926074e+00 -5.3792191019173624e+03 1.0000000000000000e+00 1.2955725327148938e+01 5.6176835676121142e+00 9.0735415981111842e+01 
1920 1522 2 1.0280001157595382e+00 -1.1021455661289296e+04 1.0000000000000000e+00 1.1580296954259735e+01 6.0270229898659977e+00 9.0691903585640830e+01 
2045 1647 2 1.0280000516599610e+00 -5.6997872560037486e+03 1.0000000000000000e+00 1.1053916375405173e+01 6.1844795002266215e+00 9.0399055607800804e+01 
1919 1521 2 1.0279991073517523e+00 -1.0819013370691202e+04 1.0000000000000000e+00 1.1064978564816421e+01 6.2185676315457936e+00 9.0800411065587681e+01 
1862 1464 2 1.0280007060219887e+00 4.2549537335731438e+03 1.0000000000000000e+00 1.1262910284436609e+01 6.1197521523177434e+00 9.0688842722296542e+01 
908 510 2 1.0280003517856386e+00 1.1365592340644316e+04 1.0000000000000000e+00 1.2002596142680344e+01 5.8594949854786256e+00 9.0473768634559690e+01 
1109 711 2 1.0279995167189875e+00 5.6730053513722823e+03 1.0000000000000000e+00 1.1089298142738926e+01 6.1611223551815790e+00 9.0482925579782261e+01 
1396 998 2 1.0279998027806234e+00 6.2072457616457399e+01 1.0000000000000000e+00 1.0653019379606278e+01 6.3496011600020710e+00 9.0656515094245478e+01 
433 35 2 1.0280000651378798e+00 -1.8461176962877996e+03 1.0000000000000000e+00 1.0530889252520781e+01 6.4236430606256372e+00 9.0419767246975397e+01 