LAMMPS data file via write_data, version 30 Jul 2016, timestep = 50400000

180 atoms
2 atom types

0.0000000000000000e+00 2.0000000000000000e+01 xlo xhi
0.0000000000000000e+00 2.0000000000000000e+01 ylo yhi
0.0000000000000000e+00 2.0000000000000000e+01 zlo zhi

Masses

1 3.896
2 4.31

Atoms # meso-molecular

15 1 2 1.0279999999999105e+00 -9.0754629091437351e+01 1.0000000000000000e+00 2.4185524744174685e+00 7.4795085412511975e-01 1.7973869544278598e+00 
30 1 2 1.0280000000000078e+00 5.2509319316488757e+01 1.0000000000000000e+00 1.6478819657109915e+00 3.8159333600787293e-01 1.3587966448060733e+00 
19 1 2 1.0279999999999665e+00 -5.8545560718092503e+01 1.0000000000000000e+00 1.9138149598031045e+00 8.7681395684644836e-01 7.2695700252741868e-01 
78 1 2 1.0280000000000584e+00 -8.5221758287903981e+01 1.0000000000000000e+00 3.1913950078782203e+00 4.0824511705095790e-01 1.5866135650870552e+00 
114 1 2 1.0279999999999432e+00 -1.8433278666782405e+02 1.0000000000000000e+00 1.7736578889274768e+00 8.4491252177092280e-01 8.2804028779585170e-01 
25 1 2 1.0279999999999114e+00 -2.7334315133035654e+00 1.0000000000000000e+00 1.4686402053058583e+00 5.3941128618293066e-01 1.1537611840124979e+00 
105 1 2 1.0279999999999430e+00 -1.4354874164550452e+02 1.0000000000000000e+00 1.5556485544180234e+00 7.4648394046045830e-01 9.3567299794872016e-01 
44 1 2 1.0279999999999561e+00 1.7034832232328451e+01 1.0000000000000000e+00 2.9476863345100566e+00 5.2585723114184124e-01 1.6558373047517172e+00 
88 1 2 1.0279999999999385e+00 -5.5454514903327407e+01 1.0000000000000000e+00 1.3565077746871956e+00 6.1365890185246863e-01 9.4142616712382476e-01 
163 1 2 1.0279999999999332e+00 4.7765708416389332e+00 1.0000000000000000e+00 1.2978866829909934e+00 6.0751775962007371e-01 8.7915337767897150e-01 
89 1 2 1.0280000000000025e+00 -1.1785375626200735e+02 1.0000000000000000e+00 2.3895496036762442e+00 8.8304263948546224e-01 1.8513690716953686e+00 
179 1 2 1.0279999999999669e+00 6.0060918259119958e+01 1.0000000000000000e+00 1.5313915484165548e+00 5.5913797868806314e-01 1.2103173310684041e+00 
28 1 2 1.0280000000000649e+00 -4.3860054229460772e+01 1.0000000000000000e+00 3.2072984709899783e+00 5.1665363925645205e-02 1.4084536007489943e+00 
180 1 2 1.0280000000000376e+00 1.2224284453447765e+02 1.0000000000000000e+00 1.3549768226287560e+00 8.3273735424255779e-01 2.9287165035126828e-01 
16 1 2 1.0279999999998992e+00 -2.1079634530738698e+01 1.0000000000000000e+00 3.7331934407812817e+00 1.5177933938381249e+00 1.2207059219041432e+00 
121 1 2 1.0280000000000116e+00 3.1957541619282765e+01 1.0000000000000000e+00 6.1604973163367820e+00 2.4910088137226190e+00 1.4806902603728311e+00 
178 1 2 1.0279999999999776e+00 -8.3332930519985837e+01 1.0000000000000000e+00 1.0435405324867983e+00 7.3490679673351977e-01 3.0699633152512784e-01 
160 1 2 1.0279999999999874e+00 -1.9643667775299360e+02 1.0000000000000000e+00 6.3402633470784231e+00 2.4558896302312192e+00 1.4850119211277801e+00 
168 1 2 1.0280000000000273e+00 -1.5306072114173065e+02 1.0000000000000000e+00 6.3445969306535934e+00 2.4652572177350001e+00 1.4566710002879115e+00 
94 1 2 1.0280000000000538e+00 -3.5967274512602501e+01 1.0000000000000000e+00 6.1123441453043199e+00 2.5091183045829610e+00 1.4361184111433070e+00 
82 1 2 1.0279999999999963e+00 -5.4057626492894286e+01 1.0000000000000000e+00 6.4173986363228694e+00 2.4187511064937226e+00 1.5111338777891430e+00 
37 1 2 1.0279999999999339e+00 -6.9334792167054161e+01 1.0000000000000000e+00 6.4231963766871356e+00 2.3667432087248943e+00 1.6005662406433645e+00 
49 1 2 1.0280000000000484e+00 -6.7209462428705308e+01 1.0000000000000000e+00 6.3500065925128357e+00 2.4743643117890826e+00 1.4240663752745839e+00 
43 1 2 1.0280000000000711e+00 -5.7571346088735666e+01 1.0000000000000000e+00 6.3039938762442587e+00 1.0471225578337919e+00 5.8260170135298928e-01 
170 1 2 1.0280000000000271e+00 -2.5024043603034164e+02 1.0000000000000000e+00 6.4362963923536327e+00 2.4534050090800825e+00 1.3966051774899082e+00 
115 1 2 1.0279999999999274e+00 3.9429200251039003e+00 1.0000000000000000e+00 6.3761824100380862e+00 2.4822459490670425e+00 1.3636944486841904e+00 
12 1 2 1.0279999999999776e+00 -2.2968466296518127e+02 1.0000000000000000e+00 6.4846835196735269e+00 2.3597484152683457e+00 1.5644769779510732e+00 
156 1 2 1.0279999999999645e+00 -2.9393601127201542e+01 1.0000000000000000e+00 6.5205852557510182e+00 2.3754578441545351e+00 1.4999677646476179e+00 
123 1 2 1.0280000000000473e+00 -6.3996149528315193e+01 1.0000000000000000e+00 6.5258477759151381e+00 2.2765565090162574e+00 1.6450135730950313e+00 
60 1 2 1.0280000000000236e+00 4.3194399518823005e+01 1.0000000000000000e+00 6.2981704460601424e+00 9.8728577902084469e-01 6.3893889435259432e-01 
173 1 2 1.0279999999999470e+00 -2.0257916351478229e+01 1.0000000000000000e+00 6.6248742455958674e+00 2.1594902257104125e+00 1.6753404283662596e+00 
158 1 2 1.0279999999999574e+00 1.5891080945130977e+02 1.0000000000000000e+00 6.6412138714777322e+00 2.2883733842193057e+00 1.5070501055709162e+00 
157 1 2 1.0279999999999299e+00 -2.3778469485727487e+02 1.0000000000000000e+00 6.3846989053974745e+00 8.8168035944056067e-01 9.2459285486425025e-01 
4 1 2 1.0279999999999925e+00 -1.4852970483261822e+02 1.0000000000000000e+00 2.0647429537317050e+00 8.6938224165001754e-01 4.2201068350448567e-01 
139 1 2 1.0280000000000185e+00 -5.1581719896244799e+01 1.0000000000000000e+00 6.3251274196818592e+00 9.8582900809480423e-01 6.6238531493003816e-01 
143 1 2 1.0280000000000120e+00 7.3532412256769774e+01 1.0000000000000000e+00 6.3255388107422963e+00 9.9716838434685739e-01 6.4950553173332159e-01 
153 1 2 1.0280000000000238e+00 1.0093436902654924e+01 1.0000000000000000e+00 6.3244221025665057e+00 9.9662307784255966e-01 6.4921845305089865e-01 
62 1 2 1.0280000000000091e+00 2.0358120500135402e+02 1.0000000000000000e+00 6.3205247502865358e+00 9.9880939646577815e-01 6.4360567098917854e-01 
113 1 2 1.0279999999999294e+00 1.2915457525671019e+02 1.0000000000000000e+00 6.3198181456792915e+00 1.0006883453180768e+00 6.4094566953609000e-01 
128 1 2 1.0279999999999678e+00 3.4064298000617256e+01 1.0000000000000000e+00 5.7271905841963129e+00 1.2762437282212016e+00 2.8727787394103066e-01 
20 1 2 1.0279999999999780e+00 -1.5428471069739606e+02 1.0000000000000000e+00 8.9847723501570859e-02 1.1991014977987631e+00 4.3800945831379980e+00 
171 1 2 1.0279999999999858e+00 -3.6817588998743346e+01 1.0000000000000000e+00 1.9175635921389584e+00 2.3882155220323158e+00 5.3274757778670736e+00 
150 1 2 1.0280000000000067e+00 -2.7074126145295088e+02 1.0000000000000000e+00 1.8471724970371142e+00 1.7514482659717892e+00 5.3546127281836000e+00 
112 1 2 1.0280000000000256e+00 -7.7082656459513572e+01 1.0000000000000000e+00 1.9619122422426714e+00 2.2779769315922467e+00 5.2966943457152773e+00 
3 1 2 1.0280000000000051e+00 -1.0486572550548564e+02 1.0000000000000000e+00 1.9503003306564197e+00 2.3229363179839857e+00 5.3013472491161435e+00 
164 1 2 1.0279999999999734e+00 -1.2168111028749328e+02 1.0000000000000000e+00 1.9450536967902787e+00 2.3339948767777248e+00 5.3059555630898005e+00 
141 1 2 1.0279999999999667e+00 4.7500137559059958e+01 1.0000000000000000e+00 1.9457266366478332e+00 2.3309571050818803e+00 5.3060261658168191e+00 
159 1 2 1.0280000000000080e+00 -5.5931553038719557e+01 1.0000000000000000e+00 1.9396598818549755e+00 2.3505728277698292e+00 5.3081678545954558e+00 
2 1 2 1.0280000000000100e+00 -6.2984050021557060e+01 1.0000000000000000e+00 1.9359150871101918e+00 2.3633951115322929e+00 5.3087669743011601e+00 
99 1 2 1.0279999999999878e+00 -3.1735000450035670e+01 1.0000000000000000e+00 1.9347942570458641e+00 2.3556822416353986e+00 5.3141414612739135e+00 
52 1 2 1.0279999999999856e+00 9.7988280905438558e+01 1.0000000000000000e+00 1.9278176878375171e+00 2.3712742013242702e+00 5.3187120757562987e+00 
124 1 2 1.0279999999999894e+00 -7.2512875643015562e+01 1.0000000000000000e+00 1.9268818394548974e+00 2.3736106252551155e+00 5.3191690331989454e+00 
130 1 2 1.0279999999999736e+00 7.2209877507027347e+00 1.0000000000000000e+00 1.9261762991784017e+00 2.3744656766316594e+00 5.3199369496980644e+00 
42 1 2 1.0279999999999818e+00 -1.6763490028087733e+02 1.0000000000000000e+00 1.9262495181243344e+00 2.3733874039271643e+00 5.3203254693853550e+00 
131 1 2 1.0280000000000118e+00 3.8083300070247766e+01 1.0000000000000000e+00 1.9283313207377180e+00 2.3653991330240252e+00 5.3205725518477136e+00 
10 1 2 1.0279999999999589e+00 -3.9886464228844973e+00 1.0000000000000000e+00 1.9206238438174024e+00 2.3788199825450058e+00 5.3270283926938138e+00 
166 1 2 1.0280000000000740e+00 -1.3578413301005192e+01 1.0000000000000000e+00 6.6097249685703408e-02 4.0953734684574805e-02 1.7293446885479064e+01 
151 1 2 1.0280000000000589e+00 -1.8539497532868950e+01 1.0000000000000000e+00 1.1751535311940389e+00 8.5729627786126894e-01 1.9365982549669159e+01 
5 1 2 1.0279999999999656e+00 -1.6494070530299877e+02 1.0000000000000000e+00 2.0286963162667244e+00 7.6580229684811596e-01 1.9848817263905843e+01 
79 1 2 1.0280000000000604e+00 -1.8234013034067665e+01 1.0000000000000000e+00 3.5158893430938605e+00 1.6351720134948373e+01 2.1277120962138019e-01 
70 1 2 1.0280000000001364e+00 -5.9417899921441489e+01 1.0000000000000000e+00 3.8555868167805647e+00 1.6473502032875164e+01 4.5504066563283666e-02 
102 1 2 1.0280000000000684e+00 4.7203210452280196e+01 1.0000000000000000e+00 3.5525516118683100e+00 1.6270422021926578e+01 1.4039831989606957e-01 
35 1 2 1.0280000000000651e+00 -5.4922122343551166e+01 1.0000000000000000e+00 3.7412848717688441e+00 1.6464266458299416e+01 1.5581773818531847e-01 
92 1 2 1.0280000000000360e+00 -5.7474605123577867e+01 1.0000000000000000e+00 2.9207196934794792e+00 1.9825147421974442e+01 1.3512386163601988e+00 
154 1 2 1.0280000000000966e+00 -4.8665624652530845e+01 1.0000000000000000e+00 3.7230426929340350e+00 1.6280794478414229e+01 5.3187361227887253e-02 
29 1 2 1.0279999999999867e+00 6.0915602520218862e+01 1.0000000000000000e+00 2.0988678115525814e+00 1.9748788295748568e+01 1.3264388618923437e+00 
33 1 2 1.0280000000000409e+00 -9.0689634294649366e+00 1.0000000000000000e+00 3.6857837334391070e+00 1.6246127108809855e+01 5.2680119896594248e-02 
101 1 2 1.0280000000001022e+00 1.0870267997722755e+02 1.0000000000000000e+00 3.7779334272636018e+00 1.6283402453220425e+01 9.0135212485486869e-03 
161 1 2 1.0280000000000733e+00 6.1567256851207503e+01 1.0000000000000000e+00 3.7376456631523958e+00 1.6242567766782280e+01 1.1816389244979691e-02 
7 1 2 1.0280000000001555e+00 -8.2997225195664697e+01 1.0000000000000000e+00 3.6625420222085361e+00 1.6301687645604456e+01 1.0999914329988565e-01 
104 1 2 1.0280000000000526e+00 5.6611177133449573e+01 1.0000000000000000e+00 3.2719384880568145e+00 1.9750440304951901e+01 1.2556025324590363e+00 
133 1 2 1.0279999999999467e+00 5.1613143218912128e+01 1.0000000000000000e+00 1.6327877585795902e+00 1.9840898854994538e+01 1.2310685647917980e+00 
27 1 2 1.0280000000001317e+00 -5.1006019263803239e+01 1.0000000000000000e+00 3.6072174010829405e+00 1.6233069141702366e+01 8.6910722474873414e-02 
11 1 2 1.0280000000000560e+00 -7.7788883850926311e+01 1.0000000000000000e+00 3.6698121402544621e+00 1.6304437821386500e+01 1.0749909549088411e-01 
45 1 2 1.0280000000001055e+00 6.6037815146016584e+01 1.0000000000000000e+00 3.4834371368102310e+00 1.6133649871748414e+01 3.9631627968398531e-02 
39 1 2 1.0280000000001341e+00 1.4094164971846484e+02 1.0000000000000000e+00 3.6474293050348781e+00 1.6304206137323231e+01 1.2078557655999182e-01 
165 1 2 1.0280000000000391e+00 6.3780497404406233e+01 1.0000000000000000e+00 5.7841511841859656e+00 1.1304176228742470e+01 1.2713932123233221e+01 
56 1 2 1.0279999999999432e+00 -6.1952148060450412e+01 1.0000000000000000e+00 5.8402959057786097e+00 1.1245703515768460e+01 1.2832134366910770e+01 
127 1 2 1.0279999999999947e+00 -2.8783500625820366e+01 1.0000000000000000e+00 5.7391215014005814e+00 1.1200181050427338e+01 1.3228030012071692e+01 
64 1 2 1.0280000000000806e+00 3.3340978869933451e+01 1.0000000000000000e+00 5.6877318173580793e+00 1.1224994721637737e+01 1.2738127059141922e+01 
149 1 2 1.0279999999999889e+00 -7.6526401245887996e+01 1.0000000000000000e+00 5.6902391777933765e+00 1.1224455209576108e+01 1.2739603372413422e+01 
135 1 2 1.0280000000000133e+00 1.3763029415071657e+02 1.0000000000000000e+00 5.6903106398282359e+00 1.1224318421490619e+01 1.2739784352000688e+01 
6 1 2 1.0280000000000356e+00 -1.6482272207878106e+02 1.0000000000000000e+00 5.6910922758156621e+00 1.1224224046053855e+01 1.2740168189078833e+01 
110 1 2 1.0280000000000480e+00 5.0064094305320026e+01 1.0000000000000000e+00 5.6865164729779485e+00 1.1224445795405867e+01 1.2738339546019981e+01 
174 1 2 1.0280000000000018e+00 5.0467624635580918e+01 1.0000000000000000e+00 5.6867421225156916e+00 1.1224319012716258e+01 1.2738558804657480e+01 
134 1 2 1.0280000000000176e+00 -1.8181816368461878e+00 1.0000000000000000e+00 5.6957207561661747e+00 1.1223330311990342e+01 1.2742893543625547e+01 
58 1 2 1.0280000000000178e+00 3.6701543967895105e+01 1.0000000000000000e+00 5.6852764930550670e+00 1.1224216219221107e+01 1.2738188900426124e+01 
142 1 2 1.0280000000000415e+00 1.0723654427759570e+02 1.0000000000000000e+00 5.6848290395727572e+00 1.1223950794916647e+01 1.2738343272238504e+01 
65 1 2 1.0279999999999996e+00 1.2096233859447216e+02 1.0000000000000000e+00 5.6880366520051959e+00 1.1223640959962385e+01 1.2739769368768529e+01 
21 1 2 1.0280000000000775e+00 -6.2776725981348939e+01 1.0000000000000000e+00 5.6979114598514435e+00 1.1222414862627813e+01 1.2744802405851106e+01 
59 1 2 1.0279999999999858e+00 -8.1835485295678154e+01 1.0000000000000000e+00 5.6842718646847139e+00 1.1223724249673236e+01 1.2738418963082367e+01 
106 1 2 1.0280000000000191e+00 5.1878798963574283e+01 1.0000000000000000e+00 5.6955968515156856e+00 1.1222567264571190e+01 1.2743733749313396e+01 
53 1 2 1.0280000000000751e+00 4.1063929472149880e+01 1.0000000000000000e+00 5.6883845570831726e+00 1.1223102846329535e+01 1.2740505428352503e+01 
40 1 2 1.0280000000000891e+00 4.2182922912770252e+01 1.0000000000000000e+00 5.6907402478458220e+00 1.1222035718334979e+01 1.2742565169363612e+01 
24 1 2 1.0279999999999578e+00 7.5843665335782148e+01 1.0000000000000000e+00 5.6900873635770690e+00 1.1221830283304618e+01 1.2742571860495332e+01 
63 1 2 1.0280000000000578e+00 -1.0593211201505048e+02 1.0000000000000000e+00 5.6918688146050362e+00 1.1219582675297868e+01 1.2745858296387510e+01 
167 1 2 1.0280000000001224e+00 4.8562154126095997e+01 1.0000000000000000e+00 5.7058737055297382e+00 1.1196719313454409e+01 1.2782517025762639e+01 
98 1 2 1.0279999999999354e+00 8.6351897275597253e+01 1.0000000000000000e+00 5.7004262724369479e+00 1.1165591271300373e+01 1.2836837149641397e+01 
26 1 2 1.0279999999999785e+00 -1.6699987870327755e+02 1.0000000000000000e+00 5.5967375247668860e+00 1.2313180729261189e+01 1.3927852547875702e+01 
61 1 2 1.0279999999996718e+00 2.8546473907011301e+02 1.0000000000000000e+00 4.7999858287119732e+00 1.3530274216411975e+01 1.4358516926856325e+01 
14 1 2 1.0280000000002125e+00 -5.9817964812560518e+01 1.0000000000000000e+00 4.6927080396628309e+00 1.3754863519449604e+01 1.4542851831889687e+01 
34 1 2 1.0280000000003076e+00 -5.8096191036781278e+01 1.0000000000000000e+00 4.3627977568821787e+00 1.4291510249680574e+01 1.4895870412746344e+01 
137 1 2 1.0280000000003693e+00 1.0100452085152479e+02 1.0000000000000000e+00 4.4984671999964583e+00 1.4367211257643937e+01 1.4897081286847726e+01 
77 1 2 1.0280000000002925e+00 1.3464850758593578e+00 1.0000000000000000e+00 4.4108784981857490e+00 1.4491067459355293e+01 1.4978204669925825e+01 
176 1 2 1.0280000000002700e+00 -4.6008602506835395e+01 1.0000000000000000e+00 4.2628517275682931e+00 1.4244005431726761e+01 1.5043818529534670e+01 
148 1 2 1.0280000000002267e+00 -2.7571617160303629e+02 1.0000000000000000e+00 4.6426326993897771e+00 1.4360753008179563e+01 1.5175255110726418e+01 
32 1 2 1.0279999999999887e+00 2.9870771687711766e+02 1.0000000000000000e+00 4.6313362457719656e+00 1.4427403833241556e+01 1.5162151551300706e+01 
172 1 2 1.0279999999998548e+00 1.4486839878481410e+02 1.0000000000000000e+00 4.6379219106405802e+00 1.4386793547010448e+01 1.5185920952108955e+01 
155 1 2 1.0279999999999250e+00 8.1512541093772157e+01 1.0000000000000000e+00 4.1359513062387459e+00 1.5039839745118389e+01 1.5507694564415319e+01 
119 1 2 1.0279999999995828e+00 7.6678678251499491e+01 1.0000000000000000e+00 4.1168384579975861e+00 1.5076050596779062e+01 1.5556116075244736e+01 
91 1 2 1.0279999999999900e+00 5.7997607189046946e+01 1.0000000000000000e+00 4.0881415413270634e+00 1.5114431944161307e+01 1.5613978125693443e+01 
13 1 2 1.0279999999999527e+00 -1.2925178931298865e+02 1.0000000000000000e+00 4.0871106220298712e+00 1.5116157920520918e+01 1.5616529847577583e+01 
66 1 2 1.0279999999999130e+00 6.1496685889569108e+01 1.0000000000000000e+00 4.0704779275967971e+00 1.5154674565194915e+01 1.5671576295920387e+01 
80 1 2 1.0279999999999276e+00 1.0848506288739952e+02 1.0000000000000000e+00 4.0479984032435716e+00 1.5185745069737258e+01 1.5722927583262940e+01 
55 1 2 1.0280000000000167e+00 1.4781708308441426e+02 1.0000000000000000e+00 3.9746891186805549e+00 1.5206362184061852e+01 1.5803874042412172e+01 
108 1 2 1.0280000000000087e+00 9.2628588561451807e+01 1.0000000000000000e+00 4.0202374347462859e+00 1.5231780373301785e+01 1.5799839288610025e+01 
48 1 2 1.0280000000001392e+00 -6.4620208023088168e+01 1.0000000000000000e+00 4.0161856194646210e+00 1.5236229468074338e+01 1.5808397265130646e+01 
111 1 2 1.0280000000000609e+00 -3.7017689829183780e+01 1.0000000000000000e+00 4.0072827373589464e+00 1.5252497969890785e+01 1.5836267291558144e+01 
125 1 2 1.0280000000000000e+00 -9.0868554392077442e+01 1.0000000000000000e+00 4.0073773140081821e+00 1.5252873754638648e+01 1.5836719089048744e+01 
81 1 2 1.0279999999999652e+00 1.0258372754319498e+02 1.0000000000000000e+00 3.9785314904667874e+00 1.5297935167964344e+01 1.5919844475344449e+01 
162 1 2 1.0279999999998364e+00 -2.3187149836467466e+02 1.0000000000000000e+00 3.9730664622586831e+00 1.5307239459393200e+01 1.5937239094996777e+01 
122 1 2 1.0279999999997691e+00 1.9755066342782558e+02 1.0000000000000000e+00 3.9566572285697177e+00 1.5333682860123526e+01 1.5988388243784899e+01 
51 1 2 1.0280000000002860e+00 2.7575415262483119e+01 1.0000000000000000e+00 3.9064004804900594e+00 1.5415567942634747e+01 1.6155993190581807e+01 
72 1 2 1.0279999999999561e+00 2.0563591828322700e+02 1.0000000000000000e+00 3.9869769847306530e-01 1.9790213394756162e+01 1.7148385740789244e+01 
54 1 2 1.0279999999999401e+00 1.0967248586885499e+02 1.0000000000000000e+00 3.4331147448236254e-01 1.9879408388286958e+01 1.7188021228151843e+01 
100 1 2 1.0279999999999327e+00 4.2570491756476670e+01 1.0000000000000000e+00 2.5933226472284643e-01 1.9937621221744514e+01 1.7214230216653345e+01 
97 1 2 1.0279999999999234e+00 -2.6016619525402241e+01 1.0000000000000000e+00 1.6672300352303908e+00 1.6905275034637196e+01 1.9230609035177221e+01 
140 1 2 1.0279999999999363e+00 1.8265754657718779e+02 1.0000000000000000e+00 1.5227238880169475e-01 1.9976540848541152e+01 1.7236632736249568e+01 
126 1 2 1.0279999999999618e+00 -2.8282010665870303e+01 1.0000000000000000e+00 6.5594717943705827e-01 1.9643170914550016e+01 1.7166918512695979e+01 
9 1 2 1.0279999999999769e+00 -3.8441968969662568e+01 1.0000000000000000e+00 2.9954356978918910e+00 1.8727803516025819e+01 1.9023898825317765e+01 
57 1 2 1.0279999999999780e+00 -8.3687327557062162e+01 1.0000000000000000e+00 4.0717844866504640e+00 1.6614801740122495e+01 1.9588463433932350e+01 
116 1 2 1.0279999999999629e+00 1.3898278353369551e+02 1.0000000000000000e+00 8.8388127835186414e-01 1.7348338223355039e+01 1.8596789879512951e+01 
38 1 2 1.0280000000000364e+00 3.5307723520131027e+01 1.0000000000000000e+00 8.3259893086669068e-01 1.9362527320158282e+01 1.7170802606194055e+01 
103 1 2 1.0280000000000169e+00 -7.2836367301040511e+01 1.0000000000000000e+00 8.4052576491006570e-01 1.7374401256236457e+01 1.8535762338825055e+01 
132 1 2 1.0279999999999816e+00 3.7590756892588693e+01 1.0000000000000000e+00 9.5261801332438556e-01 1.9187309621213558e+01 1.7211857892213967e+01 
169 1 2 1.0280000000001226e+00 -2.2632959817149981e+01 1.0000000000000000e+00 9.8372406255686973e-01 1.8724234838204129e+01 1.7246410451442085e+01 
76 1 2 1.0279999999999219e+00 -1.4158891284988272e+01 1.0000000000000000e+00 1.0859587840467353e+00 1.7291530600152168e+01 1.8465598521483678e+01 
120 1 2 1.0279999999999809e+00 -9.4486174166016763e+00 1.0000000000000000e+00 3.6727244657446083e+00 1.6221324581755109e+01 1.7517277366353554e+01 
129 1 2 1.0279999999999960e+00 -1.1394203080670707e+02 1.0000000000000000e+00 1.6099910203072343e+00 1.6939410927596661e+01 1.8883618337644304e+01 
87 1 2 1.0279999999998786e+00 -2.1671942735336451e+01 1.0000000000000000e+00 3.6243690411599152e+00 1.6037292501115278e+01 1.9882517010464731e+01 
175 1 2 1.0279999999999552e+00 -1.0162005413891865e+02 1.0000000000000000e+00 3.8542130206131699e+00 1.6260340542681359e+01 1.9909920408209718e+01 
83 1 2 1.0279999999998100e+00 1.0788051280789480e+02 1.0000000000000000e+00 3.6725011738888109e+00 1.6114290667532082e+01 1.9940695047359366e+01 
146 1 2 1.0279999999999461e+00 8.2413272179711594e+00 1.0000000000000000e+00 1.7974096177803284e-01 1.9983638721077796e+01 1.7242581958984474e+01 
152 1 2 1.0279999999999514e+00 -2.6954627740731482e+01 1.0000000000000000e+00 3.8161264636357268e+00 1.6300000749637267e+01 1.9983557065950592e+01 
75 1 2 1.0279999999999172e+00 -6.3331975641602853e+01 1.0000000000000000e+00 3.8181425659618311e+00 1.6304814167601176e+01 1.9984926980798903e+01 
84 1 2 1.0279999999997902e+00 7.8582245509933259e+01 1.0000000000000000e+00 3.5776382560178082e+00 1.6111640104975127e+01 1.9987388448765159e+01 
69 1 2 1.0280000000000478e+00 3.2091883252617080e+01 1.0000000000000000e+00 6.8419349813171779e+00 1.5089338468672899e+00 8.1481069854338084e-01 
67 1 2 1.0279999999999905e+00 1.3453181479015484e+02 1.0000000000000000e+00 6.7215202373039160e+00 1.1313686235060492e+00 1.1860115701237799e+00 
47 1 2 1.0280000000000222e+00 1.4224812289079563e+02 1.0000000000000000e+00 6.6876692492220480e+00 1.1879010565472012e+00 1.4732218977282978e+00 
31 1 2 1.0280000000000116e+00 -5.6138011407367863e+01 1.0000000000000000e+00 1.9757720233773718e+01 1.6860632284646380e+00 4.3949715517535815e+00 
22 1 2 1.0280000000000016e+00 1.4714440187832507e+01 1.0000000000000000e+00 1.9761772093691359e+01 2.4504385653038923e+00 4.4215355117971082e+00 
41 1 2 1.0280000000000167e+00 1.6700957174976477e+02 1.0000000000000000e+00 1.9794240405584425e+01 1.6911411482752836e+00 4.9530839875559804e+00 
136 1 2 1.0280000000000122e+00 1.2629434113332218e+02 1.0000000000000000e+00 1.9670195974077888e+01 2.0447329033800092e+00 4.5398292512285412e+00 
36 1 2 1.0280000000000022e+00 -6.6543086549070097e+01 1.0000000000000000e+00 1.9663564717592074e+01 2.0586825721520086e+00 4.6748849509349801e+00 
95 1 2 1.0280000000000051e+00 -1.0115491242290045e+02 1.0000000000000000e+00 1.9669925022422465e+01 2.0779310908789093e+00 4.5356539467953167e+00 
107 1 2 1.0280000000000089e+00 -1.0911531601220972e+02 1.0000000000000000e+00 1.9664840818335502e+01 2.0802526948570725e+00 4.6022474327893299e+00 
144 1 2 1.0280000000000158e+00 2.3203142260952937e+01 1.0000000000000000e+00 1.9665560592392413e+01 2.1249594120518669e+00 4.5980193589623024e+00 
145 1 2 1.0280000000000145e+00 -3.6113582354634218e+01 1.0000000000000000e+00 1.9665280708130172e+01 2.1522413162164304e+00 4.6252283750675263e+00 
23 1 2 1.0279999999999989e+00 1.6368996541961593e+02 1.0000000000000000e+00 1.9685531123373945e+01 2.1785154450558131e+00 4.4575758108130872e+00 
109 1 2 1.0280000000000002e+00 -1.0060416826851235e+02 1.0000000000000000e+00 1.9665726127083655e+01 2.1774782519103617e+00 4.6588034874539410e+00 
74 1 2 1.0280000000000085e+00 9.6827375168950340e+01 1.0000000000000000e+00 1.9669390700931412e+01 2.1730792988914041e+00 4.8002554448848276e+00 
46 1 2 1.0279999999999980e+00 -9.4913923923978167e+00 1.0000000000000000e+00 1.9853582614449348e+01 2.7029567418395959e+00 4.7913892670393574e+00 
18 1 2 1.0280000000000038e+00 5.8115054874260437e+01 1.0000000000000000e+00 1.9901929513583287e+01 2.7248598372795860e+00 4.5081759160464090e+00 
71 1 2 1.0280000000000049e+00 1.7872011570672601e+02 1.0000000000000000e+00 1.9820817653776885e+01 2.4013254168257219e+00 5.2340716582114739e+00 
8 1 2 1.0280000000000891e+00 -1.3792100930166589e+02 1.0000000000000000e+00 1.9951572598103443e+01 4.1665978442811613e-02 1.7312017639391851e+01 
68 1 2 1.0280000000000502e+00 2.1945115825132649e+02 1.0000000000000000e+00 1.9967743291173193e+01 1.0870157359509899e-01 1.7374265121568282e+01 
147 1 2 1.0280000000000724e+00 -2.6859991083429588e+02 1.0000000000000000e+00 1.9983898331325179e+01 7.1012558016104621e-02 1.7333029904771713e+01 
117 1 2 1.0280000000000256e+00 5.1481111461062326e+01 1.0000000000000000e+00 1.8908806576643165e+01 1.9072558586319889e+01 1.8214980151794268e+01 
118 1 2 1.0280000000000356e+00 -5.9749205022976938e+01 1.0000000000000000e+00 1.8926120763135003e+01 1.8897995140543983e+01 1.8138814758051769e+01 
17 1 2 1.0280000000000715e+00 8.9933533769344081e+00 1.0000000000000000e+00 1.8972032830765325e+01 1.8759446316246166e+01 1.8292829055763264e+01 
73 1 2 1.0280000000000513e+00 -4.0649431618370556e+01 1.0000000000000000e+00 1.8987805543038963e+01 1.8732210329689629e+01 1.8339068209547186e+01 
93 1 2 1.0280000000000484e+00 1.1604600579758679e+02 1.0000000000000000e+00 1.9035399629491661e+01 1.9303517114327029e+01 1.7593388379390191e+01 
96 1 2 1.0280000000000573e+00 -2.4102053735235899e+01 1.0000000000000000e+00 1.9011977861919174e+01 1.8632266114124711e+01 1.8228049263531460e+01 
1 1 2 1.0280000000000220e+00 -1.0502369714406541e+01 1.0000000000000000e+00 1.9019008791724286e+01 1.8633603854400238e+01 1.8295971895041703e+01 
86 1 2 1.0280000000000395e+00 2.8768909990324039e+02 1.0000000000000000e+00 1.9048143354335320e+01 1.8559067802625663e+01 1.8248012649650523e+01 
50 1 2 1.0280000000000336e+00 5.8080516246592595e+01 1.0000000000000000e+00 1.9094540412083479e+01 1.8471362218109263e+01 1.8221794037350477e+01 
90 1 2 1.0279999999999949e+00 7.6205266676434192e+01 1.0000000000000000e+00 1.9124238072404083e+01 1.8439028901426521e+01 1.8306520541662483e+01 
138 1 2 1.0280000000000393e+00 1.3592154083972744e+02 1.0000000000000000e+00 1.9140396444836810e+01 1.8411229170171026e+01 1.8290884929264333e+01 
85 1 2 1.0280000000000442e+00 9.2177114019049526e+01 1.0000000000000000e+00 1.9263185437312675e+01 1.8249470840408740e+01 1.8247702876432172e+01 
177 1 2 1.0280000000000058e+00 1.6530351011218727e+02 1.0000000000000000e+00 1.9674392999249790e+01 1.7921025990509108e+01 1.8387959221731681e+01 

Velocities

15 -1.5458242395940492e-11 -1.9252492375034192e-11 1.4481706333513681e-11
30 -1.4006763073261506e-11 -1.7463120769533221e-11 1.2642806308291123e-11
19 -1.3359003688445640e-11 -1.9591531865585651e-11 1.3722309805292522e-11
78 -1.1927453532675721e-11 -1.8114234662791068e-11 1.8813125848560383e-11
114 -1.2816527836312736e-11 -2.0480514053002050e-11 1.3410324889609105e-11
25 -1.2203938924282883e-11 -1.8343883464471110e-11 1.1978927908622109e-11
105 -1.2248354059317131e-11 -1.9601864692326933e-11 1.2820269958655684e-11
44 -1.3571665414189042e-11 -1.7865511837415046e-11 1.6842896562239517e-11
88 -1.1780433834387782e-11 -1.8451619078292848e-11 1.2496201876898523e-11
163 -1.0857619018472034e-11 -1.8934740352164781e-11 1.2223106849505227e-11
89 -1.5790554980634123e-11 -2.0388711314500970e-11 1.3329084629323187e-11
179 -1.2171047277229807e-11 -1.8694922632450108e-11 1.1736303314918118e-11
28 -1.0145180162759674e-11 -1.8389696702005835e-11 1.9120513233163532e-11
180 -1.1817897666497847e-11 -1.7022881530039060e-11 1.3573144580984282e-11
16 -1.1053322250616889e-11 -2.7325640380885473e-11 1.8735846738273839e-11
121 -1.2566720929821511e-11 -2.0120973066249005e-11 2.1235423212949768e-11
178 -1.0742969502768561e-11 -1.7235974146466541e-11 1.3376204979657461e-11
160 -1.2698800582357919e-11 -1.9993163133772725e-11 2.1357704022083254e-11
168 -1.2785562020874078e-11 -2.0285807647061557e-11 2.1308037551834953e-11
94 -1.2534877758654425e-11 -2.0066421304790649e-11 2.1292161227978488e-11
82 -1.2898248120661937e-11 -2.0270167927377037e-11 2.1204232499425878e-11
37 -1.2827356638007044e-11 -2.0025622652904773e-11 2.1115045331726315e-11
49 -1.2721060189341605e-11 -2.0038934171059569e-11 2.1443271383486409e-11
43 -1.0968774315166834e-11 -1.8808325956588987e-11 2.0138825850854607e-11
170 -1.2825505605849443e-11 -2.0065483848930973e-11 2.1508390643843943e-11
115 -1.2791761263583870e-11 -2.0178213474300837e-11 2.1518499761673045e-11
12 -1.2990354089679086e-11 -2.0163499410402163e-11 2.1111149375259574e-11
156 -1.3037140549946112e-11 -2.0175013815380418e-11 2.1271056085842972e-11
123 -1.3084325323946215e-11 -2.0058442006063359e-11 2.0886651813337704e-11
60 -1.0419778539511467e-11 -1.9438951269956844e-11 1.9607900849745240e-11
173 -1.3267119496616776e-11 -1.9836137194047520e-11 2.0790386515665205e-11
158 -1.3223816568953669e-11 -2.0030121600063499e-11 2.1277024973202506e-11
157 -1.0239966733304368e-11 -1.9618318345609334e-11 2.0556451632911890e-11
4 -1.3423155009559105e-11 -1.7952845417787583e-11 1.3890536375662527e-11
139 -1.0678929800776092e-11 -1.9094416381034298e-11 2.0051973377588342e-11
143 -1.0503365813508335e-11 -1.9334812405623412e-11 1.9804523433156280e-11
153 -1.0440995566166062e-11 -1.9414801650175694e-11 1.9727970746959096e-11
62 -1.0451339157092768e-11 -1.9403730344556087e-11 1.9709586617906098e-11
113 -1.0819017761817748e-11 -1.8931542653036014e-11 2.0142424387894339e-11
128 -1.1836698430824225e-11 -1.7860000144927986e-11 2.0389751844211284e-11
20 -2.0115752056311507e-11 -3.8926195946788689e-11 1.3556222608781091e-11
171 -2.0552007458423435e-11 -3.9177692606117311e-11 1.3790705272049334e-11
150 -1.9926770740231082e-11 -3.8850109350639702e-11 1.4386074330320832e-11