LAMMPS data file via write_data, version 30 Jul 2016, timestep = 50000000

180 atoms
2 atom types

0.0000000000000000e+00 2.0000000000000000e+01 xlo xhi
0.0000000000000000e+00 2.0000000000000000e+01 ylo yhi
0.0000000000000000e+00 2.0000000000000000e+01 zlo zhi

Masses

1 3.896
2 4.31

Atoms # meso-molecular

15 1 2 1.0280000000000191e+00 -9.0754629091437351e+01 1.0000000000000000e+00 2.4185524751080703e+00 7.4795085498095959e-01 1.7973869537438105e+00 
30 1 2 1.0280000000000815e+00 5.2509319316488757e+01 1.0000000000000000e+00 1.6478819663574675e+00 3.8159333677719326e-01 1.3587966442134303e+00 
19 1 2 1.0279999999999343e+00 -5.8545560718092503e+01 1.0000000000000000e+00 1.9138149604036354e+00 8.7681395772947468e-01 7.2695700189598034e-01 
78 1 2 1.0280000000000971e+00 -8.5221758287903981e+01 1.0000000000000000e+00 3.1913950084163947e+00 4.0824511786300038e-01 1.5866135642722341e+00 
114 1 2 1.0279999999999556e+00 -1.8433278666782405e+02 1.0000000000000000e+00 1.7736578895045521e+00 8.4491252266911798e-01 8.2804028718050038e-01 
25 1 2 1.0279999999999674e+00 -2.7334315133035654e+00 1.0000000000000000e+00 1.4686402058439969e+00 5.3941128699600560e-01 1.1537611834747348e+00 
105 1 2 1.0279999999998601e+00 -1.4354874164550452e+02 1.0000000000000000e+00 1.5556485549559074e+00 7.4648394135173002e-01 9.3567299736242693e-01 
44 1 2 1.0280000000001259e+00 1.7034832232328451e+01 1.0000000000000000e+00 2.9476863351274387e+00 5.2585723194665990e-01 1.6558373039927805e+00 
88 1 2 1.0279999999999496e+00 -5.5454514903327407e+01 1.0000000000000000e+00 1.3565077751787462e+00 6.1365890269291890e-01 9.4142616656777767e-01 
163 1 2 1.0279999999999592e+00 4.7765708416389332e+00 1.0000000000000000e+00 1.2978866834721796e+00 6.0751776045680494e-01 8.7915337711985531e-01 
89 1 2 1.0279999999999319e+00 -1.1785375626200735e+02 1.0000000000000000e+00 2.3895496044210320e+00 8.8304264043201730e-01 1.8513690711971611e+00 
179 1 2 1.0279999999999014e+00 6.0060918259119958e+01 1.0000000000000000e+00 1.5313915489762182e+00 5.5913797950704325e-01 1.2103173305326853e+00 
28 1 2 1.0280000000001632e+00 -4.3860054229460772e+01 1.0000000000000000e+00 3.2072984714034640e+00 5.1665364795739556e-02 1.4084535998396335e+00 
180 1 2 1.0279999999999792e+00 1.2224284453447765e+02 1.0000000000000000e+00 1.3549768231459753e+00 8.3273735502619228e-01 2.9287164971968876e-01 
16 1 2 1.0279999999999496e+00 -2.1079634530738698e+01 1.0000000000000000e+00 3.7331934412971353e+00 1.5177933950353122e+00 1.2207059210969149e+00 
121 1 2 1.0279999999999900e+00 3.1957541619282765e+01 1.0000000000000000e+00 6.1604973169430579e+00 2.4910088146180631e+00 1.4806902594601212e+00 
178 1 2 1.0279999999999074e+00 -8.3332930519985837e+01 1.0000000000000000e+00 1.0435405329567657e+00 7.3490679752341159e-01 3.0699633090863276e-01 
160 1 2 1.0279999999999863e+00 -1.9643667775299360e+02 1.0000000000000000e+00 6.3402633475882686e+00 2.4558896311198359e+00 1.4850119202053389e+00 
168 1 2 1.0280000000000256e+00 -1.5306072114173065e+02 1.0000000000000000e+00 6.3445969311582022e+00 2.4652572186240915e+00 1.4566709993633278e+00 
94 1 2 1.0279999999999783e+00 -3.5967274512602501e+01 1.0000000000000000e+00 6.1123441459202192e+00 2.5091183054841126e+00 1.4361184102368154e+00 
82 1 2 1.0279999999999889e+00 -5.4057626492894286e+01 1.0000000000000000e+00 6.4173986368167384e+00 2.4187511073813783e+00 1.5111338768656439e+00 
37 1 2 1.0279999999999365e+00 -6.9334792167054161e+01 1.0000000000000000e+00 6.4231963771806191e+00 2.3667432096140462e+00 1.6005662397251370e+00 
49 1 2 1.0280000000000009e+00 -6.7209462428705308e+01 1.0000000000000000e+00 6.3500065930170715e+00 2.4743643126768671e+00 1.4240663743487465e+00 
43 1 2 1.0279999999999825e+00 -5.7571346088735666e+01 1.0000000000000000e+00 6.3039938766108756e+00 1.0471225586462782e+00 5.8260170044191228e-01 
170 1 2 1.0279999999999736e+00 -2.5024043603034164e+02 1.0000000000000000e+00 6.4362963928356018e+00 2.4534050099669171e+00 1.3966051765621523e+00 
115 1 2 1.0279999999999907e+00 3.9429200251039003e+00 1.0000000000000000e+00 6.3761824105289557e+00 2.4822459499533753e+00 1.3636944477566320e+00 
12 1 2 1.0279999999999607e+00 -2.2968466296518127e+02 1.0000000000000000e+00 6.4846835201525588e+00 2.3597484161591140e+00 1.5644769770291254e+00 
156 1 2 1.0279999999999576e+00 -2.9393601127201542e+01 1.0000000000000000e+00 6.5205852562234545e+00 2.3754578450447421e+00 1.4999677637210127e+00 
123 1 2 1.0279999999999871e+00 -6.3996149528315193e+01 1.0000000000000000e+00 6.5258477763923555e+00 2.2765565099074001e+00 1.6450135721778067e+00 
60 1 2 1.0279999999999787e+00 4.3194399518823005e+01 1.0000000000000000e+00 6.2981704464236898e+00 9.8728577983852173e-01 6.3893889344410826e-01 
173 1 2 1.0279999999999854e+00 -2.0257916351478229e+01 1.0000000000000000e+00 6.6248742460713901e+00 2.1594902265950946e+00 1.6753404274505166e+00 
158 1 2 1.0279999999999818e+00 1.5891080945130977e+02 1.0000000000000000e+00 6.6412138719375138e+00 2.2883733851131480e+00 1.5070501046433102e+00 
157 1 2 1.0279999999999818e+00 -2.3778469485727487e+02 1.0000000000000000e+00 6.3846989057658892e+00 8.8168036025385033e-01 9.2459285396134605e-01 
4 1 2 1.0280000000000147e+00 -1.4852970483261822e+02 1.0000000000000000e+00 2.0647429543324569e+00 8.6938224244510298e-01 4.2201068286685672e-01 
139 1 2 1.0279999999999729e+00 -5.1581719896244799e+01 1.0000000000000000e+00 6.3251274200515377e+00 9.8582900891259517e-01 6.6238531402189782e-01 
143 1 2 1.0279999999999725e+00 7.3532412256769774e+01 1.0000000000000000e+00 6.3255388111113584e+00 9.9716838516495354e-01 6.4950553082265672e-01 
153 1 2 1.0279999999999676e+00 1.0093436902654924e+01 1.0000000000000000e+00 6.3244221029350598e+00 9.9662307866043387e-01 6.4921845214019802e-01 
62 1 2 1.0279999999999569e+00 2.0358120500135402e+02 1.0000000000000000e+00 6.3205247506541822e+00 9.9880939728293916e-01 6.4360567007893910e-01 
113 1 2 1.0279999999999836e+00 1.2915457525671019e+02 1.0000000000000000e+00 6.3198181460430316e+00 1.0006883461298859e+00 6.4094566862943070e-01 
128 1 2 1.0280000000000440e+00 3.4064298000617256e+01 1.0000000000000000e+00 5.7271905845515843e+00 1.2762437290360600e+00 2.8727787304023467e-01 
20 1 2 1.0280000000001384e+00 -1.5428471069739606e+02 1.0000000000000000e+00 8.9847724403569140e-02 1.1991014994817331e+00 4.3800945824274553e+00 
171 1 2 1.0279999999999638e+00 -3.6817588998743346e+01 1.0000000000000000e+00 1.9175635930729780e+00 2.3882155237270628e+00 5.3274757771566854e+00 
150 1 2 1.0279999999999849e+00 -2.7074126145295088e+02 1.0000000000000000e+00 1.8471724979753004e+00 1.7514482676630485e+00 5.3546127274744606e+00 
112 1 2 1.0280000000000349e+00 -7.7082656459513572e+01 1.0000000000000000e+00 1.9619122431699547e+00 2.2779769332857991e+00 5.2966943450047346e+00 
3 1 2 1.0280000000000067e+00 -1.0486572550548564e+02 1.0000000000000000e+00 1.9503003315851670e+00 2.3229363196779964e+00 5.3013472484056008e+00 
164 1 2 1.0280000000000205e+00 -1.2168111028749328e+02 1.0000000000000000e+00 1.9450536977198258e+00 2.3339948784712337e+00 5.3059555623792578e+00 
141 1 2 1.0280000000000444e+00 4.7500137559059958e+01 1.0000000000000000e+00 1.9457266375772921e+00 2.3309571067748638e+00 5.3060261651062763e+00 
159 1 2 1.0280000000000309e+00 -5.5931553038719557e+01 1.0000000000000000e+00 1.9396598827851377e+00 2.3505728294642005e+00 5.3081678538849131e+00 
2 1 2 1.0280000000000307e+00 -6.2984050021557060e+01 1.0000000000000000e+00 1.9359150880405489e+00 2.3633951132274573e+00 5.3087669735906173e+00 
99 1 2 1.0280000000000167e+00 -3.1735000450035670e+01 1.0000000000000000e+00 1.9347942579767039e+00 2.3556822433308700e+00 5.3141414605633708e+00 
52 1 2 1.0280000000000036e+00 9.7988280905438558e+01 1.0000000000000000e+00 1.9278176887695702e+00 2.3712742030193557e+00 5.3187120750457559e+00 
124 1 2 1.0279999999999734e+00 -7.2512875643015562e+01 1.0000000000000000e+00 1.9268818403870658e+00 2.3736106269508532e+00 5.3191690324884027e+00 
130 1 2 1.0279999999999598e+00 7.2209877507027347e+00 1.0000000000000000e+00 1.9261763001107786e+00 2.3744656783271014e+00 5.3199369489875217e+00 
42 1 2 1.0280000000000171e+00 -1.6763490028087733e+02 1.0000000000000000e+00 1.9262495190565285e+00 2.3733874056224722e+00 5.3203254686748123e+00 
131 1 2 1.0280000000000089e+00 3.8083300070247766e+01 1.0000000000000000e+00 1.9283313216699782e+00 2.3653991347191958e+00 5.3205725511371709e+00 
10 1 2 1.0279999999999763e+00 -3.9886464228844973e+00 1.0000000000000000e+00 1.9206238447509543e+00 2.3788199842398647e+00 5.3270283919832710e+00 
166 1 2 1.0280000000000624e+00 -1.3578413301005192e+01 1.0000000000000000e+00 6.6097250090236717e-02 4.0953734976529495e-02 1.7293446885479064e+01 
151 1 2 1.0280000000000364e+00 -1.8539497532868950e+01 1.0000000000000000e+00 1.1751535316670216e+00 8.5729627845325163e-01 1.9365982549669159e+01 
5 1 2 1.0280000000000085e+00 -1.6494070530299877e+02 1.0000000000000000e+00 2.0286963168397847e+00 7.6580229761528729e-01 1.9848817263885781e+01 
79 1 2 1.0280000000001173e+00 -1.8234013034067665e+01 1.0000000000000000e+00 3.5158893429162248e+00 1.6351720134948373e+01 2.1277120964791765e-01 
70 1 2 1.0280000000001510e+00 -5.9417899921441489e+01 1.0000000000000000e+00 3.8555868164106002e+00 1.6473502032875164e+01 4.5504066764557108e-02 
102 1 2 1.0280000000000513e+00 4.7203210452280196e+01 1.0000000000000000e+00 3.5525516116664169e+00 1.6270422021926578e+01 1.4039831999650168e-01 
35 1 2 1.0280000000001035e+00 -5.4922122343551166e+01 1.0000000000000000e+00 3.7412848714135727e+00 1.6464266458299416e+01 1.5581773829958007e-01 
92 1 2 1.0280000000000471e+00 -5.7474605123577867e+01 1.0000000000000000e+00 2.9207196940051872e+00 1.9825147423288112e+01 1.3512386156498888e+00 
154 1 2 1.0280000000000258e+00 -4.8665624652530845e+01 1.0000000000000000e+00 3.7230426925787636e+00 1.6280794478414229e+01 5.3187361470862525e-02 
29 1 2 1.0279999999999969e+00 6.0915602520218862e+01 1.0000000000000000e+00 2.0988678121527586e+00 1.9748788296688303e+01 1.3264388612837024e+00 
33 1 2 1.0280000000000225e+00 -9.0689634294649366e+00 1.0000000000000000e+00 3.6857837330890431e+00 1.6246127108809855e+01 5.2680120141960850e-02 
101 1 2 1.0280000000000242e+00 1.0870267997722755e+02 1.0000000000000000e+00 3.7779334269083304e+00 1.6283402453220425e+01 9.0135215290357354e-03 
161 1 2 1.0280000000000000e+00 6.1567256851207503e+01 1.0000000000000000e+00 3.7376456628002019e+00 1.6242567766782280e+01 1.1816389530337340e-02 
7 1 2 1.0280000000000677e+00 -8.2997225195664697e+01 1.0000000000000000e+00 3.6625420218571119e+00 1.6301687645604456e+01 1.0999914348692434e-01 
104 1 2 1.0280000000001548e+00 5.6611177133449573e+01 1.0000000000000000e+00 3.2719384884152323e+00 1.9750440306338341e+01 1.2556025316811577e+00 
133 1 2 1.0279999999999909e+00 5.1613143218912128e+01 1.0000000000000000e+00 1.6327877592096709e+00 1.9840898855420974e+01 1.2310685641681034e+00 
27 1 2 1.0280000000000526e+00 -5.1006019263803239e+01 1.0000000000000000e+00 3.6072174007878304e+00 1.6233069141702366e+01 8.6910722661680817e-02 
11 1 2 1.0280000000000606e+00 -7.7788883850926311e+01 1.0000000000000000e+00 3.6698121399010430e+00 1.6304437821386500e+01 1.0749909568009630e-01 
45 1 2 1.0280000000000438e+00 6.6037815146016584e+01 1.0000000000000000e+00 3.4834371366325954e+00 1.6133649871748414e+01 3.9631628177940741e-02 
39 1 2 1.0280000000000715e+00 1.4094164971846484e+02 1.0000000000000000e+00 3.6474293046871096e+00 1.6304206137323231e+01 1.2078557673469653e-01 
165 1 2 1.0279999999996905e+00 6.3780497404406233e+01 1.0000000000000000e+00 5.7841511826197838e+00 1.1304176225610821e+01 1.2713932125242726e+01 
56 1 2 1.0279999999999800e+00 -6.1952148060450412e+01 1.0000000000000000e+00 5.8402959041843481e+00 1.1245703512644512e+01 1.2832134368992959e+01 
127 1 2 1.0280000000000729e+00 -2.8783500625820366e+01 1.0000000000000000e+00 5.7391214996514579e+00 1.1200181047384337e+01 1.3228030014085313e+01 
64 1 2 1.0280000000000309e+00 3.3340978869933451e+01 1.0000000000000000e+00 5.6877318156379495e+00 1.1224994718488908e+01 1.2738127061133650e+01 
149 1 2 1.0280000000000953e+00 -7.6526401245887996e+01 1.0000000000000000e+00 5.6902391761028488e+00 1.1224455206428249e+01 1.2739603374416838e+01 
135 1 2 1.0280000000000815e+00 1.3763029415071657e+02 1.0000000000000000e+00 5.6903106381415558e+00 1.1224318418342270e+01 1.2739784354005458e+01 
6 1 2 1.0280000000000986e+00 -1.6482272207878106e+02 1.0000000000000000e+00 5.6910922741375716e+00 1.1224224042905446e+01 1.2740168191086610e+01 
110 1 2 1.0280000000000045e+00 5.0064094305320026e+01 1.0000000000000000e+00 5.6865164712433716e+00 1.1224445792257914e+01 1.2738339548006705e+01 
174 1 2 1.0280000000000071e+00 5.0467624635580918e+01 1.0000000000000000e+00 5.6867421207868878e+00 1.1224319009567292e+01 1.2738558806648131e+01 
134 1 2 1.0280000000001024e+00 -1.8181816368461878e+00 1.0000000000000000e+00 5.6957207545141380e+00 1.1223330308840406e+01 1.2742893545645746e+01 
58 1 2 1.0280000000000153e+00 3.6701543967895105e+01 1.0000000000000000e+00 5.6852764913060252e+00 1.1224216216073113e+01 1.2738188902409416e+01 
142 1 2 1.0280000000000513e+00 1.0723654427759570e+02 1.0000000000000000e+00 5.6848290378218929e+00 1.1223950791769445e+01 1.2738343274220856e+01 
65 1 2 1.0280000000000784e+00 1.2096233859447216e+02 1.0000000000000000e+00 5.6880366502954844e+00 1.1223640956814702e+01 1.2739769370765613e+01 
21 1 2 1.0280000000000555e+00 -6.2776725981348939e+01 1.0000000000000000e+00 5.6979114582015891e+00 1.1222414859476569e+01 1.2744802407872774e+01 
59 1 2 1.0280000000000704e+00 -8.1835485295678154e+01 1.0000000000000000e+00 5.6842718629289744e+00 1.1223724246526146e+01 1.2738418965064687e+01 
106 1 2 1.0280000000000207e+00 5.1878798963574283e+01 1.0000000000000000e+00 5.6955968498628584e+00 1.1222567261420441e+01 1.2743733751333444e+01 
53 1 2 1.0280000000001075e+00 4.1063929472149880e+01 1.0000000000000000e+00 5.6883845553832995e+00 1.1223102843181746e+01 1.2740505430352611e+01 
40 1 2 1.0280000000001128e+00 4.2182922912770252e+01 1.0000000000000000e+00 5.6907402461715053e+00 1.1222035715186401e+01 1.2742565171374029e+01 
24 1 2 1.0280000000001275e+00 7.5843665335782148e+01 1.0000000000000000e+00 5.6900873618928793e+00 1.1221830280156379e+01 1.2742571862504613e+01 
63 1 2 1.0280000000001097e+00 -1.0593211201505048e+02 1.0000000000000000e+00 5.6918688129452324e+00 1.1219582672147617e+01 1.2745858298407709e+01 
167 1 2 1.0280000000000518e+00 4.8562154126095997e+01 1.0000000000000000e+00 5.7058737038812275e+00 1.1196719310303381e+01 1.2782517027813681e+01 
98 1 2 1.0280000000000438e+00 8.6351897275597253e+01 1.0000000000000000e+00 5.7004262707804161e+00 1.1165591268163016e+01 1.2836837151728373e+01 
26 1 2 1.0279999999998324e+00 -1.6699987870327755e+02 1.0000000000000000e+00 5.5967375231781844e+00 1.2313180726553172e+01 1.3927852549684717e+01 
61 1 2 1.0279999999997040e+00 2.8546473907011301e+02 1.0000000000000000e+00 4.7999858274556839e+00 1.3530274214016067e+01 1.4358516928260414e+01 
14 1 2 1.0279999999995408e+00 -5.9817964812560518e+01 1.0000000000000000e+00 4.6927080385970168e+00 1.3754863517065031e+01 1.4542851833197428e+01 
34 1 2 1.0280000000001279e+00 -5.8096191036781278e+01 1.0000000000000000e+00 4.3627977558865219e+00 1.4291510247459090e+01 1.4895870413882486e+01 
137 1 2 1.0280000000000671e+00 1.0100452085152479e+02 1.0000000000000000e+00 4.4984671989306442e+00 1.4367211255349551e+01 1.4897081287890101e+01 
77 1 2 1.0280000000000031e+00 1.3464850758593578e+00 1.0000000000000000e+00 4.4108784971199348e+00 1.4491067457077813e+01 1.4978204670910118e+01 
176 1 2 1.0280000000004037e+00 -4.6008602506835395e+01 1.0000000000000000e+00 4.2628517267954731e+00 1.4244005429595132e+01 1.5043818530329659e+01 
148 1 2 1.0280000000001404e+00 -2.7571617160303629e+02 1.0000000000000000e+00 4.6426326982796411e+00 1.4360753006047934e+01 1.5175255111436961e+01 
32 1 2 1.0280000000000420e+00 2.9870771687711766e+02 1.0000000000000000e+00 4.6313362446386295e+00 1.4427403831096814e+01 1.5162151552011249e+01 
172 1 2 1.0280000000001495e+00 1.4486839878481410e+02 1.0000000000000000e+00 4.6379219095241702e+00 1.4386793544878820e+01 1.5185920952819497e+01 
155 1 2 1.0280000000002403e+00 8.1512541093772157e+01 1.0000000000000000e+00 4.1359513054701349e+00 1.5039839743173546e+01 1.5507694565113912e+01 
119 1 2 1.0280000000003284e+00 7.6678678251499491e+01 1.0000000000000000e+00 4.1168384572283570e+00 1.5076050594883402e+01 1.5556116075955336e+01 
91 1 2 1.0280000000001761e+00 5.7997607189046946e+01 1.0000000000000000e+00 4.0881415405325656e+00 1.5114431942324089e+01 1.5613978126403985e+01 
13 1 2 1.0280000000001197e+00 -1.2925178931298865e+02 1.0000000000000000e+00 4.0871106212285966e+00 1.5116157918683538e+01 1.5616529848288126e+01 
66 1 2 1.0279999999996983e+00 6.1496685889569108e+01 1.0000000000000000e+00 4.0704779267552871e+00 1.5154674563398023e+01 1.5671576296630930e+01 
80 1 2 1.0279999999997944e+00 1.0848506288739952e+02 1.0000000000000000e+00 4.0479984024164022e+00 1.5185745067989627e+01 1.5722927583973483e+01 
55 1 2 1.0279999999998397e+00 1.4781708308441426e+02 1.0000000000000000e+00 3.9746891178199841e+00 1.5206362182356148e+01 1.5803874043122715e+01 
108 1 2 1.0279999999998366e+00 9.2628588561451807e+01 1.0000000000000000e+00 4.0202374339279539e+00 1.5231780371624419e+01 1.5799839289320568e+01 
48 1 2 1.0279999999998395e+00 -6.4620208023088168e+01 1.0000000000000000e+00 4.0161856186495912e+00 1.5236229466408432e+01 1.5808397265841188e+01 
111 1 2 1.0279999999997589e+00 -3.7017689829183780e+01 1.0000000000000000e+00 4.0072827365490005e+00 1.5252497968250468e+01 1.5836267292268687e+01 
125 1 2 1.0279999999999074e+00 -9.0868554392077442e+01 1.0000000000000000e+00 4.0073773132052892e+00 1.5252873752997806e+01 1.5836719089759287e+01 
81 1 2 1.0279999999997906e+00 1.0258372754319498e+02 1.0000000000000000e+00 3.9785314896103410e+00 1.5297935166366441e+01 1.5919844476054992e+01 
162 1 2 1.0279999999999316e+00 -2.3187149836467466e+02 1.0000000000000000e+00 3.9730664613954234e+00 1.5307239457800364e+01 1.5937239095707319e+01 
122 1 2 1.0280000000000444e+00 1.9755066342782558e+02 1.0000000000000000e+00 3.9566572276748806e+00 1.5333682858551375e+01 1.5988388244495441e+01 
51 1 2 1.0279999999998746e+00 2.7575415262483119e+01 1.0000000000000000e+00 3.9064004797530911e+00 1.5415567941138738e+01 1.6155993191047362e+01 
72 1 2 1.0279999999999752e+00 2.0563591828322700e+02 1.0000000000000000e+00 3.9869769888982737e-01 1.9790213394756162e+01 1.7148385740661105e+01 
54 1 2 1.0279999999999210e+00 1.0967248586885499e+02 1.0000000000000000e+00 3.4331147488893898e-01 1.9879408388286958e+01 1.7188021227989221e+01 
100 1 2 1.0279999999999343e+00 4.2570491756476670e+01 1.0000000000000000e+00 2.5933226511184199e-01 1.9937621221744514e+01 1.7214230216461541e+01 
97 1 2 1.0280000000000808e+00 -2.6016619525402241e+01 1.0000000000000000e+00 1.6672300352032525e+00 1.6905275034637196e+01 1.9230609035177221e+01 
140 1 2 1.0279999999999678e+00 1.8265754657718779e+02 1.0000000000000000e+00 1.5227238916438812e-01 1.9976540848585071e+01 1.7236632736066809e+01 
126 1 2 1.0279999999999432e+00 -2.8282010665870303e+01 1.0000000000000000e+00 6.5594717989841000e-01 1.9643170914550016e+01 1.7166918512638912e+01 
9 1 2 1.0280000000000513e+00 -3.8441968969662568e+01 1.0000000000000000e+00 2.9954356980402932e+00 1.8727803516025819e+01 1.9023898825317765e+01 
57 1 2 1.0279999999999028e+00 -8.3687327557062162e+01 1.0000000000000000e+00 4.0717844863816932e+00 1.6614801740122495e+01 1.9588463433932350e+01 
116 1 2 1.0280000000000460e+00 1.3898278353369551e+02 1.0000000000000000e+00 8.8388127856406429e-01 1.7348338223357175e+01 1.8596789879512951e+01 
38 1 2 1.0279999999999736e+00 3.5307723520131027e+01 1.0000000000000000e+00 8.3259893129113227e-01 1.9362527320158282e+01 1.7170802606194055e+01 
103 1 2 1.0280000000000002e+00 -7.2836367301040511e+01 1.0000000000000000e+00 8.4052576513242860e-01 1.7374401256240603e+01 1.8535762338825055e+01 
132 1 2 1.0279999999999279e+00 3.7590756892588693e+01 1.0000000000000000e+00 9.5261801367663512e-01 1.9187309621213558e+01 1.7211857892213967e+01 
169 1 2 1.0279999999999505e+00 -2.2632959817149981e+01 1.0000000000000000e+00 9.8372406274914559e-01 1.8724234838204129e+01 1.7246410451442085e+01 
76 1 2 1.0280000000000085e+00 -1.4158891284988272e+01 1.0000000000000000e+00 1.0859587841331071e+00 1.7291530600152168e+01 1.8465598521483678e+01 
120 1 2 1.0280000000000249e+00 -9.4486174166016763e+00 1.0000000000000000e+00 3.6727244652117013e+00 1.6221324581343151e+01 1.7517277366898330e+01 
129 1 2 1.0279999999999385e+00 -1.1394203080670707e+02 1.0000000000000000e+00 1.6099910201885381e+00 1.6939410927596661e+01 1.8883618337644304e+01 
87 1 2 1.0279999999998657e+00 -2.1671942735336451e+01 1.0000000000000000e+00 3.6243690411417364e+00 1.6037292501115278e+01 1.9882517010734404e+01 
175 1 2 1.0279999999999341e+00 -1.0162005413891865e+02 1.0000000000000000e+00 3.8542130205644498e+00 1.6260340542681359e+01 1.9909920408209718e+01 
83 1 2 1.0279999999998199e+00 1.0788051280789480e+02 1.0000000000000000e+00 3.6725011738888109e+00 1.6114290667532082e+01 1.9940695047509138e+01 
146 1 2 1.0279999999999272e+00 8.2413272179711594e+00 1.0000000000000000e+00 1.7974096214646454e-01 1.9983638721150928e+01 1.7242581958823482e+01 
152 1 2 1.0279999999999112e+00 -2.6954627740731482e+01 1.0000000000000000e+00 3.8161264635610541e+00 1.6300000749637267e+01 1.9983557065950592e+01 
75 1 2 1.0279999999998701e+00 -6.3331975641602853e+01 1.0000000000000000e+00 3.8181425658827872e+00 1.6304814167601176e+01 1.9984926980798903e+01 
84 1 2 1.0279999999998992e+00 7.8582245509933259e+01 1.0000000000000000e+00 3.5776382559056055e+00 1.6111640104975127e+01 1.9987388448982955e+01 
69 1 2 1.0279999999999752e+00 3.2091883252617080e+01 1.0000000000000000e+00 6.8419349817608577e+00 1.5089338477266927e+00 8.1481069761175662e-01 
67 1 2 1.0279999999999969e+00 1.3453181479015484e+02 1.0000000000000000e+00 6.7215202377475922e+00 1.1313686243404217e+00 1.1860115692060733e+00 
47 1 2 1.0279999999999627e+00 1.4224812289079563e+02 1.0000000000000000e+00 6.6876692496764507e+00 1.1879010573795281e+00 1.4732218968177873e+00 
31 1 2 1.0279999999999792e+00 -5.6138011407367863e+01 1.0000000000000000e+00 1.9757720234760079e+01 1.6860632300822505e+00 4.3949715510430387e+00 
22 1 2 1.0279999999999543e+00 1.4714440187832507e+01 1.0000000000000000e+00 1.9761772094722311e+01 2.4504385670887641e+00 4.4215355110865655e+00 
41 1 2 1.0279999999999982e+00 1.6700957174976477e+02 1.0000000000000000e+00 1.9794240406618655e+01 1.6911411499029132e+00 4.9530839870141090e+00 
136 1 2 1.0279999999999743e+00 1.2629434113332218e+02 1.0000000000000000e+00 1.9670195975052714e+01 2.0447329050811334e+00 4.5398292505179985e+00 
36 1 2 1.0279999999999903e+00 -6.6543086549070097e+01 1.0000000000000000e+00 1.9663564718562668e+01 2.0586825738604051e+00 4.6748849502244374e+00 
95 1 2 1.0279999999999954e+00 -1.0115491242290045e+02 1.0000000000000000e+00 1.9669925023398850e+01 2.0779310925844414e+00 4.5356539460847740e+00 
107 1 2 1.0279999999999527e+00 -1.0911531601220972e+02 1.0000000000000000e+00 1.9664840819309337e+01 2.0802526965651049e+00 4.6022474320787872e+00 
144 1 2 1.0279999999999594e+00 2.3203142260952937e+01 1.0000000000000000e+00 1.9665560593368319e+01 2.1249594137646075e+00 4.5980193582517597e+00 
145 1 2 1.0279999999999980e+00 -3.6113582354634218e+01 1.0000000000000000e+00 1.9665280709106767e+01 2.1522413179384654e+00 4.6252283743569835e+00 
23 1 2 1.0279999999999592e+00 1.6368996541961593e+02 1.0000000000000000e+00 1.9685531124359152e+01 2.1785154467731274e+00 4.4575758101025444e+00 
109 1 2 1.0279999999999840e+00 -1.0060416826851235e+02 1.0000000000000000e+00 1.9665726128060513e+01 2.1774782536395940e+00 4.6588034867433983e+00 
74 1 2 1.0279999999999887e+00 9.6827375168950340e+01 1.0000000000000000e+00 1.9669390701904856e+01 2.1730793006278124e+00 4.8002554442071190e+00 
46 1 2 1.0279999999999692e+00 -9.4913923923978167e+00 1.0000000000000000e+00 1.9853582615553464e+01 2.7029567437280910e+00 4.7913892663363749e+00 
18 1 2 1.0279999999999792e+00 5.8115054874260437e+01 1.0000000000000000e+00 1.9901929514722013e+01 2.7248598391538037e+00 4.5081759153358663e+00 
71 1 2 1.0279999999998726e+00 1.7872011570672601e+02 1.0000000000000000e+00 1.9820817654917573e+01 2.4013254186353885e+00 5.2340716578382960e+00 
8 1 2 1.0280000000000877e+00 -1.3792100930166589e+02 1.0000000000000000e+00 1.9951572598103443e+01 4.1665978648384110e-02 1.7312017639391851e+01 
68 1 2 1.0280000000000713e+00 2.1945115825132649e+02 1.0000000000000000e+00 1.9967743291173193e+01 1.0870157380771198e-01 1.7374265121568282e+01 
147 1 2 1.0280000000000753e+00 -2.6859991083429588e+02 1.0000000000000000e+00 1.9983898331325179e+01 7.1012558233956802e-02 1.7333029904771713e+01 
117 1 2 1.0280000000000296e+00 5.1481111461062326e+01 1.0000000000000000e+00 1.8908806576923403e+01 1.9072558586319889e+01 1.8214980151794268e+01 
118 1 2 1.0280000000000351e+00 -5.9749205022976938e+01 1.0000000000000000e+00 1.8926120763435680e+01 1.8897995140543983e+01 1.8138814758051769e+01 
17 1 2 1.0280000000000511e+00 8.9933533769344081e+00 1.0000000000000000e+00 1.8972032831102101e+01 1.8759446316246166e+01 1.8292829055763264e+01 
73 1 2 1.0280000000000371e+00 -4.0649431618370556e+01 1.0000000000000000e+00 1.8987805543385111e+01 1.8732210329689629e+01 1.8339068209547186e+01 
93 1 2 1.0280000000000473e+00 1.1604600579758679e+02 1.0000000000000000e+00 1.9035399629695533e+01 1.9303517114327029e+01 1.7593388379390191e+01 
96 1 2 1.0280000000000244e+00 -2.4102053735235899e+01 1.0000000000000000e+00 1.9011977862266487e+01 1.8632266114137732e+01 1.8228049263531460e+01 
1 1 2 1.0280000000000158e+00 -1.0502369714406541e+01 1.0000000000000000e+00 1.9019008792083323e+01 1.8633603854400569e+01 1.8295971895041703e+01 
86 1 2 1.0280000000000515e+00 2.8768909990324039e+02 1.0000000000000000e+00 1.9048143354357581e+01 1.8559067803308846e+01 1.8248012649650523e+01 
50 1 2 1.0280000000000400e+00 5.8080516246592595e+01 1.0000000000000000e+00 1.9094540412083479e+01 1.8471362218741731e+01 1.8221794037350477e+01 
90 1 2 1.0280000000000566e+00 7.6205266676434192e+01 1.0000000000000000e+00 1.9124238072404083e+01 1.8439028902045891e+01 1.8306520541662483e+01 
138 1 2 1.0280000000000702e+00 1.3592154083972744e+02 1.0000000000000000e+00 1.9140396444836810e+01 1.8411229170764884e+01 1.8290884929264333e+01 
85 1 2 1.0280000000000042e+00 9.2177114019049526e+01 1.0000000000000000e+00 1.9263185437312675e+01 1.8249470840886605e+01 1.8247702876432172e+01 
177 1 2 1.0279999999999541e+00 1.6530351011218727e+02 1.0000000000000000e+00 1.9674392999249790e+01 1.7921025990844001e+01 1.8387959221731681e+01 

Velocities

15 -2.0186963725184101e-11 -2.3432289010154366e-11 1.8609425237976853e-11
30 -1.8350718435646283e-11 -2.1004435215054212e-11 1.6330111947412713e-11
19 -1.7137821259433167e-11 -2.5182592433873451e-11 1.7700760635331127e-11
78 -1.5766321898847793e-11 -2.2040054624558008e-11 2.1983121344463168e-11
114 -1.6692087119886956e-11 -2.4917088018802286e-11 1.7206464011671310e-11
25 -1.6656463456879150e-11 -2.1707137676234588e-11 1.5951617937463721e-11
105 -1.5325008892902905e-11 -2.4848442425768814e-11 1.6286511331163120e-11
44 -1.7495704833104963e-11 -2.2100021832175629e-11 2.1061602828953102e-11
88 -1.4307860122180973e-11 -2.3233611721698525e-11 1.5636320057412247e-11
163 -1.4036404546367917e-11 -2.3025627751308433e-11 1.5774308194578645e-11
89 -2.0912347921922858e-11 -2.5725381945793553e-11 1.4409674782748528e-11
179 -1.6292884795015960e-11 -2.2337098499954514e-11 1.5391977015200428e-11
28 -1.2188324979118762e-11 -2.3797871534276639e-11 2.5530746206134115e-11
180 -1.4898937970484964e-11 -2.2172856665663449e-11 1.7711349758002347e-11
16 -1.4425177729077477e-11 -3.2290644110986218e-11 2.1872855672071657e-11
121 -1.3515037753850487e-11 -2.4427234629571510e-11 2.4833852745962621e-11
178 -1.3492207956969772e-11 -2.1785154153217331e-11 1.7311875946165813e-11
160 -1.3406932845051939e-11 -2.4423802887492347e-11 2.4950178234988542e-11
168 -1.3398696369476028e-11 -2.4387913462808473e-11 2.4968421677704651e-11
94 -1.3552745120492732e-11 -2.4415554402752803e-11 2.4808922973747240e-11
82 -1.3347346725808642e-11 -2.4390384075466900e-11 2.5001763825924746e-11
37 -1.3340751707800378e-11 -2.4417816649624708e-11 2.4971515711142144e-11
49 -1.3399672274469610e-11 -2.4385236818782450e-11 2.4973637321460498e-11
43 -1.3306547798850091e-11 -2.2195658264529774e-11 2.5326126406499237e-11
170 -1.3352039526407385e-11 -2.4387022014930755e-11 2.5016140456129946e-11
115 -1.3393276827872219e-11 -2.4388098566600764e-11 2.4986737784614347e-11
12 -1.3315991218581856e-11 -2.4420874678519899e-11 2.5008346544990956e-11
156 -1.3327357141822905e-11 -2.4456158959310405e-11 2.5019158228133094e-11
123 -1.3308009937216338e-11 -2.4450956633622837e-11 2.4965866475091150e-11
60 -1.3169917466469055e-11 -2.2076732359690992e-11 2.5050245450910026e-11
173 -1.3328968513191450e-11 -2.4482172700537493e-11 2.4902724206939604e-11
158 -1.3325191458381096e-11 -2.4512720956410443e-11 2.5023327250725261e-11
157 -1.3290228579067121e-11 -2.1641993250843880e-11 2.4564081688974982e-11
4 -1.7311825989058333e-11 -2.2888197514525626e-11 1.8053341739582943e-11
139 -1.3257907479353835e-11 -2.2024769970146708e-11 2.5100187780162407e-11
143 -1.3302842777079087e-11 -2.2021456914705965e-11 2.5178148208778704e-11
153 -1.3175483889160765e-11 -2.2180123016832438e-11 2.5029366769378090e-11
62 -1.3164333439840324e-11 -2.2194645597803467e-11 2.5026598118211771e-11
113 -1.3179611064471470e-11 -2.2181697096348949e-11 2.5049607588437876e-11
128 -1.3091028712099065e-11 -2.2567454906194371e-11 2.5095566788574150e-11
20 -2.5420275737451596e-11 -4.5788771400812123e-11 1.7536139164319961e-11
171 -2.7618873704523999e-11 -4.6292000785906627e-11 1.7872356273795431e-11
150 -2.7950898666046223e-11 -4.5286735476402740e-11 1.7462793408644125e-11