LAMMPS data file via write_data, version 30 Jul 2016, timestep = 50000000

384 atoms
2 atom types

0.0000000000000000e+00 2.0000000000000000e+01 xlo xhi
0.0000000000000000e+00 2.0000000000000000e+01 ylo yhi
0.0000000000000000e+00 2.0000000000000000e+01 zlo zhi

Masses

1 3.89
2 2.094

Atoms # meso-molecular

81 1 2 7.9999999999999349e-01 1.5149013661518852e+01 1.0000000000000000e+00 6.4910543850078595e+00 7.3603876097208900e+00 9.4997050890032266e+00 
91 1 2 7.9999999999999272e-01 2.2847516563196788e+01 1.0000000000000000e+00 6.3672453431237734e+00 7.3470158241022876e+00 8.9328294260439467e+00 
179 1 2 8.0000000000000115e-01 1.7477333673697185e+01 1.0000000000000000e+00 6.2431663465670937e+00 7.4512818047582972e+00 9.4371244991568393e+00 
325 1 2 8.0000000000000582e-01 -1.3844664897379140e+01 1.0000000000000000e+00 6.1761997555721324e+00 7.5456748918280354e+00 9.5014526534564343e+00 
338 1 2 8.0000000000002480e-01 -8.5774843879679317e+00 1.0000000000000000e+00 6.2085444855579848e+00 8.5475985452090217e+00 9.7896320434749171e+00 
56 1 2 8.0000000000000959e-01 -3.6441460077012620e+00 1.0000000000000000e+00 6.1489027037150370e+00 7.6180782071571196e+00 9.5574104538777824e+00 
323 1 2 8.0000000000002314e-01 -5.4782800340338369e+01 1.0000000000000000e+00 6.1688554090094438e+00 8.3746334331200849e+00 9.7995695294588181e+00 
281 1 2 8.0000000000000027e-01 -2.0110905531430747e+00 1.0000000000000000e+00 6.5325721547850728e+00 9.0333068801013692e+00 8.0319567866887756e+00 
36 1 2 8.0000000000002403e-01 -8.4434060787379849e+01 1.0000000000000000e+00 6.1945205944828370e+00 7.9897183131531246e+00 9.8182634343529465e+00 
298 1 2 7.9999999999996341e-01 -2.6322212606207152e+01 1.0000000000000000e+00 6.6388363982948118e+00 9.6194200108291898e+00 9.5588702590671577e+00 
273 1 2 8.0000000000002891e-01 -1.7042289779143942e+01 1.0000000000000000e+00 6.3984999999142076e+00 9.0881861115342453e+00 9.6904630710559392e+00 
359 1 2 8.0000000000000326e-01 5.0848753636047583e+01 1.0000000000000000e+00 6.6270990216618877e+00 1.0583850785603449e+01 7.6108508894274109e+00 
3 1 2 8.0000000000000004e-01 -5.6149325347151930e+01 1.0000000000000000e+00 6.2424956310157311e+00 1.3174096365983596e+01 1.1207912932935677e+01 
289 1 2 7.9999999999999982e-01 -1.5488766070150517e+01 1.0000000000000000e+00 6.2502467355135849e+00 1.3122117904790908e+01 1.1172696358180398e+01 
316 1 2 7.9999999999999971e-01 9.0930672550780545e-01 1.0000000000000000e+00 6.4305817937856995e+00 1.2593472856327194e+01 1.0921991434983804e+01 
189 1 2 8.0000000000000115e-01 3.5087764547466683e+01 1.0000000000000000e+00 6.5470255948372778e+00 1.2357740755378618e+01 1.0879618184849789e+01 
172 1 2 8.0000000000000082e-01 -3.2336482285213364e+01 1.0000000000000000e+00 6.5258218800321073e+00 1.2404780544037660e+01 1.0880238051486915e+01 
334 1 2 8.0000000000000204e-01 2.1276203258628206e+00 1.0000000000000000e+00 6.6165458958260874e+00 1.2274336155882509e+01 1.0838985668152372e+01 
260 1 2 8.0000000000000060e-01 -1.2098923259809045e+01 1.0000000000000000e+00 6.2416881171576195e+00 1.3353012301038719e+01 1.1300603121268466e+01 
94 1 2 7.9999999999999993e-01 2.5627263787058851e+01 1.0000000000000000e+00 6.5943708166348047e+00 1.4243251585555678e+01 1.1843408979943710e+01 
28 1 2 8.0000000000000127e-01 8.7082486685996201e+01 1.0000000000000000e+00 1.0765254963666363e+01 1.5680587348898509e+00 5.2035180500663207e+00 
82 1 2 8.0000000000000004e-01 3.4881414414349941e+01 1.0000000000000000e+00 1.0917696051673728e+01 1.5757681811368667e+00 4.9079737468606854e+00 
10 1 2 7.9999999999999849e-01 -6.6821605981593155e+00 1.0000000000000000e+00 1.1132514481055246e+01 5.3273348359547668e-01 5.6268557277339815e+00 
188 1 2 7.9999999999999849e-01 -1.7216848314603084e+00 1.0000000000000000e+00 1.1127708260381826e+01 5.6305556975975546e-01 5.6704930423753854e+00 
310 1 2 7.9999999999998528e-01 -4.3329249326296875e+01 1.0000000000000000e+00 1.0994120361421553e+01 2.2372047488896238e+00 5.3858239961184839e+00 
285 1 2 7.9999999999999849e-01 -1.5475616350772100e+01 1.0000000000000000e+00 1.1120911991377817e+01 5.8058403388244251e-01 5.6893322701243498e+00 
136 1 2 7.9999999999999927e-01 3.1318954665207350e+01 1.0000000000000000e+00 1.1071245655156352e+01 9.2618159916680387e-01 6.0027959492956775e+00 
116 1 2 8.0000000000000815e-01 5.1146726915800819e+01 1.0000000000000000e+00 1.1324485024633049e+01 2.6799614309398661e+00 5.4352488431661046e+00 
183 1 2 7.9999999999999949e-01 -2.7419544983114719e+01 1.0000000000000000e+00 1.1064808412769661e+01 9.7632562930764866e-01 6.0310052855809699e+00 
30 1 2 8.0000000000001403e-01 -2.0073388109735220e+01 1.0000000000000000e+00 1.1060465884195901e+01 1.0801051383335529e+00 6.0848323211608442e+00 
196 1 2 8.0000000000001414e-01 3.7821446729946942e+01 1.0000000000000000e+00 1.0984057590043596e+01 1.6328857362947693e+00 6.1327578128304969e+00 
72 1 2 7.9999999999999127e-01 8.7754746632176619e+01 1.0000000000000000e+00 1.1351270066032667e+01 2.4686274324110351e+00 6.1748948232739060e+00 
236 1 2 8.0000000000001870e-01 -3.0002248126744604e+01 1.0000000000000000e+00 1.2661594566385235e+01 2.7506597680294331e+00 5.5947405427182222e+00 
180 1 2 8.0000000000004079e-01 4.4395132160250405e+01 1.0000000000000000e+00 1.2681602222051172e+01 2.5085102945835076e+00 5.4180030381736151e+00 
200 1 2 7.9999999999998461e-01 4.4876376543662609e+01 1.0000000000000000e+00 1.2663169462473064e+01 3.1229808554517016e+00 5.8262303864683469e+00 
89 1 2 8.0000000000002391e-01 3.2987530547025898e+01 1.0000000000000000e+00 1.2754121258630400e+01 1.8972305737188970e+00 4.9614941677575217e+00 
80 1 2 8.0000000000000870e-01 4.3172351381107724e+01 1.0000000000000000e+00 1.2731569545809192e+01 5.3495130659497327e-02 3.8216628112302877e+00 
224 1 2 8.0000000000001059e-01 -1.7664891500784869e+01 1.0000000000000000e+00 1.2734813785374953e+01 6.9781049103577172e-02 3.8279307541111325e+00 
171 1 2 8.0000000000001259e-01 -1.0832539277420665e+01 1.0000000000000000e+00 1.2787174222357617e+01 4.8709210955977000e-01 3.9990470216488205e+00 
90 1 2 7.9999999999998195e-01 9.9470250308585655e+00 1.0000000000000000e+00 1.2812122377273537e+01 1.1110042439977443e+00 4.3678739722273816e+00 
349 1 2 7.9999999999997762e-01 -3.9032812880486588e+01 1.0000000000000000e+00 1.2814088522921514e+01 1.0794340387205976e+00 4.3491075003869826e+00 
45 1 2 7.9999999999998450e-01 -1.8202958775243154e+01 1.0000000000000000e+00 1.2812599396958566e+01 8.7354679547447578e-01 4.2159749270352238e+00 
164 1 2 7.9999999999997906e-01 -1.7215069609596917e+01 1.0000000000000000e+00 1.2680340135059204e+01 3.2325226343320068e+00 5.8878715859293749e+00 
122 1 2 8.0000000000006199e-01 3.1799582498861987e+01 1.0000000000000000e+00 1.1565378967057516e+01 4.4896392235387754e+00 6.1575323738714891e+00 
242 1 2 8.0000000000003657e-01 -3.7033711080618531e+01 1.0000000000000000e+00 1.1488906978483186e+01 5.0223409458888488e+00 6.1553029098840888e+00 
233 1 2 7.9999999999999971e-01 -4.1359251310463478e+01 1.0000000000000000e+00 1.1710360068740080e+01 6.4547475078242282e+00 6.2284403527273646e+00 
313 1 2 7.9999999999997928e-01 5.4555178174785127e+01 1.0000000000000000e+00 1.2965312296791467e+01 4.7625231995892641e+00 6.1065652697423944e+00 
133 1 2 7.9999999999995630e-01 -2.8130373108268234e+00 1.0000000000000000e+00 1.2915568032674217e+01 3.8102458815566913e+00 6.2010599994704387e+00 
228 1 2 7.9999999999998994e-01 -5.2950451096921370e+01 1.0000000000000000e+00 1.3039129610888073e+01 4.0636716362656999e+00 6.3462663299109758e+00 
100 1 2 7.9999999999997706e-01 2.7569328976868277e+01 1.0000000000000000e+00 1.3097056382724270e+01 4.8271518018177693e+00 6.2663152811194411e+00 
209 1 2 7.9999999999998517e-01 -2.1877888936327242e+01 1.0000000000000000e+00 1.3070430835712806e+01 4.1359449706267268e+00 6.3874344154273341e+00 
301 1 2 8.0000000000004534e-01 2.8796323953483956e+01 1.0000000000000000e+00 1.0741591678429732e+01 5.4028924880195524e+00 6.6333037664128787e+00 
238 1 2 8.0000000000001303e-01 6.5951015799118920e+01 1.0000000000000000e+00 9.6406806815852715e+00 8.8670077182524611e+00 5.2495176704636597e+00 
259 1 2 8.0000000000002958e-01 1.0620725295188858e+01 1.0000000000000000e+00 9.4764594455616269e+00 8.8854030731166205e+00 5.4578660711408959e+00 
124 1 2 8.0000000000007321e-01 1.5817694940231771e+01 1.0000000000000000e+00 9.3592258134485817e+00 8.8350980871125042e+00 5.7556029052271382e+00 
375 1 2 8.0000000000003757e-01 -4.0605893367942958e+00 1.0000000000000000e+00 9.6359436929956441e+00 8.6099519975100467e+00 5.5587692661871602e+00 
297 1 2 7.9999999999999072e-01 -1.0209136386435194e+01 1.0000000000000000e+00 9.2237558868369174e+00 8.8605366704821176e+00 6.1768670423071343e+00 
170 1 2 8.0000000000007421e-01 6.4036152813128638e+01 1.0000000000000000e+00 9.5803031760651951e+00 8.3468973860476883e+00 6.2203736882856671e+00 
350 1 2 8.0000000000000326e-01 -3.6362579077224012e+01 1.0000000000000000e+00 1.0023383784545864e+01 9.1317611031309713e+00 4.7784429666473534e+00 
8 1 2 8.0000000000000959e-01 -5.6645460621389006e+01 1.0000000000000000e+00 1.0123280148360861e+01 9.3644509243083967e+00 4.6334182243892172e+00 
218 1 2 8.0000000000001248e-01 1.0731348077864940e+01 1.0000000000000000e+00 1.0372433947622158e+01 9.4614450421415093e+00 4.4842640900832329e+00 
51 1 2 8.0000000000005278e-01 -2.9092426313268280e+00 1.0000000000000000e+00 1.0804880517361349e+01 8.1889854696112803e+00 5.7644810117062963e+00 
250 1 2 8.0000000000006510e-01 -1.8206304927924499e+01 1.0000000000000000e+00 1.1537666341779673e+01 8.2567942416343119e+00 6.0927445521824568e+00 
96 1 2 7.9999999999996985e-01 -4.3613514309173141e+01 1.0000000000000000e+00 1.1691321789183323e+01 7.3570622479806547e+00 6.3651355307114663e+00 
147 1 2 7.9999999999996430e-01 4.4946889947360908e+01 1.0000000000000000e+00 1.1679779136090218e+01 7.4693055574072469e+00 6.3681771349697689e+00 
186 1 2 7.9999999999995930e-01 -1.6941273570027754e+01 1.0000000000000000e+00 1.1435349670491167e+01 9.6547060917016445e+00 6.5366335090250471e+00 
177 1 2 7.9999999999996152e-01 -2.0965412442119195e+01 1.0000000000000000e+00 1.1377098485476678e+01 9.7966347320271012e+00 6.4464295537702991e+00 
232 1 2 8.0000000000002047e-01 5.7768279514812598e+01 1.0000000000000000e+00 1.2640140750569865e+01 9.7289193614540306e+00 6.4501633479355611e+00 
130 1 2 8.0000000000002058e-01 -4.0063555635255256e+01 1.0000000000000000e+00 1.2373282267655060e+01 9.9109665950317556e+00 4.2800969086370078e+00 
21 1 2 7.9999999999995441e-01 4.2752522447900809e+01 1.0000000000000000e+00 1.0895522695170211e+01 9.9541800533662883e+00 4.0432560969141011e+00 
292 1 2 7.9999999999995841e-01 -2.8190435814634274e+01 1.0000000000000000e+00 9.8341500526238050e+00 6.3447997789473662e+00 7.4912204901082280e+00 
66 1 2 7.9999999999994464e-01 -2.7724609386842552e+01 1.0000000000000000e+00 9.9878677610200182e+00 5.9742781450650524e+00 7.5635562716829687e+00 
23 1 2 8.0000000000004456e-01 -2.2131540008311930e+01 1.0000000000000000e+00 1.0817635355883130e+01 5.2197924155676683e+00 6.6815800389312452e+00 
293 1 2 7.9999999999999871e-01 1.3436109674988215e+01 1.0000000000000000e+00 1.0430995364985350e+01 5.3948164267613929e+00 7.1670686943538326e+00 
74 1 2 7.9999999999995397e-01 -1.6170885207419030e+00 1.0000000000000000e+00 1.0046844525697585e+01 5.8607777070940505e+00 7.5042358139532057e+00 
135 1 2 8.0000000000001281e-01 -1.6788940099139978e+01 1.0000000000000000e+00 1.1977510335927779e+01 4.5948101709348013e+00 7.5859391369237530e+00 
48 1 2 8.0000000000001337e-01 -1.2749516724783932e+01 1.0000000000000000e+00 1.1650870521322336e+01 4.9413602940253565e+00 7.8561167580261992e+00 
312 1 2 7.9999999999998117e-01 3.1786891881833597e+01 1.0000000000000000e+00 1.1541288554521699e+01 5.9873602065513181e+00 8.4783284857507901e+00 
85 1 2 7.9999999999998328e-01 2.0832974780859357e+00 1.0000000000000000e+00 1.1449174793685780e+01 6.3400372697311207e+00 8.5804861637835099e+00 
382 1 2 7.9999999999999061e-01 4.1327792255735389e+01 1.0000000000000000e+00 1.2746915578277481e+01 5.8742781273401068e+00 8.0431448429792827e+00 
14 1 2 7.9999999999999782e-01 6.9582626445469051e+00 1.0000000000000000e+00 1.2834003680020359e+01 6.0432523177269157e+00 7.9957612501602728e+00 
255 1 2 7.9999999999999927e-01 2.4379147375480347e+01 1.0000000000000000e+00 1.3189987433687875e+01 6.0876936926796219e+00 7.4146872677234876e+00 
168 1 2 7.9999999999998750e-01 4.4170640744377877e+01 1.0000000000000000e+00 1.3190844380858909e+01 5.9858536148542907e+00 7.4582355545694057e+00 
190 1 2 7.9999999999999549e-01 -1.9756982290597275e+01 1.0000000000000000e+00 1.3258241326848635e+01 5.7366474806845025e+00 7.2604006419774842e+00 
383 1 2 7.9999999999999305e-01 1.0496587979358878e+00 1.0000000000000000e+00 1.3270212840008904e+01 4.9390721461944214e+00 6.9286064845557611e+00 
219 1 2 7.9999999999997506e-01 -2.2332647214014294e+01 1.0000000000000000e+00 6.8942323045352998e+00 7.3047791197582601e+00 8.7227699990856955e+00 
222 1 2 7.9999999999994875e-01 -7.1970250274930758e-01 1.0000000000000000e+00 8.1415143731801400e+00 9.1479085912711220e+00 7.5824072794609956e+00 
234 1 2 8.0000000000009330e-01 4.6984842567577836e+01 1.0000000000000000e+00 7.8016200241884484e+00 8.9430364511744447e+00 7.7196967458196815e+00 
39 1 2 7.9999999999998028e-01 3.7977582245366406e+01 1.0000000000000000e+00 7.2783189328647238e+00 7.5530369681724547e+00 8.4628564150642962e+00 
60 1 2 8.0000000000005989e-01 2.9466870423391871e+01 1.0000000000000000e+00 7.4875212753248670e+00 7.8742803034753432e+00 8.2895116585916675e+00 
59 1 2 7.9999999999998594e-01 2.4767222839209328e+01 1.0000000000000000e+00 7.4646004684123186e+00 7.6956670843909594e+00 8.4261175429462867e+00 
357 1 2 7.9999999999998772e-01 -4.4372287537923096e+00 1.0000000000000000e+00 7.5741582131841456e+00 7.6948156682514739e+00 8.5509892967238414e+00 
73 1 2 7.9999999999989990e-01 1.3705635866873305e+01 1.0000000000000000e+00 9.7150341429876121e+00 9.4038977707113034e+00 7.6707392742519875e+00 
331 1 2 8.0000000000047433e-01 -5.9190905918979695e+00 1.0000000000000000e+00 8.4236724012619213e+00 9.8131595272791436e+00 9.3179779210381941e+00 
128 1 2 8.0000000000005511e-01 -6.4721530308427369e+00 1.0000000000000000e+00 9.7600282747891818e+00 6.7299250022700789e+00 7.6715260891180899e+00 
159 1 2 8.0000000000004889e-01 2.6751529769215587e+01 1.0000000000000000e+00 9.7764440951619012e+00 6.8257700679358217e+00 7.7777160243562706e+00 
138 1 2 7.9999999999998739e-01 2.9697715274652310e+01 1.0000000000000000e+00 9.8659283050857400e+00 6.9003589154200222e+00 7.9731382344623167e+00 
283 1 2 7.9999999999998039e-01 -1.2958992779142079e+01 1.0000000000000000e+00 9.8842682842827383e+00 6.7822088860051926e+00 7.9851844740284292e+00 
18 1 2 7.9999999999994986e-01 2.8845177964790125e+01 1.0000000000000000e+00 1.2998180076066999e+01 7.5918436220527159e+00 7.7290839608468769e+00 
46 1 2 7.9999999999995164e-01 -2.9129745107965579e+01 1.0000000000000000e+00 1.2991018920128148e+01 7.3776495795408339e+00 7.6273434045556785e+00 
318 1 2 7.9999999999985882e-01 -1.2906091798768550e+01 1.0000000000000000e+00 1.2952109333501745e+01 9.2461504056344275e+00 9.0058237172332269e+00 
370 1 2 7.9999999999992233e-01 -3.6694781453954533e+01 1.0000000000000000e+00 1.1469592574392836e+01 9.1140278204136465e+00 7.1452001519294743e+00 
161 1 2 7.9999999999995730e-01 1.3833721819244855e+00 1.0000000000000000e+00 1.1436429879173065e+01 8.9542989368303161e+00 9.1335263483226257e+00 
345 1 2 7.9999999999981031e-01 -2.0403535112274582e+01 1.0000000000000000e+00 1.1567356757565531e+01 8.7951658342608567e+00 8.9673559241268510e+00 
223 1 2 8.0000000000021587e-01 6.4596756780234287e+01 1.0000000000000000e+00 1.1317026608996082e+01 9.0387098246415949e+00 9.3750988282739218e+00 
213 1 2 8.0000000000009497e-01 -9.4132780803633220e-01 1.0000000000000000e+00 1.2001861438760200e+01 8.7382171935490085e+00 8.7514692523409785e+00 
332 1 2 8.0000000000001181e-01 -7.0833036647809195e+01 1.0000000000000000e+00 1.1065883859242154e+01 7.2661379584613055e+00 8.7230346702455037e+00 
256 1 2 7.9999999999991755e-01 1.0847329015981646e+00 1.0000000000000000e+00 1.0888039640991590e+01 7.4628719665331076e+00 8.7085081857828968e+00 
132 1 2 8.0000000000015448e-01 8.4839061042027470e+00 1.0000000000000000e+00 1.2922926768659199e+01 8.3932661035210465e+00 6.8861791555418383e+00 
291 1 2 8.0000000000012783e-01 -3.0147473934640686e+01 1.0000000000000000e+00 1.1218338047763515e+01 9.0643055312746146e+00 9.5864510748600207e+00 
121 1 2 8.0000000000011873e-01 -6.3853692819272423e+00 1.0000000000000000e+00 1.2981397976035357e+01 7.9169954612668256e+00 7.2757828764517152e+00 
269 1 2 8.0000000000011162e-01 2.4517085256097587e+01 1.0000000000000000e+00 9.6567322483104778e+00 9.2307570989722638e+00 1.1393939541243723e+01 
2 1 2 7.9999999999993010e-01 -1.6924044419884844e+01 1.0000000000000000e+00 8.8210045979732730e+00 9.6996987216209192e+00 1.1646791832399595e+01 
240 1 2 8.0000000000010707e-01 1.7430009422473393e+01 1.0000000000000000e+00 9.6087131700360420e+00 9.1596822964645455e+00 1.1294787325796195e+01 
26 1 2 7.9999999999992144e-01 -4.6777229590741385e+01 1.0000000000000000e+00 8.6172030399795716e+00 9.7661704841051797e+00 1.1569221320653586e+01 
204 1 2 7.9999999999992433e-01 -5.2402061100300852e+00 1.0000000000000000e+00 8.4340314835244250e+00 9.9366575965553601e+00 1.1554110828074414e+01 
257 1 2 7.9999999999994620e-01 3.5598702715560115e+01 1.0000000000000000e+00 8.8223574352791250e+00 9.4982004420352073e+00 1.1454345375621179e+01 
175 1 2 7.9999999999990423e-01 3.9374341529598293e+00 1.0000000000000000e+00 8.5632299302734225e+00 9.6931553363556837e+00 1.1458105391231257e+01 
322 1 2 7.9999999999978366e-01 -1.6702871620739934e+01 1.0000000000000000e+00 7.4047812369516119e+00 9.3646789064368541e+00 1.0011615171683573e+01 
4 1 2 8.0000000000010585e-01 -1.9824594480616145e+01 1.0000000000000000e+00 1.0032188302497641e+01 9.2343843205461411e+00 1.1284450203438720e+01 
326 1 2 7.9999999999994509e-01 -2.6975413294522902e+01 1.0000000000000000e+00 1.0393491146172337e+01 8.9045393655448333e+00 1.0429016646397955e+01 
86 1 2 8.0000000000009586e-01 6.5051031435184488e+00 1.0000000000000000e+00 1.0814917333316126e+01 9.8990559553122743e+00 1.0920242444443545e+01 
99 1 2 7.9999999999997873e-01 1.2358292710969543e+01 1.0000000000000000e+00 1.0538167632440270e+01 8.9097738737342667e+00 1.0306058940379174e+01 
35 1 2 7.9999999999989435e-01 -1.8449877815397173e+01 1.0000000000000000e+00 1.0486868724469218e+01 8.8757163104256129e+00 1.0252567160629560e+01 
11 1 2 8.0000000000001459e-01 1.5185488566610559e+01 1.0000000000000000e+00 8.4550695894034504e+00 1.3163600374234784e+01 3.0701505465756869e+00 
126 1 2 7.9999999999988458e-01 -8.3902338303414925e-01 1.0000000000000000e+00 1.1852201784496092e+01 1.1767839760286423e+01 1.5290088679120586e+00 
143 1 2 7.9999999999990501e-01 -4.7239952973016962e+01 1.0000000000000000e+00 1.1908047694709925e+01 1.1790518528058021e+01 1.4498136819177156e+00 
123 1 2 8.0000000000001170e-01 -2.4846022256714217e+00 1.0000000000000000e+00 1.1317909538968358e+01 1.1578823609314883e+01 2.1947011941622590e+00 
65 1 2 8.0000000000001248e-01 1.2052658486748933e+00 1.0000000000000000e+00 1.1301271445499367e+01 1.1509780792309034e+01 2.2742233266096061e+00 
127 1 2 8.0000000000003246e-01 9.0354518158664419e+01 1.0000000000000000e+00 1.2640732129481387e+01 1.1939770178315658e+01 8.6613932985970643e-02 
263 1 2 7.9999999999996441e-01 -3.6082338566279337e+00 1.0000000000000000e+00 1.1542950155261012e+01 1.1147433132452782e+01 2.6066186549946528e+00 
217 1 2 7.9999999999998617e-01 -4.6973663688874048e+00 1.0000000000000000e+00 1.1530697715120249e+01 1.1107726800151486e+01 2.6384346702906116e+00 
158 1 2 8.0000000000014759e-01 -2.0618176548539488e+01 1.0000000000000000e+00 1.1217191753058909e+01 1.1932172642507622e+01 2.4923060209113230e+00 
109 1 2 8.0000000000001936e-01 -1.2347271689325023e+01 1.0000000000000000e+00 1.1588073748820095e+01 1.2286642249593507e+01 1.0954716174417169e+00 
17 1 2 8.0000000000004734e-01 -3.1296342348264496e+01 1.0000000000000000e+00 1.1024253627959361e+01 1.1519467829712049e+01 2.7658913285318767e+00 
227 1 2 8.0000000000000282e-01 -3.7140307073281548e+01 1.0000000000000000e+00 1.0966850453767206e+01 1.1551269808196798e+01 2.9438817915093156e+00 
191 1 2 8.0000000000000748e-01 1.2706025710323864e+01 1.0000000000000000e+00 1.1294229755526237e+01 1.0713577411746853e+01 3.0121189679438363e+00 
154 1 2 8.0000000000003302e-01 2.8411203748705550e+01 1.0000000000000000e+00 1.1951831448888374e+01 1.2757423725828755e+01 5.9419740020137513e-01 
185 1 2 8.0000000000000593e-01 1.5056703390891496e+01 1.0000000000000000e+00 1.2346433771689396e+01 1.2998645708889319e+01 5.0349643564755142e-01 
274 1 2 7.9999999999999705e-01 -2.3091190270729442e+01 1.0000000000000000e+00 1.2477027556523174e+01 1.3057566034858322e+01 1.9325108032724028e-01 
339 1 2 7.9999999999999316e-01 -4.0202515915739411e+01 1.0000000000000000e+00 1.2618012657179488e+01 1.3064634918712123e+01 3.3609283596231826e-01 
225 1 2 8.0000000000000493e-01 -2.1868550765289058e+01 1.0000000000000000e+00 1.3202478375022784e+01 1.2778269304852117e+01 3.1694157223032793e-01 
64 1 2 8.0000000000000482e-01 1.0728290249906550e+01 1.0000000000000000e+00 7.7784689434631362e+00 1.3586281274815358e+01 2.8082681366123290e+00 
282 1 2 8.0000000000000226e-01 1.0660182511293428e+01 1.0000000000000000e+00 7.5437825507543685e+00 1.3920994774513698e+01 2.9550180864369495e+00 
83 1 2 8.0000000000000149e-01 2.3624792766045091e+00 1.0000000000000000e+00 7.4939559683818224e+00 1.3900219070099393e+01 2.9929647119147136e+00 
253 1 2 8.0000000000000415e-01 1.6458532968950202e+01 1.0000000000000000e+00 7.5028057376692239e+00 1.3960310047729807e+01 3.0197278848341638e+00 
137 1 2 8.0000000000000315e-01 -6.7510413445989192e-01 1.0000000000000000e+00 7.4866969802589560e+00 1.3986598415225176e+01 3.0607970864522875e+00 
75 1 2 8.0000000000000260e-01 9.2923883427551281e+00 1.0000000000000000e+00 7.5210620747404153e+00 1.4066273873381339e+01 3.1073370787487673e+00 
290 1 2 8.0000000000000615e-01 1.1406966645448712e+01 1.0000000000000000e+00 7.4748350944432689e+00 1.4030788994908395e+01 3.1283023425333338e+00 
381 1 2 8.0000000000000882e-01 -6.3382883114229589e+00 1.0000000000000000e+00 7.5230197637097804e+00 1.4098375383300619e+01 3.1592310599451232e+00 
54 1 2 8.0000000000002169e-01 4.4781285321628763e+00 1.0000000000000000e+00 1.0391103753812169e+01 1.4580940133569181e+01 1.9965724028262484e+00 
176 1 2 7.9999999999998905e-01 5.5625436558727813e+01 1.0000000000000000e+00 1.0388320667173593e+01 1.4572778996149552e+01 2.0001133278260936e+00 
7 1 2 8.0000000000003446e-01 4.1098093795403869e+01 1.0000000000000000e+00 1.0336013045752697e+01 1.4593997775201633e+01 2.0301085221050408e+00 
19 1 2 8.0000000000003668e-01 -1.2823263287454726e+01 1.0000000000000000e+00 1.0335318711821115e+01 1.4589745125347932e+01 2.0315165226275536e+00 
22 1 2 8.0000000000005012e-01 -7.3518187741762819e+00 1.0000000000000000e+00 1.0316288624726948e+01 1.4598182142480789e+01 2.0441600799352471e+00 
108 1 2 7.9999999999998583e-01 -4.1776170420270219e+01 1.0000000000000000e+00 1.1105738132637091e+01 1.5098154374769445e+01 2.1381969441766353e+00 
160 1 2 7.9999999999998161e-01 8.7572177579003565e+00 1.0000000000000000e+00 1.1162027646518599e+01 1.5305052262713559e+01 2.1786158417618733e+00 
67 1 2 7.9999999999999027e-01 -1.1935343919843444e+01 1.0000000000000000e+00 1.1089258452760674e+01 1.5440461889743208e+01 2.0448656001443268e+00 
151 1 2 8.0000000000002924e-01 -4.6480088854990740e+01 1.0000000000000000e+00 1.0222801484072750e+01 1.4975483350757374e+01 2.2106172949821463e+00 
279 1 2 7.9999999999999027e-01 1.3667597763411592e+02 1.0000000000000000e+00 1.0442324437623714e+01 1.4245429027583789e+01 2.4822312827207202e+00 
62 1 2 7.9999999999989968e-01 -4.2870204061508318e+01 1.0000000000000000e+00 1.0541317897877136e+01 1.4276123108531120e+01 2.4951589890761552e+00 
24 1 2 7.9999999999998295e-01 -1.4480902934102993e+01 1.0000000000000000e+00 1.1163911290587142e+01 1.6770575826978671e+01 2.5604312680770214e+00 
79 1 2 7.9999999999998739e-01 -6.4253649008675158e+00 1.0000000000000000e+00 1.1251890728250839e+01 1.7036859392917307e+01 2.7051446351322643e+00 
239 1 2 7.9999999999997773e-01 1.1799741474526474e+01 1.0000000000000000e+00 1.1297042176878614e+01 1.7200566210512061e+01 2.7399110701416607e+00 
244 1 2 8.0000000000002369e-01 4.6622286433749778e+01 1.0000000000000000e+00 1.1870683020660076e+01 1.7640238533595685e+01 2.7826596373274612e+00 
241 1 2 8.0000000000002069e-01 -7.2879832493033492e-01 1.0000000000000000e+00 1.1857272691027283e+01 1.7581233780477941e+01 2.7908489932906058e+00 
361 1 2 7.9999999999998961e-01 3.0201100923114979e+01 1.0000000000000000e+00 1.1266008215612013e+01 1.7036540037247089e+01 2.8063823580560556e+00 
277 1 2 8.0000000000004401e-01 1.1676604372935608e+02 1.0000000000000000e+00 1.1440665041353967e+01 1.6940542024892149e+01 2.8622136700570509e+00 
319 1 2 8.0000000000002247e-01 5.0163331027972355e+01 1.0000000000000000e+00 1.2060773971640913e+01 1.8019275405893890e+01 2.9107042461338302e+00 
306 1 2 8.0000000000001481e-01 -6.0832386911440199e+00 1.0000000000000000e+00 1.1398351116035936e+01 1.7761739192617974e+01 3.0214010673733305e+00 
376 1 2 8.0000000000002236e-01 -5.2126128676576982e+01 1.0000000000000000e+00 1.1517999138778114e+01 1.8133221861393242e+01 3.1986919900217297e+00 
205 1 2 8.0000000000005445e-01 4.1920965414054834e+01 1.0000000000000000e+00 8.4502207049410583e+00 1.0501976508544804e+01 6.5224057828798090e+00 
5 1 2 8.0000000000006521e-01 1.3355228717752640e+01 1.0000000000000000e+00 8.8214659915232012e+00 1.0196453625556432e+01 6.3403232459092429e+00 
165 1 2 8.0000000000006211e-01 1.2900259314247624e+01 1.0000000000000000e+00 9.2645160141870964e+00 1.2782120427501130e+01 6.0037456283431334e+00 
371 1 2 7.9999999999997939e-01 1.6309081351886508e+01 1.0000000000000000e+00 8.5323747054562702e+00 1.2577236043136368e+01 4.6461038033111253e+00 
1 1 2 7.9999999999995308e-01 8.4500629471486022e+00 1.0000000000000000e+00 8.7050068476563514e+00 1.2816533574012665e+01 5.3180307658310539e+00 
167 1 2 8.0000000000013105e-01 1.0318762151822769e+01 1.0000000000000000e+00 8.5061039815825072e+00 1.2753618080491004e+01 5.0683981464515115e+00 
156 1 2 7.9999999999995264e-01 -2.5797882659285214e+01 1.0000000000000000e+00 8.6837821878616861e+00 1.2849477708090848e+01 5.2951876065762651e+00 
369 1 2 7.9999999999995164e-01 -4.4060085042539310e+00 1.0000000000000000e+00 8.6767106926240718e+00 1.2854060236955444e+01 5.2877320069948066e+00 
384 1 2 7.9999999999999405e-01 -2.6187411192985948e+01 1.0000000000000000e+00 8.6494134599627976e+00 1.2859624484763398e+01 5.2597043921779818e+00 
105 1 2 8.0000000000007221e-01 -2.4930460060536070e+01 1.0000000000000000e+00 8.6324147580314694e+00 1.2858786031720600e+01 5.2424606694975600e+00 
329 1 2 7.9999999999991833e-01 3.1604928956628351e+00 1.0000000000000000e+00 9.1822916912313772e+00 1.2924351136246710e+01 3.7907240956013877e+00 
140 1 2 7.9999999999990579e-01 6.0648377289805993e+00 1.0000000000000000e+00 1.2279998651622666e+01 1.1016379737893606e+01 4.8436449450049635e+00 
342 1 2 8.0000000000002602e-01 -5.1438393856966314e+01 1.0000000000000000e+00 1.2704359803850890e+01 1.0850608300563172e+01 4.8110066721224332e+00 
141 1 2 7.9999999999998050e-01 -2.5815194416321269e+01 1.0000000000000000e+00 1.1549830186168244e+01 1.1049963610084248e+01 5.2435855174763129e+00 
373 1 2 8.0000000000005367e-01 -6.0493431872287438e+01 1.0000000000000000e+00 1.0249895989387216e+01 1.0658553966847764e+01 5.0569070941173901e+00 
32 1 2 7.9999999999997706e-01 2.3324241276044969e+01 1.0000000000000000e+00 1.1009721309991072e+01 1.0114212631594793e+01 3.8579534812880967e+00 
358 1 2 7.9999999999997806e-01 -1.9565079191601768e+01 1.0000000000000000e+00 1.0983328492394339e+01 1.0065931717673095e+01 3.9150409516566209e+00 
78 1 2 8.0000000000005944e-01 5.2263252851941651e+01 1.0000000000000000e+00 1.1292019131566320e+01 1.3197667734225893e+01 5.3556534757378342e+00 
266 1 2 8.0000000000006233e-01 -2.1281252265006962e+01 1.0000000000000000e+00 1.1294765077883346e+01 1.3199398674075669e+01 5.3653706713205755e+00 
328 1 2 7.9999999999988569e-01 2.3656534668627941e+01 1.0000000000000000e+00 1.1143739937277154e+01 1.3187993088026344e+01 5.0505220749848201e+00 
317 1 2 8.0000000000007288e-01 2.0945410063919883e+01 1.0000000000000000e+00 1.1322797929829399e+01 1.3226688030411761e+01 5.4973532918397376e+00 
210 1 2 8.0000000000008120e-01 1.5505150276392140e+01 1.0000000000000000e+00 1.1302204770496619e+01 1.3227332928045728e+01 5.4360287012195760e+00 
118 1 2 7.9999999999989002e-01 -1.3903510839735098e+01 1.0000000000000000e+00 1.1112754117582133e+01 1.3217642211505902e+01 5.0380155176813233e+00 
355 1 2 7.9999999999996307e-01 -4.7847769350644519e+01 1.0000000000000000e+00 1.1145832968178132e+01 1.3294402102515756e+01 5.2066136581642146e+00 
275 1 2 8.0000000000000848e-01 -4.6117449747676268e+01 1.0000000000000000e+00 7.3172050527701264e+00 1.3438341012583537e+01 3.9007808773682675e+00 
144 1 2 8.0000000000000437e-01 6.2538615077071825e+01 1.0000000000000000e+00 7.3035793114443024e+00 1.3795833103764434e+01 3.7477091705747156e+00 
37 1 2 8.0000000000005678e-01 -3.6354562715066507e+01 1.0000000000000000e+00 1.0959331136072993e+01 1.3545713422740919e+01 5.6046015905326456e+00 
47 1 2 7.9999999999998650e-01 -4.5538310163766475e+01 1.0000000000000000e+00 1.0761931394518410e+01 1.3569349175862628e+01 5.9838034390631538e+00 
162 1 2 7.9999999999997073e-01 1.7194613079018168e+01 1.0000000000000000e+00 1.1725949404750555e+01 1.8600944191826510e+01 3.4501087815403526e+00 
352 1 2 8.0000000000000060e-01 3.1246756480164230e+01 1.0000000000000000e+00 1.2433817731443687e+01 1.9069782868826291e+01 3.4507197020932616e+00 