LAMMPS data file via write_data, version 30 Jul 2016, timestep = 50000000

180 atoms
2 atom types

0.0000000000000000e+00 2.0000000000000000e+01 xlo xhi
0.0000000000000000e+00 2.0000000000000000e+01 ylo yhi
0.0000000000000000e+00 2.0000000000000000e+01 zlo zhi

Masses

1 3.896
2 4.31

Atoms # meso-molecular

20 1 2 1.0280090246638665e+00 -2.1253886620907812e+02 1.0000000000000000e+00 4.5401189803848636e+00 5.1515743307081578e+00 1.5696676633948889e+00 
26 1 2 1.0280090616621498e+00 -1.9688647084134070e+02 1.0000000000000000e+00 4.5430464357682183e+00 5.1518617933921051e+00 1.5677892352370997e+00 
27 1 2 1.0280090431318594e+00 -2.1786063205525684e+02 1.0000000000000000e+00 4.5420004603670163e+00 5.1516996371615109e+00 1.5688916911220503e+00 
141 1 2 1.0279931678586396e+00 -1.8243291410248426e+02 1.0000000000000000e+00 4.7080985763212402e+00 5.8333623317379439e+00 2.1495006156006320e+00 
152 1 2 1.0279931678586396e+00 -2.4747271138761110e+02 1.0000000000000000e+00 4.7080985763023628e+00 5.8333623317546017e+00 2.1495006156084155e+00 
89 1 2 1.0279931678586403e+00 -1.4795533919777850e+02 1.0000000000000000e+00 4.7080985762679477e+00 5.8333623317862120e+00 2.1495006156222933e+00 
90 1 2 1.0279951307997541e+00 -2.7386721156070718e+02 1.0000000000000000e+00 4.2386045077583079e+00 5.9795952475358263e+00 1.2919620545814441e+00 
21 1 2 1.0279950846028332e+00 -1.9446150932664474e+02 1.0000000000000000e+00 4.2374226680183247e+00 5.9802335351194094e+00 1.2930454137330962e+00 
114 1 2 1.0280025960975403e+00 -2.5813770460220411e+02 1.0000000000000000e+00 5.1081187695551824e+00 9.0615107246836750e+00 2.9519743524481474e+00 
113 1 2 1.0280025960975407e+00 -2.6739034034357093e+02 1.0000000000000000e+00 5.1081187695542329e+00 9.0615107246847284e+00 2.9519743524490325e+00 
119 1 2 1.0280025960975407e+00 -2.1150503251639515e+02 1.0000000000000000e+00 5.1081187695542356e+00 9.0615107246847231e+00 2.9519743524490250e+00 
149 1 2 1.0280025960975403e+00 -2.3816168004058329e+02 1.0000000000000000e+00 5.1081187695581773e+00 9.0615107246810034e+00 2.9519743524494184e+00 
180 1 2 1.0280025960975403e+00 -2.9429123491725875e+02 1.0000000000000000e+00 5.1081187695581773e+00 9.0615107246810034e+00 2.9519743524494184e+00 
150 1 2 1.0280025960975403e+00 -2.5541038782068102e+02 1.0000000000000000e+00 5.1081187695581773e+00 9.0615107246810034e+00 2.9519743524494184e+00 
144 1 2 1.0280025960975403e+00 -2.7807452080734919e+02 1.0000000000000000e+00 5.1081187695581773e+00 9.0615107246810034e+00 2.9519743524494184e+00 
94 1 2 1.0280002115212559e+00 -2.2719992409992705e+02 1.0000000000000000e+00 2.3360995251908014e+00 7.4608260963095034e+00 3.8934017907779248e+00 
107 1 2 1.0280002115212559e+00 -1.5312406438934948e+02 1.0000000000000000e+00 2.3360995251908014e+00 7.4608260963095034e+00 3.8934017907779248e+00 
6 1 2 1.0280002115212559e+00 -2.5136015600216788e+02 1.0000000000000000e+00 2.3360995251908014e+00 7.4608260963095034e+00 3.8934017907779248e+00 
140 1 2 1.0280002115212561e+00 -2.2039129153766584e+02 1.0000000000000000e+00 2.3360995251908010e+00 7.4608260963094946e+00 3.8934017907779195e+00 
35 1 2 1.0280002115212559e+00 -2.2773007358846979e+02 1.0000000000000000e+00 2.3360995251907881e+00 7.4608260963095141e+00 3.8934017907779022e+00 
1 1 2 1.0280002115212559e+00 -2.2920956297871504e+02 1.0000000000000000e+00 2.3360995251908014e+00 7.4608260963095034e+00 3.8934017907779248e+00 
58 1 2 1.0280002115212559e+00 -2.2352061972152859e+02 1.0000000000000000e+00 2.3360995251908014e+00 7.4608260963095034e+00 3.8934017907779248e+00 
142 1 2 1.0278694233902979e+00 -1.9183114999800824e+02 1.0000000000000000e+00 6.1099684776358201e+00 3.3150330816838629e+00 1.0873266476548222e+01 
13 1 2 1.0278694233902979e+00 -2.8376722407960000e+02 1.0000000000000000e+00 6.1099684776358201e+00 3.3150330816838629e+00 1.0873266476548222e+01 
7 1 2 1.0278694233902979e+00 -2.6087391265043095e+02 1.0000000000000000e+00 6.1099684776358165e+00 3.3150330816838620e+00 1.0873266476548222e+01 
158 1 2 1.0278694233902979e+00 -2.3656061949445922e+02 1.0000000000000000e+00 6.1099684776358165e+00 3.3150330816838620e+00 1.0873266476548222e+01 
19 1 2 1.0278694233902979e+00 -2.8475483125063846e+02 1.0000000000000000e+00 6.1099684776358165e+00 3.3150330816838620e+00 1.0873266476548222e+01 
18 1 2 1.0278694233902979e+00 -2.0506533262787718e+02 1.0000000000000000e+00 6.1099684776358165e+00 3.3150330816838620e+00 1.0873266476548222e+01 
74 1 2 1.0278694233902979e+00 -2.0061513180206236e+02 1.0000000000000000e+00 6.1099684776358201e+00 3.3150330816838629e+00 1.0873266476548222e+01 
121 1 2 1.0279037465565097e+00 -3.1042148385230018e+02 1.0000000000000000e+00 6.6186402156759998e+00 1.2752755295202772e-01 1.4585183071276635e+01 
122 1 2 1.0279037465565097e+00 -2.4741330222645675e+02 1.0000000000000000e+00 6.6186402156759998e+00 1.2752755295202772e-01 1.4585183071276635e+01 
44 1 2 1.0279037465565097e+00 -2.4249289449839446e+02 1.0000000000000000e+00 6.6186402156759998e+00 1.2752755295202772e-01 1.4585183071276635e+01 
81 1 2 1.0279037465565097e+00 -2.1939422359453053e+02 1.0000000000000000e+00 6.6186402156759998e+00 1.2752755295202772e-01 1.4585183071276635e+01 
45 1 2 1.0279037465565097e+00 -2.2964417593937466e+02 1.0000000000000000e+00 6.6186402156759998e+00 1.2752755295202772e-01 1.4585183071276635e+01 
80 1 2 1.0279037465565097e+00 -2.2558266464074680e+02 1.0000000000000000e+00 6.6186402156759998e+00 1.2752755295202772e-01 1.4585183071276635e+01 
164 1 2 1.0279037465565097e+00 -2.9832274025427716e+02 1.0000000000000000e+00 6.6186402156759998e+00 1.2752755295202753e-01 1.4585183071276635e+01 
133 1 2 1.0279942940684186e+00 -2.0819211183031302e+02 1.0000000000000000e+00 1.7690818057447868e+00 6.5180565333295712e+00 1.9737716006375294e+01 
161 1 2 1.0279942940684186e+00 -1.7778298494918579e+02 1.0000000000000000e+00 1.7690818057447897e+00 6.5180565333295677e+00 1.9737716006375287e+01 
66 1 2 1.0279942940684186e+00 -2.6847774927688261e+02 1.0000000000000000e+00 1.7690818057448001e+00 6.5180565333295668e+00 1.9737716006375269e+01 
40 1 2 1.0279942940684186e+00 -1.5116183341618685e+02 1.0000000000000000e+00 1.7690818057447906e+00 6.5180565333295641e+00 1.9737716006375283e+01 
167 1 2 1.0279942940684186e+00 -1.7417061005826491e+02 1.0000000000000000e+00 1.7690818057447906e+00 6.5180565333295641e+00 1.9737716006375283e+01 
34 1 2 1.0279942940684186e+00 -1.7451498003675991e+02 1.0000000000000000e+00 1.7690818057448008e+00 6.5180565333295784e+00 1.9737716006375273e+01 
4 1 2 1.0279942940684186e+00 -1.3405933453089762e+02 1.0000000000000000e+00 1.7690818057447941e+00 6.5180565333295677e+00 1.9737716006375280e+01 
177 1 2 1.0280122293408005e+00 -1.6757569413925432e+02 1.0000000000000000e+00 5.6908026191229215e+00 4.8408767794290961e+00 1.8462266560525126e+01 
64 1 2 1.0280122293408001e+00 -1.4045227042890008e+02 1.0000000000000000e+00 5.6908026191229286e+00 4.8408767794290917e+00 1.8462266560525133e+01 
176 1 2 1.0280122293408001e+00 -1.5103995707000985e+02 1.0000000000000000e+00 5.6908026191229277e+00 4.8408767794290926e+00 1.8462266560525133e+01 
132 1 2 1.0279728067957583e+00 -2.6131809674942053e+02 1.0000000000000000e+00 5.7170126725232224e+00 4.9049168748221454e+00 1.8350789013535870e+01 
75 1 2 1.0279728067957581e+00 -1.7012057359238460e+02 1.0000000000000000e+00 5.7170126725232313e+00 4.9049168748221481e+00 1.8350789013535863e+01 
111 1 2 1.0279728067957583e+00 -1.4974353535396725e+02 1.0000000000000000e+00 5.7170126725232207e+00 4.9049168748221463e+00 1.8350789013535870e+01 
96 1 2 1.0279728067957581e+00 -2.7125488277582411e+02 1.0000000000000000e+00 5.7170126725232295e+00 4.9049168748221508e+00 1.8350789013535863e+01 
178 1 2 1.0278119404416624e+00 -2.2638466911234138e+02 1.0000000000000000e+00 4.2360796044739537e+00 1.7928589887019939e+01 7.6199311881236742e+00 
95 1 2 1.0278119404416624e+00 -3.0552305555415774e+02 1.0000000000000000e+00 4.2360796044739608e+00 1.7928589887019935e+01 7.6199311881236813e+00 
55 1 2 1.0278119404416624e+00 -1.0786330430388644e+02 1.0000000000000000e+00 4.2360796044739608e+00 1.7928589887019935e+01 7.6199311881236813e+00 
179 1 2 1.0278119404416624e+00 -2.1791741147803032e+02 1.0000000000000000e+00 4.2360796044739537e+00 1.7928589887019939e+01 7.6199311881236742e+00 
108 1 2 1.0278119404416624e+00 -2.3252431682380984e+02 1.0000000000000000e+00 4.2360796044739608e+00 1.7928589887019935e+01 7.6199311881236813e+00 
173 1 2 1.0278119404416624e+00 -2.0369981578316458e+02 1.0000000000000000e+00 4.2360796044739537e+00 1.7928589887019939e+01 7.6199311881236742e+00 
143 1 2 1.0278119404416624e+00 -2.2759102199910700e+02 1.0000000000000000e+00 4.2360796044739537e+00 1.7928589887019939e+01 7.6199311881236742e+00 
147 1 2 1.0278119404416619e+00 -1.8309100996289442e+02 1.0000000000000000e+00 2.0748505008619276e+00 1.8329763354938603e+01 1.0040389242234296e+01 
109 1 2 1.0278119404416619e+00 -2.0804306857247849e+02 1.0000000000000000e+00 2.0748505008619276e+00 1.8329763354938603e+01 1.0040389242234296e+01 
154 1 2 1.0278119404416619e+00 -1.9824413481251776e+02 1.0000000000000000e+00 2.0748505008619169e+00 1.8329763354938606e+01 1.0040389242234287e+01 
38 1 2 1.0278119404416619e+00 -1.8015383804155016e+02 1.0000000000000000e+00 2.0748505008619169e+00 1.8329763354938606e+01 1.0040389242234287e+01 
112 1 2 1.0278119404416619e+00 -2.0230052256684667e+02 1.0000000000000000e+00 2.0748505008619276e+00 1.8329763354938603e+01 1.0040389242234296e+01 
148 1 2 1.0278119404416619e+00 -2.1213641247034326e+02 1.0000000000000000e+00 2.0748505008619276e+00 1.8329763354938603e+01 1.0040389242234296e+01 
153 1 2 1.0278119404416619e+00 -2.8030101850912001e+02 1.0000000000000000e+00 2.0748505008619276e+00 1.8329763354938603e+01 1.0040389242234296e+01 
25 1 2 1.0279426458095733e+00 -1.7522628470761606e+02 1.0000000000000000e+00 3.1654975292015606e+00 1.8996065638275276e+01 1.7356641420187007e+01 
103 1 2 1.0279426458095733e+00 -1.9520707745885090e+02 1.0000000000000000e+00 3.1654975292015606e+00 1.8996065638275276e+01 1.7356641420187007e+01 
170 1 2 1.0279426458095733e+00 -2.6328225947256857e+02 1.0000000000000000e+00 3.1654975292015672e+00 1.8996065638275375e+01 1.7356641420186936e+01 
56 1 2 1.0279426458095733e+00 -1.7962444314795272e+02 1.0000000000000000e+00 3.1654975292015721e+00 1.8996065638275265e+01 1.7356641420186950e+01 
47 1 2 1.0279426458095733e+00 -2.2066931315768048e+02 1.0000000000000000e+00 3.1654975292015646e+00 1.8996065638275372e+01 1.7356641420186946e+01 
31 1 2 1.0279426458095733e+00 -2.2364597893255439e+02 1.0000000000000000e+00 3.1654975292015726e+00 1.8996065638275287e+01 1.7356641420186939e+01 
110 1 2 1.0279426458095733e+00 -2.0700360449915456e+02 1.0000000000000000e+00 3.1654975292015655e+00 1.8996065638275173e+01 1.7356641420187024e+01 
86 1 2 1.0280279689336285e+00 -2.1352819792559836e+02 1.0000000000000000e+00 8.0717627328629948e+00 2.3140546960811168e+00 5.1680272103260840e+00 
123 1 2 1.0280279689336285e+00 -1.9344473426179903e+02 1.0000000000000000e+00 8.0717627328629948e+00 2.3140546960811168e+00 5.1680272103260840e+00 
51 1 2 1.0280279689336285e+00 -2.2611334717393359e+02 1.0000000000000000e+00 8.0717627328629948e+00 2.3140546960811168e+00 5.1680272103260840e+00 
92 1 2 1.0280279689336285e+00 -1.9528327636954941e+02 1.0000000000000000e+00 8.0717627328629948e+00 2.3140546960811168e+00 5.1680272103260840e+00 
57 1 2 1.0280279689336285e+00 -2.3235762594230940e+02 1.0000000000000000e+00 8.0717627328629948e+00 2.3140546960811168e+00 5.1680272103260840e+00 
93 1 2 1.0280279689336285e+00 -2.4658437922654983e+02 1.0000000000000000e+00 8.0717627328629948e+00 2.3140546960811168e+00 5.1680272103260840e+00 
87 1 2 1.0280279689336285e+00 -2.1943778206216305e+02 1.0000000000000000e+00 8.0717627328629948e+00 2.3140546960811168e+00 5.1680272103260840e+00 
126 1 2 1.0280279689336280e+00 -1.6301007889553810e+02 1.0000000000000000e+00 9.4878373899917587e+00 5.2566298396322937e+00 5.2256150341395644e+00 
162 1 2 1.0280279689336280e+00 -2.4519923318734527e+02 1.0000000000000000e+00 9.4878373899917587e+00 5.2566298396322937e+00 5.2256150341395644e+00 
70 1 2 1.0280279689336280e+00 -1.3714128407520479e+02 1.0000000000000000e+00 9.4878373899917587e+00 5.2566298396322937e+00 5.2256150341395644e+00 
78 1 2 1.0280279689336280e+00 -2.8957447811089423e+02 1.0000000000000000e+00 9.4878373899917587e+00 5.2566298396322937e+00 5.2256150341395644e+00 
156 1 2 1.0280279689336280e+00 -2.5989365985872996e+02 1.0000000000000000e+00 9.4878373899917641e+00 5.2566298396322919e+00 5.2256150341395644e+00 
120 1 2 1.0280279689336280e+00 -1.8138030042114403e+02 1.0000000000000000e+00 9.4878373899917587e+00 5.2566298396322937e+00 5.2256150341395644e+00 
155 1 2 1.0280279689336280e+00 -2.3633066874641267e+02 1.0000000000000000e+00 9.4878373899917641e+00 5.2566298396322919e+00 5.2256150341395644e+00 
29 1 2 1.0281793891935755e+00 -1.6484171569898555e+02 1.0000000000000000e+00 8.5935373745259636e+00 9.4424306312391142e+00 4.8319851460305250e+00 
106 1 2 1.0281793891935755e+00 -1.4920369087039737e+02 1.0000000000000000e+00 8.5935373745259636e+00 9.4424306312391142e+00 4.8319851460305250e+00 
54 1 2 1.0281793891935755e+00 -2.2522293121813919e+02 1.0000000000000000e+00 8.5935373745259636e+00 9.4424306312391142e+00 4.8319851460305250e+00 
71 1 2 1.0281793891935755e+00 -1.9843677947217378e+02 1.0000000000000000e+00 8.5935373745259636e+00 9.4424306312391142e+00 4.8319851460305250e+00 
24 1 2 1.0281793891935755e+00 -2.6935250977936744e+02 1.0000000000000000e+00 8.5935373745259636e+00 9.4424306312391142e+00 4.8319851460305250e+00 
28 1 2 1.0281793891935755e+00 -1.8731240711546846e+02 1.0000000000000000e+00 8.5935373745259636e+00 9.4424306312391142e+00 4.8319851460305250e+00 
134 1 2 1.0281793891935755e+00 -2.6166554826155851e+02 1.0000000000000000e+00 8.5935373745259600e+00 9.4424306312391177e+00 4.8319851460305276e+00 
10 1 2 1.0281793730247495e+00 -2.8079944462911232e+02 1.0000000000000000e+00 1.0703546157269049e+01 9.6400209664135659e+00 7.3139427547274174e+00 
22 1 2 1.0281793729653443e+00 -1.9909820773480027e+02 1.0000000000000000e+00 1.0703547279633202e+01 9.6400182088320783e+00 7.3139420195084108e+00 
11 1 2 1.0281793735054929e+00 -2.5545021748955347e+02 1.0000000000000000e+00 1.0703556410999836e+01 9.6400798051568515e+00 7.3139293574848203e+00 
46 1 2 1.0281793740825080e+00 -2.5232791979455945e+02 1.0000000000000000e+00 1.0703531467272480e+01 9.6400789481201699e+00 7.3139506214241070e+00 
52 1 2 1.0281793740486938e+00 -2.6584042733471443e+02 1.0000000000000000e+00 1.0703531746017182e+01 9.6400767753558902e+00 7.3139505582198820e+00 
17 1 2 1.0281793740499112e+00 -2.8303723442983988e+02 1.0000000000000000e+00 1.0703531753035866e+01 9.6400768862679911e+00 7.3139505433979792e+00 
16 1 2 1.0281793756706474e+00 -2.8838236812915693e+02 1.0000000000000000e+00 1.0703528384669999e+01 9.6401947174483489e+00 7.3139439129565913e+00 
165 1 2 1.0278694233902976e+00 -2.3812821520371926e+02 1.0000000000000000e+00 6.9775133645783205e+00 2.4855124471504936e-01 1.0146398905576138e+01 
172 1 2 1.0278694233902976e+00 -2.5169026634285734e+02 1.0000000000000000e+00 6.9775133645783205e+00 2.4855124471504936e-01 1.0146398905576138e+01 
129 1 2 1.0278694233902976e+00 -2.2058389801051570e+02 1.0000000000000000e+00 6.9775133645779297e+00 2.4855124471494966e-01 1.0146398905576101e+01 
171 1 2 1.0278694233902976e+00 -2.2045329337746153e+02 1.0000000000000000e+00 6.9775133645783205e+00 2.4855124471504936e-01 1.0146398905576138e+01 
166 1 2 1.0278694233902976e+00 -2.4251066773134903e+02 1.0000000000000000e+00 6.9775133645783205e+00 2.4855124471504936e-01 1.0146398905576138e+01 
88 1 2 1.0278694233902976e+00 -2.3651019637024746e+02 1.0000000000000000e+00 6.9775133645783205e+00 2.4855124471504936e-01 1.0146398905576138e+01 
160 1 2 1.0278694233902976e+00 -2.2217477439499538e+02 1.0000000000000000e+00 6.9775133645783205e+00 2.4855124471504936e-01 1.0146398905576138e+01 
15 1 2 1.0279108167364883e+00 -2.0445891556200334e+02 1.0000000000000000e+00 7.2665975848802651e+00 3.2913195110151889e+00 1.5086351603633910e+01 
174 1 2 1.0279108167362820e+00 -1.9339497943226326e+02 1.0000000000000000e+00 7.2665975749623435e+00 3.2913195128668757e+00 1.5086351604719143e+01 
145 1 2 1.0279108167366109e+00 -2.0205086180900000e+02 1.0000000000000000e+00 7.2665975967118612e+00 3.2913195094523808e+00 1.5086351598244260e+01 
137 1 2 1.0279108167364883e+00 -1.9096484934344824e+02 1.0000000000000000e+00 7.2665975848802651e+00 3.2913195110151889e+00 1.5086351603633910e+01 
138 1 2 1.0279108167366109e+00 -1.8375293341242488e+02 1.0000000000000000e+00 7.2665975967118612e+00 3.2913195094523808e+00 1.5086351598244260e+01 
168 1 2 1.0279108167364883e+00 -1.8641530658495682e+02 1.0000000000000000e+00 7.2665975848802651e+00 3.2913195110151889e+00 1.5086351603633910e+01 
14 1 2 1.0279108167366109e+00 -2.0662844540210230e+02 1.0000000000000000e+00 7.2665975967118612e+00 3.2913195094523808e+00 1.5086351598244260e+01 
130 1 2 1.0280005380179651e+00 -1.4041404467920225e+02 1.0000000000000000e+00 9.7811096212807307e+00 5.0398917060576087e+00 1.8435304270841659e+01 
30 1 2 1.0280005380179646e+00 -7.8857077230619055e+01 1.0000000000000000e+00 9.7811096212808053e+00 5.0398917060575199e+00 1.8435304270841549e+01 
131 1 2 1.0280005380179660e+00 -1.2503699944855200e+02 1.0000000000000000e+00 9.7811096212810629e+00 5.0398917060578512e+00 1.8435304270841780e+01 
77 1 2 1.0279949563629085e+00 -2.8212170636679929e+02 1.0000000000000000e+00 8.7394051688154217e+00 5.5440520220975236e+00 1.8111549254479215e+01 
118 1 2 1.0279949563629076e+00 -2.1318371641068174e+02 1.0000000000000000e+00 8.7394051688154164e+00 5.5440520220975475e+00 1.8111549254479208e+01 
82 1 2 1.0279949563629078e+00 -2.0752016367392031e+02 1.0000000000000000e+00 8.7394051688154253e+00 5.5440520220974889e+00 1.8111549254479232e+01 
65 1 2 1.0280026951278300e+00 -1.7567450489477014e+02 1.0000000000000000e+00 9.6435330534051378e+00 5.7128055134443478e+00 1.6862651427434674e+01 
125 1 2 1.0279997920681634e+00 -2.3705958135347927e+02 1.0000000000000000e+00 1.0240451510424549e+01 6.2885957909955756e+00 1.7129467043778064e+01 
102 1 2 1.0279997941786589e+00 -2.5987305893036040e+02 1.0000000000000000e+00 1.0240031336568613e+01 6.2887550865848914e+00 1.7129264512251233e+01 
84 1 2 1.0279998044280987e+00 -2.6827489826534003e+02 1.0000000000000000e+00 1.0237632741107969e+01 6.2897983433014737e+00 1.7128209671064582e+01 
91 1 2 1.0279985355397248e+00 -2.0949948729500503e+02 1.0000000000000000e+00 1.0499448312837931e+01 6.1650760832122407e+00 1.7422561963124114e+01 
53 1 2 1.0279967331493236e+00 -1.5801242093573163e+02 1.0000000000000000e+00 1.1447843364170545e+01 9.1770246222582283e+00 1.7311074421118242e+01 
33 1 2 1.0279967322206747e+00 -2.5739394145314600e+02 1.0000000000000000e+00 1.1447847573527175e+01 9.1770232219174819e+00 1.7311067749050913e+01 
98 1 2 1.0279967873546751e+00 -2.2651503338488038e+02 1.0000000000000000e+00 1.1447591416485320e+01 9.1771079528491519e+00 1.7311456470963652e+01 
32 1 2 1.0279967844216287e+00 -1.9825450692643747e+02 1.0000000000000000e+00 1.1446771381020604e+01 9.1774658597827461e+00 1.7310560961831655e+01 
105 1 2 1.0279967844216287e+00 -2.2600962536714454e+02 1.0000000000000000e+00 1.1446771381020652e+01 9.1774658597827266e+00 1.7310560961831705e+01 
69 1 2 1.0279967778831955e+00 -2.4624360903727418e+02 1.0000000000000000e+00 1.1446790491238097e+01 9.1774605788393249e+00 1.7310502953763812e+01 
124 1 2 1.0279968471942342e+00 -2.2388525686891185e+02 1.0000000000000000e+00 1.1446608430743803e+01 9.1775057207577984e+00 1.7311138059328389e+01 
128 1 2 1.0280952244452568e+00 -3.6615494537307995e+02 1.0000000000000000e+00 7.3284176506903274e+00 1.2452675142754504e+01 8.4241147529366120e+00 
79 1 2 1.0280952244452568e+00 -2.3020797052407255e+02 1.0000000000000000e+00 7.3284176506903274e+00 1.2452675142754504e+01 8.4241147529366120e+00 
116 1 2 1.0280952244452568e+00 -2.9013840305922758e+02 1.0000000000000000e+00 7.3284176506903274e+00 1.2452675142754504e+01 8.4241147529366120e+00 
85 1 2 1.0280952244452568e+00 -1.9863625178509926e+02 1.0000000000000000e+00 7.3284176506903274e+00 1.2452675142754504e+01 8.4241147529366120e+00 
50 1 2 1.0280952244452568e+00 -2.2652063178894304e+02 1.0000000000000000e+00 7.3284176506903274e+00 1.2452675142754504e+01 8.4241147529366120e+00 
43 1 2 1.0280952244452568e+00 -2.0619173458330897e+02 1.0000000000000000e+00 7.3284176506903274e+00 1.2452675142754504e+01 8.4241147529366120e+00 
49 1 2 1.0280952244452568e+00 -1.9377503966565925e+02 1.0000000000000000e+00 7.3284176506903274e+00 1.2452675142754504e+01 8.4241147529366120e+00 
151 1 2 1.0280952244452564e+00 -1.6027940097386534e+02 1.0000000000000000e+00 8.6706086524890349e+00 1.5111714266145055e+01 7.0868689582726940e+00 
61 1 2 1.0280952244452564e+00 -2.1690227882551500e+02 1.0000000000000000e+00 8.6706086524890349e+00 1.5111714266145055e+01 7.0868689582726940e+00 
76 1 2 1.0280952244452564e+00 -2.3755284265679978e+02 1.0000000000000000e+00 8.6706086524890100e+00 1.5111714266145075e+01 7.0868689582727091e+00 
67 1 2 1.0280952244452564e+00 -2.5297791817379090e+02 1.0000000000000000e+00 8.6706086524890154e+00 1.5111714266145071e+01 7.0868689582727074e+00 
104 1 2 1.0280952244452564e+00 -2.1483379408176103e+02 1.0000000000000000e+00 8.6706086524890349e+00 1.5111714266145055e+01 7.0868689582726940e+00 
115 1 2 1.0280952244452564e+00 -1.6083115216864070e+02 1.0000000000000000e+00 8.6706086524890242e+00 1.5111714266145066e+01 7.0868689582727047e+00 
175 1 2 1.0280952244452564e+00 -2.4853933022902578e+02 1.0000000000000000e+00 8.6706086524890047e+00 1.5111714266145077e+01 7.0868689582727074e+00 
36 1 2 1.0281528569031300e+00 -2.6407622411887604e+02 1.0000000000000000e+00 1.6361393949638543e+01 1.4023038897551316e+01 1.1271996983558690e+01 
127 1 2 1.0281528569031300e+00 -2.2095125963482417e+02 1.0000000000000000e+00 1.6361393949638533e+01 1.4023038897551320e+01 1.1271996983558701e+01 
100 1 2 1.0281528569031300e+00 -1.8477370351253467e+02 1.0000000000000000e+00 1.6361393949638533e+01 1.4023038897551320e+01 1.1271996983558701e+01 
37 1 2 1.0281528569031284e+00 -2.4229320047257227e+02 1.0000000000000000e+00 1.6361393949638529e+01 1.4023038897551311e+01 1.1271996983558696e+01 
48 1 2 1.0281528569031300e+00 -2.5357114639897361e+02 1.0000000000000000e+00 1.6361393949638543e+01 1.4023038897551316e+01 1.1271996983558690e+01 
83 1 2 1.0281528569031300e+00 -2.3033136409394848e+02 1.0000000000000000e+00 1.6361393949638533e+01 1.4023038897551320e+01 1.1271996983558701e+01 
5 1 2 1.0281528569031300e+00 -2.8848904818313861e+02 1.0000000000000000e+00 1.6361393949638543e+01 1.4023038897551316e+01 1.1271996983558690e+01 
117 1 2 1.0281528569031291e+00 -2.3161471346590355e+02 1.0000000000000000e+00 1.8254843906024920e+01 1.2762796652501288e+01 1.3613093109929363e+01 
2 1 2 1.0281528569031291e+00 -2.4067614284215776e+02 1.0000000000000000e+00 1.8254843906024920e+01 1.2762796652501299e+01 1.3613093109929368e+01 
8 1 2 1.0281528569031291e+00 -1.7364575345084319e+02 1.0000000000000000e+00 1.8254843906024920e+01 1.2762796652501299e+01 1.3613093109929368e+01 
9 1 2 1.0281528569031291e+00 -1.9981878352433665e+02 1.0000000000000000e+00 1.8254843906024920e+01 1.2762796652501288e+01 1.3613093109929363e+01 
146 1 2 1.0281528569031291e+00 -2.4340953572541150e+02 1.0000000000000000e+00 1.8254843906024920e+01 1.2762796652501288e+01 1.3613093109929363e+01 
3 1 2 1.0281528569031291e+00 -1.9717031849443629e+02 1.0000000000000000e+00 1.8254843906024920e+01 1.2762796652501299e+01 1.3613093109929368e+01 
39 1 2 1.0281528569031291e+00 -1.8437795555556173e+02 1.0000000000000000e+00 1.8254843906024920e+01 1.2762796652501288e+01 1.3613093109929363e+01 
163 1 2 1.0280281257393271e+00 -2.3651678602218658e+02 1.0000000000000000e+00 1.6392899855564099e+01 1.7637637138416526e+01 1.5943983018693272e+01 
159 1 2 1.0280281257393271e+00 -3.0918962175802545e+02 1.0000000000000000e+00 1.6392899855564099e+01 1.7637637138416526e+01 1.5943983018693272e+01 
157 1 2 1.0280281257393271e+00 -2.6347436264048201e+02 1.0000000000000000e+00 1.6392899855564099e+01 1.7637637138416526e+01 1.5943983018693272e+01 
12 1 2 1.0280281257393271e+00 -2.2230928829609059e+02 1.0000000000000000e+00 1.6392899855564099e+01 1.7637637138416526e+01 1.5943983018693272e+01 
139 1 2 1.0280281257393271e+00 -2.9685772109747063e+02 1.0000000000000000e+00 1.6392899855564099e+01 1.7637637138416526e+01 1.5943983018693272e+01 
101 1 2 1.0280281257393271e+00 -2.3901181919852152e+02 1.0000000000000000e+00 1.6392899855564096e+01 1.7637637138416551e+01 1.5943983018693251e+01 
60 1 2 1.0280281257393271e+00 -2.0399924285566860e+02 1.0000000000000000e+00 1.6392899855564096e+01 1.7637637138416551e+01 1.5943983018693251e+01 
73 1 2 1.0279753192060046e+00 -2.1919334520229492e+02 1.0000000000000000e+00 1.5980916876756524e+01 1.9682581769520493e+01 1.8458225333574177e+01 
41 1 2 1.0279753192060046e+00 -2.5062979452730852e+02 1.0000000000000000e+00 1.5980916876756524e+01 1.9682581769520493e+01 1.8458225333574177e+01 
23 1 2 1.0279753192060046e+00 -1.8687045225548198e+02 1.0000000000000000e+00 1.5980916876756524e+01 1.9682581769520493e+01 1.8458225333574177e+01 
135 1 2 1.0279753192060046e+00 -1.8119438972197460e+02 1.0000000000000000e+00 1.5980916876756524e+01 1.9682581769520493e+01 1.8458225333574177e+01 
72 1 2 1.0279753192060046e+00 -2.4284578929011363e+02 1.0000000000000000e+00 1.5980916876756524e+01 1.9682581769520493e+01 1.8458225333574177e+01 
59 1 2 1.0279753192060046e+00 -2.1947806270728191e+02 1.0000000000000000e+00 1.5980916876756524e+01 1.9682581769520493e+01 1.8458225333574177e+01 
42 1 2 1.0279753192060046e+00 -2.6924320049413888e+02 1.0000000000000000e+00 1.5980916876756524e+01 1.9682581769520493e+01 1.8458225333574177e+01 
68 1 2 1.0279954523428965e+00 -2.4528151182607510e+02 1.0000000000000000e+00 1.9966211997976281e+01 1.8751256412927635e+01 1.6739329299875809e+01 
62 1 2 1.0279954523428956e+00 -1.8879384067442180e+02 1.0000000000000000e+00 1.9966211997976252e+01 1.8751256412927511e+01 1.6739329299875990e+01 
97 1 2 1.0279954523428971e+00 -2.5786412157278102e+02 1.0000000000000000e+00 1.9966211997976210e+01 1.8751256412927731e+01 1.6739329299876161e+01 
136 1 2 1.0279954523428971e+00 -1.4865226329871493e+02 1.0000000000000000e+00 1.9966211997976210e+01 1.8751256412927731e+01 1.6739329299876161e+01 
99 1 2 1.0279954523428956e+00 -2.6191572018527472e+02 1.0000000000000000e+00 1.9966211997976259e+01 1.8751256412927535e+01 1.6739329299875930e+01 
169 1 2 1.0279954523428971e+00 -1.8536449055639437e+02 1.0000000000000000e+00 1.9966211997976210e+01 1.8751256412927731e+01 1.6739329299876161e+01 
63 1 2 1.0279954523428971e+00 -2.4625819052349877e+02 1.0000000000000000e+00 1.9966211997976220e+01 1.8751256412927628e+01 1.6739329299876150e+01 

Velocities

20 2.6838890486869527e-01 -2.2508035465325565e-01 -9.7996651209443564e-02
26 2.6839619093894806e-01 -2.2508172518250688e-01 -9.7998243622781006e-02
27 2.6839309260680083e-01 -2.2508093278723251e-01 -9.7997141545235519e-02
141 2.6752492371304459e-01 -2.2452185905566635e-01 -9.8236949123676670e-02
152 2.6752492371303233e-01 -2.2452185905568534e-01 -9.8236949123709810e-02
89 2.6752492371301051e-01 -2.2452185905572081e-01 -9.8236949123769166e-02
90 2.6825344882149976e-01 -2.2496163399348595e-01 -9.8156969277249928e-02
21 2.6825225197146563e-01 -2.2496350104722226e-01 -9.8156314560174651e-02
114 2.6637669166365019e-01 -2.2440263467486943e-01 -9.6217819667030080e-02
113 2.6637669166364991e-01 -2.2440263467486721e-01 -9.6217819667029331e-02
119 2.6637669166365036e-01 -2.2440263467486690e-01 -9.6217819667029483e-02
149 2.6637669166365258e-01 -2.2440263467487206e-01 -9.6217819667029358e-02
180 2.6637669166365258e-01 -2.2440263467487206e-01 -9.6217819667029358e-02
150 2.6637669166365258e-01 -2.2440263467487206e-01 -9.6217819667029358e-02
144 2.6637669166365258e-01 -2.2440263467487206e-01 -9.6217819667029358e-02
94 2.6679673381663860e-01 -2.2535055504548065e-01 -9.7612357237562147e-02
107 2.6679673381663860e-01 -2.2535055504548065e-01 -9.7612357237562147e-02
6 2.6679673381663860e-01 -2.2535055504548065e-01 -9.7612357237562133e-02
140 2.6679673381663949e-01 -2.2535055504548054e-01 -9.7612357237562522e-02
35 2.6679673381663865e-01 -2.2535055504548065e-01 -9.7612357237562106e-02
1 2.6679673381663860e-01 -2.2535055504548065e-01 -9.7612357237562133e-02
58 2.6679673381663860e-01 -2.2535055504548065e-01 -9.7612357237562133e-02
142 2.9036163764754275e-01 -2.4852186005584051e-01 -9.3853124794534143e-02
13 2.9036163764754275e-01 -2.4852186005584051e-01 -9.3853124794534143e-02
7 2.9036163764754269e-01 -2.4852186005584023e-01 -9.3853124794533976e-02
158 2.9036163764754269e-01 -2.4852186005584023e-01 -9.3853124794533976e-02
19 2.9036163764754269e-01 -2.4852186005584023e-01 -9.3853124794533976e-02
18 2.9036163764754269e-01 -2.4852186005584023e-01 -9.3853124794533976e-02
74 2.9036163764754275e-01 -2.4852186005584051e-01 -9.3853124794534143e-02
121 2.8859555356140743e-01 -2.5435734546438465e-01 -8.0682571671958164e-02
122 2.8859555356140743e-01 -2.5435734546438465e-01 -8.0682571671958164e-02
44 2.8859555356140743e-01 -2.5435734546438465e-01 -8.0682571671958150e-02
81 2.8859555356140743e-01 -2.5435734546438465e-01 -8.0682571671958150e-02
45 2.8859555356140743e-01 -2.5435734546438465e-01 -8.0682571671958164e-02
80 2.8859555356140743e-01 -2.5435734546438465e-01 -8.0682571671958150e-02
164 2.8859555356140743e-01 -2.5435734546438449e-01 -8.0682571671958053e-02
133 2.6955529322242938e-01 -2.2823363849896280e-01 -1.0144348596447712e-01
161 2.6955529322242955e-01 -2.2823363849896286e-01 -1.0144348596447701e-01
66 2.6955529322242966e-01 -2.2823363849896286e-01 -1.0144348596447673e-01
40 2.6955529322242949e-01 -2.2823363849896286e-01 -1.0144348596447691e-01
167 2.6955529322242949e-01 -2.2823363849896286e-01 -1.0144348596447691e-01
34 2.6955529322242971e-01 -2.2823363849896297e-01 -1.0144348596447675e-01