LAMMPS data file via write_data, version 30 Jul 2016, timestep = 50400000

180 atoms
2 atom types

0.0000000000000000e+00 2.0000000000000000e+01 xlo xhi
0.0000000000000000e+00 2.0000000000000000e+01 ylo yhi
0.0000000000000000e+00 2.0000000000000000e+01 zlo zhi

Masses

1 3.896
2 4.31

Atoms # meso-molecular

10 1 2 1.0281691337260794e+00 -2.8079940399784704e+02 1.0000000000000000e+00 1.7575781223046476e+00 6.3767774481774175e-01 1.8569939952718508e+00 
22 1 2 1.0281691337060570e+00 -1.9909816710357759e+02 1.0000000000000000e+00 1.7575789754152971e+00 6.3767560782919130e-01 1.8569934071358385e+00 
11 1 2 1.0281691337523555e+00 -2.5545017685822734e+02 1.0000000000000000e+00 1.7575861664796280e+00 6.3772332091856532e-01 1.8569837406456431e+00 
46 1 2 1.0281691340636825e+00 -2.5232787916288257e+02 1.0000000000000000e+00 1.7575670227398372e+00 6.3772267255540782e-01 1.8570004105171183e+00 
52 1 2 1.0281691340535559e+00 -2.6584038670303534e+02 1.0000000000000000e+00 1.7575672301037453e+00 6.3772098912499053e-01 1.8570003516421902e+00 
17 1 2 1.0281691340537933e+00 -2.8303719379816044e+02 1.0000000000000000e+00 1.7575672358232104e+00 6.3772107504505815e-01 1.8570003404946596e+00 
16 1 2 1.0281691345542652e+00 -2.8838232749682089e+02 1.0000000000000000e+00 1.7575650110327241e+00 6.3781236347495973e-01 1.8569956538466226e+00 
33 1 2 1.0279974711823407e+00 -2.5739392624345493e+02 1.0000000000000000e+00 2.8249431480124718e+00 6.2567086192319848e-02 1.3766603378110878e+01 
53 1 2 1.0279974716460307e+00 -1.5801240572600219e+02 1.0000000000000000e+00 2.8249392386250389e+00 6.2568770253203024e-02 1.3766609808679398e+01 
98 1 2 1.0279974990389933e+00 -2.2651501817203263e+02 1.0000000000000000e+00 2.8247049961886828e+00 6.2668709951537338e-02 1.3766978148854298e+01 
105 1 2 1.0279975378335027e+00 -2.2600961015282238e+02 1.0000000000000000e+00 2.8239194701455532e+00 6.3022774700554465e-02 1.3766116108116856e+01 
32 1 2 1.0279975378335027e+00 -1.9825449171211531e+02 1.0000000000000000e+00 2.8239194701455030e+00 6.3022774700576975e-02 1.3766116108116808e+01 
69 1 2 1.0279975350735027e+00 -2.4624359382330064e+02 1.0000000000000000e+00 2.8239369587766125e+00 6.3015440520915192e-02 1.3766060211088249e+01 
124 1 2 1.0279975633745986e+00 -2.2388524165124895e+02 1.0000000000000000e+00 2.8237711570845652e+00 6.3082515314672946e-02 1.3766672374807003e+01 
126 1 2 1.0280151053350377e+00 -1.6301007737987146e+02 1.0000000000000000e+00 1.6699328646505293e-01 1.5945970513517850e+01 2.2631422519249469e+00 
162 1 2 1.0280151053350377e+00 -2.4519923167167863e+02 1.0000000000000000e+00 1.6699328646505293e-01 1.5945970513517850e+01 2.2631422519249469e+00 
70 1 2 1.0280151053350377e+00 -1.3714128255953815e+02 1.0000000000000000e+00 1.6699328646505293e-01 1.5945970513517850e+01 2.2631422519249469e+00 
78 1 2 1.0280151053350377e+00 -2.8957447659518186e+02 1.0000000000000000e+00 1.6699328646505293e-01 1.5945970513517850e+01 2.2631422519249469e+00 
156 1 2 1.0280151053350379e+00 -2.5989365834301759e+02 1.0000000000000000e+00 1.6699328646505671e-01 1.5945970513517846e+01 2.2631422519249478e+00 
120 1 2 1.0280151053350377e+00 -1.8138029890547739e+02 1.0000000000000000e+00 1.6699328646505293e-01 1.5945970513517850e+01 2.2631422519249469e+00 
155 1 2 1.0280151053350379e+00 -2.3633066723074603e+02 1.0000000000000000e+00 1.6699328646505671e-01 1.5945970513517846e+01 2.2631422519249478e+00 
131 1 2 1.0280006565635535e+00 -1.2503699594479640e+02 1.0000000000000000e+00 1.0214081906064061e+00 1.5979353696992037e+01 1.4977878266600532e+01 
30 1 2 1.0280006565635558e+00 -7.8857073726863462e+01 1.0000000000000000e+00 1.0214081906061709e+00 1.5979353696991753e+01 1.4977878266600330e+01 
130 1 2 1.0280006565635549e+00 -1.4041404117549331e+02 1.0000000000000000e+00 1.0214081906060806e+00 1.5979353696991797e+01 1.4977878266600404e+01 
65 1 2 1.0280023100565940e+00 -1.7567449937836412e+02 1.0000000000000000e+00 8.8783969931746265e-01 1.6644921967096870e+01 1.3400424668823399e+01 
84 1 2 1.0280003421375119e+00 -2.6827486934645373e+02 1.0000000000000000e+00 1.4954976780124862e+00 1.7223503375937486e+01 1.3672143433988115e+01 
102 1 2 1.0280003343634254e+00 -2.5987303000720732e+02 1.0000000000000000e+00 1.4978849804302594e+00 1.7222453430984135e+01 1.3673213565854038e+01 
125 1 2 1.0280003328242553e+00 -2.3705955242810251e+02 1.0000000000000000e+00 1.4983031882568858e+00 1.7222292632848895e+01 1.3673419002004296e+01 
91 1 2 1.0279993271093346e+00 -2.0949945927641579e+02 1.0000000000000000e+00 1.7524212431123194e+00 1.7098468695151833e+01 1.3966613574341446e+01 
36 1 2 1.0280223489479845e+00 -2.6407622531096240e+02 1.0000000000000000e+00 6.8005248719378724e+00 2.7024315638273269e+00 9.5569904402483701e+00 
5 1 2 1.0280223489479845e+00 -2.8848904937522497e+02 1.0000000000000000e+00 6.8005248719378724e+00 2.7024315638273269e+00 9.5569904402483701e+00 
83 1 2 1.0280223489479861e+00 -2.3033136528606073e+02 1.0000000000000000e+00 6.8005248719378644e+00 2.7024315638273295e+00 9.5569904402483790e+00 
48 1 2 1.0280223489479845e+00 -2.5357114759108586e+02 1.0000000000000000e+00 6.8005248719378724e+00 2.7024315638273269e+00 9.5569904402483701e+00 
37 1 2 1.0280223489479845e+00 -2.4229320166468452e+02 1.0000000000000000e+00 6.8005248719378688e+00 2.7024315638273277e+00 9.5569904402483736e+00 
100 1 2 1.0280223489479861e+00 -1.8477370470464692e+02 1.0000000000000000e+00 6.8005248719378644e+00 2.7024315638273295e+00 9.5569904402483790e+00 
127 1 2 1.0280223489479861e+00 -2.2095126082693642e+02 1.0000000000000000e+00 6.8005248719378644e+00 2.7024315638273295e+00 9.5569904402483790e+00 
39 1 2 1.0280223489479854e+00 -1.8437795674767398e+02 1.0000000000000000e+00 8.6928783148058049e+00 1.4333110475923534e+00 1.1897132104337857e+01 
3 1 2 1.0280223489479854e+00 -1.9717031968654854e+02 1.0000000000000000e+00 8.6928783148058013e+00 1.4333110475923583e+00 1.1897132104337862e+01 
146 1 2 1.0280223489479854e+00 -2.4340953691752375e+02 1.0000000000000000e+00 8.6928783148058049e+00 1.4333110475923534e+00 1.1897132104337857e+01 
9 1 2 1.0280223489479854e+00 -1.9981878471644890e+02 1.0000000000000000e+00 8.6928783148058049e+00 1.4333110475923534e+00 1.1897132104337857e+01 
8 1 2 1.0280223489479854e+00 -1.7364575464295544e+02 1.0000000000000000e+00 8.6928783148058013e+00 1.4333110475923583e+00 1.1897132104337862e+01 
2 1 2 1.0280223489479854e+00 -2.4067614403427001e+02 1.0000000000000000e+00 8.6928783148058013e+00 1.4333110475923583e+00 1.1897132104337862e+01 
117 1 2 1.0280223489479854e+00 -2.3161471465801580e+02 1.0000000000000000e+00 8.6928783148058049e+00 1.4333110475923534e+00 1.1897132104337857e+01 
163 1 2 1.0280006183184289e+00 -2.3651678299502314e+02 1.0000000000000000e+00 7.2853101619742784e+00 8.1731857334301434e+00 1.2020811320541371e+01 
159 1 2 1.0280006183184289e+00 -3.0918961872919147e+02 1.0000000000000000e+00 7.2853101619742784e+00 8.1731857334301434e+00 1.2020811320541371e+01 
157 1 2 1.0280006183184289e+00 -2.6347435961164803e+02 1.0000000000000000e+00 7.2853101619742784e+00 8.1731857334301434e+00 1.2020811320541371e+01 
12 1 2 1.0280006183184289e+00 -2.2230928526892714e+02 1.0000000000000000e+00 7.2853101619742784e+00 8.1731857334301434e+00 1.2020811320541371e+01 
139 1 2 1.0280006183184289e+00 -2.9685771806863664e+02 1.0000000000000000e+00 7.2853101619742784e+00 8.1731857334301434e+00 1.2020811320541371e+01 
101 1 2 1.0280006183184289e+00 -2.3901181617135808e+02 1.0000000000000000e+00 7.2853101619742775e+00 8.1731857334301736e+00 1.2020811320541346e+01 
60 1 2 1.0280006183184289e+00 -2.0399923982850515e+02 1.0000000000000000e+00 7.2853101619742775e+00 8.1731857334301736e+00 1.2020811320541346e+01 
68 1 2 1.0279931819413128e+00 -2.4528150650578823e+02 1.0000000000000000e+00 1.1513149898995902e+01 8.9459297053920768e+00 1.2588936721695980e+01 
63 1 2 1.0279931819413128e+00 -2.4625818520321189e+02 1.0000000000000000e+00 1.1513149898995827e+01 8.9459297053920732e+00 1.2588936721696339e+01 
169 1 2 1.0279931819413128e+00 -1.8536448523610750e+02 1.0000000000000000e+00 1.1513149898995819e+01 8.9459297053921798e+00 1.2588936721696347e+01 
99 1 2 1.0279931819413128e+00 -2.6191571486496349e+02 1.0000000000000000e+00 1.1513149898995881e+01 8.9459297053919755e+00 1.2588936721696106e+01 
136 1 2 1.0279931819413128e+00 -1.4865225797842805e+02 1.0000000000000000e+00 1.1513149898995819e+01 8.9459297053921798e+00 1.2588936721696347e+01 
97 1 2 1.0279931819413128e+00 -2.5786411625246978e+02 1.0000000000000000e+00 1.1513149898995819e+01 8.9459297053921798e+00 1.2588936721696347e+01 
62 1 2 1.0279931819413128e+00 -1.8879383535413493e+02 1.0000000000000000e+00 1.1513149898995868e+01 8.9459297053919542e+00 1.2588936721696168e+01 
42 1 2 1.0280006183184285e+00 -2.6924319893349883e+02 1.0000000000000000e+00 6.9161601303180014e+00 1.0221303212931419e+01 1.4538585709359312e+01 
73 1 2 1.0280006183184285e+00 -2.1919334364326087e+02 1.0000000000000000e+00 6.9161601303180014e+00 1.0221303212931419e+01 1.4538585709359312e+01 
41 1 2 1.0280006183184285e+00 -2.5062979296827447e+02 1.0000000000000000e+00 6.9161601303180014e+00 1.0221303212931419e+01 1.4538585709359312e+01 
23 1 2 1.0280006183184285e+00 -1.8687045069644793e+02 1.0000000000000000e+00 6.9161601303180014e+00 1.0221303212931419e+01 1.4538585709359312e+01 
135 1 2 1.0280006183184285e+00 -1.8119438816294056e+02 1.0000000000000000e+00 6.9161601303180014e+00 1.0221303212931419e+01 1.4538585709359312e+01 
72 1 2 1.0280006183184285e+00 -2.4284578773107958e+02 1.0000000000000000e+00 6.9161601303180014e+00 1.0221303212931419e+01 1.4538585709359312e+01 
59 1 2 1.0280006183184285e+00 -2.1947806114824786e+02 1.0000000000000000e+00 6.9161601303180014e+00 1.0221303212931419e+01 1.4538585709359312e+01 
133 1 2 1.0279943970638832e+00 -2.0819209918332189e+02 1.0000000000000000e+00 1.2563713013184659e+01 1.7406799663654372e+01 1.5716421861771096e+01 
161 1 2 1.0279943970638832e+00 -1.7778297230219465e+02 1.0000000000000000e+00 1.2563713013184660e+01 1.7406799663654368e+01 1.5716421861771092e+01 
66 1 2 1.0279943970638834e+00 -2.6847773662979176e+02 1.0000000000000000e+00 1.2563713013184676e+01 1.7406799663654368e+01 1.5716421861771071e+01 
40 1 2 1.0279943970638832e+00 -1.5116182076919571e+02 1.0000000000000000e+00 1.2563713013184662e+01 1.7406799663654365e+01 1.5716421861771089e+01 
167 1 2 1.0279943970638832e+00 -1.7417059741127377e+02 1.0000000000000000e+00 1.2563713013184662e+01 1.7406799663654365e+01 1.5716421861771089e+01 
34 1 2 1.0279943970638834e+00 -1.7451496738976877e+02 1.0000000000000000e+00 1.2563713013184673e+01 1.7406799663654379e+01 1.5716421861771078e+01 
4 1 2 1.0279943970638832e+00 -1.3405932188390648e+02 1.0000000000000000e+00 1.2563713013184667e+01 1.7406799663654368e+01 1.5716421861771082e+01 
107 1 2 1.0279816830765018e+00 -1.5312405953490145e+02 1.0000000000000000e+00 1.3027188367679495e+01 1.8442159282395718e+01 1.9979811619139952e+01 
140 1 2 1.0279816830765021e+00 -2.2039128668321780e+02 1.0000000000000000e+00 1.3027188367679493e+01 1.8442159282395711e+01 1.9979811619139944e+01 
6 1 2 1.0279816830765018e+00 -2.5136015114771985e+02 1.0000000000000000e+00 1.3027188367679493e+01 1.8442159282395718e+01 1.9979811619139948e+01 
58 1 2 1.0279816830765018e+00 -2.2352061486708055e+02 1.0000000000000000e+00 1.3027188367679493e+01 1.8442159282395718e+01 1.9979811619139948e+01 
1 1 2 1.0279816830765018e+00 -2.2920955812426701e+02 1.0000000000000000e+00 1.3027188367679493e+01 1.8442159282395718e+01 1.9979811619139948e+01 
35 1 2 1.0279816830765016e+00 -2.2773006873402176e+02 1.0000000000000000e+00 1.3027188367679477e+01 1.8442159282395735e+01 1.9979811619139923e+01 
94 1 2 1.0279816830765018e+00 -2.2719991924547901e+02 1.0000000000000000e+00 1.3027188367679495e+01 1.8442159282395718e+01 1.9979811619139952e+01 
128 1 2 1.0279601714279862e+00 -3.6615493948719217e+02 1.0000000000000000e+00 1.8329025246608420e+01 4.4704197948173077e+00 3.2604178283043912e+00 
43 1 2 1.0279601714279862e+00 -2.0619172869742397e+02 1.0000000000000000e+00 1.8329025246608420e+01 4.4704197948173077e+00 3.2604178283043912e+00 
49 1 2 1.0279601714279862e+00 -1.9377503377977425e+02 1.0000000000000000e+00 1.8329025246608420e+01 4.4704197948173077e+00 3.2604178283043912e+00 
116 1 2 1.0279601714279862e+00 -2.9013839717333980e+02 1.0000000000000000e+00 1.8329025246608420e+01 4.4704197948173077e+00 3.2604178283043912e+00 
85 1 2 1.0279601714279862e+00 -1.9863624589921426e+02 1.0000000000000000e+00 1.8329025246608420e+01 4.4704197948173077e+00 3.2604178283043912e+00 
50 1 2 1.0279601714279862e+00 -2.2652062590305803e+02 1.0000000000000000e+00 1.8329025246608420e+01 4.4704197948173077e+00 3.2604178283043912e+00 
79 1 2 1.0279601714279862e+00 -2.3020796463818755e+02 1.0000000000000000e+00 1.8329025246608420e+01 4.4704197948173077e+00 3.2604178283043912e+00 
151 1 2 1.0279601714279867e+00 -1.6027939508798033e+02 1.0000000000000000e+00 1.9608851468264731e+01 7.1755919791287477e+00 1.9494452441538279e+00 
61 1 2 1.0279601714279867e+00 -2.1690227293963000e+02 1.0000000000000000e+00 1.9608851468264731e+01 7.1755919791287477e+00 1.9494452441538279e+00 
76 1 2 1.0279601714279867e+00 -2.3755283677091478e+02 1.0000000000000000e+00 1.9608851468264710e+01 7.1755919791287681e+00 1.9494452441538479e+00 
67 1 2 1.0279601714279867e+00 -2.5297791228790589e+02 1.0000000000000000e+00 1.9608851468264717e+01 7.1755919791287628e+00 1.9494452441538461e+00 
104 1 2 1.0279601714279867e+00 -2.1483378819587602e+02 1.0000000000000000e+00 1.9608851468264731e+01 7.1755919791287477e+00 1.9494452441538279e+00 
115 1 2 1.0279601714279867e+00 -1.6083114628275570e+02 1.0000000000000000e+00 1.9608851468264724e+01 7.1755919791287583e+00 1.9494452441538412e+00 
175 1 2 1.0279601714279867e+00 -2.4853932434314078e+02 1.0000000000000000e+00 1.9608851468264699e+01 7.1755919791287699e+00 1.9494452441538426e+00 
143 1 2 1.0278775518367276e+00 -2.2759100995967478e+02 1.0000000000000000e+00 1.5941735203662851e+01 7.2857929933493493e+00 5.2037555960158910e+00 
178 1 2 1.0278775518367276e+00 -2.2638465707290916e+02 1.0000000000000000e+00 1.5941735203662851e+01 7.2857929933493493e+00 5.2037555960158910e+00 
95 1 2 1.0278775518367276e+00 -3.0552304351473430e+02 1.0000000000000000e+00 1.5941735203662851e+01 7.2857929933493466e+00 5.2037555960158919e+00 
55 1 2 1.0278775518367276e+00 -1.0786329226446126e+02 1.0000000000000000e+00 1.5941735203662851e+01 7.2857929933493466e+00 5.2037555960158919e+00 
179 1 2 1.0278775518367276e+00 -2.1791739943859810e+02 1.0000000000000000e+00 1.5941735203662851e+01 7.2857929933493493e+00 5.2037555960158910e+00 
108 1 2 1.0278775518367276e+00 -2.3252430478437762e+02 1.0000000000000000e+00 1.5941735203662851e+01 7.2857929933493466e+00 5.2037555960158919e+00 
173 1 2 1.0278775518367276e+00 -2.0369980374373236e+02 1.0000000000000000e+00 1.5941735203662851e+01 7.2857929933493493e+00 5.2037555960158910e+00 
112 1 2 1.0278775518367280e+00 -2.0230051052741445e+02 1.0000000000000000e+00 1.3767130747015349e+01 7.7087444768195441e+00 7.6070064341246137e+00 
148 1 2 1.0278775518367280e+00 -2.1213640043091104e+02 1.0000000000000000e+00 1.3767130747015349e+01 7.7087444768195441e+00 7.6070064341246137e+00 
153 1 2 1.0278775518367280e+00 -2.8030100646969657e+02 1.0000000000000000e+00 1.3767130747015349e+01 7.7087444768195441e+00 7.6070064341246137e+00 
147 1 2 1.0278775518367280e+00 -1.8309099792346220e+02 1.0000000000000000e+00 1.3767130747015349e+01 7.7087444768195441e+00 7.6070064341246137e+00 
109 1 2 1.0278775518367280e+00 -2.0804305653304627e+02 1.0000000000000000e+00 1.3767130747015349e+01 7.7087444768195441e+00 7.6070064341246137e+00 
154 1 2 1.0278775518367280e+00 -1.9824412277308554e+02 1.0000000000000000e+00 1.3767130747015338e+01 7.7087444768195477e+00 7.6070064341246049e+00 
38 1 2 1.0278775518367280e+00 -1.8015382600211794e+02 1.0000000000000000e+00 1.3767130747015338e+01 7.7087444768195477e+00 7.6070064341246049e+00 
25 1 2 1.0279931819413126e+00 -1.7522628085536388e+02 1.0000000000000000e+00 1.4709340917286106e+01 9.1312191797287952e+00 1.3237834294434272e+01 
110 1 2 1.0279931819413126e+00 -2.0700360064690238e+02 1.0000000000000000e+00 1.4709340917286108e+01 9.1312191797286957e+00 1.3237834294434286e+01 
31 1 2 1.0279931819413126e+00 -2.2364597508030221e+02 1.0000000000000000e+00 1.4709340917286118e+01 9.1312191797288040e+00 1.3237834294434208e+01 
47 1 2 1.0279931819413124e+00 -2.2066930930542830e+02 1.0000000000000000e+00 1.4709340917286113e+01 9.1312191797288893e+00 1.3237834294434215e+01 
56 1 2 1.0279931819413126e+00 -1.7962443929570054e+02 1.0000000000000000e+00 1.4709340917286116e+01 9.1312191797287845e+00 1.3237834294434222e+01 
170 1 2 1.0279931819413124e+00 -2.6328225562025136e+02 1.0000000000000000e+00 1.4709340917286115e+01 9.1312191797288911e+00 1.3237834294434208e+01 
103 1 2 1.0279931819413126e+00 -1.9520707360659873e+02 1.0000000000000000e+00 1.4709340917286106e+01 9.1312191797287952e+00 1.3237834294434272e+01 
164 1 2 1.0280067324212541e+00 -2.9832273624359755e+02 1.0000000000000000e+00 1.8148790814198065e+01 9.9605155887597085e+00 1.1338201761656199e+01 
80 1 2 1.0280067324212541e+00 -2.2558266063006775e+02 1.0000000000000000e+00 1.8148790814198065e+01 9.9605155887597085e+00 1.1338201761656199e+01 
45 1 2 1.0280067324212541e+00 -2.2964417192869561e+02 1.0000000000000000e+00 1.8148790814198065e+01 9.9605155887597085e+00 1.1338201761656199e+01 
81 1 2 1.0280067324212541e+00 -2.1939421958385148e+02 1.0000000000000000e+00 1.8148790814198065e+01 9.9605155887597085e+00 1.1338201761656199e+01 
44 1 2 1.0280067324212541e+00 -2.4249289048771541e+02 1.0000000000000000e+00 1.8148790814198065e+01 9.9605155887597085e+00 1.1338201761656199e+01 
122 1 2 1.0280067324212541e+00 -2.4741329821577770e+02 1.0000000000000000e+00 1.8148790814198065e+01 9.9605155887597085e+00 1.1338201761656199e+01 
121 1 2 1.0280067324212541e+00 -3.1042147984162057e+02 1.0000000000000000e+00 1.8148790814198065e+01 9.9605155887597085e+00 1.1338201761656199e+01 
113 1 2 1.0279955069724951e+00 -2.6739027037540308e+02 1.0000000000000000e+00 1.5777949468202054e+01 8.1009552482887576e-02 1.9075060097317767e+01 
180 1 2 1.0279955069724960e+00 -2.9429116494909090e+02 1.0000000000000000e+00 1.5777949468206346e+01 8.1009552478765345e-02 1.9075060097318090e+01 
150 1 2 1.0279955069724960e+00 -2.5541031785249731e+02 1.0000000000000000e+00 1.5777949468206346e+01 8.1009552478765345e-02 1.9075060097318090e+01 
144 1 2 1.0279955069724960e+00 -2.7807445083918134e+02 1.0000000000000000e+00 1.5777949468206346e+01 8.1009552478765345e-02 1.9075060097318090e+01 
114 1 2 1.0279955069724964e+00 -2.5813763463403626e+02 1.0000000000000000e+00 1.5777949468203083e+01 8.1009552481710601e-02 1.9075060097316783e+01 
149 1 2 1.0279955069724960e+00 -2.3816161007239958e+02 1.0000000000000000e+00 1.5777949468206346e+01 8.1009552478765345e-02 1.9075060097318090e+01 
119 1 2 1.0279955069724949e+00 -2.1150496254821144e+02 1.0000000000000000e+00 1.5777949468202060e+01 8.1009552482880887e-02 1.9075060097317760e+01 
29 1 2 1.0281838846708349e+00 -1.6484160916070894e+02 1.0000000000000000e+00 1.9620420202502739e+01 4.6085548808621291e-01 1.9396573605525653e+01 
106 1 2 1.0281838846708349e+00 -1.4920358433212076e+02 1.0000000000000000e+00 1.9620420202502739e+01 4.6085548808621291e-01 1.9396573605525653e+01 
54 1 2 1.0281838846708349e+00 -2.2522282467986258e+02 1.0000000000000000e+00 1.9620420202502739e+01 4.6085548808621291e-01 1.9396573605525653e+01 
71 1 2 1.0281838846708349e+00 -1.9843667293389717e+02 1.0000000000000000e+00 1.9620420202502739e+01 4.6085548808621291e-01 1.9396573605525653e+01 
24 1 2 1.0281838846708349e+00 -2.6935240324106155e+02 1.0000000000000000e+00 1.9620420202502739e+01 4.6085548808621291e-01 1.9396573605525653e+01 
28 1 2 1.0281838846708349e+00 -1.8731230057719185e+02 1.0000000000000000e+00 1.9620420202502739e+01 4.6085548808621291e-01 1.9396573605525653e+01 
134 1 2 1.0281838846708349e+00 -2.6166544172325263e+02 1.0000000000000000e+00 1.9620420202502732e+01 4.6085548808621812e-01 1.9396573605525660e+01 
86 1 2 1.0280151053350384e+00 -2.1352819640993172e+02 1.0000000000000000e+00 1.8787130068093052e+01 1.2985985565393928e+01 2.2068533632375198e+00 
123 1 2 1.0280151053350384e+00 -1.9344473274613239e+02 1.0000000000000000e+00 1.8787130068093052e+01 1.2985985565393928e+01 2.2068533632375198e+00 
51 1 2 1.0280151053350384e+00 -2.2611334565826695e+02 1.0000000000000000e+00 1.8787130068093052e+01 1.2985985565393928e+01 2.2068533632375198e+00 
92 1 2 1.0280151053350384e+00 -1.9528327485388277e+02 1.0000000000000000e+00 1.8787130068093052e+01 1.2985985565393928e+01 2.2068533632375198e+00 
57 1 2 1.0280151053350384e+00 -2.3235762442664276e+02 1.0000000000000000e+00 1.8787130068093052e+01 1.2985985565393928e+01 2.2068533632375198e+00 
93 1 2 1.0280151053350384e+00 -2.4658437771088319e+02 1.0000000000000000e+00 1.8787130068093052e+01 1.2985985565393928e+01 2.2068533632375198e+00 
87 1 2 1.0280151053350384e+00 -2.1943778054649641e+02 1.0000000000000000e+00 1.8787130068093052e+01 1.2985985565393928e+01 2.2068533632375198e+00 
160 1 2 1.0279884248896631e+00 -2.2217477523963228e+02 1.0000000000000000e+00 1.8595750237315588e+01 1.0331432540834987e+01 6.3701753015645153e+00 
88 1 2 1.0279884248896631e+00 -2.3651019721488436e+02 1.0000000000000000e+00 1.8595750237315588e+01 1.0331432540834987e+01 6.3701753015645153e+00 
166 1 2 1.0279884248896631e+00 -2.4251066857598593e+02 1.0000000000000000e+00 1.8595750237315588e+01 1.0331432540834987e+01 6.3701753015645153e+00 
171 1 2 1.0279884248896631e+00 -2.2045329422209844e+02 1.0000000000000000e+00 1.8595750237315588e+01 1.0331432540834987e+01 6.3701753015645153e+00 
129 1 2 1.0279884248896631e+00 -2.2058389885515260e+02 1.0000000000000000e+00 1.8595750237315190e+01 1.0331432540834882e+01 6.3701753015644851e+00 
172 1 2 1.0279884248896631e+00 -2.5169026718749424e+02 1.0000000000000000e+00 1.8595750237315588e+01 1.0331432540834987e+01 6.3701753015645153e+00 
165 1 2 1.0279884248896631e+00 -2.3812821604835617e+02 1.0000000000000000e+00 1.8595750237315588e+01 1.0331432540834987e+01 6.3701753015645153e+00 
74 1 2 1.0279884248896627e+00 -2.0061513264669927e+02 1.0000000000000000e+00 1.7722778891378763e+01 1.3389762110711668e+01 7.1158865332645105e+00 
142 1 2 1.0279884248896627e+00 -1.9183115084264514e+02 1.0000000000000000e+00 1.7722778891378763e+01 1.3389762110711668e+01 7.1158865332645105e+00 
13 1 2 1.0279884248896627e+00 -2.8376722492423028e+02 1.0000000000000000e+00 1.7722778891378763e+01 1.3389762110711668e+01 7.1158865332645105e+00 
7 1 2 1.0279884248896627e+00 -2.6087391349506123e+02 1.0000000000000000e+00 1.7722778891378756e+01 1.3389762110711667e+01 7.1158865332645096e+00 
158 1 2 1.0279884248896627e+00 -2.3656062033909612e+02 1.0000000000000000e+00 1.7722778891378756e+01 1.3389762110711667e+01 7.1158865332645096e+00 
19 1 2 1.0279884248896627e+00 -2.8475483209526874e+02 1.0000000000000000e+00 1.7722778891378756e+01 1.3389762110711667e+01 7.1158865332645096e+00 
18 1 2 1.0279884248896627e+00 -2.0506533347251408e+02 1.0000000000000000e+00 1.7722778891378756e+01 1.3389762110711667e+01 7.1158865332645096e+00 
15 1 2 1.0280067324212423e+00 -2.0445891066225320e+02 1.0000000000000000e+00 1.8753645221054750e+01 1.3139981724898533e+01 1.1779494308958236e+01 
14 1 2 1.0280067324212989e+00 -2.0662844050235228e+02 1.0000000000000000e+00 1.8753645232874707e+01 1.3139981723394586e+01 1.1779494303586270e+01 
168 1 2 1.0280067324212423e+00 -1.8641530168520669e+02 1.0000000000000000e+00 1.8753645221054750e+01 1.3139981724898533e+01 1.1779494308958236e+01 
138 1 2 1.0280067324212989e+00 -1.8375292851267486e+02 1.0000000000000000e+00 1.8753645232874707e+01 1.3139981723394586e+01 1.1779494303586270e+01 
137 1 2 1.0280067324212423e+00 -1.9096484444369810e+02 1.0000000000000000e+00 1.8753645221054750e+01 1.3139981724898533e+01 1.1779494308958236e+01 
145 1 2 1.0280067324212989e+00 -2.0205085690924997e+02 1.0000000000000000e+00 1.8753645232874707e+01 1.3139981723394586e+01 1.1779494303586270e+01 
174 1 2 1.0280067324211544e+00 -1.9339497453251317e+02 1.0000000000000000e+00 1.8753645211136305e+01 1.3139981726638750e+01 1.1779494310025438e+01 
64 1 2 1.0279977981387989e+00 -1.4045213545539690e+02 1.0000000000000000e+00 1.6889253928022534e+01 1.5836757660179925e+01 1.4765072538837002e+01 
177 1 2 1.0279977981387991e+00 -1.6757555916575114e+02 1.0000000000000000e+00 1.6889253928022537e+01 1.5836757660179922e+01 1.4765072538836995e+01 
176 1 2 1.0279977981387984e+00 -1.5103982209650667e+02 1.0000000000000000e+00 1.6889253928022530e+01 1.5836757660179929e+01 1.4765072538837002e+01 
111 1 2 1.0279814843736415e+00 -1.4974342332107852e+02 1.0000000000000000e+00 1.6922530985820597e+01 1.5897493806336051e+01 1.4675075689912353e+01 
96 1 2 1.0279814843736415e+00 -2.7125477074309339e+02 1.0000000000000000e+00 1.6922530985820604e+01 1.5897493806336051e+01 1.4675075689912349e+01 
132 1 2 1.0279814843736415e+00 -2.6131798471668981e+02 1.0000000000000000e+00 1.6922530985820597e+01 1.5897493806336051e+01 1.4675075689912353e+01 
75 1 2 1.0279814843736417e+00 -1.7012046155949588e+02 1.0000000000000000e+00 1.6922530985820607e+01 1.5897493806336048e+01 1.4675075689912347e+01 
77 1 2 1.0279953149834422e+00 -2.8212164337261015e+02 1.0000000000000000e+00 1.9985198280960940e+01 1.6480450081881649e+01 1.4633134868363712e+01 
118 1 2 1.0279953149834429e+00 -2.1318365341649161e+02 1.0000000000000000e+00 1.9985198280960937e+01 1.6480450081881667e+01 1.4633134868363692e+01 
82 1 2 1.0279953149834424e+00 -2.0752010067973018e+02 1.0000000000000000e+00 1.9985198280960947e+01 1.6480450081881607e+01 1.4633134868363729e+01 
27 1 2 1.0279957225880361e+00 -2.1786047933267318e+02 1.0000000000000000e+00 1.5300171192357263e+01 1.6138274499905318e+01 1.7651683648203292e+01 
20 1 2 1.0279957311536878e+00 -2.1253871409817518e+02 1.0000000000000000e+00 1.5298128826662435e+01 1.6138158799061838e+01 1.7652474206830316e+01 
26 1 2 1.0279957164778046e+00 -1.9688631749614936e+02 1.0000000000000000e+00 1.5301338285183476e+01 1.6138421507415678e+01 1.7650545603491040e+01 
89 1 2 1.0279989389105331e+00 -1.4795532239559569e+02 1.0000000000000000e+00 1.5431252916632380e+01 1.6837372449892516e+01 1.8225038388770294e+01 
152 1 2 1.0279989389105360e+00 -2.4747269458542829e+02 1.0000000000000000e+00 1.5431252916668369e+01 1.6837372449862155e+01 1.8225038388758918e+01 
21 1 2 1.0280057784220160e+00 -1.9446135249349604e+02 1.0000000000000000e+00 1.4988247675311573e+01 1.6970128112808897e+01 1.7371939996314321e+01 
90 1 2 1.0280057783788821e+00 -2.7386705412021263e+02 1.0000000000000000e+00 1.4989490506675510e+01 1.6969535427217096e+01 1.7370847328155367e+01 
141 1 2 1.0279989389105368e+00 -1.8243289730030145e+02 1.0000000000000000e+00 1.5431252916688058e+01 1.6837372449846143e+01 1.8225038388752512e+01 

Velocities

10 2.7488311348361377e-01 -2.2505043346379636e-01 -1.3777790220891936e-01
22 2.7488309753707141e-01 -2.2505039424146250e-01 -1.3777789172960928e-01
11 2.7488296656538369e-01 -2.2505127039515099e-01 -1.3777771294658572e-01
46 2.7488332184142206e-01 -2.2505125817993635e-01 -1.3777801481988705e-01
52 2.7488331790540466e-01 -2.2505122727463517e-01 -1.3777801388601979e-01
17 2.7488331780368214e-01 -2.2505122885227130e-01 -1.3777801367747483e-01
16 2.7488336375996497e-01 -2.2505290490004284e-01 -1.3777792172394362e-01
33 2.8366624644004490e-01 -2.2788482439308522e-01 -8.8221951703866486e-02
53 2.8366625242445076e-01 -2.2788481991261508e-01 -8.8221957111813132e-02
98 2.8366660729100868e-01 -2.2788455542959143e-01 -8.8222264908030298e-02
105 2.8366747218028476e-01 -2.2788439172441888e-01 -8.8221533311268738e-02
32 2.8366747218028482e-01 -2.2788439172441888e-01 -8.8221533311268710e-02
69 2.8366744196711030e-01 -2.2788442140253107e-01 -8.8221486482199407e-02
124 2.8366773976870946e-01 -2.2788410895644418e-01 -8.8221996541426484e-02
126 2.6710758128926210e-01 -2.3305054300985978e-01 -7.4059006471198216e-02
162 2.6710758128926210e-01 -2.3305054300985978e-01 -7.4059006471198230e-02
70 2.6710758128926210e-01 -2.3305054300985978e-01 -7.4059006471198230e-02
78 2.6710758128926210e-01 -2.3305054300985978e-01 -7.4059006471198230e-02
156 2.6710758128926249e-01 -2.3305054300985967e-01 -7.4059006471198202e-02
120 2.6710758128926210e-01 -2.3305054300985978e-01 -7.4059006471198230e-02
155 2.6710758128926249e-01 -2.3305054300985967e-01 -7.4059006471198202e-02
131 2.8051861722551968e-01 -2.2655025203409362e-01 -8.7207435437862205e-02
30 2.8051861722551646e-01 -2.2655025203408274e-01 -8.7207435437871558e-02
130 2.8051861722552013e-01 -2.2655025203409079e-01 -8.7207435437863981e-02
65 2.8060508693005587e-01 -2.2668408431945958e-01 -8.7284502479607395e-02
84 2.8092563705324092e-01 -2.2666987907238068e-01 -8.7128061609687737e-02
102 2.8092549162576930e-01 -2.2667004836774540e-01 -8.7127721737764105e-02
125 2.8092546765527471e-01 -2.2667008432922059e-01 -8.7127655937661252e-02
91 2.8083183203496020e-01 -2.2667797933497261e-01 -8.7123144243880790e-02
36 2.6156654885251590e-01 -2.8346673658941696e-01 -4.2151451951628692e-02
5 2.6156654885251590e-01 -2.8346673658941696e-01 -4.2151451951628692e-02
83 2.6156654885251596e-01 -2.8346673658941701e-01 -4.2151451951628852e-02
48 2.6156654885251590e-01 -2.8346673658941696e-01 -4.2151451951628692e-02
37 2.6156654885251607e-01 -2.8346673658941696e-01 -4.2151451951628789e-02
100 2.6156654885251596e-01 -2.8346673658941701e-01 -4.2151451951628852e-02
127 2.6156654885251596e-01 -2.8346673658941701e-01 -4.2151451951628852e-02
39 2.6037125639086284e-01 -2.8279499528225155e-01 -4.3624161927764478e-02
3 2.6037125639086306e-01 -2.8279499528225177e-01 -4.3624161927764284e-02
146 2.6037125639086284e-01 -2.8279499528225155e-01 -4.3624161927764478e-02
9 2.6037125639086284e-01 -2.8279499528225155e-01 -4.3624161927764478e-02
8 2.6037125639086306e-01 -2.8279499528225177e-01 -4.3624161927764284e-02
2 2.6037125639086306e-01 -2.8279499528225177e-01 -4.3624161927764284e-02