LAMMPS data file via write_data, version 30 Jul 2016, timestep = 1000000

2080 atoms
8 atom types

0.0000000000000000e+00 4.0000000000000000e+01 xlo xhi
0.0000000000000000e+00 4.0000000000000000e+01 ylo yhi
0.0000000000000000e+00 1.0000000000000000e+02 zlo zhi

Masses

1 3.896
2 4.306
3 20.064
4 8.378
5 8.378
6 8.378
7 8.378
8 8.378

Atoms # meso-molecular

1 2 4 2.2559723595316457e+00 1.3810686107398968e+00 1.0000000000000000e+00 0.0000000000000000e+00 0.0000000000000000e+00 2.5000000000000000e+00 
21 2 4 2.2559723595316457e+00 -4.2712705874720161e-02 1.0000000000000000e+00 2.0000000000000000e+00 0.0000000000000000e+00 2.5000000000000000e+00 
41 2 4 2.2559723595316457e+00 -1.4285654147573007e-01 1.0000000000000000e+00 4.0000000000000000e+00 0.0000000000000000e+00 2.5000000000000000e+00 
61 2 4 2.2559723595316457e+00 -1.6123007370547704e+00 1.0000000000000000e+00 6.0000000000000000e+00 0.0000000000000000e+00 2.5000000000000000e+00 
81 2 4 2.2559723595316457e+00 0.0000000000000000e+00 1.0000000000000000e+00 8.0000000000000000e+00 0.0000000000000000e+00 2.5000000000000000e+00 
101 2 4 2.2559723595316457e+00 -1.2055485474968672e-06 1.0000000000000000e+00 1.0000000000000000e+01 0.0000000000000000e+00 2.5000000000000000e+00 
121 2 4 2.2559723595316457e+00 0.0000000000000000e+00 1.0000000000000000e+00 1.2000000000000000e+01 0.0000000000000000e+00 2.5000000000000000e+00 
141 2 4 2.2559723595316457e+00 0.0000000000000000e+00 1.0000000000000000e+00 1.4000000000000000e+01 0.0000000000000000e+00 2.5000000000000000e+00 
161 2 4 2.2559723595316457e+00 -1.0488340792456450e-02 1.0000000000000000e+00 1.6000000000000000e+01 0.0000000000000000e+00 2.5000000000000000e+00 
181 2 4 2.2559723595316457e+00 -3.3918679412845587e+00 1.0000000000000000e+00 1.8000000000000000e+01 0.0000000000000000e+00 2.5000000000000000e+00 
2 2 4 2.2559723595316457e+00 1.9656761194367506e-01 1.0000000000000000e+00 0.0000000000000000e+00 2.0000000000000000e+00 2.5000000000000000e+00 
22 2 4 2.2559723595316457e+00 2.5148518866152016e-03 1.0000000000000000e+00 2.0000000000000000e+00 2.0000000000000000e+00 2.5000000000000000e+00 
42 2 4 2.2559723595316457e+00 0.0000000000000000e+00 1.0000000000000000e+00 4.0000000000000000e+00 2.0000000000000000e+00 2.5000000000000000e+00 
62 2 4 2.2559723595316457e+00 1.7875970655572244e-02 1.0000000000000000e+00 6.0000000000000000e+00 2.0000000000000000e+00 2.5000000000000000e+00 
82 2 4 2.2559723595316457e+00 1.6903145436438576e-08 1.0000000000000000e+00 8.0000000000000000e+00 2.0000000000000000e+00 2.5000000000000000e+00 
102 2 4 2.2559723595316457e+00 1.8033937068848497e-08 1.0000000000000000e+00 1.0000000000000000e+01 2.0000000000000000e+00 2.5000000000000000e+00 
122 2 4 2.2559723595316457e+00 2.6327640410199941e-08 1.0000000000000000e+00 1.2000000000000000e+01 2.0000000000000000e+00 2.5000000000000000e+00 
142 2 4 2.2559723595316457e+00 -1.0191871763422786e-06 1.0000000000000000e+00 1.4000000000000000e+01 2.0000000000000000e+00 2.5000000000000000e+00 
162 2 4 2.2559723595316457e+00 0.0000000000000000e+00 1.0000000000000000e+00 1.6000000000000000e+01 2.0000000000000000e+00 2.5000000000000000e+00 
182 2 4 2.2559723595316457e+00 -2.9705761014415708e-04 1.0000000000000000e+00 1.8000000000000000e+01 2.0000000000000000e+00 2.5000000000000000e+00 
3 2 4 2.2559723595316457e+00 -1.4711162930533319e-02 1.0000000000000000e+00 0.0000000000000000e+00 4.0000000000000000e+00 2.5000000000000000e+00 
23 2 4 2.2559723595316457e+00 -5.4399925292554854e-06 1.0000000000000000e+00 2.0000000000000000e+00 4.0000000000000000e+00 2.5000000000000000e+00 
43 2 4 2.2559723595316457e+00 0.0000000000000000e+00 1.0000000000000000e+00 4.0000000000000000e+00 4.0000000000000000e+00 2.5000000000000000e+00 
63 2 4 2.2559723595316457e+00 0.0000000000000000e+00 1.0000000000000000e+00 6.0000000000000000e+00 4.0000000000000000e+00 2.5000000000000000e+00 
83 2 4 2.2559723595316457e+00 0.0000000000000000e+00 1.0000000000000000e+00 8.0000000000000000e+00 4.0000000000000000e+00 2.5000000000000000e+00 
103 2 4 2.2559723595316457e+00 0.0000000000000000e+00 1.0000000000000000e+00 1.0000000000000000e+01 4.0000000000000000e+00 2.5000000000000000e+00 
123 2 4 2.2559723595316457e+00 1.7163943395891444e-09 1.0000000000000000e+00 1.2000000000000000e+01 4.0000000000000000e+00 2.5000000000000000e+00 
143 2 4 2.2559723595316457e+00 -2.9052878493907426e-04 1.0000000000000000e+00 1.4000000000000000e+01 4.0000000000000000e+00 2.5000000000000000e+00 
163 2 4 2.2559723595316457e+00 0.0000000000000000e+00 1.0000000000000000e+00 1.6000000000000000e+01 4.0000000000000000e+00 2.5000000000000000e+00 
183 2 4 2.2559723595316457e+00 2.7601282888488630e+00 1.0000000000000000e+00 1.8000000000000000e+01 4.0000000000000000e+00 2.5000000000000000e+00 
4 2 4 2.2559723595316457e+00 -3.5424057231833450e-03 1.0000000000000000e+00 0.0000000000000000e+00 6.0000000000000000e+00 2.5000000000000000e+00 
24 2 4 2.2559723595316457e+00 -4.4764036150850956e-04 1.0000000000000000e+00 2.0000000000000000e+00 6.0000000000000000e+00 2.5000000000000000e+00 
44 2 4 2.2559723595316457e+00 0.0000000000000000e+00 1.0000000000000000e+00 4.0000000000000000e+00 6.0000000000000000e+00 2.5000000000000000e+00 
64 2 4 2.2559723595316457e+00 0.0000000000000000e+00 1.0000000000000000e+00 6.0000000000000000e+00 6.0000000000000000e+00 2.5000000000000000e+00 
84 2 4 2.2559723595316457e+00 0.0000000000000000e+00 1.0000000000000000e+00 8.0000000000000000e+00 6.0000000000000000e+00 2.5000000000000000e+00 
104 2 4 2.2559723595316457e+00 0.0000000000000000e+00 1.0000000000000000e+00 1.0000000000000000e+01 6.0000000000000000e+00 2.5000000000000000e+00 
124 2 4 2.2559723595316457e+00 2.2355825191489664e-01 1.0000000000000000e+00 1.2000000000000000e+01 6.0000000000000000e+00 2.5000000000000000e+00 
144 2 4 2.2559723595316457e+00 7.5479221440536304e-03 1.0000000000000000e+00 1.4000000000000000e+01 6.0000000000000000e+00 2.5000000000000000e+00 
164 2 4 2.2559723595316457e+00 -5.6834313331579258e-03 1.0000000000000000e+00 1.6000000000000000e+01 6.0000000000000000e+00 2.5000000000000000e+00 
184 2 4 2.2559723595316457e+00 1.7325097909916958e+00 1.0000000000000000e+00 1.8000000000000000e+01 6.0000000000000000e+00 2.5000000000000000e+00 
5 2 4 2.2559723595316457e+00 2.1586758642007775e-07 1.0000000000000000e+00 0.0000000000000000e+00 8.0000000000000000e+00 2.5000000000000000e+00 
25 2 4 2.2559723595316457e+00 -5.3252746948296438e-02 1.0000000000000000e+00 2.0000000000000000e+00 8.0000000000000000e+00 2.5000000000000000e+00 
45 2 4 2.2559723595316457e+00 -8.2026174975860355e-03 1.0000000000000000e+00 4.0000000000000000e+00 8.0000000000000000e+00 2.5000000000000000e+00 
65 2 4 2.2559723595316457e+00 0.0000000000000000e+00 1.0000000000000000e+00 6.0000000000000000e+00 8.0000000000000000e+00 2.5000000000000000e+00 
85 2 4 2.2559723595316457e+00 5.2192795290551715e-03 1.0000000000000000e+00 8.0000000000000000e+00 8.0000000000000000e+00 2.5000000000000000e+00 
105 2 4 2.2559723595316457e+00 -8.0228432395900839e-01 1.0000000000000000e+00 1.0000000000000000e+01 8.0000000000000000e+00 2.5000000000000000e+00 
125 2 4 2.2559723595316457e+00 3.8184466945519219e-02 1.0000000000000000e+00 1.2000000000000000e+01 8.0000000000000000e+00 2.5000000000000000e+00 
145 2 4 2.2559723595316457e+00 -7.0250794470349005e-03 1.0000000000000000e+00 1.4000000000000000e+01 8.0000000000000000e+00 2.5000000000000000e+00 
165 2 4 2.2559723595316457e+00 -2.2252709901378441e-07 1.0000000000000000e+00 1.6000000000000000e+01 8.0000000000000000e+00 2.5000000000000000e+00 
185 2 4 2.2559723595316457e+00 6.5277900114403611e+00 1.0000000000000000e+00 1.8000000000000000e+01 8.0000000000000000e+00 2.5000000000000000e+00 
6 2 4 2.2559723595316457e+00 0.0000000000000000e+00 1.0000000000000000e+00 0.0000000000000000e+00 1.0000000000000000e+01 2.5000000000000000e+00 
26 2 4 2.2559723595316457e+00 0.0000000000000000e+00 1.0000000000000000e+00 2.0000000000000000e+00 1.0000000000000000e+01 2.5000000000000000e+00 
46 2 4 2.2559723595316457e+00 4.8237102283365228e-04 1.0000000000000000e+00 4.0000000000000000e+00 1.0000000000000000e+01 2.5000000000000000e+00 
66 2 4 2.2559723595316457e+00 0.0000000000000000e+00 1.0000000000000000e+00 6.0000000000000000e+00 1.0000000000000000e+01 2.5000000000000000e+00 
86 2 4 2.2559723595316457e+00 0.0000000000000000e+00 1.0000000000000000e+00 8.0000000000000000e+00 1.0000000000000000e+01 2.5000000000000000e+00 
106 2 4 2.2559723595316457e+00 0.0000000000000000e+00 1.0000000000000000e+00 1.0000000000000000e+01 1.0000000000000000e+01 2.5000000000000000e+00 
126 2 4 2.2559723595316457e+00 0.0000000000000000e+00 1.0000000000000000e+00 1.2000000000000000e+01 1.0000000000000000e+01 2.5000000000000000e+00 
146 2 4 2.2559723595316457e+00 0.0000000000000000e+00 1.0000000000000000e+00 1.4000000000000000e+01 1.0000000000000000e+01 2.5000000000000000e+00 
166 2 4 2.2559723595316457e+00 0.0000000000000000e+00 1.0000000000000000e+00 1.6000000000000000e+01 1.0000000000000000e+01 2.5000000000000000e+00 
186 2 4 2.2559723595316457e+00 3.0180352234767911e+00 1.0000000000000000e+00 1.8000000000000000e+01 1.0000000000000000e+01 2.5000000000000000e+00 
7 2 4 2.2559723595316457e+00 -1.1004457505275108e-03 1.0000000000000000e+00 0.0000000000000000e+00 1.2000000000000000e+01 2.5000000000000000e+00 
27 2 4 2.2559723595316457e+00 8.2565347744800732e-03 1.0000000000000000e+00 2.0000000000000000e+00 1.2000000000000000e+01 2.5000000000000000e+00 
47 2 4 2.2559723595316457e+00 0.0000000000000000e+00 1.0000000000000000e+00 4.0000000000000000e+00 1.2000000000000000e+01 2.5000000000000000e+00 
67 2 4 2.2559723595316457e+00 0.0000000000000000e+00 1.0000000000000000e+00 6.0000000000000000e+00 1.2000000000000000e+01 2.5000000000000000e+00 
87 2 4 2.2559723595316457e+00 0.0000000000000000e+00 1.0000000000000000e+00 8.0000000000000000e+00 1.2000000000000000e+01 2.5000000000000000e+00 
107 2 4 2.2559723595316457e+00 0.0000000000000000e+00 1.0000000000000000e+00 1.0000000000000000e+01 1.2000000000000000e+01 2.5000000000000000e+00 
127 2 4 2.2559723595316457e+00 0.0000000000000000e+00 1.0000000000000000e+00 1.2000000000000000e+01 1.2000000000000000e+01 2.5000000000000000e+00 
147 2 4 2.2559723595316457e+00 0.0000000000000000e+00 1.0000000000000000e+00 1.4000000000000000e+01 1.2000000000000000e+01 2.5000000000000000e+00 
167 2 4 2.2559723595316457e+00 0.0000000000000000e+00 1.0000000000000000e+00 1.6000000000000000e+01 1.2000000000000000e+01 2.5000000000000000e+00 
187 2 4 2.2559723595316457e+00 1.7528962757740081e+00 1.0000000000000000e+00 1.8000000000000000e+01 1.2000000000000000e+01 2.5000000000000000e+00 
8 2 4 2.2559723595316457e+00 -1.2354156031382432e-03 1.0000000000000000e+00 0.0000000000000000e+00 1.4000000000000000e+01 2.5000000000000000e+00 
28 2 4 2.2559723595316457e+00 0.0000000000000000e+00 1.0000000000000000e+00 2.0000000000000000e+00 1.4000000000000000e+01 2.5000000000000000e+00 
48 2 4 2.2559723595316457e+00 0.0000000000000000e+00 1.0000000000000000e+00 4.0000000000000000e+00 1.4000000000000000e+01 2.5000000000000000e+00 
68 2 4 2.2559723595316457e+00 0.0000000000000000e+00 1.0000000000000000e+00 6.0000000000000000e+00 1.4000000000000000e+01 2.5000000000000000e+00 
88 2 4 2.2559723595316457e+00 0.0000000000000000e+00 1.0000000000000000e+00 8.0000000000000000e+00 1.4000000000000000e+01 2.5000000000000000e+00 
108 2 4 2.2559723595316457e+00 0.0000000000000000e+00 1.0000000000000000e+00 1.0000000000000000e+01 1.4000000000000000e+01 2.5000000000000000e+00 
128 2 4 2.2559723595316457e+00 -2.8188879664241506e-05 1.0000000000000000e+00 1.2000000000000000e+01 1.4000000000000000e+01 2.5000000000000000e+00 
148 2 4 2.2559723595316457e+00 3.7255028193774345e-08 1.0000000000000000e+00 1.4000000000000000e+01 1.4000000000000000e+01 2.5000000000000000e+00 
168 2 4 2.2559723595316457e+00 1.6241855081924730e-02 1.0000000000000000e+00 1.6000000000000000e+01 1.4000000000000000e+01 2.5000000000000000e+00 
188 2 4 2.2559723595316457e+00 -1.4635307736023968e+00 1.0000000000000000e+00 1.8000000000000000e+01 1.4000000000000000e+01 2.5000000000000000e+00 
9 2 4 2.2559723595316457e+00 -7.3397002013371668e-03 1.0000000000000000e+00 0.0000000000000000e+00 1.6000000000000000e+01 2.5000000000000000e+00 
29 2 4 2.2559723595316457e+00 0.0000000000000000e+00 1.0000000000000000e+00 2.0000000000000000e+00 1.6000000000000000e+01 2.5000000000000000e+00 
49 2 4 2.2559723595316457e+00 0.0000000000000000e+00 1.0000000000000000e+00 4.0000000000000000e+00 1.6000000000000000e+01 2.5000000000000000e+00 
69 2 4 2.2559723595316457e+00 0.0000000000000000e+00 1.0000000000000000e+00 6.0000000000000000e+00 1.6000000000000000e+01 2.5000000000000000e+00 
89 2 4 2.2559723595316457e+00 0.0000000000000000e+00 1.0000000000000000e+00 8.0000000000000000e+00 1.6000000000000000e+01 2.5000000000000000e+00 
109 2 4 2.2559723595316457e+00 0.0000000000000000e+00 1.0000000000000000e+00 1.0000000000000000e+01 1.6000000000000000e+01 2.5000000000000000e+00 
129 2 4 2.2559723595316457e+00 0.0000000000000000e+00 1.0000000000000000e+00 1.2000000000000000e+01 1.6000000000000000e+01 2.5000000000000000e+00 
149 2 4 2.2559723595316457e+00 0.0000000000000000e+00 1.0000000000000000e+00 1.4000000000000000e+01 1.6000000000000000e+01 2.5000000000000000e+00 
169 2 4 2.2559723595316457e+00 0.0000000000000000e+00 1.0000000000000000e+00 1.6000000000000000e+01 1.6000000000000000e+01 2.5000000000000000e+00 
189 2 4 2.2559723595316457e+00 1.9944346499161725e+00 1.0000000000000000e+00 1.8000000000000000e+01 1.6000000000000000e+01 2.5000000000000000e+00 
10 2 4 2.2559723595316457e+00 0.0000000000000000e+00 1.0000000000000000e+00 0.0000000000000000e+00 1.8000000000000000e+01 2.5000000000000000e+00 
30 2 4 2.2559723595316457e+00 0.0000000000000000e+00 1.0000000000000000e+00 2.0000000000000000e+00 1.8000000000000000e+01 2.5000000000000000e+00 
50 2 4 2.2559723595316457e+00 0.0000000000000000e+00 1.0000000000000000e+00 4.0000000000000000e+00 1.8000000000000000e+01 2.5000000000000000e+00 
70 2 4 2.2559723595316457e+00 2.9942098903018001e-02 1.0000000000000000e+00 6.0000000000000000e+00 1.8000000000000000e+01 2.5000000000000000e+00 
90 2 4 2.2559723595316457e+00 -4.4155266884897726e-01 1.0000000000000000e+00 8.0000000000000000e+00 1.8000000000000000e+01 2.5000000000000000e+00 
110 2 4 2.2559723595316457e+00 3.1288940593610891e-03 1.0000000000000000e+00 1.0000000000000000e+01 1.8000000000000000e+01 2.5000000000000000e+00 
130 2 4 2.2559723595316457e+00 0.0000000000000000e+00 1.0000000000000000e+00 1.2000000000000000e+01 1.8000000000000000e+01 2.5000000000000000e+00 
150 2 4 2.2559723595316457e+00 -3.0620191419058929e-01 1.0000000000000000e+00 1.4000000000000000e+01 1.8000000000000000e+01 2.5000000000000000e+00 
170 2 4 2.2559723595316457e+00 -8.0724661907120021e-07 1.0000000000000000e+00 1.6000000000000000e+01 1.8000000000000000e+01 2.5000000000000000e+00 
190 2 4 2.2559723595316457e+00 3.8817334836077704e+00 1.0000000000000000e+00 1.8000000000000000e+01 1.8000000000000000e+01 2.5000000000000000e+00 
1818 1420 2 1.0279976000277888e+00 4.9622280862247004e+02 1.0000000000000000e+00 1.9198653937770519e+01 8.9921058443604913e+00 5.4755770684632514e+00 
642 244 2 1.0279946607198645e+00 4.9761940112531261e+02 1.0000000000000000e+00 1.8950208933718191e+01 9.5794308335794724e+00 5.5032409007488381e+00 
1083 685 2 1.0280197644867073e+00 -4.2106940873138828e+03 1.0000000000000000e+00 1.8952336443630358e+01 1.0918185077727232e+01 5.8500659413164611e+00 
646 248 2 1.0280002030128190e+00 8.0965078759161474e+02 1.0000000000000000e+00 1.5934858532790308e+01 1.3385435783323805e+01 5.8273898284026542e+00 
1591 1193 2 1.0279999302640683e+00 -7.7680836034733443e+02 1.0000000000000000e+00 1.7900844306635580e+01 1.2743562088386209e+01 5.5480356863160223e+00 
1251 853 2 1.0279993063288151e+00 -4.2104575796644467e+03 1.0000000000000000e+00 1.8440218245920171e+01 1.3187559123480307e+01 5.7116742411912442e+00 
1575 1177 2 1.0280000447868034e+00 -3.5978266379624142e+03 1.0000000000000000e+00 6.3395168421264281e-01 2.1647043416328176e+00 6.3704519777813111e+00 
1405 1007 2 1.0280000454835141e+00 -8.6445325607603678e+01 1.0000000000000000e+00 4.0869410953814772e-01 2.2372047187601742e+00 5.9692529084071753e+00 
1867 1469 2 1.0280014669612536e+00 6.3129734919891848e+02 1.0000000000000000e+00 1.9575645288382205e+01 8.3939607326949233e+00 6.0068865495410719e+00 
751 353 2 1.0279823050600807e+00 -7.7744714305186392e+02 1.0000000000000000e+00 1.8875269896800496e+01 1.1085821456582941e+01 5.8867670945202759e+00 
1394 996 2 1.0280013229154388e+00 -1.5367131027098178e+03 1.0000000000000000e+00 1.8386589204328818e+01 1.1896214810125464e+01 7.3470381469869706e+00 
647 249 2 1.0280001795793339e+00 8.1839277923003283e+02 1.0000000000000000e+00 1.5913807822008032e+01 1.3330771127886816e+01 5.8844312358502950e+00 
1866 1468 2 1.0280012825217555e+00 6.4397898250102412e+02 1.0000000000000000e+00 1.7491616597493724e+01 1.2084499206629394e+01 6.7403117043640073e+00 
1030 632 2 1.0279996734726342e+00 -3.5392233774133315e+03 1.0000000000000000e+00 1.6683932896465897e+01 1.3499611070233067e+01 6.8813447548947915e+00 
1395 997 2 1.0279991964142554e+00 -1.5308309223376509e+03 1.0000000000000000e+00 1.8751949638231711e+01 1.2573097625503912e+01 7.5506913468324770e+00 
1031 633 2 1.0280014190160367e+00 -3.5503895792648386e+03 1.0000000000000000e+00 1.9721308113739450e+01 1.3287725791229615e+01 6.8865205040134905e+00 
1701 1303 2 1.0280007293039224e+00 5.1791519638391833e+01 1.0000000000000000e+00 1.9544522947357279e+01 1.3492931657534230e+01 6.7588150797942932e+00 
1704 1306 2 1.0279997679902413e+00 5.6987575491167028e+01 1.0000000000000000e+00 1.6999540105688769e+01 1.4041759308398156e+01 6.1582375754458099e+00 
586 188 2 1.0280000148984476e+00 6.7655182855000533e+02 1.0000000000000000e+00 5.4871838754823434e+00 1.5103354816255484e+01 1.1182387522027931e+01 
542 144 2 1.0280000057805212e+00 -1.7300477583150721e+03 1.0000000000000000e+00 2.9262948682521182e+00 7.7266034594223978e+00 1.2748372532321813e+01 
2016 1618 2 1.0280000025564997e+00 9.2227244399129972e+02 1.0000000000000000e+00 4.0371779036093871e+00 7.7097518194358923e+00 1.2333793462166568e+01 
498 100 2 1.0280000029265850e+00 -1.1640480508084206e+03 1.0000000000000000e+00 4.0542446957282898e+00 7.6857535721742662e+00 1.2360762837444803e+01 
1641 1243 2 1.0279999776008308e+00 2.5353285610564967e+02 1.0000000000000000e+00 3.9473533543578689e+00 8.3808364565458682e+00 1.3425770703385490e+01 
1135 737 2 1.0279999788941883e+00 1.5806681949975821e+03 1.0000000000000000e+00 2.4043470723349878e+00 8.7562036845898419e+00 1.3646520077414662e+01 
1313 915 2 1.0280000312923774e+00 -2.1965399419973219e+03 1.0000000000000000e+00 3.7651821854337553e+00 1.0583328756141929e+01 1.3562933335530987e+01 
1306 908 2 1.0280000027857057e+00 3.6694969857167575e+03 1.0000000000000000e+00 3.7672195558224346e+00 1.0536355900424295e+01 1.3676336552543034e+01 
1155 757 2 1.0280000185303089e+00 2.2108816612321616e+03 1.0000000000000000e+00 4.6739379362243323e+00 1.0656442838939469e+01 1.2142882264701688e+01 
1640 1242 2 1.0280000203295314e+00 6.6350566874751757e+02 1.0000000000000000e+00 4.7217005016960263e+00 1.0596708296433071e+01 1.2224663775641041e+01 
1980 1582 2 1.0280000085355803e+00 9.0549055412651148e+02 1.0000000000000000e+00 5.7291992969839916e+00 1.3363603253361404e+01 1.2143520743696518e+01 
544 146 2 1.0279999638389163e+00 -5.1037814539113270e+02 1.0000000000000000e+00 5.1042337779518618e+00 1.2112912828443914e+01 1.2285004215452476e+01 
718 320 2 1.0279999635558719e+00 6.9087693275189838e+02 1.0000000000000000e+00 5.1056430127924743e+00 1.2112926700877114e+01 1.2283230486287819e+01 
433 35 2 1.0279999923730350e+00 -1.3245809643963989e+03 1.0000000000000000e+00 4.8441749630952566e+00 1.5094473593044027e+01 1.1930323142402495e+01 
428 30 2 1.0279999928411876e+00 -5.5762962822414841e+02 1.0000000000000000e+00 4.8592289931933923e+00 1.5145904200858251e+01 1.1900271406815037e+01 
533 135 2 1.0279999966104849e+00 -1.2504916221781559e+03 1.0000000000000000e+00 6.5271704313592984e+00 1.4082076090227210e+01 1.1896796246417837e+01 
1066 668 2 1.0279999963559707e+00 1.3661301831950871e+03 1.0000000000000000e+00 6.5601945743431660e+00 1.4401699197409005e+01 1.1793598539226734e+01 
1237 839 2 1.0279935900179662e+00 -6.4085164515274712e+01 1.0000000000000000e+00 7.4924907238531269e+00 1.9198185834157172e+01 1.3530763587659495e+01 
811 413 2 1.0280000211578688e+00 -4.9436859803527472e+02 1.0000000000000000e+00 2.6819422321729034e+00 8.4149839724754916e+00 1.4166332970787318e+01 
786 388 2 1.0279999941509099e+00 -1.7120805108046147e+03 1.0000000000000000e+00 2.5639827035253999e+00 9.8806731593752826e+00 1.4771096155088323e+01 
1626 1228 2 1.0279999906158575e+00 -1.7170418044264957e+03 1.0000000000000000e+00 2.7134742093486386e+00 1.0129394278290080e+01 1.4646825084650672e+01 
421 23 2 1.0280108260858352e+00 -2.6790365972228977e+02 1.0000000000000000e+00 7.4363993259868844e+00 1.8883312773044423e+01 1.3871932143890279e+01 
545 147 2 1.0280035336249649e+00 -1.9008350291493610e+02 1.0000000000000000e+00 7.7249899973287759e+00 1.9002222172704958e+01 1.3901652240734002e+01 
1645 1247 2 1.0279999926965397e+00 -1.0755605411124463e+03 1.0000000000000000e+00 1.9750386336299341e+00 8.4790497529323652e+00 1.7255517987369441e+01 
1123 725 2 1.0280000265973792e+00 1.0086064497112486e+02 1.0000000000000000e+00 2.1780423581501656e+00 8.5209000290614423e+00 1.6166537122131039e+01 
1808 1410 2 1.0280000028689316e+00 3.8617208984591248e+03 1.0000000000000000e+00 2.7147603221910304e+00 8.9728803117433742e+00 1.6718834012503983e+01 
957 559 2 1.0279999907083377e+00 1.3209067218935266e+02 1.0000000000000000e+00 2.4883720849915054e+00 8.1239253678053753e+00 1.7196617211260172e+01 
1594 1196 2 1.0279999502813757e+00 -1.1296728621505758e+03 1.0000000000000000e+00 1.0515809005962987e+01 1.4976593684961422e+01 1.6644794513927980e+01 
1277 879 2 1.0280002176280325e+00 -2.5142142483995276e+03 1.0000000000000000e+00 1.0630384110700774e+01 1.4963749668978515e+01 1.6965262191437990e+01 
1452 1054 2 1.0280000690651045e+00 -7.7736997268180005e+02 1.0000000000000000e+00 1.0586649562839897e+01 1.5179408836072652e+01 1.7107117639617510e+01 
825 427 2 1.0280001299089661e+00 -8.9403127436592285e+02 1.0000000000000000e+00 8.9430655919994546e+00 1.6392481890582712e+01 1.6125819851971560e+01 
1334 936 2 1.0279995854682313e+00 1.2722830008627741e+03 1.0000000000000000e+00 9.1963818839868239e+00 1.6669663223889128e+01 1.6307203923376463e+01 
832 434 2 1.0279996036352568e+00 -1.0837101526079878e+03 1.0000000000000000e+00 8.7123729987097622e+00 1.6159712883058692e+01 1.6441252589271645e+01 
427 29 2 1.0280028288484033e+00 -1.7826552638631210e+03 1.0000000000000000e+00 7.8113741148537095e+00 1.9107942698631824e+01 1.6396853365900398e+01 
453 55 2 1.0279945489875175e+00 8.0229061210452733e+02 1.0000000000000000e+00 7.7812570151338152e+00 1.9271522757458673e+01 1.6418892963952850e+01 
588 190 2 1.0280010824710346e+00 9.2779098557537168e+01 1.0000000000000000e+00 7.8716613911958975e+00 1.8714316876627269e+01 1.7635246828321502e+01 
1479 1081 2 1.0279998756616873e+00 -7.2693085858469931e+02 1.0000000000000000e+00 7.8905928256322335e+00 1.6397497294311471e+01 1.8409310355399153e+01 
1662 1264 2 1.0280001798750116e+00 -1.3331666159009840e+03 1.0000000000000000e+00 7.8706411512956631e+00 1.6411803475406167e+01 1.8579552611409337e+01 
1993 1595 2 1.0280000018512718e+00 7.0428085444492342e+02 1.0000000000000000e+00 9.3162481820510106e+00 1.6975219887213484e+01 1.8287930458271475e+01 
651 253 2 1.0279998638980199e+00 8.9139311407633693e+02 1.0000000000000000e+00 9.2054053106254301e+00 1.7469546196882117e+01 1.8364975138566908e+01 
1657 1259 2 1.0279997581750047e+00 -8.2773122560229160e+02 1.0000000000000000e+00 8.2855479523726387e+00 1.7166991038726088e+01 1.9503037436197523e+01 
471 73 2 1.0279915764189345e+00 -1.1169703213100779e+03 1.0000000000000000e+00 7.9173950057201594e+00 1.8542859567552650e+01 1.7684840722891302e+01 
1139 741 2 1.0279992442588022e+00 3.6816032655249310e+03 1.0000000000000000e+00 8.4953656320800537e+00 1.6491632981816664e+01 2.1290657244381226e+01 
1290 892 2 1.0279992596028709e+00 8.9963382306597381e+01 1.0000000000000000e+00 8.4855448555009527e+00 1.6493305880309492e+01 2.1298519359702219e+01 
1128 730 2 1.0280005584909853e+00 -1.7240279353397930e+03 1.0000000000000000e+00 9.0729097317833034e+00 1.7837923070969929e+01 2.0670845901516437e+01 
1488 1090 2 1.0280002093599023e+00 4.7659017307146411e+02 1.0000000000000000e+00 9.3494452731788584e+00 1.8137368986067031e+01 2.1527391037710334e+01 
641 243 2 1.0280001485951695e+00 4.7501107699988715e+03 1.0000000000000000e+00 8.8143274572091634e+00 1.7838783648268574e+01 2.2329615901227907e+01 
1474 1076 2 1.0280003598006520e+00 -2.6675998828544784e+03 1.0000000000000000e+00 8.1316134831922735e+00 1.7895938011582992e+01 2.1947567812459781e+01 
1080 682 2 1.0280000319706035e+00 -7.8369942635750510e+02 1.0000000000000000e+00 3.9329786295747846e+00 4.2321906209904026e-01 2.4260739597104028e+01 
937 539 2 1.0279999923801535e+00 2.5370215389192616e+01 1.0000000000000000e+00 4.6406875590822958e+00 8.8367389084673276e-01 2.4196752251894832e+01 
575 177 2 1.0280000012825634e+00 4.5444294831448642e+03 1.0000000000000000e+00 4.6579561920044110e+00 1.0320140037960062e+00 2.4360902869965674e+01 
768 370 2 1.0279998988417645e+00 -1.5549266914611765e+03 1.0000000000000000e+00 1.8027537762937982e+00 7.5117094140680796e-01 2.6334586567283594e+01 
764 366 2 1.0279998953587377e+00 1.7704525235369996e+02 1.0000000000000000e+00 1.7886576492297470e+00 7.4234299208681809e-01 2.6350871269592677e+01 
748 350 2 1.0280000096626274e+00 2.4832888533441233e+03 1.0000000000000000e+00 3.4574388972631716e+00 6.8593951198696934e-01 2.6233032282915026e+01 
1101 703 2 1.0279999092201981e+00 -1.1839694416224784e+03 1.0000000000000000e+00 4.1773714034110130e+00 4.2180295775051552e-01 2.5629743663085893e+01 
936 538 2 1.0280002043061098e+00 3.6175253738105193e+03 1.0000000000000000e+00 1.5549451360122744e+00 1.5986718864812008e-01 2.7708069197422127e+01 
2001 1603 2 1.0280000000000244e+00 1.4479811433456180e+03 1.0000000000000000e+00 8.1683311149977094e+00 4.4132094564368000e-02 2.9116426611172841e+01 
1320 922 2 1.0279999999999760e+00 -2.2026401438456260e+03 1.0000000000000000e+00 8.1361402881368239e+00 2.3939329726684198e-02 2.9135229545485267e+01 
934 536 2 1.0279999239769217e+00 -3.5911259730571364e+03 1.0000000000000000e+00 8.4544672585539649e-01 1.0468943099728372e+00 3.1836294794940695e+01 
918 520 2 1.0279999448418382e+00 -1.2264303446238448e+03 1.0000000000000000e+00 8.3331983991857594e-01 1.0711247981706224e+00 3.1869064965371017e+01 
938 540 2 1.0280000362597768e+00 -4.5429473171738471e+02 1.0000000000000000e+00 4.5132208359535519e-01 3.5358994482473921e-01 3.3060923323941715e+01 
1287 889 2 1.0280000000000216e+00 1.4198852118827099e+03 1.0000000000000000e+00 9.8785702198077043e+00 1.9236360950002222e+01 3.3314583729594077e+01 
931 533 2 1.0280000000000722e+00 -1.4655782763511415e+03 1.0000000000000000e+00 9.8627030974098204e+00 1.9328341603554286e+01 3.3317232972520770e+01 
943 545 2 1.0279999999999514e+00 -1.5762870354235488e+03 1.0000000000000000e+00 9.7959323685531370e+00 1.9268664480416746e+01 3.3343681704656255e+01 
1665 1267 2 1.0279999999999956e+00 -8.8803768627534714e+02 1.0000000000000000e+00 4.0399202314710694e+00 1.7874628888060560e+01 3.8005121761614554e+01 
1672 1274 2 1.0280000000000100e+00 -1.0860723593252596e+03 1.0000000000000000e+00 4.0619356595385128e+00 1.7914773424527763e+01 3.8086503343120413e+01 
1166 768 2 1.0279999999999896e+00 1.2690508898786247e+03 1.0000000000000000e+00 4.1057592588880185e+00 1.7940769902937419e+01 3.8008254381849710e+01 
600 202 2 1.0280000000000249e+00 4.8011932085561102e+03 1.0000000000000000e+00 5.0869960625651780e+00 7.8321776201481415e+00 4.2659024113657672e+01 
738 340 2 1.0280000000000054e+00 5.4168734743436084e+02 1.0000000000000000e+00 5.1007647548268924e+00 7.7707207706523729e+00 4.2822602349298855e+01 
1922 1524 2 1.0279999999999929e+00 -3.7323361370716157e+03 1.0000000000000000e+00 6.0293032512517177e+00 7.1509414077110840e+00 4.2362275215845351e+01 
1225 827 2 1.0280000000000193e+00 6.7003365190059014e+02 1.0000000000000000e+00 6.4536002714269971e+00 7.4096765529854611e+00 4.2480460586572661e+01 
1012 614 2 1.0280000000000025e+00 3.1278446805124833e+01 1.0000000000000000e+00 6.5804134102448328e+00 9.3340435632908392e+00 4.3077650349319711e+01 
1061 663 2 1.0279988079412221e+00 1.6399402264590331e+03 1.0000000000000000e+00 6.1249376644882514e-01 1.0127522847174157e+00 4.5059985383510480e+01 
1352 954 2 1.0279999999999436e+00 -2.6648983997894738e+03 1.0000000000000000e+00 6.5642132427176971e+00 9.3304410845152042e+00 4.3183620761400121e+01 
1348 950 2 1.0279999999999914e+00 -1.8531112468167330e+03 1.0000000000000000e+00 6.9321587912593587e+00 8.7445771871369882e+00 4.3340008780228935e+01 
1802 1404 2 1.0279996972099736e+00 -1.6264551124279471e+03 1.0000000000000000e+00 9.2328914020741248e-01 1.0980001086532949e+00 4.5270968060736593e+01 
1970 1572 2 1.0280012736823472e+00 -2.1969773610899706e+03 1.0000000000000000e+00 9.9007395865488834e-01 8.9180632389718906e-01 4.5567737754459813e+01 
1307 909 2 1.0280000000000145e+00 3.6644975823134860e+03 1.0000000000000000e+00 1.1689110094467470e+01 1.5819729122032593e+01 4.9778254302638089e+01 
1316 918 2 1.0279999999999965e+00 -2.2019620491861961e+03 1.0000000000000000e+00 1.1670197113753151e+01 1.5819909264867787e+01 4.9916924178891847e+01 
1627 1229 2 1.0280000000000005e+00 -1.7157138245212202e+03 1.0000000000000000e+00 1.2541332928875621e+01 1.7253043694801097e+01 4.9447918239549153e+01 
787 389 2 1.0279999999999896e+00 -1.7111701325386493e+03 1.0000000000000000e+00 1.2778639560557584e+01 1.7043160074912265e+01 4.9503458219472236e+01 