LAMMPS data file via write_data, version 30 Jul 2016, timestep = 50000000

180 atoms
2 atom types

0.0000000000000000e+00 2.0000000000000000e+01 xlo xhi
0.0000000000000000e+00 2.0000000000000000e+01 ylo yhi
0.0000000000000000e+00 2.0000000000000000e+01 zlo zhi

Masses

1 3.896
2 4.31

Atoms # meso-molecular

142 1 2 7.4999954909355404e-01 -1.1620595356459694e+02 1.0000000000000000e+00 4.6199049380063908e+00 1.0107282765850425e+00 1.9326822201119085e+00 
77 1 2 7.4999954909355404e-01 -9.9715639815817212e+01 1.0000000000000000e+00 4.6199049380031916e+00 1.0107282765887446e+00 1.9326822200981406e+00 
143 1 2 7.4999954909355371e-01 -1.1926787600408456e+02 1.0000000000000000e+00 4.6199049380050612e+00 1.0107282765883929e+00 1.9326822201021974e+00 
113 1 2 7.4999954909355404e-01 -9.1097704170749893e+01 1.0000000000000000e+00 4.6199049380031916e+00 1.0107282765887446e+00 1.9326822200981406e+00 
112 1 2 7.4999954909355404e-01 -1.1981015069009526e+02 1.0000000000000000e+00 4.6199049380031916e+00 1.0107282765887446e+00 1.9326822200981406e+00 
15 1 2 7.4999994257526026e-01 -1.7013476127987735e+02 1.0000000000000000e+00 1.5309912749551235e+00 5.7512053692758140e+00 1.4292056719377002e+00 
21 1 2 7.4999994257526026e-01 -1.8774387867413620e+02 1.0000000000000000e+00 1.5309912749530048e+00 5.7512053692761480e+00 1.4292056719374377e+00 
42 1 2 7.4999994352278443e-01 -1.5556712480673554e+02 1.0000000000000000e+00 1.5278757616246663e+00 5.7520357109185438e+00 1.4288363987879511e+00 
25 1 2 7.4999994352251775e-01 -2.9673470650840894e+01 1.0000000000000000e+00 1.5278766536070474e+00 5.7520354819366739e+00 1.4288365067651048e+00 
85 1 2 7.5000005701035433e-01 -1.9181147881421313e+02 1.0000000000000000e+00 4.7500572530637291e+00 5.3264107052675556e+00 2.2579256565293484e+00 
165 1 2 7.5000005701035455e-01 -1.4753081308773213e+02 1.0000000000000000e+00 4.7500572530503913e+00 5.3264107052591863e+00 2.2579256565238564e+00 
172 1 2 7.5000005701770001e-01 -5.6722230213789416e+01 1.0000000000000000e+00 4.7500520396456798e+00 5.3264074470429899e+00 2.2579235438868941e+00 
166 1 2 7.5000005701035433e-01 -6.2328314725984498e+01 1.0000000000000000e+00 4.7500572533129866e+00 5.3264107054229246e+00 2.2579256566292751e+00 
134 1 2 7.5000023436526664e-01 -1.4929446963797787e+02 1.0000000000000000e+00 5.2214287067479210e+00 3.8961118799061101e+00 6.2233182941110088e-01 
140 1 2 7.5000023436526653e-01 -1.6493633794976614e+02 1.0000000000000000e+00 5.2214287067479122e+00 3.8961118799062167e+00 6.2233182941113963e-01 
47 1 2 7.5000023436526675e-01 -1.7311075428339720e+02 1.0000000000000000e+00 5.2214287067479335e+00 3.8961118799061465e+00 6.2233182941102616e-01 
177 1 2 7.5000010874636458e-01 -1.3964841922583281e+02 1.0000000000000000e+00 2.8689178056653617e+00 4.7134576225355849e+00 4.6591014932484285e+00 
171 1 2 7.5000010874636536e-01 -1.3990859109449633e+02 1.0000000000000000e+00 2.8689178056668667e+00 4.7134576225353380e+00 4.6591014932482846e+00 
91 1 2 7.5000012454703224e-01 -1.8905744036745216e+02 1.0000000000000000e+00 2.5656137080008952e+00 5.1847744092778978e+00 4.3816095543023916e+00 
122 1 2 7.5000012452568343e-01 -1.2065506519136714e+02 1.0000000000000000e+00 2.5652038697438360e+00 5.1894039635441596e+00 4.3809223352869990e+00 
152 1 2 7.4999984695381716e-01 -7.2926813651438707e+01 1.0000000000000000e+00 3.1712768762807690e+00 5.8290942624995372e+00 6.0207140244946729e+00 
157 1 2 7.4999984695381716e-01 -9.1155514329905031e+01 1.0000000000000000e+00 3.1712768753550664e+00 5.8290942691400911e+00 6.0207140254639420e+00 
158 1 2 7.4999984695381738e-01 -7.6905685915590539e+01 1.0000000000000000e+00 3.1712768754571510e+00 5.8290942684054858e+00 6.0207140253567450e+00 
37 1 2 7.5000009560757241e-01 -1.4904430143485732e+02 1.0000000000000000e+00 1.7402925664387339e-01 7.6696084490802274e+00 5.6868521675231936e+00 
38 1 2 7.5000009560757264e-01 -1.6623070023436540e+02 1.0000000000000000e+00 1.7402925664383725e-01 7.6696084490802008e+00 5.6868521675233419e+00 
7 1 2 7.5000009560757230e-01 -1.5046099027869039e+02 1.0000000000000000e+00 1.7402925664388852e-01 7.6696084490802310e+00 5.6868521675231367e+00 
44 1 2 7.5000009560757264e-01 -1.8982530245664867e+02 1.0000000000000000e+00 1.7402925664392910e-01 7.6696084490802150e+00 5.6868521675229990e+00 
43 1 2 7.5000009560757230e-01 -1.6544792823771223e+02 1.0000000000000000e+00 1.7402925664388852e-01 7.6696084490802310e+00 5.6868521675231367e+00 
118 1 2 7.5000001970613206e-01 -1.2114265207606586e+02 1.0000000000000000e+00 2.9410600030086154e+00 8.3287154166143633e+00 6.2718742848372733e+00 
149 1 2 7.5000001964937502e-01 -9.1922907737196113e+01 1.0000000000000000e+00 2.9410315034257977e+00 8.3288226341221421e+00 6.2718536286044078e+00 
150 1 2 7.5000001964937524e-01 -9.0988082017719336e+01 1.0000000000000000e+00 2.9410315034250063e+00 8.3288226341248794e+00 6.2718536286038447e+00 
72 1 2 7.5000038033476746e-01 -1.3615844059779238e+02 1.0000000000000000e+00 5.4758303199166267e+00 6.8654914605617652e+00 4.5375656239552402e+00 
74 1 2 7.5000038033477090e-01 -1.5413132875397230e+02 1.0000000000000000e+00 5.4758303193106839e+00 6.8654914603062478e+00 4.5375656234569197e+00 
73 1 2 7.5000038033477112e-01 -1.4431658818589193e+02 1.0000000000000000e+00 5.4758303193106572e+00 6.8654914603063224e+00 4.5375656234570796e+00 
110 1 2 7.5000038033477101e-01 -1.3922344323553980e+02 1.0000000000000000e+00 5.4758303193106350e+00 6.8654914603062736e+00 4.5375656234569774e+00 
154 1 2 7.4999985176063233e-01 -1.4161430326749704e+02 1.0000000000000000e+00 6.6354853845405763e+00 7.5227045151211183e+00 6.0343327242828106e+00 
139 1 2 7.4999985176063233e-01 -1.7132293076222399e+02 1.0000000000000000e+00 6.6354853845405461e+00 7.5227045151211129e+00 6.0343327242827494e+00 
135 1 2 7.5000006138111741e-01 -2.0461208867299104e+02 1.0000000000000000e+00 2.4475931505501132e+00 8.6593370109857410e+00 8.1049977584669417e+00 
127 1 2 7.5000006138445119e-01 -1.1030850037041736e+02 1.0000000000000000e+00 2.4477704521570769e+00 8.6592915063874969e+00 8.1050359742817442e+00 
141 1 2 7.5000006138111774e-01 -1.7466330302342109e+02 1.0000000000000000e+00 2.4475931505579762e+00 8.6593370109832080e+00 8.1049977584683006e+00 
36 1 2 7.5000000000126854e-01 -1.0983092166416949e+02 1.0000000000000000e+00 2.4288016389080411e+00 5.1703905041657752e+00 1.1525462497952679e+01 
32 1 2 7.5000000000126865e-01 -1.2767212507607168e+02 1.0000000000000000e+00 2.4288016389163611e+00 5.1703905041626257e+00 1.1525462497931571e+01 
29 1 2 7.5000000000126854e-01 -1.2500338050500497e+02 1.0000000000000000e+00 2.4288016389080411e+00 5.1703905041657752e+00 1.1525462497952679e+01 
33 1 2 7.5000000000126854e-01 -1.5094834914340004e+02 1.0000000000000000e+00 2.4288016389079488e+00 5.1703905041663898e+00 1.1525462497952953e+01 
30 1 2 7.5000000000126865e-01 -1.1742475342757231e+02 1.0000000000000000e+00 2.4288016389163611e+00 5.1703905041626257e+00 1.1525462497931571e+01 
120 1 2 7.5000000000126710e-01 -8.6718549657345449e+01 1.0000000000000000e+00 5.2351469641263204e+00 5.0929241475074800e+00 1.2643095736035068e+01 
67 1 2 7.5000000000126743e-01 -1.3543536820435116e+02 1.0000000000000000e+00 5.2351469797701657e+00 5.0929240824963768e+00 1.2643095692247723e+01 
68 1 2 7.5000000000126743e-01 -1.3751776165725337e+02 1.0000000000000000e+00 5.2351469797659806e+00 5.0929240825070208e+00 1.2643095692258971e+01 
114 1 2 7.5000000000126721e-01 -8.4029869311381333e+01 1.0000000000000000e+00 5.2351469641267396e+00 5.0929241475068876e+00 1.2643095736033974e+01 
124 1 2 7.5000000000126732e-01 -1.0395780966758252e+02 1.0000000000000000e+00 5.2351469961516175e+00 5.0929240145754209e+00 1.2643095646406508e+01 
41 1 2 7.4999995893701632e-01 -1.3298784796359817e+02 1.0000000000000000e+00 2.7515653902097386e+00 6.3398319903904499e-01 1.5091149219210173e+01 
174 1 2 7.4999995899139305e-01 -1.3334402335388501e+02 1.0000000000000000e+00 2.7532357751210705e+00 6.3276002175799184e-01 1.5088186072037946e+01 
76 1 2 7.4999996137640301e-01 -1.3036842244732520e+02 1.0000000000000000e+00 3.3503879661083116e+00 2.6382566136154995e-01 1.5044850934215470e+01 
75 1 2 7.4999996137640179e-01 -1.3040091214723012e+02 1.0000000000000000e+00 3.3503879433248622e+00 2.6382565878073727e-01 1.5044850924857007e+01 
9 1 2 7.4999996137645097e-01 -1.3694653398688433e+02 1.0000000000000000e+00 3.3503891800263483e+00 2.6382579682398066e-01 1.5044851436312317e+01 
1 1 2 7.5000003730499654e-01 -1.8487784244889525e+02 1.0000000000000000e+00 3.8100290053813324e+00 2.2875279031543894e+00 1.6675395659155058e+01 
27 1 2 7.5000003730498965e-01 -1.1614049762405489e+02 1.0000000000000000e+00 3.8100290044862883e+00 2.2875278995753985e+00 1.6675395652395725e+01 
63 1 2 7.5000003730498976e-01 -1.2786222578752944e+02 1.0000000000000000e+00 3.8100290044865495e+00 2.2875278995771566e+00 1.6675395652399150e+01 
20 1 2 7.5000003730498932e-01 -1.7388496678460706e+02 1.0000000000000000e+00 3.8100290044513554e+00 2.2875278994150188e+00 1.6675395652089815e+01 
159 1 2 7.4999997641276728e-01 -1.1136026165291523e+02 1.0000000000000000e+00 5.2991173526778015e+00 2.1340454694709741e+00 1.8716942283218756e+01 
138 1 2 7.4999997641276772e-01 -9.5853461890929594e+01 1.0000000000000000e+00 5.2991173526777224e+00 2.1340454694708781e+00 1.8716942283218721e+01 
131 1 2 7.4999997641276739e-01 -7.5170049818221003e+01 1.0000000000000000e+00 5.2991173526777429e+00 2.1340454694709039e+00 1.8716942283218781e+01 
137 1 2 7.4999997641276772e-01 -5.8805432982047009e+01 1.0000000000000000e+00 5.2991173526777766e+00 2.1340454694709492e+00 1.8716942283218859e+01 
11 1 2 7.5000007641536814e-01 -1.6776098160664961e+02 1.0000000000000000e+00 1.2796089220927453e+00 6.0109208216991936e+00 1.9302691269133607e+01 
10 1 2 7.5000007642094646e-01 -1.7184280857725736e+02 1.0000000000000000e+00 1.2796881095515273e+00 6.0109705111053344e+00 1.9302670676072214e+01 
5 1 2 7.5000007642932998e-01 -1.4164619770860412e+02 1.0000000000000000e+00 1.2798121561291851e+00 6.0110439783180185e+00 1.9302637179334344e+01 
119 1 2 7.4999983092943256e-01 -1.7662321470466722e+02 1.0000000000000000e+00 3.2721065866344228e+00 3.9165667782229145e+00 1.9308352928423005e+01 
132 1 2 7.4999983092941769e-01 -1.1505140478798170e+02 1.0000000000000000e+00 3.2721065903938515e+00 3.9165667973491791e+00 1.9308352923912675e+01 
126 1 2 7.4999983092952394e-01 -9.9691193364102034e+01 1.0000000000000000e+00 3.2721066018569420e+00 3.9165667691993389e+00 1.9308352870300521e+01 
123 1 2 7.4999983092943245e-01 -1.0131867834924807e+02 1.0000000000000000e+00 3.2721065866344099e+00 3.9165667782228977e+00 1.9308352928423041e+01 
133 1 2 7.5000007858389206e-01 -1.4724160651942088e+02 1.0000000000000000e+00 1.4834692949904702e+00 6.3751566427814534e+00 1.9486741982024000e+01 
103 1 2 7.4999990043160436e-01 -1.6012686733655372e+02 1.0000000000000000e+00 2.9403747664219462e+00 1.5183053003973258e+01 2.4543322935307081e+00 
6 1 2 7.4999990081006473e-01 -1.2008864610990906e+02 1.0000000000000000e+00 2.9365283274156915e+00 1.5184207530967976e+01 2.4499204206044118e+00 
12 1 2 7.5000034390053982e-01 -1.2322991779136605e+02 1.0000000000000000e+00 3.2163815690433655e+00 1.4733993450515353e+01 1.8374624141139426e+00 
104 1 2 7.5000034390053960e-01 -1.3667866096954270e+02 1.0000000000000000e+00 3.2163815690439268e+00 1.4733993450515156e+01 1.8374624141135310e+00 
180 1 2 7.4999967016846658e-01 -1.1931104150212677e+02 1.0000000000000000e+00 4.1565637564504696e+00 1.5399133264548405e+01 2.1236091161579678e+00 
144 1 2 7.4999967017360403e-01 -1.1606849944774231e+02 1.0000000000000000e+00 4.1565652511249827e+00 1.5399128512061656e+01 2.1236079532668057e+00 
39 1 2 7.5000001596455013e-01 -9.6104980727786327e+01 1.0000000000000000e+00 2.0138015029740268e+00 1.8057427381849294e+01 2.5375299396465247e+00 
31 1 2 7.5000001596455024e-01 -4.3303015761583893e+01 1.0000000000000000e+00 2.0138015029690695e+00 1.8057427381838970e+01 2.5375299396401916e+00 
40 1 2 7.5000001596455013e-01 -1.0186979140130892e+02 1.0000000000000000e+00 2.0138015029738727e+00 1.8057427381849308e+01 2.5375299396466739e+00 
4 1 2 7.5000001596455013e-01 -1.8788411495712202e+02 1.0000000000000000e+00 2.0138015029738727e+00 1.8057427381849308e+01 2.5375299396466739e+00 
69 1 2 7.5000001596455024e-01 -1.3891661453027407e+02 1.0000000000000000e+00 2.0138015029690695e+00 1.8057427381838970e+01 2.5375299396401916e+00 
35 1 2 7.5000055704832147e-01 -1.2705212234581856e+02 1.0000000000000000e+00 5.6713502636618101e+00 1.8021119527855085e+01 1.7711220358055904e+00 
28 1 2 7.5000055704832136e-01 -1.3076063924154116e+02 1.0000000000000000e+00 5.6713502636619619e+00 1.8021119527855458e+01 1.7711220358053403e+00 
57 1 2 7.5000055704832158e-01 -1.7562922662456143e+02 1.0000000000000000e+00 5.6713502636617150e+00 1.8021119527854690e+01 1.7711220358065123e+00 
51 1 2 7.5000055704832147e-01 -1.5031021502171939e+02 1.0000000000000000e+00 5.6713502636618101e+00 1.8021119527855085e+01 1.7711220358055904e+00 
34 1 2 7.5000055704832136e-01 -1.3500634511707108e+02 1.0000000000000000e+00 5.6713502636620472e+00 1.8021119527855635e+01 1.7711220358053656e+00 
2 1 2 7.4999999376248561e-01 -1.6576831744772716e+02 1.0000000000000000e+00 1.8131850782816723e+00 1.6425313969593450e+01 5.8249925891221555e+00 
8 1 2 7.4999999376238635e-01 -1.6354395632626017e+02 1.0000000000000000e+00 1.8131973171217426e+00 1.6425313032745496e+01 5.8250008410216756e+00 
179 1 2 7.5000000464680883e-01 -1.5941850597895723e+02 1.0000000000000000e+00 1.2393939127590146e+00 1.6938053849306066e+01 5.5546829652252248e+00 
178 1 2 7.5000013933557963e-01 -1.3786927779537649e+02 1.0000000000000000e+00 2.3936156084231879e+00 1.6951668224967161e+01 5.2241429396383294e+00 
173 1 2 7.4999996866305918e-01 -1.4787339010039821e+02 1.0000000000000000e+00 1.6270914367407758e+00 1.7805907349575854e+01 6.4556600773125634e+00 
175 1 2 7.4999998215063202e-01 -1.0760564991025811e+02 1.0000000000000000e+00 1.9145413678144763e+00 1.7852250437102054e+01 6.5005509353075626e+00 
176 1 2 7.4999998215063324e-01 -1.0615367274326222e+02 1.0000000000000000e+00 1.9145413678144518e+00 1.7852250437101841e+01 6.5005509353077393e+00 
94 1 2 7.4999984738828451e-01 -1.2010750780819353e+02 1.0000000000000000e+00 4.1458129165425328e+00 1.9230307186794619e+01 4.8994460657418166e+00 
100 1 2 7.4999984738828473e-01 -1.3619252597591003e+02 1.0000000000000000e+00 4.1458129165443571e+00 1.9230307186791407e+01 4.8994460657432306e+00 
101 1 2 7.4999984738828462e-01 -1.4631719909982397e+02 1.0000000000000000e+00 4.1458129165443500e+00 1.9230307186791411e+01 4.8994460657432617e+00 
130 1 2 7.4999984738828473e-01 -1.1870139131777611e+02 1.0000000000000000e+00 4.1458129165474986e+00 1.9230307186785211e+01 4.8994460657474246e+00 
136 1 2 7.4999984738828451e-01 -1.2479863746824898e+02 1.0000000000000000e+00 4.1458129165512698e+00 1.9230307186777882e+01 4.8994460657521870e+00 
79 1 2 7.4999992732245790e-01 -2.0736722035305363e+02 1.0000000000000000e+00 3.0220905768932629e+00 1.0592645534003340e+01 7.5229279550655148e+00 
89 1 2 7.4999992732245835e-01 -1.6423992457067962e+02 1.0000000000000000e+00 3.0220905768932682e+00 1.0592645534003337e+01 7.5229279550655432e+00 
109 1 2 7.4999992732245768e-01 -1.8270442133510110e+02 1.0000000000000000e+00 3.0220905768932806e+00 1.0592645534003339e+01 7.5229279550654695e+00 
17 1 2 7.4999992732245868e-01 -1.1734663020933002e+02 1.0000000000000000e+00 3.0220905768931905e+00 1.0592645534003351e+01 7.5229279550655717e+00 
61 1 2 7.5000004239648033e-01 -1.3112245205951891e+02 1.0000000000000000e+00 5.4484177346621463e+00 1.5206747356452652e+01 1.9612389103574543e+01 
97 1 2 7.5000004239647999e-01 -1.2463018745994300e+02 1.0000000000000000e+00 5.4484177346631428e+00 1.5206747356452921e+01 1.9612389103575065e+01 
55 1 2 7.5000004239647999e-01 -1.3235411120491111e+02 1.0000000000000000e+00 5.4484177346631428e+00 1.5206747356452921e+01 1.9612389103575065e+01 
147 1 2 7.5000004239647999e-01 -2.0715039387220051e+02 1.0000000000000000e+00 5.4484177346631428e+00 1.5206747356452921e+01 1.9612389103575065e+01 
19 1 2 7.5000004239648033e-01 -1.3362744721778441e+02 1.0000000000000000e+00 5.4484177346622813e+00 1.5206747356452048e+01 1.9612389103574703e+01 
78 1 2 7.4999965099302324e-01 -1.7703758366832835e+02 1.0000000000000000e+00 7.0779139656411019e+00 4.2136832596150748e+00 4.0776833559268582e+00 
128 1 2 7.4999965099302290e-01 -9.9969657708753246e+01 1.0000000000000000e+00 7.0779139664955020e+00 4.2136832600901908e+00 4.0776833549595741e+00 
170 1 2 7.4999965099308818e-01 -1.2805472489142858e+02 1.0000000000000000e+00 7.0779137681296893e+00 4.2136831473442857e+00 4.0776835718756121e+00 
164 1 2 7.4999964681630438e-01 -1.1006647535365123e+02 1.0000000000000000e+00 7.0997445486120627e+00 4.2358566130152546e+00 4.0756608322609722e+00 
129 1 2 7.4999964698128208e-01 -1.3019527252178199e+02 1.0000000000000000e+00 7.1011284157559249e+00 4.2375559581670554e+00 4.0757565092972019e+00 
168 1 2 7.5000030545239527e-01 -1.3825638914016383e+02 1.0000000000000000e+00 7.9034340826459024e+00 8.0844093110923225e+00 6.9146327072379252e+00 
3 1 2 7.5000030545239516e-01 -1.1041233192715328e+02 1.0000000000000000e+00 7.9034340826458314e+00 8.0844093110923563e+00 6.9146327072380265e+00 
163 1 2 7.5000030545239527e-01 -1.6830167564647755e+02 1.0000000000000000e+00 7.9034340826459610e+00 8.0844093110924327e+00 6.9146327072379128e+00 
169 1 2 7.5000030545239538e-01 -1.3654586501486770e+02 1.0000000000000000e+00 7.9034340826459610e+00 8.0844093110924096e+00 6.9146327072379021e+00 
26 1 2 7.5000000000010214e-01 -1.4554115591684030e+02 1.0000000000000000e+00 1.2230349199810046e+01 6.8668450861062817e+00 9.5224387265543839e+00 
156 1 2 7.5000000000009803e-01 -1.0999620768875567e+02 1.0000000000000000e+00 1.2230349199525504e+01 6.8668450857886247e+00 9.5224387263148174e+00 
160 1 2 7.5000000000010436e-01 -1.4951610488524733e+02 1.0000000000000000e+00 1.2230349201106891e+01 6.8668450836734261e+00 9.5224387239601338e+00 
155 1 2 7.5000000000010214e-01 -1.3240185240965570e+02 1.0000000000000000e+00 1.2230349204385094e+01 6.8668450895592388e+00 9.5224387288337358e+00 
162 1 2 7.5000000000009803e-01 -1.1116467647369956e+02 1.0000000000000000e+00 1.2230349199525504e+01 6.8668450857886247e+00 9.5224387263148174e+00 
88 1 2 7.5000000000010125e-01 -1.5440859800669705e+02 1.0000000000000000e+00 1.2703468513690945e+01 4.8115385371980732e+00 1.1686359307487079e+01 
125 1 2 7.5000000000010125e-01 -1.6205733334518987e+02 1.0000000000000000e+00 1.2703468513690945e+01 4.8115385371980732e+00 1.1686359307487079e+01 
48 1 2 7.5000000000010147e-01 -1.4998652162645664e+02 1.0000000000000000e+00 1.2703468513690952e+01 4.8115385371980492e+00 1.1686359307487050e+01 
95 1 2 7.5000000000010125e-01 -1.6800731869999788e+02 1.0000000000000000e+00 1.2703468513690945e+01 4.8115385371980732e+00 1.1686359307487079e+01 
90 1 2 7.5000000000009970e-01 -1.3988279197720374e+02 1.0000000000000000e+00 1.2703468513690968e+01 4.8115385371980279e+00 1.1686359307487054e+01 
18 1 2 7.5000000000015166e-01 -1.0069590887372161e+02 1.0000000000000000e+00 9.8757567245922946e+00 1.1847476717027513e+01 8.5009866156608194e-01 
24 1 2 7.5000000000015399e-01 -1.0610762312849792e+02 1.0000000000000000e+00 9.8757567248224536e+00 1.1847476717049302e+01 8.5009866168828674e-01 
60 1 2 7.5000000000015210e-01 -8.3799680572006977e+01 1.0000000000000000e+00 9.8757567256473582e+00 1.1847476717122973e+01 8.5009866212967322e-01 
54 1 2 7.5000000000015388e-01 -1.2601145128618168e+02 1.0000000000000000e+00 9.8757567247146696e+00 1.1847476717039330e+01 8.5009866163088910e-01 
59 1 2 7.5000000000015210e-01 -1.1211328954936388e+02 1.0000000000000000e+00 9.8757567256473582e+00 1.1847476717122973e+01 8.5009866212967322e-01 
115 1 2 7.5000000000015254e-01 -2.0374247731484670e+02 1.0000000000000000e+00 8.5859318695099027e+00 1.3567564559006948e+01 2.9733812227950391e+00 
71 1 2 7.5000000000015277e-01 -1.4172096640054932e+02 1.0000000000000000e+00 8.5859318695125690e+00 1.3567564559006081e+01 2.9733812227973586e+00 
151 1 2 7.5000000000015277e-01 -8.1413246451293531e+01 1.0000000000000000e+00 8.5859318695095705e+00 1.3567564559009943e+01 2.9733812227924079e+00 
145 1 2 7.5000000000015277e-01 -8.1319884923756490e+01 1.0000000000000000e+00 8.5859318695043143e+00 1.3567564559006350e+01 2.9733812227921255e+00 
116 1 2 7.5000000000015277e-01 -1.5648724487397797e+02 1.0000000000000000e+00 8.5859318695125690e+00 1.3567564559006081e+01 2.9733812227973586e+00 
46 1 2 7.4999821092100327e-01 -9.5116555402479690e+01 1.0000000000000000e+00 8.3431996734903855e+00 1.0934142275478401e+01 6.7425869017781901e+00 
87 1 2 7.4999821093393892e-01 -1.4982731313926720e+02 1.0000000000000000e+00 8.3431992717645720e+00 1.0934143396188643e+01 6.7425872236972637e+00 
45 1 2 7.4999821092736663e-01 -1.1675276342990961e+02 1.0000000000000000e+00 8.3431994630702668e+00 1.0934142793149366e+01 6.7425871004053102e+00 
81 1 2 7.4999821092471075e-01 -1.6463284453809808e+02 1.0000000000000000e+00 8.3431995452382282e+00 1.0934142564153126e+01 6.7425870344608274e+00 
50 1 2 7.5000867713205943e-01 -1.5985913652203618e+02 1.0000000000000000e+00 1.2710501829432504e+01 1.1090170335066265e+01 6.9200010851797611e+00 
14 1 2 7.5000867713205943e-01 -1.9921829785429546e+02 1.0000000000000000e+00 1.2710501829432504e+01 1.1090170335066265e+01 6.9200010851797611e+00 
56 1 2 7.5000867713205954e-01 -1.3416902203686089e+02 1.0000000000000000e+00 1.2710501829432488e+01 1.1090170335066233e+01 6.9200010851797371e+00 
49 1 2 7.5000867713205943e-01 -1.7071917336696032e+02 1.0000000000000000e+00 1.2710501829432522e+01 1.1090170335066309e+01 6.9200010851797629e+00 
13 1 2 7.5000867713205943e-01 -1.6600366038490540e+02 1.0000000000000000e+00 1.2710501829432504e+01 1.1090170335066265e+01 6.9200010851797611e+00 
84 1 2 7.5000266073434274e-01 -7.9395234117855296e+01 1.0000000000000000e+00 1.0007212076998441e+01 1.2173817226338159e+01 7.4461546009744302e+00 
96 1 2 7.5000266073434274e-01 -1.6797875028227449e+02 1.0000000000000000e+00 1.0007212076998441e+01 1.2173817226338159e+01 7.4461546009744302e+00 
82 1 2 7.5000266073434274e-01 -1.5729908229147784e+02 1.0000000000000000e+00 1.0007212076998441e+01 1.2173817226338159e+01 7.4461546009744302e+00 
83 1 2 7.5000266073434274e-01 -1.7844069707103196e+02 1.0000000000000000e+00 1.0007212076998441e+01 1.2173817226338159e+01 7.4461546009744302e+00 
23 1 2 7.4984783793379950e-01 -1.1426107100454283e+02 1.0000000000000000e+00 1.5406967927246312e+01 6.4520775151789671e+00 4.2074681574081181e+00 
16 1 2 7.4984783793379950e-01 -1.2477373138497481e+02 1.0000000000000000e+00 1.5406967927246326e+01 6.4520775151789778e+00 4.2074681574080772e+00 
58 1 2 7.4984783793379950e-01 -1.4018098675809395e+02 1.0000000000000000e+00 1.5406967927246312e+01 6.4520775151789644e+00 4.2074681574081296e+00 
22 1 2 7.4984783793379950e-01 -1.2979521799153744e+02 1.0000000000000000e+00 1.5406967927246326e+01 6.4520775151789778e+00 4.2074681574080772e+00 
52 1 2 7.4984783793379950e-01 -1.4842142319445330e+02 1.0000000000000000e+00 1.5406967927246255e+01 6.4520775151789564e+00 4.2074681574081554e+00 
99 1 2 7.5015813055246316e-01 -1.2677418735321349e+02 1.0000000000000000e+00 1.5341434299268780e+01 9.3804699103765348e+00 4.9568213874440836e+00 
93 1 2 7.5015813055246316e-01 -1.2604691188059230e+02 1.0000000000000000e+00 1.5341434299268780e+01 9.3804699103765348e+00 4.9568213874440836e+00 
86 1 2 7.5015813055246316e-01 -1.3407453061159356e+02 1.0000000000000000e+00 1.5341434299268780e+01 9.3804699103765348e+00 4.9568213874440836e+00 
98 1 2 7.5015813055246316e-01 -1.0173090097113779e+02 1.0000000000000000e+00 1.5341434299268780e+01 9.3804699103765348e+00 4.9568213874440836e+00 
92 1 2 7.5015813055246316e-01 -1.0719050225658040e+02 1.0000000000000000e+00 1.5341434299268780e+01 9.3804699103765348e+00 4.9568213874440836e+00 
80 1 2 7.4999999999993461e-01 -1.8230391984232182e+02 1.0000000000000000e+00 1.8559022153152711e+01 4.1631220915967999e+00 1.2882956128965732e+01 
161 1 2 7.4999999999993461e-01 -5.2425961362489886e+01 1.0000000000000000e+00 1.8559022153152711e+01 4.1631220915967999e+00 1.2882956128965732e+01 
167 1 2 7.4999999999993461e-01 -6.0704428292776825e+01 1.0000000000000000e+00 1.8559022153152711e+01 4.1631220915967999e+00 1.2882956128965732e+01 
108 1 2 7.4999999999993461e-01 -1.8905977992760816e+02 1.0000000000000000e+00 1.8559022153152711e+01 4.1631220915967999e+00 1.2882956128965732e+01 
107 1 2 7.4999999999993461e-01 -1.3999218066233720e+02 1.0000000000000000e+00 1.8559022153152711e+01 4.1631220915967999e+00 1.2882956128965732e+01 
153 1 2 7.4999999999993472e-01 -1.6463033360945195e+02 1.0000000000000000e+00 1.8932774757687490e+01 3.3109570133087449e+00 1.5757813142053108e+01 
117 1 2 7.4999999999993472e-01 -1.5603838773238979e+02 1.0000000000000000e+00 1.8932774757687490e+01 3.3109570133087449e+00 1.5757813142053108e+01 
146 1 2 7.4999999999993472e-01 -1.7079342742298243e+02 1.0000000000000000e+00 1.8932774757687490e+01 3.3109570133087449e+00 1.5757813142053108e+01 
111 1 2 7.4999999999993472e-01 -2.1881764689038300e+02 1.0000000000000000e+00 1.8932774757687490e+01 3.3109570133087449e+00 1.5757813142053108e+01 
148 1 2 7.4999999999993472e-01 -1.9415541171839831e+02 1.0000000000000000e+00 1.8932774757687490e+01 3.3109570133087449e+00 1.5757813142053108e+01 
65 1 2 7.4999999999998790e-01 -1.1620374945073095e+02 1.0000000000000000e+00 1.4868060937920246e+01 1.6497567156613773e+01 4.8016328744823609e+00 
66 1 2 7.4999999999998790e-01 -9.6779069691825526e+01 1.0000000000000000e+00 1.4868060937920246e+01 1.6497567156613773e+01 4.8016328744823609e+00 
53 1 2 7.4999999999998790e-01 -1.5441451674722191e+02 1.0000000000000000e+00 1.4868060937920266e+01 1.6497567156613758e+01 4.8016328744822854e+00 
62 1 2 7.4999999999998790e-01 -1.5360268396679572e+02 1.0000000000000000e+00 1.4868060937920246e+01 1.6497567156613773e+01 4.8016328744823609e+00 
102 1 2 7.4999999999998790e-01 -1.1657138815157403e+02 1.0000000000000000e+00 1.4868060937920246e+01 1.6497567156613773e+01 4.8016328744823609e+00 
106 1 2 7.4999999999998790e-01 -1.8441953884498957e+02 1.0000000000000000e+00 1.7111613721598282e+01 1.4690835768021071e+01 5.7142509611257308e+00 
70 1 2 7.4999999999998790e-01 -1.7269444560545492e+02 1.0000000000000000e+00 1.7111613721598282e+01 1.4690835768021071e+01 5.7142509611257308e+00 
105 1 2 7.4999999999998790e-01 -1.5296787147853109e+02 1.0000000000000000e+00 1.7111613721598282e+01 1.4690835768021071e+01 5.7142509611257308e+00 
64 1 2 7.4999999999998790e-01 -1.4191610503881233e+02 1.0000000000000000e+00 1.7111613721598282e+01 1.4690835768021071e+01 5.7142509611257308e+00 
121 1 2 7.4999999999998790e-01 -1.1586250159182198e+02 1.0000000000000000e+00 1.7111613721598282e+01 1.4690835768021071e+01 5.7142509611257308e+00 

Velocities

142 -6.6235576103730154e-02 -3.1598016553419922e-01 1.9880152820945271e-01
77 -6.6235576103729363e-02 -3.1598016553420005e-01 1.9880152820945374e-01
143 -6.6235576103729973e-02 -3.1598016553419961e-01 1.9880152820945354e-01
113 -6.6235576103729363e-02 -3.1598016553420005e-01 1.9880152820945374e-01
112 -6.6235576103729363e-02 -3.1598016553420005e-01 1.9880152820945374e-01
15 -6.6232126864828170e-02 -3.1618281349364408e-01 1.9845250524664010e-01
21 -6.6232126864828572e-02 -3.1618281349364408e-01 1.9845250524664204e-01
42 -6.6232126977014527e-02 -3.1618283213403625e-01 1.9845257143579773e-01
25 -6.6232126976930150e-02 -3.1618283212878956e-01 1.9845257141690253e-01
85 -6.6175973329885007e-02 -3.1613545299076090e-01 1.9846912499168329e-01
165 -6.6175973329885660e-02 -3.1613545299076140e-01 1.9846912499168290e-01
172 -6.6175973600672705e-02 -3.1613545298261153e-01 1.9846912490367097e-01
166 -6.6175973329873378e-02 -3.1613545299075824e-01 1.9846912499168459e-01
134 -6.6212247501842389e-02 -3.1618905035946576e-01 1.9850490782307265e-01
140 -6.6212247501845151e-02 -3.1618905035946621e-01 1.9850490782307229e-01
47 -6.6212247501843458e-02 -3.1618905035946615e-01 1.9850490782307231e-01
177 -6.6109415419806986e-02 -3.1611442149989361e-01 1.9844729274142930e-01
171 -6.6109415419807763e-02 -3.1611442149989549e-01 1.9844729274142872e-01
91 -6.6121442695424623e-02 -3.1610566555187436e-01 1.9844059744219061e-01
122 -6.6121469318061288e-02 -3.1610556179692528e-01 1.9844055579626391e-01
152 -6.6076283917664638e-02 -3.1608433211042630e-01 1.9843193198240064e-01
157 -6.6076283917505890e-02 -3.1608433211046766e-01 1.9843193198238879e-01
158 -6.6076283917523168e-02 -3.1608433211046422e-01 1.9843193198239137e-01
37 -6.5972166683211139e-02 -3.1602575640275060e-01 1.9835931804792475e-01
38 -6.5972166683211000e-02 -3.1602575640275093e-01 1.9835931804792487e-01
7 -6.5972166683211250e-02 -3.1602575640275055e-01 1.9835931804792470e-01
44 -6.5972166683211292e-02 -3.1602575640275060e-01 1.9835931804792470e-01
43 -6.5972166683211250e-02 -3.1602575640275055e-01 1.9835931804792470e-01
118 -6.5971386637847559e-02 -3.1603901144748153e-01 1.9838465063601340e-01
149 -6.5971385692065940e-02 -3.1603900985682748e-01 1.9838465199299576e-01
150 -6.5971385692065246e-02 -3.1603900985682754e-01 1.9838465199299360e-01
72 -6.6145166666567959e-02 -3.1610802269267052e-01 1.9845855157322176e-01
74 -6.6145166666577646e-02 -3.1610802269260302e-01 1.9845855157316755e-01
73 -6.6145166666577479e-02 -3.1610802269260135e-01 1.9845855157316680e-01
110 -6.6145166666577576e-02 -3.1610802269260174e-01 1.9845855157316722e-01
154 -6.6177534457158987e-02 -3.1605418889657982e-01 1.9853160951635712e-01
139 -6.6177534457159043e-02 -3.1605418889657982e-01 1.9853160951635729e-01
135 -6.5950624323540499e-02 -3.1603013104932948e-01 1.9838415962563524e-01
127 -6.5950622245497109e-02 -3.1603013228065957e-01 1.9838416022959043e-01
141 -6.5950624323536433e-02 -3.1603013104932248e-01 1.9838415962562173e-01
36 -5.9065199050055160e-02 -3.1505566292040860e-01 2.0012732216052317e-01
32 -5.9065199050055667e-02 -3.1505566292040860e-01 2.0012732216052304e-01