LAMMPS data file via write_data, version 30 Jul 2016, timestep = 50400000

180 atoms
2 atom types

0.0000000000000000e+00 2.0000000000000000e+01 xlo xhi
0.0000000000000000e+00 2.0000000000000000e+01 ylo yhi
0.0000000000000000e+00 2.0000000000000000e+01 zlo zhi

Masses

1 3.896
2 4.31

Atoms # meso-molecular

76 1 2 7.5000002922692277e-01 -1.3036842244732520e+02 1.0000000000000000e+00 6.9983389152227193e-01 7.6153484133351430e+00 2.9867411734312834e+00 
75 1 2 7.5000002922691933e-01 -1.3040091214723012e+02 1.0000000000000000e+00 6.9983386874251396e-01 7.6153484107580143e+00 2.9867411640769044e+00 
9 1 2 7.5000002922708708e-01 -1.3694653398688433e+02 1.0000000000000000e+00 6.9983510524485026e-01 7.6153485486076073e+00 2.9867416753008329e+00 
174 1 2 7.4999998158766867e-01 -1.3334402335388501e+02 1.0000000000000000e+00 1.0292358493120542e-01 7.9841970144364280e+00 3.0300976843557512e+00 
41 1 2 7.4999998158519088e-01 -1.3298784796359817e+02 1.0000000000000000e+00 1.0125413018217305e-01 7.9854199260724332e+00 3.0330597013995306e+00 
137 1 2 7.4999990741184963e-01 -5.8805432846649374e+01 1.0000000000000000e+00 2.6490665256178820e+00 9.4867166722601333e+00 6.6589933234555483e+00 
131 1 2 7.4999990741184985e-01 -7.5170049682411133e+01 1.0000000000000000e+00 2.6490665256178287e+00 9.4867166722600658e+00 6.6589933234554710e+00 
138 1 2 7.4999990741184963e-01 -9.5853461755119724e+01 1.0000000000000000e+00 2.6490665256178194e+00 9.4867166722600516e+00 6.6589933234554133e+00 
159 1 2 7.4999990741184974e-01 -1.1136026151710536e+02 1.0000000000000000e+00 2.6490665256178887e+00 9.4867166722601368e+00 6.6589933234554453e+00 
20 1 2 7.4999992264508486e-01 -1.7388496677485043e+02 1.0000000000000000e+00 1.1599779042970015e+00 9.6391807377934935e+00 4.6172540821453616e+00 
1 1 2 7.4999992264508686e-01 -1.8487784243913862e+02 1.0000000000000000e+00 1.1599779052262309e+00 9.6391807415434769e+00 4.6172540892037848e+00 
27 1 2 7.4999992264508497e-01 -1.1614049761505903e+02 1.0000000000000000e+00 1.1599779043319045e+00 9.6391807379543462e+00 4.6172540824510069e+00 
63 1 2 7.4999992264508519e-01 -1.2786222577853358e+02 1.0000000000000000e+00 1.1599779043321583e+00 9.6391807379561012e+00 4.6172540824544157e+00 
12 1 2 7.5000024031199919e-01 -1.2322991777999736e+02 1.0000000000000000e+00 5.6557426973549341e-01 2.0954274623595044e+00 9.7987612349329929e+00 
104 1 2 7.5000024031199930e-01 -1.3667866094786038e+02 1.0000000000000000e+00 5.6557426973606462e-01 2.0954274623593032e+00 9.7987612349325790e+00 
61 1 2 7.5000004633943518e-01 -1.3112245203909691e+02 1.0000000000000000e+00 2.7975488322897490e+00 2.5670778112066617e+00 7.5733904565961563e+00 
19 1 2 7.5000004633943507e-01 -1.3362744719736241e+02 1.0000000000000000e+00 2.7975488322898805e+00 2.5670778112060599e+00 7.5733904565963153e+00 
147 1 2 7.5000004633943529e-01 -2.0715039385177852e+02 1.0000000000000000e+00 2.7975488322907442e+00 2.5670778112069312e+00 7.5733904565966785e+00 
55 1 2 7.5000004633943529e-01 -1.3235411118448911e+02 1.0000000000000000e+00 2.7975488322907442e+00 2.5670778112069312e+00 7.5733904565966785e+00 
97 1 2 7.5000004633943529e-01 -1.2463018744857432e+02 1.0000000000000000e+00 2.7975488322907442e+00 2.5670778112069312e+00 7.5733904565966785e+00 
35 1 2 7.5000028324932599e-01 -1.2705212228030352e+02 1.0000000000000000e+00 3.0227255624310803e+00 5.3835227608844018e+00 9.7285176125936612e+00 
28 1 2 7.5000028324932633e-01 -1.3076063917332905e+02 1.0000000000000000e+00 3.0227255624312361e+00 5.3835227608847749e+00 9.7285176125934107e+00 
57 1 2 7.5000028324932599e-01 -1.7562922655634932e+02 1.0000000000000000e+00 3.0227255624309781e+00 5.3835227608840102e+00 9.7285176125945920e+00 
51 1 2 7.5000028324932599e-01 -1.5031021495350728e+02 1.0000000000000000e+00 3.0227255624310803e+00 5.3835227608844018e+00 9.7285176125936612e+00 
34 1 2 7.5000028324932622e-01 -1.3500634504885898e+02 1.0000000000000000e+00 3.0227255624313232e+00 5.3835227608849516e+00 9.7285176125934374e+00 
143 1 2 7.4999975182341960e-01 -1.1926787570163606e+02 1.0000000000000000e+00 1.9706603182351130e+00 8.3714672006155393e+00 9.8844978480447256e+00 
77 1 2 7.4999975182341971e-01 -9.9715639513368714e+01 1.0000000000000000e+00 1.9706603182332507e+00 8.3714672006158874e+00 9.8844978480406738e+00 
112 1 2 7.4999975182341971e-01 -1.1981015038764676e+02 1.0000000000000000e+00 1.9706603182332507e+00 8.3714672006158874e+00 9.8844978480406738e+00 
113 1 2 7.4999975182341971e-01 -9.1097703868301394e+01 1.0000000000000000e+00 1.9706603182332507e+00 8.3714672006158874e+00 9.8844978480406738e+00 
142 1 2 7.4999975182341949e-01 -1.1620595326214844e+02 1.0000000000000000e+00 1.9706603182364315e+00 8.3714672006121980e+00 9.8844978480544228e+00 
103 1 2 7.4999988787714267e-01 -1.6012686731381635e+02 1.0000000000000000e+00 2.9042603300419778e-01 2.5455790507969640e+00 1.0415783680813705e+01 
6 1 2 7.4999988789288941e-01 -1.2008864609274652e+02 1.0000000000000000e+00 2.8658110080051696e-01 2.5467330845269043e+00 1.0411376380009584e+01 
180 1 2 7.4999977749422819e-01 -1.1931104146802072e+02 1.0000000000000000e+00 1.5052364769903270e+00 2.7606592462776591e+00 1.0084393475982504e+01 
144 1 2 7.4999977749828872e-01 -1.1606849941363626e+02 1.0000000000000000e+00 1.5052379785668624e+00 2.7606545017499573e+00 1.0084392322631754e+01 
116 1 2 7.5000000000017786e-01 -1.5648724487397797e+02 1.0000000000000000e+00 5.8192757976950720e+00 1.1882027954718648e+00 1.0956779711601282e+01 
115 1 2 7.5000000000017808e-01 -2.0374247731484670e+02 1.0000000000000000e+00 5.8192757976919847e+00 1.1882027954729393e+00 1.0956779711598534e+01 
71 1 2 7.5000000000017786e-01 -1.4172096640054932e+02 1.0000000000000000e+00 5.8192757976950720e+00 1.1882027954718648e+00 1.0956779711601282e+01 
151 1 2 7.5000000000017764e-01 -8.1413246451293531e+01 1.0000000000000000e+00 5.8192757976919349e+00 1.1882027954756669e+00 1.0956779711596301e+01 
145 1 2 7.5000000000018374e-01 -8.1319884923756490e+01 1.0000000000000000e+00 5.8192757976860872e+00 1.1882027954714691e+00 1.0956779711596049e+01 
136 1 2 7.4999984391716068e-01 -1.2479863739425696e+02 1.0000000000000000e+00 1.4952518835704485e+00 6.5952140064890665e+00 1.2858788335305757e+01 
94 1 2 7.4999984391716057e-01 -1.2010750773420150e+02 1.0000000000000000e+00 1.4952518835616591e+00 6.5952140065057270e+00 1.2858788335295356e+01 
100 1 2 7.4999984391716046e-01 -1.3619252590219267e+02 1.0000000000000000e+00 1.4952518835634931e+00 6.5952140065025269e+00 1.2858788335296781e+01 
101 1 2 7.4999984391716035e-01 -1.4631719902610661e+02 1.0000000000000000e+00 1.4952518835634840e+00 6.5952140065025304e+00 1.2858788335296808e+01 
130 1 2 7.4999984391716057e-01 -1.1870139124378409e+02 1.0000000000000000e+00 1.4952518835666524e+00 6.5952140064963665e+00 1.2858788335300984e+01 
120 1 2 7.4999999999964395e-01 -8.6718549657345449e+01 1.0000000000000000e+00 2.8725199571790081e+00 1.2490662763381129e+01 6.4823736903800910e-01 
67 1 2 7.4999999999964384e-01 -1.3543536820435116e+02 1.0000000000000000e+00 2.8725199728229645e+00 1.2490662698370022e+01 6.4823732525069833e-01 
68 1 2 7.4999999999964384e-01 -1.3751776165725337e+02 1.0000000000000000e+00 2.8725199728187802e+00 1.2490662698380667e+01 6.4823732526194244e-01 
114 1 2 7.4999999999964395e-01 -8.4029869311381333e+01 1.0000000000000000e+00 2.8725199571794278e+00 1.2490662763380538e+01 6.4823736903691476e-01 
124 1 2 7.4999999999964395e-01 -1.0395780966758252e+02 1.0000000000000000e+00 2.8725199892045183e+00 1.2490662630449062e+01 6.4823727940953557e-01 
140 1 2 7.4999975517540396e-01 -1.6493633772705104e+02 1.0000000000000000e+00 2.5731307630290750e+00 1.1249351314556661e+01 8.5639750807711117e+00 
134 1 2 7.4999975517540407e-01 -1.4929446941526277e+02 1.0000000000000000e+00 2.5731307630290852e+00 1.1249351314556547e+01 8.5639750807710691e+00 
47 1 2 7.4999975517540396e-01 -1.7311075406068210e+02 1.0000000000000000e+00 2.5731307630290972e+00 1.1249351314556593e+01 8.5639750807709980e+00 
132 1 2 7.5000021834203401e-01 -1.1505140476293208e+02 1.0000000000000000e+00 6.2291736377297713e-01 1.1268929785401136e+01 7.2487943833217177e+00 
119 1 2 7.5000021834204067e-01 -1.7662321468726142e+02 1.0000000000000000e+00 6.2291735999797493e-01 1.1268929766268938e+01 7.2487943878347920e+00 
126 1 2 7.5000021834206498e-01 -9.9691193339052418e+01 1.0000000000000000e+00 6.2291737513702605e-01 1.1268929757238860e+01 7.2487943296918056e+00 
123 1 2 7.5000021834204111e-01 -1.0131867832419846e+02 1.0000000000000000e+00 6.2291735999796305e-01 1.1268929766268922e+01 7.2487943878348267e+00 
177 1 2 7.4999991242565822e-01 -1.3964841919350030e+02 1.0000000000000000e+00 2.2332636955550708e-01 1.2069397869615397e+01 1.2597833992359735e+01 
171 1 2 7.4999991242565767e-01 -1.3990859106216382e+02 1.0000000000000000e+00 2.2332636955700239e-01 1.2069397869615146e+01 1.2597833992359584e+01 
165 1 2 7.5000001182789044e-01 -1.4753081298148942e+02 1.0000000000000000e+00 2.1030618390371973e+00 1.2681112776657859e+01 1.0197683787143283e+01 
85 1 2 7.5000001182789011e-01 -1.9181147870797042e+02 1.0000000000000000e+00 2.1030618390505533e+00 1.2681112776666204e+01 1.0197683787148797e+01 
166 1 2 7.5000001182788922e-01 -6.2328314620233840e+01 1.0000000000000000e+00 2.1030618393000360e+00 1.2681112776821070e+01 1.0197683787249030e+01 
172 1 2 7.5000001184820897e-01 -5.6722230108039184e+01 1.0000000000000000e+00 2.1030566212178052e+00 1.2681109528985283e+01 1.0197681667340044e+01 
128 1 2 7.4999986057514334e-01 -9.9969657671798188e+01 1.0000000000000000e+00 4.4297142867889008e+00 1.1571344308303313e+01 1.2015653573588750e+01 
170 1 2 7.4999986057498969e-01 -1.2805472485492868e+02 1.0000000000000000e+00 4.4297140892506759e+00 1.1571344196195991e+01 1.2015653789492292e+01 
78 1 2 7.4999986057514345e-01 -1.7703758363182845e+02 1.0000000000000000e+00 4.4297142859379637e+00 1.1571344307831049e+01 1.2015653574551669e+01 
129 1 2 7.4999976340161723e-01 -1.3019527248298459e+02 1.0000000000000000e+00 4.4527689849143988e+00 1.1595157523408920e+01 1.2013725542606137e+01 
164 1 2 7.4999977053303202e-01 -1.1006647531454608e+02 1.0000000000000000e+00 4.4513956060870665e+00 1.1593462955727892e+01 1.2013630923901552e+01 
73 1 2 7.4999978023925384e-01 -1.4431658710953602e+02 1.0000000000000000e+00 2.8281921285735629e+00 1.4226355640516021e+01 1.2477827712360019e+01 
72 1 2 7.4999978023925173e-01 -1.3615843952143646e+02 1.0000000000000000e+00 2.8281921291792225e+00 1.4226355640775605e+01 1.2477827712858629e+01 
110 1 2 7.4999978023925318e-01 -1.3922344215918389e+02 1.0000000000000000e+00 2.8281921285735456e+00 1.4226355640515973e+01 1.2477827712359913e+01 
74 1 2 7.4999978023925407e-01 -1.5413132767761638e+02 1.0000000000000000e+00 2.8281921285735954e+00 1.4226355640515949e+01 1.2477827712359874e+01 
152 1 2 7.5000017673716768e-01 -7.2926813487495068e+01 1.0000000000000000e+00 5.2640175058850736e-01 1.3185848785077797e+01 1.3958904629367412e+01 
157 1 2 7.5000017673717956e-01 -9.1155514165961392e+01 1.0000000000000000e+00 5.2640174966877407e-01 1.3185848791716356e+01 1.3958904630340125e+01 
158 1 2 7.5000017673717800e-01 -7.6905685751646899e+01 1.0000000000000000e+00 5.2640174977016407e-01 1.3185848790982000e+01 1.3958904630232556e+01 
118 1 2 7.5000023865278020e-01 -1.2114265191160699e+02 1.0000000000000000e+00 3.0047847258398075e-01 1.5687056489709260e+01 1.4207956584556598e+01 
149 1 2 7.5000023847136621e-01 -9.1922907572826119e+01 1.0000000000000000e+00 3.0044988920156201e-01 1.5687163817554529e+01 1.4207936069492503e+01 
150 1 2 7.5000023847136621e-01 -9.0988081853349343e+01 1.0000000000000000e+00 3.0044988920077453e-01 1.5687163817557279e+01 1.4207936069491945e+01 
139 1 2 7.4999975874954516e-01 -1.7132292738130195e+02 1.0000000000000000e+00 3.9771599373340547e+00 1.4892053656629713e+01 1.3975592353363197e+01 
154 1 2 7.4999975874954505e-01 -1.4161429988657500e+02 1.0000000000000000e+00 3.9771599373340893e+00 1.4892053656629718e+01 1.3975592353363265e+01 
169 1 2 7.5000032425995544e-01 -1.3654585817408869e+02 1.0000000000000000e+00 5.2386544942171138e+00 1.5465659717421326e+01 1.4861952940188509e+01 
163 1 2 7.5000032425995511e-01 -1.6830166880569854e+02 1.0000000000000000e+00 5.2386544942171227e+00 1.5465659717421351e+01 1.4861952940188512e+01 
3 1 2 7.5000032425995566e-01 -1.1041232508642517e+02 1.0000000000000000e+00 5.2386544942169850e+00 1.5465659717421273e+01 1.4861952940188630e+01 
168 1 2 7.5000032425995522e-01 -1.3825638229938482e+02 1.0000000000000000e+00 5.2386544942170596e+00 1.5465659717421238e+01 1.4861952940188530e+01 
17 1 2 7.5000001810270100e-01 -1.1734663020933002e+02 1.0000000000000000e+00 3.8261858462808740e-01 1.7951189925726247e+01 1.5459152931106177e+01 
109 1 2 7.5000001810270112e-01 -1.8270442133510110e+02 1.0000000000000000e+00 3.8261858462816717e-01 1.7951189925726233e+01 1.5459152931106074e+01 
89 1 2 7.5000001810269945e-01 -1.6423992457067962e+02 1.0000000000000000e+00 3.8261858462815629e-01 1.7951189925726240e+01 1.5459152931106150e+01 
79 1 2 7.5000001810269967e-01 -2.0736722035305363e+02 1.0000000000000000e+00 3.8261858462815246e-01 1.7951189925726240e+01 1.5459152931106123e+01 
45 1 2 7.4999770602559990e-01 -1.1675274764018646e+02 1.0000000000000000e+00 5.6272028109059660e+00 1.8320348678769580e+01 1.4709930061359785e+01 
81 1 2 7.4999770602495297e-01 -1.6463282874829514e+02 1.0000000000000000e+00 5.6272028942299750e+00 1.8320348456148093e+01 1.4709929998246599e+01 
46 1 2 7.4999770602409044e-01 -9.5116539612757705e+01 1.0000000000000000e+00 5.6272030235361470e+00 1.8320348175608856e+01 1.4709929871063576e+01 
87 1 2 7.4999770602721738e-01 -1.4982729734946369e+02 1.0000000000000000e+00 5.6272026161457855e+00 1.8320349265122047e+01 1.4709930179158851e+01 
36 1 2 7.4999999999964539e-01 -1.0983092166416949e+02 1.0000000000000000e+00 6.6183049945163233e-02 1.2568139702590493e+01 1.9530583727360067e+01 
30 1 2 7.4999999999964539e-01 -1.1742475342757231e+02 1.0000000000000000e+00 6.6183049953480899e-02 1.2568139702587345e+01 1.9530583727338964e+01 
33 1 2 7.4999999999964539e-01 -1.5094834914340004e+02 1.0000000000000000e+00 6.6183049945071237e-02 1.2568139702591107e+01 1.9530583727360341e+01 
32 1 2 7.4999999999964539e-01 -1.2767212507607168e+02 1.0000000000000000e+00 6.6183049953480899e-02 1.2568139702587345e+01 1.9530583727338964e+01 
29 1 2 7.4999999999964539e-01 -1.2500338050500497e+02 1.0000000000000000e+00 6.6183049945163233e-02 1.2568139702590493e+01 1.9530583727360067e+01 
102 1 2 7.5000000000009570e-01 -1.1657138815157403e+02 1.0000000000000000e+00 1.1960306301349107e+01 3.9314765469662785e+00 1.2996898107464055e+01 
62 1 2 7.5000000000009570e-01 -1.5360268396679572e+02 1.0000000000000000e+00 1.1960306301349107e+01 3.9314765469662785e+00 1.2996898107464055e+01 
65 1 2 7.5000000000009570e-01 -1.1620374945073095e+02 1.0000000000000000e+00 1.1960306301349107e+01 3.9314765469662785e+00 1.2996898107464055e+01 
66 1 2 7.5000000000009570e-01 -9.6779069691825526e+01 1.0000000000000000e+00 1.1960306301349107e+01 3.9314765469662785e+00 1.2996898107464055e+01 
53 1 2 7.5000000000009559e-01 -1.5441451674722191e+02 1.0000000000000000e+00 1.1960306301349121e+01 3.9314765469662429e+00 1.2996898107463943e+01 
18 1 2 7.5000000000017908e-01 -1.0069590887372161e+02 1.0000000000000000e+00 7.1091006527937912e+00 1.9468114953496684e+01 8.8334971503792321e+00 
59 1 2 7.5000000000017886e-01 -1.1211328954936388e+02 1.0000000000000000e+00 7.1091006538489330e+00 1.9468114953592110e+01 8.8334971509428879e+00 
54 1 2 7.5000000000017841e-01 -1.2601145128618168e+02 1.0000000000000000e+00 7.1091006529160286e+00 1.9468114953507982e+01 8.8334971504443249e+00 
60 1 2 7.5000000000017886e-01 -8.3799680572006977e+01 1.0000000000000000e+00 7.1091006538489330e+00 1.9468114953592110e+01 8.8334971509428879e+00 
24 1 2 7.5000000000017986e-01 -1.0610762312849792e+02 1.0000000000000000e+00 7.1091006530234129e+00 1.9468114953517837e+01 8.8334971505015965e+00 
52 1 2 7.4998140585016337e-01 -1.4842140986838422e+02 1.0000000000000000e+00 1.2708959657250674e+01 1.4131782163890243e+01 1.1994750087645691e+01 
22 1 2 7.4998140585016337e-01 -1.2979520466546836e+02 1.0000000000000000e+00 1.2708959657250697e+01 1.4131782163890248e+01 1.1994750087645668e+01 
58 1 2 7.4998140585016337e-01 -1.4018097343202487e+02 1.0000000000000000e+00 1.2708959657250690e+01 1.4131782163890243e+01 1.1994750087645683e+01 
16 1 2 7.4998140585016337e-01 -1.2477371805887184e+02 1.0000000000000000e+00 1.2708959657250697e+01 1.4131782163890248e+01 1.1994750087645668e+01 
23 1 2 7.4998140585016337e-01 -1.1426105767843985e+02 1.0000000000000000e+00 1.2708959657250691e+01 1.4131782163890247e+01 1.1994750087645675e+01 
99 1 2 7.5001889227942797e-01 -1.2677418552742515e+02 1.0000000000000000e+00 1.2718200903151974e+01 1.7067679518314929e+01 1.2710568899581634e+01 
92 1 2 7.5001889227942797e-01 -1.0719050043079206e+02 1.0000000000000000e+00 1.2718200903151974e+01 1.7067679518314929e+01 1.2710568899581634e+01 
98 1 2 7.5001889227942797e-01 -1.0173089914534944e+02 1.0000000000000000e+00 1.2718200903151974e+01 1.7067679518314929e+01 1.2710568899581634e+01 
86 1 2 7.5001889227942797e-01 -1.3407452878576203e+02 1.0000000000000000e+00 1.2718200903151974e+01 1.7067679518314929e+01 1.2710568899581634e+01 
93 1 2 7.5001889227942797e-01 -1.2604691005480396e+02 1.0000000000000000e+00 1.2718200903151974e+01 1.7067679518314929e+01 1.2710568899581634e+01 
83 1 2 7.5000200386440807e-01 -1.7844067933124393e+02 1.0000000000000000e+00 7.2631701565564502e+00 1.9589426870829691e+01 1.5431345716149597e+01 
82 1 2 7.5000200386440807e-01 -1.5729906455168981e+02 1.0000000000000000e+00 7.2631701565564502e+00 1.9589426870829691e+01 1.5431345716149597e+01 
96 1 2 7.5000200386440807e-01 -1.6797873254248645e+02 1.0000000000000000e+00 7.2631701565564502e+00 1.9589426870829691e+01 1.5431345716149597e+01 
84 1 2 7.5000200386440807e-01 -7.9395216377949481e+01 1.0000000000000000e+00 7.2631701565564502e+00 1.9589426870829691e+01 1.5431345716149597e+01 
14 1 2 7.4999982743007154e-01 -1.9921830323772994e+02 1.0000000000000000e+00 9.9842395971192879e+00 1.8540589582685360e+01 1.4946500009278743e+01 
56 1 2 7.4999982743007143e-01 -1.3416902742029538e+02 1.0000000000000000e+00 9.9842395971192754e+00 1.8540589582685332e+01 1.4946500009278720e+01 
49 1 2 7.4999982743007154e-01 -1.7071917875039480e+02 1.0000000000000000e+00 9.9842395971193092e+00 1.8540589582685413e+01 1.4946500009278745e+01 
13 1 2 7.4999982743007154e-01 -1.6600366576833989e+02 1.0000000000000000e+00 9.9842395971192879e+00 1.8540589582685360e+01 1.4946500009278743e+01 
50 1 2 7.4999982743007154e-01 -1.5985914190547066e+02 1.0000000000000000e+00 9.9842395971192879e+00 1.8540589582685360e+01 1.4946500009278743e+01 
88 1 2 7.4999999999987998e-01 -1.5440859800669705e+02 1.0000000000000000e+00 9.9137206486911822e+00 1.2166689042042725e+01 1.9848458197289201e+01 
90 1 2 7.4999999999980282e-01 -1.3988279197720374e+02 1.0000000000000000e+00 9.9137206486908251e+00 1.2166689042042430e+01 1.9848458197290245e+01 
95 1 2 7.4999999999987998e-01 -1.6800731869999788e+02 1.0000000000000000e+00 9.9137206486911822e+00 1.2166689042042725e+01 1.9848458197289201e+01 
48 1 2 7.4999999999983613e-01 -1.4998652162645664e+02 1.0000000000000000e+00 9.9137206486906049e+00 1.2166689042041900e+01 1.9848458197289254e+01 
125 1 2 7.4999999999987998e-01 -1.6205733334518987e+02 1.0000000000000000e+00 9.9137206486911822e+00 1.2166689042042725e+01 1.9848458197289201e+01 
26 1 2 7.4999999999985034e-01 -1.4554115591684030e+02 1.0000000000000000e+00 9.4406013345913973e+00 1.4221995591048410e+01 1.7684537616493280e+01 
162 1 2 7.4999999999985156e-01 -1.1116467647369956e+02 1.0000000000000000e+00 9.4406013343068551e+00 1.4221995590729575e+01 1.7684537616252680e+01 
155 1 2 7.4999999999986000e-01 -1.3240185240965570e+02 1.0000000000000000e+00 9.4406013391663084e+00 1.4221995594501655e+01 1.7684537618773092e+01 
160 1 2 7.4999999999986555e-01 -1.4951610488524733e+02 1.0000000000000000e+00 9.4406013358882426e+00 1.4221995588614334e+01 1.7684537613898080e+01 
156 1 2 7.4999999999985156e-01 -1.0999620768875567e+02 1.0000000000000000e+00 9.4406013343068551e+00 1.4221995590729575e+01 1.7684537616252680e+01 
178 1 2 7.5000012433367080e-01 -1.3786927776203325e+02 1.0000000000000000e+00 1.9744720553283575e+01 4.3170851153082364e+00 1.3185897708890652e+01 
39 1 2 7.5000003941733584e-01 -9.6104980716417643e+01 1.0000000000000000e+00 1.9364029833019845e+01 5.4214364883099906e+00 1.0499456284839525e+01 
69 1 2 7.5000003941733562e-01 -1.3891661451733188e+02 1.0000000000000000e+00 1.9364029833014921e+01 5.4214364882996371e+00 1.0499456284833228e+01 
4 1 2 7.5000003941733584e-01 -1.8788411494417983e+02 1.0000000000000000e+00 1.9364029833019689e+01 5.4214364883100119e+00 1.0499456284839681e+01 
40 1 2 7.5000003941733584e-01 -1.0186979138994023e+02 1.0000000000000000e+00 1.9364029833019689e+01 5.4214364883100119e+00 1.0499456284839681e+01 
31 1 2 7.5000003941733562e-01 -4.3303015750215209e+01 1.0000000000000000e+00 1.9364029833014921e+01 5.4214364882996371e+00 1.0499456284833228e+01 
121 1 2 7.5000000000009559e-01 -1.1586250159182198e+02 1.0000000000000000e+00 1.4203859085113448e+01 2.1247451583761472e+00 1.3909516193896224e+01 
64 1 2 7.5000000000009559e-01 -1.4191610503881233e+02 1.0000000000000000e+00 1.4203859085113448e+01 2.1247451583761472e+00 1.3909516193896224e+01 
105 1 2 7.5000000000009559e-01 -1.5296787147853109e+02 1.0000000000000000e+00 1.4203859085113448e+01 2.1247451583761472e+00 1.3909516193896224e+01 
70 1 2 7.5000000000009559e-01 -1.7269444560545492e+02 1.0000000000000000e+00 1.4203859085113448e+01 2.1247451583761472e+00 1.3909516193896224e+01 
106 1 2 7.5000000000009559e-01 -1.8441953884498957e+02 1.0000000000000000e+00 1.4203859085113448e+01 2.1247451583761472e+00 1.3909516193896224e+01 
179 1 2 7.4999999380590165e-01 -1.5941850597895723e+02 1.0000000000000000e+00 1.8590142609239084e+01 4.3038573909550051e+00 1.3516997787626048e+01 
8 1 2 7.4999998582193517e-01 -1.6354395632626017e+02 1.0000000000000000e+00 1.9164001423338256e+01 3.7911455357409007e+00 1.3787340053600095e+01 
2 1 2 7.4999998582181171e-01 -1.6576831744772716e+02 1.0000000000000000e+00 1.9163989183868409e+01 3.7911464711776937e+00 1.3787331802202342e+01 
173 1 2 7.4999998015397806e-01 -1.4787339010039821e+02 1.0000000000000000e+00 1.8978043328711820e+01 5.1718038511193747e+00 1.4417672839570736e+01 
176 1 2 7.4999999714566545e-01 -1.0615367272831227e+02 1.0000000000000000e+00 1.9265452084717797e+01 5.2181868570706023e+00 1.4462472573367707e+01 
175 1 2 7.4999999714566445e-01 -1.0760564989530816e+02 1.0000000000000000e+00 1.9265452084717818e+01 5.2181868570707959e+00 1.4462472573367545e+01 
161 1 2 7.4999999999946276e-01 -5.2425961362489886e+01 1.0000000000000000e+00 1.6047514415504871e+01 1.1569288100064821e+01 9.1324721016595345e-01 
167 1 2 7.4999999999946276e-01 -6.0704428292776825e+01 1.0000000000000000e+00 1.6047514415504871e+01 1.1569288100064821e+01 9.1324721016595345e-01 
108 1 2 7.4999999999946276e-01 -1.8905977992760816e+02 1.0000000000000000e+00 1.6047514415504871e+01 1.1569288100064821e+01 9.1324721016595345e-01 
107 1 2 7.4999999999946276e-01 -1.3999218066233720e+02 1.0000000000000000e+00 1.6047514415504871e+01 1.1569288100064821e+01 9.1324721016595345e-01 
80 1 2 7.4999999999946276e-01 -1.8230391984232182e+02 1.0000000000000000e+00 1.6047514415504871e+01 1.1569288100064821e+01 9.1324721016595345e-01 
153 1 2 7.4999999999946287e-01 -1.6463033360945195e+02 1.0000000000000000e+00 1.6421299154815472e+01 1.0717130244815605e+01 3.7881021863649833e+00 
117 1 2 7.4999999999946287e-01 -1.5603838773238979e+02 1.0000000000000000e+00 1.6421299154815472e+01 1.0717130244815605e+01 3.7881021863649833e+00 
146 1 2 7.4999999999946287e-01 -1.7079342742298243e+02 1.0000000000000000e+00 1.6421299154815472e+01 1.0717130244815605e+01 3.7881021863649833e+00 
111 1 2 7.4999999999946287e-01 -2.1881764689038300e+02 1.0000000000000000e+00 1.6421299154815472e+01 1.0717130244815605e+01 3.7881021863649833e+00 
148 1 2 7.4999999999946287e-01 -1.9415541171839831e+02 1.0000000000000000e+00 1.6421299154815472e+01 1.0717130244815605e+01 3.7881021863649833e+00 
42 1 2 7.5000016595718810e-01 -1.5556712478399817e+02 1.0000000000000000e+00 1.8879267056440391e+01 1.3104951094372746e+01 9.3676163056324047e+00 
25 1 2 7.5000016595707364e-01 -2.9673470630474956e+01 1.0000000000000000e+00 1.8879267948780825e+01 1.3104950865560715e+01 9.3676164132015991e+00 
15 1 2 7.5000016553287108e-01 -1.7013476125713998e+02 1.0000000000000000e+00 1.8882383807470308e+01 1.3104121346280106e+01 9.3679841513334292e+00 
21 1 2 7.5000016553287085e-01 -1.8774387865139883e+02 1.0000000000000000e+00 1.8882383807468194e+01 1.3104121346280440e+01 9.3679841513331699e+00 
11 1 2 7.4999983358664757e-01 -1.6776098160664961e+02 1.0000000000000000e+00 1.8630649005743944e+01 1.3363594723037473e+01 7.2415208656789023e+00 
10 1 2 7.4999983357994049e-01 -1.7184280857725736e+02 1.0000000000000000e+00 1.8630728193577053e+01 1.3363644419671880e+01 7.2415002647879385e+00 
5 1 2 7.4999983356923283e-01 -1.4164619770860412e+02 1.0000000000000000e+00 1.8630852240601282e+01 1.3363717897719726e+01 7.2414667565589861e+00 
133 1 2 7.4999989290987157e-01 -1.4724160651942088e+02 1.0000000000000000e+00 1.8834552347168486e+01 1.3727917746713706e+01 7.4255262322476927e+00 
122 1 2 7.5000008688908593e-01 -1.2065506512841128e+02 1.0000000000000000e+00 1.9919257334543733e+01 1.2545404328402988e+01 1.2319422562963267e+01 
91 1 2 7.5000008443872579e-01 -1.8905744030425171e+02 1.0000000000000000e+00 1.9919668412705544e+01 1.2540771324853957e+01 1.2320111428890341e+01 
37 1 2 7.4999987931881329e-01 -1.4904430141211995e+02 1.0000000000000000e+00 1.7533503578926844e+01 1.5027848103931667e+01 1.3622016829533178e+01 
43 1 2 7.4999987931881340e-01 -1.6544792821497487e+02 1.0000000000000000e+00 1.7533503578926858e+01 1.5027848103931674e+01 1.3622016829533122e+01 
44 1 2 7.4999987931881285e-01 -1.8982530243391130e+02 1.0000000000000000e+00 1.7533503578926897e+01 1.5027848103931657e+01 1.3622016829532978e+01 
7 1 2 7.4999987931881340e-01 -1.5046099025595302e+02 1.0000000000000000e+00 1.7533503578926858e+01 1.5027848103931674e+01 1.3622016829533122e+01 
38 1 2 7.4999987931881340e-01 -1.6623070021162803e+02 1.0000000000000000e+00 1.7533503578926808e+01 1.5027848103931642e+01 1.3622016829533321e+01 
141 1 2 7.4999987149436398e-01 -1.7466330300068373e+02 1.0000000000000000e+00 1.9807849218538195e+01 1.6018181209930674e+01 1.6041301094182561e+01 
135 1 2 7.4999987149436387e-01 -2.0461208865025367e+02 1.0000000000000000e+00 1.9807849218530347e+01 1.6018181209933232e+01 1.6041301094181222e+01 
127 1 2 7.4999987149966496e-01 -1.1030850035904868e+02 1.0000000000000000e+00 1.9808026467706163e+01 1.6018135709307526e+01 1.6041339335866471e+01 

Velocities

76 -6.6241965980569389e-02 -3.1619599469416260e-01 1.9856142200549692e-01
75 -6.6241965980768952e-02 -3.1619599469407533e-01 1.9856142200549226e-01
9 -6.6241965969988367e-02 -3.1619599469860854e-01 1.9856142200581084e-01
174 -6.6240611266277158e-02 -3.1619376253981601e-01 1.9856350439764855e-01
41 -6.6240593790440630e-02 -3.1619375987742671e-01 1.9856350135188888e-01
137 -6.6237698413873836e-02 -3.1615973394153829e-01 1.9857359786399667e-01
131 -6.6237698413873988e-02 -3.1615973394153835e-01 1.9857359786399667e-01
138 -6.6237698413876514e-02 -3.1615973394153613e-01 1.9857359786399681e-01
159 -6.6237698413874779e-02 -3.1615973394153768e-01 1.9857359786399656e-01
20 -6.6230042683661366e-02 -3.1619941043128941e-01 1.9856214095721872e-01
1 -6.6230042683641216e-02 -3.1619941043124489e-01 1.9856214095703165e-01
27 -6.6230042683659493e-02 -3.1619941043128885e-01 1.9856214095721225e-01
63 -6.6230042683659437e-02 -3.1619941043128891e-01 1.9856214095721228e-01
12 -6.6265190591688922e-02 -3.1596179817906467e-01 1.9901222029571472e-01
104 -6.6265190591689019e-02 -3.1596179817906506e-01 1.9901222029571489e-01
61 -6.6265596616974759e-02 -3.1598786972546328e-01 1.9900419327388624e-01
19 -6.6265596616974703e-02 -3.1598786972546283e-01 1.9900419327388633e-01
147 -6.6265596616974509e-02 -3.1598786972546328e-01 1.9900419327388563e-01
55 -6.6265596616974509e-02 -3.1598786972546328e-01 1.9900419327388563e-01
97 -6.6265596616974509e-02 -3.1598786972546328e-01 1.9900419327388563e-01
35 -6.6220161557651661e-02 -3.1594544281750891e-01 1.9891937535167092e-01
28 -6.6220161557651466e-02 -3.1594544281750903e-01 1.9891937535167084e-01
57 -6.6220161557651411e-02 -3.1594544281750941e-01 1.9891937535167095e-01
51 -6.6220161557651661e-02 -3.1594544281750891e-01 1.9891937535167092e-01
34 -6.6220161557651674e-02 -3.1594544281750936e-01 1.9891937535167084e-01
143 -6.6225379027960302e-02 -3.1597338878592518e-01 1.9878503877909701e-01
77 -6.6225379027960052e-02 -3.1597338878592518e-01 1.9878503877909726e-01
112 -6.6225379027960052e-02 -3.1597338878592518e-01 1.9878503877909726e-01
113 -6.6225379027960052e-02 -3.1597338878592518e-01 1.9878503877909726e-01
142 -6.6225379027959899e-02 -3.1597338878592535e-01 1.9878503877909667e-01
103 -6.6245474786825673e-02 -3.1593971416150546e-01 1.9901302213199010e-01
6 -6.6245412006263674e-02 -3.1593972792294922e-01 1.9901313618661842e-01
180 -6.6274374230426883e-02 -3.1595929570095793e-01 1.9900081502282754e-01
144 -6.6274374091582017e-02 -3.1595929555137670e-01 1.9900081523017071e-01
116 -6.9166464737948991e-02 -3.0948432571920376e-01 1.9958514384582218e-01
115 -6.9166464737948199e-02 -3.0948432571920498e-01 1.9958514384581974e-01
71 -6.9166464737948991e-02 -3.0948432571920376e-01 1.9958514384582218e-01
151 -6.9166464737946173e-02 -3.0948432571920942e-01 1.9958514384581910e-01
145 -6.9166464738014216e-02 -3.0948432571908369e-01 1.9958514384593679e-01
136 -6.6261838983947580e-02 -3.1588870705485789e-01 1.9896523941176394e-01
94 -6.6261838983950286e-02 -3.1588870705486088e-01 1.9896523941176225e-01
100 -6.6261838983950036e-02 -3.1588870705486044e-01 1.9896523941176258e-01