LAMMPS data file via write_data, version 30 Jul 2016, timestep = 50000000

180 atoms
2 atom types

0.0000000000000000e+00 2.0000000000000000e+01 xlo xhi
0.0000000000000000e+00 2.0000000000000000e+01 ylo yhi
0.0000000000000000e+00 2.0000000000000000e+01 zlo zhi

Masses

1 3.896
2 4.31

Atoms # meso-molecular

107 1 2 1.0280004332202242e+00 -3.7662032653473369e+02 1.0000000000000000e+00 1.2572952529162286e+01 7.4888529536646100e+00 2.4091841626609662e+00 
94 1 2 1.0280004331404420e+00 -3.4313057057548332e+02 1.0000000000000000e+00 1.2573015943863636e+01 7.4889535420920286e+00 2.4091961870891145e+00 
65 1 2 1.0280004325416654e+00 -4.7730776711958839e+02 1.0000000000000000e+00 1.2572853096556045e+01 7.4890860616621469e+00 2.4092284869930278e+00 
71 1 2 1.0280004325128933e+00 -4.2067293760590832e+02 1.0000000000000000e+00 1.2572844808671237e+01 7.4890919755265877e+00 2.4092299978604426e+00 
72 1 2 1.0280004325376273e+00 -4.8117196446258208e+02 1.0000000000000000e+00 1.2572870198456309e+01 7.4891046781206896e+00 2.4092303567037319e+00 
36 1 2 1.0280004323760452e+00 -5.4244629288649242e+02 1.0000000000000000e+00 1.2572786603249572e+01 7.4891018253471033e+00 2.4092354846220996e+00 
51 1 2 1.0280004322511991e+00 -3.4402044608288844e+02 1.0000000000000000e+00 1.2572724570338220e+01 7.4891021002398528e+00 2.4092396829543143e+00 
22 1 2 1.0280004322511995e+00 -3.2730353240142819e+02 1.0000000000000000e+00 1.2572724570338497e+01 7.4891021002397169e+00 2.4092396829542730e+00 
57 1 2 1.0280004322511991e+00 -3.4530731698952434e+02 1.0000000000000000e+00 1.2572724570338220e+01 7.4891021002398528e+00 2.4092396829543143e+00 
15 1 2 1.0280004322511991e+00 -3.5720153087044736e+02 1.0000000000000000e+00 1.2572724570338346e+01 7.4891021002397657e+00 2.4092396829542908e+00 
21 1 2 1.0280004322511995e+00 -3.2977083952642948e+02 1.0000000000000000e+00 1.2572724570338497e+01 7.4891021002397169e+00 2.4092396829542730e+00 
16 1 2 1.0280004322511984e+00 -3.3839036213428579e+02 1.0000000000000000e+00 1.2572724570338401e+01 7.4891021002394691e+00 2.4092396829542411e+00 
52 1 2 1.0280004322511995e+00 -2.8499689145936060e+02 1.0000000000000000e+00 1.2572724570338609e+01 7.4891021002397276e+00 2.4092396829542717e+00 
30 1 2 1.0280004322886900e+00 -5.1988304441487958e+02 1.0000000000000000e+00 1.2572750268843745e+01 7.4891089073734216e+00 2.4092390630063050e+00 
59 1 2 1.0280004323076450e+00 -4.3616021832235128e+02 1.0000000000000000e+00 1.2572849861100631e+01 7.4891967078806925e+00 2.4092466143700086e+00 
60 1 2 1.0280004322270304e+00 -4.2015857477861476e+02 1.0000000000000000e+00 1.2572938482834379e+01 7.4893221714159424e+00 2.4092610286363145e+00 
66 1 2 1.0280004320583165e+00 -5.0542746604431699e+02 1.0000000000000000e+00 1.2574208035967619e+01 7.4906346318004271e+00 2.4093916153166193e+00 
35 1 2 1.0280021886073833e+00 -6.2132802373315599e+02 1.0000000000000000e+00 1.3121256113462595e+01 6.1390026182854065e+00 3.0062757223791827e+00 
28 1 2 1.0279992259119033e+00 -5.6478200419666268e+02 1.0000000000000000e+00 1.2397816584533709e+01 7.6686930804487368e+00 4.6594023144334500e+00 
33 1 2 1.0279992263909028e+00 -4.8211671578376360e+02 1.0000000000000000e+00 1.2391969525952026e+01 7.6605800333372960e+00 4.6663646539192412e+00 
29 1 2 1.0279992265285540e+00 -5.0451066498151050e+02 1.0000000000000000e+00 1.2389894251325535e+01 7.6580615499086946e+00 4.6682749714014546e+00 
105 1 2 1.0279992266458362e+00 -4.3935197994640578e+02 1.0000000000000000e+00 1.2382283422267959e+01 7.6518864901023571e+00 4.6707780235273599e+00 
63 1 2 1.0279992274412060e+00 -5.1063832248363991e+02 1.0000000000000000e+00 1.2374381083072402e+01 7.6417242391293172e+00 4.6784061350641934e+00 
69 1 2 1.0279992278955394e+00 -4.9844793455921234e+02 1.0000000000000000e+00 1.2369080174180510e+01 7.6358620541109854e+00 4.6820160211812381e+00 
70 1 2 1.0279992280258103e+00 -4.4508600252320520e+02 1.0000000000000000e+00 1.2367166961193684e+01 7.6340287707710335e+00 4.6828964365088437e+00 
106 1 2 1.0279992279816779e+00 -4.2070991483792125e+02 1.0000000000000000e+00 1.2366905595119450e+01 7.6341568503121113e+00 4.6824914606296115e+00 
34 1 2 1.0279992281392676e+00 -5.6309295649671355e+02 1.0000000000000000e+00 1.2368474401058908e+01 7.6340454533794722e+00 4.6840099307782195e+00 
99 1 2 1.0279992282850368e+00 -4.3571476515133457e+02 1.0000000000000000e+00 1.2393870559562775e+01 7.6492500237264602e+00 4.6840172698937304e+00 
23 1 2 1.0280000150587620e+00 -4.7822515830937442e+02 1.0000000000000000e+00 1.3150391018045758e+01 5.9610978325315740e+00 7.0180157437229660e+00 
58 1 2 1.0279997691905169e+00 -3.7075421507439785e+02 1.0000000000000000e+00 1.2446161298221655e+01 6.1262661032370547e+00 6.0514593869795279e+00 
13 1 2 1.0279998283211731e+00 -4.1816081646267645e+02 1.0000000000000000e+00 1.5850302792609565e+01 3.9141957052089036e+00 4.3719410427052230e+00 
103 1 2 1.0279998283211731e+00 -3.6092124889033255e+02 1.0000000000000000e+00 1.5850302792609565e+01 3.9141957052089036e+00 4.3719410427052230e+00 
67 1 2 1.0279998283211731e+00 -4.2078649378806659e+02 1.0000000000000000e+00 1.5850302792609565e+01 3.9141957052089036e+00 4.3719410427052230e+00 
25 1 2 1.0279998283211731e+00 -5.5775026457066656e+02 1.0000000000000000e+00 1.5850302792609565e+01 3.9141957052089036e+00 4.3719410427052230e+00 
31 1 2 1.0279998283211731e+00 -5.1083448229542506e+02 1.0000000000000000e+00 1.5850302792609565e+01 3.9141957052089036e+00 4.3719410427052230e+00 
26 1 2 1.0279998283211731e+00 -4.6073229334845206e+02 1.0000000000000000e+00 1.5850302792609565e+01 3.9141957052089036e+00 4.3719410427052230e+00 
50 1 2 1.0279998283211731e+00 -4.5366900144038590e+02 1.0000000000000000e+00 1.5850302792609565e+01 3.9141957052089036e+00 4.3719410427052230e+00 
24 1 2 1.0279998283211731e+00 -5.7542571081616404e+02 1.0000000000000000e+00 1.5850302792609565e+01 3.9141957052089036e+00 4.3719410427052230e+00 
91 1 2 1.0279998283211731e+00 -3.9285636408644717e+02 1.0000000000000000e+00 1.5850302792609565e+01 3.9141957052089036e+00 4.3719410427052230e+00 
104 1 2 1.0279998283211731e+00 -3.4463005392095261e+02 1.0000000000000000e+00 1.5850302792609565e+01 3.9141957052089036e+00 4.3719410427052230e+00 
61 1 2 1.0279998283211731e+00 -4.0363083015283303e+02 1.0000000000000000e+00 1.5850302792609565e+01 3.9141957052089036e+00 4.3719410427052230e+00 
32 1 2 1.0279998283211731e+00 -3.8342908870991823e+02 1.0000000000000000e+00 1.5850302792609565e+01 3.9141957052089036e+00 4.3719410427052230e+00 
20 1 2 1.0279998283211731e+00 -3.9091611766521908e+02 1.0000000000000000e+00 1.5850302792609565e+01 3.9141957052089036e+00 4.3719410427052230e+00 
19 1 2 1.0279998283211731e+00 -5.0342788103118892e+02 1.0000000000000000e+00 1.5850302792609565e+01 3.9141957052089036e+00 4.3719410427052230e+00 
56 1 2 1.0279998283211731e+00 -4.1726504409070316e+02 1.0000000000000000e+00 1.5850302792609565e+01 3.9141957052089036e+00 4.3719410427052230e+00 
49 1 2 1.0279998283211731e+00 -4.2979614849135930e+02 1.0000000000000000e+00 1.5850302792609565e+01 3.9141957052089036e+00 4.3719410427052230e+00 
14 1 2 1.0279998283211731e+00 -4.2587152529897975e+02 1.0000000000000000e+00 1.5850302792609565e+01 3.9141957052089036e+00 4.3719410427052230e+00 
55 1 2 1.0279998283211731e+00 -4.3186497954135785e+02 1.0000000000000000e+00 1.5850302792609565e+01 3.9141957052089036e+00 4.3719410427052230e+00 
97 1 2 1.0279998283211731e+00 -3.7031268550488255e+02 1.0000000000000000e+00 1.5850302792609565e+01 3.9141957052089036e+00 4.3719410427052230e+00 
62 1 2 1.0279998283211731e+00 -4.2325478886179263e+02 1.0000000000000000e+00 1.5850302792609565e+01 3.9141957052089036e+00 4.3719410427052230e+00 
68 1 2 1.0279998283211731e+00 -4.6900593399755252e+02 1.0000000000000000e+00 1.5850302792609565e+01 3.9141957052089036e+00 4.3719410427052230e+00 
96 1 2 1.0280047226342657e+00 -4.1987564307840375e+02 1.0000000000000000e+00 1.3788836177030559e+01 5.9386204052007940e+00 3.1924882649801263e+00 
64 1 2 1.0279999514105465e+00 -4.9197884976940406e+02 1.0000000000000000e+00 1.5225743336898082e+01 4.2991023884135364e+00 6.4692853911620345e+00 
27 1 2 1.0280001240318859e+00 -4.7034158894754859e+02 1.0000000000000000e+00 1.3604178998023649e+01 5.4729962812974273e+00 7.2971383867133826e+00 
100 1 2 1.0280001249405497e+00 -3.5791144556968447e+02 1.0000000000000000e+00 1.3512482005899063e+01 5.3316307126103002e+00 7.2784349529186425e+00 
139 1 2 1.0280001249825488e+00 -5.2341798196023251e+02 1.0000000000000000e+00 1.3506807171461981e+01 5.3366107680440056e+00 7.2772651223980578e+00 
170 1 2 1.0280001249825503e+00 -5.3104296847988769e+02 1.0000000000000000e+00 1.3506807171461983e+01 5.3366107680440074e+00 7.2772651223980507e+00 
98 1 2 1.0280001249825503e+00 -3.4148639872664847e+02 1.0000000000000000e+00 1.3506807171461983e+01 5.3366107680440074e+00 7.2772651223980507e+00 
171 1 2 1.0280001249825503e+00 -4.6917776126302670e+02 1.0000000000000000e+00 1.3506807171461983e+01 5.3366107680440074e+00 7.2772651223980507e+00 
163 1 2 1.0280001249825503e+00 -5.4380129643879434e+02 1.0000000000000000e+00 1.3506807171461983e+01 5.3366107680440074e+00 7.2772651223980507e+00 
141 1 2 1.0280001249825503e+00 -4.9606860487251987e+02 1.0000000000000000e+00 1.3506807171461983e+01 5.3366107680440074e+00 7.2772651223980507e+00 
135 1 2 1.0280001249825503e+00 -5.1432972162964609e+02 1.0000000000000000e+00 1.3506807171461983e+01 5.3366107680440074e+00 7.2772651223980507e+00 
177 1 2 1.0280001249825503e+00 -4.2392150408456286e+02 1.0000000000000000e+00 1.3506807171461983e+01 5.3366107680440074e+00 7.2772651223980507e+00 
169 1 2 1.0280001249825503e+00 -6.0138088714266257e+02 1.0000000000000000e+00 1.3506807171461983e+01 5.3366107680440074e+00 7.2772651223980507e+00 
178 1 2 1.0280001249825490e+00 -4.4189876281976598e+02 1.0000000000000000e+00 1.3506807171462016e+01 5.3366107680439807e+00 7.2772651223980649e+00 
133 1 2 1.0280001249825488e+00 -4.9422260853562653e+02 1.0000000000000000e+00 1.3506807171461496e+01 5.3366107680439017e+00 7.2772651223979121e+00 
134 1 2 1.0280001249825499e+00 -4.6845028969760102e+02 1.0000000000000000e+00 1.3506807171461665e+01 5.3366107680439230e+00 7.2772651223979556e+00 
127 1 2 1.0280001249825521e+00 -6.2483617652398152e+02 1.0000000000000000e+00 1.3506807171462002e+01 5.3366107680439896e+00 7.2772651223980445e+00 
140 1 2 1.0280001249825503e+00 -5.0044552298587678e+02 1.0000000000000000e+00 1.3506807171461983e+01 5.3366107680440074e+00 7.2772651223980507e+00 
175 1 2 1.0280001249825503e+00 -6.3832698391592021e+02 1.0000000000000000e+00 1.3506807171461983e+01 5.3366107680440074e+00 7.2772651223980507e+00 
176 1 2 1.0280001249825503e+00 -5.7120574924424341e+02 1.0000000000000000e+00 1.3506807171461983e+01 5.3366107680440074e+00 7.2772651223980507e+00 
4 1 2 1.0280007351104707e+00 -5.2414248890025453e+02 1.0000000000000000e+00 1.5485781763704292e+01 4.0687866542249118e+00 1.8523383545844954e+01 
5 1 2 1.0280007351104707e+00 -6.7027270311384996e+02 1.0000000000000000e+00 1.5485781763704292e+01 4.0687866542249118e+00 1.8523383545844954e+01 
83 1 2 1.0280007333491137e+00 -4.6340051583522273e+02 1.0000000000000000e+00 1.5485844296580659e+01 4.0685715126375381e+00 1.8522875779958270e+01 
76 1 2 1.0280003039774781e+00 -3.6586130100176933e+02 1.0000000000000000e+00 1.5591100573103557e+01 3.8734625022293470e+00 1.8355126402262133e+01 
124 1 2 1.0279992182396323e+00 -3.9226830517547393e+02 1.0000000000000000e+00 1.8459826639239154e+01 4.7140939046721817e+00 1.8454551871092796e+01 
125 1 2 1.0279991976478979e+00 -4.4615163849646882e+02 1.0000000000000000e+00 1.8458109281224669e+01 4.7737184439531246e+00 1.8451095337499236e+01 
155 1 2 1.0279991645413331e+00 -6.4277122637773289e+02 1.0000000000000000e+00 1.8438602003698787e+01 4.9210508373844828e+00 1.8460126643046223e+01 
161 1 2 1.0279991742495060e+00 -4.8031294026675681e+02 1.0000000000000000e+00 1.8448518006219093e+01 4.8647058131509713e+00 1.8448343292635869e+01 
162 1 2 1.0279991770483505e+00 -5.5133119527141912e+02 1.0000000000000000e+00 1.8448943658138568e+01 4.8577985467208684e+00 1.8435075198567745e+01 
126 1 2 1.0279991794737415e+00 -4.8065347397444401e+02 1.0000000000000000e+00 1.8448875605281202e+01 4.8533651322050195e+00 1.8423136305521943e+01 
156 1 2 1.0279991671899684e+00 -5.7088896367887116e+02 1.0000000000000000e+00 1.8429662223201543e+01 4.9500768626990919e+00 1.8415633841356129e+01 
150 1 2 1.0279991669307977e+00 -7.2901956236476872e+02 1.0000000000000000e+00 1.8420731923392676e+01 4.9821989458865357e+00 1.8410649800600225e+01 
119 1 2 1.0279991759701135e+00 -5.1711580861148514e+02 1.0000000000000000e+00 1.8439363881646724e+01 4.8975223188740635e+00 1.8395258017405009e+01 
120 1 2 1.0279991832911748e+00 -4.8574431780888870e+02 1.0000000000000000e+00 1.8433961810589476e+01 4.9024562082592151e+00 1.8357205194909898e+01 
53 1 2 1.0280007351104712e+00 -3.8527020413702451e+02 1.0000000000000000e+00 1.5485781763707699e+01 4.0687866542152236e+00 1.8523383545845071e+01 
6 1 2 1.0280007351104712e+00 -5.6052360496348820e+02 1.0000000000000000e+00 1.5485781763707699e+01 4.0687866542152236e+00 1.8523383545845071e+01 
54 1 2 1.0280007351104723e+00 -4.6406490298532628e+02 1.0000000000000000e+00 1.5485781763706919e+01 4.0687866542173889e+00 1.8523383545844187e+01 
18 1 2 1.0280007351104723e+00 -5.3178060530425159e+02 1.0000000000000000e+00 1.5485781763706919e+01 4.0687866542173889e+00 1.8523383545844187e+01 
77 1 2 1.0280007933137318e+00 -3.9731028365413329e+02 1.0000000000000000e+00 1.5478696963384598e+01 4.0905439687024865e+00 1.8532275634985673e+01 
78 1 2 1.0279993752676251e+00 -3.9145642459415905e+02 1.0000000000000000e+00 1.8362895974391453e+01 4.4633378301475473e+00 1.8834136399154417e+01 
48 1 2 1.0280007351104736e+00 -3.6662205414606865e+02 1.0000000000000000e+00 1.5485781763709706e+01 4.0687866542093873e+00 1.8523383545842968e+01 
41 1 2 1.0280007351104730e+00 -3.6138835544236690e+02 1.0000000000000000e+00 1.5485781763702283e+01 4.0687866542307631e+00 1.8523383545846372e+01 
47 1 2 1.0280007351104730e+00 -5.6627081157794055e+02 1.0000000000000000e+00 1.5485781763702283e+01 4.0687866542307631e+00 1.8523383545846372e+01 
42 1 2 1.0280007351104745e+00 -5.6842833061769534e+02 1.0000000000000000e+00 1.5485781763701752e+01 4.0687866542323086e+00 1.8523383545846517e+01 
17 1 2 1.0280007351104694e+00 -6.0092503727518044e+02 1.0000000000000000e+00 1.5485781763707912e+01 4.0687866542145912e+00 1.8523383545845004e+01 
11 1 2 1.0280007351104714e+00 -5.8365663708729301e+02 1.0000000000000000e+00 1.5485781763707950e+01 4.0687866542145219e+00 1.8523383545845132e+01 
12 1 2 1.0280007351104699e+00 -5.9687009914044813e+02 1.0000000000000000e+00 1.5485781763701304e+01 4.0687866542335280e+00 1.8523383545846592e+01 
82 1 2 1.0279996661977762e+00 -4.0528552936576398e+02 1.0000000000000000e+00 1.6505292693686162e+01 3.5058594707746016e+00 1.7837425914456645e+01 
149 1 2 1.0279991629778491e+00 -6.4089477128122007e+02 1.0000000000000000e+00 1.8407149421723222e+01 5.0339400102221878e+00 1.8459961284778732e+01 
114 1 2 1.0279992847038628e+00 -4.0720858379126395e+02 1.0000000000000000e+00 1.8322051413244434e+01 5.0371963583413484e+00 1.8103945191081426e+01 
118 1 2 1.0279991696252673e+00 -4.9759866617115864e+02 1.0000000000000000e+00 1.8394132075587745e+01 5.0494566832195735e+00 1.8602815892657716e+01 
90 1 2 1.0280033351511231e+00 -3.6474158177660263e+02 1.0000000000000000e+00 1.5681485579934614e+01 5.0612681330605058e+00 1.8739679262713945e+01 
148 1 2 1.0279991789197997e+00 -5.8659675850430961e+02 1.0000000000000000e+00 1.8374580432361974e+01 5.0920509774846536e+00 1.8621526731119676e+01 
112 1 2 1.0279991929133945e+00 -4.5429575634068402e+02 1.0000000000000000e+00 1.8353219109246805e+01 5.1265674408007635e+00 1.8654552222943476e+01 
113 1 2 1.0279992973929335e+00 -4.9195915100350203e+02 1.0000000000000000e+00 1.8190619563866932e+01 5.3892757059662930e+00 1.8520899747992512e+01 
89 1 2 1.0280016360588602e+00 -3.5708376050159080e+02 1.0000000000000000e+00 1.6158014196203339e+01 5.4855576189981106e+00 1.8773003342525850e+01 
88 1 2 1.0279994383906992e+00 -3.8188243767853692e+02 1.0000000000000000e+00 1.7968738933363941e+01 5.5696447388012347e+00 1.8564931383640506e+01 
168 1 2 1.0280000000153886e+00 -5.2182402295929796e+02 1.0000000000000000e+00 1.7354073940816225e+01 1.4243310497068080e+01 4.2982075110795197e+00 
132 1 2 1.0280000000153902e+00 -5.1668887597878916e+02 1.0000000000000000e+00 1.7354073940816111e+01 1.4243310497068157e+01 4.2982075110795979e+00 
108 1 2 1.0280000000153913e+00 -4.5316258214278486e+02 1.0000000000000000e+00 1.7354073940866787e+01 1.4243310497004805e+01 4.2982075111797986e+00 
130 1 2 1.0280000000153879e+00 -4.0851866479165483e+02 1.0000000000000000e+00 1.7354073940816189e+01 1.4243310497068082e+01 4.2982075110795952e+00 
143 1 2 1.0280000000153902e+00 -4.4348450209963846e+02 1.0000000000000000e+00 1.7354073940816111e+01 1.4243310497068157e+01 4.2982075110795979e+00 
142 1 2 1.0280000000153879e+00 -4.7348485175300101e+02 1.0000000000000000e+00 1.7354073940816189e+01 1.4243310497068082e+01 4.2982075110795952e+00 
173 1 2 1.0280000000153902e+00 -5.7057100803290416e+02 1.0000000000000000e+00 1.7354073940816111e+01 1.4243310497068157e+01 4.2982075110795979e+00 
137 1 2 1.0280000000153902e+00 -4.5681061538133110e+02 1.0000000000000000e+00 1.7354073940816111e+01 1.4243310497068157e+01 4.2982075110795979e+00 
167 1 2 1.0280000000153902e+00 -5.5272906593709376e+02 1.0000000000000000e+00 1.7354073940816111e+01 1.4243310497068157e+01 4.2982075110795979e+00 
166 1 2 1.0280000000153902e+00 -5.5991360709168441e+02 1.0000000000000000e+00 1.7354073940816111e+01 1.4243310497068157e+01 4.2982075110795979e+00 
172 1 2 1.0280000000153902e+00 -3.8346962941392019e+02 1.0000000000000000e+00 1.7354073940816111e+01 1.4243310497068157e+01 4.2982075110795979e+00 
136 1 2 1.0280000000153902e+00 -4.0156099058107293e+02 1.0000000000000000e+00 1.7354073940816111e+01 1.4243310497068157e+01 4.2982075110795979e+00 
131 1 2 1.0280000000153902e+00 -5.2521864727314789e+02 1.0000000000000000e+00 1.7354073940816111e+01 1.4243310497068157e+01 4.2982075110795979e+00 
93 1 2 1.0280000000153899e+00 -2.5058221470594424e+02 1.0000000000000000e+00 1.7354073946224393e+01 1.4243310492196921e+01 4.2982075140760028e+00 
174 1 2 1.0280000000153899e+00 -5.2294237397390100e+02 1.0000000000000000e+00 1.7354073946224393e+01 1.4243310492196921e+01 4.2982075140760028e+00 
138 1 2 1.0280000000153904e+00 -5.3642203040814650e+02 1.0000000000000000e+00 1.7354073940695674e+01 1.4243310497203550e+01 4.2982075109032136e+00 
144 1 2 1.0280000000153904e+00 -4.7638975712326641e+02 1.0000000000000000e+00 1.7354073940695674e+01 1.4243310497203550e+01 4.2982075109032136e+00 
179 1 2 1.0280000000153904e+00 -5.2653970393756049e+02 1.0000000000000000e+00 1.7354073940695674e+01 1.4243310497203550e+01 4.2982075109032136e+00 
180 1 2 1.0280000000153886e+00 -4.8357968991144509e+02 1.0000000000000000e+00 1.7354073948710433e+01 1.4243310489840932e+01 4.2982075159292128e+00 
95 1 2 1.0280000000142677e+00 -4.0022628674113741e+02 1.0000000000000000e+00 1.7365980075996145e+01 1.4237097709183397e+01 4.2874231051837741e+00 
101 1 2 1.0279999999997160e+00 -4.4794324267063320e+02 1.0000000000000000e+00 1.8936531777401402e+01 1.5573517378532538e+01 3.6406796461344384e+00 
43 1 2 1.0279999999846019e+00 -4.5816121838663611e+02 1.0000000000000000e+00 1.9439063657347447e+01 1.7067513042750921e+01 5.1101571721809282e+00 
1 1 2 1.0279999999846021e+00 -5.6568304798655686e+02 1.0000000000000000e+00 1.9439063657347347e+01 1.7067513042750992e+01 5.1101571721809194e+00 
7 1 2 1.0279999999846021e+00 -4.7068498027220255e+02 1.0000000000000000e+00 1.9439063657347347e+01 1.7067513042750992e+01 5.1101571721809194e+00 
8 1 2 1.0279999999846021e+00 -5.3469746343536281e+02 1.0000000000000000e+00 1.9439063657347347e+01 1.7067513042750992e+01 5.1101571721809194e+00 
44 1 2 1.0279999999846021e+00 -5.3908900030728580e+02 1.0000000000000000e+00 1.9439063657347347e+01 1.7067513042750992e+01 5.1101571721809194e+00 
2 1 2 1.0279999999846021e+00 -6.1898115079379693e+02 1.0000000000000000e+00 1.9439063657347347e+01 1.7067513042750992e+01 5.1101571721809194e+00 
38 1 2 1.0279999999846021e+00 -4.7280213770075915e+02 1.0000000000000000e+00 1.9439063657347347e+01 1.7067513042750992e+01 5.1101571721809194e+00 
74 1 2 1.0279999999846021e+00 -3.5488023517546230e+02 1.0000000000000000e+00 1.9439063657347347e+01 1.7067513042750992e+01 5.1101571721809194e+00 
39 1 2 1.0279999999846021e+00 -3.4425308324784805e+02 1.0000000000000000e+00 1.9439063657347347e+01 1.7067513042750992e+01 5.1101571721809194e+00 
40 1 2 1.0279999999846021e+00 -3.3578247156767918e+02 1.0000000000000000e+00 1.9439063657347347e+01 1.7067513042750992e+01 5.1101571721809194e+00 
45 1 2 1.0279999999846021e+00 -3.4494695504720659e+02 1.0000000000000000e+00 1.9439063657347347e+01 1.7067513042750992e+01 5.1101571721809194e+00 
75 1 2 1.0279999999846021e+00 -3.1171408814326503e+02 1.0000000000000000e+00 1.9439063657347347e+01 1.7067513042750992e+01 5.1101571721809194e+00 
81 1 2 1.0279999999846021e+00 -3.7038240181102742e+02 1.0000000000000000e+00 1.9439063657347347e+01 1.7067513042750992e+01 5.1101571721809194e+00 
46 1 2 1.0279999999846021e+00 -3.8155494328563617e+02 1.0000000000000000e+00 1.9439063657347347e+01 1.7067513042750992e+01 5.1101571721809194e+00 
3 1 2 1.0279999999846021e+00 -4.0684290414347868e+02 1.0000000000000000e+00 1.9439063657347347e+01 1.7067513042750992e+01 5.1101571721809194e+00 
9 1 2 1.0279999999846021e+00 -4.3355859187350148e+02 1.0000000000000000e+00 1.9439063657347347e+01 1.7067513042750992e+01 5.1101571721809194e+00 
10 1 2 1.0279999999846021e+00 -3.7998532760611573e+02 1.0000000000000000e+00 1.9439063657347347e+01 1.7067513042750992e+01 5.1101571721809194e+00 
73 1 2 1.0279999999846021e+00 -5.3613866488702126e+02 1.0000000000000000e+00 1.9439063657347347e+01 1.7067513042750992e+01 5.1101571721809194e+00 
37 1 2 1.0279999999846021e+00 -5.8244732801946657e+02 1.0000000000000000e+00 1.9439063657347347e+01 1.7067513042750992e+01 5.1101571721809194e+00 
102 1 2 1.0279999999809244e+00 -4.9012877005536973e+02 1.0000000000000000e+00 1.9418692847553231e+01 1.7028501203315152e+01 5.2331478828003259e+00 
84 1 2 1.0280000411574659e+00 -3.1832141445635369e+02 1.0000000000000000e+00 1.6624612231618077e+01 1.7541540540534413e+01 1.4523648423949643e+01 
85 1 2 1.0280000411612207e+00 -3.5659914481156517e+02 1.0000000000000000e+00 1.6626009245742619e+01 1.7541725789309474e+01 1.4523646481539686e+01 
79 1 2 1.0280000411612020e+00 -3.6404025595066929e+02 1.0000000000000000e+00 1.6625996836338867e+01 1.7541724461465463e+01 1.4523645226687671e+01 
109 1 2 1.0280000411642300e+00 -5.1134005338899567e+02 1.0000000000000000e+00 1.6622015838054740e+01 1.7540957289709770e+01 1.4524606098120419e+01 
115 1 2 1.0280000411912891e+00 -5.0688410698564468e+02 1.0000000000000000e+00 1.6620044327286809e+01 1.7540132092104898e+01 1.4526860710468814e+01 
121 1 2 1.0280000411987020e+00 -5.3786137260509270e+02 1.0000000000000000e+00 1.6619875353878133e+01 1.7539973130875065e+01 1.4527404807059705e+01 
151 1 2 1.0280000412189074e+00 -6.3099386675408209e+02 1.0000000000000000e+00 1.6619834870418956e+01 1.7539614380072305e+01 1.4528808790610492e+01 
157 1 2 1.0280000412291033e+00 -5.6138513963070125e+02 1.0000000000000000e+00 1.6620000181524428e+01 1.7539468237281220e+01 1.4529474708203411e+01 
145 1 2 1.0280000413415635e+00 -6.3841437161162844e+02 1.0000000000000000e+00 1.6623832415777176e+01 1.7538204672336814e+01 1.4536597201351009e+01 
160 1 2 1.0279999543394580e+00 -3.9103983909781255e+02 1.0000000000000000e+00 1.6117695531894196e+01 1.9690202604595505e+01 1.4681264998989786e+01 
123 1 2 1.0279999543392182e+00 -3.8588686443677432e+02 1.0000000000000000e+00 1.6117698180188107e+01 1.9690203776320882e+01 1.4681267081837564e+01 
122 1 2 1.0279999543389260e+00 -3.7650394195329312e+02 1.0000000000000000e+00 1.6117701103500863e+01 1.9690205069594857e+01 1.4681269380006983e+01 
159 1 2 1.0279999543389082e+00 -3.9551993132015605e+02 1.0000000000000000e+00 1.6117701107581393e+01 1.9690205071266931e+01 1.4681269382089612e+01 
87 1 2 1.0279999543390610e+00 -3.2819028166952069e+02 1.0000000000000000e+00 1.6117700853060715e+01 1.9690204958925328e+01 1.4681269184179294e+01 
86 1 2 1.0279999543390572e+00 -2.7791373177463799e+02 1.0000000000000000e+00 1.6117700653884356e+01 1.9690204870838222e+01 1.4681269027832645e+01 
92 1 2 1.0279999543385667e+00 -2.9870495166321763e+02 1.0000000000000000e+00 1.6117704962293274e+01 1.9690206776835790e+01 1.4681272414767877e+01 
129 1 2 1.0279999543386238e+00 -3.7232683204696292e+02 1.0000000000000000e+00 1.6117704783072675e+01 1.9690206697357610e+01 1.4681272272245542e+01 
165 1 2 1.0279999543386675e+00 -3.8996638690147455e+02 1.0000000000000000e+00 1.6117704670134728e+01 1.9690206647349001e+01 1.4681272183071709e+01 
158 1 2 1.0279999543387914e+00 -5.9709045653265287e+02 1.0000000000000000e+00 1.6117702940745168e+01 1.9690205882215640e+01 1.4681270822949136e+01 
164 1 2 1.0279999543229541e+00 -4.0442680695878494e+02 1.0000000000000000e+00 1.6117865813917614e+01 1.9690277863407829e+01 1.4681398479904997e+01 
128 1 2 1.0279999543181408e+00 -3.5543751652885544e+02 1.0000000000000000e+00 1.6117914285005238e+01 1.9690299262413458e+01 1.4681436367864130e+01 
152 1 2 1.0280000415044945e+00 -6.6520665852860986e+02 1.0000000000000000e+00 1.6632820754977448e+01 1.7536972106950831e+01 1.4546940373823848e+01 
146 1 2 1.0280000415231398e+00 -6.4499003097557738e+02 1.0000000000000000e+00 1.6634045960681206e+01 1.7536864475478946e+01 1.4548157033281765e+01 
110 1 2 1.0280000417598145e+00 -5.6206484912114036e+02 1.0000000000000000e+00 1.6654069742267303e+01 1.7536218055228314e+01 1.4564950203784974e+01 
116 1 2 1.0280000419204212e+00 -5.3878145354075230e+02 1.0000000000000000e+00 1.6668839502237923e+01 1.7535887667433844e+01 1.4579058688148391e+01 
154 1 2 1.0279999251550316e+00 -4.5768210729313569e+02 1.0000000000000000e+00 1.6452827892566880e+01 1.9705386445182395e+01 1.5065862619006870e+01 
147 1 2 1.0279999248751563e+00 -5.3291679486703833e+02 1.0000000000000000e+00 1.6519864110169230e+01 1.9631070298198882e+01 1.5232845869477957e+01 
80 1 2 1.0280000271040539e+00 -4.4271492027462540e+02 1.0000000000000000e+00 1.6949138416858915e+01 1.7979923510825380e+01 1.5463921142255964e+01 
111 1 2 1.0280000127475941e+00 -5.1806053876228293e+02 1.0000000000000000e+00 1.6972002787583325e+01 1.8486099444049891e+01 1.5654902969035007e+01 
153 1 2 1.0279999895395087e+00 -5.1696603733421762e+02 1.0000000000000000e+00 1.6939300906340424e+01 1.8989806462925806e+01 1.5614414841495137e+01 
117 1 2 1.0280000187795462e+00 -4.8301901730006830e+02 1.0000000000000000e+00 1.6970368759604909e+01 1.8296036318830630e+01 1.5614446106578255e+01 

Velocities

107 4.0525456374660785e-03 -7.4853331883988888e-03 -9.7580357948656212e-03
94 4.0525581843396767e-03 -7.4853190937151873e-03 -9.7580268868166110e-03
65 4.0525441269139099e-03 -7.4853192671945068e-03 -9.7579640259475627e-03
71 4.0525433735363204e-03 -7.4853193527949545e-03 -9.7579610094659253e-03
72 4.0525471132394223e-03 -7.4853162529164288e-03 -9.7579634902745949e-03
36 4.0525366120976710e-03 -7.4853228706116522e-03 -9.7579467759200643e-03
51 4.0525289338144317e-03 -7.4853275605003345e-03 -9.7579338478472923e-03
22 4.0525289338147604e-03 -7.4853275605000153e-03 -9.7579338478477277e-03
57 4.0525289338144317e-03 -7.4853275605003345e-03 -9.7579338478472923e-03
15 4.0525289338158143e-03 -7.4853275605020276e-03 -9.7579338478384816e-03
21 4.0525289338147604e-03 -7.4853275605000153e-03 -9.7579338478477277e-03
16 4.0525289338146373e-03 -7.4853275605004264e-03 -9.7579338478463624e-03
52 4.0525289338142947e-03 -7.4853275604997499e-03 -9.7579338478496619e-03
30 4.0525324359700042e-03 -7.4853249805159686e-03 -9.7579376863211140e-03
59 4.0525488642807759e-03 -7.4853093284373640e-03 -9.7579390890545816e-03
60 4.0525656817279624e-03 -7.4852910496251328e-03 -9.7579299406739262e-03
66 4.0527841991322621e-03 -7.4850741564486643e-03 -9.7579037024649803e-03
35 4.0466865526134679e-03 -7.7800703189134799e-03 -9.9067662175176003e-03
28 4.1307125840804298e-03 -7.6216726759356932e-03 -9.7266117976179418e-03
33 4.1321217966580233e-03 -7.6204917424290246e-03 -9.7273921836953416e-03
29 4.1326010676204887e-03 -7.6201058323772516e-03 -9.7276044374931692e-03
105 4.1341883260185780e-03 -7.6190101581841019e-03 -9.7278679746803879e-03
63 4.1360217549831586e-03 -7.6174271809932460e-03 -9.7286902198282631e-03
69 4.1371912593855149e-03 -7.6164562544257398e-03 -9.7290621052691876e-03
70 4.1375967846468738e-03 -7.6161352540262805e-03 -9.7291472492064841e-03
106 4.1376327393730728e-03 -7.6161344196886364e-03 -9.7291005937549819e-03
34 4.1373831504578160e-03 -7.6162141148003971e-03 -9.7292793643974206e-03
99 4.1324165417579110e-03 -7.6193443152507492e-03 -9.7293795841273106e-03
23 4.0989558549955384e-03 -7.5351677860136818e-03 -9.7786923076710764e-03
58 4.1325072781638094e-03 -7.5277248070307829e-03 -9.7645506379262330e-03
13 4.1425806099526829e-03 -7.6013965731852881e-03 -9.7182288902909718e-03
103 4.1425806099526829e-03 -7.6013965731852881e-03 -9.7182288902909718e-03
67 4.1425806099526829e-03 -7.6013965731852881e-03 -9.7182288902909718e-03
25 4.1425806099526829e-03 -7.6013965731852881e-03 -9.7182288902909718e-03
31 4.1425806099526829e-03 -7.6013965731852881e-03 -9.7182288902909718e-03
26 4.1425806099526829e-03 -7.6013965731852881e-03 -9.7182288902909718e-03
50 4.1425806099526829e-03 -7.6013965731852881e-03 -9.7182288902909718e-03
24 4.1425806099526829e-03 -7.6013965731852881e-03 -9.7182288902909718e-03
91 4.1425806099526829e-03 -7.6013965731852881e-03 -9.7182288902909718e-03
104 4.1425806099526829e-03 -7.6013965731852881e-03 -9.7182288902909718e-03
61 4.1425806099526829e-03 -7.6013965731852881e-03 -9.7182288902909718e-03
32 4.1425806099526829e-03 -7.6013965731852881e-03 -9.7182288902909718e-03