LAMMPS data file via write_data, version 30 Jul 2016, timestep = 50400000

180 atoms
2 atom types

0.0000000000000000e+00 2.0000000000000000e+01 xlo xhi
0.0000000000000000e+00 2.0000000000000000e+01 ylo yhi
0.0000000000000000e+00 2.0000000000000000e+01 zlo zhi

Masses

1 3.896
2 4.31

Atoms # meso-molecular

107 1 2 1.0280058315986620e+00 -3.7662031026699935e+02 1.0000000000000000e+00 1.2726174485695946e+01 7.2012953755308864e+00 2.0162159534685431e+00 
94 1 2 1.0280058308230129e+00 -3.4313055430968632e+02 1.0000000000000000e+00 1.2726241442193164e+01 7.2013995071105121e+00 2.0162306044503402e+00 
65 1 2 1.0280058260201368e+00 -4.7730775086621537e+02 1.0000000000000000e+00 1.2726075261761430e+01 7.2015318596992666e+00 2.0162770378999744e+00 
71 1 2 1.0280058257901414e+00 -4.2067292135313158e+02 1.0000000000000000e+00 1.2726066792154299e+01 7.2015377460235177e+00 2.0162792236337022e+00 
72 1 2 1.0280058259588358e+00 -4.8117194820935424e+02 1.0000000000000000e+00 1.2726093192902828e+01 7.2015512365361873e+00 2.0162791613654467e+00 
36 1 2 1.0280058247257464e+00 -5.4244627663641052e+02 1.0000000000000000e+00 1.2726006843892801e+01 7.2015466791603142e+00 2.0162877576486276e+00 
51 1 2 1.0280058237689380e+00 -3.4402042983537609e+02 1.0000000000000000e+00 1.2725942803491508e+01 7.2015457437884107e+00 2.0162946579104770e+00 
22 1 2 1.0280058237689382e+00 -3.2730351615391584e+02 1.0000000000000000e+00 1.2725942803491803e+01 7.2015457437882802e+00 2.0162946579104184e+00 
57 1 2 1.0280058237689380e+00 -3.4530730074201199e+02 1.0000000000000000e+00 1.2725942803491508e+01 7.2015457437884107e+00 2.0162946579104770e+00 
15 1 2 1.0280058237689376e+00 -3.5720151462293501e+02 1.0000000000000000e+00 1.2725942803491646e+01 7.2015457437883308e+00 2.0162946579104419e+00 
21 1 2 1.0280058237689382e+00 -3.2977082327891713e+02 1.0000000000000000e+00 1.2725942803491803e+01 7.2015457437882802e+00 2.0162946579104184e+00 
16 1 2 1.0280058237689376e+00 -3.3839034588677345e+02 1.0000000000000000e+00 1.2725942803491698e+01 7.2015457437880270e+00 2.0162946579103740e+00 
52 1 2 1.0280058237689387e+00 -2.8499687521184825e+02 1.0000000000000000e+00 1.2725942803491899e+01 7.2015457437882935e+00 2.0162946579104148e+00 
30 1 2 1.0280058240450081e+00 -5.1988302816657301e+02 1.0000000000000000e+00 1.2725969435603849e+01 7.2015532102587727e+00 2.0162932881834701e+00 
59 1 2 1.0280058240465904e+00 -4.3616020207402835e+02 1.0000000000000000e+00 1.2726073551956377e+01 7.2016449673152785e+00 2.0163012159299938e+00 
60 1 2 1.0280058232235583e+00 -4.2015855853232887e+02 1.0000000000000000e+00 1.2726166896973377e+01 7.2017750295681111e+00 2.0163184977190038e+00 
66 1 2 1.0280058197400508e+00 -5.0542744980580432e+02 1.0000000000000000e+00 1.2727496979846954e+01 7.2031421769699575e+00 2.0164646356157472e+00 
35 1 2 1.0280065205611184e+00 -6.2132797188518032e+02 1.0000000000000000e+00 1.3275331790559909e+01 5.8063645499812147e+00 2.6074699373175112e+00 
28 1 2 1.0279942848407255e+00 -5.6478200516532752e+02 1.0000000000000000e+00 1.2566041719300101e+01 7.3554781717041395e+00 4.2782006426161603e+00 
33 1 2 1.0279942961361113e+00 -4.8211671675575758e+02 1.0000000000000000e+00 1.2560419581971207e+01 7.3475847587456116e+00 4.2850237021361117e+00 
29 1 2 1.0279942993396256e+00 -5.0451066595459361e+02 1.0000000000000000e+00 1.2558421367061529e+01 7.3451370744149136e+00 4.2868961957179481e+00 
105 1 2 1.0279943036695287e+00 -4.3935198091981027e+02 1.0000000000000000e+00 1.2551071252232706e+01 7.3391554693833401e+00 4.2893529203492742e+00 
63 1 2 1.0279943181648112e+00 -5.1063832346626685e+02 1.0000000000000000e+00 1.2543462274242582e+01 7.3292826607276167e+00 4.2968340218101231e+00 
69 1 2 1.0279943257604605e+00 -4.9844793554550944e+02 1.0000000000000000e+00 1.2538350105553267e+01 7.3235951347635160e+00 4.3003774009632751e+00 
70 1 2 1.0279943278200467e+00 -4.4508600351040428e+02 1.0000000000000000e+00 1.2536502880448330e+01 7.3218187750736021e+00 4.3012425976065582e+00 
106 1 2 1.0279943271137417e+00 -4.2070991582463421e+02 1.0000000000000000e+00 1.2536248144002938e+01 7.3219459655627137e+00 4.3008460233944650e+00 
34 1 2 1.0279943296398861e+00 -5.6309295748523800e+02 1.0000000000000000e+00 1.2537773018749244e+01 7.3218248635061629e+00 4.3023322739482239e+00 
99 1 2 1.0279943276779957e+00 -4.3571476614461562e+02 1.0000000000000000e+00 1.2562343176617592e+01 7.3364959400331022e+00 4.3023189250503959e+00 
23 1 2 1.0280013598288145e+00 -4.7822516052743151e+02 1.0000000000000000e+00 1.3309577495656926e+01 5.6672048383711457e+00 6.6259220755124977e+00 
58 1 2 1.0279990425144250e+00 -3.7075421792492756e+02 1.0000000000000000e+00 1.2610512674519986e+01 5.8311805011467959e+00 5.6605435670579585e+00 
13 1 2 1.0279988920943726e+00 -4.1816080980450135e+02 1.0000000000000000e+00 1.6020900821842407e+01 3.6057178394486948e+00 3.9866698387909287e+00 
103 1 2 1.0279988920943726e+00 -3.6092124223215745e+02 1.0000000000000000e+00 1.6020900821842407e+01 3.6057178394486948e+00 3.9866698387909287e+00 
67 1 2 1.0279988920943726e+00 -4.2078648712989150e+02 1.0000000000000000e+00 1.6020900821842407e+01 3.6057178394486948e+00 3.9866698387909287e+00 
25 1 2 1.0279988920943726e+00 -5.5775025791237567e+02 1.0000000000000000e+00 1.6020900821842407e+01 3.6057178394486948e+00 3.9866698387909287e+00 
31 1 2 1.0279988920943726e+00 -5.1083447563724997e+02 1.0000000000000000e+00 1.6020900821842407e+01 3.6057178394486948e+00 3.9866698387909287e+00 
26 1 2 1.0279988920943726e+00 -4.6073228669027696e+02 1.0000000000000000e+00 1.6020900821842407e+01 3.6057178394486948e+00 3.9866698387909287e+00 
50 1 2 1.0279988920943726e+00 -4.5366899478221080e+02 1.0000000000000000e+00 1.6020900821842407e+01 3.6057178394486948e+00 3.9866698387909287e+00 
24 1 2 1.0279988920943726e+00 -5.7542570415787316e+02 1.0000000000000000e+00 1.6020900821842407e+01 3.6057178394486948e+00 3.9866698387909287e+00 
91 1 2 1.0279988920943726e+00 -3.9285635742827208e+02 1.0000000000000000e+00 1.6020900821842407e+01 3.6057178394486948e+00 3.9866698387909287e+00 
104 1 2 1.0279988920943726e+00 -3.4463004726277751e+02 1.0000000000000000e+00 1.6020900821842407e+01 3.6057178394486948e+00 3.9866698387909287e+00 
61 1 2 1.0279988920943726e+00 -4.0363082349465793e+02 1.0000000000000000e+00 1.6020900821842407e+01 3.6057178394486948e+00 3.9866698387909287e+00 
32 1 2 1.0279988920943726e+00 -3.8342908205174314e+02 1.0000000000000000e+00 1.6020900821842407e+01 3.6057178394486948e+00 3.9866698387909287e+00 
20 1 2 1.0279988920943726e+00 -3.9091611100704398e+02 1.0000000000000000e+00 1.6020900821842407e+01 3.6057178394486948e+00 3.9866698387909287e+00 
19 1 2 1.0279988920943726e+00 -5.0342787437301382e+02 1.0000000000000000e+00 1.6020900821842407e+01 3.6057178394486948e+00 3.9866698387909287e+00 
56 1 2 1.0279988920943726e+00 -4.1726503743252806e+02 1.0000000000000000e+00 1.6020900821842407e+01 3.6057178394486948e+00 3.9866698387909287e+00 
49 1 2 1.0279988920943726e+00 -4.2979614183318421e+02 1.0000000000000000e+00 1.6020900821842407e+01 3.6057178394486948e+00 3.9866698387909287e+00 
14 1 2 1.0279988920943726e+00 -4.2587151864080465e+02 1.0000000000000000e+00 1.6020900821842407e+01 3.6057178394486948e+00 3.9866698387909287e+00 
55 1 2 1.0279988920943726e+00 -4.3186497288318276e+02 1.0000000000000000e+00 1.6020900821842407e+01 3.6057178394486948e+00 3.9866698387909287e+00 
97 1 2 1.0279988920943726e+00 -3.7031267884670746e+02 1.0000000000000000e+00 1.6020900821842407e+01 3.6057178394486948e+00 3.9866698387909287e+00 
62 1 2 1.0279988920943726e+00 -4.2325478220361754e+02 1.0000000000000000e+00 1.6020900821842407e+01 3.6057178394486948e+00 3.9866698387909287e+00 
68 1 2 1.0279988920943726e+00 -4.6900592733937742e+02 1.0000000000000000e+00 1.6020900821842407e+01 3.6057178394486948e+00 3.9866698387909287e+00 
96 1 2 1.0280172213325132e+00 -4.1987554475739557e+02 1.0000000000000000e+00 1.3978026450949683e+01 5.6043379607753989e+00 2.7562310187091628e+00 
64 1 2 1.0279992247922745e+00 -4.9197885065219236e+02 1.0000000000000000e+00 1.5395778244469785e+01 3.9928163514618311e+00 6.0713606064137329e+00 
27 1 2 1.0280020189784527e+00 -4.7034159031641900e+02 1.0000000000000000e+00 1.3767572959969325e+01 5.1747137565939907e+00 6.9084415686366869e+00 
100 1 2 1.0280020411568966e+00 -3.5791144687143776e+02 1.0000000000000000e+00 1.3674746698054131e+01 5.0314609484725095e+00 6.8895979557164075e+00 
139 1 2 1.0280020493773283e+00 -5.2341798326945013e+02 1.0000000000000000e+00 1.3668988667101001e+01 5.0365125974313329e+00 6.8884306601670078e+00 
170 1 2 1.0280020493773279e+00 -5.3104296978910531e+02 1.0000000000000000e+00 1.3668988667101022e+01 5.0365125974313338e+00 6.8884306601670149e+00 
98 1 2 1.0280020493773279e+00 -3.4148640003472087e+02 1.0000000000000000e+00 1.3668988667101022e+01 5.0365125974313338e+00 6.8884306601670149e+00 
171 1 2 1.0280020493773279e+00 -4.6917776257109909e+02 1.0000000000000000e+00 1.3668988667101022e+01 5.0365125974313338e+00 6.8884306601670149e+00 
163 1 2 1.0280020493773279e+00 -5.4380129774801196e+02 1.0000000000000000e+00 1.3668988667101022e+01 5.0365125974313338e+00 6.8884306601670149e+00 
141 1 2 1.0280020493773279e+00 -4.9606860618059227e+02 1.0000000000000000e+00 1.3668988667101022e+01 5.0365125974313338e+00 6.8884306601670149e+00 
135 1 2 1.0280020493773279e+00 -5.1432972293886371e+02 1.0000000000000000e+00 1.3668988667101022e+01 5.0365125974313338e+00 6.8884306601670149e+00 
177 1 2 1.0280020493773279e+00 -4.2392150539263525e+02 1.0000000000000000e+00 1.3668988667101022e+01 5.0365125974313338e+00 6.8884306601670149e+00 
169 1 2 1.0280020493773279e+00 -6.0138088845188020e+02 1.0000000000000000e+00 1.3668988667101022e+01 5.0365125974313338e+00 6.8884306601670149e+00 
178 1 2 1.0280020493773281e+00 -4.4189876412783838e+02 1.0000000000000000e+00 1.3668988667101045e+01 5.0365125974313107e+00 6.8884306601670184e+00 
133 1 2 1.0280020493773292e+00 -4.9422260984369893e+02 1.0000000000000000e+00 1.3668988667100509e+01 5.0365125974312317e+00 6.8884306601668568e+00 
134 1 2 1.0280020493773285e+00 -4.6845029100567342e+02 1.0000000000000000e+00 1.3668988667100674e+01 5.0365125974312503e+00 6.8884306601669083e+00 
127 1 2 1.0280020493773281e+00 -6.2483617783319914e+02 1.0000000000000000e+00 1.3668988667101001e+01 5.0365125974313161e+00 6.8884306601670069e+00 
140 1 2 1.0280020493773279e+00 -5.0044552429394918e+02 1.0000000000000000e+00 1.3668988667101022e+01 5.0365125974313338e+00 6.8884306601670149e+00 
175 1 2 1.0280020493773279e+00 -6.3832698522513783e+02 1.0000000000000000e+00 1.3668988667101022e+01 5.0365125974313338e+00 6.8884306601670149e+00 
176 1 2 1.0280020493773279e+00 -5.7120575055346103e+02 1.0000000000000000e+00 1.3668988667101022e+01 5.0365125974313338e+00 6.8884306601670149e+00 
4 1 2 1.0280093220221240e+00 -5.2414246112718433e+02 1.0000000000000000e+00 1.5441185338390170e+01 4.1446444780365477e+00 1.8611508315753920e+01 
5 1 2 1.0280093220221240e+00 -6.7027267534077976e+02 1.0000000000000000e+00 1.5441185338390170e+01 4.1446444780365477e+00 1.8611508315753920e+01 
83 1 2 1.0280093112757689e+00 -4.6340048812400329e+02 1.0000000000000000e+00 1.5441291199923015e+01 4.1444382347033910e+00 1.8610977265382960e+01 
76 1 2 1.0280054323534606e+00 -3.6586129283309037e+02 1.0000000000000000e+00 1.5564304919609327e+01 3.9483704734068605e+00 1.8439214461666570e+01 
124 1 2 1.0279924342939708e+00 -3.9226830715535482e+02 1.0000000000000000e+00 1.8419570511072020e+01 4.8151750341074058e+00 1.8550221941868699e+01 
125 1 2 1.0279922462282687e+00 -4.4615164020658807e+02 1.0000000000000000e+00 1.8417260189102016e+01 4.8716641648249626e+00 1.8546991749712703e+01 
161 1 2 1.0279920239261622e+00 -4.8031294169239709e+02 1.0000000000000000e+00 1.8407459017804051e+01 4.9575706926486331e+00 1.8544443071188130e+01 
162 1 2 1.0279920569144680e+00 -5.5133119670757810e+02 1.0000000000000000e+00 1.8407953728957047e+01 4.9510612281067656e+00 1.8531938720552709e+01 
126 1 2 1.0279920851574817e+00 -4.8065347542122919e+02 1.0000000000000000e+00 1.8407971178757006e+01 4.9468827960752568e+00 1.8520683860646692e+01 
119 1 2 1.0279920561158216e+00 -5.1711580998546424e+02 1.0000000000000000e+00 1.8398909449712306e+01 4.9885230993857261e+00 1.8494440221301680e+01 
120 1 2 1.0279921355339674e+00 -4.8574431922414794e+02 1.0000000000000000e+00 1.8394061908907741e+01 4.9932063433981968e+00 1.8458534291488302e+01 
53 1 2 1.0280093220221305e+00 -3.8527017636392992e+02 1.0000000000000000e+00 1.5441185338394149e+01 4.1446444780264207e+00 1.8611508315754147e+01 
6 1 2 1.0280093220221305e+00 -5.6052357719041800e+02 1.0000000000000000e+00 1.5441185338394149e+01 4.1446444780264207e+00 1.8611508315754147e+01 
54 1 2 1.0280093220221289e+00 -4.6406487521223170e+02 1.0000000000000000e+00 1.5441185338393289e+01 4.1446444780287202e+00 1.8611508315753198e+01 
18 1 2 1.0280093220221289e+00 -5.3178057753118139e+02 1.0000000000000000e+00 1.5441185338393289e+01 4.1446444780287202e+00 1.8611508315753198e+01 
77 1 2 1.0280096997551131e+00 -3.9731025380346637e+02 1.0000000000000000e+00 1.5432256570625384e+01 4.1671331479822005e+00 1.8620636632508681e+01 
78 1 2 1.0279940224843556e+00 -3.9145642910097519e+02 1.0000000000000000e+00 1.8333229961467207e+01 4.5737572797140853e+00 1.8913028340411827e+01 
48 1 2 1.0280093220221231e+00 -3.6662202637297406e+02 1.0000000000000000e+00 1.5441185338396602e+01 4.1446444780203517e+00 1.8611508315752001e+01 
41 1 2 1.0280093220221251e+00 -3.6138832766927231e+02 1.0000000000000000e+00 1.5441185338387704e+01 4.1446444780426619e+00 1.8611508315755358e+01 
47 1 2 1.0280093220221251e+00 -5.6627078380487035e+02 1.0000000000000000e+00 1.5441185338387704e+01 4.1446444780426619e+00 1.8611508315755358e+01 
42 1 2 1.0280093220221265e+00 -5.6842830284462514e+02 1.0000000000000000e+00 1.5441185338387069e+01 4.1446444780442731e+00 1.8611508315755508e+01 
17 1 2 1.0280093220221276e+00 -6.0092500950211024e+02 1.0000000000000000e+00 1.5441185338394401e+01 4.1446444780257510e+00 1.8611508315754090e+01 
11 1 2 1.0280093220221287e+00 -5.8365660931422281e+02 1.0000000000000000e+00 1.5441185338394437e+01 4.1446444780256719e+00 1.8611508315754218e+01 
12 1 2 1.0280093220221320e+00 -5.9687007136737793e+02 1.0000000000000000e+00 1.5441185338386589e+01 4.1446444780455440e+00 1.8611508315755565e+01 
82 1 2 1.0280001425632683e+00 -4.0528553726520698e+02 1.0000000000000000e+00 1.6511495897189651e+01 3.5979262045601117e+00 1.7925416359431576e+01 
155 1 2 1.0279919167456373e+00 -6.4277122772193479e+02 1.0000000000000000e+00 1.8397811076447031e+01 5.0106590817545618e+00 1.8555562611168877e+01 
156 1 2 1.0279919526295003e+00 -5.7088896499828275e+02 1.0000000000000000e+00 1.8389492161459994e+01 5.0380315963553599e+00 1.8513675776733290e+01 
150 1 2 1.0279919405039792e+00 -7.2901956369260256e+02 1.0000000000000000e+00 1.8381075307050576e+01 5.0683156273776255e+00 1.8508989231356427e+01 
149 1 2 1.0279918583609637e+00 -6.4089477267542986e+02 1.0000000000000000e+00 1.8368140957313781e+01 5.1170779804931241e+00 1.8555445217541966e+01 
114 1 2 1.0279930665596351e+00 -4.0720858636854905e+02 1.0000000000000000e+00 1.8291236383340575e+01 5.1217369794430176e+00 1.8217160847115569e+01 
118 1 2 1.0279918235665919e+00 -4.9759866793724518e+02 1.0000000000000000e+00 1.8356005235584785e+01 5.1318631824392158e+00 1.8690056888039209e+01 
90 1 2 1.0280123257579405e+00 -3.6474149468392903e+02 1.0000000000000000e+00 1.5620866511454572e+01 5.2139155293268402e+00 1.8833440389922014e+01 
148 1 2 1.0279918731118887e+00 -5.8659676046329650e+02 1.0000000000000000e+00 1.8337824569691016e+01 5.1722126876689485e+00 1.8707796485881133e+01 
112 1 2 1.0279919630293746e+00 -4.5429575858159183e+02 1.0000000000000000e+00 1.8318037316803768e+01 5.2050752152458770e+00 1.8739114321172568e+01 
113 1 2 1.0279927920066174e+00 -4.9195915465204877e+02 1.0000000000000000e+00 1.8166467073723457e+01 5.4570686292224115e+00 1.8613241694277935e+01 
89 1 2 1.0280038196923993e+00 -3.5708371926415913e+02 1.0000000000000000e+00 1.6148750967988182e+01 5.6231446145162067e+00 1.8865649746808451e+01 
88 1 2 1.0279939358678223e+00 -3.8188244356049995e+02 1.0000000000000000e+00 1.7956880196672632e+01 5.6355326756422732e+00 1.8655790862081506e+01 
168 1 2 1.0280000000057461e+00 -5.2182402295929796e+02 1.0000000000000000e+00 1.7114730386560140e+01 1.4644936687865583e+01 4.8461924902754392e+00 
132 1 2 1.0280000000057472e+00 -5.1668887597878916e+02 1.0000000000000000e+00 1.7114730386560016e+01 1.4644936687865654e+01 4.8461924902755262e+00 
108 1 2 1.0280000000057465e+00 -4.5316258214278486e+02 1.0000000000000000e+00 1.7114730386610692e+01 1.4644936687802309e+01 4.8461924903756941e+00 
130 1 2 1.0280000000057476e+00 -4.0851866479165483e+02 1.0000000000000000e+00 1.7114730386560108e+01 1.4644936687865593e+01 4.8461924902754987e+00 
143 1 2 1.0280000000057472e+00 -4.4348450209963846e+02 1.0000000000000000e+00 1.7114730386560016e+01 1.4644936687865654e+01 4.8461924902755262e+00 
142 1 2 1.0280000000057476e+00 -4.7348485175300101e+02 1.0000000000000000e+00 1.7114730386560108e+01 1.4644936687865593e+01 4.8461924902754987e+00 
173 1 2 1.0280000000057472e+00 -5.7057100803290416e+02 1.0000000000000000e+00 1.7114730386560016e+01 1.4644936687865654e+01 4.8461924902755262e+00 
137 1 2 1.0280000000057472e+00 -4.5681061538133110e+02 1.0000000000000000e+00 1.7114730386560016e+01 1.4644936687865654e+01 4.8461924902755262e+00 
167 1 2 1.0280000000057472e+00 -5.5272906593709376e+02 1.0000000000000000e+00 1.7114730386560016e+01 1.4644936687865654e+01 4.8461924902755262e+00 
166 1 2 1.0280000000057472e+00 -5.5991360709168441e+02 1.0000000000000000e+00 1.7114730386560016e+01 1.4644936687865654e+01 4.8461924902755262e+00 
172 1 2 1.0280000000057472e+00 -3.8346962941392019e+02 1.0000000000000000e+00 1.7114730386560016e+01 1.4644936687865654e+01 4.8461924902755262e+00 
136 1 2 1.0280000000057472e+00 -4.0156099058107293e+02 1.0000000000000000e+00 1.7114730386560016e+01 1.4644936687865654e+01 4.8461924902755262e+00 
131 1 2 1.0280000000057472e+00 -5.2521864727314789e+02 1.0000000000000000e+00 1.7114730386560016e+01 1.4644936687865654e+01 4.8461924902755262e+00 
93 1 2 1.0280000000057450e+00 -2.5058221470594424e+02 1.0000000000000000e+00 1.7114730391968301e+01 1.4644936682994416e+01 4.8461924932719169e+00 
174 1 2 1.0280000000057450e+00 -5.2294237397390100e+02 1.0000000000000000e+00 1.7114730391968301e+01 1.4644936682994416e+01 4.8461924932719169e+00 
138 1 2 1.0280000000057461e+00 -5.3642203040814650e+02 1.0000000000000000e+00 1.7114730386439565e+01 1.4644936688001057e+01 4.8461924900991313e+00 
144 1 2 1.0280000000057461e+00 -4.7638975712326641e+02 1.0000000000000000e+00 1.7114730386439565e+01 1.4644936688001057e+01 4.8461924900991313e+00 
179 1 2 1.0280000000057461e+00 -5.2653970393756049e+02 1.0000000000000000e+00 1.7114730386439565e+01 1.4644936688001057e+01 4.8461924900991313e+00 
180 1 2 1.0280000000057463e+00 -4.8357968991144509e+02 1.0000000000000000e+00 1.7114730394454355e+01 1.4644936680638429e+01 4.8461924951251198e+00 
95 1 2 1.0280000000053775e+00 -4.0022628674113741e+02 1.0000000000000000e+00 1.7126636534453677e+01 1.4638723905381960e+01 4.8354080809456859e+00 
101 1 2 1.0279999999939657e+00 -4.4794324267063320e+02 1.0000000000000000e+00 1.8697187801929243e+01 1.5975144488850832e+01 4.1886654919647315e+00 
43 1 2 1.0279999999907530e+00 -4.5816121838663611e+02 1.0000000000000000e+00 1.9199718489065031e+01 1.7469140014887156e+01 5.6581435778675635e+00 
1 1 2 1.0279999999907481e+00 -5.6568304798655686e+02 1.0000000000000000e+00 1.9199718489064978e+01 1.7469140014887216e+01 5.6581435778675928e+00 
7 1 2 1.0279999999907481e+00 -4.7068498027220255e+02 1.0000000000000000e+00 1.9199718489064978e+01 1.7469140014887216e+01 5.6581435778675928e+00 
8 1 2 1.0279999999907481e+00 -5.3469746343536281e+02 1.0000000000000000e+00 1.9199718489064978e+01 1.7469140014887216e+01 5.6581435778675928e+00 
44 1 2 1.0279999999907481e+00 -5.3908900030728580e+02 1.0000000000000000e+00 1.9199718489064978e+01 1.7469140014887216e+01 5.6581435778675928e+00 
2 1 2 1.0279999999907481e+00 -6.1898115079379693e+02 1.0000000000000000e+00 1.9199718489064978e+01 1.7469140014887216e+01 5.6581435778675928e+00 
38 1 2 1.0279999999907481e+00 -4.7280213770075915e+02 1.0000000000000000e+00 1.9199718489064978e+01 1.7469140014887216e+01 5.6581435778675928e+00 
74 1 2 1.0279999999907481e+00 -3.5488023517546230e+02 1.0000000000000000e+00 1.9199718489064978e+01 1.7469140014887216e+01 5.6581435778675928e+00 
39 1 2 1.0279999999907481e+00 -3.4425308324784805e+02 1.0000000000000000e+00 1.9199718489064978e+01 1.7469140014887216e+01 5.6581435778675928e+00 
40 1 2 1.0279999999907481e+00 -3.3578247156767918e+02 1.0000000000000000e+00 1.9199718489064978e+01 1.7469140014887216e+01 5.6581435778675928e+00 
45 1 2 1.0279999999907481e+00 -3.4494695504720659e+02 1.0000000000000000e+00 1.9199718489064978e+01 1.7469140014887216e+01 5.6581435778675928e+00 
75 1 2 1.0279999999907481e+00 -3.1171408814326503e+02 1.0000000000000000e+00 1.9199718489064978e+01 1.7469140014887216e+01 5.6581435778675928e+00 
81 1 2 1.0279999999907481e+00 -3.7038240181102742e+02 1.0000000000000000e+00 1.9199718489064978e+01 1.7469140014887216e+01 5.6581435778675928e+00 
46 1 2 1.0279999999907481e+00 -3.8155494328563617e+02 1.0000000000000000e+00 1.9199718489064978e+01 1.7469140014887216e+01 5.6581435778675928e+00 
3 1 2 1.0279999999907481e+00 -4.0684290414347868e+02 1.0000000000000000e+00 1.9199718489064978e+01 1.7469140014887216e+01 5.6581435778675928e+00 
9 1 2 1.0279999999907481e+00 -4.3355859187350148e+02 1.0000000000000000e+00 1.9199718489064978e+01 1.7469140014887216e+01 5.6581435778675928e+00 
10 1 2 1.0279999999907481e+00 -3.7998532760611573e+02 1.0000000000000000e+00 1.9199718489064978e+01 1.7469140014887216e+01 5.6581435778675928e+00 
73 1 2 1.0279999999907481e+00 -5.3613866488702126e+02 1.0000000000000000e+00 1.9199718489064978e+01 1.7469140014887216e+01 5.6581435778675928e+00 
37 1 2 1.0279999999907481e+00 -5.8244732801946657e+02 1.0000000000000000e+00 1.9199718489064978e+01 1.7469140014887216e+01 5.6581435778675928e+00 
102 1 2 1.0279999999894864e+00 -4.9012877005536973e+02 1.0000000000000000e+00 1.9179347669847335e+01 1.7430128163590425e+01 5.7811341999913397e+00 
84 1 2 1.0280000154507303e+00 -3.1832141445635369e+02 1.0000000000000000e+00 1.6611360782504903e+01 1.7600077968612791e+01 1.4579854508675787e+01 
85 1 2 1.0280000154608671e+00 -3.5659914481156517e+02 1.0000000000000000e+00 1.6612759280108673e+01 1.7600263351784463e+01 1.4579852524136527e+01 
79 1 2 1.0280000154608839e+00 -3.6404025595066929e+02 1.0000000000000000e+00 1.6612746857522264e+01 1.7600262023291492e+01 1.4579851268398905e+01 
109 1 2 1.0280000154275106e+00 -5.1134005338899567e+02 1.0000000000000000e+00 1.6608761637171682e+01 1.7599494058516317e+01 1.4580813205817153e+01 
115 1 2 1.0280000154026763e+00 -5.0688410698564468e+02 1.0000000000000000e+00 1.6606788043113024e+01 1.7598667704544262e+01 1.4583070108925670e+01 
121 1 2 1.0280000153989666e+00 -5.3786137260509270e+02 1.0000000000000000e+00 1.6606618892548543e+01 1.7598508492652879e+01 1.4583614749774950e+01 
151 1 2 1.0280000153922810e+00 -6.3099386675408209e+02 1.0000000000000000e+00 1.6606578372035202e+01 1.7598149130844526e+01 1.4585020126837446e+01 
157 1 2 1.0280000153903603e+00 -5.6138513963070125e+02 1.0000000000000000e+00 1.6606743861651104e+01 1.7598002714978545e+01 1.4585686700359339e+01 
145 1 2 1.0280000153848863e+00 -6.3841437161162844e+02 1.0000000000000000e+00 1.6610580204304558e+01 1.7596736473527926e+01 1.4592816172262467e+01 
160 1 2 1.0279999855383641e+00 -3.9103983909671223e+02 1.0000000000000000e+00 1.6104660195597265e+01 1.9748612601567938e+01 1.4737957791731656e+01 
123 1 2 1.0279999855389237e+00 -3.8588686443567400e+02 1.0000000000000000e+00 1.6104662841338676e+01 1.9748613768769335e+01 1.4737959871735301e+01 
122 1 2 1.0279999855393878e+00 -3.7650394195219280e+02 1.0000000000000000e+00 1.6104665761835484e+01 1.9748615057051939e+01 1.4737962166766673e+01 
159 1 2 1.0279999855394042e+00 -3.9551993131905573e+02 1.0000000000000000e+00 1.6104665765911854e+01 1.9748615058718183e+01 1.4737962168846574e+01 
87 1 2 1.0279999855394497e+00 -3.2819028166842037e+02 1.0000000000000000e+00 1.6104665511638693e+01 1.9748614946809543e+01 1.4737961971206664e+01 
86 1 2 1.0279999855393482e+00 -2.7791373177353768e+02 1.0000000000000000e+00 1.6104665312654944e+01 1.9748614859062620e+01 1.4737961815072758e+01 
92 1 2 1.0279999855400404e+00 -2.9870495166211742e+02 1.0000000000000000e+00 1.6104669616912943e+01 1.9748616757703495e+01 1.4737965197383360e+01 
129 1 2 1.0279999855401829e+00 -3.7232683204586272e+02 1.0000000000000000e+00 1.6104669437864185e+01 1.9748616678532429e+01 1.4737965055056010e+01 
165 1 2 1.0279999855400368e+00 -3.8996638690037435e+02 1.0000000000000000e+00 1.6104669325035243e+01 1.9748616628718011e+01 1.4737964966004206e+01 
158 1 2 1.0279999855398745e+00 -5.9709045653265287e+02 1.0000000000000000e+00 1.6104667597311799e+01 1.9748615866537389e+01 1.4737963607738420e+01 
164 1 2 1.0279999855696678e+00 -4.0442680695768712e+02 1.0000000000000000e+00 1.6104830313498468e+01 1.9748687570111208e+01 1.4738091090345900e+01 
128 1 2 1.0279999855785060e+00 -3.5543751652775842e+02 1.0000000000000000e+00 1.6104878737831644e+01 1.9748708886630865e+01 1.4738128926544347e+01 
152 1 2 1.0280000153964053e+00 -6.6520665852860986e+02 1.0000000000000000e+00 1.6619578176909915e+01 1.7595500627416850e+01 1.4603169467973368e+01 
146 1 2 1.0280000153985029e+00 -6.4499003097557738e+02 1.0000000000000000e+00 1.6620804696782415e+01 1.7595392654834910e+01 1.4604387320755643e+01 
110 1 2 1.0280000154330013e+00 -5.6206484912114036e+02 1.0000000000000000e+00 1.6640849966365142e+01 1.7594742647887387e+01 1.4621197033779145e+01 
116 1 2 1.0280000154290303e+00 -5.3878145354075230e+02 1.0000000000000000e+00 1.6655635588142381e+01 1.7594409982710104e+01 1.4635319640857132e+01 
154 1 2 1.0280001244689660e+00 -4.5768210734650285e+02 1.0000000000000000e+00 1.6439399018509853e+01 1.9763436986137336e+01 1.5121934443677842e+01 
147 1 2 1.0280001582844516e+00 -5.3291679493538027e+02 1.0000000000000000e+00 1.6506376140525443e+01 1.9689201191768777e+01 1.5288726641264182e+01 
80 1 2 1.0279999976875125e+00 -4.4271492027462540e+02 1.0000000000000000e+00 1.6936040776191035e+01 1.8039002887762347e+01 1.5520777825667240e+01 
111 1 2 1.0279999877120463e+00 -5.1806053876228293e+02 1.0000000000000000e+00 1.6958732329728647e+01 1.8545478844174035e+01 1.5711559431839660e+01 
153 1 2 1.0279999805582856e+00 -5.1696603733421762e+02 1.0000000000000000e+00 1.6925757695728542e+01 1.9049143495419504e+01 1.5670685399519153e+01 
117 1 2 1.0279999912107574e+00 -4.8301901730006830e+02 1.0000000000000000e+00 1.6957174643542764e+01 1.8355333576320433e+01 1.5671208043736714e+01 

Velocities

107 3.4202662003214352e-03 -6.6600834278016264e-03 -9.9345386384769030e-03
94 3.4204983819124384e-03 -6.6598509164864962e-03 -9.9343873266011708e-03
65 3.4202832724263268e-03 -6.6598470788188811e-03 -9.9336090335068478e-03
71 3.4202715239715878e-03 -6.6598481643797358e-03 -9.9335719044743951e-03
72 3.4203375631126133e-03 -6.6597974991637323e-03 -9.9335936289790868e-03
36 3.4201581474435738e-03 -6.6599044557138012e-03 -9.9334057331660203e-03
51 3.4200273862059170e-03 -6.6599801489483001e-03 -9.9332591296281050e-03
22 3.4200273862070546e-03 -6.6599801489489064e-03 -9.9332591296260962e-03
57 3.4200273862059170e-03 -6.6599801489483001e-03 -9.9332591296281050e-03
15 3.4200273862057956e-03 -6.6599801489478881e-03 -9.9332591296301849e-03
21 3.4200273862070546e-03 -6.6599801489489064e-03 -9.9332591296260962e-03
16 3.4200273862057960e-03 -6.6599801489489411e-03 -9.9332591296291874e-03
52 3.4200273862064873e-03 -6.6599801489479809e-03 -9.9332591296294546e-03
30 3.4200883014707108e-03 -6.6599381622368869e-03 -9.9332992078587506e-03
59 3.4203842981870144e-03 -6.6596811529632460e-03 -9.9332710608441635e-03
60 3.4206938375608213e-03 -6.6593799110686415e-03 -9.9331044227319500e-03
66 3.4246566755240580e-03 -6.6558175562036062e-03 -9.9321418844163893e-03
35 3.5751130591915397e-03 -9.0104117429060018e-03 -9.6748774856736056e-03
28 4.3273162208369654e-03 -8.1779476927502457e-03 -9.1505577486241246e-03
33 4.3393717438413070e-03 -8.1655000134149801e-03 -9.1585459978531601e-03
29 4.3435113455790745e-03 -8.1615051881668756e-03 -9.1607159135609125e-03
105 4.3576097398453665e-03 -8.1507238467275651e-03 -9.1633745217493245e-03
63 4.3733460430183998e-03 -8.1344188651517515e-03 -9.1718316668879061e-03
69 4.3834986686676026e-03 -8.1246331592183373e-03 -9.1756692775934925e-03
70 4.3870577150540479e-03 -8.1214591013806167e-03 -9.1765511415802768e-03
106 4.3874284043961967e-03 -8.1215277129766811e-03 -9.1760690003931389e-03
34 4.3850031136384608e-03 -8.1219875845007540e-03 -9.1779159556271191e-03
99 4.3401645434613650e-03 -8.1513581429972417e-03 -9.1790767509699715e-03
23 3.7505995329454281e-03 -7.0009221843238710e-03 -9.8256208465409087e-03
58 4.0273917869491690e-03 -7.1313391890726581e-03 -9.8006181034081263e-03
13 4.4659251636641698e-03 -7.8914938041192914e-03 -9.4869382895926939e-03
103 4.4659251636641698e-03 -7.8914938041192914e-03 -9.4869382895926939e-03
67 4.4659251636641698e-03 -7.8914938041192914e-03 -9.4869382895926939e-03
25 4.4659251636641698e-03 -7.8914938041192914e-03 -9.4869382895926939e-03
31 4.4659251636641698e-03 -7.8914938041192914e-03 -9.4869382895926939e-03
26 4.4659251636641698e-03 -7.8914938041192914e-03 -9.4869382895926939e-03
50 4.4659251636641698e-03 -7.8914938041192914e-03 -9.4869382895926939e-03
24 4.4659251636641698e-03 -7.8914938041192914e-03 -9.4869382895926939e-03
91 4.4659251636641698e-03 -7.8914938041192914e-03 -9.4869382895926939e-03
104 4.4659251636641698e-03 -7.8914938041192914e-03 -9.4869382895926939e-03
61 4.4659251636641698e-03 -7.8914938041192914e-03 -9.4869382895926939e-03
32 4.4659251636641698e-03 -7.8914938041192914e-03 -9.4869382895926939e-03