LAMMPS data file via write_data, version 30 Jul 2016, timestep = 50400000

180 atoms
2 atom types

0.0000000000000000e+00 2.0000000000000000e+01 xlo xhi
0.0000000000000000e+00 2.0000000000000000e+01 ylo yhi
0.0000000000000000e+00 2.0000000000000000e+01 zlo zhi

Masses

1 3.896
2 4.31

Atoms # meso-molecular

163 1 2 1.0279999999999576e+00 -4.9748412527363246e+02 1.0000000000000000e+00 3.6804147195109085e+00 3.0925973155233581e+00 1.0392417566540355e+00 
2 1 2 1.0279999999998670e+00 -4.7405364373120415e+02 1.0000000000000000e+00 3.6804147195021248e+00 3.0925973155944444e+00 1.0392417566639243e+00 
100 1 2 1.0279999999999501e+00 -4.5590493448870086e+02 1.0000000000000000e+00 3.6804147195080490e+00 3.0925973150080268e+00 1.0392417565782688e+00 
57 1 2 1.0280000000000673e+00 -4.4257545088215034e+02 1.0000000000000000e+00 3.6804147195132391e+00 3.0925973153996353e+00 1.0392417566366945e+00 
159 1 2 1.0279999999998590e+00 -5.1201938515424183e+02 1.0000000000000000e+00 3.6804147195005017e+00 3.0925973155057940e+00 1.0392417566508600e+00 
152 1 2 1.0279999999997649e+00 -4.7339540959304566e+02 1.0000000000000000e+00 3.6804147195113410e+00 3.0925973156176840e+00 1.0392417566663061e+00 
43 1 2 1.0279999999999163e+00 -4.5930718062807114e+02 1.0000000000000000e+00 3.6804147195150545e+00 3.0925973155962128e+00 1.0392417566643231e+00 
116 1 2 1.0279999999999900e+00 -4.5510729727858359e+02 1.0000000000000000e+00 3.6804147195132626e+00 3.0925973151919628e+00 1.0392417566055305e+00 
44 1 2 1.0280000000003104e+00 -4.7171404692807835e+02 1.0000000000000000e+00 3.6804147195125316e+00 3.0925973153140531e+00 1.0392417566261261e+00 
157 1 2 1.0279999999999505e+00 -5.3941318625856275e+02 1.0000000000000000e+00 3.6804147195107313e+00 3.0925973152443569e+00 1.0392417566129626e+00 
140 1 2 1.0280000000000520e+00 -4.3042963518296176e+02 1.0000000000000000e+00 3.6804147195096562e+00 3.0925973155000372e+00 1.0392417566514029e+00 
176 1 2 1.0279999999999474e+00 -5.1760263574484622e+02 1.0000000000000000e+00 3.6804147195142924e+00 3.0925973152390767e+00 1.0392417566120833e+00 
38 1 2 1.0279999999999079e+00 -4.3871374119029474e+02 1.0000000000000000e+00 3.6804147195079744e+00 3.0925973154316826e+00 1.0392417566402059e+00 
14 1 2 1.0279999999999465e+00 -5.1694144101212260e+02 1.0000000000000000e+00 3.6804147195124246e+00 3.0925973150930055e+00 1.0392417565906416e+00 
80 1 2 1.0280000000000475e+00 -4.9957901185922583e+02 1.0000000000000000e+00 3.6804147195150101e+00 3.0925973154050981e+00 1.0392417566372978e+00 
87 1 2 1.0280000000000702e+00 -4.8060739050892084e+02 1.0000000000000000e+00 3.6804147195161683e+00 3.0925973153970601e+00 1.0392417566362824e+00 
33 1 2 1.0279999999999876e+00 -4.6353188135016018e+02 1.0000000000000000e+00 3.6804147195136419e+00 3.0925973155586459e+00 1.0392417566594097e+00 
27 1 2 1.0280000000000682e+00 -5.4142406376739177e+02 1.0000000000000000e+00 3.6804147195009942e+00 3.0925973153164987e+00 1.0392417566247334e+00 
15 1 2 1.0279999999998142e+00 -5.5035130679689985e+02 1.0000000000000000e+00 3.6804147195048533e+00 3.0925973156468434e+00 1.0392417566711347e+00 
49 1 2 1.0280000000001295e+00 -4.5399901459643604e+02 1.0000000000000000e+00 3.6804147195050727e+00 3.0925973153895918e+00 1.0392417566359018e+00 
73 1 2 1.0279999999999772e+00 -4.6569154676372943e+02 1.0000000000000000e+00 3.6804147195119574e+00 3.0925973156710791e+00 1.0392417566758920e+00 
39 1 2 1.0280000000000247e+00 -4.2500161393296457e+02 1.0000000000000000e+00 3.6804147195066226e+00 3.0925973155817288e+00 1.0392417566632539e+00 
8 1 2 1.0279999999997178e+00 -5.7229475770973522e+02 1.0000000000000000e+00 3.6804147195148831e+00 3.0925973153005915e+00 1.0392417566192356e+00 
115 1 2 1.0279999999999687e+00 -4.4719561317255460e+02 1.0000000000000000e+00 3.6804147195179047e+00 3.0925973153233342e+00 1.0392417566245673e+00 
99 1 2 1.0279999999999681e+00 -4.9632998463631463e+02 1.0000000000000000e+00 3.6804147195080943e+00 3.0925973152479314e+00 1.0392417566136825e+00 
111 1 2 1.0280000000002707e+00 -4.2246190853630350e+02 1.0000000000000000e+00 3.6804147195035544e+00 3.0925973151819970e+00 1.0392417566065735e+00 
20 1 2 1.0279999999999645e+00 -4.6711312569051870e+02 1.0000000000000000e+00 3.6804147195025592e+00 3.0925973152287742e+00 1.0392417566109526e+00 
135 1 2 1.0280000000000149e+00 -4.7323291387174794e+02 1.0000000000000000e+00 3.6804147195060826e+00 3.0925973154600288e+00 1.0392417566452949e+00 
63 1 2 1.0280000000002039e+00 -4.6195708832660546e+02 1.0000000000000000e+00 3.6804147195123269e+00 3.0925973156875086e+00 1.0392417566801506e+00 
104 1 2 1.0279999999999554e+00 -4.6785869832663298e+02 1.0000000000000000e+00 3.6804147194991992e+00 3.0925973154751514e+00 1.0392417566471739e+00 
177 1 2 1.0279999999999900e+00 -5.0063821630401821e+02 1.0000000000000000e+00 3.6804147195015129e+00 3.0925973160941624e+00 1.0392417567384118e+00 
32 1 2 1.0280000000000775e+00 -5.7575222644400753e+02 1.0000000000000000e+00 3.6804147195153032e+00 3.0925973155477040e+00 1.0392417566585059e+00 
69 1 2 1.0280000000001208e+00 -4.4946609610588814e+02 1.0000000000000000e+00 3.6804147195181858e+00 3.0925973154121627e+00 1.0392417566388705e+00 
105 1 2 1.0279999999999032e+00 -4.7192462002996285e+02 1.0000000000000000e+00 3.6804147195257384e+00 3.0925973156240789e+00 1.0392417566680796e+00 
141 1 2 1.0280000000002829e+00 -4.3974412180155139e+02 1.0000000000000000e+00 3.6804147195158370e+00 3.0925973149805297e+00 1.0392417565767886e+00 
81 1 2 1.0279999999999772e+00 -4.8007259391427874e+02 1.0000000000000000e+00 3.6804147195026795e+00 3.0925973154050035e+00 1.0392417566369678e+00 
97 1 2 1.0280000000000571e+00 -4.7784800588853170e+02 1.0000000000000000e+00 3.6804147195155537e+00 3.0925973154403761e+00 1.0392417566425554e+00 
13 1 2 1.0280000000000771e+00 -4.7155222793183106e+02 1.0000000000000000e+00 3.6804147195033683e+00 3.0925973151944093e+00 1.0392417566068142e+00 
164 1 2 1.0280000000000633e+00 -4.9594375445045523e+02 1.0000000000000000e+00 3.6804147195005759e+00 3.0925973154313517e+00 1.0392417566415870e+00 
26 1 2 1.0279999999998977e+00 -5.0960093214898916e+02 1.0000000000000000e+00 3.6804147195101380e+00 3.0925973154120507e+00 1.0392417566371996e+00 
92 1 2 1.0279999999997043e+00 -4.9565739542406743e+02 1.0000000000000000e+00 3.6804147195073718e+00 3.0925973153002837e+00 1.0392417566192267e+00 
9 1 2 1.0279999999998473e+00 -5.3187155273193412e+02 1.0000000000000000e+00 3.6804147195064929e+00 3.0925973153651234e+00 1.0392417566299568e+00 
31 1 2 1.0279999999999261e+00 -6.0755959391495389e+02 1.0000000000000000e+00 3.6804147195053170e+00 3.0925973155982276e+00 1.0392417566648966e+00 
98 1 2 1.0280000000000340e+00 -4.9166249556946622e+02 1.0000000000000000e+00 3.6804147195043386e+00 3.0925973155168314e+00 1.0392417566538390e+00 
158 1 2 1.0280000000000575e+00 -5.4805786216256524e+02 1.0000000000000000e+00 3.6804147195094492e+00 3.0925973156723816e+00 1.0392417566767955e+00 
134 1 2 1.0279999999999423e+00 -4.6332050411385444e+02 1.0000000000000000e+00 3.6804147195158059e+00 3.0925973152243715e+00 1.0392417566098424e+00 
170 1 2 1.0280000000002045e+00 -5.3462402321193736e+02 1.0000000000000000e+00 3.6804147195139469e+00 3.0925973153691113e+00 1.0392417566333163e+00 
62 1 2 1.0280000000002723e+00 -4.6706119550315418e+02 1.0000000000000000e+00 3.6804147195046335e+00 3.0925973156047633e+00 1.0392417566687149e+00 
178 1 2 1.0280000000000085e+00 -5.5458015279362962e+02 1.0000000000000000e+00 3.6804147195051033e+00 3.0925973155441526e+00 1.0392417566576235e+00 
3 1 2 1.0280000000000247e+00 -5.0707233875536269e+02 1.0000000000000000e+00 3.6804147195061687e+00 3.0925973154605848e+00 1.0392417566454542e+00 
165 1 2 1.0280000000000489e+00 -5.7536702264697806e+02 1.0000000000000000e+00 3.6804147195140269e+00 3.0925973151717665e+00 1.0392417566030250e+00 
121 1 2 1.0279999999998448e+00 -4.4817330358001732e+02 1.0000000000000000e+00 3.6804147195128878e+00 3.0925973155870974e+00 1.0392417566624348e+00 
171 1 2 1.0280000000002267e+00 -5.4044730188924234e+02 1.0000000000000000e+00 3.6804147195064454e+00 3.0925973151757651e+00 1.0392417566052352e+00 
68 1 2 1.0280000000000633e+00 -4.2367071378928188e+02 1.0000000000000000e+00 3.6804147195093311e+00 3.0925973155970468e+00 1.0392417566657630e+00 
7 1 2 1.0279999999999587e+00 -5.2710170006759870e+02 1.0000000000000000e+00 3.6804147195128452e+00 3.0925973152485815e+00 1.0392417566136043e+00 
91 1 2 1.0279999999998748e+00 -4.8333810691711074e+02 1.0000000000000000e+00 3.6804147195080796e+00 3.0925973150525592e+00 1.0392417565841983e+00 
93 1 2 1.0280000000000302e+00 -4.7600595745246403e+02 1.0000000000000000e+00 3.6804147195159702e+00 3.0925973153250732e+00 1.0392417566253722e+00 
110 1 2 1.0280000000000975e+00 -4.2223768356324700e+02 1.0000000000000000e+00 3.6804147195134607e+00 3.0925973157448636e+00 1.0392417566876981e+00 
85 1 2 1.0279999999997611e+00 -5.0673482916598181e+02 1.0000000000000000e+00 3.6804147195054604e+00 3.0925973154769455e+00 1.0392417566457097e+00 
103 1 2 1.0279999999999592e+00 -4.6066364497753455e+02 1.0000000000000000e+00 3.6804147195095926e+00 3.0925973155900439e+00 1.0392417566638781e+00 
175 1 2 1.0280000000002854e+00 -4.9775417134791701e+02 1.0000000000000000e+00 3.6804147195025592e+00 3.0925973154430673e+00 1.0392417566450938e+00 
55 1 2 1.0279999999999243e+00 -4.4802525903662479e+02 1.0000000000000000e+00 3.6804147195048498e+00 3.0925973153296784e+00 1.0392417566254093e+00 
25 1 2 1.0279999999998779e+00 -4.9749104352349082e+02 1.0000000000000000e+00 3.6804147195058725e+00 3.0925973151447255e+00 1.0392417565978236e+00 
61 1 2 1.0279999999999661e+00 -4.5040458409832115e+02 1.0000000000000000e+00 3.6804147195021151e+00 3.0925973154459037e+00 1.0392417566428969e+00 
51 1 2 1.0279999999999776e+00 -4.5255795776614809e+02 1.0000000000000000e+00 3.6804147195030432e+00 3.0925973157383693e+00 1.0392417566859748e+00 
106 1 2 1.0279999999999423e+00 -4.5117200747939853e+02 1.0000000000000000e+00 3.6804147194965040e+00 3.0925973151638386e+00 1.0392417566013474e+00 
45 1 2 1.0279999999999490e+00 -4.6326566039047918e+02 1.0000000000000000e+00 3.6804147195099328e+00 3.0925973151640913e+00 1.0392417566011627e+00 
127 1 2 1.0280000000003124e+00 -4.3494501132651664e+02 1.0000000000000000e+00 3.6804147195113677e+00 3.0925973152254143e+00 1.0392417566131329e+00 
133 1 2 1.0280000000002749e+00 -4.4690062285856152e+02 1.0000000000000000e+00 3.6804147195185650e+00 3.0925973153581747e+00 1.0392417566321919e+00 
19 1 2 1.0280000000000418e+00 -5.1476677415616041e+02 1.0000000000000000e+00 3.6804147195126595e+00 3.0925973155559032e+00 1.0392417566594676e+00 
147 1 2 1.0279999999998706e+00 -4.5786676664273705e+02 1.0000000000000000e+00 3.6804147195078469e+00 3.0925973151791784e+00 1.0392417566027858e+00 
128 1 2 1.0280000000002738e+00 -4.6919515113056099e+02 1.0000000000000000e+00 3.6804147195181227e+00 3.0925973152496198e+00 1.0392417566162335e+00 
122 1 2 1.0279999999999172e+00 -4.6232644743779639e+02 1.0000000000000000e+00 3.6804147195122758e+00 3.0925973156726814e+00 1.0392417566756287e+00 
139 1 2 1.0279999999999390e+00 -4.1864117143141158e+02 1.0000000000000000e+00 3.6804147195114938e+00 3.0925973153965582e+00 1.0392417566352254e+00 
169 1 2 1.0280000000000842e+00 -5.5028165262022821e+02 1.0000000000000000e+00 3.6804147195137600e+00 3.0925973151493875e+00 1.0392417566000263e+00 
75 1 2 1.0280000000000060e+00 -4.5019180129046185e+02 1.0000000000000000e+00 3.6804147194991050e+00 3.0925973153596447e+00 1.0392417566306076e+00 
67 1 2 1.0280000000000302e+00 -4.2404237241821431e+02 1.0000000000000000e+00 3.6804147195126524e+00 3.0925973152427342e+00 1.0392417566133372e+00 
109 1 2 1.0279999999999609e+00 -4.3035071552759706e+02 1.0000000000000000e+00 3.6804147195107424e+00 3.0925973158156652e+00 1.0392417566970362e+00 
179 1 2 1.0280000000000102e+00 -5.7078970664576764e+02 1.0000000000000000e+00 3.6804147195015791e+00 3.0925973153612447e+00 1.0392417566308267e+00 
107 1 2 1.0280000000000178e+00 -4.8357847472593426e+02 1.0000000000000000e+00 3.6804147195123753e+00 3.0925973154643729e+00 1.0392417566458296e+00 
50 1 2 1.0280000000000853e+00 -4.5678888975598159e+02 1.0000000000000000e+00 3.6804147195144781e+00 3.0925973150254231e+00 1.0392417565817995e+00 
117 1 2 1.0279999999998537e+00 -4.5808349601789405e+02 1.0000000000000000e+00 3.6804147195157668e+00 3.0925973155781445e+00 1.0392417566611294e+00 
74 1 2 1.0279999999999518e+00 -4.5909350829640687e+02 1.0000000000000000e+00 3.6804147195250629e+00 3.0925973158803188e+00 1.0392417567061654e+00 
129 1 2 1.0280000000000902e+00 -4.8082372885377470e+02 1.0000000000000000e+00 3.6804147195064982e+00 3.0925973154528239e+00 1.0392417566448451e+00 
22 1 2 1.0279999999997478e+00 -5.5123623913080269e+02 1.0000000000000000e+00 3.6804147195104022e+00 3.0925973152309316e+00 1.0392417566093282e+00 
86 1 2 1.0279999999998637e+00 -4.9512924158383186e+02 1.0000000000000000e+00 3.6804147195024872e+00 3.0925973153611634e+00 1.0392417566295891e+00 
1 1 2 1.0280000000001821e+00 -5.2041296532580554e+02 1.0000000000000000e+00 3.6804147195129016e+00 3.0925973151090775e+00 1.0392417565949226e+00 
21 1 2 1.0279999999999723e+00 -4.6382935002180398e+02 1.0000000000000000e+00 3.6804147195145331e+00 3.0925973154413207e+00 1.0392417566420153e+00 
64 1 2 1.0279999999999552e+00 -4.3036538761392012e+02 1.0000000000000000e+00 3.6804147195194203e+00 3.0925973152801260e+00 1.0392417566180774e+00 
35 1 2 1.0280000000000442e+00 -5.0332690736911809e+02 1.0000000000000000e+00 3.6804147195161030e+00 3.0925973153288449e+00 1.0392417566260366e+00 
145 1 2 1.0279999999998151e+00 -4.7846012263615626e+02 1.0000000000000000e+00 3.7953701808515441e+00 2.2864617723128089e+00 6.5225720693983424e+00 
102 1 2 1.0279999999998666e+00 -4.6240627530965617e+02 1.0000000000000000e+00 3.7953701808532863e+00 2.2864617723018186e+00 6.5225720693962668e+00 
118 1 2 1.0279999999998164e+00 -4.6638106074299026e+02 1.0000000000000000e+00 3.7953701808652354e+00 2.2864617725772187e+00 6.5225720694369178e+00 
59 1 2 1.0279999999998259e+00 -4.5670142636054334e+02 1.0000000000000000e+00 3.7953701808704121e+00 2.2864617729189400e+00 6.5225720694869684e+00 
131 1 2 1.0279999999997820e+00 -4.6450001165182925e+02 1.0000000000000000e+00 3.7953701808513522e+00 2.2864617722558696e+00 6.5225720693902467e+00 
82 1 2 1.0279999999998257e+00 -4.9344656987458166e+02 1.0000000000000000e+00 3.7953701808687978e+00 2.2864617723711302e+00 6.5225720694064684e+00 
16 1 2 1.0280000000002223e+00 -4.8000011451956436e+02 1.0000000000000000e+00 3.7953701808593507e+00 2.2864617721902616e+00 6.5225720693768192e+00 
94 1 2 1.0280000000004681e+00 -4.7860288127719275e+02 1.0000000000000000e+00 3.7953701808644373e+00 2.2864617722744480e+00 6.5225720693870732e+00 
84 1 2 1.0279999999999188e+00 -4.7515596661956545e+02 1.0000000000000000e+00 3.7953701808624700e+00 2.2864617725524523e+00 6.5225720694324947e+00 
155 1 2 1.0279999999998646e+00 -5.4919029424605401e+02 1.0000000000000000e+00 3.7953701808744253e+00 2.2864617723889267e+00 6.5225720694086462e+00 
77 1 2 1.0279999999998897e+00 -4.8890886968408108e+02 1.0000000000000000e+00 3.7953701808744751e+00 2.2864617726949961e+00 6.5225720694534361e+00 
47 1 2 1.0279999999997123e+00 -4.5864166148357469e+02 1.0000000000000000e+00 3.7953701808511138e+00 2.2864617722877636e+00 6.5225720693955136e+00 
41 1 2 1.0280000000000693e+00 -4.6090000311636823e+02 1.0000000000000000e+00 3.7953701808635811e+00 2.2864617722885949e+00 6.5225720693924432e+00 
162 1 2 1.0279999999999980e+00 -5.2712976079585462e+02 1.0000000000000000e+00 3.7953701808610085e+00 2.2864617726071841e+00 6.5225720694399199e+00 
119 1 2 1.0279999999998932e+00 -4.8057135886040601e+02 1.0000000000000000e+00 3.7953701808596869e+00 2.2864617727235097e+00 6.5225720694579099e+00 
83 1 2 1.0279999999996081e+00 -4.9874531516832576e+02 1.0000000000000000e+00 3.7953701808628226e+00 2.2864617721482214e+00 6.5225720693756069e+00 
54 1 2 1.0279999999998932e+00 -4.5444288298787842e+02 1.0000000000000000e+00 3.7953701808596869e+00 2.2864617727235097e+00 6.5225720694579099e+00 
48 1 2 1.0279999999999008e+00 -4.4080874616920056e+02 1.0000000000000000e+00 3.7953701808640883e+00 2.2864617726091696e+00 6.5225720694409466e+00 
149 1 2 1.0279999999999323e+00 -5.5989872596774262e+02 1.0000000000000000e+00 3.7953701808558225e+00 2.2864617721489435e+00 6.5225720693731981e+00 
113 1 2 1.0279999999994851e+00 -4.5629625401595990e+02 1.0000000000000000e+00 3.7953701808704561e+00 2.2864617723722138e+00 6.5225720694093869e+00 
11 1 2 1.0279999999998704e+00 -4.9330975890293053e+02 1.0000000000000000e+00 3.7953701808586739e+00 2.2864617725804464e+00 6.5225720694370857e+00 
53 1 2 1.0280000000004870e+00 -4.4486557817074163e+02 1.0000000000000000e+00 3.7953701808573133e+00 2.2864617723730860e+00 6.5225720694015674e+00 
5 1 2 1.0280000000002210e+00 -5.9683671855615080e+02 1.0000000000000000e+00 3.7953701808555973e+00 2.2864617729573777e+00 6.5225720694896880e+00 
90 1 2 1.0279999999998486e+00 -4.9499691779098316e+02 1.0000000000000000e+00 3.7953701808620277e+00 2.2864617725954979e+00 6.5225720694394083e+00 
126 1 2 1.0280000000003762e+00 -4.6778836289469700e+02 1.0000000000000000e+00 3.7953701808494773e+00 2.2864617720582698e+00 6.5225720693563582e+00 
161 1 2 1.0279999999999989e+00 -5.7537102666154567e+02 1.0000000000000000e+00 3.7953701808658415e+00 2.2864617725003509e+00 6.5225720694241058e+00 
17 1 2 1.0280000000002838e+00 -5.1631939571800820e+02 1.0000000000000000e+00 3.7953701808511005e+00 2.2864617722564899e+00 6.5225720693862241e+00 
89 1 2 1.0280000000004057e+00 -4.8185953306044507e+02 1.0000000000000000e+00 3.7953701808619211e+00 2.2864617725213714e+00 6.5225720694239406e+00 
125 1 2 1.0280000000004021e+00 -4.7929486168684741e+02 1.0000000000000000e+00 3.7953701808627955e+00 2.2864617721855902e+00 6.5225720693745837e+00 
18 1 2 1.0280000000003162e+00 -4.8813622007604249e+02 1.0000000000000000e+00 3.7953701808502833e+00 2.2864617724058958e+00 6.5225720694079410e+00 
6 1 2 1.0280000000000347e+00 -4.9026500851538106e+02 1.0000000000000000e+00 3.7953701808619353e+00 2.2864617723806608e+00 6.5225720694062961e+00 
12 1 2 1.0279999999997642e+00 -4.7453682283345807e+02 1.0000000000000000e+00 3.7953701808505538e+00 2.2864617728272107e+00 6.5225720694744060e+00 
24 1 2 1.0280000000001834e+00 -5.1142200796625445e+02 1.0000000000000000e+00 3.7953701808537321e+00 2.2864617726550009e+00 6.5225720694455802e+00 
138 1 2 1.0280000000000364e+00 -4.3838737263526707e+02 1.0000000000000000e+00 3.7953701808618869e+00 2.2864617726189933e+00 6.5225720694413223e+00 
78 1 2 1.0279999999994842e+00 -4.6867032692949726e+02 1.0000000000000000e+00 3.7953701808699853e+00 2.2864617726334422e+00 6.5225720694478104e+00 
154 1 2 1.0279999999998506e+00 -4.9451799032949953e+02 1.0000000000000000e+00 3.7953701808698161e+00 2.2864617724004401e+00 6.5225720694105505e+00 
30 1 2 1.0279999999999996e+00 -5.5317256683850826e+02 1.0000000000000000e+00 3.7953701808676250e+00 2.2864617729455112e+00 6.5225720694895069e+00 
168 1 2 1.0280000000004144e+00 -5.1548250523884690e+02 1.0000000000000000e+00 3.7953701808698375e+00 2.2864617725237761e+00 6.5225720694240552e+00 
96 1 2 1.0279999999998146e+00 -4.8814722691813131e+02 1.0000000000000000e+00 3.7953701808646856e+00 2.2864617722473644e+00 6.5225720693884481e+00 
132 1 2 1.0279999999999836e+00 -4.3204499913899588e+02 1.0000000000000000e+00 3.7953701808487050e+00 2.2864617725843308e+00 6.5225720694369373e+00 
23 1 2 1.0280000000004723e+00 -5.0397806929900810e+02 1.0000000000000000e+00 3.7953701808626792e+00 2.2864617725328023e+00 6.5225720694250562e+00 
66 1 2 1.0280000000001353e+00 -4.3862249025797433e+02 1.0000000000000000e+00 3.7953701808504041e+00 2.2864617722609495e+00 6.5225720693881142e+00 
150 1 2 1.0280000000003562e+00 -5.4618703164942144e+02 1.0000000000000000e+00 3.7953701808607572e+00 2.2864617724135972e+00 6.5225720694085245e+00 
167 1 2 1.0280000000003895e+00 -5.1465375389477640e+02 1.0000000000000000e+00 3.7953701808528701e+00 2.2864617725373617e+00 6.5225720694266114e+00 
42 1 2 1.0279999999998324e+00 -4.3060040728293677e+02 1.0000000000000000e+00 3.7953701808612510e+00 2.2864617725300245e+00 6.5225720694299305e+00 
174 1 2 1.0280000000001113e+00 -4.8238295055593545e+02 1.0000000000000000e+00 3.7953701808604721e+00 2.2864617725940155e+00 6.5225720694370661e+00 
10 1 2 1.0279999999998020e+00 -4.9138976423974822e+02 1.0000000000000000e+00 3.7953701808538143e+00 2.2864617726956102e+00 6.5225720694546796e+00 
144 1 2 1.0279999999997897e+00 -4.1345710098271741e+02 1.0000000000000000e+00 3.7953701808560099e+00 2.2864617723936749e+00 6.5225720694103435e+00 
36 1 2 1.0279999999995986e+00 -4.9945927508396687e+02 1.0000000000000000e+00 3.7953701808570277e+00 2.2864617724231215e+00 6.5225720694162224e+00 
88 1 2 1.0280000000001521e+00 -4.7498885626104538e+02 1.0000000000000000e+00 3.7953701808619771e+00 2.2864617728089653e+00 6.5225720694682980e+00 
156 1 2 1.0279999999998581e+00 -5.3557679300399366e+02 1.0000000000000000e+00 3.7953701808522422e+00 2.2864617724711995e+00 6.5225720694212601e+00 
180 1 2 1.0279999999999525e+00 -4.7844374212025718e+02 1.0000000000000000e+00 3.7953701808659153e+00 2.2864617722470650e+00 6.5225720693872464e+00 
114 1 2 1.0279999999994283e+00 -4.2373367021138029e+02 1.0000000000000000e+00 3.7953701808520397e+00 2.2864617731503674e+00 6.5225720695246414e+00 
120 1 2 1.0280000000003964e+00 -4.4414973859475617e+02 1.0000000000000000e+00 3.7953701808603491e+00 2.2864617725547003e+00 6.5225720694289482e+00 
4 1 2 1.0280000000003651e+00 -5.4348623337195750e+02 1.0000000000000000e+00 3.7953701808719820e+00 2.2864617724822294e+00 6.5225720694183069e+00 
79 1 2 1.0279999999998288e+00 -4.8266819659421469e+02 1.0000000000000000e+00 3.7953701808624740e+00 2.2864617721044111e+00 6.5225720693673619e+00 
143 1 2 1.0279999999998279e+00 -4.5970037241781222e+02 1.0000000000000000e+00 3.7953701808516018e+00 2.2864617720756248e+00 6.5225720693633651e+00 
72 1 2 1.0280000000003990e+00 -4.3563923437114533e+02 1.0000000000000000e+00 3.7953701808655365e+00 2.2864617725913181e+00 6.5225720694342000e+00 
172 1 2 1.0280000000000140e+00 -4.9059565446275360e+02 1.0000000000000000e+00 3.7953701808605662e+00 2.2864617725060610e+00 6.5225720694249310e+00 
52 1 2 1.0280000000004008e+00 -4.3905534943807356e+02 1.0000000000000000e+00 3.7953701808523674e+00 2.2864617726167396e+00 6.5225720694382003e+00 
108 1 2 1.0280000000001819e+00 -4.4883669233768467e+02 1.0000000000000000e+00 3.7953701808676525e+00 2.2864617723809024e+00 6.5225720694050038e+00 
40 1 2 1.0280000000001468e+00 -4.0816986967183601e+02 1.0000000000000000e+00 3.7953701808545621e+00 2.2864617722657421e+00 6.5225720693886364e+00 
153 1 2 1.0279999999999685e+00 -4.5093575531505985e+02 1.0000000000000000e+00 3.7953701808621525e+00 2.2864617726023679e+00 6.5225720694394305e+00 
136 1 2 1.0280000000001583e+00 -4.5530064298483467e+02 1.0000000000000000e+00 3.7953701808594631e+00 2.2864617722324208e+00 6.5225720693835401e+00 
28 1 2 1.0279999999996043e+00 -4.9795205195089432e+02 1.0000000000000000e+00 3.7953701808560019e+00 2.2864617725514194e+00 6.5225720694350562e+00 
123 1 2 1.0279999999999545e+00 -4.2767684839241156e+02 1.0000000000000000e+00 3.7953701808609623e+00 2.2864617724695395e+00 6.5225720694200415e+00 
146 1 2 1.0279999999998111e+00 -4.5180176852337559e+02 1.0000000000000000e+00 3.7953701808593912e+00 2.2864617728290511e+00 6.5225720694741067e+00 
142 1 2 1.0279999999998486e+00 -4.2847845081040850e+02 1.0000000000000000e+00 3.7953701808534919e+00 2.2864617725535106e+00 6.5225720694334131e+00 
56 1 2 1.0279999999999898e+00 -4.4502586985708535e+02 1.0000000000000000e+00 3.7953701808634235e+00 2.2864617725302487e+00 6.5225720694286258e+00 
37 1 2 1.0280000000002387e+00 -4.2791579213101807e+02 1.0000000000000000e+00 3.7953701808554881e+00 2.2864617723823115e+00 6.5225720694050002e+00 
34 1 2 1.0280000000000209e+00 -4.9624815907389012e+02 1.0000000000000000e+00 3.7953701808587317e+00 2.2864617724876823e+00 6.5225720694222122e+00 
166 1 2 1.0279999999998568e+00 -5.6280880825508791e+02 1.0000000000000000e+00 3.7953701808584070e+00 2.2864617727949419e+00 6.5225720694687359e+00 
112 1 2 1.0279999999998086e+00 -4.4184010973197837e+02 1.0000000000000000e+00 3.7953701808545657e+00 2.2864617722894010e+00 6.5225720693948901e+00 
70 1 2 1.0279999999999319e+00 -4.3990010101210930e+02 1.0000000000000000e+00 3.7953701808656737e+00 2.2864617722300653e+00 6.5225720693849230e+00 
46 1 2 1.0280000000001974e+00 -4.5571917497657921e+02 1.0000000000000000e+00 3.7953701808563580e+00 2.2864617722529883e+00 6.5225720693863085e+00 
65 1 2 1.0279999999998366e+00 -4.5896868886222762e+02 1.0000000000000000e+00 3.7953701808639408e+00 2.2864617729424634e+00 6.5225720694904732e+00 
137 1 2 1.0280000000000673e+00 -4.7077261885081509e+02 1.0000000000000000e+00 3.7953701808559761e+00 2.2864617724019132e+00 6.5225720694092786e+00 
173 1 2 1.0280000000003418e+00 -5.0890028329805392e+02 1.0000000000000000e+00 3.7953701808636868e+00 2.2864617726015046e+00 6.5225720694362073e+00 
76 1 2 1.0279999999998348e+00 -4.7767859147146237e+02 1.0000000000000000e+00 3.7953701808524749e+00 2.2864617722137504e+00 6.5225720693835960e+00 
58 1 2 1.0279999999998952e+00 -4.4163954986523515e+02 1.0000000000000000e+00 3.7953701808537810e+00 2.2864617726578760e+00 6.5225720694483682e+00 
71 1 2 1.0279999999998688e+00 -4.5562332419640364e+02 1.0000000000000000e+00 3.7953701808721099e+00 2.2864617726763328e+00 6.5225720694509137e+00 
95 1 2 1.0279999999998153e+00 -4.8737098517830430e+02 1.0000000000000000e+00 3.7953701808609202e+00 2.2864617725018652e+00 6.5225720694259381e+00 
151 1 2 1.0280000000002361e+00 -5.4326852649886735e+02 1.0000000000000000e+00 3.7953701808544484e+00 2.2864617722691314e+00 6.5225720693884046e+00 
29 1 2 1.0280000000001139e+00 -5.1144199183214914e+02 1.0000000000000000e+00 3.7953701808581735e+00 2.2864617724861547e+00 6.5225720694212344e+00 
130 1 2 1.0280000000004266e+00 -4.7526816272141616e+02 1.0000000000000000e+00 3.7953701808648361e+00 2.2864617723070526e+00 6.5225720693921971e+00 
60 1 2 1.0280000000000162e+00 -4.5547249172667608e+02 1.0000000000000000e+00 3.7953701808667772e+00 2.2864617726672183e+00 6.5225720694484757e+00 
124 1 2 1.0279999999998564e+00 -4.6634364952490557e+02 1.0000000000000000e+00 3.7953701808637867e+00 2.2864617722604788e+00 6.5225720693900540e+00 
101 1 2 1.0280000000001035e+00 -4.8621131826273881e+02 1.0000000000000000e+00 3.7953701808673586e+00 2.2864617725322591e+00 6.5225720694279063e+00 
148 1 2 1.0280000000000133e+00 -4.8485461761808705e+02 1.0000000000000000e+00 3.7953701808750258e+00 2.2864617729202465e+00 6.5225720694855260e+00 
160 1 2 1.0279999999995870e+00 -5.8572948663107968e+02 1.0000000000000000e+00 3.7953701808529532e+00 2.2864617730716557e+00 6.5225720695117460e+00 

Velocities

163 3.0115545598818540e-02 3.6300284838128899e-01 -1.0330817198254726e-01
2 3.0115545598839270e-02 3.6300284838265612e-01 -1.0330817198028897e-01
100 3.0115545598821195e-02 3.6300284838158997e-01 -1.0330817198258591e-01
57 3.0115545598947826e-02 3.6300284838232261e-01 -1.0330817198073543e-01
159 3.0115545598816375e-02 3.6300284838173474e-01 -1.0330817198095302e-01
152 3.0115545598979051e-02 3.6300284838283620e-01 -1.0330817197824124e-01
43 3.0115545598895010e-02 3.6300284838168351e-01 -1.0330817198102478e-01
116 3.0115545598869232e-02 3.6300284838224933e-01 -1.0330817197992638e-01
44 3.0115545598923234e-02 3.6300284838227442e-01 -1.0330817198099690e-01
157 3.0115545598803837e-02 3.6300284838148972e-01 -1.0330817198262697e-01
140 3.0115545598899670e-02 3.6300284838202407e-01 -1.0330817198060610e-01
176 3.0115545598874017e-02 3.6300284838182267e-01 -1.0330817197997989e-01
38 3.0115545598847292e-02 3.6300284838161007e-01 -1.0330817198115069e-01
14 3.0115545598774232e-02 3.6300284838168201e-01 -1.0330817198270026e-01
80 3.0115545598841852e-02 3.6300284838187219e-01 -1.0330817198196150e-01
87 3.0115545598889824e-02 3.6300284838211816e-01 -1.0330817198020772e-01
33 3.0115545598813739e-02 3.6300284838179186e-01 -1.0330817198260130e-01
27 3.0115545598942667e-02 3.6300284838233049e-01 -1.0330817198073837e-01
15 3.0115545598838878e-02 3.6300284838242908e-01 -1.0330817198022710e-01
49 3.0115545598889692e-02 3.6300284838202368e-01 -1.0330817197965945e-01
73 3.0115545598880598e-02 3.6300284838162000e-01 -1.0330817198008077e-01
39 3.0115545598888876e-02 3.6300284838161617e-01 -1.0330817198057106e-01
8 3.0115545598947160e-02 3.6300284838278113e-01 -1.0330817197756850e-01
115 3.0115545598839621e-02 3.6300284838268981e-01 -1.0330817198026478e-01
99 3.0115545598849276e-02 3.6300284838190722e-01 -1.0330817197989163e-01
111 3.0115545598865361e-02 3.6300284838184121e-01 -1.0330817198025599e-01
20 3.0115545598965815e-02 3.6300284838258301e-01 -1.0330817197844470e-01
135 3.0115545598866478e-02 3.6300284838186014e-01 -1.0330817198234345e-01
63 3.0115545598891347e-02 3.6300284838284469e-01 -1.0330817197886237e-01
104 3.0115545598858009e-02 3.6300284838198771e-01 -1.0330817198053738e-01
177 3.0115545598849627e-02 3.6300284838206037e-01 -1.0330817198032299e-01
32 3.0115545598893737e-02 3.6300284838213365e-01 -1.0330817198012905e-01
69 3.0115545598804923e-02 3.6300284838241337e-01 -1.0330817198175053e-01
105 3.0115545598888134e-02 3.6300284838275926e-01 -1.0330817198042701e-01
141 3.0115545598865586e-02 3.6300284838225172e-01 -1.0330817198021174e-01
81 3.0115545598953544e-02 3.6300284838266794e-01 -1.0330817197842795e-01
97 3.0115545598823516e-02 3.6300284838211661e-01 -1.0330817198245951e-01
13 3.0115545598897713e-02 3.6300284838297242e-01 -1.0330817197929654e-01
164 3.0115545598926090e-02 3.6300284838198094e-01 -1.0330817198060729e-01
26 3.0115545598988443e-02 3.6300284838318442e-01 -1.0330817198064751e-01
92 3.0115545598902813e-02 3.6300284838227331e-01 -1.0330817198034208e-01
9 3.0115545598821340e-02 3.6300284838230001e-01 -1.0330817198079804e-01