LAMMPS data file via write_data, version 30 Jul 2016, timestep = 50000000

180 atoms
2 atom types

0.0000000000000000e+00 2.0000000000000000e+01 xlo xhi
0.0000000000000000e+00 2.0000000000000000e+01 ylo yhi
0.0000000000000000e+00 2.0000000000000000e+01 zlo zhi

Masses

1 3.896
2 4.31

Atoms # meso-molecular

163 1 2 1.0279999999999179e+00 -4.9748412527363246e+02 1.0000000000000000e+00 2.4757928955306188e+00 8.5724833803594667e+00 5.1715686358487618e+00 
35 1 2 1.0279999999999783e+00 -5.0332690736911809e+02 1.0000000000000000e+00 2.4757928955358133e+00 8.5724833801607012e+00 5.1715686358199271e+00 
64 1 2 1.0280000000001033e+00 -4.3036538761392012e+02 1.0000000000000000e+00 2.4757928955391306e+00 8.5724833801113824e+00 5.1715686358136326e+00 
21 1 2 1.0280000000000551e+00 -4.6382935002180398e+02 1.0000000000000000e+00 2.4757928955342434e+00 8.5724833802781077e+00 5.1715686358378585e+00 
1 1 2 1.0280000000001603e+00 -5.2041296532580554e+02 1.0000000000000000e+00 2.4757928955326118e+00 8.5724833799456537e+00 5.1715686357898729e+00 
86 1 2 1.0279999999998770e+00 -4.9512924158383186e+02 1.0000000000000000e+00 2.4757928955221975e+00 8.5724833801953171e+00 5.1715686358244719e+00 
22 1 2 1.0279999999997638e+00 -5.5123623913080269e+02 1.0000000000000000e+00 2.4757928955301125e+00 8.5724833800498939e+00 5.1715686358019948e+00 
129 1 2 1.0279999999999914e+00 -4.8082372885377470e+02 1.0000000000000000e+00 2.4757928955262085e+00 8.5724833802705600e+00 5.1715686358363904e+00 
74 1 2 1.0280000000001182e+00 -4.5909350829640687e+02 1.0000000000000000e+00 2.4757928955447732e+00 8.5724833807140115e+00 5.1715686359022337e+00 
117 1 2 1.0279999999999039e+00 -4.5808349601789405e+02 1.0000000000000000e+00 2.4757928955354771e+00 8.5724833804118656e+00 5.1715686358562527e+00 
50 1 2 1.0279999999999785e+00 -4.5678888975598159e+02 1.0000000000000000e+00 2.4757928955341884e+00 8.5724833798591558e+00 5.1715686357756345e+00 
107 1 2 1.0279999999997123e+00 -4.8357847472593426e+02 1.0000000000000000e+00 2.4757928955320856e+00 8.5724833802963492e+00 5.1715686358377653e+00 
179 1 2 1.0280000000000036e+00 -5.7078970664576764e+02 1.0000000000000000e+00 2.4757928955212893e+00 8.5724833802016231e+00 5.1715686358264570e+00 
109 1 2 1.0279999999998626e+00 -4.3035071552759706e+02 1.0000000000000000e+00 2.4757928955304527e+00 8.5724833806335567e+00 5.1715686358886082e+00 
67 1 2 1.0279999999999851e+00 -4.2404237241821431e+02 1.0000000000000000e+00 2.4757928955323627e+00 8.5724833800770028e+00 5.1715686358077546e+00 
75 1 2 1.0279999999999199e+00 -4.5019180129046185e+02 1.0000000000000000e+00 2.4757928955188153e+00 8.5724833801914677e+00 5.1715686358243289e+00 
169 1 2 1.0280000000000118e+00 -5.5028165262022821e+02 1.0000000000000000e+00 2.4757928955334703e+00 8.5724833799672790e+00 5.1715686357918171e+00 
139 1 2 1.0280000000001694e+00 -4.1864117143141158e+02 1.0000000000000000e+00 2.4757928955312041e+00 8.5724833802302438e+00 5.1715686358318180e+00 
122 1 2 1.0279999999998060e+00 -4.6232644743779639e+02 1.0000000000000000e+00 2.4757928955319861e+00 8.5724833805041118e+00 5.1715686358690842e+00 
128 1 2 1.0280000000001814e+00 -4.6919515113056099e+02 1.0000000000000000e+00 2.4757928955378330e+00 8.5724833800861120e+00 5.1715686358105835e+00 
147 1 2 1.0280000000000713e+00 -4.5786676664273705e+02 1.0000000000000000e+00 2.4757928955275572e+00 8.5724833800128639e+00 5.1715686357991313e+00 
19 1 2 1.0279999999999898e+00 -5.1476677415616041e+02 1.0000000000000000e+00 2.4757928955323698e+00 8.5724833803902332e+00 5.1715686358538404e+00 
133 1 2 1.0280000000000424e+00 -4.4690062285856152e+02 1.0000000000000000e+00 2.4757928955382753e+00 8.5724833801935603e+00 5.1715686358252340e+00 
127 1 2 1.0279999999997529e+00 -4.3494501132651664e+02 1.0000000000000000e+00 2.4757928955310780e+00 8.5724833800607634e+00 5.1715686358034887e+00 
45 1 2 1.0279999999997818e+00 -4.6326566039047918e+02 1.0000000000000000e+00 2.4757928955296431e+00 8.5724833799825557e+00 5.1715686357922532e+00 
106 1 2 1.0279999999999496e+00 -4.5117200747939853e+02 1.0000000000000000e+00 2.4757928955162143e+00 8.5724833799957079e+00 5.1715686357958486e+00 
51 1 2 1.0280000000000251e+00 -4.5255795776614809e+02 1.0000000000000000e+00 2.4757928955227535e+00 8.5724833805719207e+00 5.1715686358810444e+00 
61 1 2 1.0280000000000806e+00 -4.5040458409832115e+02 1.0000000000000000e+00 2.4757928955218254e+00 8.5724833802773297e+00 5.1715686358382076e+00 
25 1 2 1.0279999999999878e+00 -4.9749104352349082e+02 1.0000000000000000e+00 2.4757928955255828e+00 8.5724833799784186e+00 5.1715686357934274e+00 
55 1 2 1.0279999999999114e+00 -4.4802525903662479e+02 1.0000000000000000e+00 2.4757928955245601e+00 8.5724833801631881e+00 5.1715686358199813e+00 
175 1 2 1.0279999999999034e+00 -4.9775417134791701e+02 1.0000000000000000e+00 2.4757928955222694e+00 8.5724833802771503e+00 5.1715686358367154e+00 
103 1 2 1.0280000000000691e+00 -4.6066364497753455e+02 1.0000000000000000e+00 2.4757928955293029e+00 8.5724833804214455e+00 5.1715686358591437e+00 
85 1 2 1.0279999999999074e+00 -5.0673482916598181e+02 1.0000000000000000e+00 2.4757928955251707e+00 8.5724833802948233e+00 5.1715686358392912e+00 
110 1 2 1.0280000000000415e+00 -4.2223768356324700e+02 1.0000000000000000e+00 2.4757928955331709e+00 8.5724833805790155e+00 5.1715686358819992e+00 
93 1 2 1.0279999999999017e+00 -4.7600595745246403e+02 1.0000000000000000e+00 2.4757928955356805e+00 8.5724833801587703e+00 5.1715686358190158e+00 
91 1 2 1.0279999999997795e+00 -4.8333810691711074e+02 1.0000000000000000e+00 2.4757928955277899e+00 8.5724833798843907e+00 5.1715686357778425e+00 
7 1 2 1.0279999999999225e+00 -5.2710170006759870e+02 1.0000000000000000e+00 2.4757928955325554e+00 8.5724833800821596e+00 5.1715686358079918e+00 
68 1 2 1.0280000000000529e+00 -4.2367071378928188e+02 1.0000000000000000e+00 2.4757928955290414e+00 8.5724833804313612e+00 5.1715686358604769e+00 
171 1 2 1.0279999999999623e+00 -5.4044730188924234e+02 1.0000000000000000e+00 2.4757928955261557e+00 8.5724833800117128e+00 5.1715686357980930e+00 
121 1 2 1.0280000000002163e+00 -4.4817330358001732e+02 1.0000000000000000e+00 2.4757928955325981e+00 8.5724833804207812e+00 5.1715686358601873e+00 
165 1 2 1.0279999999998235e+00 -5.7536702264697806e+02 1.0000000000000000e+00 2.4757928955337372e+00 8.5724833800060818e+00 5.1715686357959694e+00 
3 1 2 1.0279999999999199e+00 -5.0707233875536269e+02 1.0000000000000000e+00 2.4757928955258790e+00 8.5724833802919793e+00 5.1715686358389545e+00 
178 1 2 1.0279999999999849e+00 -5.5458015279362962e+02 1.0000000000000000e+00 2.4757928955248136e+00 8.5724833803784186e+00 5.1715686358522222e+00 
62 1 2 1.0280000000000631e+00 -4.6706119550315418e+02 1.0000000000000000e+00 2.4757928955243438e+00 8.5724833804401861e+00 5.1715686358619513e+00 
170 1 2 1.0279999999999743e+00 -5.3462402321193736e+02 1.0000000000000000e+00 2.4757928955336572e+00 8.5724833801873164e+00 5.1715686358238564e+00 
134 1 2 1.0279999999998937e+00 -4.6332050411385444e+02 1.0000000000000000e+00 2.4757928955355162e+00 8.5724833800585323e+00 5.1715686358042232e+00 
158 1 2 1.0279999999998690e+00 -5.4805786216256524e+02 1.0000000000000000e+00 2.4757928955291595e+00 8.5724833805061031e+00 5.1715686358699511e+00 
98 1 2 1.0280000000002911e+00 -4.9166249556946622e+02 1.0000000000000000e+00 2.4757928955240489e+00 8.5724833803486895e+00 5.1715686358503827e+00 
31 1 2 1.0280000000000691e+00 -6.0755959391495389e+02 1.0000000000000000e+00 2.4757928955250272e+00 8.5724833804388059e+00 5.1715686358617878e+00 
9 1 2 1.0280000000002112e+00 -5.3187155273193412e+02 1.0000000000000000e+00 2.4757928955262032e+00 8.5724833801965534e+00 5.1715686358273150e+00 
92 1 2 1.0279999999999310e+00 -4.9565739542406743e+02 1.0000000000000000e+00 2.4757928955270820e+00 8.5724833801378324e+00 5.1715686358163584e+00 
26 1 2 1.0280000000001066e+00 -5.0960093214898916e+02 1.0000000000000000e+00 2.4757928955298483e+00 8.5724833802276006e+00 5.1715686358309458e+00 
164 1 2 1.0280000000000671e+00 -4.9594375445045523e+02 1.0000000000000000e+00 2.4757928955202861e+00 8.5724833802656200e+00 5.1715686358364108e+00 
13 1 2 1.0279999999999807e+00 -4.7155222793183106e+02 1.0000000000000000e+00 2.4757928955230786e+00 8.5724833800122529e+00 5.1715686357983905e+00 
97 1 2 1.0279999999999772e+00 -4.7784800588853170e+02 1.0000000000000000e+00 2.4757928955352639e+00 8.5724833802716613e+00 5.1715686358362420e+00 
81 1 2 1.0280000000000273e+00 -4.8007259391427874e+02 1.0000000000000000e+00 2.4757928955223898e+00 8.5724833802235025e+00 5.1715686358298480e+00 
141 1 2 1.0279999999999998e+00 -4.3974412180155139e+02 1.0000000000000000e+00 2.4757928955355473e+00 8.5724833798146047e+00 5.1715686357692272e+00 
105 1 2 1.0279999999997238e+00 -4.7192462002996285e+02 1.0000000000000000e+00 2.4757928955454487e+00 8.5724833804417777e+00 5.1715686358589581e+00 
69 1 2 1.0279999999998528e+00 -4.4946609610588814e+02 1.0000000000000000e+00 2.4757928955378961e+00 8.5724833802435647e+00 5.1715686358310400e+00 
32 1 2 1.0280000000000518e+00 -5.7575222644400753e+02 1.0000000000000000e+00 2.4757928955350135e+00 8.5724833803814260e+00 5.1715686358529984e+00 
177 1 2 1.0280000000001015e+00 -5.0063821630401821e+02 1.0000000000000000e+00 2.4757928955212232e+00 8.5724833809261369e+00 5.1715686359337747e+00 
104 1 2 1.0280000000000635e+00 -4.6785869832663298e+02 1.0000000000000000e+00 2.4757928955189095e+00 8.5724833803071636e+00 5.1715686358425126e+00 
63 1 2 1.0280000000000953e+00 -4.6195708832660546e+02 1.0000000000000000e+00 2.4757928955320372e+00 8.5724833805057514e+00 5.1715686358717008e+00 
135 1 2 1.0279999999998350e+00 -4.7323291387174794e+02 1.0000000000000000e+00 2.4757928955257928e+00 8.5724833802914553e+00 5.1715686358381889e+00 
20 1 2 1.0279999999999461e+00 -4.6711312569051870e+02 1.0000000000000000e+00 2.4757928955222694e+00 8.5724833800472666e+00 5.1715686358032764e+00 
111 1 2 1.0279999999999974e+00 -4.2246190853630350e+02 1.0000000000000000e+00 2.4757928955232646e+00 8.5724833800186815e+00 5.1715686357994670e+00 
99 1 2 1.0280000000000955e+00 -4.9632998463631463e+02 1.0000000000000000e+00 2.4757928955278046e+00 8.5724833800815095e+00 5.1715686358094217e+00 
115 1 2 1.0280000000000673e+00 -4.4719561317255460e+02 1.0000000000000000e+00 2.4757928955376149e+00 8.5724833801412146e+00 5.1715686358177599e+00 
8 1 2 1.0279999999998375e+00 -5.7229475770973522e+02 1.0000000000000000e+00 2.4757928955345934e+00 8.5724833801190563e+00 5.1715686358126751e+00 
39 1 2 1.0279999999999416e+00 -4.2500161393296457e+02 1.0000000000000000e+00 2.4757928955263329e+00 8.5724833804163136e+00 5.1715686358574011e+00 
73 1 2 1.0279999999998795e+00 -4.6569154676372943e+02 1.0000000000000000e+00 2.4757928955316677e+00 8.5724833805052292e+00 5.1715686358698534e+00 
49 1 2 1.0279999999997409e+00 -4.5399901459643604e+02 1.0000000000000000e+00 2.4757928955247830e+00 8.5724833802232538e+00 5.1715686358274064e+00 
15 1 2 1.0280000000001577e+00 -5.5035130679689985e+02 1.0000000000000000e+00 2.4757928955245636e+00 8.5724833804781309e+00 5.1715686358683035e+00 
27 1 2 1.0279999999997917e+00 -5.4142406376739177e+02 1.0000000000000000e+00 2.4757928955207045e+00 8.5724833801501266e+00 5.1715686358171604e+00 
33 1 2 1.0279999999998743e+00 -4.6353188135016018e+02 1.0000000000000000e+00 2.4757928955333521e+00 8.5724833803899418e+00 5.1715686358528306e+00 
87 1 2 1.0280000000000296e+00 -4.8060739050892084e+02 1.0000000000000000e+00 2.4757928955358786e+00 8.5724833802290252e+00 5.1715686358303925e+00 
80 1 2 1.0279999999999387e+00 -4.9957901185922583e+02 1.0000000000000000e+00 2.4757928955347204e+00 8.5724833802386851e+00 5.1715686358310915e+00 
14 1 2 1.0279999999999290e+00 -5.1694144101212260e+02 1.0000000000000000e+00 2.4757928955321349e+00 8.5724833799248277e+00 5.1715686357849240e+00 
38 1 2 1.0279999999998746e+00 -4.3871374119029474e+02 1.0000000000000000e+00 2.4757928955276847e+00 8.5724833802658083e+00 5.1715686358347011e+00 
176 1 2 1.0280000000000549e+00 -5.1760263574484622e+02 1.0000000000000000e+00 2.4757928955340027e+00 8.5724833800727627e+00 5.1715686358076693e+00 
140 1 2 1.0280000000001266e+00 -4.3042963518296176e+02 1.0000000000000000e+00 2.4757928955293664e+00 8.5724833803341891e+00 5.1715686358467892e+00 
157 1 2 1.0280000000000373e+00 -5.3941318625856275e+02 1.0000000000000000e+00 2.4757928955304416e+00 8.5724833800763562e+00 5.1715686358081232e+00 
44 1 2 1.0280000000000604e+00 -4.7171404692807835e+02 1.0000000000000000e+00 2.4757928955322419e+00 8.5724833801493752e+00 5.1715686358190114e+00 
116 1 2 1.0280000000001772e+00 -4.5510729727858359e+02 1.0000000000000000e+00 2.4757928955329729e+00 8.5724833800237832e+00 5.1715686358014894e+00 
43 1 2 1.0279999999999165e+00 -4.5930718062807114e+02 1.0000000000000000e+00 2.4757928955347648e+00 8.5724833804303273e+00 5.1715686358590851e+00 
152 1 2 1.0279999999999039e+00 -4.7339540959304566e+02 1.0000000000000000e+00 2.4757928955310513e+00 8.5724833804349903e+00 5.1715686358597441e+00 
159 1 2 1.0279999999999039e+00 -5.1201938515424183e+02 1.0000000000000000e+00 2.4757928955202120e+00 8.5724833803395182e+00 5.1715686358459338e+00 
57 1 2 1.0279999999998395e+00 -4.4257545088215034e+02 1.0000000000000000e+00 2.4757928955329493e+00 8.5724833802332707e+00 5.1715686358295176e+00 
100 1 2 1.0280000000001350e+00 -4.5590493448870086e+02 1.0000000000000000e+00 2.4757928955277593e+00 8.5724833798392766e+00 5.1715686357741326e+00 
2 1 2 1.0280000000000238e+00 -4.7405364373120415e+02 1.0000000000000000e+00 2.4757928955218351e+00 8.5724833804123737e+00 5.1715686358575965e+00 
102 1 2 1.0279999999998706e+00 -4.6240627530965617e+02 1.0000000000000000e+00 2.5907483568729965e+00 7.7663478371195671e+00 1.0654898948588377e+01 
118 1 2 1.0280000000001841e+00 -4.6638106074299026e+02 1.0000000000000000e+00 2.5907483568849456e+00 7.7663478374075856e+00 1.0654898948627896e+01 
59 1 2 1.0279999999998461e+00 -4.5670142636054334e+02 1.0000000000000000e+00 2.5907483568901224e+00 7.7663478377429760e+00 1.0654898948679870e+01 
131 1 2 1.0280000000000165e+00 -4.6450001165182925e+02 1.0000000000000000e+00 2.5907483568710625e+00 7.7663478370781327e+00 1.0654898948581128e+01 
82 1 2 1.0279999999999225e+00 -4.9344656987458166e+02 1.0000000000000000e+00 2.5907483568885081e+00 7.7663478371943784e+00 1.0654898948598623e+01 
16 1 2 1.0280000000000624e+00 -4.8000011451956436e+02 1.0000000000000000e+00 2.5907483568790610e+00 7.7663478370143446e+00 1.0654898948571205e+01 
94 1 2 1.0279999999998561e+00 -4.7860288127719275e+02 1.0000000000000000e+00 2.5907483568841476e+00 7.7663478370915771e+00 1.0654898948584147e+01 
84 1 2 1.0279999999995695e+00 -4.7515596661956545e+02 1.0000000000000000e+00 2.5907483568821803e+00 7.7663478373703780e+00 1.0654898948627530e+01 
155 1 2 1.0279999999996605e+00 -5.4919029424605401e+02 1.0000000000000000e+00 2.5907483568941356e+00 7.7663478372126473e+00 1.0654898948603341e+01 
77 1 2 1.0279999999996099e+00 -4.8890886968408108e+02 1.0000000000000000e+00 2.5907483568941854e+00 7.7663478375251325e+00 1.0654898948649695e+01 
47 1 2 1.0280000000001845e+00 -4.5864166148357469e+02 1.0000000000000000e+00 2.5907483568708241e+00 7.7663478371100272e+00 1.0654898948584442e+01 
41 1 2 1.0280000000001719e+00 -4.6090000311636823e+02 1.0000000000000000e+00 2.5907483568832914e+00 7.7663478371126287e+00 1.0654898948584668e+01 
162 1 2 1.0280000000003744e+00 -5.2712976079585462e+02 1.0000000000000000e+00 2.5907483568807188e+00 7.7663478374289223e+00 1.0654898948629560e+01 
119 1 2 1.0279999999998410e+00 -4.8057135886040601e+02 1.0000000000000000e+00 2.5907483568793972e+00 7.7663478375435284e+00 1.0654898948650814e+01 
83 1 2 1.0280000000000420e+00 -4.9874531516832576e+02 1.0000000000000000e+00 2.5907483568825329e+00 7.7663478369723169e+00 1.0654898948565121e+01 
54 1 2 1.0279999999998410e+00 -4.5444288298787842e+02 1.0000000000000000e+00 2.5907483568793972e+00 7.7663478375435284e+00 1.0654898948650814e+01 
48 1 2 1.0279999999999647e+00 -4.4080874616920056e+02 1.0000000000000000e+00 2.5907483568837986e+00 7.7663478374307910e+00 1.0654898948633132e+01 
149 1 2 1.0280000000000653e+00 -5.5989872596774262e+02 1.0000000000000000e+00 2.5907483568755327e+00 7.7663478369668226e+00 1.0654898948564268e+01 
113 1 2 1.0280000000006511e+00 -4.5629625401595990e+02 1.0000000000000000e+00 2.5907483568901664e+00 7.7663478371931367e+00 1.0654898948592427e+01 
11 1 2 1.0279999999999829e+00 -4.9330975890293053e+02 1.0000000000000000e+00 2.5907483568783842e+00 7.7663478374024013e+00 1.0654898948628922e+01 
53 1 2 1.0279999999998868e+00 -4.4486557817074163e+02 1.0000000000000000e+00 2.5907483568770235e+00 7.7663478371898549e+00 1.0654898948598493e+01 
5 1 2 1.0279999999997498e+00 -5.9683671855615080e+02 1.0000000000000000e+00 2.5907483568753076e+00 7.7663478377814110e+00 1.0654898948686620e+01 
90 1 2 1.0279999999998586e+00 -4.9499691779098316e+02 1.0000000000000000e+00 2.5907483568817380e+00 7.7663478374169177e+00 1.0654898948632008e+01 
126 1 2 1.0280000000000264e+00 -4.6778836289469700e+02 1.0000000000000000e+00 2.5907483568691876e+00 7.7663478368763146e+00 1.0654898948551416e+01 
161 1 2 1.0279999999997234e+00 -5.7537102666154567e+02 1.0000000000000000e+00 2.5907483568855518e+00 7.7663478373218817e+00 1.0654898948619065e+01 
17 1 2 1.0279999999996776e+00 -5.1631939571800820e+02 1.0000000000000000e+00 2.5907483568708107e+00 7.7663478370797980e+00 1.0654898948584158e+01 
89 1 2 1.0280000000003413e+00 -4.8185953306044507e+02 1.0000000000000000e+00 2.5907483568816314e+00 7.7663478373391923e+00 1.0654898948616621e+01 
125 1 2 1.0280000000000715e+00 -4.7929486168684741e+02 1.0000000000000000e+00 2.5907483568825058e+00 7.7663478370034333e+00 1.0654898948569453e+01 
18 1 2 1.0280000000002159e+00 -4.8813622007604249e+02 1.0000000000000000e+00 2.5907483568699936e+00 7.7663478372307342e+00 1.0654898948601950e+01 
6 1 2 1.0279999999998268e+00 -4.9026500851538106e+02 1.0000000000000000e+00 2.5907483568816456e+00 7.7663478372024590e+00 1.0654898948600740e+01 
12 1 2 1.0279999999998619e+00 -4.7453682283345807e+02 1.0000000000000000e+00 2.5907483568702641e+00 7.7663478376492332e+00 1.0654898948666375e+01 
24 1 2 1.0280000000001572e+00 -5.1142200796625445e+02 1.0000000000000000e+00 2.5907483568734424e+00 7.7663478374852852e+00 1.0654898948639779e+01 
138 1 2 1.0280000000003306e+00 -4.3838737263526707e+02 1.0000000000000000e+00 2.5907483568815972e+00 7.7663478374424804e+00 1.0654898948631894e+01 
78 1 2 1.0280000000000646e+00 -4.6867032692949726e+02 1.0000000000000000e+00 2.5907483568896956e+00 7.7663478374498407e+00 1.0654898948634989e+01 
154 1 2 1.0280000000000686e+00 -4.9451799032949953e+02 1.0000000000000000e+00 2.5907483568895264e+00 7.7663478372195272e+00 1.0654898948601101e+01 
30 1 2 1.0279999999997917e+00 -5.5317256683850826e+02 1.0000000000000000e+00 2.5907483568873353e+00 7.7663478377750756e+00 1.0654898948685092e+01 
168 1 2 1.0279999999998832e+00 -5.1548250523884690e+02 1.0000000000000000e+00 2.5907483568895477e+00 7.7663478373415868e+00 1.0654898948620566e+01 
96 1 2 1.0280000000002609e+00 -4.8814722691813131e+02 1.0000000000000000e+00 2.5907483568843959e+00 7.7663478370680288e+00 1.0654898948577356e+01 
132 1 2 1.0280000000002982e+00 -4.3204499913899588e+02 1.0000000000000000e+00 2.5907483568684153e+00 7.7663478374062951e+00 1.0654898948627116e+01 
23 1 2 1.0280000000001330e+00 -5.0397806929900810e+02 1.0000000000000000e+00 2.5907483568823895e+00 7.7663478373505122e+00 1.0654898948619978e+01 
66 1 2 1.0279999999998986e+00 -4.3862249025797433e+02 1.0000000000000000e+00 2.5907483568701144e+00 7.7663478370844006e+00 1.0654898948583037e+01 
150 1 2 1.0279999999998592e+00 -5.4618703164942144e+02 1.0000000000000000e+00 2.5907483568804675e+00 7.7663478372375261e+00 1.0654898948605656e+01 
167 1 2 1.0279999999998548e+00 -5.1465375389477640e+02 1.0000000000000000e+00 2.5907483568725804e+00 7.7663478373552266e+00 1.0654898948623160e+01 
42 1 2 1.0280000000001890e+00 -4.3060040728293677e+02 1.0000000000000000e+00 2.5907483568809613e+00 7.7663478373535133e+00 1.0654898948619991e+01 
174 1 2 1.0279999999997609e+00 -4.8238295055593545e+02 1.0000000000000000e+00 2.5907483568801823e+00 7.7663478374149681e+00 1.0654898948632555e+01 
10 1 2 1.0279999999999538e+00 -4.9138976423974822e+02 1.0000000000000000e+00 2.5907483568735246e+00 7.7663478375171717e+00 1.0654898948646137e+01 
144 1 2 1.0279999999999581e+00 -4.1345710098271741e+02 1.0000000000000000e+00 2.5907483568757201e+00 7.7663478372165189e+00 1.0654898948601854e+01 
36 1 2 1.0279999999999490e+00 -4.9945927508396687e+02 1.0000000000000000e+00 2.5907483568767380e+00 7.7663478372448953e+00 1.0654898948606080e+01 
88 1 2 1.0280000000003651e+00 -4.7498885626104538e+02 1.0000000000000000e+00 2.5907483568816874e+00 7.7663478376320034e+00 1.0654898948659472e+01 
156 1 2 1.0280000000001561e+00 -5.3557679300399366e+02 1.0000000000000000e+00 2.5907483568719525e+00 7.7663478372927370e+00 1.0654898948611514e+01 
180 1 2 1.0279999999999689e+00 -4.7844374212025718e+02 1.0000000000000000e+00 2.5907483568856255e+00 7.7663478370691665e+00 1.0654898948579895e+01 
114 1 2 1.0279999999999914e+00 -4.2373367021138029e+02 1.0000000000000000e+00 2.5907483568717500e+00 7.7663478379744815e+00 1.0654898948713097e+01 
120 1 2 1.0280000000000964e+00 -4.4414973859475617e+02 1.0000000000000000e+00 2.5907483568800593e+00 7.7663478373750960e+00 1.0654898948623941e+01 
4 1 2 1.0280000000003129e+00 -5.4348623337195750e+02 1.0000000000000000e+00 2.5907483568916923e+00 7.7663478373017938e+00 1.0654898948611145e+01 
79 1 2 1.0279999999996776e+00 -4.8266819659421469e+02 1.0000000000000000e+00 2.5907483568821843e+00 7.7663478369229235e+00 1.0654898948560858e+01 
143 1 2 1.0280000000000646e+00 -4.5970037241781222e+02 1.0000000000000000e+00 2.5907483568713121e+00 7.7663478368989436e+00 1.0654898948554385e+01 
72 1 2 1.0280000000001748e+00 -4.3563923437114533e+02 1.0000000000000000e+00 2.5907483568852467e+00 7.7663478374148740e+00 1.0654898948629038e+01 
172 1 2 1.0279999999998399e+00 -4.9059565446275360e+02 1.0000000000000000e+00 2.5907483568802765e+00 7.7663478373241199e+00 1.0654898948618548e+01 
52 1 2 1.0279999999996783e+00 -4.3905534943807356e+02 1.0000000000000000e+00 2.5907483568720777e+00 7.7663478374346369e+00 1.0654898948636294e+01 
108 1 2 1.0280000000001590e+00 -4.4883669233768467e+02 1.0000000000000000e+00 2.5907483568873628e+00 7.7663478372003993e+00 1.0654898948597591e+01 
40 1 2 1.0280000000003240e+00 -4.0816986967183601e+02 1.0000000000000000e+00 2.5907483568742724e+00 7.7663478370887775e+00 1.0654898948580103e+01 
153 1 2 1.0279999999995968e+00 -4.5093575531505985e+02 1.0000000000000000e+00 2.5907483568818628e+00 7.7663478374262116e+00 1.0654898948635520e+01 
136 1 2 1.0279999999995151e+00 -4.5530064298483467e+02 1.0000000000000000e+00 2.5907483568791734e+00 7.7663478370564034e+00 1.0654898948581879e+01 
28 1 2 1.0279999999997442e+00 -4.9795205195089432e+02 1.0000000000000000e+00 2.5907483568757121e+00 7.7663478373733570e+00 1.0654898948626668e+01 
123 1 2 1.0280000000001721e+00 -4.2767684839241156e+02 1.0000000000000000e+00 2.5907483568806726e+00 7.7663478372930230e+00 1.0654898948611240e+01 
146 1 2 1.0279999999997671e+00 -4.5180176852337559e+02 1.0000000000000000e+00 2.5907483568791014e+00 7.7663478376525257e+00 1.0654898948667451e+01 
142 1 2 1.0279999999998455e+00 -4.2847845081040850e+02 1.0000000000000000e+00 2.5907483568732022e+00 7.7663478373749308e+00 1.0654898948626121e+01 
56 1 2 1.0279999999998668e+00 -4.4502586985708535e+02 1.0000000000000000e+00 2.5907483568831338e+00 7.7663478373522175e+00 1.0654898948622398e+01 
37 1 2 1.0279999999997487e+00 -4.2791579213101807e+02 1.0000000000000000e+00 2.5907483568751983e+00 7.7663478372052452e+00 1.0654898948601927e+01 
34 1 2 1.0280000000002099e+00 -4.9624815907389012e+02 1.0000000000000000e+00 2.5907483568784420e+00 7.7663478373111356e+00 1.0654898948613640e+01 
166 1 2 1.0279999999998630e+00 -5.6280880825508791e+02 1.0000000000000000e+00 2.5907483568781173e+00 7.7663478376165065e+00 1.0654898948661389e+01 
112 1 2 1.0280000000000939e+00 -4.4184010973197837e+02 1.0000000000000000e+00 2.5907483568742760e+00 7.7663478371100272e+00 1.0654898948585114e+01 
70 1 2 1.0279999999996976e+00 -4.3990010101210930e+02 1.0000000000000000e+00 2.5907483568853840e+00 7.7663478370504846e+00 1.0654898948579380e+01 
46 1 2 1.0279999999998564e+00 -4.5571917497657921e+02 1.0000000000000000e+00 2.5907483568760683e+00 7.7663478370769141e+00 1.0654898948582158e+01 
65 1 2 1.0279999999996974e+00 -4.5896868886222762e+02 1.0000000000000000e+00 2.5907483568836511e+00 7.7663478377632744e+00 1.0654898948684210e+01 
137 1 2 1.0279999999998959e+00 -4.7077261885081509e+02 1.0000000000000000e+00 2.5907483568756864e+00 7.7663478372254531e+00 1.0654898948603680e+01 
173 1 2 1.0280000000002691e+00 -5.0890028329805392e+02 1.0000000000000000e+00 2.5907483568833971e+00 7.7663478374259034e+00 1.0654898948629922e+01 
76 1 2 1.0280000000000120e+00 -4.7767859147146237e+02 1.0000000000000000e+00 2.5907483568721852e+00 7.7663478370345524e+00 1.0654898948574735e+01 
58 1 2 1.0280000000000316e+00 -4.4163954986523515e+02 1.0000000000000000e+00 2.5907483568734913e+00 7.7663478374759363e+00 1.0654898948639437e+01 
71 1 2 1.0279999999996949e+00 -4.5562332419640364e+02 1.0000000000000000e+00 2.5907483568918201e+00 7.7663478374971042e+00 1.0654898948644927e+01 
95 1 2 1.0279999999998983e+00 -4.8737098517830430e+02 1.0000000000000000e+00 2.5907483568806304e+00 7.7663478373238313e+00 1.0654898948618019e+01 
151 1 2 1.0280000000000589e+00 -5.4326852649886735e+02 1.0000000000000000e+00 2.5907483568741587e+00 7.7663478370937220e+00 1.0654898948583007e+01 
29 1 2 1.0280000000002583e+00 -5.1144199183214914e+02 1.0000000000000000e+00 2.5907483568778837e+00 7.7663478373159585e+00 1.0654898948613965e+01 
130 1 2 1.0280000000006453e+00 -4.7526816272141616e+02 1.0000000000000000e+00 2.5907483568845464e+00 7.7663478371262382e+00 1.0654898948582757e+01 
60 1 2 1.0280000000002483e+00 -4.5547249172667608e+02 1.0000000000000000e+00 2.5907483568864875e+00 7.7663478374978450e+00 1.0654898948640607e+01 
124 1 2 1.0279999999995524e+00 -4.6634364952490557e+02 1.0000000000000000e+00 2.5907483568834970e+00 7.7663478370818249e+00 1.0654898948585219e+01 
101 1 2 1.0280000000000142e+00 -4.8621131826273881e+02 1.0000000000000000e+00 2.5907483568870688e+00 7.7663478373557266e+00 1.0654898948621621e+01 
148 1 2 1.0279999999999598e+00 -4.8485461761808705e+02 1.0000000000000000e+00 2.5907483568947360e+00 7.7663478377437132e+00 1.0654898948678946e+01 
160 1 2 1.0279999999997680e+00 -5.8572948663107968e+02 1.0000000000000000e+00 2.5907483568726635e+00 7.7663478378947257e+00 1.0654898948703186e+01 
145 1 2 1.0279999999998675e+00 -4.7846012263615626e+02 1.0000000000000000e+00 2.5907483568712544e+00 7.7663478371347763e+00 1.0654898948590674e+01 

Velocities

163 3.0115545598920695e-02 3.6300284838140257e-01 -1.0330817197716530e-01
35 3.0115545598883030e-02 3.6300284838217262e-01 -1.0330817197993532e-01
64 3.0115545598864431e-02 3.6300284838213198e-01 -1.0330817198135618e-01
21 3.0115545598939468e-02 3.6300284838179481e-01 -1.0330817197702878e-01
1 3.0115545598961589e-02 3.6300284838198282e-01 -1.0330817197673779e-01
86 3.0115545598906331e-02 3.6300284838160507e-01 -1.0330817197858852e-01
22 3.0115545598917867e-02 3.6300284838142566e-01 -1.0330817197706232e-01
129 3.0115545598908937e-02 3.6300284838198360e-01 -1.0330817197957751e-01
74 3.0115545598905769e-02 3.6300284838176372e-01 -1.0330817197925748e-01
117 3.0115545598933483e-02 3.6300284838176650e-01 -1.0330817197905491e-01
50 3.0115545598836269e-02 3.6300284838170993e-01 -1.0330817198163578e-01
107 3.0115545598894237e-02 3.6300284838218894e-01 -1.0330817198058324e-01
179 3.0115545598870655e-02 3.6300284838156255e-01 -1.0330817198085106e-01
109 3.0115545598900076e-02 3.6300284838247732e-01 -1.0330817198037449e-01
67 3.0115545598956444e-02 3.6300284838149266e-01 -1.0330817197863031e-01
75 3.0115545598901047e-02 3.6300284838222513e-01 -1.0330817198044707e-01
169 3.0115545598920820e-02 3.6300284838169367e-01 -1.0330817197868568e-01
139 3.0115545598939131e-02 3.6300284838183455e-01 -1.0330817197774374e-01
122 3.0115545598944818e-02 3.6300284838229296e-01 -1.0330817197721266e-01
128 3.0115545598923654e-02 3.6300284838134667e-01 -1.0330817197694379e-01
147 3.0115545598955712e-02 3.6300284838182972e-01 -1.0330817197780974e-01
19 3.0115545598826527e-02 3.6300284838136027e-01 -1.0330817198144505e-01
133 3.0115545598886236e-02 3.6300284838199409e-01 -1.0330817198070132e-01
127 3.0115545598917215e-02 3.6300284838231872e-01 -1.0330817197765510e-01
45 3.0115545598922541e-02 3.6300284838221258e-01 -1.0330817197865937e-01
106 3.0115545598940547e-02 3.6300284838147545e-01 -1.0330817197777210e-01
51 3.0115545598936835e-02 3.6300284838192065e-01 -1.0330817197714784e-01
61 3.0115545598910203e-02 3.6300284838170005e-01 -1.0330817197859062e-01
25 3.0115545598828980e-02 3.6300284838179231e-01 -1.0330817198180053e-01
55 3.0115545598918256e-02 3.6300284838183522e-01 -1.0330817197775370e-01
175 3.0115545598935343e-02 3.6300284838198110e-01 -1.0330817197745314e-01
103 3.0115545598960156e-02 3.6300284838233410e-01 -1.0330817197790478e-01
85 3.0115545598970155e-02 3.6300284838264735e-01 -1.0330817197779799e-01
110 3.0115545598961454e-02 3.6300284838160918e-01 -1.0330817197776808e-01
93 3.0115545598974783e-02 3.6300284838177738e-01 -1.0330817197834818e-01
91 3.0115545598922561e-02 3.6300284838220287e-01 -1.0330817197858641e-01
7 3.0115545598955649e-02 3.6300284838166863e-01 -1.0330817197749241e-01
68 3.0115545598955185e-02 3.6300284838137392e-01 -1.0330817197691657e-01
171 3.0115545598872886e-02 3.6300284838196450e-01 -1.0330817197971172e-01
121 3.0115545598939388e-02 3.6300284838177371e-01 -1.0330817197793757e-01
165 3.0115545598988706e-02 3.6300284838138430e-01 -1.0330817197704228e-01
3 3.0115545598955726e-02 3.6300284838193841e-01 -1.0330817197692960e-01