LAMMPS data file via write_data, version 30 Jul 2016, timestep = 50400000

180 atoms
2 atom types

0.0000000000000000e+00 2.0000000000000000e+01 xlo xhi
0.0000000000000000e+00 2.0000000000000000e+01 ylo yhi
0.0000000000000000e+00 2.0000000000000000e+01 zlo zhi

Masses

1 3.896
2 4.31

Atoms # meso-molecular

1 1 2 6.6848731688695207e-01 -6.8897382423656700e+02 1.0000000000000000e+00 6.5236851674875851e+00 2.4262674071643362e+00 5.3054494599427926e-01 
7 1 2 6.6848731688695207e-01 -6.7447751731671678e+02 1.0000000000000000e+00 6.5236851674874590e+00 2.4262674071643331e+00 5.3054494599427804e-01 
8 1 2 6.6848731688695207e-01 -5.9433103086459585e+02 1.0000000000000000e+00 6.5236851674878835e+00 2.4262674071643358e+00 5.3054494599427815e-01 
2 1 2 6.6848731688695207e-01 -5.5167803526639773e+02 1.0000000000000000e+00 6.5236851674875851e+00 2.4262674071643460e+00 5.3054494599427859e-01 
37 1 2 6.6848731688695207e-01 -6.0349087293724074e+02 1.0000000000000000e+00 6.5236851674875993e+00 2.4262674071643486e+00 5.3054494599427815e-01 
43 1 2 6.6848731688695207e-01 -4.1245400480412229e+02 1.0000000000000000e+00 6.5236851674874590e+00 2.4262674071643353e+00 5.3054494599427926e-01 
42 1 2 6.6848731688695207e-01 -4.8780410716172332e+02 1.0000000000000000e+00 6.5236851674875513e+00 2.4262674071643362e+00 5.3054494599427804e-01 
12 1 2 6.6848731688695207e-01 -4.5309644987916045e+02 1.0000000000000000e+00 6.5236851674878276e+00 2.4262674071643460e+00 5.3054494599427904e-01 
6 1 2 6.6848731688695207e-01 -3.5256562609206435e+02 1.0000000000000000e+00 6.5236851674875833e+00 2.4262674071643380e+00 5.3054494599427859e-01 
52 1 2 1.0240743698845685e+00 -3.7664202507087560e+02 1.0000000000000000e+00 6.1670740037054728e+00 8.3722136243787997e+00 6.3395140589702983e+00 
51 1 2 1.0240744204549577e+00 -4.8343014798657117e+02 1.0000000000000000e+00 6.1671066738607285e+00 8.3721990683134493e+00 6.3395142816985190e+00 
58 1 2 1.0240744274294016e+00 -4.9743438404428207e+02 1.0000000000000000e+00 6.1671107409626496e+00 8.3721973065514987e+00 6.3395144083587303e+00 
15 1 2 1.0240744278725631e+00 -4.9942825743014612e+02 1.0000000000000000e+00 6.1671110923436068e+00 8.3721971425951427e+00 6.3395143960561562e+00 
21 1 2 1.0240744287715575e+00 -4.7993212144739636e+02 1.0000000000000000e+00 6.1671116305532934e+00 8.3721969076955336e+00 6.3395144093212235e+00 
57 1 2 1.0240744282583174e+00 -5.3837851057101136e+02 1.0000000000000000e+00 6.1671112827674861e+00 8.3721970644787316e+00 6.3395144106292936e+00 
45 1 2 1.0240806899990120e+00 -4.5152362030849622e+02 1.0000000000000000e+00 6.1698927875693492e+00 8.3711162500032081e+00 6.3398158144811951e+00 
44 1 2 1.0240806877885191e+00 -5.0547011616222949e+02 1.0000000000000000e+00 6.1698947182357333e+00 8.3711150274588650e+00 6.3398150664138058e+00 
50 1 2 1.0240806846970869e+00 -4.8772870515401445e+02 1.0000000000000000e+00 6.1698956789369488e+00 8.3711142727067607e+00 6.3398144039975231e+00 
81 1 2 1.0240806836081251e+00 -3.5046877105709791e+02 1.0000000000000000e+00 6.1698960616572682e+00 8.3711139825149239e+00 6.3398141608784497e+00 
87 1 2 1.0240806836279308e+00 -3.8723384676234434e+02 1.0000000000000000e+00 6.1698960649608470e+00 8.3711139821576559e+00 6.3398141630361575e+00 
86 1 2 1.0240806835953296e+00 -3.6205263414729433e+02 1.0000000000000000e+00 6.1698960886880139e+00 8.3711139667336347e+00 6.3398141530504910e+00 
80 1 2 1.0240806836283323e+00 -3.1823477878344994e+02 1.0000000000000000e+00 6.1698960573925001e+00 8.3711139863405286e+00 6.3398141647601562e+00 
41 1 2 8.1704005397294144e-01 -5.2997410278714915e+02 1.0000000000000000e+00 6.3810015221863630e+00 3.8049048214259451e+00 1.1653808462990236e+01 
3 1 2 8.1704005397294144e-01 -3.8430004213253460e+02 1.0000000000000000e+00 6.3810015221863834e+00 3.8049048214259646e+00 1.1653808462990266e+01 
40 1 2 8.1704005397294144e-01 -5.2210694869550161e+02 1.0000000000000000e+00 6.3810015221863745e+00 3.8049048214258980e+00 1.1653808462990229e+01 
4 1 2 8.1704005397294144e-01 -4.6128784775445104e+02 1.0000000000000000e+00 6.3810015221863816e+00 3.8049048214259451e+00 1.1653808462990291e+01 
5 1 2 8.1704005397294144e-01 -4.1803388430076552e+02 1.0000000000000000e+00 6.3810015221863470e+00 3.8049048214258456e+00 1.1653808462990266e+01 
10 1 2 8.1704005397294144e-01 -4.3678510196570443e+02 1.0000000000000000e+00 6.3810015221863425e+00 3.8049048214259398e+00 1.1653808462990238e+01 
11 1 2 8.1704005397294144e-01 -4.5761967511536227e+02 1.0000000000000000e+00 6.3810015221863585e+00 3.8049048214258918e+00 1.1653808462990291e+01 
16 1 2 8.1704005397294144e-01 -5.0011037869526263e+02 1.0000000000000000e+00 6.3810015221863470e+00 3.8049048214259398e+00 1.1653808462990236e+01 
53 1 2 8.1704005397294144e-01 -5.0119685369768081e+02 1.0000000000000000e+00 6.3810015221863647e+00 3.8049048214259398e+00 1.1653808462990266e+01 
46 1 2 8.1704005397294144e-01 -4.7495661420170671e+02 1.0000000000000000e+00 6.3810015221863461e+00 3.8049048214260313e+00 1.1653808462990279e+01 
17 1 2 8.1704005397294144e-01 -4.7202001264030787e+02 1.0000000000000000e+00 6.3810015221863567e+00 3.8049048214258456e+00 1.1653808462990254e+01 
29 1 2 5.9421094834395738e-01 -5.4466223391868607e+02 1.0000000000000000e+00 5.9002381403390221e+00 1.1463318992689928e+01 1.6284927052108085e+01 
24 1 2 5.9421094834395738e-01 -4.8826071398533094e+02 1.0000000000000000e+00 5.9002381403390221e+00 1.1463318992689949e+01 1.6284927052107999e+01 
60 1 2 5.9421094834395738e-01 -5.0628925381342879e+02 1.0000000000000000e+00 5.9002381403390221e+00 1.1463318992689928e+01 1.6284927052107957e+01 
23 1 2 5.9421094834395738e-01 -4.5230690366125316e+02 1.0000000000000000e+00 5.9002381403390221e+00 1.1463318992689928e+01 1.6284927052108042e+01 
59 1 2 5.9421094834395738e-01 -3.9146624051064958e+02 1.0000000000000000e+00 5.9002381403390221e+00 1.1463318992689928e+01 1.6284927052108078e+01 
18 1 2 5.9421094834395738e-01 -5.4672694066185500e+02 1.0000000000000000e+00 5.9002381403390221e+00 1.1463318992689928e+01 1.6284927052108042e+01 
30 1 2 5.9421094834395738e-01 -4.4940372574312983e+02 1.0000000000000000e+00 5.9002381403390221e+00 1.1463318992689953e+01 1.6284927052108070e+01 
25 1 2 5.9421094834395738e-01 -3.7507166219728515e+02 1.0000000000000000e+00 5.9002381403390221e+00 1.1463318992689929e+01 1.6284927052107932e+01 
35 1 2 5.1993457980096269e-01 -5.5639947675112410e+02 1.0000000000000000e+00 6.5211045318041041e+00 1.6497303818900356e+01 1.4645141133511158e+01 
36 1 2 5.1993457980096269e-01 -4.7417821438646951e+02 1.0000000000000000e+00 6.5211045318041050e+00 1.6497303818900356e+01 1.4645141133511110e+01 
66 1 2 5.1993457980096269e-01 -4.5758713192671632e+02 1.0000000000000000e+00 6.5211045318041210e+00 1.6497303818900356e+01 1.4645141133511098e+01 
72 1 2 5.1993457980096269e-01 -4.1580685686756931e+02 1.0000000000000000e+00 6.5211045318041068e+00 1.6497303818900356e+01 1.4645141133511162e+01 
71 1 2 5.1993457980096269e-01 -4.4075094030516601e+02 1.0000000000000000e+00 6.5211045318041059e+00 1.6497303818900356e+01 1.4645141133511103e+01 
70 1 2 5.1993457980096269e-01 -3.9791560498784304e+02 1.0000000000000000e+00 6.5211045318041068e+00 1.6497303818900356e+01 1.4645141133511160e+01 
34 1 2 5.1993457980096269e-01 -4.3750315609616109e+02 1.0000000000000000e+00 6.5211045318041050e+00 1.6497303818900356e+01 1.4645141133511109e+01 
47 1 2 6.6848731688695207e-01 -5.2470401073403855e+02 1.0000000000000000e+00 1.0573963781448819e+01 6.7215334664721906e+00 1.8110362609798628e+01 
48 1 2 6.6848731688695207e-01 -4.9734742579832607e+02 1.0000000000000000e+00 1.0573963781448819e+01 6.7215334664721933e+00 1.8110362609798521e+01 
84 1 2 6.6848731688695207e-01 -4.6551330160012958e+02 1.0000000000000000e+00 1.0573963781449430e+01 6.7215334664722075e+00 1.8110362609798482e+01 
54 1 2 6.6848731688695207e-01 -4.8263364091653239e+02 1.0000000000000000e+00 1.0573963781449960e+01 6.7215334664722031e+00 1.8110362609798539e+01 
79 1 2 6.6848731688695207e-01 -3.1126659776169561e+02 1.0000000000000000e+00 1.0573963781449960e+01 6.7215334664721977e+00 1.8110362609798525e+01 
90 1 2 6.6848731688695207e-01 -4.4431471517969101e+02 1.0000000000000000e+00 1.0573963781449960e+01 6.7215334664721960e+00 1.8110362609798614e+01 
89 1 2 6.6848731688695207e-01 -4.6978761940638719e+02 1.0000000000000000e+00 1.0573963781449809e+01 6.7215334664722075e+00 1.8110362609798539e+01 
49 1 2 6.6848731688695207e-01 -3.5457644878934252e+02 1.0000000000000000e+00 1.0573963781449809e+01 6.7215334664722004e+00 1.8110362609798482e+01 
55 1 2 6.6848731688695207e-01 -3.6318855810327057e+02 1.0000000000000000e+00 1.0573963781449809e+01 6.7215334664722075e+00 1.8110362609798628e+01 
19 1 2 1.0560314170926157e+00 -5.4892990960799909e+02 1.0000000000000000e+00 8.1930061895442776e+00 1.1611067934094725e+01 5.4066861490160596e+00 
9 1 2 1.0560314399720854e+00 -6.0986548135075691e+02 1.0000000000000000e+00 8.1930066589282937e+00 1.1611068316984785e+01 5.4066870069116462e+00 
26 1 2 1.0560314170926275e+00 -6.1344017762399221e+02 1.0000000000000000e+00 8.1930061895444979e+00 1.1611067934094914e+01 5.4066861490164770e+00 
31 1 2 1.0560314170926275e+00 -5.4335470253212350e+02 1.0000000000000000e+00 8.1930061895444979e+00 1.1611067934094914e+01 5.4066861490164770e+00 
32 1 2 1.0560314170926275e+00 -5.4505467880214144e+02 1.0000000000000000e+00 8.1930061895444979e+00 1.1611067934094914e+01 5.4066861490164770e+00 
62 1 2 1.0560314170926275e+00 -5.4125200658103563e+02 1.0000000000000000e+00 8.1930061895444979e+00 1.1611067934094914e+01 5.4066861490164770e+00 
13 1 2 1.0560314170926275e+00 -5.8898642016334736e+02 1.0000000000000000e+00 8.1930061895444979e+00 1.1611067934094914e+01 5.4066861490164770e+00 
20 1 2 1.0560314170926275e+00 -5.7014414243588408e+02 1.0000000000000000e+00 8.1930061895444979e+00 1.1611067934094914e+01 5.4066861490164770e+00 
56 1 2 1.0560314170926275e+00 -5.2932576251397677e+02 1.0000000000000000e+00 8.1930061895444979e+00 1.1611067934094914e+01 5.4066861490164770e+00 
14 1 2 1.0573849288460084e+00 -6.3019806743765082e+02 1.0000000000000000e+00 8.2314926902026873e+00 1.1642283328283263e+01 5.4790187475980838e+00 
28 1 2 9.7049630360944805e-01 -5.3353780735590283e+02 1.0000000000000000e+00 7.0421440649278075e+00 1.0977625296726144e+01 4.9132251161203531e+00 
33 1 2 9.7049630360944805e-01 -6.1005212010782986e+02 1.0000000000000000e+00 7.0421440649278075e+00 1.0977625296726144e+01 4.9132251161203531e+00 
27 1 2 9.7049630360944805e-01 -5.7342157151477693e+02 1.0000000000000000e+00 7.0421440649278075e+00 1.0977625296726144e+01 4.9132251161203531e+00 
22 1 2 9.7049630360944805e-01 -5.9514851146894705e+02 1.0000000000000000e+00 7.0421440649278075e+00 1.0977625296726144e+01 4.9132251161203531e+00 
69 1 2 8.9131642251593612e-01 -6.2736658614750866e+02 1.0000000000000000e+00 9.9977318069314123e+00 1.7814320604052174e+01 4.3373990097032360e+00 
38 1 2 8.9131642251593612e-01 -5.0536863797727472e+02 1.0000000000000000e+00 9.9977318069314283e+00 1.7814320604052792e+01 4.3373990097032467e+00 
39 1 2 8.9131642251593612e-01 -4.6568660543176316e+02 1.0000000000000000e+00 9.9977318069313696e+00 1.7814320604052703e+01 4.3373990097032236e+00 
74 1 2 8.9131642251593612e-01 -5.6710697671974935e+02 1.0000000000000000e+00 9.9977318069314141e+00 1.7814320604051698e+01 4.3373990097032582e+00 
75 1 2 8.9131642251593612e-01 -5.6555454215117106e+02 1.0000000000000000e+00 9.9977318069314194e+00 1.7814320604052494e+01 4.3373990097031951e+00 
68 1 2 8.9131642251593612e-01 -5.5395213590115372e+02 1.0000000000000000e+00 9.9977318069313874e+00 1.7814320604052455e+01 4.3373990097032156e+00 
105 1 2 8.9131642251593612e-01 -5.1377236207278440e+02 1.0000000000000000e+00 9.9977318069314389e+00 1.7814320604050803e+01 4.3373990097032467e+00 
61 1 2 8.9131642251593612e-01 -4.5187485784533567e+02 1.0000000000000000e+00 9.9977318069313519e+00 1.7814320604052206e+01 4.3373990097032298e+00 
67 1 2 8.9131642251593612e-01 -4.3516539226594011e+02 1.0000000000000000e+00 9.9977318069314691e+00 1.7814320604052739e+01 4.3373990097032173e+00 
103 1 2 8.9131642251593612e-01 -4.2137253178174558e+02 1.0000000000000000e+00 9.9977318069313821e+00 1.7814320604052174e+01 4.3373990097032324e+00 
97 1 2 8.9131642251593612e-01 -4.6135708397673272e+02 1.0000000000000000e+00 9.9977318069314354e+00 1.7814320604052494e+01 4.3373990097031978e+00 
104 1 2 8.9131642251593612e-01 -4.3626937348411172e+02 1.0000000000000000e+00 9.9977318069314283e+00 1.7814320604050803e+01 4.3373990097032351e+00 
93 1 2 6.9476267505623956e-01 -3.9643142657381247e+02 1.0000000000000000e+00 1.0041517813685765e+01 1.3115291073647104e+01 7.4629115502020689e+00 
63 1 2 6.9476267505623956e-01 -4.4279208284446986e+02 1.0000000000000000e+00 1.0041517813685765e+01 1.3115291073647104e+01 7.4629115502020689e+00 
100 1 2 6.9476267505623956e-01 -3.5220968022222405e+02 1.0000000000000000e+00 1.0041517813685765e+01 1.3115291073647104e+01 7.4629115502020689e+00 
64 1 2 6.9476267505623956e-01 -4.3402781709209489e+02 1.0000000000000000e+00 1.0041517813685765e+01 1.3115291073647104e+01 7.4629115502020689e+00 
99 1 2 6.9476267505623956e-01 -4.1875866143057158e+02 1.0000000000000000e+00 1.0041517813685765e+01 1.3115291073647104e+01 7.4629115502020689e+00 
106 1 2 6.9476267505623956e-01 -3.3282102837165587e+02 1.0000000000000000e+00 1.0041517813685765e+01 1.3115291073647104e+01 7.4629115502020689e+00 
94 1 2 6.9476267505623956e-01 -5.8910445346047948e+02 1.0000000000000000e+00 1.0041517813685765e+01 1.3115291073647104e+01 7.4629115502020689e+00 
98 1 2 6.9476267505623956e-01 -2.7555910946333239e+02 1.0000000000000000e+00 1.0041517813685765e+01 1.3115291073647104e+01 7.4629115502020689e+00 
132 1 2 1.0279999999999729e+00 -6.1885151757160793e+02 1.0000000000000000e+00 1.3291692664364316e+01 1.3304443606942838e+01 1.5757690230967475e+01 
96 1 2 1.0279999999999536e+00 -5.7801007974444110e+02 1.0000000000000000e+00 1.3266606887358066e+01 1.3333156400466466e+01 1.5745605170193354e+01 
107 1 2 1.0280000000000302e+00 -4.7268313066887384e+02 1.0000000000000000e+00 1.3048095700404744e+01 1.3781901204936688e+01 1.5433662802322871e+01 
95 1 2 1.0280000000000875e+00 -5.3420327810512060e+02 1.0000000000000000e+00 1.3147134154753584e+01 1.3412859603864941e+01 1.5621740474650437e+01 
138 1 2 1.0279999999998255e+00 -5.4620850522388093e+02 1.0000000000000000e+00 1.3283431935918923e+01 1.3405682710925925e+01 1.5794841264226109e+01 
102 1 2 1.0280000000000564e+00 -6.0616543720906634e+02 1.0000000000000000e+00 1.3227892547460158e+01 1.3413664632264929e+01 1.5736630692899183e+01 
65 1 2 1.0280000000000362e+00 -4.4480426321249865e+02 1.0000000000000000e+00 1.3066832349717348e+01 1.3544589561030534e+01 1.5508052786098030e+01 
101 1 2 1.0280000000000327e+00 -5.0456130874529850e+02 1.0000000000000000e+00 1.3094258158786287e+01 1.3555075398590217e+01 1.5572078198401679e+01 
133 1 2 1.0280000000002543e+00 -4.7021892807140932e+02 1.0000000000000000e+00 1.3330370095712839e+01 1.3383708128502620e+01 1.5830916830720801e+01 
115 1 2 1.0280000000000400e+00 -4.7403579450538035e+02 1.0000000000000000e+00 1.5679491185352122e+01 8.1256197296209880e+00 1.9441145274851814e+00 
151 1 2 1.0280000000000367e+00 -4.7273685272936211e+02 1.0000000000000000e+00 1.5679491188152875e+01 8.1256197399869112e+00 1.9441145223393774e+00 
121 1 2 1.0280000000000409e+00 -4.9597683052693571e+02 1.0000000000000000e+00 1.5679491219346383e+01 8.1256197990652606e+00 1.9441145016346841e+00 
127 1 2 1.0280000000000029e+00 -3.9572177208584031e+02 1.0000000000000000e+00 1.4615934530256425e+01 8.8327693022161284e+00 2.4086892461238354e+00 
157 1 2 1.0280000000000384e+00 -6.1226687648992345e+02 1.0000000000000000e+00 1.5679491258166374e+01 8.1256198774466828e+00 1.9441144727125630e+00 
163 1 2 1.0280000000000395e+00 -5.7968537213750255e+02 1.0000000000000000e+00 1.5679491288714033e+01 8.1256199388575538e+00 1.9441144501275780e+00 
168 1 2 1.0280000000000418e+00 -6.1342360994524358e+02 1.0000000000000000e+00 1.5679491300782935e+01 8.1256199588118392e+00 1.9441144440022262e+00 
128 1 2 1.0279999999999907e+00 -3.3417727279593049e+02 1.0000000000000000e+00 1.4615941566487194e+01 8.8321122316788276e+00 2.4073645396708971e+00 
92 1 2 1.0279999999999827e+00 -3.1000129770836412e+02 1.0000000000000000e+00 1.4616004450945535e+01 8.8312631793343872e+00 2.4054289044288955e+00 
91 1 2 1.0280000000000034e+00 -3.8373436772299578e+02 1.0000000000000000e+00 1.4616122334431278e+01 8.8294665963500858e+00 2.4014880883817367e+00 
85 1 2 1.0280000000000009e+00 -4.3901067379832523e+02 1.0000000000000000e+00 1.4616264976541169e+01 8.8264013218909891e+00 2.3952622470578939e+00 
122 1 2 1.0280000000000331e+00 -5.2311746032452152e+02 1.0000000000000000e+00 1.5601195439605236e+01 8.6648815726362916e+00 3.3206511509408774e+00 
129 1 2 1.0280000000000338e+00 -5.1023204986120936e+02 1.0000000000000000e+00 1.5601196216593673e+01 8.6648822855707035e+00 3.3206507427173091e+00 
164 1 2 1.0280000000000340e+00 -4.8519225124216797e+02 1.0000000000000000e+00 1.5601195645392995e+01 8.6648881344901909e+00 3.3206498868537264e+00 
158 1 2 1.0280000000000336e+00 -5.4227662292129196e+02 1.0000000000000000e+00 1.5601187114579909e+01 8.6648913344633947e+00 3.3206523686202374e+00 
159 1 2 1.0280000000000336e+00 -5.7993493326195869e+02 1.0000000000000000e+00 1.5601181612044517e+01 8.6648926570426568e+00 3.3206541038391784e+00 
165 1 2 1.0280000000000333e+00 -5.6409139480620900e+02 1.0000000000000000e+00 1.5601185845064439e+01 8.6648917604580014e+00 3.3206527470424434e+00 
145 1 2 4.4565821125796801e-01 -5.3647533452965922e+02 1.0000000000000000e+00 1.6354786626751974e+01 1.3912025805096726e+00 4.5021091522617960e+00 
110 1 2 4.4565821125796801e-01 -5.3720490744703397e+02 1.0000000000000000e+00 1.6354786626751974e+01 1.3912025805097123e+00 4.5021091522617960e+00 
111 1 2 4.4565821125796801e-01 -6.5652137897919260e+02 1.0000000000000000e+00 1.6354786626751974e+01 1.3912025805096708e+00 4.5021091522617809e+00 
152 1 2 4.4565821125796801e-01 -6.0953788706619900e+02 1.0000000000000000e+00 1.6354786626751121e+01 1.3912025805096708e+00 4.5021091522617960e+00 
146 1 2 4.4565821125796801e-01 -6.7993071102110434e+02 1.0000000000000000e+00 1.6354786626751974e+01 1.3912025805097015e+00 4.5021091522617800e+00 
147 1 2 4.4565821125796801e-01 -5.6863118172638633e+02 1.0000000000000000e+00 1.6354786626751974e+01 1.3912025805096708e+00 4.5021091522617800e+00 
88 1 2 5.1993457980096269e-01 -3.9565476894246069e+02 1.0000000000000000e+00 1.4176038278615806e+01 5.3888849118048414e+00 8.2468500829691784e+00 
82 1 2 5.1993457980096269e-01 -4.0001319378972846e+02 1.0000000000000000e+00 1.4176038278615792e+01 5.3888849118048290e+00 8.2468500829689777e+00 
116 1 2 5.1993457980096269e-01 -3.1787416670808796e+02 1.0000000000000000e+00 1.4176038278615808e+01 5.3888849118048308e+00 8.2468500829689777e+00 
117 1 2 5.1993457980096269e-01 -3.6662107384444204e+02 1.0000000000000000e+00 1.4176038278615840e+01 5.3888849118048316e+00 8.2468500829688551e+00 
123 1 2 5.1993457980096269e-01 -3.6126245432845940e+02 1.0000000000000000e+00 1.4176038278615806e+01 5.3888849118048308e+00 8.2468500829688551e+00 
153 1 2 5.1993457980096269e-01 -3.9759916285435384e+02 1.0000000000000000e+00 1.4176038278615797e+01 5.3888849118048290e+00 8.2468500829688551e+00 
124 1 2 5.1993457980096269e-01 -3.6217922976841999e+02 1.0000000000000000e+00 1.4176038278615792e+01 5.3888849118048556e+00 8.2468500829691784e+00 
112 1 2 1.0280000000001208e+00 -4.5981480097570477e+02 1.0000000000000000e+00 1.4996290626219249e+01 3.1268002737946063e+00 1.3038644667161430e+01 
118 1 2 1.0280000000001184e+00 -4.6994927216012695e+02 1.0000000000000000e+00 1.4990969055519649e+01 3.1375342607962131e+00 1.3032427758931988e+01 
113 1 2 1.0280000000001197e+00 -4.2084577889648119e+02 1.0000000000000000e+00 1.4975998155580184e+01 3.1319102391807432e+00 1.3059645994181700e+01 
119 1 2 1.0280000000001239e+00 -4.8446188918012166e+02 1.0000000000000000e+00 1.5008446890928973e+01 3.1103326948889016e+00 1.3043900710673009e+01 
148 1 2 1.0280000000001932e+00 -5.1015452432115819e+02 1.0000000000000000e+00 1.5360126364233338e+01 3.0361476735023416e+00 1.2878120824589429e+01 
83 1 2 1.0280000000001119e+00 -4.9967325533391283e+02 1.0000000000000000e+00 1.4968796863520488e+01 3.1405725954922614e+00 1.3058776822637970e+01 
77 1 2 1.0280000000001137e+00 -3.9735000290010868e+02 1.0000000000000000e+00 1.4971346318355888e+01 3.1355014375348365e+00 1.3061625360600294e+01 
76 1 2 1.0280000000001115e+00 -3.4126648229126408e+02 1.0000000000000000e+00 1.4970392867441007e+01 3.1383571049080685e+00 1.3059318872157876e+01 
149 1 2 1.0280000000000533e+00 -6.2449970433178771e+02 1.0000000000000000e+00 1.6348500864294607e+01 3.2142006553737059e+00 1.3267193005407270e+01 
154 1 2 1.0279999999999638e+00 -5.7728718594774239e+02 1.0000000000000000e+00 1.6449168031120312e+01 4.1809850017374810e+00 1.3212463001706059e+01 
155 1 2 1.0280000000000067e+00 -5.7715158054820859e+02 1.0000000000000000e+00 1.6420836700415983e+01 4.4097447005873986e+00 1.3581958485782542e+01 
160 1 2 1.0280000000000646e+00 -4.8770680746261178e+02 1.0000000000000000e+00 1.6347365195830648e+01 4.4956183785503887e+00 1.3651412429326431e+01 
161 1 2 1.0280000000001013e+00 -4.0495372275956709e+02 1.0000000000000000e+00 1.6299826134130903e+01 4.5280599469607274e+00 1.3770144760353524e+01 
150 1 2 1.0279999999999421e+00 -5.7828289075627185e+02 1.0000000000000000e+00 1.6485566092816359e+01 3.8044918400761309e+00 1.4067726796134069e+01 
120 1 2 1.0280000000002523e+00 -5.0734158289624492e+02 1.0000000000000000e+00 1.5687794763287789e+01 4.4048416336214240e+00 1.4349971385727848e+01 
126 1 2 1.0280000000002487e+00 -5.3655000096617334e+02 1.0000000000000000e+00 1.5687298744134939e+01 4.4057172904155246e+00 1.4349300332490984e+01 
162 1 2 1.0280000000002483e+00 -5.8042411762350764e+02 1.0000000000000000e+00 1.5688677626212044e+01 4.4057540818057443e+00 1.4349318861735826e+01 
125 1 2 1.0280000000002474e+00 -4.5762698654706332e+02 1.0000000000000000e+00 1.5687287278649141e+01 4.4064263822263472e+00 1.4348768888875300e+01 
156 1 2 1.0280000000002458e+00 -5.1878606597626231e+02 1.0000000000000000e+00 1.5688752317351071e+01 4.4044490067925750e+00 1.4350295658329410e+01 
175 1 2 9.6559279105893081e-01 -5.5428661852267862e+02 1.0000000000000000e+00 1.6267690998256192e+01 1.6005026163803954e+01 5.1335265174668612e+00 
139 1 2 9.6559279105893081e-01 -4.9569648087611756e+02 1.0000000000000000e+00 1.6267690998256878e+01 1.6005026163803958e+01 5.1335265174668612e+00 
169 1 2 9.6559279105893081e-01 -5.8279712955123398e+02 1.0000000000000000e+00 1.6267690998255063e+01 1.6005026163803958e+01 5.1335265174668612e+00 
140 1 2 9.6559279105893081e-01 -5.2950157159781884e+02 1.0000000000000000e+00 1.6267690998253386e+01 1.6005026163803784e+01 5.1335265174668612e+00 
134 1 2 9.6559279105893081e-01 -4.6403789294013495e+02 1.0000000000000000e+00 1.6267690998254587e+01 1.6005026163804015e+01 5.1335265174668612e+00 
141 1 2 9.6559279105893081e-01 -3.6461464191178129e+02 1.0000000000000000e+00 1.6267690998253386e+01 1.6005026163803958e+01 5.1335265174668052e+00 
135 1 2 9.6559279105893081e-01 -4.2370614617589024e+02 1.0000000000000000e+00 1.6267690998258701e+01 1.6005026163803784e+01 5.1335265174668141e+00 
176 1 2 9.6559279105893081e-01 -5.5153355173865259e+02 1.0000000000000000e+00 1.6267690998257383e+01 1.6005026163804001e+01 5.1335265174668612e+00 
171 1 2 9.6559279105893081e-01 -4.4932246626799883e+02 1.0000000000000000e+00 1.6267690998256413e+01 1.6005026163803965e+01 5.1335265174668612e+00 
170 1 2 9.6559279105893081e-01 -4.2564693974499590e+02 1.0000000000000000e+00 1.6267690998256413e+01 1.6005026163803965e+01 5.1335265174667750e+00 
177 1 2 9.6559279105893081e-01 -3.4861286668646028e+02 1.0000000000000000e+00 1.6267690998256192e+01 1.6005026163803958e+01 5.1335265174668283e+00 
178 1 2 9.6559279105893081e-01 -3.9629914988699284e+02 1.0000000000000000e+00 1.6267690998256878e+01 1.6005026163803986e+01 5.1335265174668612e+00 
142 1 2 9.6559279105893081e-01 -4.2781978601022865e+02 1.0000000000000000e+00 1.6267690998253386e+01 1.6005026163803958e+01 5.1335265174668612e+00 
166 1 2 1.0279999999999219e+00 -3.6834836336495368e+02 1.0000000000000000e+00 1.4965785151755044e+01 1.3105418861104402e+01 1.3866325342667457e+01 
130 1 2 1.0279999999998624e+00 -3.7238861044640328e+02 1.0000000000000000e+00 1.4965749399262259e+01 1.3105389905814233e+01 1.3866323449841932e+01 
136 1 2 1.0279999999999774e+00 -4.4206071062989872e+02 1.0000000000000000e+00 1.4965763944452632e+01 1.3105419791843664e+01 1.3866312492774718e+01 
172 1 2 1.0279999999998204e+00 -3.6555643035991039e+02 1.0000000000000000e+00 1.4965783113610602e+01 1.3105424091297010e+01 1.3866320778215934e+01 
167 1 2 1.0279999999998504e+00 -4.6734624049799061e+02 1.0000000000000000e+00 1.4965791195627320e+01 1.3105408066202168e+01 1.3866335824789658e+01 
131 1 2 1.0279999999999867e+00 -3.3539578196995234e+02 1.0000000000000000e+00 1.4965733506047911e+01 1.3105379476936763e+01 1.3866321027041479e+01 
137 1 2 1.0279999999998661e+00 -3.8719036210059335e+02 1.0000000000000000e+00 1.4953642001098988e+01 1.3094594370636795e+01 1.3866482444543609e+01 
143 1 2 1.0279999999999216e+00 -5.5722122151935980e+02 1.0000000000000000e+00 1.4679153235503753e+01 1.4737315489282691e+01 1.5116525814062969e+01 
144 1 2 1.0280000000000091e+00 -5.6428690556419815e+02 1.0000000000000000e+00 1.4711650082721894e+01 1.4696020614889193e+01 1.5221066394455129e+01 
173 1 2 1.0279999999998966e+00 -4.8017286681412918e+02 1.0000000000000000e+00 1.5249167982767849e+01 1.3469081932687523e+01 1.3929285749254738e+01 
174 1 2 1.0280000000000324e+00 -5.9196944002148189e+02 1.0000000000000000e+00 1.5263665936246705e+01 1.4398945929341833e+01 1.4751033459308998e+01 
179 1 2 1.0280000000000979e+00 -5.6138730883071378e+02 1.0000000000000000e+00 1.5263681407415367e+01 1.4398306426853241e+01 1.4708069318818003e+01 
180 1 2 1.0280000000000264e+00 -5.3978205084696174e+02 1.0000000000000000e+00 1.5219818805758690e+01 1.4442261316926617e+01 1.4832056855791270e+01 
108 1 2 1.0279999999999518e+00 -3.8765429441060888e+02 1.0000000000000000e+00 1.4159816203705073e+01 1.4654342498549786e+01 1.5550013809204868e+01 
114 1 2 2.9710547417197863e-01 -3.5028394203382879e+02 1.0000000000000000e+00 1.3351009251447536e+01 1.9974380049699938e+01 1.9579472101036583e+01 
78 1 2 2.9710547417197863e-01 -3.5559415802665853e+02 1.0000000000000000e+00 1.3351009251447536e+01 1.9974380049699938e+01 1.9579472101036583e+01 
109 1 2 2.9710547417197863e-01 -2.7786262803323018e+02 1.0000000000000000e+00 1.3351009251447536e+01 1.9974380049699949e+01 1.9579472101036593e+01 
73 1 2 2.9710547417197863e-01 -2.8240181837633031e+02 1.0000000000000000e+00 1.3351009251447536e+01 1.9974380049699949e+01 1.9579472101036593e+01 

Velocities

1 1.4169559204024301e-15 1.5534732682155131e-16 -3.2952463265177167e-17
7 7.4331342136729934e-15 3.0363341151483544e-16 2.5302784292903357e-17
8 -1.2818508210152687e-14 1.7653105320629856e-16 2.0006852696713320e-17
2 1.4169559204024315e-15 -3.1069465364309779e-16 -1.1768736880420236e-18
37 7.3907667609023967e-16 -4.3779701195163678e-16 2.0006852696714697e-17
43 7.4331342136729934e-15 1.9771477959105420e-16 -3.2952463265176384e-17
42 3.0269191256438802e-15 1.5534732682154889e-16 2.5302784292903813e-17
12 -1.0149358685673746e-14 -3.1069465364307826e-16 -2.2360600072797605e-17
6 1.5016908259414542e-15 7.0612421282524092e-17 -1.1768736880420126e-18
52 5.4651918354872124e-05 4.1390224573578552e-04 -3.0409712035787116e-04
51 5.4616345267434780e-05 4.1391055104872165e-04 -3.0409480384503115e-04
58 5.4611901805920855e-05 4.1391150624038369e-04 -3.0409460310758810e-04
15 5.4611521417644538e-05 4.1391160719775739e-04 -3.0409456518436944e-04
21 5.4610933930391173e-05 4.1391173636758793e-04 -3.0409453552573056e-04
57 5.4611312068393353e-05 4.1391164506618714e-04 -3.0409456343868143e-04
45 5.1540731468050346e-05 4.1437992390956212e-04 -3.0414988313442771e-04
44 5.1538743093324050e-05 4.1438099800293805e-04 -3.0414907689799175e-04
50 5.1537796847612835e-05 4.1438176258948344e-04 -3.0414841917132082e-04
81 5.1537416795032290e-05 4.1438205070707719e-04 -3.0414817551290658e-04
87 5.1537412881298539e-05 4.1438204981880281e-04 -3.0414817717266729e-04
86 5.1537388562736197e-05 4.1438206364696197e-04 -3.0414816656399319e-04
80 5.1537420855316449e-05 4.1438204656579059e-04 -3.0414817926451509e-04
41 -8.2164796977951179e-17 -6.2551264796117765e-16 7.6333746869839061e-16
3 -7.5273555941091160e-16 -1.2669281598535671e-15 -2.2794104968076971e-16
40 -4.6118305400527743e-16 9.1971563068867624e-16 9.9657947302289508e-16
4 -6.9442505832978378e-16 -6.2551264796117420e-16 -1.0442880648165486e-15
5 4.4262971275218814e-16 2.6398754125818864e-15 -2.2794104968076921e-16
10 5.8840596545501287e-16 -4.5058114471779734e-16 7.0502696761726229e-16
11 6.3611455724867038e-17 1.1238023844726179e-15 -1.0442880648165480e-15
16 4.4262971275219440e-16 -4.5058114471779754e-16 7.6333746869838992e-16
53 -1.4047529805907763e-16 -4.5058114471779734e-16 -2.2794104968077222e-16
46 4.7178496329274786e-16 -3.4535719503957556e-15 -6.3611455724864600e-16
17 1.2192195680599139e-16 2.6398754125818868e-15 1.8023245788711638e-16
29 -2.9643938750474793e-323 3.3105567334223498e-16 -3.2615114484826952e-15
24 -2.9643938750474793e-323 -8.4603116520793215e-16 1.4468359057179058e-15
60 -2.9643938750474793e-323 3.3105567334223182e-16 3.8010095828181779e-15
23 -2.9643938750474793e-323 3.3105567334223675e-16 -9.0733777138239618e-16
59 -2.9643938750474793e-323 3.3105567334223572e-16 -2.8691491689659807e-15
18 -2.9643938750474793e-323 3.3105567334223675e-16 -9.0733777138239618e-16
30 -2.9643938750474793e-323 -1.0422123049662934e-15 -2.4767868894492630e-15
25 -2.9643938750474793e-323 2.3296510346304959e-16 5.1742775611266494e-15
35 2.3530833989585061e-16 5.9287877500949585e-323 -1.8986948805389277e-15