LAMMPS data file via write_data, version 30 Jul 2016, timestep = 50000000

4620 atoms
8 atom types

0.0000000000000000e+00 1.0000000000000000e+02 xlo xhi
0.0000000000000000e+00 4.0000000000000000e+01 ylo yhi
0.0000000000000000e+00 4.0000000000000000e+01 zlo zhi

Masses

1 3.896
2 5.36
3 20.064
4 8.378
5 8.378
6 8.378
7 8.378
8 8.378

Atoms # meso-molecular

693 694 2 1.0279999997887561e+00 -1.8945738133719474e+03 1.0000000000000000e+00 3.7598617274202828e-01 1.4809464033180939e+00 1.3750018918845452e+01 
1533 1534 2 1.0280000000995293e+00 5.9109055782168269e+01 1.0000000000000000e+00 1.1728666350901134e+00 2.4272273922061003e+00 1.3320618999460297e+01 
1701 1702 2 1.0280000000795924e+00 5.8924005953397980e+01 1.0000000000000000e+00 1.1768090448317632e+00 2.4324899678338272e+00 1.4198571889430756e+01 
1110 1111 2 1.0279999999636413e+00 2.6522709539236648e+03 1.0000000000000000e+00 5.9558488239731178e-01 2.8199377482435377e+00 1.3229966652387763e+01 
1194 1195 2 1.0279999999970073e+00 2.6521428112816398e+03 1.0000000000000000e+00 5.9856902304016568e-01 2.8443430213679082e+00 1.4295619407599300e+01 
815 816 2 1.0280000015622164e+00 -6.2152038733887684e+02 1.0000000000000000e+00 4.2251618419851172e-01 1.2277126167418162e+01 1.3798727911468660e+01 
563 564 2 1.0280000019641518e+00 -6.2152307078608669e+02 1.0000000000000000e+00 4.3443402343960025e-01 1.2263919792501030e+01 1.3469422289525639e+01 
1232 1233 2 1.0279999989792490e+00 -9.4090780153085439e+02 1.0000000000000000e+00 1.7544051050386871e+00 1.2735081808063692e+01 1.3744214908045244e+01 
1064 1065 2 1.0279999989792374e+00 -9.4090514430487337e+02 1.0000000000000000e+00 1.7544043495501291e+00 1.2735076959567488e+01 1.3744296775055188e+01 
4383 4384 2 1.0280000009500827e+00 9.8970055322706457e+02 1.0000000000000000e+00 2.0068050872063190e+00 1.3765038477753818e+01 1.3865244030245645e+01 
219 220 2 1.0280000007492027e+00 -1.8292747796440776e+03 1.0000000000000000e+00 3.7656583665700758e+00 1.4908572741695444e+01 1.3826613899444977e+01 
683 684 2 1.0280000002182246e+00 1.3096405183355666e+03 1.0000000000000000e+00 5.3279535715793918e+00 1.3970654308913046e+01 1.3970503429240367e+01 
557 558 2 1.0280000002038867e+00 5.8348206445824275e+01 1.0000000000000000e+00 5.4169653764380765e+00 1.4067426347765100e+01 1.3986601386759693e+01 
809 810 2 1.0280000002060150e+00 5.8352813907512683e+01 1.0000000000000000e+00 5.4182157012527394e+00 1.4066746466113530e+01 1.3955008306845594e+01 
3919 3920 2 1.0279999971120626e+00 4.6627598212720375e+02 1.0000000000000000e+00 1.6502483997139533e-01 1.5072027945723873e+01 1.3789618056290792e+01 
216 217 2 1.0280000006515062e+00 2.7813211568903007e+03 1.0000000000000000e+00 8.6895961863803262e-01 1.7353402920018059e+01 1.3670518999419446e+01 
2989 2990 2 1.0280000005277146e+00 -3.7956905408139537e+03 1.0000000000000000e+00 8.9427107677950102e-01 1.7382333542541321e+01 1.3652606090145923e+01 
3453 3454 2 1.0280000003785383e+00 2.0522038701284855e+03 1.0000000000000000e+00 9.2189079743598024e-01 1.7407982640672405e+01 1.3631849600230629e+01 
689 690 2 1.0280000001713059e+00 1.6216356033353727e+03 1.0000000000000000e+00 1.4651832511514593e+00 1.5025761186597943e+01 1.4293265981629265e+01 
4002 4003 2 1.0279999998648290e+00 5.8838558184605354e+03 1.0000000000000000e+00 2.4235104336470981e+00 1.5659853970170154e+01 1.3424434960843488e+01 
3834 3835 2 1.0279999999099623e+00 5.8839430984449373e+03 1.0000000000000000e+00 2.4350488472001679e+00 1.5693550998719097e+01 1.4405749879128297e+01 
3451 3452 2 1.0279999999847791e+00 5.3121905273184639e+03 1.0000000000000000e+00 3.3506316873755404e+00 1.7378868359074076e+01 1.3751261656116439e+01 
1600 1601 2 1.0279999998561198e+00 9.2537837044704793e+03 1.0000000000000000e+00 3.3781430664491414e+00 1.7172178251067141e+01 1.3913278419805774e+01 
687 688 2 1.0279999991311060e+00 -5.1746132239243286e+02 1.0000000000000000e+00 4.5441259331544748e+00 1.5015273132645314e+01 1.3948748442932832e+01 
1143 1144 2 1.0279999995744571e+00 2.0517220976920989e+03 1.0000000000000000e+00 1.3358403562754000e+00 1.9680579541599851e+01 1.3588180879487561e+01 
1603 1604 2 1.0279999996126237e+00 -3.7962660745177482e+03 1.0000000000000000e+00 1.4070997496113087e+00 1.9800890579105154e+01 1.3651027425665049e+01 
4374 4375 2 1.0280000001110674e+00 2.7806953837227566e+03 1.0000000000000000e+00 1.4290850509788744e+00 1.9944776826238606e+01 1.3717887352319812e+01 
2986 2987 2 1.0279999999005918e+00 9.2550635853453095e+03 1.0000000000000000e+00 3.6541795587175860e+00 1.9808468058112116e+01 1.4064785175261425e+01 
1141 1142 2 1.0279999999180103e+00 5.3131540936087295e+03 1.0000000000000000e+00 3.7220255482540132e+00 1.9738868076557903e+01 1.4045903956145134e+01 
2065 2066 2 1.0280000001212202e+00 -2.2885664525098801e+02 1.0000000000000000e+00 3.7475099113703965e+00 1.8028517069579426e+01 1.3921606955382275e+01 
2527 2528 2 1.0280000000603244e+00 -2.2919142055091487e+02 1.0000000000000000e+00 3.9654630970311673e+00 1.9340905051711569e+01 1.3996443267302903e+01 
2654 2655 2 1.0280000000712939e+00 -1.6023301783702150e+03 1.0000000000000000e+00 1.3395645060274353e+00 1.7469443996099404e+01 2.7487902657936594e+01 
2612 2613 2 1.0279999996511073e+00 -4.2105299420064339e+03 1.0000000000000000e+00 5.6639681277265130e-01 1.9013916947579013e+01 2.6608926205523801e+01 
2150 2151 2 1.0279999996634499e+00 -4.2109890870048057e+03 1.0000000000000000e+00 5.7725670362737169e-01 1.8896155073055073e+01 2.6619735363442857e+01 
385 386 2 1.0280000000909089e+00 -1.2260577853011850e+03 1.0000000000000000e+00 1.3731410003020217e+00 1.7452446108324388e+01 2.7531833662489383e+01 
1270 1271 2 1.0280000006164196e+00 -1.9931116873595258e+03 1.0000000000000000e+00 1.5251505579223146e-01 1.7078010924631254e+01 2.8122090710965242e+01 
1649 1650 2 1.0280000004911209e+00 -3.2673385784577886e+02 1.0000000000000000e+00 1.2650806701550710e+00 1.6247013356414012e+01 2.9959217822293535e+01 
1355 1356 2 1.0280000000010654e+00 -2.3621780669019545e+03 1.0000000000000000e+00 2.5340475071517132e+00 1.6653973367454750e+01 2.9771516719128030e+01 
1437 1438 2 1.0280000000874363e+00 3.5376882593392969e+02 1.0000000000000000e+00 2.6096071829813323e+00 1.7263906461874583e+01 2.9588609976450371e+01 
4589 4590 2 1.0280000001394147e+00 -8.9555739597172317e+02 1.0000000000000000e+00 2.0765376729457334e+00 1.9322184485434718e+01 2.8420107885202011e+01 
431 432 2 1.0280000001027623e+00 -8.9594842011001197e+02 1.0000000000000000e+00 2.1130819652319253e+00 1.8530906760856638e+01 2.8369024392649944e+01 
717 718 2 1.0279999998819307e+00 -1.6726964869761546e+03 1.0000000000000000e+00 3.2247288751783350e-02 5.9258331017090471e-01 3.1449588638151653e+01 
804 805 2 1.0279999999143523e+00 9.0088362432934036e+02 1.0000000000000000e+00 4.7871656062490570e-01 6.4708439340109847e-01 3.1514515977854082e+01 
2363 2364 2 1.0280000000006995e+00 -1.4825632742941530e+03 1.0000000000000000e+00 1.5297003913691101e+00 3.6522830498955798e+00 3.2309938733521598e+01 
1720 1721 2 1.0280000000300777e+00 -9.0436593262549218e+02 1.0000000000000000e+00 1.6952306152284397e-02 8.5404150598278150e+00 3.2275336713392207e+01 
1552 1553 2 1.0280000000195844e+00 -9.0413744287330508e+02 1.0000000000000000e+00 2.1318688887549023e-02 8.5445153277806121e+00 3.2431788077558259e+01 
3957 3958 2 1.0280000000024612e+00 -7.4571121831865526e+02 1.0000000000000000e+00 1.3591707629773486e+00 7.6846543401031306e+00 3.2189838846747421e+01 
3873 3874 2 1.0280000000049387e+00 -7.4588437819345700e+02 1.0000000000000000e+00 1.3813096111507204e+00 7.6960641542600365e+00 3.2476265095053940e+01 
54 55 2 1.0280000000081095e+00 2.5654059549517302e+02 1.0000000000000000e+00 2.0100514320311369e+00 8.8619794097438529e+00 3.2274829321430893e+01 
390 391 2 1.0280000000080984e+00 2.5643674212313215e+02 1.0000000000000000e+00 2.0101277329004406e+00 8.8619645823316109e+00 3.2276198153605449e+01 
2477 2478 2 1.0280000001110630e+00 4.5863177572499526e+03 1.0000000000000000e+00 2.8001091393165929e-02 1.0276777661242374e+01 3.1558772884751647e+01 
3034 3035 2 1.0280000000058906e+00 -4.4728620179208292e+01 1.0000000000000000e+00 7.7874239918124910e-01 1.2257722545582540e+01 3.1545239490946017e+01 
1731 1732 2 1.0280000000250396e+00 1.0833676662884766e+03 1.0000000000000000e+00 1.1967205905295928e+00 1.0901174531802880e+01 3.1875414839662650e+01 
890 891 2 1.0280000003544891e+00 9.0621864788304975e+01 1.0000000000000000e+00 3.9617445380448518e-01 1.3206853303726742e+01 3.1821400195796532e+01 
1732 1733 2 1.0280000000329499e+00 -6.2491562730142164e+02 1.0000000000000000e+00 2.6825567092908513e+00 1.3950765380889042e+01 3.1393181212040055e+01 
719 720 2 1.0280000000219720e+00 -9.0702060968131730e+02 1.0000000000000000e+00 3.2521977291452910e+00 1.3347001754495070e+01 3.2185125580132080e+01 
635 636 2 1.0280000000218639e+00 -9.0670940385165227e+02 1.0000000000000000e+00 3.2521742545913468e+00 1.3346991835193551e+01 3.2187508745623241e+01 
1440 1441 2 1.0279999998895168e+00 -8.2144718592358004e+02 1.0000000000000000e+00 1.1463735507646038e+00 1.6248745095875972e+01 3.0448328509781394e+01 
2151 2152 2 1.0280000007664041e+00 -5.2928008057076058e+03 1.0000000000000000e+00 2.4573084753368448e+00 1.5092282954974522e+01 3.1942159896123890e+01 
1983 1984 2 1.0279999992807012e+00 -5.2920161850670920e+03 1.0000000000000000e+00 2.5079320916526582e+00 1.5111527998807453e+01 3.2379966953991904e+01 
2785 2786 2 1.0280000002323182e+00 1.7375466293404014e+02 1.0000000000000000e+00 3.2094967069950067e+00 1.7137940942106844e+01 3.1114289061257352e+01 
1691 1692 2 1.0279999998941491e+00 4.6373361545253442e+02 1.0000000000000000e+00 1.2245272516278840e+00 1.7652352825509411e+01 3.0017608239265218e+01 
4545 4546 2 1.0279999998110898e+00 -8.6189411739608113e+02 1.0000000000000000e+00 1.2388551044319371e+00 1.9937227499766294e+01 3.1894560564112052e+01 
4209 4210 2 1.0279999996146691e+00 -8.6171988340708276e+02 1.0000000000000000e+00 1.2473535499891375e+00 1.9939163564776816e+01 3.1774711424541991e+01 
387 388 2 1.0280000000240610e+00 -8.6208328671038907e+02 1.0000000000000000e+00 1.3533647091846166e+00 1.7978066029970069e+01 3.2140530519342960e+01 
51 52 2 1.0279999997903275e+00 -8.6189021995177427e+02 1.0000000000000000e+00 1.3725079929231654e+00 1.7961050141523724e+01 3.1997348810238538e+01 
2702 2703 2 1.0280000000973466e+00 -3.5921584245171744e+03 1.0000000000000000e+00 3.4460841772796118e+00 1.7666915599932345e+01 3.1961569401541610e+01 
2366 2367 2 1.0279999999908718e+00 -3.5921691693197017e+03 1.0000000000000000e+00 3.4765868825165738e+00 1.7691630771586116e+01 3.2342938522266323e+01 
633 634 2 1.0279999998824769e+00 -1.6727044077849564e+03 1.0000000000000000e+00 3.6483756286539194e-02 6.0305975837187431e-01 3.3978480600497996e+01 
552 553 2 1.0279999999116589e+00 9.0088703062950344e+02 1.0000000000000000e+00 4.8311703454808641e-01 6.5731379475118223e-01 3.3913686659752585e+01 
2698 2699 2 1.0280000000805960e+00 -2.3715244363230413e+03 1.0000000000000000e+00 5.6348670861508154e-01 1.8170964357918094e+00 3.2706366788570982e+01 
2362 2363 2 1.0280000000805656e+00 -2.3715258667924154e+03 1.0000000000000000e+00 5.6351260461819941e-01 1.8170056789462843e+00 3.2704638081240049e+01 
2699 2700 2 1.0280000000114393e+00 -1.4826391314653629e+03 1.0000000000000000e+00 1.5347774759769695e+00 3.6424535580497319e+00 3.3206201300522046e+01 
2361 2362 2 1.0279999999797755e+00 -1.7708935924973507e+03 1.0000000000000000e+00 1.5554914331980574e+00 4.1081194583354952e+00 3.2617498604143925e+01 
2697 2698 2 1.0279999999850711e+00 -1.7710183186811014e+03 1.0000000000000000e+00 1.5558873652639409e+00 4.0984217942336727e+00 3.2929543649748432e+01 
2645 2646 2 1.0279999999734617e+00 4.5865197702677169e+03 1.0000000000000000e+00 1.4942687938125665e-02 1.0296761151496108e+01 3.3065075344568875e+01 
2950 2951 2 1.0279999999091602e+00 -4.4499255532894210e+01 1.0000000000000000e+00 7.5847365252162957e-01 1.2254321738400522e+01 3.3007869537428540e+01 
1479 1480 2 1.0279999999803149e+00 1.0834359828933170e+03 1.0000000000000000e+00 1.1755347459314844e+00 1.0795410284202603e+01 3.2759195290119351e+01 
470 471 2 1.0279999998813381e+00 9.0330370234258652e+01 1.0000000000000000e+00 4.0307135688298201e-01 1.3147965220917436e+01 3.2710693563022041e+01 
1480 1481 2 1.0279999999429581e+00 -6.2420729107941474e+02 1.0000000000000000e+00 2.6905349134674039e+00 1.3886792532905345e+01 3.2961747824133283e+01 
1776 1777 2 1.0279999999985390e+00 -8.2168056539799159e+02 1.0000000000000000e+00 1.1017354784530771e+00 1.6259289426400269e+01 3.3792635881271359e+01 
1565 1566 2 1.0279999999766756e+00 -3.2695103717330119e+02 1.0000000000000000e+00 1.2200327789909642e+00 1.6186311657426739e+01 3.4264940515761332e+01 
1773 1774 2 1.0279999999338914e+00 3.5361960248304968e+02 1.0000000000000000e+00 2.5670300388180163e+00 1.7439986513565863e+01 3.4559160146421284e+01 
935 936 2 1.0279999999656642e+00 -2.3622743710836312e+03 1.0000000000000000e+00 2.5944489767067846e+00 1.6792208116070043e+01 3.4442521459336589e+01 
3205 3206 2 1.0279999998703078e+00 1.7367990777887184e+02 1.0000000000000000e+00 3.3086485547338200e+00 1.7167841403739168e+01 3.3197514702648178e+01 
1523 1524 2 1.0280000002253002e+00 4.6369863371431472e+02 1.0000000000000000e+00 1.2845704035133279e+00 1.7792411803988859e+01 3.3737328286861917e+01 
1018 1019 2 1.0279999993904239e+00 -1.9931328658826542e+03 1.0000000000000000e+00 1.0458356782518377e-02 1.7017115312380671e+01 3.5642540105520510e+01 
2402 2403 2 1.0279999999745792e+00 -1.6018381932955913e+03 1.0000000000000000e+00 1.3742907514350147e+00 1.7797810845905207e+01 3.6069377811169559e+01 
49 50 2 1.0279999999538199e+00 -1.2252559101043403e+03 1.0000000000000000e+00 1.4777077105083116e+00 1.7797673235319021e+01 3.5923837133218846e+01 
1982 1983 2 1.0279999999789784e+00 -4.2102434050300744e+03 1.0000000000000000e+00 9.5582997999511343e-01 1.9044832456757351e+01 3.7855647306117604e+01 
4169 4170 2 1.0280000000233558e+00 -8.9588294315117219e+02 1.0000000000000000e+00 1.9135353223268534e+00 1.9422220948310066e+01 3.7606944657032571e+01 
11 12 2 1.0280000000225338e+00 -8.9623364047473137e+02 1.0000000000000000e+00 1.9645893996222792e+00 1.8719990076888312e+01 3.7598131030814542e+01 
2444 2445 2 1.0279999999796841e+00 -4.2097869270075935e+03 1.0000000000000000e+00 9.5405095012869967e-01 1.9093621369220248e+01 3.7850893022881515e+01 
768 769 2 1.0279999989102580e+00 5.8851979021580009e+03 1.0000000000000000e+00 1.3407849538463054e-01 2.2031182264976710e+01 1.3943061222359342e+01 
600 601 2 1.0279999988514414e+00 5.8849952102945290e+03 1.0000000000000000e+00 2.6873080205066557e-01 2.1685358034767457e+01 1.4552885377781497e+01 
3923 3924 2 1.0280000024539426e+00 1.6209982907105282e+03 1.0000000000000000e+00 1.7975998291316382e+00 2.2093577160065827e+01 1.4385047522902946e+01 
4377 4378 2 1.0279999988956803e+00 -1.8287220927637291e+03 1.0000000000000000e+00 2.5229093225974197e+00 2.2358536459776548e+01 1.4696350961757949e+01 
3921 3922 2 1.0279999995795677e+00 -5.1709598664395139e+02 1.0000000000000000e+00 3.5737867493077098e+00 2.1816305319049995e+01 1.4315267496802729e+01 
225 226 2 1.0279999993110338e+00 9.8877274791193759e+02 1.0000000000000000e+00 1.1744957008223413e+00 2.3115304451749736e+01 1.4311774391218249e+01 
3542 3543 2 1.0279999999703022e+00 -9.4197730274273601e+02 1.0000000000000000e+00 2.3740630918788206e+00 2.4654431321050666e+01 1.4523367348283225e+01 
3374 3375 2 1.0279999999702900e+00 -9.4197430902522149e+02 1.0000000000000000e+00 2.3740616368080287e+00 2.4654437547396977e+01 1.4523443394565204e+01 
3917 3918 2 1.0280000004096348e+00 1.3095425885117170e+03 1.0000000000000000e+00 4.3614680313923095e+00 2.2988212133705517e+01 1.4398347374250132e+01 
4043 4044 2 1.0280000003792991e+00 5.8236428550756060e+01 1.0000000000000000e+00 4.3689530013091700e+00 2.2969942130043126e+01 1.4395488589535628e+01 
3791 3792 2 1.0280000003793583e+00 5.8234597405383809e+01 1.0000000000000000e+00 4.3691249938070138e+00 2.2970023314917871e+01 1.4400387124794412e+01 
4049 4050 2 1.0280000010415233e+00 -6.2144230565979660e+02 1.0000000000000000e+00 1.5761266949559842e+00 2.5446080160119369e+01 1.4602801873812128e+01 
3797 3798 2 1.0280000010321899e+00 -6.2144582701405022e+02 1.0000000000000000e+00 1.5770346454045414e+00 2.5446752398343055e+01 1.4584774518455587e+01 
3504 3505 2 1.0280000000444875e+00 2.6520776478713979e+03 1.0000000000000000e+00 8.5539106772755624e-01 3.7452926606456600e+01 1.4271730064134484e+01 
3420 3421 2 1.0279999999776310e+00 2.6523508880984427e+03 1.0000000000000000e+00 8.4110378330799740e-01 3.7495579494262387e+01 1.3119638936994725e+01 
2919 2920 2 1.0280000000730509e+00 5.9076360437486954e+01 1.0000000000000000e+00 1.4029420086171709e+00 3.7903520836397234e+01 1.3247392790596198e+01 
3087 3088 2 1.0280000000682707e+00 5.8916065796890308e+01 1.0000000000000000e+00 1.4184603575238683e+00 3.7898945035011600e+01 1.4118008522439149e+01 
3927 3928 2 1.0279999998811253e+00 -1.8944834991731723e+03 1.0000000000000000e+00 5.4316159874895564e-01 3.8770230670914046e+01 1.3669752237938237e+01 
2192 2193 2 1.0280000000515899e+00 -1.6021345775630821e+03 1.0000000000000000e+00 1.3624745560517399e+00 2.0385513001518238e+01 2.7250739791350878e+01 
4543 4544 2 1.0280000000942371e+00 -1.2259945688274406e+03 1.0000000000000000e+00 1.4029816970205151e+00 2.0401853153468519e+01 2.7315617667992132e+01 
3580 3581 2 1.0280000010415407e+00 -1.9933421593888086e+03 1.0000000000000000e+00 1.9411901080311264e-01 2.0728298945264473e+01 2.7709899262936002e+01 
3077 3078 2 1.0280000000869285e+00 4.6395473867280521e+02 1.0000000000000000e+00 1.1454860410293835e+00 2.0232540129582784e+01 2.9993782585898437e+01 
3035 3036 2 1.0280000005216028e+00 -3.2671285305899147e+02 1.0000000000000000e+00 1.3290694892744859e+00 2.1578705847331520e+01 2.9836036360038445e+01 
3665 3666 2 1.0279999999207634e+00 -2.3622002971376478e+03 1.0000000000000000e+00 2.5697830020200154e+00 2.1184443125906871e+01 2.9700085402015922e+01 
2823 2824 2 1.0279999999533829e+00 3.5373811526101611e+02 1.0000000000000000e+00 2.6374073214600715e+00 2.0552128351268244e+01 2.9549806196096750e+01 
2826 2827 2 1.0280000001089424e+00 -8.2142058133548244e+02 1.0000000000000000e+00 1.1896324594846241e+00 2.1660855352244891e+01 3.0304200323632820e+01 
1399 1400 2 1.0280000003042939e+00 1.7373922301385420e+02 1.0000000000000000e+00 3.2391550705376311e+00 2.0730979170433312e+01 3.1024868425258170e+01 
2240 2241 2 1.0280000001938263e+00 -3.5921670779761043e+03 1.0000000000000000e+00 3.4492994278540969e+00 2.0208945990499284e+01 3.1854791624074672e+01 
1904 1905 2 1.0280000000627869e+00 -3.5921761681043126e+03 1.0000000000000000e+00 3.4869743521515102e+00 2.0180480382040589e+01 3.2223710835540444e+01 
4124 4125 2 1.0280000004256036e+00 9.0691663496539576e+01 1.0000000000000000e+00 3.3615558600952183e-01 2.4806542653496937e+01 3.1780007093981663e+01 
2613 2614 2 1.0280000005444316e+00 -5.2928187659655323e+03 1.0000000000000000e+00 2.4427579705609248e+00 2.2868897399272345e+01 3.1882102621465688e+01 
2445 2446 2 1.0279999993112434e+00 -5.2920257768881838e+03 1.0000000000000000e+00 2.4927056735987638e+00 2.2825300620795034e+01 3.2312057453255541e+01 
3118 3119 2 1.0280000000472573e+00 -6.2490873592361299e+02 1.0000000000000000e+00 2.6382420011051493e+00 2.3984901994915727e+01 3.1331816807136260e+01 
3953 3954 2 1.0280000000543770e+00 -9.0709389760349245e+02 1.0000000000000000e+00 3.2295181376030246e+00 2.4584260105271383e+01 3.2116682212927465e+01 
3869 3870 2 1.0280000000546199e+00 -9.0677225864724983e+02 1.0000000000000000e+00 3.2294954046905469e+00 2.4584271635989822e+01 3.2119304158395423e+01 
1648 1649 2 1.0279999999949789e+00 -4.4574226138961222e+01 1.0000000000000000e+00 7.3528991310620084e-01 2.5732296307276066e+01 3.1486820690266949e+01 
3117 3118 2 1.0280000000264702e+00 1.0833555935706893e+03 1.0000000000000000e+00 1.1533500136252575e+00 2.7116995051799542e+01 3.1845858613575444e+01 
2015 2016 2 1.0280000000977270e+00 4.5863170397392605e+03 1.0000000000000000e+00 4.0394277887238643e-02 2.7711804159345480e+01 3.1509243537819533e+01 
4212 4213 2 1.0280000000092566e+00 2.5659134484141231e+02 1.0000000000000000e+00 1.9082144966308112e+00 2.9343475661523527e+01 3.2198455788369301e+01 
4548 4549 2 1.0280000000092553e+00 2.5649010979464640e+02 1.0000000000000000e+00 1.9083014476243969e+00 2.9343483655636248e+01 3.2199951171743805e+01 
723 724 2 1.0280000000047924e+00 -7.4576326182398839e+02 1.0000000000000000e+00 1.2656129349482736e+00 3.0480057494839794e+01 3.2128708835745783e+01 
639 640 2 1.0280000000084690e+00 -7.4593771344535003e+02 1.0000000000000000e+00 1.2829891222295935e+00 3.0471368783316461e+01 3.2384872511639628e+01 
1901 1902 2 1.0280000000006262e+00 -1.4824667558346846e+03 1.0000000000000000e+00 1.4635090061523266e+00 3.4256939946664232e+01 3.2306221494839860e+01 
4038 4039 2 1.0279999999137424e+00 9.0088579911785610e+02 1.0000000000000000e+00 4.3091488948329537e-01 3.7251487836742108e+01 3.1518871459423725e+01 
2650 2651 2 1.0279999999888854e+00 -5.5664911509057856e+03 1.0000000000000000e+00 1.3357229254588716e+00 3.8563174786784877e+01 3.1909339276548558e+01 
2188 2189 2 1.0280000000023264e+00 -5.5664822698597263e+03 1.0000000000000000e+00 1.3495840849768088e+00 3.9343252553126419e+01 3.1905050940636542e+01 
3162 3163 2 1.0280000003157097e+00 -8.2164855986489806e+02 1.0000000000000000e+00 1.1713467424884554e+00 2.1647348087492418e+01 3.3628674291034791e+01 
2909 2910 2 1.0280000001481835e+00 4.6389984299729406e+02 1.0000000000000000e+00 1.2322066011606301e+00 2.0159829814351074e+01 3.3421312182068981e+01 
2951 2952 2 1.0280000000056739e+00 -3.2691839941171736e+02 1.0000000000000000e+00 1.3073312492005045e+00 2.1690843353275472e+01 3.4149330522402515e+01 
3159 3160 2 1.0279999998945191e+00 3.5361201111180310e+02 1.0000000000000000e+00 2.6032168693148154e+00 2.0387173338455334e+01 3.4378949979745435e+01 
3245 3246 2 1.0279999999172820e+00 -2.3622644481572452e+03 1.0000000000000000e+00 2.6772513652408469e+00 2.1018200153226250e+01 3.4303985234951497e+01 
1819 1820 2 1.0279999998633038e+00 1.7366420801358237e+02 1.0000000000000000e+00 3.3491339647348606e+00 2.0685828001858461e+01 3.3049008641124850e+01 
3704 3705 2 1.0279999999015557e+00 9.0387620016135699e+01 1.0000000000000000e+00 3.4420273235489940e-01 2.4856235459896428e+01 3.2608688710182292e+01 
2866 2867 2 1.0279999999562517e+00 -6.2420934572971214e+02 1.0000000000000000e+00 2.6459858651454220e+00 2.4048305948145892e+01 3.2892089534527948e+01 
1564 1565 2 1.0279999999005309e+00 -4.4347350441500268e+01 1.0000000000000000e+00 7.1910601019934395e-01 2.5733681552309879e+01 3.2926717157827468e+01 
2865 2866 2 1.0279999999933704e+00 1.0834128007314303e+03 1.0000000000000000e+00 1.1358320230449634e+00 2.7222795393747948e+01 3.2640360834316411e+01 
2183 2184 2 1.0279999999733063e+00 4.5865398133132421e+03 1.0000000000000000e+00 2.2947933040159720e-02 2.7709766738402632e+01 3.2997924163397983e+01 
2237 2238 2 1.0280000000072360e+00 -1.4825298758630993e+03 1.0000000000000000e+00 1.4667842520936418e+00 3.4262297814614307e+01 3.3210802236821209e+01 
1899 1900 2 1.0279999999873362e+00 -1.7708457147544136e+03 1.0000000000000000e+00 1.4679821747132527e+00 3.3790655541042440e+01 3.2616565472380302e+01 
2235 2236 2 1.0279999999815421e+00 -1.7709760940741621e+03 1.0000000000000000e+00 1.4680954637328703e+00 3.3800076991472601e+01 3.2930906787110864e+01 
3786 3787 2 1.0279999999083638e+00 9.0088975228100492e+02 1.0000000000000000e+00 4.4170497231006517e-01 3.7255405413340739e+01 3.3903501169013445e+01 
2236 2237 2 1.0280000000883500e+00 -2.3715105941675602e+03 1.0000000000000000e+00 4.8986453814886571e-01 3.6068392664956413e+01 3.2708832150337841e+01 
1900 1901 2 1.0280000000889207e+00 -2.3715113269248504e+03 1.0000000000000000e+00 4.8988987066323103e-01 3.6068477437592712e+01 3.2707102133097841e+01 
2398 2399 2 1.0279999999920710e+00 -5.5664446200899602e+03 1.0000000000000000e+00 1.3393781210713998e+00 3.8563017530938453e+01 3.3505112890403019e+01 
1936 1937 2 1.0280000000044047e+00 -5.5664415499077932e+03 1.0000000000000000e+00 1.3551523239885179e+00 3.9348011855675438e+01 3.3509659224064301e+01 
4207 4208 2 1.0280000000531995e+00 -1.2249320811374173e+03 1.0000000000000000e+00 1.5226091600605487e+00 2.0191618261773296e+01 3.5741494706081475e+01 
3328 3329 2 1.0279999992477173e+00 -1.9932333176617567e+03 1.0000000000000000e+00 4.6467769452774962e-02 2.0790974012731905e+01 3.5380213659336000e+01 
1940 1941 2 1.0280000001142975e+00 -1.6014434793454561e+03 1.0000000000000000e+00 1.4133820290975569e+00 2.0196290511889949e+01 3.5884793352972274e+01 
744 745 2 1.0280000002467868e+00 5.5932782111575591e+02 1.0000000000000000e+00 5.2940492855187024e+01 2.4561639422740331e+00 2.7729598801894806e-01 
2368 2369 2 1.0279999997819336e+00 -1.2437147035834614e+03 1.0000000000000000e+00 5.2700726005704468e+01 3.9215842212933985e+00 1.5923687720425832e+00 
727 728 2 1.0280000003973546e+00 5.4850850367667749e+02 1.0000000000000000e+00 5.2777556771912337e+01 3.0708199148284998e+00 1.3407814913334688e+00 
2051 2052 2 1.0280000000698231e+00 3.9036062107958223e+03 1.0000000000000000e+00 5.2781253205840663e+01 4.0574390893926084e+00 1.1088484624462711e+00 
181 182 2 1.0279999995940003e+00 1.5779884020668273e+03 1.0000000000000000e+00 5.0542151516204967e+01 7.4012105592294635e+00 1.2949986369752417e-01 
4338 4339 2 1.0279999998389997e+00 8.1690583114281696e+02 1.0000000000000000e+00 5.1287199422212964e+01 6.2866138607099495e+00 8.9026003477879381e-02 
1017 1018 2 1.0280000004116645e+00 -2.3441535580428254e+03 1.0000000000000000e+00 5.1922760434263623e+01 5.7977114258499913e+00 3.9843863043874134e-01 
450 451 2 1.0280000009694157e+00 3.0987531399330146e+03 1.0000000000000000e+00 5.3335174827562106e+01 6.9165176355268052e+00 1.1788730436632116e+00 
4357 4358 2 1.0279999998972071e+00 8.1223372109655133e+02 1.0000000000000000e+00 5.3852027625733186e+01 6.7731296235634968e+00 1.1417039896897070e+00 
786 787 2 1.0279999999397846e+00 2.6232876603928080e+03 1.0000000000000000e+00 5.4089690922110044e+01 6.9523467878845979e+00 2.0505804103047107e+00 
135 136 2 1.0280000008498185e+00 1.4933626163504259e+03 1.0000000000000000e+00 5.0689378841238579e+01 8.6649290672633548e+00 5.7493669775435174e-01 
430 431 2 1.0280000008550521e+00 1.9263727444100482e+03 1.0000000000000000e+00 5.1143271591757973e+01 9.0641725844137024e+00 1.7082770223138899e+00 
1024 1025 2 1.0279999994474325e+00 -2.9474402131466959e+03 1.0000000000000000e+00 5.1643970427933731e+01 8.1358693317331845e+00 2.4243155655782567e+00 
1788 1789 2 1.0279999973587512e+00 -6.0721729796554280e+02 1.0000000000000000e+00 5.2854252953068183e+01 9.9889779871094877e+00 9.3361121613586862e-01 
453 454 2 1.0280000013170216e+00 1.9225644925660308e+03 1.0000000000000000e+00 5.4190290246422052e+01 9.8594672505842418e+00 1.5154329215139621e+00 
160 161 2 1.0279999994368154e+00 1.4911171839441556e+03 1.0000000000000000e+00 5.4668110585866785e+01 8.7780801728414595e+00 5.1627962835460717e-01 
474 475 2 1.0280000001096272e+00 1.0002083051420520e+03 1.0000000000000000e+00 5.1105634588549982e+01 1.1335492810987940e+01 1.6488430862390300e+00 
2202 2203 2 1.0279999995962161e+00 -3.9563405254493377e+03 1.0000000000000000e+00 5.1301448807338978e+01 1.1839599794104950e+01 2.0312718057777936e+00 
1944 1945 2 1.0280000001230736e+00 -2.1879836375861328e+03 1.0000000000000000e+00 5.1487157029606131e+01 1.1412168149262621e+01 1.4523559129619035e+00 
1783 1784 2 1.0279999995559690e+00 -6.0791931565251434e+02 1.0000000000000000e+00 5.2391815013914503e+01 1.0141504130932120e+01 9.3937155534206995e-01 
493 494 2 1.0280000007252810e+00 1.0037724228901516e+03 1.0000000000000000e+00 5.4542461721701464e+01 1.0619414946311936e+01 6.6559609989591761e-01 
2209 2210 2 1.0280000009616674e+00 -3.9605044168063896e+03 1.0000000000000000e+00 5.4754865368016802e+01 1.2110179043393197e+01 2.4367193284992408e+00 
2378 2379 2 1.0280000001130991e+00 -5.0075440684359194e+02 1.0000000000000000e+00 5.4186334646195434e+01 1.3045647758135653e+01 2.4065834872051854e+00 
1405 1406 2 1.0280000001303204e+00 9.0295445932579611e+01 1.0000000000000000e+00 5.0284133190834062e+01 1.6020887386365750e+01 1.8522122180713325e+00 
972 973 2 1.0280000000625493e+00 2.5215846599953093e+03 1.0000000000000000e+00 5.0292871401699976e+01 1.6007073336966382e+01 1.8214343685961087e+00 
2038 2039 2 1.0280000009148569e+00 3.6001047739875339e+03 1.0000000000000000e+00 5.0399293561655320e+01 1.6346639249020761e+01 2.1798895894894272e+00 
2365 2366 2 1.0279999991448232e+00 -1.6225435758328163e+03 1.0000000000000000e+00 5.1321622542466635e+01 1.6242352247456626e+01 1.3988872805123231e+00 
2382 2383 2 1.0280000003052072e+00 -1.6202172424094083e+03 1.0000000000000000e+00 5.4931561004151277e+01 1.5944971899572776e+01 5.6515981407504889e-01 
2037 2038 2 1.0280000006843120e+00 3.6014252408396528e+03 1.0000000000000000e+00 5.5460688890705427e+01 1.5384247048340375e+01 1.3549449200840022e+00 
1033 1034 2 1.0280000001889533e+00 -4.3189446566385141e+03 1.0000000000000000e+00 5.5564984267612004e+01 1.5321520141155403e+01 2.4705224450055669e+00 
1858 1859 2 1.0280000002026071e+00 -6.2403585258231692e+02 1.0000000000000000e+00 5.2169846956275528e+01 1.8543311226979892e+01 1.4953219825817883e+00 
2320 2321 2 1.0280000001994030e+00 -6.2432665358235613e+02 1.0000000000000000e+00 5.2174422939348929e+01 1.9361445068040886e+01 1.5793476889484293e+00 
2800 2801 2 1.0279999997309277e+00 -1.3399862576502578e+03 1.0000000000000000e+00 5.3315378846779332e+01 1.9746614094329360e+01 3.6094780512462933e-02 
2343 2344 2 1.0280000005240484e+00 -6.2539151127138439e+02 1.0000000000000000e+00 5.3922647674517862e+01 1.9324581340207814e+01 1.9014841312926951e+00 
1881 1882 2 1.0280000003289569e+00 -6.2508422502953340e+02 1.0000000000000000e+00 5.3930430643089920e+01 1.8659126194185074e+01 1.8414546413499937e+00 