LAMMPS data file via write_data, version 30 Jul 2016, timestep = 50400000

4620 atoms
8 atom types

0.0000000000000000e+00 1.0000000000000000e+02 xlo xhi
0.0000000000000000e+00 4.0000000000000000e+01 ylo yhi
0.0000000000000000e+00 4.0000000000000000e+01 zlo zhi

Masses

1 3.896
2 5.36
3 20.064
4 8.378
5 8.378
6 8.378
7 8.378
8 8.378

Atoms # meso-molecular

693 694 2 1.0279999997925167e+00 -1.8945738133719474e+03 1.0000000000000000e+00 3.6033963967055099e-01 1.4802199884749012e+00 1.3751809045471282e+01 
1533 1534 2 1.0280000000980385e+00 5.9109055782168269e+01 1.0000000000000000e+00 1.1572357398317275e+00 2.4264608722679695e+00 1.3322404077615296e+01 
1701 1702 2 1.0280000000783547e+00 5.8924005953397980e+01 1.0000000000000000e+00 1.1611800714028953e+00 2.4317240241852462e+00 1.4200367045761052e+01 
1110 1111 2 1.0279999999640965e+00 2.6522709539236648e+03 1.0000000000000000e+00 5.7996155984065745e-01 2.8191614866332784e+00 1.3231754941351964e+01 
1194 1195 2 1.0279999999968021e+00 2.6521428112816398e+03 1.0000000000000000e+00 5.8295252077698057e-01 2.8435681436916993e+00 1.4297415080727637e+01 
815 816 2 1.0280000015374593e+00 -6.2152038733887684e+02 1.0000000000000000e+00 4.0701881212126856e-01 1.2276485791643703e+01 1.3800692139218990e+01 
563 564 2 1.0280000019331430e+00 -6.2152307078608669e+02 1.0000000000000000e+00 4.1894348314046592e-01 1.2263262605664151e+01 1.3471295442581429e+01 
1232 1233 2 1.0279999989955451e+00 -9.4090780153085439e+02 1.0000000000000000e+00 1.7388908861767134e+00 1.2734566364980751e+01 1.3746161274873966e+01 
1064 1065 2 1.0279999989955353e+00 -9.4090514430487337e+02 1.0000000000000000e+00 1.7388901304227000e+00 1.2734561517458850e+01 1.3746243130596957e+01 
4383 4384 2 1.0280000009324139e+00 9.8970055322706457e+02 1.0000000000000000e+00 1.9912787039446627e+00 1.3764490937834680e+01 1.3867197751722580e+01 
219 220 2 1.0280000007398482e+00 -1.8292747796440776e+03 1.0000000000000000e+00 3.7500702475699343e+00 1.4908055918235517e+01 1.3828574531356516e+01 
683 684 2 1.0280000002146947e+00 1.3096405183355666e+03 1.0000000000000000e+00 5.3123679709601763e+00 1.3970137826437185e+01 1.3972473247905876e+01 
557 558 2 1.0280000002004523e+00 5.8348206445824275e+01 1.0000000000000000e+00 5.4013820668018155e+00 1.4066914422142329e+01 1.3988571786156820e+01 
809 810 2 1.0280000002025635e+00 5.8352813907512683e+01 1.0000000000000000e+00 5.4026325200318892e+00 1.4066234466940363e+01 1.3956977474751779e+01 
3919 3920 2 1.0279999971744229e+00 4.6627598212720375e+02 1.0000000000000000e+00 1.4948868851687228e-01 1.5071487207232952e+01 1.3791617363354016e+01 
216 217 2 1.0280000006419403e+00 2.7813211568903007e+03 1.0000000000000000e+00 8.5330134198959284e-01 1.7352891345423387e+01 1.3672492843597631e+01 
2989 2990 2 1.0280000005192766e+00 -3.7956905408139537e+03 1.0000000000000000e+00 8.7861506732601025e-01 1.7381822997343505e+01 1.3654579259962206e+01 
3453 3454 2 1.0280000003717007e+00 2.0522038701284855e+03 1.0000000000000000e+00 9.0623716381019925e-01 1.7407472619454147e+01 1.3633822608927765e+01 
689 690 2 1.0280000001647456e+00 1.6216356033353727e+03 1.0000000000000000e+00 1.4495842083970245e+00 1.5025214008964705e+01 1.4295237179239614e+01 
4002 4003 2 1.0279999998674201e+00 5.8838558184605354e+03 1.0000000000000000e+00 2.4078890734444878e+00 1.5659322894479349e+01 1.3426412994977408e+01 
3834 3835 2 1.0279999999108211e+00 5.8839430984449373e+03 1.0000000000000000e+00 2.4194310517614723e+00 1.5693021200973645e+01 1.4407718632296376e+01 
3451 3452 2 1.0279999999835583e+00 5.3121905273184639e+03 1.0000000000000000e+00 3.3349947464705831e+00 1.7378338072989735e+01 1.3753243492610155e+01 
1600 1601 2 1.0279999998573635e+00 9.2537837044704793e+03 1.0000000000000000e+00 3.3625075185904127e+00 1.7171647348477485e+01 1.3915258365850267e+01 
687 688 2 1.0279999991427731e+00 -5.1746132239243286e+02 1.0000000000000000e+00 4.5285249769981055e+00 1.5014740474075856e+01 1.3950716087253237e+01 
1143 1144 2 1.0279999995815490e+00 2.0517220976920989e+03 1.0000000000000000e+00 1.3201105371274611e+00 1.9680043945868110e+01 1.3590197111023786e+01 
1603 1604 2 1.0279999996191078e+00 -3.7962660745177482e+03 1.0000000000000000e+00 1.3913682869217634e+00 1.9800347969411554e+01 1.3653038613627929e+01 
4374 4375 2 1.0280000001110297e+00 2.7806953837227566e+03 1.0000000000000000e+00 1.4133550259070713e+00 1.9944231129450891e+01 1.3719889307349536e+01 
2986 2987 2 1.0279999999009233e+00 9.2550635853453095e+03 1.0000000000000000e+00 3.6384840480010912e+00 1.9807939718876334e+01 1.4066774504729292e+01 
1141 1142 2 1.0279999999183456e+00 5.3131540936087295e+03 1.0000000000000000e+00 3.7063292791087634e+00 1.9738341878939455e+01 1.4047893623655041e+01 
2065 2066 2 1.0280000001195349e+00 -2.2885664525098801e+02 1.0000000000000000e+00 3.7318527122559710e+00 1.8027987549968689e+01 1.3923592004590935e+01 
2527 2528 2 1.0280000000593870e+00 -2.2919142055091487e+02 1.0000000000000000e+00 3.9497733499066143e+00 1.9340383921444158e+01 1.3998432708458100e+01 
2654 2655 2 1.0280000000701131e+00 -1.6023301783702150e+03 1.0000000000000000e+00 1.3170839721885430e+00 1.7468856199304422e+01 2.7489655957710472e+01 
2612 2613 2 1.0279999996571194e+00 -4.2105299420064339e+03 1.0000000000000000e+00 5.4396070416732456e-01 1.9013340394881443e+01 2.6610715444684054e+01 
2150 2151 2 1.0279999996693818e+00 -4.2109890870048057e+03 1.0000000000000000e+00 5.5481901893147545e-01 1.8895582309247875e+01 2.6621523032022058e+01 
385 386 2 1.0280000000896472e+00 -1.2260577853011850e+03 1.0000000000000000e+00 1.3506599071843732e+00 1.7451857070495294e+01 2.7533586763897286e+01 
1270 1271 2 1.0280000006069421e+00 -1.9931116873595258e+03 1.0000000000000000e+00 1.3003651418592291e-01 1.7077377380080822e+01 2.8123867026030617e+01 
1649 1650 2 1.0280000004831173e+00 -3.2673385784577886e+02 1.0000000000000000e+00 1.2424751320726224e+00 1.6246401496645422e+01 2.9960979928867008e+01 
1355 1356 2 1.0280000000009679e+00 -2.3621780669019545e+03 1.0000000000000000e+00 2.5114498602292588e+00 1.6653389555930925e+01 2.9773285215888002e+01 
1437 1438 2 1.0280000000856921e+00 3.5376882593392969e+02 1.0000000000000000e+00 2.5870280377152959e+00 1.7263326673803572e+01 2.9590378944265982e+01 
4589 4590 2 1.0280000001374960e+00 -8.9555739597172317e+02 1.0000000000000000e+00 2.0540568148639449e+00 1.9321609578795645e+01 2.8421885478030529e+01 
431 432 2 1.0280000001016032e+00 -8.9594842011001197e+02 1.0000000000000000e+00 2.0905921714871036e+00 1.8530329887697974e+01 2.8370795463838956e+01 
717 718 2 1.0279999998832579e+00 -1.6726964869761546e+03 1.0000000000000000e+00 1.0141955394370468e-02 5.9201380195008568e-01 3.1451140488199922e+01 
804 805 2 1.0279999999151366e+00 9.0088362432934036e+02 1.0000000000000000e+00 4.5660373963025480e-01 6.4651390162507594e-01 3.1516067471975099e+01 
2363 2364 2 1.0280000000009311e+00 -1.4825632742941530e+03 1.0000000000000000e+00 1.5075400075752419e+00 3.6517382052960441e+00 3.2311484827975598e+01 
3957 3958 2 1.0280000000023592e+00 -7.4571121831865526e+02 1.0000000000000000e+00 1.3364047481361894e+00 7.6840572145161943e+00 3.2191561513233708e+01 
3873 3874 2 1.0280000000047671e+00 -7.4588437819345700e+02 1.0000000000000000e+00 1.3585436038126975e+00 7.6954670135228209e+00 3.2477988226921461e+01 
54 55 2 1.0280000000080161e+00 2.5654059549517302e+02 1.0000000000000000e+00 1.9872900773508324e+00 8.8613853339736153e+00 3.2276553156467656e+01 
390 391 2 1.0280000000080036e+00 2.5643674212313215e+02 1.0000000000000000e+00 1.9873663766570326e+00 8.8613705071768827e+00 3.2277921991651937e+01 
2477 2478 2 1.0280000001092022e+00 4.5863177572499526e+03 1.0000000000000000e+00 5.2656063630273928e-03 1.0276188019165209e+01 3.1560484646666435e+01 
3034 3035 2 1.0280000000058882e+00 -4.4728620179208292e+01 1.0000000000000000e+00 7.5601004615236411e-01 1.2257133810167906e+01 3.1546976854984855e+01 
1731 1732 2 1.0280000000247902e+00 1.0833676662884766e+03 1.0000000000000000e+00 1.1739804621548298e+00 1.0900587441774340e+01 3.1877143906880352e+01 
890 891 2 1.0280000003490644e+00 9.0621864788304975e+01 1.0000000000000000e+00 3.7344512692467369e-01 1.3206277261122677e+01 3.1823134745775320e+01 
1732 1733 2 1.0280000000324776e+00 -6.2491562730142164e+02 1.0000000000000000e+00 2.6598278498401715e+00 1.3950176246816126e+01 3.1394960748713256e+01 
719 720 2 1.0280000000215295e+00 -9.0702060968131730e+02 1.0000000000000000e+00 3.2294626953638161e+00 1.3346413925885241e+01 3.2186910901133508e+01 
635 636 2 1.0280000000216754e+00 -9.0670940385165227e+02 1.0000000000000000e+00 3.2294392128099236e+00 1.3346404014053446e+01 3.2189294075887261e+01 
1440 1441 2 1.0279999998908187e+00 -8.2144718592358004e+02 1.0000000000000000e+00 1.1237562926348850e+00 1.6248161227861967e+01 3.0450101312960040e+01 
2151 2152 2 1.0280000007545762e+00 -5.2928008057076058e+03 1.0000000000000000e+00 2.4345870856072520e+00 1.5091710959057183e+01 3.1943943538250196e+01 
1983 1984 2 1.0279999992921327e+00 -5.2920161850670920e+03 1.0000000000000000e+00 2.4852035630294491e+00 1.5110932602628770e+01 3.2381752021071414e+01 
2785 2786 2 1.0280000002286678e+00 1.7375466293404014e+02 1.0000000000000000e+00 3.1868467530595384e+00 1.7137364961996614e+01 3.1116069944733997e+01 
1691 1692 2 1.0279999998951799e+00 4.6373361545253442e+02 1.0000000000000000e+00 1.2019381516156800e+00 1.7651770609053223e+01 3.0019390768547986e+01 
4545 4546 2 1.0279999998140192e+00 -8.6189411739608113e+02 1.0000000000000000e+00 1.2161871334598919e+00 1.9936648164451082e+01 3.1896349530042560e+01 
4209 4210 2 1.0279999996205356e+00 -8.6171988340708276e+02 1.0000000000000000e+00 1.2246943878467182e+00 1.9938585445577115e+01 3.1776504468637054e+01 
387 388 2 1.0280000000238458e+00 -8.6208328671038907e+02 1.0000000000000000e+00 1.3306721545668903e+00 1.7977500980608689e+01 3.2142306359185739e+01 
51 52 2 1.0279999997937730e+00 -8.6189021995177427e+02 1.0000000000000000e+00 1.3498253546587846e+00 1.7960484331577931e+01 3.1999127383511869e+01 
2702 2703 2 1.0280000000959391e+00 -3.5921584245171744e+03 1.0000000000000000e+00 3.4233928412657115e+00 1.7666341327812063e+01 3.1963363006030491e+01 
2366 2367 2 1.0279999999910601e+00 -3.5921691693197017e+03 1.0000000000000000e+00 3.4538804495258595e+00 1.7691054112691567e+01 3.2344734359718238e+01 
633 634 2 1.0279999998844802e+00 -1.6727044077849564e+03 1.0000000000000000e+00 1.4378628768027184e-02 6.0249010964696070e-01 3.3980025908119138e+01 
552 553 2 1.0279999999134362e+00 9.0088703062950344e+02 1.0000000000000000e+00 4.6100404633085756e-01 6.5674322525210027e-01 3.3915231580962441e+01 
2698 2699 2 1.0280000000789482e+00 -2.3715244363230413e+03 1.0000000000000000e+00 5.4136214110021763e-01 1.8165332317606588e+00 3.2707914346004777e+01 
2362 2363 2 1.0280000000789145e+00 -2.3715258667924154e+03 1.0000000000000000e+00 5.4138803881553166e-01 1.8164424730508772e+00 3.2706185617323932e+01 
2699 2700 2 1.0280000000112577e+00 -1.4826391314653629e+03 1.0000000000000000e+00 1.5126171131537585e+00 3.6419086556150178e+00 3.3207748406210754e+01 
2361 2362 2 1.0279999999803091e+00 -1.7708935924973507e+03 1.0000000000000000e+00 1.5333283993409581e+00 4.1075738426245998e+00 3.2619045190514768e+01 
2697 2698 2 1.0279999999854041e+00 -1.7710183186811014e+03 1.0000000000000000e+00 1.5337243740135986e+00 4.0978764142490975e+00 3.2931089570204541e+01 
2950 2951 2 1.0279999999105227e+00 -4.4499255532894210e+01 1.0000000000000000e+00 7.3573095335715299e-01 1.2253735861180171e+01 3.3009606577089912e+01 
1479 1480 2 1.0279999999807288e+00 1.0834359828933170e+03 1.0000000000000000e+00 1.1527888228198941e+00 1.0794824954328440e+01 3.2760925474794981e+01 
470 471 2 1.0279999998830465e+00 9.0330370234258652e+01 1.0000000000000000e+00 3.8033347437252119e-01 1.3147377304774924e+01 3.2712439258531184e+01 
1480 1481 2 1.0279999999438780e+00 -6.2420729107941474e+02 1.0000000000000000e+00 2.6677971769232975e+00 1.3886209755837978e+01 3.2963527884307858e+01 
1776 1777 2 1.0279999999983476e+00 -8.2168056539799159e+02 1.0000000000000000e+00 1.0789835924707989e+00 1.6258712628251658e+01 3.3794412525529921e+01 
1565 1566 2 1.0279999999770018e+00 -3.2695103717330119e+02 1.0000000000000000e+00 1.1972678313212959e+00 1.6185738229487729e+01 3.4266717194602343e+01 
1773 1774 2 1.0279999999345684e+00 3.5361960248304968e+02 1.0000000000000000e+00 2.5442570473367572e+00 1.7439404026086262e+01 3.4560934481270124e+01 
935 936 2 1.0279999999657550e+00 -2.3622743710836312e+03 1.0000000000000000e+00 2.5716807875835617e+00 1.6791628952482554e+01 3.4444295605487078e+01 
3205 3206 2 1.0279999998721812e+00 1.7367990777887184e+02 1.0000000000000000e+00 3.2859096381608492e+00 1.7167262384899281e+01 3.3199301083857250e+01 
1523 1524 2 1.0280000002216680e+00 4.6369863371431472e+02 1.0000000000000000e+00 1.2618142013559628e+00 1.7791843137843337e+01 3.3739106162133297e+01 
2402 2403 2 1.0279999999747691e+00 -1.6018381932955913e+03 1.0000000000000000e+00 1.3514676765073277e+00 1.7797226137703067e+01 3.6071139741481190e+01 
49 50 2 1.0279999999543084e+00 -1.2252559101043403e+03 1.0000000000000000e+00 1.4548865858402629e+00 1.7797088640333964e+01 3.5925600894304793e+01 
1982 1983 2 1.0279999999792175e+00 -4.2102434050300744e+03 1.0000000000000000e+00 9.3298995837309329e-01 1.9044251332299499e+01 3.7857405774005549e+01 
4169 4170 2 1.0280000000230518e+00 -8.9588294315117219e+02 1.0000000000000000e+00 1.8906978412767388e+00 1.9421641442984320e+01 3.7608709173965792e+01 
11 12 2 1.0280000000222513e+00 -8.9623364047473137e+02 1.0000000000000000e+00 1.9417512233079826e+00 1.8719407033038316e+01 3.7599893916627558e+01 
2444 2445 2 1.0279999999799061e+00 -4.2097869270075935e+03 1.0000000000000000e+00 9.3121095434251711e-01 1.9093040275996842e+01 3.7852651610577873e+01 
768 769 2 1.0279999989259345e+00 5.8851979021580009e+03 1.0000000000000000e+00 1.1847007359818487e-01 2.2030600498731157e+01 1.3945097736536242e+01 
600 601 2 1.0279999988657751e+00 5.8849952102945290e+03 1.0000000000000000e+00 2.5309002403794639e-01 2.1684792382110587e+01 1.4554827587439386e+01 
3923 3924 2 1.0280000024187970e+00 1.6209982907105282e+03 1.0000000000000000e+00 1.7819520590162823e+00 2.2092997855689930e+01 1.4387045248721288e+01 
4377 4378 2 1.0279999989118507e+00 -1.8287220927637291e+03 1.0000000000000000e+00 2.5073210993380690e+00 2.2357989807284785e+01 1.4698304172343009e+01 
3921 3922 2 1.0279999995839249e+00 -5.1709598664395139e+02 1.0000000000000000e+00 3.5581813753662117e+00 2.1815738220984450e+01 1.4317254819577014e+01 
225 226 2 1.0279999993226201e+00 9.8877274791193759e+02 1.0000000000000000e+00 1.1588987942469984e+00 2.3114732280665631e+01 1.4313761776800407e+01 
3542 3543 2 1.0279999999698370e+00 -9.4197730274273601e+02 1.0000000000000000e+00 2.3585964700291786e+00 2.4653836934399951e+01 1.4525333631930275e+01 
3374 3375 2 1.0279999999698266e+00 -9.4197430902522149e+02 1.0000000000000000e+00 2.3585950153622295e+00 2.4653843160507083e+01 1.4525409679846861e+01 
3917 3918 2 1.0280000004042025e+00 1.3095425885117170e+03 1.0000000000000000e+00 4.3459082722824469e+00 2.2987639089992680e+01 1.4400328700647552e+01 
4043 4044 2 1.0280000003743326e+00 5.8236428550756060e+01 1.0000000000000000e+00 4.3533924577841727e+00 2.2969367471308551e+01 1.4397469779878231e+01 
3791 3792 2 1.0280000003743823e+00 5.8234597405383809e+01 1.0000000000000000e+00 4.3535644582945121e+00 2.2969448656774379e+01 1.4402368681399366e+01 
4049 4050 2 1.0280000010253791e+00 -6.2144230565979660e+02 1.0000000000000000e+00 1.5606879206955944e+00 2.5445565433011804e+01 1.4604767171001743e+01 
3797 3798 2 1.0280000010161949e+00 -6.2144582701405022e+02 1.0000000000000000e+00 1.5615957248268331e+00 2.5446237576694603e+01 1.4586736493075231e+01 
3504 3505 2 1.0280000000439149e+00 2.6520776478713979e+03 1.0000000000000000e+00 8.3979093348617495e-01 3.7452442064361676e+01 1.4273522561997410e+01 
3420 3421 2 1.0279999999783509e+00 2.6523508880984427e+03 1.0000000000000000e+00 8.2549499513563906e-01 3.7495094740279924e+01 1.3121421070091341e+01 
2919 2920 2 1.0280000000719693e+00 5.9076360437486954e+01 1.0000000000000000e+00 1.3873299348775823e+00 3.7903028891140927e+01 1.3249173227781737e+01 
3087 3088 2 1.0280000000672447e+00 5.8916065796890308e+01 1.0000000000000000e+00 1.4028506656064743e+00 3.7898453381939063e+01 1.4119798209187310e+01 
3927 3928 2 1.0279999998832350e+00 -1.8944834991731723e+03 1.0000000000000000e+00 5.2753964115094365e-01 3.8769705230837005e+01 1.3671537618555602e+01 
2192 2193 2 1.0280000000505949e+00 -1.6021345775630821e+03 1.0000000000000000e+00 1.3400302398684287e+00 2.0384950941829093e+01 2.7252507162973188e+01 
4543 4544 2 1.0280000000927250e+00 -1.2259945688274406e+03 1.0000000000000000e+00 1.3805375271503828e+00 2.0401293518351668e+01 2.7317384651034399e+01 
3580 3581 2 1.0280000010262438e+00 -1.9933421593888086e+03 1.0000000000000000e+00 1.7169875266337467e-01 2.0727797570025732e+01 2.7711706178969479e+01 
3077 3078 2 1.0280000000846523e+00 4.6395473867280521e+02 1.0000000000000000e+00 1.1229061465982764e+00 2.0231963256179913e+01 2.9995584283569528e+01 
3035 3036 2 1.0280000005135264e+00 -3.2671285305899147e+02 1.0000000000000000e+00 1.3064943554757920e+00 2.1578169015988298e+01 2.9837810415822787e+01 
3665 3666 2 1.0279999999213016e+00 -2.3622002971376478e+03 1.0000000000000000e+00 2.5472044812483730e+00 2.1183873591086375e+01 2.9701867480938386e+01 
2823 2824 2 1.0279999999534215e+00 3.5373811526101611e+02 1.0000000000000000e+00 2.6148386758825848e+00 2.0551557951375287e+01 2.9551588981493889e+01 
2826 2827 2 1.0280000001069105e+00 -8.2142058133548244e+02 1.0000000000000000e+00 1.1670479333606398e+00 2.1660298103793483e+01 3.0305991428446546e+01 
1399 1400 2 1.0280000002991883e+00 1.7373922301385420e+02 1.0000000000000000e+00 3.2165277446614415e+00 2.0730410182065025e+01 3.1026657046363233e+01 
2240 2241 2 1.0280000001907748e+00 -3.5921670779761043e+03 1.0000000000000000e+00 3.4266265769715338e+00 2.0208370841679077e+01 3.1856592990718635e+01 
1904 1905 2 1.0280000000618148e+00 -3.5921761681043126e+03 1.0000000000000000e+00 3.4642855581561247e+00 2.0179907597365016e+01 3.2225517346689564e+01 
4124 4125 2 1.0280000004192047e+00 9.0691663496539576e+01 1.0000000000000000e+00 3.1347043452206047e-01 2.4805995957381089e+01 3.1781757449674238e+01 
2613 2614 2 1.0280000005360077e+00 -5.2928187659655323e+03 1.0000000000000000e+00 2.4200743761542283e+00 2.2868333236682123e+01 3.1883899387125734e+01 
2445 2446 2 1.0279999993219557e+00 -5.2920257768881838e+03 1.0000000000000000e+00 2.4700126954361803e+00 2.2824759364770749e+01 3.2313852870594168e+01 
3118 3119 2 1.0280000000462588e+00 -6.2490873592361299e+02 1.0000000000000000e+00 2.6155507203294439e+00 2.3984347759361722e+01 3.1333608305253094e+01 
3953 3954 2 1.0280000000534619e+00 -9.0709389760349245e+02 1.0000000000000000e+00 3.2068234281369943e+00 2.4583707354865293e+01 3.2118479592560931e+01 
3869 3870 2 1.0280000000533096e+00 -9.0677225864724983e+02 1.0000000000000000e+00 3.2068006871175325e+00 2.4583718878848675e+01 3.2121101560753608e+01 
1648 1649 2 1.0279999999950828e+00 -4.4574226138961222e+01 1.0000000000000000e+00 7.1260238284785549e-01 2.5731759812615657e+01 3.1488573466525953e+01 
3117 3118 2 1.0280000000260363e+00 1.0833555935706893e+03 1.0000000000000000e+00 1.1306600180215789e+00 2.7116456481436611e+01 3.1847600963714033e+01 
2015 2016 2 1.0280000000961471e+00 4.5863170397392605e+03 1.0000000000000000e+00 1.7709636894078430e-02 2.7711266473847715e+01 3.1510968648406521e+01 
4212 4213 2 1.0280000000090423e+00 2.5659134484141231e+02 1.0000000000000000e+00 1.8855034160050630e+00 2.9342944619814862e+01 3.2200190027870626e+01 
4548 4549 2 1.0280000000090279e+00 2.5649010979464640e+02 1.0000000000000000e+00 1.8855903655568425e+00 2.9342952613366297e+01 3.2201685414972502e+01 
723 724 2 1.0280000000043978e+00 -7.4576326182398839e+02 1.0000000000000000e+00 1.2428979495067125e+00 3.0479529337029252e+01 3.2130441531173602e+01 
639 640 2 1.0280000000084957e+00 -7.4593771344535003e+02 1.0000000000000000e+00 1.2602743935516607e+00 3.0470840747429762e+01 3.2386605664420600e+01 
1901 1902 2 1.0280000000012472e+00 -1.4824667558346846e+03 1.0000000000000000e+00 1.4413426430586993e+00 3.4256331861618001e+01 3.2307768590849157e+01 
4038 4039 2 1.0279999999149774e+00 9.0088579911785610e+02 1.0000000000000000e+00 4.0879932052247919e-01 3.7250907005845391e+01 3.1520422842102690e+01 
2650 2651 2 1.0279999999890381e+00 -5.5664911509057856e+03 1.0000000000000000e+00 1.3136072553881297e+00 3.8562597289451119e+01 3.1910888561257131e+01 
2188 2189 2 1.0280000000022589e+00 -5.5664822698597263e+03 1.0000000000000000e+00 1.3274695202530786e+00 3.9342679994966701e+01 3.1906599772838199e+01 
3162 3163 2 1.0280000003107490e+00 -8.2164855986489806e+02 1.0000000000000000e+00 1.1486209057358825e+00 2.1646787493945133e+01 3.3630465877133609e+01 
2909 2910 2 1.0280000001459213e+00 4.6389984299729406e+02 1.0000000000000000e+00 1.2094753004445675e+00 2.0159250733144574e+01 3.3423093340211466e+01 
2951 2952 2 1.0280000000056293e+00 -3.2691839941171736e+02 1.0000000000000000e+00 1.2845916120248957e+00 2.1690272991503296e+01 3.4151126529960393e+01 
3159 3160 2 1.0279999998960812e+00 3.5361201111180310e+02 1.0000000000000000e+00 2.5804647141479156e+00 2.0386608586506565e+01 3.4380731349804854e+01 
3245 3246 2 1.0279999999184253e+00 -2.3622644481572452e+03 1.0000000000000000e+00 2.6545052004736407e+00 2.1017629814007769e+01 3.4305768162305860e+01 
1819 1820 2 1.0279999998651883e+00 1.7366420801358237e+02 1.0000000000000000e+00 3.3264139769796888e+00 2.0685260234469300e+01 3.3050809260575946e+01 
3704 3705 2 1.0279999999027734e+00 9.0387620016135699e+01 1.0000000000000000e+00 3.2150967753943988e-01 2.4855700776508790e+01 3.2610454277486461e+01 
2866 2867 2 1.0279999999565543e+00 -6.2420934572971214e+02 1.0000000000000000e+00 2.6232873804582830e+00 2.4047747679274117e+01 3.2893882057212572e+01 
1564 1565 2 1.0279999999019107e+00 -4.4347350441500268e+01 1.0000000000000000e+00 6.9640892372604779e-01 2.5733143326085671e+01 3.2928469816526189e+01 
2865 2866 2 1.0279999999933562e+00 1.0834128007314303e+03 1.0000000000000000e+00 1.1131370132612481e+00 2.7222255033319609e+01 3.2642104958026231e+01 
2183 2184 2 1.0279999999738065e+00 4.5865398133132421e+03 1.0000000000000000e+00 2.5767654339405223e-04 2.7709222671261191e+01 3.2999660910284888e+01 
2237 2238 2 1.0280000000073053e+00 -1.4825298758630993e+03 1.0000000000000000e+00 1.4446178365799267e+00 3.4261689766482284e+01 3.3212350252377270e+01 
1899 1900 2 1.0279999999875111e+00 -1.7708457147544136e+03 1.0000000000000000e+00 1.4458123120206587e+00 3.3790048064255608e+01 3.2618113339667531e+01 
2235 2236 2 1.0279999999816025e+00 -1.7709760940741621e+03 1.0000000000000000e+00 1.4459259736965147e+00 3.3799469647801828e+01 3.2932453909703476e+01 
3786 3787 2 1.0279999999091303e+00 9.0088975228100492e+02 1.0000000000000000e+00 4.1958880758855494e-01 3.7254825410823422e+01 3.3905045481013005e+01 
2236 2237 2 1.0280000000868770e+00 -2.3715105941675602e+03 1.0000000000000000e+00 4.6773484601215976e-01 3.6067803779901219e+01 3.2710379722783820e+01 
1900 1901 2 1.0280000000875074e+00 -2.3715113269248504e+03 1.0000000000000000e+00 4.6776018029081434e-01 3.6067888554125588e+01 3.2708649682510568e+01 
2398 2399 2 1.0279999999923590e+00 -5.5664446200899602e+03 1.0000000000000000e+00 1.3172621024873894e+00 3.8562439853149094e+01 3.3506659981408667e+01 
1936 1937 2 1.0280000000045322e+00 -5.5664415499077932e+03 1.0000000000000000e+00 1.3330375513424939e+00 3.9347439192582705e+01 3.3511206691664768e+01 
4207 4208 2 1.0280000000522929e+00 -1.2249320811374173e+03 1.0000000000000000e+00 1.4998010662783965e+00 2.0191053764245623e+01 3.5743264064679231e+01 
3328 3329 2 1.0279999992590949e+00 -1.9932333176617567e+03 1.0000000000000000e+00 2.3675794770516425e-02 2.0790405402220959e+01 3.5381986963678187e+01 
1940 1941 2 1.0280000001124496e+00 -1.6014434793454561e+03 1.0000000000000000e+00 1.3905703073231690e+00 2.0195727381823833e+01 3.5886561917908033e+01 
744 745 2 1.0280000002422041e+00 5.5932782111575591e+02 1.0000000000000000e+00 5.2956763259902019e+01 2.4566632268299933e+00 2.7595151780430044e-01 
2368 2369 2 1.0279999997857605e+00 -1.2437147035834614e+03 1.0000000000000000e+00 5.2716925746099299e+01 3.9220622713205247e+00 1.5910222150346980e+00 
727 728 2 1.0280000003899243e+00 5.4850850367667749e+02 1.0000000000000000e+00 5.2793776977725436e+01 3.0712957459957102e+00 1.3394472466330225e+00 
2051 2052 2 1.0280000000690124e+00 3.9036062107958223e+03 1.0000000000000000e+00 5.2797461070678068e+01 4.0579218169756741e+00 1.1075021931653728e+00 
181 182 2 1.0279999996007518e+00 1.5779884020668273e+03 1.0000000000000000e+00 5.0558296813916755e+01 7.4016527503171812e+00 1.2809023944388800e-01 
4338 4339 2 1.0279999998419620e+00 8.1690583114281696e+02 1.0000000000000000e+00 5.1303343759020720e+01 6.2870688195661888e+00 8.7632637298848709e-02 
1017 1018 2 1.0280000004051912e+00 -2.3441535580428254e+03 1.0000000000000000e+00 5.1938899966534613e+01 5.7981573885657491e+00 3.9707275756169158e-01 
450 451 2 1.0280000009531625e+00 3.0987531399330146e+03 1.0000000000000000e+00 5.3351259980226104e+01 6.9169545907821792e+00 1.1775051836217900e+00 
4357 4358 2 1.0279999998991396e+00 8.1223372109655133e+02 1.0000000000000000e+00 5.3868142826800742e+01 6.7735672475643653e+00 1.1403248264326493e+00 
786 787 2 1.0279999999409444e+00 2.6232876603928080e+03 1.0000000000000000e+00 5.4105771738410681e+01 6.9527697997556528e+00 2.0492094238046326e+00 
135 136 2 1.0280000008354282e+00 1.4933626163504259e+03 1.0000000000000000e+00 5.0705478225078643e+01 8.6653858638332633e+00 5.7355758878855256e-01 
430 431 2 1.0280000008411068e+00 1.9263727444100482e+03 1.0000000000000000e+00 5.1159303561966723e+01 9.0646233269902670e+00 1.7069024882290869e+00 
1024 1025 2 1.0279999994562909e+00 -2.9474402131466959e+03 1.0000000000000000e+00 5.1659995200885234e+01 8.1363092898525977e+00 2.4229698923040539e+00 
1788 1789 2 1.0279999974025422e+00 -6.0721729796554280e+02 1.0000000000000000e+00 5.2870276623599359e+01 9.9894441748483640e+00 9.3226977025871893e-01 
453 454 2 1.0280000012940569e+00 1.9225644925660308e+03 1.0000000000000000e+00 5.4206307474576356e+01 9.8599062440780738e+00 1.5140288209300714e+00 
160 161 2 1.0279999994464246e+00 1.4911171839441556e+03 1.0000000000000000e+00 5.4684159397146068e+01 8.7785578081385385e+00 5.1488251645558269e-01 
474 475 2 1.0280000001074356e+00 1.0002083051420520e+03 1.0000000000000000e+00 5.1121637930131953e+01 1.1335943195705095e+01 1.6474618952402074e+00 
2202 2203 2 1.0279999996026961e+00 -3.9563405254493377e+03 1.0000000000000000e+00 5.1317409500661007e+01 1.1840036103990151e+01 2.0298968672915705e+00 
1944 1945 2 1.0280000001207898e+00 -2.1879836375861328e+03 1.0000000000000000e+00 5.1503173395654343e+01 1.1412611982718873e+01 1.4509688453431018e+00 
1783 1784 2 1.0279999995633926e+00 -6.0791931565251434e+02 1.0000000000000000e+00 5.2407863967430075e+01 1.0141962218704442e+01 9.3798636382727507e-01 
493 494 2 1.0280000007126591e+00 1.0037724228901516e+03 1.0000000000000000e+00 5.4558497338473508e+01 1.0619905625544696e+01 6.6419444319272181e-01 
2209 2210 2 1.0280000009451518e+00 -3.9605044168063896e+03 1.0000000000000000e+00 5.4770705300779326e+01 1.2110625084884328e+01 2.4352145900614621e+00 
2378 2379 2 1.0280000001109946e+00 -5.0075440684359194e+02 1.0000000000000000e+00 5.4202133117496039e+01 1.3046101764447839e+01 2.4051188891752102e+00 
1405 1406 2 1.0280000001284557e+00 9.0295445932579611e+01 1.0000000000000000e+00 5.0299976262678065e+01 1.6021351632067020e+01 1.8507923198786465e+00 
972 973 2 1.0280000000617819e+00 2.5215846599953093e+03 1.0000000000000000e+00 5.0308718071991962e+01 1.6007537670909660e+01 1.8200146630323812e+00 
2038 2039 2 1.0280000008995953e+00 3.6001047739875339e+03 1.0000000000000000e+00 5.0415101959182465e+01 1.6347137517347576e+01 2.1784876746006634e+00 
2365 2366 2 1.0279999991579594e+00 -1.6225435758328163e+03 1.0000000000000000e+00 5.1337485824544515e+01 1.6242842237653370e+01 1.3974875299253204e+00 
2382 2383 2 1.0280000002986969e+00 -1.6202172424094083e+03 1.0000000000000000e+00 5.4947516314049977e+01 1.5945513718271529e+01 5.6374250171427331e-01 
2037 2038 2 1.0280000006726726e+00 3.6014252408396528e+03 1.0000000000000000e+00 5.5476635952280894e+01 1.5384726542566174e+01 1.3535256364032164e+00 
1033 1034 2 1.0280000001860661e+00 -4.3189446566385141e+03 1.0000000000000000e+00 5.5580821960776134e+01 1.5321991291858193e+01 2.4690690318370465e+00 
1858 1859 2 1.0280000001997247e+00 -6.2403585258231692e+02 1.0000000000000000e+00 5.2185673824733442e+01 1.8543820607438818e+01 1.4939043460100063e+00 
2320 2321 2 1.0280000001964924e+00 -6.2432665358235613e+02 1.0000000000000000e+00 5.2190244740651188e+01 1.9361983119119913e+01 1.5779267541908359e+00 
2800 2801 2 1.0279999997351068e+00 -1.3399862576502578e+03 1.0000000000000000e+00 5.3331252781088963e+01 1.9747144082921064e+01 3.4662046013187148e-02 
2343 2344 2 1.0280000005164058e+00 -6.2539151127138439e+02 1.0000000000000000e+00 5.3938488708735221e+01 1.9325111217591839e+01 1.9000565985279549e+00 
1881 1882 2 1.0280000003235175e+00 -6.2508422502953340e+02 1.0000000000000000e+00 5.3946266389236001e+01 1.8659630874876232e+01 1.8400309709501472e+00 
862 863 2 1.0280000002843359e+00 2.5727461524036244e+03 1.0000000000000000e+00 5.3278483748440401e+01 1.4095296137240276e-01 4.8606413755056996e+00 
1292 1293 2 1.0280000002103638e+00 -3.7649833745638516e+03 1.0000000000000000e+00 5.3371224827358141e+01 2.0824205711537274e+00 4.3180643050779581e+00 
4317 4318 2 1.0280000001088672e+00 6.3617103415850602e+00 1.0000000000000000e+00 5.4535082648997701e+01 6.0648719264220674e-01 4.8192285229841962e+00 
3810 3811 2 1.0280000000145286e+00 3.0537327758307492e+02 1.0000000000000000e+00 5.4720471411789511e+01 9.3719669557254714e-01 4.8964737511209853e+00 