LAMMPS data file via write_data, version 30 Jul 2016, timestep = 50400000

180 atoms
2 atom types

0.0000000000000000e+00 2.0000000000000000e+01 xlo xhi
0.0000000000000000e+00 2.0000000000000000e+01 ylo yhi
0.0000000000000000e+00 2.0000000000000000e+01 zlo zhi

Masses

1 3.896
2 4.31

Atoms # meso-molecular

164 1 2 1.0279999999998795e+00 -1.0197466467731417e+02 1.0000000000000000e+00 9.3196571702540990e-02 8.7228024859262412e+00 7.6021632585530572e+00 
140 1 2 1.0280000000001253e+00 9.1567107576844052e+01 1.0000000000000000e+00 9.4474234500276283e-02 8.4655176081527568e+00 7.9932385157041788e+00 
21 1 2 1.0279999999998410e+00 -6.1604654051618031e+00 1.0000000000000000e+00 1.4879224337478558e-01 8.7657994856085661e+00 7.7528584132951845e+00 
67 1 2 1.0279999999998932e+00 -8.8985612750938543e+01 1.0000000000000000e+00 1.2219175293437780e-01 8.6789307743151412e+00 7.6064598769101330e+00 
139 1 2 1.0279999999998661e+00 -1.1472227594188904e+01 1.0000000000000000e+00 1.3560045403634927e-01 8.7484007667442416e+00 7.6918037219868962e+00 
62 1 2 1.0280000000000280e+00 1.9753494769295591e+02 1.0000000000000000e+00 1.1667895997718774e+00 8.4320067877516873e+00 9.3873696496869634e+00 
172 1 2 1.0280000000000034e+00 -7.9397999346969073e+01 1.0000000000000000e+00 8.6920416115950627e-01 8.4624772838594691e+00 9.0975544564311832e+00 
2 1 2 1.0280000000001077e+00 -3.3367142422996181e+02 1.0000000000000000e+00 4.7848298515717375e-01 8.6932498445266866e+00 8.4864895960352058e+00 
120 1 2 1.0280000000000129e+00 9.0566636582936880e+01 1.0000000000000000e+00 7.2996135846861332e-01 8.4100765702339064e+00 8.9476273936952371e+00 
41 1 2 1.0280000000000558e+00 1.6378890048387120e+00 1.0000000000000000e+00 7.5280395234670427e-01 8.2238502260015345e+00 8.7884009783134616e+00 
135 1 2 1.0279999999998621e+00 4.4193284104562935e+01 1.0000000000000000e+00 1.0575804153108777e-01 8.7529677587041821e+00 7.6605251029407002e+00 
163 1 2 1.0280000000000227e+00 -1.0735869030083171e+02 1.0000000000000000e+00 5.1134319463746458e-01 8.5413133286044367e+00 8.6647921341508436e+00 
167 1 2 1.0279999999999281e+00 -7.1164759989652254e+01 1.0000000000000000e+00 1.6150352755482154e+00 8.2347526389370884e+00 9.7962310363175451e+00 
1 1 2 1.0279999999999512e+00 -1.8025717361044843e+02 1.0000000000000000e+00 1.1723805849391544e+00 8.4707654413253781e+00 9.3685087628417261e+00 
101 1 2 1.0279999999998284e+00 1.8910597440673752e+02 1.0000000000000000e+00 6.4572698816404728e-01 8.7435478171058847e+00 8.4641463099544847e+00 
174 1 2 1.0280000000000016e+00 -4.2489138082597293e+01 1.0000000000000000e+00 7.6870521317460039e-01 8.4257935887152833e+00 8.9942862376824610e+00 
49 1 2 1.0279999999999192e+00 1.5561142199933164e+02 1.0000000000000000e+00 4.7024255333619702e-01 8.4134182030773434e+00 8.0146813358574907e+00 
4 1 2 1.0280000000000229e+00 -1.6665773332739661e+02 1.0000000000000000e+00 7.4077018890532864e-01 8.3246133912523348e+00 8.9265741828525496e+00 
121 1 2 1.0279999999997573e+00 2.1748692525966604e+01 1.0000000000000000e+00 1.0540822532096181e-02 8.7913128928926803e+00 7.6238831999694536e+00 
180 1 2 1.0280000000000329e+00 3.5000576746178815e+01 1.0000000000000000e+00 2.6401303750218172e+00 7.9029576591939721e+00 1.0774497778245001e+01 
16 1 2 1.0279999999999514e+00 -2.0878949309320922e+02 1.0000000000000000e+00 4.9932875318601457e+00 8.5128471332967148e+00 1.2344813572212255e+01 
50 1 2 1.0280000000000276e+00 1.1738874445468014e+02 1.0000000000000000e+00 3.3485604288958366e+00 7.7413836639561202e+00 1.1555565410495905e+01 
12 1 2 1.0280000000000058e+00 -7.5272986560693454e+01 1.0000000000000000e+00 2.5336875698258430e+00 7.9583436300530437e+00 1.0678565440406757e+01 
118 1 2 1.0279999999999094e+00 1.2220177674858618e+01 1.0000000000000000e+00 2.3870994383894897e+00 7.9953850185060231e+00 1.0495906141227522e+01 
48 1 2 1.0279999999999621e+00 1.0973470936875719e+02 1.0000000000000000e+00 2.4865917492084946e+00 7.9606094751761018e+00 1.0606651423756116e+01 
39 1 2 1.0280000000000209e+00 4.9460811309192692e+01 1.0000000000000000e+00 2.5099250513883549e+00 7.9497480135893381e+00 1.0628983107387540e+01 
76 1 2 1.0279999999999705e+00 1.1037797177596055e+02 1.0000000000000000e+00 2.3533588954052655e+00 8.0011451516175267e+00 1.0450587413776010e+01 
157 1 2 1.0280000000000316e+00 -1.4350412242611264e+02 1.0000000000000000e+00 2.5202851879276977e+00 7.9350964485011817e+00 1.0622265633425178e+01 
176 1 2 1.0280000000000447e+00 -1.1802804403795830e+02 1.0000000000000000e+00 3.0303968598748114e+00 7.8423829060244623e+00 1.1267560887498167e+01 
127 1 2 1.0279999999999332e+00 3.5074790782427698e+01 1.0000000000000000e+00 2.6003331729540671e+00 8.0000942499178400e+00 1.0807465290672640e+01 
175 1 2 1.0280000000000298e+00 -2.5341068907892540e+02 1.0000000000000000e+00 2.7834036627401293e+00 7.8348204265503956e+00 1.0902938194144841e+01 
158 1 2 1.0280000000000435e+00 -4.7741383271552991e+01 1.0000000000000000e+00 2.8147225059747378e+00 7.8324880102082615e+00 1.0952124587926333e+01 
170 1 2 1.0280000000000404e+00 4.2425034069753220e+00 1.0000000000000000e+00 3.0998410827353227e+00 7.7972563430668576e+00 1.1315527345622533e+01 
74 1 2 1.0280000000000349e+00 1.9599941427990025e+01 1.0000000000000000e+00 2.7982280090644966e+00 7.8560972211111677e+00 1.0961173699232242e+01 
166 1 2 1.0280000000000278e+00 1.1775064463886306e+02 1.0000000000000000e+00 2.5608037588913399e+00 7.9390571887555934e+00 1.0696863136676377e+01 
117 1 2 1.0280000000000289e+00 8.0955035878672362e+01 1.0000000000000000e+00 3.0600845081721859e+00 7.8227707568858031e+00 1.1288623987875836e+01 
37 1 2 1.0280000000000373e+00 9.2417389302312728e+01 1.0000000000000000e+00 3.2295431870737916e+00 7.7389981727233588e+00 1.1416897866000593e+01 
88 1 2 1.0280000000000045e+00 8.4349296931626043e+01 1.0000000000000000e+00 3.9578100747135601e+00 7.5798506896530782e+00 1.1959986010062858e+01 
45 1 2 1.0280000000000054e+00 1.3182047901728927e+02 1.0000000000000000e+00 4.7692784235819872e+00 7.4323411344772454e+00 1.2237083348682978e+01 
54 1 2 1.0280000000000458e+00 1.8681587315562961e+01 1.0000000000000000e+00 3.0903983656641105e+00 7.8571705894683532e+00 1.1350294507424897e+01 
142 1 2 1.0280000000000267e+00 -5.0635937337067702e+01 1.0000000000000000e+00 3.7850244448251926e+00 7.7063087148832876e+00 1.1929976688113218e+01 
27 1 2 1.0280000000000498e+00 -4.0844620884576109e+01 1.0000000000000000e+00 3.3591775414298377e+00 7.8607039499985580e+00 1.1638352905670748e+01 
66 1 2 1.0280000000000158e+00 1.4632935863406982e+02 1.0000000000000000e+00 3.9660577793258978e+00 7.6700620321668938e+00 1.2037348892459393e+01 
43 1 2 1.0280000000000196e+00 6.0002670716222283e+01 1.0000000000000000e+00 4.5550628356880392e+00 7.6397272335130113e+00 1.2325801509661824e+01 
104 1 2 1.0280000000000478e+00 8.9582939456196840e+01 1.0000000000000000e+00 4.0184445554459076e+00 7.8372397502871562e+00 1.2143771140455618e+01 
5 1 2 1.0280000000000213e+00 2.8986174011576328e+01 1.0000000000000000e+00 4.6434925815838035e+00 7.7326613805910709e+00 1.2400712541118832e+01 
141 1 2 1.0279999999999838e+00 -1.7258550097499374e+01 1.0000000000000000e+00 4.4889604921049422e+00 7.7679675352001452e+00 1.2356740455813332e+01 
90 1 2 1.0279999999999851e+00 -6.0870737547059385e+01 1.0000000000000000e+00 4.7527795001136051e+00 7.7647885260122935e+00 1.2446240952113113e+01 
136 1 2 1.0280000000000584e+00 1.3108367893030120e+02 1.0000000000000000e+00 4.5917701477868027e+00 8.0036871450089961e+00 1.2429365400128583e+01 
15 1 2 1.0280000000000515e+00 -1.6232376538641893e+02 1.0000000000000000e+00 5.8621322866359185e+00 7.9779094700788349e+00 1.2616937398816306e+01 
107 1 2 1.0279999999999829e+00 -2.3975825001473510e+01 1.0000000000000000e+00 6.2541434131374514e+00 7.9904093182679743e+00 1.2585791207497124e+01 
132 1 2 1.0279999999999569e+00 -7.2423041825671589e+01 1.0000000000000000e+00 5.0802688690259465e+00 8.0973214988822111e+00 1.2552795388112184e+01 
22 1 2 1.0280000000000518e+00 -1.5864158356464679e+02 1.0000000000000000e+00 6.1624359923496543e+00 8.0185458840373993e+00 1.2597743054200187e+01 
137 1 2 1.0280000000000522e+00 2.2199228500165782e+02 1.0000000000000000e+00 6.0904833288027218e+00 8.0660970488681212e+00 1.2604052224176513e+01 
86 1 2 1.0279999999999485e+00 1.2273621093386464e+02 1.0000000000000000e+00 5.6849021657458829e+00 8.1160422066244031e+00 1.2613143402361764e+01 
177 1 2 1.0279999999999521e+00 -2.4622702884177377e+02 1.0000000000000000e+00 5.7315929193659709e+00 8.2502126787794623e+00 1.2586040047159848e+01 
75 1 2 1.0279999999999621e+00 2.8674945231928124e+01 1.0000000000000000e+00 5.5702698593521580e+00 8.2702368423402906e+00 1.2573661603462204e+01 
69 1 2 1.0279999999999556e+00 -3.6034828183696405e+01 1.0000000000000000e+00 6.0804993596608110e+00 8.2529781108411111e+00 1.2574643110552794e+01 
162 1 2 1.0279999999999645e+00 -1.5119086483567560e+02 1.0000000000000000e+00 6.2029451736209866e+00 8.3280337262465167e+00 1.2538523562074163e+01 
122 1 2 1.0279999999999014e+00 8.1299219787861361e+01 1.0000000000000000e+00 1.0936933363948386e+01 8.6596792635925457e+00 9.0514573343763995e+00 
71 1 2 1.0280000000000165e+00 -8.1394112860407176e+01 1.0000000000000000e+00 1.2990480051772428e+01 9.1588669404228789e+00 6.3850574052723932e+00 
31 1 2 1.0279999999998091e+00 2.0636499332792471e+02 1.0000000000000000e+00 1.2407414007862929e+01 8.8389932318579181e+00 7.1896327879083310e+00 
34 1 2 1.0280000000001484e+00 -1.9449343553002956e+02 1.0000000000000000e+00 1.2169695972720513e+01 8.8426536738740964e+00 7.3150909256913534e+00 
103 1 2 1.0279999999999698e+00 -3.8887420767448347e+01 1.0000000000000000e+00 1.3203426111554284e+01 9.1781600134494177e+00 6.0087041939931343e+00 
159 1 2 1.0280000000000011e+00 6.1952927682134828e+01 1.0000000000000000e+00 1.2420906195979549e+01 8.8620741530134719e+00 7.1466393411966562e+00 
119 1 2 1.0279999999998986e+00 -1.7636258522769417e+01 1.0000000000000000e+00 1.0652278214083296e+01 8.4292804869876736e+00 9.4124786573664885e+00 
154 1 2 1.0279999999999154e+00 -2.4832600064569611e+01 1.0000000000000000e+00 1.1582250941768411e+01 8.3605381759435211e+00 7.9994435511200361e+00 
8 1 2 1.0279999999999991e+00 -4.4367155672670023e+01 1.0000000000000000e+00 1.1636533694026266e+01 8.6544454410013358e+00 7.5833734462245754e+00 
57 1 2 1.0280000000001086e+00 6.6037070612391844e+01 1.0000000000000000e+00 1.0950832647485864e+01 8.1991902397455920e+00 8.4573159478272792e+00 
128 1 2 1.0280000000000185e+00 1.4800948273673237e+02 1.0000000000000000e+00 1.1338220463249998e+01 8.5188989830186248e+00 7.8259701766341028e+00 
36 1 2 1.0280000000000946e+00 -1.8272689704283096e+01 1.0000000000000000e+00 1.1180971430322961e+01 8.3228472513795797e+00 8.1019527927104029e+00 
59 1 2 1.0279999999999208e+00 9.8608916091023289e+01 1.0000000000000000e+00 1.2186840337696486e+01 8.8219666057642687e+00 7.2566846635163307e+00 
79 1 2 1.0280000000000771e+00 3.6676490631783338e+01 1.0000000000000000e+00 1.0165663635879936e+01 8.1372635908770086e+00 9.1968307475376037e+00 
29 1 2 1.0280000000001925e+00 -8.5967353458686574e+01 1.0000000000000000e+00 1.2479148302394027e+01 8.8808117755552765e+00 7.1014115423385507e+00 
168 1 2 1.0279999999999423e+00 -2.2340924335835413e+02 1.0000000000000000e+00 1.0094994275684693e+01 8.1432992331520531e+00 9.8102761146684294e+00 
171 1 2 1.0280000000000433e+00 -1.2777280003843406e+02 1.0000000000000000e+00 1.2954439695489915e+01 9.1383342252719721e+00 6.4179492566188712e+00 
143 1 2 1.0280000000000951e+00 7.9230158763060700e+01 1.0000000000000000e+00 1.1642461830929280e+01 8.4629522031632440e+00 7.7189821921390731e+00 
47 1 2 1.0280000000002170e+00 7.8309894389485422e+01 1.0000000000000000e+00 1.2640686135763652e+01 8.9599708222158547e+00 6.9602421039126359e+00 
32 1 2 1.0279999999999805e+00 -2.8031273515017682e+02 1.0000000000000000e+00 1.1787578386688176e+01 8.7018791789377250e+00 7.4813522415464746e+00 
65 1 2 1.0279999999999305e+00 2.5943321789157444e+01 1.0000000000000000e+00 1.0930494255634207e+01 8.4033155868390885e+00 8.2007110705847861e+00 
150 1 2 1.0279999999999978e+00 -2.9557915384995837e+01 1.0000000000000000e+00 1.3287644883396993e+01 8.9204804518859291e+00 5.8038385252298399e+00 
111 1 2 1.0279999999997425e+00 8.3547842589408319e+01 1.0000000000000000e+00 1.0381086846719914e+01 8.6228481025808854e+00 8.8268617460648784e+00 
51 1 2 1.0280000000000122e+00 6.2786119767089687e+01 1.0000000000000000e+00 1.3037394759988656e+01 9.1629561864582634e+00 6.2827781767504796e+00 
73 1 2 1.0279999999997909e+00 1.0181774793892970e+02 1.0000000000000000e+00 1.0923558447033065e+01 8.5670658146718868e+00 8.1636258617394066e+00 
95 1 2 1.0279999999999541e+00 -2.1620452652995148e+00 1.0000000000000000e+00 1.1498279780073883e+01 8.7262226496607553e+00 7.6935230701740460e+00 
60 1 2 1.0280000000000000e+00 -3.2181239154859554e+01 1.0000000000000000e+00 1.2009995381393095e+01 8.7386850548547930e+00 7.3410631879873431e+00 
64 1 2 1.0280000000002314e+00 1.3778512628439867e+02 1.0000000000000000e+00 1.2674629499809331e+01 8.9795978544242061e+00 6.9274180481090273e+00 
138 1 2 1.0280000000001481e+00 1.0143534436109803e+02 1.0000000000000000e+00 1.2702832414835790e+01 8.9993562181322027e+00 6.8911762917674242e+00 
6 1 2 1.0279999999999101e+00 -8.6216264361028038e+01 1.0000000000000000e+00 1.3023085052970986e+01 8.6131449195140952e+00 6.5919144332628177e+00 
179 1 2 1.0280000000000269e+00 -4.0294510507733690e+01 1.0000000000000000e+00 1.3220752163831335e+01 9.2913068719690646e+00 6.3815149508539841e+00 
110 1 2 1.0279999999997698e+00 1.2084245775926084e+02 1.0000000000000000e+00 1.2131385148009752e+01 8.8334906790830399e+00 7.3164100516586901e+00 
102 1 2 1.0279999999999276e+00 6.2538594908853028e+01 1.0000000000000000e+00 1.1952759025387756e+01 8.8089586153968202e+00 7.4087713771955102e+00 
14 1 2 1.0280000000000415e+00 -5.3773187249565328e+00 1.0000000000000000e+00 1.2316861227805427e+01 8.8461986581709908e+00 7.2173196408841518e+00 
169 1 2 1.0280000000000189e+00 -5.1145018161096246e+01 1.0000000000000000e+00 1.1360020210584310e+01 8.7900028675370496e+00 8.5165830802128681e+00 
98 1 2 1.0280000000000427e+00 1.4018206618823282e+02 1.0000000000000000e+00 1.2914524124993596e+01 8.9905843869372450e+00 6.3042859754589120e+00 
53 1 2 1.0279999999998142e+00 2.2408367081687921e+01 1.0000000000000000e+00 1.0457914401264416e+01 8.5079712366697358e+00 9.5520436588850792e+00 
89 1 2 1.0280000000000342e+00 3.7104673955611496e+00 1.0000000000000000e+00 8.9732877188222719e+00 7.9088307576108416e+00 1.0954928726113932e+01 
61 1 2 1.0280000000000378e+00 8.7277747599936589e+01 1.0000000000000000e+00 8.9066445884195851e+00 7.8945823822347556e+00 1.1026391335968453e+01 
130 1 2 1.0280000000000145e+00 -9.1294263708838983e+00 1.0000000000000000e+00 9.1753064495551282e+00 7.9219402220799537e+00 1.0665311703535583e+01 
112 1 2 1.0280000000000415e+00 7.6311702294228368e+01 1.0000000000000000e+00 9.0931162067839253e+00 7.9725132200679321e+00 1.0870695150919882e+01 
30 1 2 1.0280000000000058e+00 -7.4363899298612012e+01 1.0000000000000000e+00 8.9863905944183919e+00 7.9898954985285267e+00 1.1022609467589032e+01 
28 1 2 1.0280000000002063e+00 -1.1401441671419380e+02 1.0000000000000000e+00 9.3000131220442199e+00 8.0001925783512267e+00 1.0614971386349829e+01 
148 1 2 1.0280000000000118e+00 -5.8785602213514903e+00 1.0000000000000000e+00 8.6272720188986423e+00 7.9102036589261999e+00 1.1369474207098804e+01 
100 1 2 1.0280000000000353e+00 1.7891748537619543e+02 1.0000000000000000e+00 8.6803477757779390e+00 7.9335159428857445e+00 1.1330214854570213e+01 
78 1 2 1.0279999999998495e+00 -3.9326942658784333e+01 1.0000000000000000e+00 8.6948289098889759e+00 8.4562840013961260e+00 1.0348867126661629e+01 
84 1 2 1.0280000000000347e+00 9.3990505438616424e+01 1.0000000000000000e+00 7.9559518806752374e+00 7.9070728446748308e+00 1.1932257198189486e+01 
93 1 2 1.0279999999999123e+00 1.2184741047063167e+02 1.0000000000000000e+00 8.7444145981319856e+00 8.1232224559097101e+00 1.1335361081056281e+01 
109 1 2 1.0279999999999803e+00 9.0511169772177482e+01 1.0000000000000000e+00 8.5487666288764004e+00 8.0830506750269162e+00 1.1515080692856566e+01 
108 1 2 1.0279999999999010e+00 -1.5415959284936849e+02 1.0000000000000000e+00 8.8378674360591987e+00 8.2194808839629960e+00 1.1239148882400459e+01 
83 1 2 1.0280000000000460e+00 -6.8233012235241404e+01 1.0000000000000000e+00 7.9127679688611545e+00 7.9817845026667253e+00 1.1982527088948650e+01 
165 1 2 1.0279999999999294e+00 -2.3805326147570344e+01 1.0000000000000000e+00 8.8790893733092275e+00 8.3861283000840796e+00 1.1124224708195039e+01 
144 1 2 1.0279999999999092e+00 3.0456759097073143e+02 1.0000000000000000e+00 8.3812487803603624e+00 8.1519752357773054e+00 1.1660966529871063e+01 
52 1 2 1.0280000000000142e+00 9.2851969673969421e+00 1.0000000000000000e+00 6.9020417966706411e+00 8.1190095957863573e+00 1.2447312926010406e+01 
155 1 2 1.0280000000001939e+00 -8.8619006199257456e+01 1.0000000000000000e+00 9.4611852122699780e+00 8.0012607290818263e+00 1.0362122889083997e+01 
77 1 2 1.0279999999999785e+00 1.7516928895127080e+02 1.0000000000000000e+00 7.5277669270000080e+00 8.1824180563478972e+00 1.2200104173725139e+01 
124 1 2 1.0279999999999656e+00 -5.8915992411104099e+01 1.0000000000000000e+00 6.7177029936627717e+00 8.1840395116821387e+00 1.2488813090664356e+01 
85 1 2 1.0279999999999516e+00 -3.2392701918065550e+00 1.0000000000000000e+00 7.5617722588636678e+00 8.2791832968737040e+00 1.2161761117284579e+01 
3 1 2 1.0280000000001672e+00 -1.9357805322995944e+02 1.0000000000000000e+00 9.4856240102786522e+00 8.0049572767263637e+00 1.0329645151756440e+01 
87 1 2 1.0279999999999581e+00 1.5518297920167447e+02 1.0000000000000000e+00 7.6224407172312416e+00 8.3102131983428293e+00 1.2121004654473850e+01 
151 1 2 1.0280000000000529e+00 -1.0076588002840938e+02 1.0000000000000000e+00 9.3610810316507820e+00 7.9454933687257414e+00 1.0300843534398590e+01 
115 1 2 1.0280000000001803e+00 1.6012481622005936e+02 1.0000000000000000e+00 9.5304813309220204e+00 8.0083885553128731e+00 1.0259108633043462e+01 
23 1 2 1.0280000000000691e+00 -1.0122848436620470e+02 1.0000000000000000e+00 9.5112917168908648e+00 7.9987354729944542e+00 1.0259136355428758e+01 
82 1 2 1.0280000000001046e+00 -5.0610978597307607e+01 1.0000000000000000e+00 9.5839707273866388e+00 8.0336835413662442e+00 1.0243027902725746e+01 
25 1 2 1.0279999999999454e+00 -1.6619769661864746e+02 1.0000000000000000e+00 7.5787944571686410e+00 8.7563983481349990e+00 1.1675472958695323e+01 
81 1 2 1.0279999999999490e+00 3.0388628848952521e+01 1.0000000000000000e+00 7.4377330206187535e+00 8.7592465844757683e+00 1.1763870925566632e+01 
105 1 2 1.0280000000000153e+00 1.1361094597881510e+02 1.0000000000000000e+00 9.7743345901367480e+00 8.0673549648058263e+00 1.0045949049522614e+01 
55 1 2 1.0279999999999794e+00 1.2384264231965334e+02 1.0000000000000000e+00 1.5667794605692247e+01 9.3706863202290780e+00 4.2335342400192735e+00 
91 1 2 1.0280000000000027e+00 -6.2890576571389104e+01 1.0000000000000000e+00 1.6285237392788776e+01 9.2703384522871453e+00 4.1559806730560798e+00 
17 1 2 1.0280000000000031e+00 -1.4599430759757087e+02 1.0000000000000000e+00 1.5301554978562917e+01 9.2967504813036896e+00 4.3122765784404304e+00 
106 1 2 1.0279999999999805e+00 -5.3505790200054264e+01 1.0000000000000000e+00 1.5396677861688486e+01 9.1768595613768404e+00 4.2553249959614989e+00 
9 1 2 1.0279999999999807e+00 1.8781091543979137e+01 1.0000000000000000e+00 1.4958897767336575e+01 9.4761483988459734e+00 4.5454231758104431e+00 
133 1 2 1.0279999999999883e+00 1.5018346006942318e+02 1.0000000000000000e+00 1.6455339696781508e+01 9.0837698627762951e+00 4.1462093956756485e+00 
56 1 2 1.0279999999999994e+00 1.3839023454957254e+02 1.0000000000000000e+00 1.6366077822573160e+01 9.0506751773041376e+00 4.1369343773983420e+00 
113 1 2 1.0280000000000000e+00 1.6709623046892509e+02 1.0000000000000000e+00 1.6811876085584920e+01 9.1855122158342084e+00 4.2279875295753859e+00 
160 1 2 1.0279999999999820e+00 -2.9891657313044995e-01 1.0000000000000000e+00 1.6022961076307467e+01 8.9580752367568337e+00 4.1405887099504337e+00 
146 1 2 1.0279999999999896e+00 5.0392135013306820e+00 1.0000000000000000e+00 1.4845817069676363e+01 9.4199049505989638e+00 4.5737552777946533e+00 
145 1 2 1.0279999999999692e+00 -1.4803278709452951e+02 1.0000000000000000e+00 1.4990977657896924e+01 9.5679005625629880e+00 4.5975341512183610e+00 
68 1 2 1.0279999999999871e+00 5.8736967526636077e+00 1.0000000000000000e+00 1.6927445610937806e+01 9.2376402584823047e+00 4.2749183518860878e+00 
72 1 2 1.0280000000000034e+00 -9.3071738987682807e+01 1.0000000000000000e+00 1.6914730430881917e+01 9.2277918648484754e+00 4.2682498419278714e+00 
19 1 2 1.0279999999999889e+00 -7.9927441636904547e+01 1.0000000000000000e+00 1.5061259226062218e+01 9.1009620312880557e+00 4.3767786431691924e+00 
20 1 2 1.0280000000000034e+00 1.4057619769951309e+01 1.0000000000000000e+00 1.6901263097884620e+01 9.1710751815294849e+00 4.2527616601994893e+00 
38 1 2 1.0279999999999863e+00 -9.2430396537863317e+01 1.0000000000000000e+00 1.6986930879142903e+01 9.2553021259010286e+00 4.3007259729649858e+00 
131 1 2 1.0279999999999849e+00 2.3442867889780999e+01 1.0000000000000000e+00 1.5217672802562323e+01 9.0101704657026964e+00 4.3142847256285117e+00 
114 1 2 1.0280000000000034e+00 -1.5861589025760992e+02 1.0000000000000000e+00 1.7078600793299437e+01 9.3172178691236844e+00 4.3575084751440842e+00 
33 1 2 1.0280000000000002e+00 -5.9429261064559299e+01 1.0000000000000000e+00 1.6818321063574022e+01 8.9880982600579742e+00 4.2213450638180108e+00 
42 1 2 1.0280000000000029e+00 -4.6368084421472311e-01 1.0000000000000000e+00 1.6778049037827259e+01 8.9352752725771367e+00 4.2167330148858468e+00 
134 1 2 1.0280000000000020e+00 1.1886454278984274e+02 1.0000000000000000e+00 1.6858017101204414e+01 8.9468720780617872e+00 4.2370031062108939e+00 
40 1 2 1.0279999999999851e+00 -2.0071703901767506e+01 1.0000000000000000e+00 1.6690290180338181e+01 8.8581195089143616e+00 4.2114198593390650e+00 
35 1 2 1.0279999999999994e+00 -1.1470761529766077e+02 1.0000000000000000e+00 1.7011457434744063e+01 9.0303360421466525e+00 4.2808040764956505e+00 
70 1 2 1.0280000000000031e+00 -1.1653185377933472e+01 1.0000000000000000e+00 1.6940547244660060e+01 8.9761775577170368e+00 4.2593018217716478e+00 
92 1 2 1.0279999999999898e+00 1.7927855744664674e+02 1.0000000000000000e+00 1.6966408946343090e+01 8.8792918647470316e+00 4.2827850114959167e+00 
99 1 2 1.0280000000000047e+00 1.2459190977432928e+02 1.0000000000000000e+00 1.4480800203156544e+01 9.4014203473837679e+00 4.8016263838146926e+00 
94 1 2 1.0279999999999672e+00 -1.2721517976345876e+01 1.0000000000000000e+00 1.4765696130424690e+01 8.9494936139460783e+00 4.5352251305591817e+00 
149 1 2 1.0279999999999803e+00 -9.3804420860659746e+01 1.0000000000000000e+00 1.4981351926847067e+01 8.8055746493847575e+00 4.4627324219344739e+00 
152 1 2 1.0279999999999838e+00 -3.5039614665685534e+01 1.0000000000000000e+00 1.4735628986466514e+01 8.7750404819327503e+00 4.6053996153404499e+00 
10 1 2 1.0280000000000071e+00 1.3346370615066894e+02 1.0000000000000000e+00 1.7768324036913270e+01 9.1334987252606012e+00 4.6977172649536199e+00 
58 1 2 1.0280000000000102e+00 -2.7111259357206052e+01 1.0000000000000000e+00 1.7987235688823308e+01 9.0247331515913984e+00 4.8501018357184975e+00 
11 1 2 1.0280000000000176e+00 -2.9962625890437927e+01 1.0000000000000000e+00 1.8238368916785326e+01 8.6960703340260821e+00 5.1305823154424282e+00 
26 1 2 1.0280000000000036e+00 -5.2434365061703680e+01 1.0000000000000000e+00 1.7556732242500928e+01 8.1512398537200816e+00 5.5448756864181981e+00 
156 1 2 1.0280000000000715e+00 -5.5699171895851990e+01 1.0000000000000000e+00 1.9423682761025706e+01 8.6361717516649623e+00 6.6529366428437573e+00 
24 1 2 1.0280000000000156e+00 -2.0508990226872646e+02 1.0000000000000000e+00 1.8622171578540698e+01 9.0885688545937704e+00 5.4974252389178337e+00 
7 1 2 1.0280000000000318e+00 -1.9472966624665617e+02 1.0000000000000000e+00 1.8602851540591544e+01 9.0712947223531923e+00 5.4671774240900675e+00 
13 1 2 1.0280000000001555e+00 5.7822421952501585e+01 1.0000000000000000e+00 1.9878669956784915e+01 8.8244617241603507e+00 7.4863733229901257e+00 
63 1 2 1.0280000000000020e+00 1.2505955871999411e+01 1.0000000000000000e+00 1.8239445643501558e+01 8.2742604889802589e+00 5.7101439812114236e+00 
129 1 2 1.0280000000000529e+00 1.4206072301195300e+02 1.0000000000000000e+00 1.8880676193396756e+01 9.0485454923469160e+00 5.8198021671033606e+00 
80 1 2 1.0280000000001437e+00 1.3122285168944134e+02 1.0000000000000000e+00 1.9926710813028507e+01 8.4915549379834445e+00 7.6079216742100879e+00 
178 1 2 1.0279999999999974e+00 -1.1806745446459468e+02 1.0000000000000000e+00 1.6017263957382738e+01 9.9758090123636585e+00 5.3496963411918967e+00 
116 1 2 1.0279999999999856e+00 1.6026441181658208e+02 1.0000000000000000e+00 1.8866839828930633e+01 9.3208118465475209e+00 6.4238982720119910e+00 
96 1 2 1.0280000000002374e+00 1.2795993907395584e+01 1.0000000000000000e+00 1.9809928845597256e+01 8.8470709374438918e+00 7.4125631831861467e+00 
125 1 2 1.0280000000000391e+00 8.4439345195616031e+00 1.0000000000000000e+00 1.9093720241798479e+01 8.9373431187187382e+00 6.0876970965019224e+00 
123 1 2 1.0280000000000038e+00 -4.3905063060258946e+00 1.0000000000000000e+00 1.9379911616278882e+01 8.9777211998585358e+00 6.6203111399752688e+00 
173 1 2 1.0280000000000380e+00 -1.4780810773127263e+02 1.0000000000000000e+00 1.3599108425612670e+01 9.3392457164828340e+00 5.6247751241221033e+00 
97 1 2 1.0279999999999347e+00 1.6294584284937764e+02 1.0000000000000000e+00 1.3421995827127358e+01 9.2242584445473135e+00 5.7393251519149970e+00 
18 1 2 1.0279999999999763e+00 1.4926161887886872e+02 1.0000000000000000e+00 1.9925043741051308e+01 8.8128979790178121e+00 7.5524498505889746e+00 
147 1 2 1.0279999999999940e+00 -8.1476414597189461e+01 1.0000000000000000e+00 1.9920708490648622e+01 8.8134037931183222e+00 7.5399808285053291e+00 
46 1 2 1.0280000000000593e+00 -3.7398219067199022e+01 1.0000000000000000e+00 1.9905479743095707e+01 8.8168206360860193e+00 7.5163915491656006e+00 
153 1 2 1.0279999999999951e+00 -2.7526795996263374e+01 1.0000000000000000e+00 1.9922965298440314e+01 8.8127310959402738e+00 7.5414502108414743e+00 
126 1 2 1.0280000000000633e+00 -1.0706364374478463e+02 1.0000000000000000e+00 1.9947717031351988e+01 8.8068140046174328e+00 7.6403310044475603e+00 
161 1 2 1.0280000000001888e+00 -1.3661884304613483e+02 1.0000000000000000e+00 1.9976983178060838e+01 8.6177901045177894e+00 7.4434292471890080e+00 
44 1 2 1.0279999999999105e+00 1.0381414559157369e+02 1.0000000000000000e+00 1.9941059848946018e+01 8.8056802298567209e+00 7.5419927010136796e+00 

Velocities

164 -5.8285081979083800e-14 -8.4948587951472431e-13 2.4691748789435525e-12
140 6.1195801545294584e-14 -2.4521472200911490e-12 2.4335921150691135e-12
21 -1.3183692263407600e-13 -2.8780661678777725e-12 1.4281985334881739e-12
67 -6.1429745039119510e-14 2.4416009575440176e-14 2.5363636005899482e-12
139 -1.3493006047494097e-13 -1.8150468822358491e-12 1.9502941376632370e-12
62 -5.8765128318059326e-13 1.2411632366788809e-12 1.1401637667555210e-13
172 3.4643176771604921e-13 8.1937590821009630e-13 -3.1214598656076786e-13
2 2.1792993115198427e-13 3.5317482759752730e-12 2.9702011521070603e-12
120 3.1586922622756016e-13 6.8185213858831926e-13 1.7461315816723288e-13
41 -1.1183081171056400e-14 -1.4132897106722234e-12 7.9413376942733493e-13
135 -5.8243293746795832e-14 -1.8663986434262743e-12 2.0570127992746934e-12
163 5.4596668694814972e-13 8.2749262962253703e-13 7.9235529829200661e-13
167 1.0655050022374263e-12 1.1640627939718314e-12 -2.5428206427015090e-12
1 8.7168843780609883e-13 -6.8441025778125059e-14 -2.2444144585828942e-12
101 -5.5340311088357410e-13 -5.7716710244375955e-12 -2.0119347101080503e-12
174 5.3197487447734756e-13 7.6572351825035232e-13 -2.5976725708165649e-13
49 -1.7968593948913672e-13 2.7908239843840291e-12 1.5884450720097150e-12
4 9.1999479691033808e-14 3.0085355383820897e-13 4.3451268812308346e-13
121 5.5033910797702753e-15 -4.7206327832843441e-12 1.9214278497372379e-12
180 -1.3785114814817093e-12 3.1213806312297862e-14 -3.6231918293849752e-13
16 4.3253524275959336e-12 -3.2872551756224162e-12 -1.7598295095583481e-12
50 -1.1672525189688058e-13 -5.4457300348241996e-13 2.2541346356481680e-12
12 -6.0428563833444626e-13 8.0241059368079173e-13 -8.5664205170199322e-13
118 2.0897637402636556e-12 2.4473718689059873e-12 -1.6353379575057886e-12
48 7.0617961794487983e-13 1.6481810916970508e-12 -1.3122232607495436e-12
39 -1.0895921644417455e-12 4.7895917984337143e-13 -7.9720430478476641e-13
76 2.4690411272420612e-13 1.4470072767477756e-12 -1.2654028535955520e-12
157 -1.3796286274063426e-12 1.7429880759690819e-13 -7.5820492702019968e-13
176 -1.5130313078873562e-12 -4.7941093796472850e-13 1.8313988996155232e-12
127 2.1767384075935634e-12 1.5340310848050865e-12 -2.1244862903563478e-12
175 -1.0783474793266539e-12 -2.2742873601674687e-13 -1.0728317054952115e-13
158 -1.5559499291841302e-12 -6.8127330273103986e-13 3.1620562981183899e-13
170 -1.1643311882075739e-12 -6.9522952611429992e-13 1.8245321011736397e-12
74 -1.3205513541126338e-12 -2.3953002705485023e-13 2.4087037017664429e-13
166 -1.2935393404634042e-12 3.1099410536889272e-13 -5.8221316692325907e-13
117 -7.5144679058537274e-13 -1.6784906754011596e-13 1.2958091932253444e-12
37 -7.4691541590667751e-13 -9.7957396735801265e-13 2.0842953609277773e-12
88 2.0931352747610508e-12 8.7981712083237967e-14 2.1983159461414257e-12
45 2.7703767754181656e-12 -1.2133359267456307e-13 3.0291317676820533e-12
54 -1.4928652073579149e-12 -3.3801052614479892e-13 2.2980005659700009e-12
142 7.9043502484371605e-13 -6.3675433638305249e-13 3.6566391681955044e-12
27 -1.2457180338756990e-12 -2.7225460153570928e-13 3.9896577413893254e-12
66 1.6377818627498796e-12 -2.9589016710364054e-13 3.2135930527856939e-12