LAMMPS data file via write_data, version 30 Jul 2016, timestep = 30700000

1920 atoms
8 atom types

0.0000000000000000e+00 4.0000000000000000e+01 xlo xhi
0.0000000000000000e+00 4.0000000000000000e+01 ylo yhi
0.0000000000000000e+00 1.0000000000000000e+02 zlo zhi

Masses

1 3.896
2 5.36
3 20.064
4 8.378
5 8.378
6 8.378
7 8.378
8 8.378

Atoms # meso-molecular

1 2 4 2.2559723595316457e+00 1.7249820852479002e+03 1.0000000000000000e+00 0.0000000000000000e+00 0.0000000000000000e+00 2.5000000000000000e+00 
2 2 4 2.2559723595316457e+00 1.2462375044587293e+03 1.0000000000000000e+00 0.0000000000000000e+00 2.0000000000000000e+00 2.5000000000000000e+00 
21 2 4 2.2559723595316457e+00 1.6274362089259375e+03 1.0000000000000000e+00 2.0000000000000000e+00 0.0000000000000000e+00 2.5000000000000000e+00 
22 2 4 2.2559723595316457e+00 1.2280317704558793e+03 1.0000000000000000e+00 2.0000000000000000e+00 2.0000000000000000e+00 2.5000000000000000e+00 
41 2 4 2.2559723595316457e+00 1.2752339213564483e+03 1.0000000000000000e+00 4.0000000000000000e+00 0.0000000000000000e+00 2.5000000000000000e+00 
42 2 4 2.2559723595316457e+00 9.7994275014455457e+02 1.0000000000000000e+00 4.0000000000000000e+00 2.0000000000000000e+00 2.5000000000000000e+00 
61 2 4 2.2559723595316457e+00 1.3948239028767778e+03 1.0000000000000000e+00 6.0000000000000000e+00 0.0000000000000000e+00 2.5000000000000000e+00 
62 2 4 2.2559723595316457e+00 1.0357836305750247e+03 1.0000000000000000e+00 6.0000000000000000e+00 2.0000000000000000e+00 2.5000000000000000e+00 
81 2 4 2.2559723595316457e+00 1.8484848831688905e+03 1.0000000000000000e+00 8.0000000000000000e+00 0.0000000000000000e+00 2.5000000000000000e+00 
82 2 4 2.2559723595316457e+00 1.4879162680823588e+03 1.0000000000000000e+00 8.0000000000000000e+00 2.0000000000000000e+00 2.5000000000000000e+00 
101 2 4 2.2559723595316457e+00 1.3554656496457787e+03 1.0000000000000000e+00 1.0000000000000000e+01 0.0000000000000000e+00 2.5000000000000000e+00 
102 2 4 2.2559723595316457e+00 9.1123677310355606e+02 1.0000000000000000e+00 1.0000000000000000e+01 2.0000000000000000e+00 2.5000000000000000e+00 
121 2 4 2.2559723595316457e+00 1.0523122180024443e+03 1.0000000000000000e+00 1.2000000000000000e+01 0.0000000000000000e+00 2.5000000000000000e+00 
122 2 4 2.2559723595316457e+00 5.5740710777885033e+02 1.0000000000000000e+00 1.2000000000000000e+01 2.0000000000000000e+00 2.5000000000000000e+00 
141 2 4 2.2559723595316457e+00 8.3098772468649918e+02 1.0000000000000000e+00 1.4000000000000000e+01 0.0000000000000000e+00 2.5000000000000000e+00 
142 2 4 2.2559723595316457e+00 6.1534802214764443e+02 1.0000000000000000e+00 1.4000000000000000e+01 2.0000000000000000e+00 2.5000000000000000e+00 
161 2 4 2.2559723595316457e+00 1.1702613578886640e+03 1.0000000000000000e+00 1.6000000000000000e+01 0.0000000000000000e+00 2.5000000000000000e+00 
162 2 4 2.2559723595316457e+00 1.1950259951911607e+03 1.0000000000000000e+00 1.6000000000000000e+01 2.0000000000000000e+00 2.5000000000000000e+00 
181 2 4 2.2559723595316457e+00 1.4215541110154950e+03 1.0000000000000000e+00 1.8000000000000000e+01 0.0000000000000000e+00 2.5000000000000000e+00 
182 2 4 2.2559723595316457e+00 1.4277058435592021e+03 1.0000000000000000e+00 1.8000000000000000e+01 2.0000000000000000e+00 2.5000000000000000e+00 
3 2 4 2.2559723595316457e+00 1.0489004822872475e+03 1.0000000000000000e+00 0.0000000000000000e+00 4.0000000000000000e+00 2.5000000000000000e+00 
4 2 4 2.2559723595316457e+00 1.1287978793925017e+03 1.0000000000000000e+00 0.0000000000000000e+00 6.0000000000000000e+00 2.5000000000000000e+00 
23 2 4 2.2559723595316457e+00 6.8480927205221815e+02 1.0000000000000000e+00 2.0000000000000000e+00 4.0000000000000000e+00 2.5000000000000000e+00 
24 2 4 2.2559723595316457e+00 7.5494324189980443e+02 1.0000000000000000e+00 2.0000000000000000e+00 6.0000000000000000e+00 2.5000000000000000e+00 
43 2 4 2.2559723595316457e+00 4.1136677606428862e+02 1.0000000000000000e+00 4.0000000000000000e+00 4.0000000000000000e+00 2.5000000000000000e+00 
44 2 4 2.2559723595316457e+00 4.1678574754817419e+02 1.0000000000000000e+00 4.0000000000000000e+00 6.0000000000000000e+00 2.5000000000000000e+00 
63 2 4 2.2559723595316457e+00 5.6606363491144816e+02 1.0000000000000000e+00 6.0000000000000000e+00 4.0000000000000000e+00 2.5000000000000000e+00 
64 2 4 2.2559723595316457e+00 6.7049769941731529e+02 1.0000000000000000e+00 6.0000000000000000e+00 6.0000000000000000e+00 2.5000000000000000e+00 
83 2 4 2.2559723595316457e+00 7.3225844586598839e+02 1.0000000000000000e+00 8.0000000000000000e+00 4.0000000000000000e+00 2.5000000000000000e+00 
84 2 4 2.2559723595316457e+00 7.8003735558072367e+02 1.0000000000000000e+00 8.0000000000000000e+00 6.0000000000000000e+00 2.5000000000000000e+00 
103 2 4 2.2559723595316457e+00 5.6666439977853406e+02 1.0000000000000000e+00 1.0000000000000000e+01 4.0000000000000000e+00 2.5000000000000000e+00 
104 2 4 2.2559723595316457e+00 8.3291751906161403e+02 1.0000000000000000e+00 1.0000000000000000e+01 6.0000000000000000e+00 2.5000000000000000e+00 
123 2 4 2.2559723595316457e+00 5.0191022454010158e+02 1.0000000000000000e+00 1.2000000000000000e+01 4.0000000000000000e+00 2.5000000000000000e+00 
124 2 4 2.2559723595316457e+00 8.3491955953981972e+02 1.0000000000000000e+00 1.2000000000000000e+01 6.0000000000000000e+00 2.5000000000000000e+00 
143 2 4 2.2559723595316457e+00 9.0716132482557691e+02 1.0000000000000000e+00 1.4000000000000000e+01 4.0000000000000000e+00 2.5000000000000000e+00 
144 2 4 2.2559723595316457e+00 1.1625346714480324e+03 1.0000000000000000e+00 1.4000000000000000e+01 6.0000000000000000e+00 2.5000000000000000e+00 
163 2 4 2.2559723575668293e+00 1.2749627322258305e+03 1.0000000000000000e+00 1.6000000000000000e+01 4.0000000000000000e+00 2.5000000000000000e+00 
164 2 4 2.2559723595316457e+00 1.3394455241406831e+03 1.0000000000000000e+00 1.6000000000000000e+01 6.0000000000000000e+00 2.5000000000000000e+00 
183 2 4 2.2559723595316457e+00 1.3597147894044015e+03 1.0000000000000000e+00 1.8000000000000000e+01 4.0000000000000000e+00 2.5000000000000000e+00 
184 2 4 2.2559723595316457e+00 1.1483956511472029e+03 1.0000000000000000e+00 1.8000000000000000e+01 6.0000000000000000e+00 2.5000000000000000e+00 
5 2 4 2.2559723595316457e+00 1.0434298447405727e+03 1.0000000000000000e+00 0.0000000000000000e+00 8.0000000000000000e+00 2.5000000000000000e+00 
6 2 4 2.2559723595316457e+00 7.9035179131267364e+02 1.0000000000000000e+00 0.0000000000000000e+00 1.0000000000000000e+01 2.5000000000000000e+00 
25 2 4 2.2559723595316457e+00 8.1816672562740814e+02 1.0000000000000000e+00 2.0000000000000000e+00 8.0000000000000000e+00 2.5000000000000000e+00 
26 2 4 2.2559723595316457e+00 6.3973673271793973e+02 1.0000000000000000e+00 2.0000000000000000e+00 1.0000000000000000e+01 2.5000000000000000e+00 
45 2 4 2.2559723595316457e+00 6.6755824609196247e+02 1.0000000000000000e+00 4.0000000000000000e+00 8.0000000000000000e+00 2.5000000000000000e+00 
46 2 4 2.2559723595316457e+00 7.3484162066125668e+02 1.0000000000000000e+00 4.0000000000000000e+00 1.0000000000000000e+01 2.5000000000000000e+00 
65 2 4 2.2559723595316457e+00 8.9343185344879157e+02 1.0000000000000000e+00 6.0000000000000000e+00 8.0000000000000000e+00 2.5000000000000000e+00 
66 2 4 2.2559723595316457e+00 9.3067539517002797e+02 1.0000000000000000e+00 6.0000000000000000e+00 1.0000000000000000e+01 2.5000000000000000e+00 
85 2 4 2.2559723595316457e+00 8.4972613197297073e+02 1.0000000000000000e+00 8.0000000000000000e+00 8.0000000000000000e+00 2.5000000000000000e+00 
86 2 4 2.2559723595316457e+00 9.7838641019780925e+02 1.0000000000000000e+00 8.0000000000000000e+00 1.0000000000000000e+01 2.5000000000000000e+00 
105 2 4 2.2559723595316457e+00 8.8327109473499968e+02 1.0000000000000000e+00 1.0000000000000000e+01 8.0000000000000000e+00 2.5000000000000000e+00 
106 2 4 2.2559723595316457e+00 1.0429152386856745e+03 1.0000000000000000e+00 1.0000000000000000e+01 1.0000000000000000e+01 2.5000000000000000e+00 
125 2 4 2.2559723595316457e+00 6.7861762830496878e+02 1.0000000000000000e+00 1.2000000000000000e+01 8.0000000000000000e+00 2.5000000000000000e+00 
126 2 4 2.2559723595316457e+00 8.6758170588785367e+02 1.0000000000000000e+00 1.2000000000000000e+01 1.0000000000000000e+01 2.5000000000000000e+00 
145 2 4 2.2559723595316457e+00 9.1847551720380363e+02 1.0000000000000000e+00 1.4000000000000000e+01 8.0000000000000000e+00 2.5000000000000000e+00 
146 2 4 2.2559723595316457e+00 4.0345122675378576e+02 1.0000000000000000e+00 1.4000000000000000e+01 1.0000000000000000e+01 2.5000000000000000e+00 
165 2 4 2.2559723595316457e+00 7.0862746159613744e+02 1.0000000000000000e+00 1.6000000000000000e+01 8.0000000000000000e+00 2.5000000000000000e+00 
166 2 4 2.2559723595316457e+00 -5.0548410710060978e+02 1.0000000000000000e+00 1.6000000000000000e+01 1.0000000000000000e+01 2.5000000000000000e+00 
185 2 4 2.2559723595316457e+00 1.7401444225813839e+02 1.0000000000000000e+00 1.8000000000000000e+01 8.0000000000000000e+00 2.5000000000000000e+00 
186 2 4 2.2559723595316457e+00 -7.7345082941042210e+02 1.0000000000000000e+00 1.8000000000000000e+01 1.0000000000000000e+01 2.5000000000000000e+00 
7 2 4 2.2559723595316457e+00 6.7507173467773055e+02 1.0000000000000000e+00 0.0000000000000000e+00 1.2000000000000000e+01 2.5000000000000000e+00 
8 2 4 2.2559723595316457e+00 6.0074112940330065e+02 1.0000000000000000e+00 0.0000000000000000e+00 1.4000000000000000e+01 2.5000000000000000e+00 
27 2 4 2.2559723595316457e+00 7.5958993817489181e+02 1.0000000000000000e+00 2.0000000000000000e+00 1.2000000000000000e+01 2.5000000000000000e+00 
28 2 4 2.2559723595316457e+00 8.1074723852218085e+02 1.0000000000000000e+00 2.0000000000000000e+00 1.4000000000000000e+01 2.5000000000000000e+00 
47 2 4 2.2559723595316457e+00 8.4618942133270798e+02 1.0000000000000000e+00 4.0000000000000000e+00 1.2000000000000000e+01 2.5000000000000000e+00 
48 2 4 2.2559723595316457e+00 1.1302479827291395e+03 1.0000000000000000e+00 4.0000000000000000e+00 1.4000000000000000e+01 2.5000000000000000e+00 
67 2 4 2.2559723595316457e+00 8.5879626464367357e+02 1.0000000000000000e+00 6.0000000000000000e+00 1.2000000000000000e+01 2.5000000000000000e+00 
68 2 4 2.2559723595316457e+00 9.1626706034662448e+02 1.0000000000000000e+00 6.0000000000000000e+00 1.4000000000000000e+01 2.5000000000000000e+00 
87 2 4 2.2559723595316457e+00 5.4549351060398249e+02 1.0000000000000000e+00 8.0000000000000000e+00 1.2000000000000000e+01 2.5000000000000000e+00 
88 2 4 2.2559723595316457e+00 4.1289440867016526e+02 1.0000000000000000e+00 8.0000000000000000e+00 1.4000000000000000e+01 2.5000000000000000e+00 
107 2 4 2.2559723595316457e+00 8.6733867704595832e+02 1.0000000000000000e+00 1.0000000000000000e+01 1.2000000000000000e+01 2.5000000000000000e+00 
108 2 4 2.2559723595316457e+00 3.4637433744897635e+02 1.0000000000000000e+00 1.0000000000000000e+01 1.4000000000000000e+01 2.5000000000000000e+00 
127 2 4 2.2559723595316457e+00 8.9844013120730210e+02 1.0000000000000000e+00 1.2000000000000000e+01 1.2000000000000000e+01 2.5000000000000000e+00 
128 2 4 2.2559723595316457e+00 5.2863030612419379e+02 1.0000000000000000e+00 1.2000000000000000e+01 1.4000000000000000e+01 2.5000000000000000e+00 
147 2 4 2.2559723595316457e+00 1.5157782826363916e+02 1.0000000000000000e+00 1.4000000000000000e+01 1.2000000000000000e+01 2.5000000000000000e+00 
148 2 4 2.2559723595316457e+00 1.3504311630050415e+02 1.0000000000000000e+00 1.4000000000000000e+01 1.4000000000000000e+01 2.5000000000000000e+00 
167 2 4 2.2559723595316457e+00 -1.0471418691707927e+03 1.0000000000000000e+00 1.6000000000000000e+01 1.2000000000000000e+01 2.5000000000000000e+00 
168 2 4 2.2559723595316457e+00 -1.0610587868688697e+03 1.0000000000000000e+00 1.6000000000000000e+01 1.4000000000000000e+01 2.5000000000000000e+00 
187 2 4 2.2559723595316457e+00 -1.0271920397812250e+03 1.0000000000000000e+00 1.8000000000000000e+01 1.2000000000000000e+01 2.5000000000000000e+00 
188 2 4 2.2559723595316457e+00 -1.0020597694929963e+03 1.0000000000000000e+00 1.8000000000000000e+01 1.4000000000000000e+01 2.5000000000000000e+00 
9 2 4 2.2559723595316457e+00 9.0201419751821697e+02 1.0000000000000000e+00 0.0000000000000000e+00 1.6000000000000000e+01 2.5000000000000000e+00 
10 2 4 2.2559723595316457e+00 9.2286345276880979e+02 1.0000000000000000e+00 0.0000000000000000e+00 1.8000000000000000e+01 2.5000000000000000e+00 
29 2 4 2.2559723595316457e+00 6.2241786012650709e+02 1.0000000000000000e+00 2.0000000000000000e+00 1.6000000000000000e+01 2.5000000000000000e+00 
30 2 4 2.2559723595316457e+00 6.9278444427148929e+02 1.0000000000000000e+00 2.0000000000000000e+00 1.8000000000000000e+01 2.5000000000000000e+00 
49 2 4 2.2559723595316457e+00 8.8187671052593987e+02 1.0000000000000000e+00 4.0000000000000000e+00 1.6000000000000000e+01 2.5000000000000000e+00 
50 2 4 2.2559723595316457e+00 7.8515341953277039e+02 1.0000000000000000e+00 4.0000000000000000e+00 1.8000000000000000e+01 2.5000000000000000e+00 
69 2 4 2.2559723595316457e+00 9.1742952645600099e+02 1.0000000000000000e+00 6.0000000000000000e+00 1.6000000000000000e+01 2.5000000000000000e+00 
70 2 4 2.2559723595316457e+00 1.2690688971587329e+03 1.0000000000000000e+00 6.0000000000000000e+00 1.8000000000000000e+01 2.5000000000000000e+00 
89 2 4 2.2559723595316457e+00 9.9998979304528234e+02 1.0000000000000000e+00 8.0000000000000000e+00 1.6000000000000000e+01 2.5000000000000000e+00 
90 2 4 2.2559723595316457e+00 1.6015765966310630e+03 1.0000000000000000e+00 8.0000000000000000e+00 1.8000000000000000e+01 2.5000000000000000e+00 
109 2 4 2.2559723595316457e+00 7.5574000739243786e+02 1.0000000000000000e+00 1.0000000000000000e+01 1.6000000000000000e+01 2.5000000000000000e+00 
110 2 4 2.2559723595316457e+00 1.3582694801672144e+03 1.0000000000000000e+00 1.0000000000000000e+01 1.8000000000000000e+01 2.5000000000000000e+00 
129 2 4 2.2559723595316457e+00 8.8113188093552981e+02 1.0000000000000000e+00 1.2000000000000000e+01 1.6000000000000000e+01 2.5000000000000000e+00 
130 2 4 2.2559723595316457e+00 1.5557416649481722e+03 1.0000000000000000e+00 1.2000000000000000e+01 1.8000000000000000e+01 2.5000000000000000e+00 
149 2 4 2.2559723595316457e+00 5.4531681397163777e+02 1.0000000000000000e+00 1.4000000000000000e+01 1.6000000000000000e+01 2.5000000000000000e+00 
150 2 4 2.2559723595316457e+00 9.8488300664842654e+02 1.0000000000000000e+00 1.4000000000000000e+01 1.8000000000000000e+01 2.5000000000000000e+00 
169 2 4 2.2559723595316457e+00 -7.8474350129740856e+02 1.0000000000000000e+00 1.6000000000000000e+01 1.6000000000000000e+01 2.5000000000000000e+00 
170 2 4 2.2559723595316457e+00 -5.6132274484270829e+02 1.0000000000000000e+00 1.6000000000000000e+01 1.8000000000000000e+01 2.5000000000000000e+00 
189 2 4 2.2559723595316457e+00 -8.9016051839237264e+02 1.0000000000000000e+00 1.8000000000000000e+01 1.6000000000000000e+01 2.5000000000000000e+00 
190 2 4 2.2559723595316457e+00 -1.0338138304997240e+03 1.0000000000000000e+00 1.8000000000000000e+01 1.8000000000000000e+01 2.5000000000000000e+00 
1784 1386 2 4.5373707382213085e-01 -4.2589516740308518e+03 1.0000000000000000e+00 1.5287439762157845e+01 3.8707701282990832e+00 8.4153034163716072e+00 
789 391 2 4.2761321142151931e-01 -2.8560289583574136e+05 1.0000000000000000e+00 1.1263331874701992e+01 5.9090898569441821e+00 9.9250181292692474e+00 
787 389 2 5.3916985612675861e-01 6.3588115174763632e+04 1.0000000000000000e+00 1.5795756823207755e+01 6.7336252205820353e+00 1.0828694076667574e+01 
621 223 2 6.2663903225705031e-01 2.5500806654317537e+05 1.0000000000000000e+00 1.5307501694191833e+01 5.1805062023231105e+00 1.0442462656166068e+01 
1263 865 2 6.7537335779747198e-01 -2.7454567345864471e+04 1.0000000000000000e+00 1.6655326960972712e+01 5.3951988074905959e+00 9.2193142033084143e+00 
1203 805 2 4.7345381813991705e-01 2.2132116455991141e+05 1.0000000000000000e+00 1.8768398724212844e+01 7.0354397896065457e+00 1.0857897074363622e+01 
410 12 2 6.1479847034813018e-01 4.1560436440919866e+03 1.0000000000000000e+00 1.8009293263141576e+01 5.5616684456052887e+00 9.7287993985283627e+00 
1568 1170 2 6.1057248852066270e-01 4.9074710532313446e+04 1.0000000000000000e+00 1.8039362704495263e+00 8.9887915654966015e+00 9.7047564131048052e+00 
1824 1426 2 7.3489806646952294e-01 1.1285695633532816e+05 1.0000000000000000e+00 3.0977938059421657e+00 9.2043590894716001e+00 9.6743866150547380e+00 
1143 745 2 6.0554224065347761e-01 1.1144328244263626e+05 1.0000000000000000e+00 4.9381869689354803e+00 1.0293721894886048e+01 8.4715642991942488e+00 
909 511 2 7.1965802447188487e-01 3.7487075378673855e+05 1.0000000000000000e+00 4.5411856386552252e+00 9.8183194158922635e+00 9.6719085200539539e+00 
1298 900 2 7.4528833619470991e-01 2.7746886045410624e+05 1.0000000000000000e+00 8.7350182444308242e+00 1.0002733490670281e+01 1.1009116246723183e+01 
1351 953 2 7.2526059774523521e-01 1.6052612336057480e+05 1.0000000000000000e+00 1.0346544603988706e+01 8.9092520912584323e+00 1.0155022292958455e+01 
725 327 2 1.0824608797373478e+00 -1.9241375899879265e+05 1.0000000000000000e+00 9.6337843551049236e+00 9.2195642989824869e+00 1.0981381679186441e+01 
702 304 2 4.2754436485870551e-01 -8.6777441577846868e+04 1.0000000000000000e+00 1.6832688570835618e+01 9.6820141794149901e+00 1.0671134976226041e+01 
883 485 2 5.9227222013573333e-01 1.1577549653219004e+05 1.0000000000000000e+00 1.9877379373865402e+01 1.0675251321521905e+01 1.0560785432855283e+01 
1051 653 2 4.2764306586260670e-01 2.3056074756621639e+05 1.0000000000000000e+00 1.2753168665684889e+01 1.3462791493642252e+01 1.0022420454963619e+01 
862 464 2 4.2763814926154264e-01 -4.3088810850013251e+03 1.0000000000000000e+00 1.9578029308333004e+01 2.4425382961818976e+00 1.2089538928383748e+01 
408 10 2 4.5966781890779851e-01 -3.2024299134714337e+05 1.0000000000000000e+00 1.6681840432284424e+01 3.9126313694065522e+00 1.1379037160738482e+01 
1752 1354 2 6.9305793665221338e-01 2.0155785271841465e+05 1.0000000000000000e+00 8.9089296315715281e+00 5.5518080826376224e+00 1.4741252436990004e+01 
1391 993 2 9.5442275734317650e-01 3.4676344934734421e+04 1.0000000000000000e+00 9.4890169234520183e+00 8.5139985175690018e+00 1.4472368781360956e+01 
645 247 2 7.5435103463790987e-01 -3.1008565534778510e+04 1.0000000000000000e+00 1.0133237856556608e+01 9.5945196469793590e+00 1.2021977270398246e+01 
1317 919 2 6.4316278597471321e-01 -3.3096702133428087e+04 1.0000000000000000e+00 9.9098476604451395e+00 1.9579185410568488e+01 1.1382903233271785e+01 
877 479 2 4.2761871878133456e-01 1.3513853951049416e+05 1.0000000000000000e+00 1.7630334041952519e+01 1.7771079286796006e+01 1.3006130835655696e+01 
1607 1209 2 5.5689376222701448e-01 -8.5465895515205848e+04 1.0000000000000000e+00 7.4998822515957135e+00 5.3337324087055862e+00 1.5464577126685864e+01 
1912 1514 2 7.7683600232800276e-01 -1.9450744473842406e+05 1.0000000000000000e+00 1.0287406062543232e+01 7.9654322677719254e+00 1.5036242117756048e+01 
527 129 2 6.2103783561546111e-01 -2.9283188039442080e+04 1.0000000000000000e+00 9.5453889941625896e+00 6.1276896266142913e+00 1.5883411823454397e+01 
949 551 2 8.1077463729021493e-01 1.6334354832850458e+05 1.0000000000000000e+00 9.2287865966211786e+00 9.2833409935925388e+00 1.4872197075972004e+01 
855 457 2 4.9884080601642850e-01 -9.3707373778821857e+04 1.0000000000000000e+00 1.9663704555926572e+01 1.0070262867152117e+01 1.5379339634617573e+01 
529 131 2 4.2764601635994176e-01 -2.4206699297952233e+05 1.0000000000000000e+00 3.2541783725410429e+00 1.3652346228606030e+01 1.5440124457645375e+01 
473 75 2 4.2764690764210350e-01 6.6735094257920005e+04 1.0000000000000000e+00 1.5875468438074481e+01 1.5858337873158705e+01 1.5051868126966868e+01 
1677 1279 2 4.2766503411604700e-01 3.6814996967726103e+04 1.0000000000000000e+00 1.5009270539891439e+01 1.3124640984653199e+01 1.7741781771875182e+01 
1138 740 2 4.2987451594459236e-01 -2.4870889696401669e+05 1.0000000000000000e+00 1.5435187921852135e+01 1.8362656834629188e+01 1.8384712532497900e+01 
407 9 2 4.3371452287782447e-01 1.1074518119616694e+05 1.0000000000000000e+00 1.3540670374309352e+01 1.9840666729084202e+01 1.7481298908692981e+01 
1024 626 2 4.9309783418180630e-01 1.7770448095384167e+04 1.0000000000000000e+00 5.9097484352422824e-01 4.9152336407159425e-01 2.2390768849936965e+01 
1561 1163 2 4.3282880919097516e-01 2.6367169490379054e+05 1.0000000000000000e+00 1.0545055303459412e+01 1.1499516104578078e+00 2.4224372908936040e+01 
1528 1130 2 4.4137881629597336e-01 -4.7600103625427444e+04 1.0000000000000000e+00 1.8477095122655154e+01 3.2395733434328391e+00 2.3557695230403684e+01 
1259 861 2 4.2869831597545860e-01 1.2029819018690842e+05 1.0000000000000000e+00 1.4257250763827145e+01 6.5386572029307324e+00 2.5584355196843443e+01 
948 550 2 4.4136540398103619e-01 1.2378961930965447e+05 1.0000000000000000e+00 1.6677542239305357e+01 4.3854922183110867e+00 2.4356173868443324e+01 
766 368 2 4.2762923592436103e-01 -3.6269338931868638e+03 1.0000000000000000e+00 1.4984882368735610e+01 9.4424016505700461e+00 2.3753380682462179e+01 
964 566 2 4.2767204819712157e-01 -2.0273094095844339e+05 1.0000000000000000e+00 1.4586583261356376e+01 1.5767092358543108e+01 2.4806290521127313e+01 
1025 627 2 4.2764735134398635e-01 2.4676123109153626e+05 1.0000000000000000e+00 9.5769815320920486e+00 1.7297906864942519e+01 2.2288775785975822e+01 
421 23 2 4.2764997479920680e-01 -1.7653314548596728e+05 1.0000000000000000e+00 1.2141420452442313e+01 1.9786503358136617e+01 2.4846109027178482e+01 
652 254 2 4.8689592444332452e-01 -9.6206702583274950e+04 1.0000000000000000e+00 2.0187801315160159e+00 3.7105245889840153e+00 2.8795381275486555e+01 
1006 608 2 9.1779747409602486e-01 5.7100863278930607e+04 1.0000000000000000e+00 6.4672910449329128e+00 8.4755446186034322e-01 2.8208866739636459e+01 
402 4 2 1.1454922279144781e+00 1.0465367923912749e+05 1.0000000000000000e+00 6.0802705583952603e+00 3.1461251909513693e-01 2.7867321353447128e+01 
1133 735 2 6.1264886501018589e-01 -1.4815511720005478e+05 1.0000000000000000e+00 4.5128179005612710e+00 8.0546065884810991e-01 2.7866914885769276e+01 
835 437 2 4.7778306411143739e-01 -1.9446993794164716e+05 1.0000000000000000e+00 8.5813671162219087e+00 2.2132196973101683e+00 2.6707100718465135e+01 
934 536 2 5.7457764937193123e-01 -2.1217844941760242e+05 1.0000000000000000e+00 8.4169379918235840e+00 3.6179558475080831e+00 2.8591927563594943e+01 
592 194 2 4.7366315307577794e-01 -7.5847088575301008e+04 1.0000000000000000e+00 1.0378334229841228e+01 1.3380311389126924e+00 2.6662908853169728e+01 
1079 681 2 4.2865241700069101e-01 -1.9828705216541869e+05 1.0000000000000000e+00 2.0169081843842935e+00 6.9096831839720751e+00 2.7247305465381682e+01 
1663 1265 2 4.9077845868438602e-01 -1.6916166553734112e+05 1.0000000000000000e+00 9.3025293255565955e-01 5.2245780764031782e+00 2.8970535730283114e+01 
1197 799 2 5.6151308704846126e-01 4.2071902569954393e+04 1.0000000000000000e+00 6.3463927986360975e+00 4.0340860970616657e+00 2.8648665597609980e+01 
1463 1065 2 8.4407870999299883e-01 -4.9093181089975417e+05 1.0000000000000000e+00 6.8621296020017946e+00 5.6779784972849594e+00 2.8752250906683063e+01 
496 98 2 4.4599385107772005e-01 1.0665713438266957e+05 1.0000000000000000e+00 9.0747805931907290e+00 5.9890164153310863e+00 2.6744857995660293e+01 
685 287 2 1.2676992277025136e+00 -2.0688819254399749e+05 1.0000000000000000e+00 8.2619753374845377e+00 5.8699248503725272e+00 2.9256947664466423e+01 
1644 1246 2 5.3051717503977214e-01 -4.3107449617788268e+04 1.0000000000000000e+00 1.1662868800163043e+01 7.1574827634051301e+00 2.6613148819297287e+01 
1874 1476 2 1.0689901804329098e+00 1.1791245394546833e+05 1.0000000000000000e+00 8.4460275521471839e+00 5.4314072571142757e+00 2.8806348231259051e+01 
660 262 2 8.5568383173545670e-01 -7.6019727901356804e+04 1.0000000000000000e+00 1.1996662186119989e+01 5.5613489233426883e+00 2.7171492778232217e+01 
1814 1416 2 7.8723496677956706e-01 -2.8462490054595639e+05 1.0000000000000000e+00 1.2531427005067714e+01 5.1364444273191463e+00 2.7018032052587557e+01 
545 147 2 4.2791334438683487e-01 8.1908010342785914e+04 1.0000000000000000e+00 7.3242086706770504e+00 9.2952946190787564e+00 2.8744904662362394e+01 
1291 893 2 4.2764230049814961e-01 8.4531940657927029e+04 1.0000000000000000e+00 7.8565352113654381e+00 1.3943049389528321e+01 2.8067628826536112e+01 
1914 1516 2 8.4577176894738770e-01 -2.1893720163750678e+05 1.0000000000000000e+00 1.7690341870070565e+01 1.5723627083249182e+01 2.7338125740960020e+01 
957 559 2 7.7217090391354049e-01 -7.7876718814524735e+04 1.0000000000000000e+00 1.8656849005554118e+01 1.4528439944489808e+01 2.9209709936072983e+01 
416 18 2 9.4553364552947117e-01 1.9167699487353774e+05 1.0000000000000000e+00 1.7371348174126403e+01 1.5014294246596302e+01 2.9390416662444590e+01 
605 207 2 4.7684051443059378e-01 1.4704357560969185e+05 1.0000000000000000e+00 1.6136843846087618e+01 1.4471815435856181e+01 2.6923585584062355e+01 
782 384 2 4.2765060809816297e-01 -7.9337558346896461e+04 1.0000000000000000e+00 1.5289343773013490e+01 1.7948549422991672e+01 2.6505626465897457e+01 
1058 660 2 8.4911220012462296e-01 -1.1679315411325553e+05 1.0000000000000000e+00 1.7383660292118389e+01 1.6213047992206263e+01 2.7726568104068360e+01 
1461 1063 2 5.3251300387971490e-01 -3.3251637616722466e+05 1.0000000000000000e+00 1.9359995856710672e+01 1.6657135117905447e+01 2.8676360838960441e+01 
1818 1420 2 7.3261649879262414e-01 -1.1784166896886105e+05 1.0000000000000000e+00 8.1601570296291948e-01 1.2613806034901009e+00 3.2001442176015033e+01 
1892 1494 2 5.5854881582697891e-01 9.4106834352451930e+04 1.0000000000000000e+00 1.0394767371303566e+00 3.2904397899815363e+00 3.1883289586818503e+01 
1840 1442 2 6.9091244892180903e-01 -5.9720097888294649e+03 1.0000000000000000e+00 1.4959608317181643e+00 1.3158381582309124e+00 3.1130323931766398e+01 
1660 1262 2 7.0453024322302782e-01 -1.9441314333978060e+05 1.0000000000000000e+00 6.3298095802046461e+00 3.9176465584854920e+00 3.2391765449503723e+01 
1442 1044 2 8.0447462968288197e-01 -8.5715473055089125e+04 1.0000000000000000e+00 4.4263541663411550e+00 9.8324025316973562e-01 3.1210296539190693e+01 
1671 1273 2 5.2478289298789971e-01 -5.5219415701049133e+04 1.0000000000000000e+00 5.4053437431594666e+00 2.2395879761987643e+00 3.2891733974151030e+01 
1020 622 2 8.7418649215452349e-01 2.5238089255193403e+05 1.0000000000000000e+00 7.9245165811296170e+00 3.3372618940459433e+00 3.2063520554329074e+01 
635 237 2 9.4457106798640444e-01 -3.3438706484513555e+05 1.0000000000000000e+00 7.7123537553329058e+00 2.7103469578725331e-01 3.1836437164487421e+01 
649 251 2 1.2869380508553538e+00 1.5292200286756092e+05 1.0000000000000000e+00 5.8652271384725676e+00 8.7811928352304103e-01 3.0397433203026861e+01 
1819 1421 2 1.3580152301960602e+00 6.3763659080252502e+04 1.0000000000000000e+00 6.0840765125340823e+00 1.2249502005634485e+00 3.1177213511561327e+01 
1860 1462 2 1.1745575783005100e+00 2.3306412083409453e+05 1.0000000000000000e+00 5.2232282728858026e+00 2.1620520978814017e+00 3.0599732496957632e+01 
662 264 2 6.1713089399534382e-01 5.4112946664267060e+04 1.0000000000000000e+00 7.8103922006672386e+00 3.3544582430440171e+00 3.0558984857528575e+01 
563 165 2 1.3333159141478408e+00 -4.0834843696746160e+05 1.0000000000000000e+00 5.9836016715773193e+00 1.8208559669625466e+00 3.0359077343999019e+01 
1435 1037 2 4.6237101154375904e-01 2.1388800589964521e+05 1.0000000000000000e+00 1.3489496132302261e+01 2.9770267129653925e+00 3.0047672628094666e+01 
1773 1375 2 6.0914801867795076e-01 -1.1995800834271892e+05 1.0000000000000000e+00 1.4783866202799951e+01 2.5334686387469203e+00 3.1688608199683763e+01 
449 51 2 5.9684229620171791e-01 -2.6558751042540401e+05 1.0000000000000000e+00 1.4913284963963406e+01 1.3375578775517734e+00 3.0942898331215854e+01 
448 50 2 7.1670100146948024e-01 -1.9256726020518137e+05 1.0000000000000000e+00 2.1649312989115939e+00 4.7354227926302901e+00 3.2722973269951495e+01 
886 488 2 9.1202309147662453e-01 -2.9995562087621097e+05 1.0000000000000000e+00 2.1571466821299876e+00 6.3105312807003040e+00 3.2852065794389496e+01 
1650 1252 2 8.6937303689120293e-01 1.4412726381974184e+05 1.0000000000000000e+00 7.4970834096929140e-01 5.3517519493729218e+00 3.3041025276013826e+01 
1050 652 2 7.6541847401695084e-01 -9.6540047378449395e+04 1.0000000000000000e+00 1.5356464669214078e+00 6.9896116380961146e+00 3.2512705506159882e+01 
1864 1466 2 9.7301881017396974e-01 -2.2241378651941830e+05 1.0000000000000000e+00 7.1782497611234461e+00 6.5234013218943021e+00 3.0355474451208199e+01 
1825 1427 2 7.6389350538186473e-01 -2.4048640352372047e+04 1.0000000000000000e+00 7.8614148716926238e+00 4.0558112881324799e+00 3.2951148064091683e+01 
437 39 2 9.9685425870580646e-01 1.0847382929128771e+05 1.0000000000000000e+00 7.8855768109667004e+00 6.8446166948586633e+00 3.0491725086468215e+01 
978 580 2 5.0490165238836071e-01 -4.7323986059721350e+05 1.0000000000000000e+00 5.7325222173772028e+00 4.8477409253796315e+00 3.0696109626034662e+01 
1863 1465 2 7.1977318927405332e-01 -4.9603464359145628e+03 1.0000000000000000e+00 6.1448246452754400e+00 7.9959357856240736e+00 3.1783274535420556e+01 
590 192 2 7.6113461509034241e-01 -4.3100222862037335e+04 1.0000000000000000e+00 9.9032816353651842e+00 7.2750790657576543e+00 2.9797317947320561e+01 
1496 1098 2 7.9935524781608636e-01 1.6772362693667313e+05 1.0000000000000000e+00 1.0149790320696242e+01 5.6152215329025736e+00 3.0135938308987132e+01 
1915 1517 2 9.3539556396905832e-01 -3.8836269963365841e+04 1.0000000000000000e+00 9.1561958598362487e+00 5.6679997007701601e+00 3.0683328152029294e+01 
1765 1367 2 4.2755220799316596e-01 1.6848400144633377e+05 1.0000000000000000e+00 1.7294806778217442e+00 1.0479730967401533e+01 3.2554841996963603e+01 
884 486 2 6.9507567863481845e-01 -1.2257569416270952e+05 1.0000000000000000e+00 7.0629500227956656e+00 9.4256572561273497e+00 3.1711493189455570e+01 