LAMMPS data file via write_data, version 30 Jul 2016, timestep = 30300000

1920 atoms
8 atom types

0.0000000000000000e+00 4.0000000000000000e+01 xlo xhi
0.0000000000000000e+00 4.0000000000000000e+01 ylo yhi
0.0000000000000000e+00 1.0000000000000000e+02 zlo zhi

Masses

1 3.896
2 5.36
3 20.064
4 8.378
5 8.378
6 8.378
7 8.378
8 8.378

Atoms # meso-molecular

1 2 4 2.2559723595316457e+00 1.7028626284452475e+03 1.0000000000000000e+00 0.0000000000000000e+00 0.0000000000000000e+00 2.5000000000000000e+00 
2 2 4 2.2559723595316457e+00 1.2472508417981931e+03 1.0000000000000000e+00 0.0000000000000000e+00 2.0000000000000000e+00 2.5000000000000000e+00 
21 2 4 2.2559723595316457e+00 1.6145895396319293e+03 1.0000000000000000e+00 2.0000000000000000e+00 0.0000000000000000e+00 2.5000000000000000e+00 
22 2 4 2.2559723595316457e+00 1.2097527046380196e+03 1.0000000000000000e+00 2.0000000000000000e+00 2.0000000000000000e+00 2.5000000000000000e+00 
41 2 4 2.2559723595316457e+00 1.2853150437806544e+03 1.0000000000000000e+00 4.0000000000000000e+00 0.0000000000000000e+00 2.5000000000000000e+00 
42 2 4 2.2559723595316457e+00 9.7441086738466686e+02 1.0000000000000000e+00 4.0000000000000000e+00 2.0000000000000000e+00 2.5000000000000000e+00 
61 2 4 2.2559723595316457e+00 1.3942286104964996e+03 1.0000000000000000e+00 6.0000000000000000e+00 0.0000000000000000e+00 2.5000000000000000e+00 
62 2 4 2.2559723595316457e+00 1.0350238990874468e+03 1.0000000000000000e+00 6.0000000000000000e+00 2.0000000000000000e+00 2.5000000000000000e+00 
81 2 4 2.2559723595316457e+00 1.8009512287516045e+03 1.0000000000000000e+00 8.0000000000000000e+00 0.0000000000000000e+00 2.5000000000000000e+00 
82 2 4 2.2559723595316457e+00 1.4684611587679437e+03 1.0000000000000000e+00 8.0000000000000000e+00 2.0000000000000000e+00 2.5000000000000000e+00 
101 2 4 2.2559723595316457e+00 1.3488623245141048e+03 1.0000000000000000e+00 1.0000000000000000e+01 0.0000000000000000e+00 2.5000000000000000e+00 
102 2 4 2.2559723595316457e+00 9.1008973591540791e+02 1.0000000000000000e+00 1.0000000000000000e+01 2.0000000000000000e+00 2.5000000000000000e+00 
121 2 4 2.2559723595316457e+00 1.0738033013890649e+03 1.0000000000000000e+00 1.2000000000000000e+01 0.0000000000000000e+00 2.5000000000000000e+00 
122 2 4 2.2559723595316457e+00 5.7913627305503178e+02 1.0000000000000000e+00 1.2000000000000000e+01 2.0000000000000000e+00 2.5000000000000000e+00 
141 2 4 2.2559723595316457e+00 8.2848969649361243e+02 1.0000000000000000e+00 1.4000000000000000e+01 0.0000000000000000e+00 2.5000000000000000e+00 
142 2 4 2.2559723595316457e+00 6.0506762333719064e+02 1.0000000000000000e+00 1.4000000000000000e+01 2.0000000000000000e+00 2.5000000000000000e+00 
161 2 4 2.2559723595316457e+00 1.1351936667223545e+03 1.0000000000000000e+00 1.6000000000000000e+01 0.0000000000000000e+00 2.5000000000000000e+00 
162 2 4 2.2559723595316457e+00 1.1541335181065870e+03 1.0000000000000000e+00 1.6000000000000000e+01 2.0000000000000000e+00 2.5000000000000000e+00 
181 2 4 2.2559723595316457e+00 1.3757687452249775e+03 1.0000000000000000e+00 1.8000000000000000e+01 0.0000000000000000e+00 2.5000000000000000e+00 
182 2 4 2.2559723059684802e+00 1.3955289646551239e+03 1.0000000000000000e+00 1.8000000000000000e+01 2.0000000000000000e+00 2.5000000000000000e+00 
3 2 4 2.2559723595316457e+00 1.0379564015700785e+03 1.0000000000000000e+00 0.0000000000000000e+00 4.0000000000000000e+00 2.5000000000000000e+00 
4 2 4 2.2559723595316457e+00 1.1004602666771193e+03 1.0000000000000000e+00 0.0000000000000000e+00 6.0000000000000000e+00 2.5000000000000000e+00 
23 2 4 2.2559723595316457e+00 6.6508455645326057e+02 1.0000000000000000e+00 2.0000000000000000e+00 4.0000000000000000e+00 2.5000000000000000e+00 
24 2 4 2.2559723595316457e+00 7.2245801420276632e+02 1.0000000000000000e+00 2.0000000000000000e+00 6.0000000000000000e+00 2.5000000000000000e+00 
43 2 4 2.2559723595316457e+00 3.9832023507945325e+02 1.0000000000000000e+00 4.0000000000000000e+00 4.0000000000000000e+00 2.5000000000000000e+00 
44 2 4 2.2559723595316457e+00 3.8073173951505993e+02 1.0000000000000000e+00 4.0000000000000000e+00 6.0000000000000000e+00 2.5000000000000000e+00 
63 2 4 2.2559723595316457e+00 5.6713634220409710e+02 1.0000000000000000e+00 6.0000000000000000e+00 4.0000000000000000e+00 2.5000000000000000e+00 
64 2 4 2.2559723595316457e+00 6.4606292288324812e+02 1.0000000000000000e+00 6.0000000000000000e+00 6.0000000000000000e+00 2.5000000000000000e+00 
83 2 4 2.2559723595316457e+00 7.2252489494485326e+02 1.0000000000000000e+00 8.0000000000000000e+00 4.0000000000000000e+00 2.5000000000000000e+00 
84 2 4 2.2559723595316457e+00 7.5935486642517526e+02 1.0000000000000000e+00 8.0000000000000000e+00 6.0000000000000000e+00 2.5000000000000000e+00 
103 2 4 2.2559723595316457e+00 5.5816672503991413e+02 1.0000000000000000e+00 1.0000000000000000e+01 4.0000000000000000e+00 2.5000000000000000e+00 
104 2 4 2.2559723595316457e+00 8.2349960877297485e+02 1.0000000000000000e+00 1.0000000000000000e+01 6.0000000000000000e+00 2.5000000000000000e+00 
123 2 4 2.2559723595316457e+00 5.3832677011782152e+02 1.0000000000000000e+00 1.2000000000000000e+01 4.0000000000000000e+00 2.5000000000000000e+00 
124 2 4 2.2559723595316457e+00 8.4433292540050650e+02 1.0000000000000000e+00 1.2000000000000000e+01 6.0000000000000000e+00 2.5000000000000000e+00 
143 2 4 2.2559727828238216e+00 9.2282105029890386e+02 1.0000000000000000e+00 1.4000000000000000e+01 4.0000000000000000e+00 2.5000000000000000e+00 
144 2 4 2.2559734201063466e+00 1.2506499955386571e+03 1.0000000000000000e+00 1.4000000000000000e+01 6.0000000000000000e+00 2.5000000000000000e+00 
163 2 4 2.2559731857088550e+00 1.2909531488835485e+03 1.0000000000000000e+00 1.6000000000000000e+01 4.0000000000000000e+00 2.5000000000000000e+00 
164 2 4 2.2559735750425434e+00 1.5079253948381065e+03 1.0000000000000000e+00 1.6000000000000000e+01 6.0000000000000000e+00 2.5000000000000000e+00 
183 2 4 2.2559712527348892e+00 1.4116516399110762e+03 1.0000000000000000e+00 1.8000000000000000e+01 4.0000000000000000e+00 2.5000000000000000e+00 
184 2 4 2.2559723348959837e+00 1.1782678681208238e+03 1.0000000000000000e+00 1.8000000000000000e+01 6.0000000000000000e+00 2.5000000000000000e+00 
5 2 4 2.2559723341925229e+00 1.0579063693352361e+03 1.0000000000000000e+00 0.0000000000000000e+00 8.0000000000000000e+00 2.5000000000000000e+00 
6 2 4 2.2559723595316457e+00 8.5509005662944901e+02 1.0000000000000000e+00 0.0000000000000000e+00 1.0000000000000000e+01 2.5000000000000000e+00 
25 2 4 2.2559723595316457e+00 8.3531036412456911e+02 1.0000000000000000e+00 2.0000000000000000e+00 8.0000000000000000e+00 2.5000000000000000e+00 
26 2 4 2.2559723595316457e+00 7.2115767173086306e+02 1.0000000000000000e+00 2.0000000000000000e+00 1.0000000000000000e+01 2.5000000000000000e+00 
45 2 4 2.2559723595316457e+00 6.8863549558047066e+02 1.0000000000000000e+00 4.0000000000000000e+00 8.0000000000000000e+00 2.5000000000000000e+00 
46 2 4 2.2559723595316457e+00 8.0295179989493568e+02 1.0000000000000000e+00 4.0000000000000000e+00 1.0000000000000000e+01 2.5000000000000000e+00 
65 2 4 2.2559723595316457e+00 8.9502432049259562e+02 1.0000000000000000e+00 6.0000000000000000e+00 8.0000000000000000e+00 2.5000000000000000e+00 
66 2 4 2.2559723595316457e+00 9.3681033330858668e+02 1.0000000000000000e+00 6.0000000000000000e+00 1.0000000000000000e+01 2.5000000000000000e+00 
85 2 4 2.2559723595316457e+00 8.6828871184667355e+02 1.0000000000000000e+00 8.0000000000000000e+00 8.0000000000000000e+00 2.5000000000000000e+00 
86 2 4 2.2559723595316457e+00 9.8975257611790948e+02 1.0000000000000000e+00 8.0000000000000000e+00 1.0000000000000000e+01 2.5000000000000000e+00 
105 2 4 2.2559723595316457e+00 8.9429039584762040e+02 1.0000000000000000e+00 1.0000000000000000e+01 8.0000000000000000e+00 2.5000000000000000e+00 
106 2 4 2.2559723595316457e+00 1.0534177217782499e+03 1.0000000000000000e+00 1.0000000000000000e+01 1.0000000000000000e+01 2.5000000000000000e+00 
125 2 4 2.2559723595316457e+00 6.7273986937016684e+02 1.0000000000000000e+00 1.2000000000000000e+01 8.0000000000000000e+00 2.5000000000000000e+00 
126 2 4 2.2559723595316457e+00 8.7723018216079458e+02 1.0000000000000000e+00 1.2000000000000000e+01 1.0000000000000000e+01 2.5000000000000000e+00 
145 2 4 2.2559724240734198e+00 9.2660817541906363e+02 1.0000000000000000e+00 1.4000000000000000e+01 8.0000000000000000e+00 2.5000000000000000e+00 
146 2 4 2.2559723595316457e+00 4.0430461137891837e+02 1.0000000000000000e+00 1.4000000000000000e+01 1.0000000000000000e+01 2.5000000000000000e+00 
165 2 4 2.2559723598668620e+00 7.2129923309198125e+02 1.0000000000000000e+00 1.6000000000000000e+01 8.0000000000000000e+00 2.5000000000000000e+00 
166 2 4 2.2559723595316457e+00 -5.2420636889039793e+02 1.0000000000000000e+00 1.6000000000000000e+01 1.0000000000000000e+01 2.5000000000000000e+00 
185 2 4 2.2559723595316457e+00 1.5896827147445219e+02 1.0000000000000000e+00 1.8000000000000000e+01 8.0000000000000000e+00 2.5000000000000000e+00 
186 2 4 2.2559723595316457e+00 -7.6566997337487760e+02 1.0000000000000000e+00 1.8000000000000000e+01 1.0000000000000000e+01 2.5000000000000000e+00 
7 2 4 2.2559723595316457e+00 6.7375676705122873e+02 1.0000000000000000e+00 0.0000000000000000e+00 1.2000000000000000e+01 2.5000000000000000e+00 
8 2 4 2.2559723595316457e+00 5.6958024148263780e+02 1.0000000000000000e+00 0.0000000000000000e+00 1.4000000000000000e+01 2.5000000000000000e+00 
27 2 4 2.2559723595316457e+00 8.0018897865526651e+02 1.0000000000000000e+00 2.0000000000000000e+00 1.2000000000000000e+01 2.5000000000000000e+00 
28 2 4 2.2559723595316457e+00 8.2114649237671642e+02 1.0000000000000000e+00 2.0000000000000000e+00 1.4000000000000000e+01 2.5000000000000000e+00 
47 2 4 2.2559723595316457e+00 8.6634047626277902e+02 1.0000000000000000e+00 4.0000000000000000e+00 1.2000000000000000e+01 2.5000000000000000e+00 
48 2 4 2.2559723595316457e+00 1.1466405642011096e+03 1.0000000000000000e+00 4.0000000000000000e+00 1.4000000000000000e+01 2.5000000000000000e+00 
67 2 4 2.2559723595316457e+00 8.4371092611715562e+02 1.0000000000000000e+00 6.0000000000000000e+00 1.2000000000000000e+01 2.5000000000000000e+00 
68 2 4 2.2559723595316457e+00 9.1893919740120498e+02 1.0000000000000000e+00 6.0000000000000000e+00 1.4000000000000000e+01 2.5000000000000000e+00 
87 2 4 2.2559723595316457e+00 5.3708319605188080e+02 1.0000000000000000e+00 8.0000000000000000e+00 1.2000000000000000e+01 2.5000000000000000e+00 
88 2 4 2.2559723595316457e+00 4.4708790208443986e+02 1.0000000000000000e+00 8.0000000000000000e+00 1.4000000000000000e+01 2.5000000000000000e+00 
107 2 4 2.2559723595316457e+00 8.3452275324201878e+02 1.0000000000000000e+00 1.0000000000000000e+01 1.2000000000000000e+01 2.5000000000000000e+00 
108 2 4 2.2559723595316457e+00 3.4540131819998328e+02 1.0000000000000000e+00 1.0000000000000000e+01 1.4000000000000000e+01 2.5000000000000000e+00 
127 2 4 2.2559723595316457e+00 8.5201583816627635e+02 1.0000000000000000e+00 1.2000000000000000e+01 1.2000000000000000e+01 2.5000000000000000e+00 
128 2 4 2.2559723595316457e+00 4.6395666772042574e+02 1.0000000000000000e+00 1.2000000000000000e+01 1.4000000000000000e+01 2.5000000000000000e+00 
147 2 4 2.2559723595316457e+00 1.3187542557154251e+02 1.0000000000000000e+00 1.4000000000000000e+01 1.2000000000000000e+01 2.5000000000000000e+00 
148 2 4 2.2559723595316457e+00 7.2231512915839005e+01 1.0000000000000000e+00 1.4000000000000000e+01 1.4000000000000000e+01 2.5000000000000000e+00 
167 2 4 2.2559723595316457e+00 -1.0557158728341681e+03 1.0000000000000000e+00 1.6000000000000000e+01 1.2000000000000000e+01 2.5000000000000000e+00 
168 2 4 2.2559723595316457e+00 -1.1078040625674951e+03 1.0000000000000000e+00 1.6000000000000000e+01 1.4000000000000000e+01 2.5000000000000000e+00 
187 2 4 2.2559723595316457e+00 -1.0395289649890781e+03 1.0000000000000000e+00 1.8000000000000000e+01 1.2000000000000000e+01 2.5000000000000000e+00 
188 2 4 2.2559723595316457e+00 -1.0361734624391179e+03 1.0000000000000000e+00 1.8000000000000000e+01 1.4000000000000000e+01 2.5000000000000000e+00 
9 2 4 2.2559723595316457e+00 8.5599735324693233e+02 1.0000000000000000e+00 0.0000000000000000e+00 1.6000000000000000e+01 2.5000000000000000e+00 
10 2 4 2.2559723595316457e+00 9.3425111212267996e+02 1.0000000000000000e+00 0.0000000000000000e+00 1.8000000000000000e+01 2.5000000000000000e+00 
29 2 4 2.2559723595316457e+00 6.1947710081825289e+02 1.0000000000000000e+00 2.0000000000000000e+00 1.6000000000000000e+01 2.5000000000000000e+00 
30 2 4 2.2559723595316457e+00 7.2208490302266318e+02 1.0000000000000000e+00 2.0000000000000000e+00 1.8000000000000000e+01 2.5000000000000000e+00 
49 2 4 2.2559723595316457e+00 8.7496774706508199e+02 1.0000000000000000e+00 4.0000000000000000e+00 1.6000000000000000e+01 2.5000000000000000e+00 
50 2 4 2.2559723595316457e+00 7.6612598540630506e+02 1.0000000000000000e+00 4.0000000000000000e+00 1.8000000000000000e+01 2.5000000000000000e+00 
69 2 4 2.2559723595316457e+00 8.6834917974818882e+02 1.0000000000000000e+00 6.0000000000000000e+00 1.6000000000000000e+01 2.5000000000000000e+00 
70 2 4 2.2559723595316457e+00 1.2354939765890799e+03 1.0000000000000000e+00 6.0000000000000000e+00 1.8000000000000000e+01 2.5000000000000000e+00 
89 2 4 2.2559723595316457e+00 1.0065235598239540e+03 1.0000000000000000e+00 8.0000000000000000e+00 1.6000000000000000e+01 2.5000000000000000e+00 
90 2 4 2.2559723595316457e+00 1.5954287746536538e+03 1.0000000000000000e+00 8.0000000000000000e+00 1.8000000000000000e+01 2.5000000000000000e+00 
109 2 4 2.2559723595316457e+00 7.5791812401925245e+02 1.0000000000000000e+00 1.0000000000000000e+01 1.6000000000000000e+01 2.5000000000000000e+00 
110 2 4 2.2559723595316457e+00 1.3171704200847994e+03 1.0000000000000000e+00 1.0000000000000000e+01 1.8000000000000000e+01 2.5000000000000000e+00 
129 2 4 2.2559723595316457e+00 7.7742517280462152e+02 1.0000000000000000e+00 1.2000000000000000e+01 1.6000000000000000e+01 2.5000000000000000e+00 
130 2 4 2.2559723595316457e+00 1.4312276973222070e+03 1.0000000000000000e+00 1.2000000000000000e+01 1.8000000000000000e+01 2.5000000000000000e+00 
149 2 4 2.2559723595316457e+00 4.4465721920135218e+02 1.0000000000000000e+00 1.4000000000000000e+01 1.6000000000000000e+01 2.5000000000000000e+00 
150 2 4 2.2559723595316457e+00 8.7134579480420120e+02 1.0000000000000000e+00 1.4000000000000000e+01 1.8000000000000000e+01 2.5000000000000000e+00 
169 2 4 2.2559723595316457e+00 -8.3639752663125250e+02 1.0000000000000000e+00 1.6000000000000000e+01 1.6000000000000000e+01 2.5000000000000000e+00 
170 2 4 2.2559723595316457e+00 -6.0648421943494930e+02 1.0000000000000000e+00 1.6000000000000000e+01 1.8000000000000000e+01 2.5000000000000000e+00 
189 2 4 2.2559723595316457e+00 -8.8391379657580910e+02 1.0000000000000000e+00 1.8000000000000000e+01 1.6000000000000000e+01 2.5000000000000000e+00 
190 2 4 2.2559723595316457e+00 -1.0341196462582102e+03 1.0000000000000000e+00 1.8000000000000000e+01 1.8000000000000000e+01 2.5000000000000000e+00 
940 542 2 6.7094424932865082e-01 4.5782845093281358e+03 1.0000000000000000e+00 1.9804160922310217e+01 3.2554237127756283e+00 9.7754153754476381e+00 
1881 1483 2 5.9731231632900295e-01 -2.0392470157561437e+05 1.0000000000000000e+00 1.8886581439778244e+01 3.5561660305014593e+00 1.0794041254884227e+01 
1903 1505 2 1.2279171001502776e+00 -1.5467723628118864e+05 1.0000000000000000e+00 1.9122234530727489e+01 5.9134364871127589e+00 1.0955599431392045e+01 
1005 607 2 6.3834597576761831e-01 -8.2484373952016012e+03 1.0000000000000000e+00 1.9119767586645171e+01 6.8026415643466924e+00 9.6029791616154334e+00 
407 9 2 1.3367469208907423e+00 1.0855092373658101e+05 1.0000000000000000e+00 1.9237343787397489e+01 7.8918674998166676e+00 1.1700419704998106e+01 
1648 1250 2 7.2792295948678787e-01 -7.8080083944120459e+04 1.0000000000000000e+00 1.7848024880036107e+01 6.2306082803484966e+00 1.1296012034278640e+01 
1257 859 2 1.4095905633192580e+00 -3.9937178922480882e+04 1.0000000000000000e+00 1.9029048549210671e+01 7.3990276833183053e+00 1.1965626462498182e+01 
1137 739 2 6.1404738239641199e-01 3.2908931276795687e+04 1.0000000000000000e+00 1.8267856345123313e+01 7.8011730142427558e+00 1.3299402172385033e+01 
759 361 2 4.2762743063072212e-01 1.7885822955326946e+05 1.0000000000000000e+00 5.0781908813448453e+00 1.1432042111626021e+01 1.3069883044201489e+01 
1400 1002 2 1.1559871987783048e+00 -1.6577513379432901e+05 1.0000000000000000e+00 1.9620849228081067e+01 8.0774133580894674e+00 1.1407695745821101e+01 
1771 1373 2 6.5274532693886667e-01 -2.1881988143105569e+05 1.0000000000000000e+00 2.1239874365641169e+00 1.4071844727244448e+01 1.4498580025278770e+01 
1015 617 2 6.9526022655647113e-01 1.5525711995069124e+05 1.0000000000000000e+00 9.9792478750698599e-01 1.4064814949866141e+01 1.5580380889790328e+01 
1143 745 2 8.4605405041426318e-01 1.1875492926119952e+05 1.0000000000000000e+00 3.2949581752362533e+00 1.4678955084691836e+01 1.5667398875870139e+01 
734 336 2 9.9658712721714326e-01 -3.6124353838190512e+05 1.0000000000000000e+00 3.9892928567337158e+00 1.4630561309513887e+01 1.6853418155440991e+01 
472 74 2 1.0420139346347210e+00 1.9256311610526551e+05 1.0000000000000000e+00 3.8985155601021781e+00 1.5156777613022332e+01 1.7598376935589240e+01 
1686 1288 2 7.9920891970954955e-01 -1.9758427073400878e+03 1.0000000000000000e+00 2.1408651348714844e+00 1.4476202959979553e+01 1.6629215959450768e+01 
1151 753 2 4.8086384488725009e-01 2.1991975320382442e+05 1.0000000000000000e+00 1.2261961930046181e+00 1.6164846028398387e+01 1.5560764680277481e+01 
594 196 2 4.2766717824798350e-01 1.6169574987345512e+04 1.0000000000000000e+00 3.7614893046427924e+00 1.8210853483137893e+01 1.5923736085937051e+01 
1080 682 2 1.3807086228232717e+00 -1.9471228678040401e+05 1.0000000000000000e+00 1.9868681006180047e+01 1.9568375638806465e+01 1.6061473566169660e+01 
1732 1334 2 1.0065678500753825e+00 -1.0436432549490477e+05 1.0000000000000000e+00 1.1020315130692564e+01 6.7601165659813454e+00 2.1505670567896118e+01 
1604 1206 2 9.6849331299854879e-01 -5.9540472430685819e+04 1.0000000000000000e+00 1.0882608386252784e+01 6.2127732217630340e+00 2.0645932696030012e+01 
868 470 2 6.6837139974174731e-01 -9.1697249251144254e+04 1.0000000000000000e+00 1.0303030086692349e+01 5.1792902053840901e+00 2.1465819914485582e+01 
514 116 2 8.0266855348944144e-01 -1.3256549112535513e+04 1.0000000000000000e+00 1.2123026914069314e+01 6.7325826434348714e+00 2.1343201254596845e+01 
1523 1125 2 4.2765335133383364e-01 2.5212675359761075e+05 1.0000000000000000e+00 1.4349702490472444e+01 9.0534487727010191e+00 1.9117317220101867e+01 
818 420 2 7.9682980772509293e-01 4.4164880379473070e+04 1.0000000000000000e+00 3.0240950514009546e+00 1.5858303670780751e+01 1.8855825754557639e+01 
477 79 2 6.6265434657942579e-01 -8.7706826975822318e+04 1.0000000000000000e+00 2.9751600746560070e+00 1.5906035848100894e+01 1.9994183987262041e+01 
1181 783 2 6.9969397309628767e-01 -3.8154939237722239e+04 1.0000000000000000e+00 4.7003002203904440e+00 1.4826034982994972e+01 1.8634824735964152e+01 
504 106 2 4.2764265545244146e-01 3.1706167063721135e+04 1.0000000000000000e+00 2.1101967350771464e+00 1.1760327219029454e+01 2.5699757908951725e+01 
803 405 2 4.2764601635994176e-01 -2.1058976838657988e+05 1.0000000000000000e+00 1.6799623459945810e+01 1.4563359762062104e+01 2.3990724231107329e+01 
1153 755 2 4.2764601635994176e-01 3.3685190477322649e+04 1.0000000000000000e+00 1.0715058254404186e+01 1.6036317905024671e+01 2.8499993779674352e+01 
1827 1429 2 4.7326950012952851e-01 7.8846480800118487e+04 1.0000000000000000e+00 1.5248220720846273e+01 8.3586109505759953e-01 3.1976194430503597e+01 
633 235 2 4.2764601635994176e-01 6.6605250548096476e+04 1.0000000000000000e+00 1.6955700223059232e+01 7.3886324810494459e+00 3.1803680759482525e+01 
1806 1408 2 4.2764601635994176e-01 -8.5255932897046267e+04 1.0000000000000000e+00 6.4460305611632265e+00 1.0678711091981320e+01 3.0119384453548200e+01 
1066 668 2 1.0623991037948610e+00 -4.3350833585751228e+04 1.0000000000000000e+00 6.0608652974275454e+00 3.6353898485799818e-01 3.6519586967390495e+01 
1495 1097 2 4.3690996477142058e-01 -5.8147800541012430e+03 1.0000000000000000e+00 7.6493736488268658e+00 1.9593448199037926e+00 3.5825802846192744e+01 
1546 1148 2 7.5752279635114472e-01 1.1258280345441822e+05 1.0000000000000000e+00 1.1639316130353910e+01 7.2297823807944983e-01 3.5779527591135455e+01 
401 3 2 5.6270060868707972e-01 1.3694337462358453e+05 1.0000000000000000e+00 1.0043515981471007e+01 7.2473599093849572e-01 3.6923935734186621e+01 
1866 1468 2 9.6540977529762395e-01 5.3493776590710775e+04 1.0000000000000000e+00 1.4136121039072634e+01 8.8134644337460299e-01 3.4668699827483920e+01 
785 387 2 9.6958700222639060e-01 -1.2964829828014148e+05 1.0000000000000000e+00 1.2249688967622129e+01 1.2169244218439240e-02 3.6934834297186612e+01 
1883 1485 2 5.1512943809769318e-01 -6.8766839822874499e+03 1.0000000000000000e+00 1.2034969785306039e+01 1.0358892415311827e+00 3.3943666303973174e+01 
1467 1069 2 8.0335979879334207e-01 -3.8168652276118897e+04 1.0000000000000000e+00 1.5401507637359806e+01 9.9829383188152365e-01 3.4488574642156692e+01 
927 529 2 6.4864448365708804e-01 -1.8752040091039645e+05 1.0000000000000000e+00 1.7952598566429561e+01 1.8344316045428782e-01 3.6411489645442529e+01 
884 486 2 7.3314081177201906e-01 -1.2753845831714639e+05 1.0000000000000000e+00 1.8207142230471071e+01 1.5740732391125263e+01 3.6717224347158933e+01 
1130 732 2 6.5214117107139602e-01 7.1619423811717716e+04 1.0000000000000000e+00 1.8790125085919950e+01 1.4727877917977542e+01 3.6206470589733975e+01 
1746 1348 2 5.7039536068025809e-01 5.1437691295040742e+04 1.0000000000000000e+00 1.8947700959267831e+01 1.6983447414504429e+01 3.5448366628115295e+01 
1037 639 2 5.1153560047709035e-01 1.7641444516779055e+05 1.0000000000000000e+00 1.9556376929934629e+01 1.7616932567119704e+01 3.3950317190371983e+01 
1127 729 2 6.4057827577988002e-01 3.6786707374052028e+05 1.0000000000000000e+00 1.5554055261948816e+01 1.2605711461622402e+00 3.8609475197176870e+01 
1701 1303 2 6.4115175710869043e-01 1.7733159473652602e+05 1.0000000000000000e+00 1.4916483908693866e+01 9.1439345742239653e-01 3.9568967798162880e+01 
1167 769 2 1.0372332001045612e+00 3.0675657844076428e+05 1.0000000000000000e+00 1.9313521823115963e+01 2.5138572313785162e-01 4.0602933362035706e+01 
1698 1300 2 9.1503832583321021e-01 6.3104501019620911e+04 1.0000000000000000e+00 1.8838512720092083e+01 9.0576653107379301e-01 4.0449049460495985e+01 
1300 902 2 4.2767834056796106e-01 7.3634631170059783e+03 1.0000000000000000e+00 1.2544862442949873e+01 9.5782268893577456e+00 4.0558989843874066e+01 
948 550 2 4.2837135152029188e-01 1.0182473691306220e+05 1.0000000000000000e+00 1.8367929698220848e+01 9.9984464895972440e+00 3.8860426430026990e+01 
534 136 2 4.6650901261976946e-01 1.0238787172075314e+05 1.0000000000000000e+00 1.1300196268309637e+01 1.3160133759995388e+01 4.0359171456870392e+01 
992 594 2 4.2763958879116060e-01 2.7690072743299726e+05 1.0000000000000000e+00 1.2795474028452908e+01 1.3705669430343910e+01 3.7491404229909456e+01 
684 286 2 5.1316021705877246e-01 2.0313777837699107e+05 1.0000000000000000e+00 1.8093549156048965e+01 1.4679074045200766e+01 3.8239620053603808e+01 
1513 1115 2 7.1932825908638998e-01 -4.8565116802791817e+04 1.0000000000000000e+00 6.5908307770601509e+00 1.9520332951396529e+01 3.8342011254812782e+01 
1330 932 2 6.0804100507631242e-01 -8.4544271806371529e+04 1.0000000000000000e+00 5.7010728414320377e+00 1.9870399599612913e+01 3.9257896885141193e+01 
1666 1268 2 5.4023139231539841e-01 -4.1067426366921172e+04 1.0000000000000000e+00 6.7489950634285760e+00 1.8236262338080756e+01 3.7399226938391358e+01 
1197 799 2 4.2757364430449873e-01 2.8133113896234267e+04 1.0000000000000000e+00 5.4392423169089312e+00 7.6741497789255297e-01 4.0851003410848577e+01 
1791 1393 2 8.0819750224131603e-01 9.1561855378594395e+04 1.0000000000000000e+00 1.8519975987615418e+01 3.0517028817238495e-01 4.1722633939920755e+01 
550 152 2 4.6652875516137021e-01 -1.8184605917356325e+03 1.0000000000000000e+00 1.0863655127895806e+01 1.2214661560490736e+01 4.2083693721574562e+01 
900 502 2 4.3157019342770025e-01 1.5596210321436002e+05 1.0000000000000000e+00 4.7696439592318089e+00 1.2419730041518429e+00 4.4826622246375983e+01 
476 78 2 4.3049545917837467e-01 -6.7973544469849920e+04 1.0000000000000000e+00 1.1624827358919509e+01 1.0418466121960472e+00 4.4825266817913992e+01 
1857 1459 2 4.2768250321998058e-01 1.9880914140841976e+05 1.0000000000000000e+00 9.9057516060629869e+00 3.4755316798287983e+00 4.6455174326593742e+01 
629 231 2 4.2764770001421110e-01 -2.2386904259939844e+05 1.0000000000000000e+00 1.7799764541943453e+01 1.6737615767309670e+01 4.7600885616680671e+01 
1196 798 2 9.7548015790544396e-01 8.0076518782911604e+04 1.0000000000000000e+00 6.6395993441463892e+00 4.9563203646610682e-02 5.0502015452338469e+01 
693 295 2 5.4352511127452874e-01 1.4232292933302914e+05 1.0000000000000000e+00 1.0012044237134289e+01 1.4610593392064111e+00 5.1719733591049483e+01 
742 344 2 6.6511108186800227e-01 4.3326887819469668e+05 1.0000000000000000e+00 8.5052405423155637e+00 2.5218797561995276e-01 4.9340950065238275e+01 
642 244 2 4.8169511670601189e-01 1.9380422068368646e+03 1.0000000000000000e+00 1.0821928913630959e+01 1.5845018721671971e+00 4.8983204797682987e+01 
1640 1242 2 7.1180538503189739e-01 -2.2452280096637606e+05 1.0000000000000000e+00 9.5167051902953599e+00 8.3409283699323655e-01 5.0217830649591654e+01 
1658 1260 2 4.5316944696939199e-01 -2.1823951638742691e+05 1.0000000000000000e+00 9.5301668777839001e+00 3.4603937067818968e+00 5.1147654135156280e+01 
862 464 2 6.8276166496506019e-01 8.2451086744989916e+03 1.0000000000000000e+00 1.3871673845003698e+01 1.1600832707004676e+00 4.9995790088261074e+01 
1131 733 2 5.0577903259528356e-01 2.2174105352054513e+05 1.0000000000000000e+00 1.4457674908616520e+01 3.7117631085081975e+00 4.9223856259435841e+01 
1756 1358 2 7.7499979223289606e-01 -1.7449560120050184e+05 1.0000000000000000e+00 1.4164940704602456e+01 1.9574577070342321e+00 4.9251226028624089e+01 
714 316 2 4.9223013593750919e-01 2.4372498809625366e+05 1.0000000000000000e+00 1.6375244541177384e+01 7.8021301035173696e-01 5.1104140380662052e+01 
1760 1362 2 5.1487865900997709e-01 -1.2936387083599663e+05 1.0000000000000000e+00 1.6165352214357025e+01 1.7991186653098337e+00 4.9226228334192641e+01 
1416 1018 2 4.4499662266107237e-01 1.1826090683307023e+05 1.0000000000000000e+00 1.8189378935573579e+01 2.2403722190057316e+00 4.8404179844442623e+01 
1802 1404 2 6.9904556114529015e-01 -1.0526400861483767e+05 1.0000000000000000e+00 1.9874570331645529e+01 5.0320226500734266e-01 5.0522572604312792e+01 
570 172 2 4.2764117150168912e-01 -1.3369060834802705e+04 1.0000000000000000e+00 4.0599984787937053e+00 1.0517720456601111e+01 4.9942996868778700e+01 
694 296 2 5.0462217057812819e-01 6.2655780499850865e+04 1.0000000000000000e+00 4.4390707099688971e+00 3.0818900591136705e-01 5.4561424163670345e+01 
1463 1065 2 4.5087414713296931e-01 -4.9799850436976337e+05 1.0000000000000000e+00 1.7355623150501522e+01 1.7646351237339108e+00 5.2899453631223970e+01 
1582 1184 2 4.2763593625055013e-01 -6.6611134417167545e+04 1.0000000000000000e+00 7.8455528734808633e-01 1.0270834622472117e+01 5.3488618490656023e+01 
787 389 2 4.2762700807625065e-01 4.9007351618466106e+04 1.0000000000000000e+00 2.9547146834670488e+00 8.8552757096499324e+00 5.4888927336714310e+01 
1435 1037 2 4.2766023095631822e-01 1.8974854372971389e+05 1.0000000000000000e+00 9.0053180636347587e+00 1.5628694994726812e+01 5.3831330852627730e+01 
1401 1003 2 5.5838472202927780e-01 5.7115546053267251e+04 1.0000000000000000e+00 2.3529712389349302e+00 2.1139657773845025e-01 5.5809476782216407e+01 
1632 1234 2 4.2764055633585180e-01 -6.6689728572831329e+04 1.0000000000000000e+00 7.5499004727168897e+00 1.2721379287205270e+00 5.6304854955289152e+01 
969 571 2 4.2764999817170346e-01 5.5786882823878368e+04 1.0000000000000000e+00 1.1941853715107909e+01 4.3460505466375471e-01 5.6944946953683569e+01 
1819 1421 2 5.4209353273710126e-01 7.7098695579618361e+04 1.0000000000000000e+00 1.9665327154395392e+01 2.6127214845997901e+00 5.6452640752640960e+01 
1451 1053 2 5.1110537037480774e-01 -9.0486266836832961e+04 1.0000000000000000e+00 1.7930550924542388e+01 2.6903515740856787e+00 5.6507279185075269e+01 
635 237 2 4.2764232687904180e-01 -3.5634147507365624e+05 1.0000000000000000e+00 1.6641192959257765e+01 6.8850909307313666e+00 5.8003218966120087e+01 
438 40 2 4.2766023095631822e-01 -3.4742018171914839e+04 1.0000000000000000e+00 8.5544986650899837e+00 1.3433089311005160e+01 5.5821304983403763e+01 
662 264 2 8.0352721623876988e-01 5.2103737669489492e+04 1.0000000000000000e+00 8.2584957656631397e-01 3.2573648611931456e+00 6.1721565230203595e+01 
1464 1066 2 8.3228757242095119e-01 2.0337015500027454e+05 1.0000000000000000e+00 6.6511724752690371e-01 2.6627167197268751e+00 6.1936904164018699e+01 
887 489 2 5.7547235885183612e-01 -1.3609100427223937e+05 1.0000000000000000e+00 3.6313336599201951e+00 2.1320141949145524e+00 6.3499655270598311e+01 
474 76 2 5.4365433928347795e-01 2.3307476659056023e+05 1.0000000000000000e+00 3.6855727998071535e+00 3.4308780183610441e+00 6.4483837671446253e+01 
867 469 2 6.8228537086093866e-01 -6.9641516053426327e+04 1.0000000000000000e+00 1.0716711997363393e+00 2.2566089314954394e+00 6.4362338544540236e+01 
1309 911 2 8.0196223582885451e-01 -1.3045923705866907e+05 1.0000000000000000e+00 1.7007992003761045e+00 2.6119007672582231e+00 6.3581343975064428e+01 
746 348 2 4.2764602476460428e-01 2.4141206172275099e+04 1.0000000000000000e+00 7.9495632862646310e+00 7.3858551511798369e+00 6.5677304375718862e+01 
1901 1503 2 5.1779069865078986e-01 -2.5185672938492527e+05 1.0000000000000000e+00 1.3255931628057551e+01 2.4543216725838981e+00 7.3450951514066659e+01 