LAMMPS data file via write_data, version 30 Jul 2016, timestep = 50000000

2080 atoms
8 atom types

0.0000000000000000e+00 4.0000000000000000e+01 xlo xhi
0.0000000000000000e+00 4.0000000000000000e+01 ylo yhi
0.0000000000000000e+00 1.0000000000000000e+02 zlo zhi

Masses

1 3.896
2 5.36
3 20.064
4 8.378
5 8.378
6 8.378
7 8.378
8 8.378

Atoms # meso-molecular

1 2 4 1.0216581193425966e+00 -2.7426811920130524e+02 1.0000000000000000e+00 0.0000000000000000e+00 0.0000000000000000e+00 2.5000000000000000e+00 
2 2 4 9.9118263121054362e-01 -2.2497772945234070e+02 1.0000000000000000e+00 0.0000000000000000e+00 2.0000000000000000e+00 2.5000000000000000e+00 
3 2 4 1.0213610170542133e+00 -2.4252734592223675e+02 1.0000000000000000e+00 0.0000000000000000e+00 4.0000000000000000e+00 2.5000000000000000e+00 
4 2 4 1.0203453949298202e+00 -2.7168419758474289e+02 1.0000000000000000e+00 0.0000000000000000e+00 6.0000000000000000e+00 2.5000000000000000e+00 
21 2 4 1.0135997044026950e+00 -2.6992474851165815e+02 1.0000000000000000e+00 2.0000000000000000e+00 0.0000000000000000e+00 2.5000000000000000e+00 
22 2 4 9.9704468143989677e-01 -2.2291083330964341e+02 1.0000000000000000e+00 2.0000000000000000e+00 2.0000000000000000e+00 2.5000000000000000e+00 
23 2 4 1.0261487160660552e+00 -2.4827471320067832e+02 1.0000000000000000e+00 2.0000000000000000e+00 4.0000000000000000e+00 2.5000000000000000e+00 
24 2 4 1.0104339576415542e+00 -2.6704331632272124e+02 1.0000000000000000e+00 2.0000000000000000e+00 6.0000000000000000e+00 2.5000000000000000e+00 
41 2 4 1.0219095544510421e+00 -2.6727793954207903e+02 1.0000000000000000e+00 4.0000000000000000e+00 0.0000000000000000e+00 2.5000000000000000e+00 
42 2 4 1.0438481471405698e+00 -2.3272908210344596e+02 1.0000000000000000e+00 4.0000000000000000e+00 2.0000000000000000e+00 2.5000000000000000e+00 
43 2 4 1.0668516110558421e+00 -2.0081871831452634e+02 1.0000000000000000e+00 4.0000000000000000e+00 4.0000000000000000e+00 2.5000000000000000e+00 
44 2 4 1.0372862802833520e+00 -2.4624028926619383e+02 1.0000000000000000e+00 4.0000000000000000e+00 6.0000000000000000e+00 2.5000000000000000e+00 
61 2 4 9.9054624264962077e-01 -2.5460268252920196e+02 1.0000000000000000e+00 6.0000000000000000e+00 0.0000000000000000e+00 2.5000000000000000e+00 
62 2 4 1.0398603456510307e+00 -2.3553219795053360e+02 1.0000000000000000e+00 6.0000000000000000e+00 2.0000000000000000e+00 2.5000000000000000e+00 
63 2 4 1.0526176933198823e+00 -1.9246962175181915e+02 1.0000000000000000e+00 6.0000000000000000e+00 4.0000000000000000e+00 2.5000000000000000e+00 
64 2 4 1.0111575702730391e+00 -2.2528487196155993e+02 1.0000000000000000e+00 6.0000000000000000e+00 6.0000000000000000e+00 2.5000000000000000e+00 
81 2 4 9.9605609506234527e-01 -2.6358019858232950e+02 1.0000000000000000e+00 8.0000000000000000e+00 0.0000000000000000e+00 2.5000000000000000e+00 
82 2 4 1.0277503534130690e+00 -2.7544994239195756e+02 1.0000000000000000e+00 8.0000000000000000e+00 2.0000000000000000e+00 2.5000000000000000e+00 
83 2 4 1.0375437488643711e+00 -2.2660119361096281e+02 1.0000000000000000e+00 8.0000000000000000e+00 4.0000000000000000e+00 2.5000000000000000e+00 
84 2 4 1.0084485498413709e+00 -1.8626498901590926e+02 1.0000000000000000e+00 8.0000000000000000e+00 6.0000000000000000e+00 2.5000000000000000e+00 
101 2 4 1.0075920029670027e+00 -2.4972042644365277e+02 1.0000000000000000e+00 1.0000000000000000e+01 0.0000000000000000e+00 2.5000000000000000e+00 
102 2 4 1.0284545453293392e+00 -2.6985767670357967e+02 1.0000000000000000e+00 1.0000000000000000e+01 2.0000000000000000e+00 2.5000000000000000e+00 
103 2 4 1.0448204358077366e+00 -2.5437207034359153e+02 1.0000000000000000e+00 1.0000000000000000e+01 4.0000000000000000e+00 2.5000000000000000e+00 
104 2 4 1.0263705665367504e+00 -2.2698965349947838e+02 1.0000000000000000e+00 1.0000000000000000e+01 6.0000000000000000e+00 2.5000000000000000e+00 
121 2 4 9.9552761727789851e-01 -2.2656543304914013e+02 1.0000000000000000e+00 1.2000000000000000e+01 0.0000000000000000e+00 2.5000000000000000e+00 
122 2 4 1.0422528660797461e+00 -2.2981303371611176e+02 1.0000000000000000e+00 1.2000000000000000e+01 2.0000000000000000e+00 2.5000000000000000e+00 
123 2 4 1.0474044925040715e+00 -2.4831415563349668e+02 1.0000000000000000e+00 1.2000000000000000e+01 4.0000000000000000e+00 2.5000000000000000e+00 
124 2 4 1.0119366688076852e+00 -2.3001770313421818e+02 1.0000000000000000e+00 1.2000000000000000e+01 6.0000000000000000e+00 2.5000000000000000e+00 
141 2 4 1.0013571359273092e+00 -1.8419645761006345e+02 1.0000000000000000e+00 1.4000000000000000e+01 0.0000000000000000e+00 2.5000000000000000e+00 
142 2 4 1.0467386104303249e+00 -2.0297487092229369e+02 1.0000000000000000e+00 1.4000000000000000e+01 2.0000000000000000e+00 2.5000000000000000e+00 
143 2 4 1.0481354032185632e+00 -2.2840225515218944e+02 1.0000000000000000e+00 1.4000000000000000e+01 4.0000000000000000e+00 2.5000000000000000e+00 
144 2 4 1.0186636879186262e+00 -1.8695905447154098e+02 1.0000000000000000e+00 1.4000000000000000e+01 6.0000000000000000e+00 2.5000000000000000e+00 
161 2 4 1.0316141902816596e+00 -2.0749914948350084e+02 1.0000000000000000e+00 1.6000000000000000e+01 0.0000000000000000e+00 2.5000000000000000e+00 
162 2 4 1.0318830485781576e+00 -1.9283387584520580e+02 1.0000000000000000e+00 1.6000000000000000e+01 2.0000000000000000e+00 2.5000000000000000e+00 
163 2 4 1.0274100560111039e+00 -1.9538500087713271e+02 1.0000000000000000e+00 1.6000000000000000e+01 4.0000000000000000e+00 2.5000000000000000e+00 
164 2 4 1.0318516677906664e+00 -8.6125568763834451e+01 1.0000000000000000e+00 1.6000000000000000e+01 6.0000000000000000e+00 2.5000000000000000e+00 
181 2 4 1.0502942223749572e+00 -2.1884025213859061e+02 1.0000000000000000e+00 1.8000000000000000e+01 0.0000000000000000e+00 2.5000000000000000e+00 
182 2 4 1.0167834982157897e+00 -2.0667814298510226e+02 1.0000000000000000e+00 1.8000000000000000e+01 2.0000000000000000e+00 2.5000000000000000e+00 
183 2 4 1.0037555728105476e+00 -1.8079064656485255e+02 1.0000000000000000e+00 1.8000000000000000e+01 4.0000000000000000e+00 2.5000000000000000e+00 
184 2 4 1.0391151939958185e+00 -7.8414688603794474e+01 1.0000000000000000e+00 1.8000000000000000e+01 6.0000000000000000e+00 2.5000000000000000e+00 
5 2 4 9.9146192269842270e-01 -2.6000976748840645e+02 1.0000000000000000e+00 0.0000000000000000e+00 8.0000000000000000e+00 2.5000000000000000e+00 
6 2 4 1.0283754786595825e+00 -2.7239740353064752e+02 1.0000000000000000e+00 0.0000000000000000e+00 1.0000000000000000e+01 2.5000000000000000e+00 
7 2 4 1.0437706453894806e+00 -2.5639841936932714e+02 1.0000000000000000e+00 0.0000000000000000e+00 1.2000000000000000e+01 2.5000000000000000e+00 
25 2 4 1.0072139717707616e+00 -2.7136020352937294e+02 1.0000000000000000e+00 2.0000000000000000e+00 8.0000000000000000e+00 2.5000000000000000e+00 
26 2 4 1.0462197740090251e+00 -2.3693245540451602e+02 1.0000000000000000e+00 2.0000000000000000e+00 1.0000000000000000e+01 2.5000000000000000e+00 
27 2 4 1.0319719056460697e+00 -2.4478238958315944e+02 1.0000000000000000e+00 2.0000000000000000e+00 1.2000000000000000e+01 2.5000000000000000e+00 
45 2 4 1.0425478450488912e+00 -2.7011366724255032e+02 1.0000000000000000e+00 4.0000000000000000e+00 8.0000000000000000e+00 2.5000000000000000e+00 
46 2 4 1.0593152767130620e+00 -2.3965271344076268e+02 1.0000000000000000e+00 4.0000000000000000e+00 1.0000000000000000e+01 2.5000000000000000e+00 
47 2 4 1.0174520657210333e+00 -2.4463564881602520e+02 1.0000000000000000e+00 4.0000000000000000e+00 1.2000000000000000e+01 2.5000000000000000e+00 
65 2 4 1.0243651941666103e+00 -2.4627784259582353e+02 1.0000000000000000e+00 6.0000000000000000e+00 8.0000000000000000e+00 2.5000000000000000e+00 
66 2 4 1.0461152712314357e+00 -2.2874011482873675e+02 1.0000000000000000e+00 6.0000000000000000e+00 1.0000000000000000e+01 2.5000000000000000e+00 
67 2 4 1.0165763871682423e+00 -2.6106234373807973e+02 1.0000000000000000e+00 6.0000000000000000e+00 1.2000000000000000e+01 2.5000000000000000e+00 
85 2 4 1.0126949789457813e+00 -1.7674954371962718e+02 1.0000000000000000e+00 8.0000000000000000e+00 8.0000000000000000e+00 2.5000000000000000e+00 
86 2 4 1.0352956795332808e+00 -1.8544288935558598e+02 1.0000000000000000e+00 8.0000000000000000e+00 1.0000000000000000e+01 2.5000000000000000e+00 
87 2 4 1.0273211334989965e+00 -2.3382642163153884e+02 1.0000000000000000e+00 8.0000000000000000e+00 1.2000000000000000e+01 2.5000000000000000e+00 
105 2 4 1.0335687061327845e+00 -2.1339847728664216e+02 1.0000000000000000e+00 1.0000000000000000e+01 8.0000000000000000e+00 2.5000000000000000e+00 
106 2 4 1.0498309277277311e+00 -1.9116465566006471e+02 1.0000000000000000e+00 1.0000000000000000e+01 1.0000000000000000e+01 2.5000000000000000e+00 
107 2 4 1.0372802212500765e+00 -2.1566138165679357e+02 1.0000000000000000e+00 1.0000000000000000e+01 1.2000000000000000e+01 2.5000000000000000e+00 
125 2 4 1.0266262604667644e+00 -1.8715336691645621e+02 1.0000000000000000e+00 1.2000000000000000e+01 8.0000000000000000e+00 2.5000000000000000e+00 
126 2 4 1.0383566195766043e+00 -1.3049365237292858e+02 1.0000000000000000e+00 1.2000000000000000e+01 1.0000000000000000e+01 2.5000000000000000e+00 
127 2 4 1.0291966680692812e+00 -1.0475999866114256e+02 1.0000000000000000e+00 1.2000000000000000e+01 1.2000000000000000e+01 2.5000000000000000e+00 
145 2 4 1.0189807883674944e+00 -1.8242058981048807e+01 1.0000000000000000e+00 1.4000000000000000e+01 8.0000000000000000e+00 2.5000000000000000e+00 
146 2 4 1.0214178668785439e+00 1.6054681952679061e+02 1.0000000000000000e+00 1.4000000000000000e+01 1.0000000000000000e+01 2.5000000000000000e+00 
147 2 4 1.0293418414482129e+00 1.9852290716396891e+02 1.0000000000000000e+00 1.4000000000000000e+01 1.2000000000000000e+01 2.5000000000000000e+00 
165 2 4 1.0340586998413546e+00 1.5796976955178462e+02 1.0000000000000000e+00 1.6000000000000000e+01 8.0000000000000000e+00 2.5000000000000000e+00 
166 2 4 1.0252614375881057e+00 3.4974417334221334e+02 1.0000000000000000e+00 1.6000000000000000e+01 1.0000000000000000e+01 2.5000000000000000e+00 
167 2 4 1.0291248836111273e+00 3.5169319773956238e+02 1.0000000000000000e+00 1.6000000000000000e+01 1.2000000000000000e+01 2.5000000000000000e+00 
185 2 4 1.0466879302789156e+00 1.8017640756185978e+02 1.0000000000000000e+00 1.8000000000000000e+01 8.0000000000000000e+00 2.5000000000000000e+00 
186 2 4 1.0263210107254299e+00 2.7074973468445739e+02 1.0000000000000000e+00 1.8000000000000000e+01 1.0000000000000000e+01 2.5000000000000000e+00 
187 2 4 1.0272276731089525e+00 1.6602494902887935e+02 1.0000000000000000e+00 1.8000000000000000e+01 1.2000000000000000e+01 2.5000000000000000e+00 
8 2 4 1.0159806567908816e+00 -2.4300104363905780e+02 1.0000000000000000e+00 0.0000000000000000e+00 1.4000000000000000e+01 2.5000000000000000e+00 
9 2 4 1.0365062863985977e+00 -2.3562894117762681e+02 1.0000000000000000e+00 0.0000000000000000e+00 1.6000000000000000e+01 2.5000000000000000e+00 
10 2 4 1.0651963567044931e+00 -2.0749450087822228e+02 1.0000000000000000e+00 0.0000000000000000e+00 1.8000000000000000e+01 2.5000000000000000e+00 
28 2 4 9.9902442688029147e-01 -2.2581152405454526e+02 1.0000000000000000e+00 2.0000000000000000e+00 1.4000000000000000e+01 2.5000000000000000e+00 
29 2 4 1.0499324049206591e+00 -2.2594135832496707e+02 1.0000000000000000e+00 2.0000000000000000e+00 1.6000000000000000e+01 2.5000000000000000e+00 
30 2 4 1.0738267341912193e+00 -2.0502956845859964e+02 1.0000000000000000e+00 2.0000000000000000e+00 1.8000000000000000e+01 2.5000000000000000e+00 
48 2 4 9.7198557941848274e-01 -1.7620772108278919e+02 1.0000000000000000e+00 4.0000000000000000e+00 1.4000000000000000e+01 2.5000000000000000e+00 
49 2 4 1.0236080718337783e+00 -2.5975138575631070e+02 1.0000000000000000e+00 4.0000000000000000e+00 1.6000000000000000e+01 2.5000000000000000e+00 
50 2 4 1.0384190326856202e+00 -2.2333619838394600e+02 1.0000000000000000e+00 4.0000000000000000e+00 1.8000000000000000e+01 2.5000000000000000e+00 
68 2 4 1.0002328563146956e+00 -2.4989317166327481e+02 1.0000000000000000e+00 6.0000000000000000e+00 1.4000000000000000e+01 2.5000000000000000e+00 
69 2 4 1.0321940738414148e+00 -2.5238099711192751e+02 1.0000000000000000e+00 6.0000000000000000e+00 1.6000000000000000e+01 2.5000000000000000e+00 
70 2 4 1.0310138734165770e+00 -2.2181150298995641e+02 1.0000000000000000e+00 6.0000000000000000e+00 1.8000000000000000e+01 2.5000000000000000e+00 
88 2 4 1.0346761207059456e+00 -2.5435180649050517e+02 1.0000000000000000e+00 8.0000000000000000e+00 1.4000000000000000e+01 2.5000000000000000e+00 
89 2 4 1.0574112103987081e+00 -2.4496070277766833e+02 1.0000000000000000e+00 8.0000000000000000e+00 1.6000000000000000e+01 2.5000000000000000e+00 
90 2 4 1.0468695042023166e+00 -2.2653267148202212e+02 1.0000000000000000e+00 8.0000000000000000e+00 1.8000000000000000e+01 2.5000000000000000e+00 
108 2 4 1.0206951930505026e+00 -2.2365390694419233e+02 1.0000000000000000e+00 1.0000000000000000e+01 1.4000000000000000e+01 2.5000000000000000e+00 
109 2 4 1.0267123740475224e+00 -2.5885094941437325e+02 1.0000000000000000e+00 1.0000000000000000e+01 1.6000000000000000e+01 2.5000000000000000e+00 
110 2 4 1.0223994763801685e+00 -2.3995301856260750e+02 1.0000000000000000e+00 1.0000000000000000e+01 1.8000000000000000e+01 2.5000000000000000e+00 
128 2 4 1.0136481668728534e+00 -1.0121660103084955e+02 1.0000000000000000e+00 1.2000000000000000e+01 1.4000000000000000e+01 2.5000000000000000e+00 
129 2 4 1.0155920647554211e+00 -1.2757999315916250e+02 1.0000000000000000e+00 1.2000000000000000e+01 1.6000000000000000e+01 2.5000000000000000e+00 
130 2 4 1.0252563233084919e+00 -1.0727288439831270e+02 1.0000000000000000e+00 1.2000000000000000e+01 1.8000000000000000e+01 2.5000000000000000e+00 
148 2 4 1.0349025294364858e+00 1.8793265491580541e+02 1.0000000000000000e+00 1.4000000000000000e+01 1.4000000000000000e+01 2.5000000000000000e+00 
149 2 4 1.0478441346381357e+00 2.2851971366491514e+02 1.0000000000000000e+00 1.4000000000000000e+01 1.6000000000000000e+01 2.5000000000000000e+00 
150 2 4 1.0469636933660782e+00 2.8454266441996975e+02 1.0000000000000000e+00 1.4000000000000000e+01 1.8000000000000000e+01 2.5000000000000000e+00 
168 2 4 1.0364441692941890e+00 3.7116379200452275e+02 1.0000000000000000e+00 1.6000000000000000e+01 1.4000000000000000e+01 2.5000000000000000e+00 
169 2 4 1.0321330946739296e+00 5.0600856048131163e+02 1.0000000000000000e+00 1.6000000000000000e+01 1.6000000000000000e+01 2.5000000000000000e+00 
170 2 4 1.0198610391965564e+00 5.8821097175561113e+02 1.0000000000000000e+00 1.6000000000000000e+01 1.8000000000000000e+01 2.5000000000000000e+00 
188 2 4 1.0241039583640541e+00 2.0274573197609396e+02 1.0000000000000000e+00 1.8000000000000000e+01 1.4000000000000000e+01 2.5000000000000000e+00 
189 2 4 1.0079248965950933e+00 4.6535697044934329e+02 1.0000000000000000e+00 1.8000000000000000e+01 1.6000000000000000e+01 2.5000000000000000e+00 
190 2 4 1.0048619096693487e+00 6.5707781236812593e+02 1.0000000000000000e+00 1.8000000000000000e+01 1.8000000000000000e+01 2.5000000000000000e+00 
1747 1349 2 1.0265433492566665e+00 2.0875611627146268e+03 1.0000000000000000e+00 3.5907745664748583e+00 4.9660045596671969e+00 7.3420065546959341e+00 
562 164 2 1.0265433492566665e+00 2.2687486175301933e+03 1.0000000000000000e+00 3.5907745664749053e+00 4.9660045596672484e+00 7.3420065546959670e+00 
1874 1476 2 1.0265433492566673e+00 5.1102387541948938e+03 1.0000000000000000e+00 3.5907745664750701e+00 4.9660045596672981e+00 7.3420065546961144e+00 
718 320 2 1.0265433492566687e+00 5.3833137090366581e+03 1.0000000000000000e+00 3.5907745664746917e+00 4.9660045596673124e+00 7.3420065546957094e+00 
1603 1205 2 1.0265433492566669e+00 4.5366646081353729e+03 1.0000000000000000e+00 3.5907745664750026e+00 4.9660045596672671e+00 7.3420065546960585e+00 
623 225 2 1.0265433492566682e+00 3.4275156986565144e+03 1.0000000000000000e+00 3.5907745664749680e+00 4.9660045596672822e+00 7.3420065546959954e+00 
674 276 2 1.0265433492566682e+00 5.4074254499759518e+03 1.0000000000000000e+00 3.5907745664748472e+00 4.9660045596673017e+00 7.3420065546958595e+00 
2047 1649 2 1.0265433492566671e+00 -8.4079551673859714e+03 1.0000000000000000e+00 3.5907745664749253e+00 4.9660045596672351e+00 7.3420065546959714e+00 
1012 614 2 1.0265433492566669e+00 4.8199562299999452e+03 1.0000000000000000e+00 3.5907745664750026e+00 4.9660045596672671e+00 7.3420065546960585e+00 
803 405 2 1.0265433492566662e+00 1.4100945392729542e+04 1.0000000000000000e+00 3.5907745664749795e+00 4.9660045596671916e+00 7.3420065546960549e+00 
1536 1138 2 1.0265433492566667e+00 5.1177299318430241e+03 1.0000000000000000e+00 3.5907745664750323e+00 4.9660045596671969e+00 7.3420065546961055e+00 
539 141 2 1.0265433492566676e+00 -6.5003734940208396e+03 1.0000000000000000e+00 3.5907745664747495e+00 4.9660045596672662e+00 7.3420065546957964e+00 
1966 1568 2 1.0265433492566687e+00 -7.4774120654429662e+03 1.0000000000000000e+00 3.5907745664751793e+00 4.9660045596673701e+00 7.3420065546961535e+00 
1060 662 2 1.0265433492566667e+00 -3.4802373693540758e+03 1.0000000000000000e+00 3.5907745664750323e+00 4.9660045596671969e+00 7.3420065546961055e+00 
899 501 2 1.0265321249615076e+00 5.8177569037740977e+03 1.0000000000000000e+00 4.7238485646020809e+00 2.2993204980574218e+00 7.2139328282018953e+00 
608 210 2 1.0265433492566680e+00 -2.0705817988095723e+03 1.0000000000000000e+00 3.5907745664750705e+00 4.9660045596672653e+00 7.3420065546961313e+00 
845 447 2 1.0265433492566687e+00 4.8286574331729680e+03 1.0000000000000000e+00 3.5907745664750967e+00 4.9660045596672804e+00 7.3420065546961304e+00 
601 203 2 1.0265433492566685e+00 -6.0686419319683391e+03 1.0000000000000000e+00 3.5907745664749773e+00 4.9660045596672999e+00 7.3420065546960069e+00 
999 601 2 1.0265321249615083e+00 5.4765364136300122e+03 1.0000000000000000e+00 4.7238485646019868e+00 2.2993204980574684e+00 7.2139328282018909e+00 
1906 1508 2 1.0265433492566673e+00 6.2455579027920494e+03 1.0000000000000000e+00 3.5907745664750030e+00 4.9660045596672795e+00 7.3420065546960558e+00 
1666 1268 2 1.0265321249615080e+00 1.2595769437057812e+04 1.0000000000000000e+00 4.7238485646019504e+00 2.2993204980574773e+00 7.2139328282018989e+00 
937 539 2 1.0265433492566682e+00 2.4060578694728119e+03 1.0000000000000000e+00 3.5907745664751594e+00 4.9660045596673594e+00 7.3420065546961641e+00 
1278 880 2 1.0265321249615085e+00 1.1277106261222730e+03 1.0000000000000000e+00 4.7238485646019015e+00 2.2993204980575541e+00 7.2139328282019859e+00 
784 386 2 1.0265321249615085e+00 8.5875187901673144e+03 1.0000000000000000e+00 4.7238485646019246e+00 2.2993204980574058e+00 7.2139328282017425e+00 
871 473 2 1.0265321249615083e+00 3.7093982476699939e+03 1.0000000000000000e+00 4.7238485646019299e+00 2.2993204980573552e+00 7.2139328282016635e+00 
904 506 2 1.0265321249615080e+00 -2.2923633421372842e+03 1.0000000000000000e+00 4.7238485646019388e+00 2.2993204980574173e+00 7.2139328282017861e+00 
852 454 2 1.0265321249615085e+00 8.0441204108531892e+03 1.0000000000000000e+00 4.7238485646018624e+00 2.2993204980575341e+00 7.2139328282019273e+00 
1680 1282 2 1.0265321249615080e+00 1.1903707787880826e+02 1.0000000000000000e+00 4.7238485646019406e+00 2.2993204980575159e+00 7.2139328282019610e+00 
1003 605 2 1.0265321249615085e+00 2.1654352139757693e+03 1.0000000000000000e+00 4.7238485646019015e+00 2.2993204980574915e+00 7.2139328282018740e+00 
790 392 2 1.0265321249615085e+00 1.2074541414845356e+04 1.0000000000000000e+00 4.7238485646019015e+00 2.2993204980574915e+00 7.2139328282018740e+00 
481 83 2 1.0265433492566680e+00 -1.4847399938296407e+04 1.0000000000000000e+00 3.5907745664749156e+00 4.9660045596672875e+00 7.3420065546959403e+00 
1242 844 2 1.0265433492566682e+00 -5.0063256698524328e+03 1.0000000000000000e+00 3.5907745664748769e+00 4.9660045596673141e+00 7.3420065546958844e+00 
1056 658 2 1.0265321249615080e+00 1.9545231940114545e+03 1.0000000000000000e+00 4.7238485646019308e+00 2.2993204980574120e+00 7.2139328282017523e+00 
402 4 2 1.0265321249615080e+00 1.9293199660340379e+03 1.0000000000000000e+00 4.7238485646019113e+00 2.2993204980574093e+00 7.2139328282017523e+00 
1927 1529 2 1.0265321249615083e+00 1.8175351335357532e+03 1.0000000000000000e+00 4.7238485646020365e+00 2.2993204980575044e+00 7.2139328282019886e+00 
1755 1357 2 1.0265321249615083e+00 7.9942115530193205e+03 1.0000000000000000e+00 4.7238485646019139e+00 2.2993204980574449e+00 7.2139328282018083e+00 
1345 947 2 1.0265321249615080e+00 -2.2402904139311077e+03 1.0000000000000000e+00 4.7238485646019033e+00 2.2993204980573934e+00 7.2139328282017061e+00 
1647 1249 2 1.0265321249615080e+00 1.6352587839575383e+04 1.0000000000000000e+00 4.7238485646020045e+00 2.2993204980573916e+00 7.2139328282017781e+00 
2012 1614 2 1.0265433492566691e+00 -1.2921270990498053e+04 1.0000000000000000e+00 3.5907745664751691e+00 4.9660045596672804e+00 7.3420065546961872e+00 
1871 1473 2 1.0265321249615078e+00 2.0375775174233995e+03 1.0000000000000000e+00 4.7238485646019814e+00 2.2993204980572530e+00 7.2139328282015409e+00 
1065 667 2 1.0265321249615080e+00 -3.8889396851267543e+03 1.0000000000000000e+00 4.7238485646019823e+00 2.2993204980574249e+00 7.2139328282018136e+00 
1520 1122 2 1.0265433492566678e+00 2.2139758505088944e+03 1.0000000000000000e+00 3.5907745664749933e+00 4.9660045596672973e+00 7.3420065546960345e+00 
1539 1141 2 1.0265321249615083e+00 2.1377077252855624e+03 1.0000000000000000e+00 4.7238485646019184e+00 2.2993204980574888e+00 7.2139328282018935e+00 
761 363 2 1.0265321249615080e+00 -3.4799806748396695e+03 1.0000000000000000e+00 4.7238485646019566e+00 2.2993204980573818e+00 7.2139328282017319e+00 
1708 1310 2 1.0265321249615080e+00 -1.8201535418258645e+03 1.0000000000000000e+00 4.7238485646019823e+00 2.2993204980572952e+00 7.2139328282016031e+00 
716 318 2 1.0265433492566678e+00 5.7476491869108668e+03 1.0000000000000000e+00 3.5907745664749622e+00 4.9660045596673008e+00 7.3420065546959981e+00 
1000 602 2 1.0267314829718954e+00 -9.0359099447456447e+02 1.0000000000000000e+00 9.2375784290032446e+00 3.2808298710481782e+00 7.3170640088850813e+00 
777 379 2 1.0267314829718959e+00 3.3991653628954191e+03 1.0000000000000000e+00 9.2375784290029177e+00 3.2808298710485433e+00 7.3170640088852190e+00 
1826 1428 2 1.0267314829718959e+00 5.6224755053891749e+03 1.0000000000000000e+00 9.2375784290029177e+00 3.2808298710485433e+00 7.3170640088852190e+00 
1176 778 2 1.0267314829718963e+00 -4.2842798389699219e+03 1.0000000000000000e+00 9.2375784290028893e+00 3.2808298710484709e+00 7.3170640088851462e+00 
1701 1303 2 1.0267314829718970e+00 4.5031967530794482e+03 1.0000000000000000e+00 9.2375784290032872e+00 3.2808298710480233e+00 7.3170640088849552e+00 
920 522 2 1.0267314829718961e+00 -1.4824323109492034e+03 1.0000000000000000e+00 9.2375784290029124e+00 3.2808298710483434e+00 7.3170640088850680e+00 
773 375 2 1.0267314829718959e+00 2.2124846051712316e+03 1.0000000000000000e+00 9.2375784290029177e+00 3.2808298710485433e+00 7.3170640088852190e+00 
1414 1016 2 1.0267314829718959e+00 -1.1407514680204717e+03 1.0000000000000000e+00 9.2375784290029515e+00 3.2808298710482724e+00 7.3170640088850369e+00 
1567 1169 2 1.0267314829718952e+00 7.6340296270182334e+03 1.0000000000000000e+00 9.2375784290029728e+00 3.2808298710483812e+00 7.3170640088851284e+00 
1579 1181 2 1.0267314829718961e+00 5.0039899645724072e+03 1.0000000000000000e+00 9.2375784290028875e+00 3.2808298710483119e+00 7.3170640088850361e+00 
980 582 2 1.0267314829718959e+00 1.1628217446282829e+03 1.0000000000000000e+00 9.2375784290029177e+00 3.2808298710485433e+00 7.3170640088852190e+00 
1460 1062 2 1.0267314829718959e+00 3.7426005137569782e+03 1.0000000000000000e+00 9.2375784290029515e+00 3.2808298710482724e+00 7.3170640088850369e+00 
1149 751 2 1.0267314829718959e+00 -6.7667123462742256e+03 1.0000000000000000e+00 9.2375784290029177e+00 3.2808298710485433e+00 7.3170640088852190e+00 
1683 1285 2 1.0267314829718959e+00 1.2298570961896912e+04 1.0000000000000000e+00 9.2375784290029177e+00 3.2808298710485433e+00 7.3170640088852190e+00 
941 543 2 1.0267314829718950e+00 3.2433638972206872e+03 1.0000000000000000e+00 9.2375784290030722e+00 3.2808298710478567e+00 7.3170640088847989e+00 
1756 1358 2 1.0267314829718976e+00 3.6514163770646587e+02 1.0000000000000000e+00 9.2375784290028022e+00 3.2808298710482147e+00 7.3170640088849037e+00 
1785 1387 2 1.0267314829718961e+00 -5.0131243004593889e+03 1.0000000000000000e+00 9.2375784290029372e+00 3.2808298710482657e+00 7.3170640088850210e+00 
1492 1094 2 1.0267314829718961e+00 9.5962724330326989e+02 1.0000000000000000e+00 9.2375784290029124e+00 3.2808298710483434e+00 7.3170640088850680e+00 
1288 890 2 1.0267314829718976e+00 -2.6929332463409276e+02 1.0000000000000000e+00 9.2375784290028022e+00 3.2808298710482147e+00 7.3170640088849037e+00 
1041 643 2 1.0267314829718952e+00 2.1941599092187457e+03 1.0000000000000000e+00 9.2375784290031202e+00 3.2808298710481867e+00 7.3170640088850405e+00 
1169 771 2 1.0267314829718954e+00 -6.6075651685477351e+03 1.0000000000000000e+00 9.2375784290032037e+00 3.2808298710481973e+00 7.3170640088850885e+00 
815 417 2 1.0267314829718959e+00 1.1690447671242955e+04 1.0000000000000000e+00 9.2375784290029515e+00 3.2808298710482724e+00 7.3170640088850369e+00 
1554 1156 2 1.0267314829718956e+00 -3.0502388474567468e+01 1.0000000000000000e+00 9.2375784290032019e+00 3.2808298710481840e+00 7.3170640088850663e+00 
1921 1523 2 1.0267314829718968e+00 -5.0992093173221383e+03 1.0000000000000000e+00 9.2375784290029515e+00 3.2808298710483372e+00 7.3170640088850734e+00 
934 536 2 1.0267314829718976e+00 3.2007237033833815e+02 1.0000000000000000e+00 9.2375784290028022e+00 3.2808298710482147e+00 7.3170640088849037e+00 
1273 875 2 1.0267314829718950e+00 -3.2123240541671366e+03 1.0000000000000000e+00 9.2375784290031415e+00 3.2808298710481902e+00 7.3170640088850734e+00 
1974 1576 2 1.0267314829718954e+00 -9.0641722825467186e+03 1.0000000000000000e+00 9.2375784290032446e+00 3.2808298710481782e+00 7.3170640088850813e+00 
1853 1455 2 1.0267314829718963e+00 1.0544689791003843e+03 1.0000000000000000e+00 9.2375784290028893e+00 3.2808298710484709e+00 7.3170640088851462e+00 
1399 1001 2 1.0268172594147869e+00 1.2576037074963319e+03 1.0000000000000000e+00 1.1738400465981359e+01 6.3417300199179847e+00 7.3451389092752635e+00 
665 267 2 1.0268172594147871e+00 -6.4909604864639859e+03 1.0000000000000000e+00 1.1738400465981440e+01 6.3417300199180513e+00 7.3451389092751871e+00 
1104 706 2 1.0268172594147862e+00 -4.8622357485416142e+03 1.0000000000000000e+00 1.1738400465982622e+01 6.3417300199183479e+00 7.3451389092748602e+00 
1955 1557 2 1.0268172594147855e+00 -1.9955550991854866e+03 1.0000000000000000e+00 1.1738400465980375e+01 6.3417300199180673e+00 7.3451389092752679e+00 
1911 1513 2 1.0268172594147860e+00 6.2562470978803949e+03 1.0000000000000000e+00 1.1738400465980348e+01 6.3417300199181019e+00 7.3451389092752342e+00 
1945 1547 2 1.0268172594147882e+00 -9.0663381206445047e+03 1.0000000000000000e+00 1.1738400465980995e+01 6.3417300199181375e+00 7.3451389092751258e+00 
1052 654 2 1.0268172594147851e+00 2.8547522276349673e+03 1.0000000000000000e+00 1.1738400465979158e+01 6.3417300199194777e+00 7.3451389092742776e+00 
528 130 2 1.0268172594147862e+00 -3.0875645040226118e+03 1.0000000000000000e+00 1.1738400465981288e+01 6.3417300199184075e+00 7.3451389092748958e+00 
846 448 2 1.0264903036901503e+00 1.2282889088073387e+04 1.0000000000000000e+00 1.3931956353205241e+01 2.4936962397251627e+00 7.2880637700606430e+00 
1922 1524 2 1.0264903036901505e+00 7.5871113398816010e+02 1.0000000000000000e+00 1.3931956353205253e+01 2.4936962397252858e+00 7.2880637700607744e+00 
1790 1392 2 1.0264903036901505e+00 1.4671797255969195e+04 1.0000000000000000e+00 1.3931956353205253e+01 2.4936962397252893e+00 7.2880637700607851e+00 
1623 1225 2 1.0264903036901505e+00 1.2267840251856847e+04 1.0000000000000000e+00 1.3931956353205246e+01 2.4936962397253031e+00 7.2880637700608091e+00 
1763 1365 2 1.0264903036901503e+00 6.0129981270110857e+03 1.0000000000000000e+00 1.3931956353205232e+01 2.4936962397253004e+00 7.2880637700608117e+00 
1386 988 2 1.0264903036901498e+00 -8.5063370305033986e+03 1.0000000000000000e+00 1.3931956353205262e+01 2.4936962397251925e+00 7.2880637700606661e+00 
1835 1437 2 1.0264903036901500e+00 6.8842364336661276e+03 1.0000000000000000e+00 1.3931956353205241e+01 2.4936962397247848e+00 7.2880637700601705e+00 
1137 739 2 1.0264903036901498e+00 -3.9056012569610807e+03 1.0000000000000000e+00 1.3931956353205235e+01 2.4936962397255162e+00 7.2880637700611004e+00 
813 415 2 1.0264903036901505e+00 -5.4675091375139141e+02 1.0000000000000000e+00 1.3931956353205258e+01 2.4936962397253146e+00 7.2880637700608100e+00 
1959 1561 2 1.0264903036901507e+00 1.2535193611771525e+01 1.0000000000000000e+00 1.3931956353205274e+01 2.4936962397252134e+00 7.2880637700606847e+00 
1252 854 2 1.0264903036901507e+00 3.5307888640223846e+03 1.0000000000000000e+00 1.3931956353205267e+01 2.4936962397252009e+00 7.2880637700606625e+00 
767 369 2 1.0264903036901505e+00 3.9987031825659333e+03 1.0000000000000000e+00 1.3931956353205249e+01 2.4936962397255882e+00 7.2880637700611670e+00 
709 311 2 1.0264903036901507e+00 4.7392108811126502e+02 1.0000000000000000e+00 1.3931956353205255e+01 2.4936962397252551e+00 7.2880637700607434e+00 
968 570 2 1.0264903036901505e+00 2.2305094132144682e+03 1.0000000000000000e+00 1.3931956353205264e+01 2.4936962397256059e+00 7.2880637700611857e+00 
491 93 2 1.0264903036901505e+00 -6.8965370418132679e+03 1.0000000000000000e+00 1.3931956353205246e+01 2.4936962397253533e+00 7.2880637700608686e+00 
607 209 2 1.0264903036901505e+00 3.7798456549794819e+03 1.0000000000000000e+00 1.3931956353205258e+01 2.4936962397253080e+00 7.2880637700608029e+00 
1735 1337 2 1.0264903036901505e+00 1.4618760429307862e+04 1.0000000000000000e+00 1.3931956353205317e+01 2.4936962397252889e+00 7.2880637700607664e+00 