LAMMPS data file via write_data, version 30 Jul 2016, timestep = 100000000

1607 atoms
8 atom types

0.0000000000000000e+00 6.0000000000000000e+01 xlo xhi
0.0000000000000000e+00 6.0000000000000000e+01 ylo yhi
0.0000000000000000e+00 6.0000000000000000e+01 zlo zhi

Masses

1 3.896
2 8.3
3 4.31
4 28.378
5 28.378
6 28.378
7 28.378
8 28.378

Atoms # meso-molecular

1233 23 1 9.7900000508145990e-01 -9.9183881307636341e+01 1.0000000000000000e+00 2.9146535272506657e+01 1.3721871325786184e+01 1.3053411774405974e+00 
99 3 1 9.7900000508018326e-01 -1.2029820990198191e+02 1.0000000000000000e+00 2.9146509696447872e+01 1.3721826570434732e+01 1.3054006628259036e+00 
332 9 1 9.7899999492007184e-01 -1.0989181773147058e+02 1.0000000000000000e+00 2.8794259611133679e+01 1.4603666581779388e+01 1.8171873525005282e+00 
1554 25 1 9.7899999492260992e-01 -1.5196696130869665e+02 1.0000000000000000e+00 2.8794127781907850e+01 1.4603503911644331e+01 1.8173768090545628e+00 
215 5 1 9.7899999981593411e-01 -9.1897720651251305e+01 1.0000000000000000e+00 5.0880794748000762e+00 2.4365297973001510e+01 1.8429408260765958e+00 
382 10 1 9.7899999981740349e-01 -7.7328654304555499e+01 1.0000000000000000e+00 5.0880678233277816e+00 2.4365271160408263e+01 1.8428999910593298e+00 
1247 23 1 9.7900000000142162e-01 -6.4137325483932457e+01 1.0000000000000000e+00 5.7729637198429167e+00 2.4353648173204547e+01 9.3458238813316108e-01 
3406 56 1 9.7900000018212718e-01 -9.8895440733002886e+01 1.0000000000000000e+00 6.4330905838964680e+00 2.5018986683405871e+01 1.5794464919518292e+00 
4136 65 1 9.7900000018314259e-01 -1.1550345389965413e+02 1.0000000000000000e+00 6.4330923439432288e+00 2.5018985429030380e+01 1.5794386216588452e+00 
1312 24 1 9.7900000000000587e-01 -7.4032836897666428e+01 1.0000000000000000e+00 2.6520043348393187e+01 5.1429561590113186e+00 3.9578171384970604e+00 
1916 30 1 9.7900000000000809e-01 -6.3475641995457146e+01 1.0000000000000000e+00 2.6522941119892682e+01 5.1438198334120457e+00 3.9661368201468634e+00 
1499 25 1 9.7900000000000209e-01 -1.0920675673974993e+02 1.0000000000000000e+00 2.5973845305138443e+01 4.2566495196378709e+00 4.2400890762291628e+00 
83 3 1 9.7899999999999676e-01 -4.8720570466259581e+01 1.0000000000000000e+00 2.5977397345944016e+01 4.2570400417482714e+00 4.2481878795074355e+00 
1133 22 1 9.7899999999996767e-01 -9.3561602673647286e+01 1.0000000000000000e+00 5.2737168152682825e+00 7.8948652701352460e+00 3.4679478460709685e+00 
1938 30 1 9.7899999999997389e-01 -6.2301569280982704e+01 1.0000000000000000e+00 5.2759737849926900e+00 7.8930254305442462e+00 3.4680621742624016e+00 
1345 24 1 9.7900000000004495e-01 -6.4832630221075917e+01 1.0000000000000000e+00 5.7713814292456229e+00 8.5468942625763820e+00 4.1685395209119633e+00 
1944 30 1 9.7900000000005671e-01 -1.7020955279151192e+01 1.0000000000000000e+00 5.7704262897280953e+00 8.5452472105911390e+00 4.1707456307623936e+00 
335 9 1 9.7900000520068042e-01 -1.0023796563675147e+02 1.0000000000000000e+00 1.8131127842817751e+01 1.8720485511438675e+01 4.4358778942012185e+00 
1318 24 1 9.7900000516537289e-01 -9.4133570466998435e+01 1.0000000000000000e+00 1.8131190777965678e+01 1.8720487723153287e+01 4.4359657633316614e+00 
889 19 1 9.7900000510890528e-01 -9.2225210716531322e+01 1.0000000000000000e+00 1.8131216308219944e+01 1.8720447057646311e+01 4.4359592053682118e+00 
1176 22 1 9.7899999491040490e-01 -6.8910816655309205e+01 1.0000000000000000e+00 1.9635641206635619e+01 1.9843173806894978e+01 3.3297153132212882e+00 
1797 29 1 9.7899999478102340e-01 -8.3629621156673252e+01 1.0000000000000000e+00 1.9635748390954447e+01 1.9843160944023822e+01 3.3298480192674451e+00 
2439 40 1 9.7899999482885169e-01 -1.4396314116885770e+02 1.0000000000000000e+00 1.9635645305247618e+01 1.9843348830296794e+01 3.3298985740445839e+00 
2077 31 1 9.7899999999992926e-01 -6.5571095445018656e+01 1.0000000000000000e+00 7.9413087339204047e+00 2.2759622516424834e+01 5.4222809124238287e+00 
831 18 1 9.7899999999996190e-01 -7.8731475151054795e+01 1.0000000000000000e+00 7.9454544903566093e+00 2.2752304794907079e+01 5.4259894759561487e+00 
623 14 1 9.7900000000009713e-01 -1.0410241689360750e+02 1.0000000000000000e+00 7.0028056616357315e+00 2.2227947766530296e+01 5.4329980309653552e+00 
2493 42 1 9.7899999999979381e-01 -1.9243549342922954e+01 1.0000000000000000e+00 7.0013487125663465e+00 2.2230767890224417e+01 5.4416243853444159e+00 
2107 32 1 9.7900000023265943e-01 -4.1810027095709209e+01 1.0000000000000000e+00 2.4708994703354445e+01 2.2591852618708995e+01 2.8979100669998341e+00 
1359 24 1 9.7900000023354961e-01 -5.2798670923576665e+01 1.0000000000000000e+00 2.4708994068759747e+01 2.2591853210177383e+01 2.8979105829809950e+00 
539 13 1 9.7900000000984233e-01 -5.4219364423010887e+01 1.0000000000000000e+00 2.4879987640332889e+01 2.1843183488548856e+01 3.7372810234373883e+00 
2519 43 1 9.7899999977148799e-01 -5.1421100840753340e+01 1.0000000000000000e+00 2.5602216884633815e+01 2.2631950342346681e+01 4.1252506355740248e+00 
2594 43 1 9.7899999976882734e-01 -1.0033288207151698e+02 1.0000000000000000e+00 2.5602215498097991e+01 2.2631949730737638e+01 4.1252522076544649e+00 
2079 31 1 9.7900000000003384e-01 -1.3746108792487107e+01 1.0000000000000000e+00 1.5587041267224905e+01 4.8936421650299353e+00 7.0225076470700758e+00 
899 19 1 9.7900000000002185e-01 -2.3514844228775154e+01 1.0000000000000000e+00 1.5589633742836380e+01 4.8947311801517444e+00 7.0250207430397378e+00 
567 13 1 9.7900000000016785e-01 -7.9713342086634199e+01 1.0000000000000000e+00 1.5685557417895019e+01 3.8758864179769921e+00 7.3661763984434234e+00 
1344 24 1 9.7899999999988419e-01 -6.8596304508838884e+01 1.0000000000000000e+00 1.5681899085095994e+01 3.8758519397289684e+00 7.3670917931558080e+00 
4017 64 1 9.7900000000003629e-01 -1.2031638043442051e+02 1.0000000000000000e+00 2.6343029350390328e+01 1.0146780012081406e+01 8.1185447964186928e+00 
1886 29 1 9.7899999999994858e-01 -3.4147369631847738e+01 1.0000000000000000e+00 2.6350416897413432e+01 1.0146675907530783e+01 8.1244078974004399e+00 
575 13 1 9.7899999999998799e-01 -1.8682056203605379e+02 1.0000000000000000e+00 1.4297714703612034e+01 2.6599251571859540e+01 7.0381285614537443e+00 
2911 47 1 9.7899999999999476e-01 -1.2116217715240548e+02 1.0000000000000000e+00 1.4294859159723325e+01 2.6600074457394125e+01 7.0391637871193149e+00 
3842 62 1 9.7899999999997189e-01 -1.3966568083298151e+02 1.0000000000000000e+00 1.4214270104980784e+01 2.5659925800346574e+01 7.5619097761264378e+00 
1608 25 1 9.7899999999999099e-01 -5.1669062341751243e+01 1.0000000000000000e+00 1.4216877997870808e+01 2.5660607659185739e+01 7.5635336378670797e+00 
3895 62 1 9.7899999999957898e-01 -9.2651500400767830e+01 1.0000000000000000e+00 1.1101939777684921e+01 7.5279119426306105e+00 1.0634841031209289e+01 
3140 52 1 9.7899999999984766e-01 -9.4694118892915085e+01 1.0000000000000000e+00 1.1100793708785858e+01 7.5280259952934969e+00 1.0636575200514535e+01 
2620 43 1 9.7900000000005005e-01 -1.0053956194910418e+02 1.0000000000000000e+00 1.1254536371025049e+01 6.4736852606604494e+00 1.0805024762803635e+01 
4026 64 1 9.7899999999937659e-01 -1.1974231652793968e+02 1.0000000000000000e+00 1.1253290501965113e+01 6.4737737850662507e+00 1.0806690235356946e+01 
1631 26 1 9.7899999999996523e-01 -7.3972886007879268e+01 1.0000000000000000e+00 2.5885762058344856e+01 9.3482098572270917e+00 8.6813349700537010e+00 
1542 25 1 9.7900000000002296e-01 -6.8816273653626112e+01 1.0000000000000000e+00 2.5894291418439124e+01 9.3452733412592650e+00 8.6840898806219951e+00 
1593 25 1 9.7899999512602975e-01 -3.3683774845810348e+01 1.0000000000000000e+00 1.0761678210385172e+01 1.6104311346365026e+01 9.2515882752994987e+00 
1177 22 1 9.7899999512067992e-01 -3.4114097211817636e+01 1.0000000000000000e+00 1.0761834732787323e+01 1.6104491412811303e+01 9.2517217447146134e+00 
1639 26 1 9.7900000487853078e-01 -8.4870063353003246e+01 1.0000000000000000e+00 1.0841948083635819e+01 1.5419674531702407e+01 1.0081333240463774e+01 
467 12 1 9.7900000487506078e-01 -6.4840180741888219e+01 1.0000000000000000e+00 1.0841957523293079e+01 1.5419724052408792e+01 1.0081373194647552e+01 
1754 28 1 9.7893182579488947e-01 -3.2935246248399196e+01 1.0000000000000000e+00 2.0927714872399346e+01 2.5255596629045275e+01 8.9092509488254272e+00 
1959 30 1 9.7897606649802249e-01 -8.1043412781418553e+01 1.0000000000000000e+00 2.0929780832353746e+01 2.5255421206895370e+01 8.9091603569823015e+00 
1419 24 1 9.7897564669247916e-01 -6.6455175793750186e+01 1.0000000000000000e+00 2.0928598646459712e+01 2.5255499859943178e+01 8.9093579352506129e+00 
1591 25 1 9.7861909685195358e-01 -9.0739597340876003e+01 1.0000000000000000e+00 2.1285560775671247e+01 2.5237607940189520e+01 1.0928867079922941e+01 
1728 28 1 9.7864494824055881e-01 -3.3935103783763267e+01 1.0000000000000000e+00 2.1274829877238879e+01 2.5248344123561512e+01 1.0985524961282996e+01 
4064 65 1 9.7899999999945253e-01 -9.3742091959819120e+01 1.0000000000000000e+00 5.1742780752561037e+00 2.8454891259906969e+01 9.4078998752814549e+00 
4038 64 1 9.7900000000004161e-01 -9.3581301955277425e+01 1.0000000000000000e+00 5.1747126196729090e+00 2.8453099134258128e+01 9.4083721723656097e+00 
3141 52 1 9.7899999999979381e-01 -1.2080286441587718e+02 1.0000000000000000e+00 6.2105278466988709e+00 2.8734551629037416e+01 9.5156937475273438e+00 
3922 62 1 9.7899999999970899e-01 -1.1087739729591672e+02 1.0000000000000000e+00 6.2109118579990046e+00 2.8732841963450227e+01 9.5164375126759175e+00 
1863 29 1 9.7899999999984433e-01 -5.8352158062432451e+01 1.0000000000000000e+00 1.6003367848048182e+01 2.7564372254368617e+01 1.0936593255640966e+01 
1175 22 1 9.7899999999982446e-01 -9.0336784528368156e+01 1.0000000000000000e+00 1.6000401804379205e+01 2.7564812894161800e+01 1.0936846776669260e+01 
1941 30 1 9.7878192683444387e-01 -1.8521704123078383e+01 1.0000000000000000e+00 2.4025314160833801e+01 2.8809484323985181e+01 9.4598740832225889e+00 
1805 29 1 9.7900349409382026e-01 -8.8211828253987775e+01 1.0000000000000000e+00 2.4454725547662445e+01 2.7766167471220982e+01 9.7012666489081827e+00 
3697 60 1 9.7900349403541087e-01 -1.1297859255859626e+02 1.0000000000000000e+00 2.4454724648122458e+01 2.7766167353863299e+01 9.7012656456880162e+00 
1324 24 1 9.7921181044977690e-01 -2.5876096199587327e+01 1.0000000000000000e+00 2.4283066529851848e+01 2.8618758890667561e+01 1.0201075665414617e+01 
1579 25 1 3.1084120890640538e-01 -1.8425662892375783e+02 1.0000000000000000e+00 2.2926875333916936e+01 1.6142355451880566e-01 1.2509127402560294e+01 
1676 27 1 9.7900000009687216e-01 -6.8133339149096457e+01 1.0000000000000000e+00 2.4288084841687930e+01 1.0731427512750225e+01 1.3689616913791893e+01 
1366 24 1 9.7900000009688559e-01 -9.2654361740718414e+01 1.0000000000000000e+00 2.4288084438023208e+01 1.0731426679517376e+01 1.3689616944227183e+01 
819 18 1 9.7900000009594201e-01 -1.4485647740942565e+02 1.0000000000000000e+00 2.4288084311346370e+01 1.0731426349542238e+01 1.3689616916391634e+01 
991 19 1 9.7899999465688869e-01 -1.5147970846907103e+02 1.0000000000000000e+00 2.2505092091690622e+00 1.2045390098467427e+01 1.2112458952562996e+01 
892 19 1 9.7899999463542042e-01 -1.0534989903537604e+02 1.0000000000000000e+00 2.2504559469288283e+00 1.2045387446603961e+01 1.2112566929185929e+01 
579 13 1 9.7899999461127230e-01 -8.9306173459540389e+01 1.0000000000000000e+00 2.2503740560235390e+00 1.2045386109828716e+01 1.2112741039731880e+01 
425 11 1 9.7900000539409326e-01 -1.3827647920222753e+02 1.0000000000000000e+00 1.0527105042669704e+00 1.3780707108289942e+01 1.1563334007853641e+01 
2103 32 1 9.7900000534684861e-01 -1.0403331794206392e+02 1.0000000000000000e+00 1.0526405479919063e+00 1.3780674908899284e+01 1.1563384781033999e+01 
993 19 1 9.7900000535165177e-01 -1.3274607068071370e+01 1.0000000000000000e+00 1.0525981413334713e+00 1.3780654051094251e+01 1.1563411406120990e+01 
649 14 1 9.7900000058004832e-01 -6.5458619536286250e+01 1.0000000000000000e+00 2.9960145334531216e+01 2.0214757979195788e+01 1.4057569750172977e+01 
96 3 1 9.7900000058837044e-01 -5.0208278812102094e+01 1.0000000000000000e+00 2.9954778505796742e+01 2.0203065898850092e+01 1.4079685693940595e+01 
1167 22 1 9.7899999999987730e-01 -1.0747105166857025e+02 1.0000000000000000e+00 4.1740314367740590e+00 2.4620011872439111e+01 1.3078358830582774e+01 
1923 30 1 9.7899999999922549e-01 -1.1868588115587822e+02 1.0000000000000000e+00 4.1712024194903492e+00 2.4612287009107185e+01 1.3078445070714467e+01 
364 10 1 9.7899999999916654e-01 -1.0495325982328157e+02 1.0000000000000000e+00 5.2162300170702567e+00 2.4715281928289901e+01 1.3650981079898132e+01 
4121 65 1 9.7890984516115864e-01 -2.6881713230043744e+01 1.0000000000000000e+00 2.1356468584427500e+01 2.5260569286876528e+01 1.1518313282821039e+01 
2923 47 1 9.7888389293528655e-01 -6.2281719506494525e+01 1.0000000000000000e+00 2.1485901384529509e+01 2.5468108541223085e+01 1.3213673124728514e+01 
2752 46 1 9.7888138354432386e-01 -7.1180138078761914e+01 1.0000000000000000e+00 2.1487178307420585e+01 2.5470613935705973e+01 1.3213231267060340e+01 
3533 57 1 9.7887591697352694e-01 -1.0076634015672408e+02 1.0000000000000000e+00 1.9711980479590114e+01 2.4799721003909262e+01 1.4049878865372364e+01 
2913 47 1 9.7887587059963010e-01 -1.2474964162102575e+02 1.0000000000000000e+00 1.9711983051937374e+01 2.4799714962273793e+01 1.4049880189159175e+01 
1929 30 1 9.7887869447616449e-01 -6.8027060554699460e+01 1.0000000000000000e+00 1.9712012244237062e+01 2.4799730677599605e+01 1.4049911901431827e+01 
634 14 1 9.7873360649066465e-01 -7.6293049468833402e+01 1.0000000000000000e+00 2.2362142055569290e+01 2.6072293150513492e+01 1.4276483887607565e+01 
785 17 1 9.7888364411104678e-01 -4.6569576862207384e+01 1.0000000000000000e+00 2.2477081598153099e+01 2.5921658095572205e+01 1.4185911221190617e+01 
3553 57 1 9.7899999999982135e-01 -9.7394400309636652e+01 1.0000000000000000e+00 1.0541649377487222e+01 2.8607734248153033e+01 1.1505753520630087e+01 
2201 34 1 9.7899999999840059e-01 -2.4811532008813511e+01 1.0000000000000000e+00 1.0541900066830600e+01 2.8608404665170696e+01 1.1505899303931953e+01 
3546 57 1 9.7900000000074550e-01 -1.0520985502993183e+02 1.0000000000000000e+00 9.5791113199201003e+00 2.8879836983277656e+01 1.1909643961995560e+01 
2015 30 1 9.7900000000076615e-01 -2.6270381824769981e+01 1.0000000000000000e+00 9.5793978105045490e+00 2.8880453358207685e+01 1.1909911450464193e+01 
1034 20 1 9.7900000000016540e-01 -9.9588775771331683e+01 1.0000000000000000e+00 1.6146187541085713e+01 2.7968916913207210e+01 1.1926334586386806e+01 
1750 28 1 9.7900000000016518e-01 -9.7468092073945613e+01 1.0000000000000000e+00 1.6146568217432481e+01 2.7966132981729228e+01 1.1927411925718445e+01 
2287 37 1 9.7909623185061179e-01 -6.8260963577786498e+01 1.0000000000000000e+00 2.4737282215771689e+01 2.8990374714868459e+01 1.2481155272090485e+01 
2338 38 1 9.7909019349740323e-01 -4.8697317803016240e+01 1.0000000000000000e+00 2.4736501766909960e+01 2.8991628137222357e+01 1.2479487151538160e+01 
2570 43 1 9.7871784075381318e-01 -7.8425594448869433e+01 1.0000000000000000e+00 2.4686876563334341e+01 2.9173745146606763e+01 1.2413576252132119e+01 
2995 49 1 9.7899999989719289e-01 -1.3396989533044632e+02 1.0000000000000000e+00 2.6465514433827487e+01 1.0020147307387527e+01 1.4436591478993998e+01 
2518 43 1 9.7899999989737951e-01 -2.9554868990704303e+01 1.0000000000000000e+00 2.6465514145997226e+01 1.0020147144406470e+01 1.4436591096581452e+01 
876 19 1 9.7900000001708287e-01 -7.1501544530099082e+01 1.0000000000000000e+00 2.5454974674537070e+01 1.0078908876307757e+01 1.5131276271225611e+01 
498 12 1 9.7900000012110155e-01 -7.6600641599299834e+01 1.0000000000000000e+00 2.5956798743491248e+01 9.9167714113886856e+00 1.5296564707072420e+01 
3182 53 1 9.7899999987548603e-01 -1.0013169496628394e+02 1.0000000000000000e+00 2.4162816839655850e+01 1.7495481088215147e+01 1.6168136083770950e+01 
2896 47 1 9.7899999987741093e-01 -9.2437908827978092e+01 1.0000000000000000e+00 2.4162800876591053e+01 1.7495864480932383e+01 1.6168248954113373e+01 
3976 63 1 9.7900000013148325e-01 -1.3780001239844967e+02 1.0000000000000000e+00 2.2657572189850093e+01 1.7303368300052558e+01 1.6221490863135369e+01 
477 12 1 9.7900000012998145e-01 -6.8733182202599139e+01 1.0000000000000000e+00 2.2657428935871962e+01 1.7303295074873642e+01 1.6222049523708648e+01 
2547 43 1 9.7900000000596954e-01 -1.1503727402780692e+02 1.0000000000000000e+00 2.3445507480065558e+01 1.7358343859392662e+01 1.7040492569166890e+01 
1961 30 1 9.7900000000017384e-01 -3.9216236156450918e+01 1.0000000000000000e+00 4.5667773916528542e+00 2.3978193979858641e+01 1.4299902844618391e+01 
585 13 1 9.7899999999967824e-01 -6.5183837862432839e+01 1.0000000000000000e+00 4.8208068060519622e+00 2.4268915559156444e+01 1.4432996246820547e+01 
1930 30 1 9.7894332122287231e-01 -5.1232323946424714e+01 1.0000000000000000e+00 1.6916184150033729e+01 2.3359508915444241e+01 1.5473367490511874e+01 
1826 29 1 9.7894332122264960e-01 -1.0730581147349693e+02 1.0000000000000000e+00 1.6916184150034969e+01 2.3359508915443193e+01 1.5473367490510642e+01 
2786 46 1 9.7894332122257799e-01 -8.2291856631695410e+01 1.0000000000000000e+00 1.6916184150035683e+01 2.3359508915442749e+01 1.5473367490510649e+01 
2910 47 1 9.7890119741456005e-01 -1.0654662416379360e+02 1.0000000000000000e+00 1.7137080926449535e+01 2.5359418612409552e+01 1.6033094821263354e+01 
967 19 1 9.7906815172530737e-01 -7.8591639571217129e+01 1.0000000000000000e+00 1.6621748758236880e+01 2.5316138163944409e+01 1.6036044977428162e+01 
1406 24 1 9.7902161037656521e-01 -6.8856287794009148e+01 1.0000000000000000e+00 1.6831868317660224e+01 2.6437461605879658e+01 1.6318502861736832e+01 
2041 30 1 9.7902165709491062e-01 -2.3566853009402369e+01 1.0000000000000000e+00 1.6831868391325497e+01 2.6437461426478460e+01 1.6318502820929510e+01 
3696 60 1 9.7921991897463945e-01 -1.2620265986135635e+02 1.0000000000000000e+00 2.3263297128192100e+01 2.6597344760748435e+01 1.5030756704782517e+01 
900 19 1 9.7888577777420249e-01 -3.7979660736372104e+01 1.0000000000000000e+00 2.3725835886464637e+01 2.6958059380132187e+01 1.5504004360857698e+01 
2967 48 1 9.7871706327240737e-01 -1.2684933663493625e+02 1.0000000000000000e+00 2.3987223161590013e+01 2.7196679057089415e+01 1.5738091952335273e+01 
1767 28 1 9.7901556297677472e-01 -2.2198095196992437e+01 1.0000000000000000e+00 1.7380702399280139e+01 2.8574632906188501e+01 1.6769596480651558e+01 
2922 47 1 9.7901439549941716e-01 -9.2759410486494758e+01 1.0000000000000000e+00 1.7379077698242799e+01 2.8570404279068217e+01 1.6765461434914087e+01 
1936 30 1 9.7901508160511486e-01 -8.4072585701092891e+01 1.0000000000000000e+00 1.7379527736822681e+01 2.8570976276267483e+01 1.6766192057796751e+01 
1633 26 1 9.7928146663348714e-01 -1.2505444697341132e+02 1.0000000000000000e+00 2.4958796438657647e+01 2.7459286098855888e+01 1.6646399563390272e+01 
2040 30 1 9.7913409518063310e-01 -2.4421077315936913e+01 1.0000000000000000e+00 2.5084812437161162e+01 2.7493967674534581e+01 1.6781183636154420e+01 
1408 24 1 9.7866354150092461e-01 -1.0577538889567187e+02 1.0000000000000000e+00 2.7036171544590704e+01 2.9211620918624625e+01 1.6910773993277534e+01 
1928 30 1 9.7826745360177125e-01 -5.5347010005558850e+01 1.0000000000000000e+00 2.7045905984586977e+01 2.9262851146982729e+01 1.6896951167021857e+01 
543 13 1 9.7856658104070560e-01 -1.1566690955402066e+02 1.0000000000000000e+00 2.7035022226345859e+01 2.9192820215925629e+01 1.6918000431310212e+01 
1875 29 1 9.7931288531820693e-01 -2.0398094471013380e+01 1.0000000000000000e+00 2.9246452965647379e+01 2.9144181154387240e+01 1.6547148336594464e+01 
2471 41 1 9.7943408101951712e-01 -2.5176674241304156e+01 1.0000000000000000e+00 2.9265065213057156e+01 2.9666430225283541e+01 1.6458765802915309e+01 
1423 24 1 9.7899999353537637e-01 -7.0903442112267612e+01 1.0000000000000000e+00 2.0945049182083686e+01 1.1708222740687997e+01 1.7282951503834337e+01 
27 1 1 9.7899999390226966e-01 -1.5192352195498035e+01 1.0000000000000000e+00 2.0945340571876706e+01 1.1708196098386466e+01 1.7282878025670733e+01 
214 5 1 9.7899999366001100e-01 -2.3222814505949074e+01 1.0000000000000000e+00 2.0945156195475253e+01 1.1708210475134534e+01 1.7282934481188732e+01 
1286 24 1 9.7900000694723277e-01 -1.1722899450898043e+02 1.0000000000000000e+00 2.1265516246832991e+01 1.3802114770120452e+01 1.7793345652205627e+01 
657 14 1 9.7900000597286629e-01 -9.5798548676255407e+01 1.0000000000000000e+00 2.1265506883911300e+01 1.3802118895136148e+01 1.7793334625022759e+01 
848 18 1 9.7900000598607906e-01 -2.5429758142395312e+02 1.0000000000000000e+00 2.1265511129696023e+01 1.3802107541632260e+01 1.7793378531622260e+01 
3789 61 1 9.3252362671921596e-01 -1.9300962404947202e+02 1.0000000000000000e+00 6.9691815025670669e+00 2.3571468268006100e+01 1.9779235147497385e+01 
138 4 1 9.3252362671921596e-01 -1.0816623571410226e+02 1.0000000000000000e+00 6.9691815025627406e+00 2.3571468267994799e+01 1.9779235147497385e+01 
4008 64 1 9.3252362671921596e-01 -1.1295677293721484e+02 1.0000000000000000e+00 6.9691815025573440e+00 2.3571468267996995e+01 1.9779235147497385e+01 
201 5 1 9.7896535092353076e-01 -3.2827206834885715e+01 1.0000000000000000e+00 2.2655228570548193e+01 2.6177479733386122e+01 1.9146403094583714e+01 
3114 52 1 9.7894231830411416e-01 -1.0614385383898623e+02 1.0000000000000000e+00 2.2640588954246901e+01 2.6183418001583377e+01 1.9139134136584289e+01 
1813 29 1 9.7910629302320962e-01 -6.7226992434522472e+01 1.0000000000000000e+00 2.2686621266064726e+01 2.6156314157062656e+01 1.9170630691000031e+01 
956 19 1 9.7928529314213442e-01 -9.5464944646249393e+01 1.0000000000000000e+00 2.6076154154803508e+01 2.7007868152223327e+01 1.7628455275512362e+01 
914 19 1 9.7905551822329262e-01 -1.6693286568580913e+01 1.0000000000000000e+00 2.6057953394679579e+01 2.6695454421768357e+01 1.7682733396554195e+01 
1195 22 1 9.7924859825351152e-01 -6.3934197004978444e+00 1.0000000000000000e+00 2.7140369279081909e+01 2.6122091791998713e+01 1.8481429545859051e+01 
2935 47 1 9.7930329702298047e-01 -8.4534856524652284e+01 1.0000000000000000e+00 2.7109487789399068e+01 2.6114315882424851e+01 1.8479872668487477e+01 
1735 28 1 9.7885339576434449e-01 -2.7802876243050592e+00 1.0000000000000000e+00 2.9195626581971354e+01 2.4595784180129268e+01 1.9300233947344427e+01 
2810 46 1 9.7931198285642429e-01 -1.0686742703807415e+02 1.0000000000000000e+00 2.8268452481511034e+01 2.5236223554821642e+01 1.9103346836803045e+01 
643 14 1 9.7938003288779973e-01 -4.9033061403536443e+01 1.0000000000000000e+00 2.8262124891903174e+01 2.5223817353849601e+01 1.9098681518276592e+01 
1607 25 1 9.7910004281218688e-01 -2.2236736155517939e+01 1.0000000000000000e+00 2.4472328939872828e+01 2.9722056908887208e+01 1.7290912408427118e+01 
1293 24 1 9.7906789111998016e-01 -6.2432846048282407e+01 1.0000000000000000e+00 2.4480474129141193e+01 2.9713110297833847e+01 1.7290295188413317e+01 
2023 30 1 9.7919321985052954e-01 -4.6840689699405026e+01 1.0000000000000000e+00 2.4538804752014585e+01 2.9635560172568439e+01 1.7238945241053340e+01 
2937 47 1 9.7845134967787062e-01 -5.9226914421786333e+01 1.0000000000000000e+00 2.9111525364756965e+01 2.9170993987676766e+01 1.7369494533173022e+01 
1132 22 1 9.7899999999998066e-01 -3.7231114139909593e+01 1.0000000000000000e+00 1.0179615283582836e+01 8.0037234880054022e+00 2.0052085681080804e+01 
3088 52 1 9.7899999999972664e-01 -4.6828375866160108e+01 1.0000000000000000e+00 1.0181259219104987e+01 8.0044223400440515e+00 2.0054941012737526e+01 
1421 24 1 9.7899999999914866e-01 -7.6620091874306752e+01 1.0000000000000000e+00 9.2706100620438487e+00 8.3950129053401916e+00 2.0481317678318593e+01 
175 4 1 9.7900000000055543e-01 -6.8154784836501022e+01 1.0000000000000000e+00 9.2701473881459098e+00 8.3921142862118803e+00 2.0482969276655648e+01 
3750 61 1 9.7899999857133113e-01 -1.1518041193387093e+02 1.0000000000000000e+00 2.6644220483417960e+00 1.3403089181855625e+01 2.0592327410868847e+01 
4194 66 1 9.7899999950563577e-01 -8.3042453821058018e+01 1.0000000000000000e+00 2.7875505929925559e+00 1.1580932982323525e+01 2.0212615876172951e+01 
3399 56 1 9.7899999950114347e-01 -1.4949240806212163e+02 1.0000000000000000e+00 2.7875509039018396e+00 1.1580931906431397e+01 2.0212621711988231e+01 
3741 61 1 9.7899999950118655e-01 -1.3674949216870564e+02 1.0000000000000000e+00 2.7875522086969720e+00 1.1580932416577351e+01 2.0212619563246243e+01 
1185 22 1 9.7900000011474630e-01 -3.2210638659526985e+01 1.0000000000000000e+00 2.3871641875736724e+00 1.4056149105403202e+01 2.0368075212491430e+01 
2593 43 1 9.7900000044827817e-01 -6.0460754585122984e+01 1.0000000000000000e+00 2.7368334926084930e+00 1.4545295354136577e+01 2.1061552999036472e+01 
3739 61 1 9.7900000044966506e-01 -9.0257100623362263e+01 1.0000000000000000e+00 2.7368220938053658e+00 1.4545290443272384e+01 2.1061563749471784e+01 
1680 27 1 9.7896401142701228e-01 -8.2851929086290667e+01 1.0000000000000000e+00 2.1622044797033031e+01 2.6565741297365353e+01 2.1026492246978741e+01 
1637 26 1 9.7894581273517212e-01 -7.6239134779765109e+01 1.0000000000000000e+00 2.1614651749377082e+01 2.6572102297729085e+01 2.1021122255118307e+01 
1838 29 1 9.7906736177351128e-01 -1.0102846475839259e+02 1.0000000000000000e+00 2.1619019331298716e+01 2.6568149937495424e+01 2.1023743188693764e+01 
1450 24 1 9.7866884698266710e-01 -9.3765568928373526e+01 1.0000000000000000e+00 2.5150787226030307e+01 2.5208101824579895e+01 2.0525749360802198e+01 
1459 24 1 9.7869600443851956e-01 -1.0325435282856789e+02 1.0000000000000000e+00 2.5150893682327307e+01 2.5208228632498646e+01 2.0525892572440299e+01 
937 19 1 9.7920945130774384e-01 -2.1508329355177057e+01 1.0000000000000000e+00 2.4858529686707886e+01 2.5316988930163358e+01 2.0415716947158177e+01 
3642 59 1 9.7913494777844046e-01 -1.0530534307706769e+02 1.0000000000000000e+00 2.5060936943490308e+01 2.7198158555780381e+01 2.1277728536302345e+01 
1414 24 1 9.7919831800355495e-01 -7.5112551642943629e+01 1.0000000000000000e+00 2.5146595729531946e+01 2.7196421797004685e+01 2.1263150651035620e+01 
1453 24 1 9.7899367905618861e-01 -1.3052939891508433e+02 1.0000000000000000e+00 2.5012191952557778e+01 2.7239046607815339e+01 2.0949621963878325e+01 
2108 32 1 9.7880763939456172e-01 -2.4868856564398136e+01 1.0000000000000000e+00 2.4990513384973891e+01 2.9838969455205582e+01 2.1307309246167044e+01 
2080 31 1 9.7938926432056628e-01 -6.1093998148044932e+01 1.0000000000000000e+00 2.5010544013588280e+01 2.9841871142328102e+01 2.1299776472155322e+01 
3547 57 1 9.7870490128694054e-01 -1.3010792130305742e+02 1.0000000000000000e+00 2.5034663316605606e+01 2.9828438916089212e+01 2.1411162199584492e+01 
389 10 1 9.7900000501604745e-01 8.4026253064837988e+00 1.0000000000000000e+00 1.0955179715722990e+01 1.6268823005724006e+01 2.5661538246338608e+01 
1083 21 1 9.7900000571118850e-01 -8.1581324895159895e+01 1.0000000000000000e+00 1.0955076271824398e+01 1.6268872049675796e+01 2.5661474483484579e+01 
1399 24 1 9.7900000502054996e-01 -4.7671477508135382e+01 1.0000000000000000e+00 1.0955170675140613e+01 1.6268843867274153e+01 2.5661525677175018e+01 
167 4 1 9.7899999999969201e-01 -6.4882944069309644e+01 1.0000000000000000e+00 2.7322237400169374e+01 1.7757567406950031e+01 2.5375630377132413e+01 
1721 28 1 9.7900000000094067e-01 -9.5971685404250010e+01 1.0000000000000000e+00 2.7315611997648304e+01 1.7762557790243644e+01 2.5381107345262780e+01 
2515 43 1 9.7897552234082863e-01 -7.0425195325575046e+01 1.0000000000000000e+00 2.7244236399588431e+01 2.5753625127829121e+01 2.3676198231358061e+01 
2307 37 1 9.7898936879203924e-01 -8.0423940035528148e+01 1.0000000000000000e+00 2.7255003635265535e+01 2.5755783379660578e+01 2.3717450090749303e+01 
759 17 1 9.7903572828013052e-01 -8.2612247101154665e+01 1.0000000000000000e+00 2.7313018361944373e+01 2.5726860675598314e+01 2.3699863629137646e+01 
3127 52 1 9.7899468131408174e-01 -6.4454168085213382e+01 1.0000000000000000e+00 2.8239408351843004e+01 2.7650220943285209e+01 2.3290443353047330e+01 
2615 43 1 9.7901900610049974e-01 -1.2746114530125618e+02 1.0000000000000000e+00 2.8259980439956863e+01 2.7631101224661169e+01 2.3270203668271954e+01 
2892 47 1 9.7898508260082795e-01 -4.5471653196736128e+01 1.0000000000000000e+00 2.8190105051933873e+01 2.7672539849313321e+01 2.3306954878943234e+01 
1131 22 1 9.3252362671921596e-01 -1.5440606277844256e+02 1.0000000000000000e+00 2.4923686303308099e+01 6.0592780631501109e-01 2.7532115078152142e+01 
4024 64 1 9.3252362671921596e-01 -2.5362704498420297e+02 1.0000000000000000e+00 2.4923686303305114e+01 6.0592780631521648e-01 2.7532115078152142e+01 
1125 22 1 9.3252362671921596e-01 -8.9399061190340845e+01 1.0000000000000000e+00 2.4923686303330975e+01 6.0592780631505283e-01 2.7532115078152142e+01 
336 9 1 9.3252362671921596e-01 -1.0455921395289212e+02 1.0000000000000000e+00 1.5225331961070898e+00 9.4713419606307632e+00 2.6378384100052887e+01 
2167 33 1 9.3252362671921596e-01 -1.1801105142798728e+02 1.0000000000000000e+00 1.5225331961068385e+00 9.4713419606353941e+00 2.6378384100052887e+01 
1844 29 1 9.3252362671921596e-01 -1.5128549486034024e+02 1.0000000000000000e+00 1.5225331961069313e+00 9.4713419606463720e+00 2.6378384100052887e+01 
1358 24 1 9.7899999455481912e-01 -8.9399201820691772e+01 1.0000000000000000e+00 1.0174174027260882e+01 1.7059376247773613e+01 2.7535742273452389e+01 
1236 23 1 9.7899999487423450e-01 -6.0495646594827193e+01 1.0000000000000000e+00 1.0174394810976437e+01 1.7059316017338830e+01 2.7535859718824671e+01 
1243 23 1 9.7899999482318900e-01 -8.8133397544482420e+01 1.0000000000000000e+00 1.0174423117734605e+01 1.7059348814547544e+01 2.7535857669658888e+01 
616 14 1 9.7900000000021203e-01 -1.2159275355282043e+02 1.0000000000000000e+00 2.8119198201042579e+01 1.8158751536294176e+01 2.5981823488473506e+01 
683 15 1 9.7900000000045917e-01 -4.3891243315232359e+01 1.0000000000000000e+00 2.8117410843091402e+01 1.8151803132525931e+01 2.5988702594547142e+01 