LAMMPS data file via write_data, version 30 Jul 2016, timestep = 100400000

1604 atoms
8 atom types

0.0000000000000000e+00 6.0000000000000000e+01 xlo xhi
0.0000000000000000e+00 6.0000000000000000e+01 ylo yhi
0.0000000000000000e+00 6.0000000000000000e+01 zlo zhi

Masses

1 3.896
2 8.3
3 4.31
4 28.378
5 28.378
6 28.378
7 28.378
8 28.378

Atoms # meso-molecular

1233 23 1 9.7900000501992024e-01 -9.9183881307636341e+01 1.0000000000000000e+00 2.9146535329741287e+01 1.3721871425768974e+01 1.2541153727005485e+00 
99 3 1 9.7900000503018503e-01 -1.2029820990198191e+02 1.0000000000000000e+00 2.9146509639326137e+01 1.3721826470298970e+01 1.2541751241327972e+00 
332 9 1 9.7899999497183121e-01 -1.0989181773147058e+02 1.0000000000000000e+00 2.8794259314171601e+01 1.4603666215461386e+01 1.7659621076011143e+00 
1554 25 1 9.7899999497269752e-01 -1.5196696130869665e+02 1.0000000000000000e+00 2.8794128078807141e+01 1.4603504278116123e+01 1.7661507107095480e+00 
215 5 1 9.7900000034590517e-01 -9.1897720651251305e+01 1.0000000000000000e+00 5.0880794753868042e+00 2.4365297972972762e+01 1.7917151536322189e+00 
382 10 1 9.7900000034716061e-01 -7.7328654304555499e+01 1.0000000000000000e+00 5.0880678239081920e+00 2.4365271160400862e+01 1.7916743186179873e+00 
1247 23 1 9.7899999999986342e-01 -6.4137325483932457e+01 1.0000000000000000e+00 5.7729637175508381e+00 2.4353648172091248e+01 8.8335671691109152e-01 
2107 32 1 9.7899999956537942e-01 -4.1810027095709209e+01 1.0000000000000000e+00 2.4708994703178622e+01 2.2591852619516658e+01 2.8466843944328737e+00 
1359 24 1 9.7899999956557382e-01 -5.2798670923576665e+01 1.0000000000000000e+00 2.4708994068576246e+01 2.2591853210982819e+01 2.8466849104159717e+00 
3406 56 1 9.7899999964847695e-01 -9.8895440733002886e+01 1.0000000000000000e+00 6.4330905844585695e+00 2.5018986683974681e+01 1.5282208208320338e+00 
4136 65 1 9.7899999964847328e-01 -1.1550345389965413e+02 1.0000000000000000e+00 6.4330923445075987e+00 2.5018985429599390e+01 1.5282129505392923e+00 
1312 24 1 9.7900000000000686e-01 -7.4032836897666428e+01 1.0000000000000000e+00 2.6520043348393187e+01 5.1429561590113186e+00 3.9065914668276323e+00 
1916 30 1 9.7900000000000631e-01 -6.3475641995457146e+01 1.0000000000000000e+00 2.6522941119892682e+01 5.1438198334120457e+00 3.9149111484774073e+00 
1499 25 1 9.7899999999999576e-01 -1.0920675673974993e+02 1.0000000000000000e+00 2.5973845305138443e+01 4.2566495196378709e+00 4.1888634045597870e+00 
83 3 1 9.7900000000000242e-01 -4.8720570466259581e+01 1.0000000000000000e+00 2.5977397345944016e+01 4.2570400417482714e+00 4.1969622078379407e+00 
1133 22 1 9.7899999999995646e-01 -9.3561602673647286e+01 1.0000000000000000e+00 5.2737168152682825e+00 7.8948652701352460e+00 3.4167221744015595e+00 
1938 30 1 9.7899999999994214e-01 -6.2301569280982704e+01 1.0000000000000000e+00 5.2759737849926900e+00 7.8930254305442462e+00 3.4168365025929122e+00 
1345 24 1 9.7900000000003184e-01 -6.4832630221075917e+01 1.0000000000000000e+00 5.7713814292456229e+00 8.5468942625763820e+00 4.1173138492425654e+00 
1944 30 1 9.7900000000002696e-01 -1.7020955279151192e+01 1.0000000000000000e+00 5.7704262897280953e+00 8.5452472105911390e+00 4.1195199590930605e+00 
335 9 1 9.7900000500138429e-01 -1.0023796563675147e+02 1.0000000000000000e+00 1.8131127496216727e+01 1.8720485593976001e+01 4.3846518360396729e+00 
1318 24 1 9.7900000504190365e-01 -9.4133570466998435e+01 1.0000000000000000e+00 1.8131190863270948e+01 1.8720487821034219e+01 4.3847403077204339e+00 
889 19 1 9.7900000510234930e-01 -9.2225210716531322e+01 1.0000000000000000e+00 1.8131216569081271e+01 1.8720446876928015e+01 4.3847337044512864e+00 
1176 22 1 9.7899999487144151e-01 -6.8910816655309205e+01 1.0000000000000000e+00 1.9635641464678351e+01 1.9843174182412746e+01 3.2784903717799110e+00 
1797 29 1 9.7899999501448365e-01 -8.3629621156673252e+01 1.0000000000000000e+00 1.9635747904297322e+01 1.9843161408014279e+01 3.2786221578738219e+00 
2439 40 1 9.7899999496142165e-01 -1.4396314116885770e+02 1.0000000000000000e+00 1.9635645534302242e+01 1.9843347991113429e+01 3.2786723615529225e+00 
2077 31 1 9.7899999999992171e-01 -6.5571095445018656e+01 1.0000000000000000e+00 7.9413087339207200e+00 2.2759622516424834e+01 5.3710552407543135e+00 
831 18 1 9.7899999999996157e-01 -7.8731475151054795e+01 1.0000000000000000e+00 7.9454544903569051e+00 2.2752304794907079e+01 5.3747638042867125e+00 
623 14 1 9.7900000000008913e-01 -1.0410241689360750e+02 1.0000000000000000e+00 7.0028056616360148e+00 2.2227947766530296e+01 5.3817723592959830e+00 
2493 42 1 9.7899999999979381e-01 -1.9243549342922954e+01 1.0000000000000000e+00 7.0013487125666565e+00 2.2230767890224417e+01 5.3903987136751308e+00 
539 13 1 9.7900000000300147e-01 -5.4219364423010887e+01 1.0000000000000000e+00 2.4879987642251173e+01 2.1843183488618404e+01 3.6860553544075536e+00 
2519 43 1 9.7900000044279167e-01 -5.1421100840753340e+01 1.0000000000000000e+00 2.5602216883857114e+01 2.2631950341503803e+01 4.0740249634851144e+00 
2594 43 1 9.7900000044585656e-01 -1.0033288207151698e+02 1.0000000000000000e+00 2.5602215497313779e+01 2.2631949729890067e+01 4.0740265355581213e+00 
2079 31 1 9.7899999999995480e-01 -1.3746108792487107e+01 1.0000000000000000e+00 1.5587041267224905e+01 4.8936421650299353e+00 6.9712819754004638e+00 
899 19 1 9.7899999999995702e-01 -2.3514844228775154e+01 1.0000000000000000e+00 1.5589633742836380e+01 4.8947311801517444e+00 6.9737950713702368e+00 
567 13 1 9.7899999999988840e-01 -7.9713342086634199e+01 1.0000000000000000e+00 1.5685557417895019e+01 3.8758864179766239e+00 7.3149507267750122e+00 
1344 24 1 9.7900000000002041e-01 -6.8596304508838884e+01 1.0000000000000000e+00 1.5681899085095994e+01 3.8758519397291527e+00 7.3158661214857128e+00 
4017 64 1 9.7900000000002096e-01 -1.2031638043442051e+02 1.0000000000000000e+00 2.6343029350390328e+01 1.0146780012081406e+01 8.0673191247491722e+00 
1886 29 1 9.7899999999997322e-01 -3.4147369631847738e+01 1.0000000000000000e+00 2.6350416897413432e+01 1.0146675907530783e+01 8.0731822257311148e+00 
575 13 1 9.7900000000002163e-01 -1.8682056203605379e+02 1.0000000000000000e+00 1.4297714703612034e+01 2.6599251571859540e+01 6.9869028897844379e+00 
2911 47 1 9.7900000000002130e-01 -1.2116217715240548e+02 1.0000000000000000e+00 1.4294859159723325e+01 2.6600074457394125e+01 6.9879381154499711e+00 
3842 62 1 9.7900000000001386e-01 -1.3966568083298151e+02 1.0000000000000000e+00 1.4214270104980784e+01 2.5659925800346574e+01 7.5106841044568924e+00 
1608 25 1 9.7900000000000920e-01 -5.1669062341751243e+01 1.0000000000000000e+00 1.4216877997870808e+01 2.5660607659185739e+01 7.5123079661976604e+00 
3895 62 1 9.7899999999977971e-01 -9.2651500400767830e+01 1.0000000000000000e+00 1.1101939777684921e+01 7.5279119426275045e+00 1.0583615359539687e+01 
3140 52 1 9.7900000000035314e-01 -9.4694118892915085e+01 1.0000000000000000e+00 1.1100793708785858e+01 7.5280259952898110e+00 1.0585349528846258e+01 
2620 43 1 9.7899999999976695e-01 -1.0053956194910418e+02 1.0000000000000000e+00 1.1254536371025049e+01 6.4736852606562314e+00 1.0753799091134161e+01 
4026 64 1 9.7900000000036758e-01 -1.1974231652793968e+02 1.0000000000000000e+00 1.1253290501965113e+01 6.4737737850652204e+00 1.0755464563686701e+01 
1631 26 1 9.7899999999998166e-01 -7.3972886007879268e+01 1.0000000000000000e+00 2.5885762058344856e+01 9.3482098572270917e+00 8.6301092983841965e+00 
1542 25 1 9.7900000000001597e-01 -6.8816273653626112e+01 1.0000000000000000e+00 2.5894291418439124e+01 9.3452733412592650e+00 8.6328642089526042e+00 
1593 25 1 9.7899999516885694e-01 -3.3683774845810348e+01 1.0000000000000000e+00 1.0761678548540488e+01 1.6104311735455266e+01 9.2003628919123006e+00 
1177 22 1 9.7899999517234859e-01 -3.4114097211817636e+01 1.0000000000000000e+00 1.0761834394618560e+01 1.6104491023822177e+01 9.2004957846242039e+00 
1639 26 1 9.7900000482778660e-01 -8.4870063353003246e+01 1.0000000000000000e+00 1.0841948063387795e+01 1.5419674425390035e+01 1.0030107483149399e+01 
467 12 1 9.7900000483239558e-01 -6.4840180741888219e+01 1.0000000000000000e+00 1.0841957543560392e+01 1.5419724158605819e+01 1.0030147608762137e+01 
1754 28 1 9.7894024308353211e-01 -3.2935275233316638e+01 1.0000000000000000e+00 2.0939216707335021e+01 2.5251781770503047e+01 8.8521719166842487e+00 
1959 30 1 9.7880107394573235e-01 -8.1043456576492346e+01 1.0000000000000000e+00 2.0929397570221060e+01 2.5252567509241896e+01 8.8527894163858694e+00 
1419 24 1 9.7892306348773295e-01 -6.6455207283912856e+01 1.0000000000000000e+00 2.0929176929570730e+01 2.5252458005625510e+01 8.8535546103032612e+00 
1591 25 1 9.7902901782573970e-01 -9.0739608827545325e+01 1.0000000000000000e+00 2.1250349308100592e+01 2.5232266548068409e+01 1.0899344321399141e+01 
1728 28 1 9.7896249978544669e-01 -3.3935128561483197e+01 1.0000000000000000e+00 2.1256597081355395e+01 2.5235717987989208e+01 1.0911581106193669e+01 
4064 65 1 9.7900000000002207e-01 -9.3742091959819120e+01 1.0000000000000000e+00 5.1742780752561952e+00 2.8454891259906969e+01 9.3566742036129469e+00 
4038 64 1 9.7900000000031018e-01 -9.3581301955277425e+01 1.0000000000000000e+00 5.1747126196723245e+00 2.8453099134258128e+01 9.3571465006959524e+00 
3141 52 1 9.7900000000012444e-01 -1.2080286441587718e+02 1.0000000000000000e+00 6.2105278466978913e+00 2.8734551629037416e+01 9.4644680758568906e+00 
3922 62 1 9.7900000000021603e-01 -1.1087739729591672e+02 1.0000000000000000e+00 6.2109118579974139e+00 2.8732841963450227e+01 9.4652118410068695e+00 
1863 29 1 9.7899999999983800e-01 -5.8352158062432451e+01 1.0000000000000000e+00 1.6003367848048182e+01 2.7564372254368617e+01 1.0885367583971565e+01 
1175 22 1 9.7899999999983522e-01 -9.0336784528368156e+01 1.0000000000000000e+00 1.6000401804379205e+01 2.7564812894161800e+01 1.0885621104999906e+01 
1941 30 1 9.7927831487056316e-01 -1.8521704998991208e+01 1.0000000000000000e+00 2.4024874696549976e+01 2.8821246630351574e+01 9.4246392715433380e+00 
1805 29 1 9.7903068604581078e-01 -8.8211834193340223e+01 1.0000000000000000e+00 2.4452301582036416e+01 2.7761075491354372e+01 9.6337953958859242e+00 
3697 60 1 9.7903068605896526e-01 -1.1297859849845268e+02 1.0000000000000000e+00 2.4452301735615908e+01 2.7761075530214342e+01 9.6337954368306526e+00 
1324 24 1 9.7867481971264736e-01 -2.5876082668568806e+01 1.0000000000000000e+00 2.4291144592079661e+01 2.8596091959716585e+01 1.0149377374752678e+01 
1579 25 1 3.1084120890640538e-01 -1.8425662892375783e+02 1.0000000000000000e+00 2.2926875333916936e+01 1.6142355451880566e-01 1.2457901730892781e+01 
1676 27 1 9.7900000138677290e-01 -6.8133339149096457e+01 1.0000000000000000e+00 2.4288084844385349e+01 1.0731427511390796e+01 1.3638391244882557e+01 
1366 24 1 9.7900000138803100e-01 -9.2654361740718414e+01 1.0000000000000000e+00 2.4288084440725779e+01 1.0731426678155756e+01 1.3638391275321945e+01 
819 18 1 9.7900000138559162e-01 -1.4485647740942565e+02 1.0000000000000000e+00 2.4288084314042539e+01 1.0731426348184089e+01 1.3638391247482179e+01 
991 19 1 9.7899999473089738e-01 -1.5147970846907103e+02 1.0000000000000000e+00 2.2505087557663281e+00 1.2045390082042191e+01 1.2061234220300705e+01 
892 19 1 9.7899999475423438e-01 -1.0534989903537604e+02 1.0000000000000000e+00 2.2504558779659130e+00 1.2045387449795200e+01 1.2061341416747045e+01 
579 13 1 9.7899999478152000e-01 -8.9306173459540389e+01 1.0000000000000000e+00 2.2503745787548124e+00 1.2045386122514861e+01 1.2061514269591177e+01 
425 11 1 9.7900000521104702e-01 -1.3827647920222753e+02 1.0000000000000000e+00 1.0527109378291297e+00 1.3780707311564747e+01 1.1512108031065559e+01 
2103 32 1 9.7900000526249120e-01 -1.0403331794206392e+02 1.0000000000000000e+00 1.0526404823866580e+00 1.3780674881984329e+01 1.1512159166803114e+01 
993 19 1 9.7900000525777331e-01 -1.3274607068071370e+01 1.0000000000000000e+00 1.0525977730123663e+00 1.3780653875261747e+01 1.1512185981964741e+01 
649 14 1 9.7899999983304675e-01 -6.5458619536286250e+01 1.0000000000000000e+00 2.9960145330205201e+01 2.0214758006771380e+01 1.4006344048745691e+01 
96 3 1 9.7899999983235142e-01 -5.0208278812102094e+01 1.0000000000000000e+00 2.9954778478982327e+01 2.0203065897838364e+01 1.4028460059004388e+01 
1961 30 1 9.7899999999960330e-01 -3.9216236156450918e+01 1.0000000000000000e+00 4.5667773916521126e+00 2.3978193979858641e+01 1.4248677172950844e+01 
1167 22 1 9.7899999999927168e-01 -1.0747105166857025e+02 1.0000000000000000e+00 4.1740314367786313e+00 2.4620011872439111e+01 1.3027133158908340e+01 
1923 30 1 9.7899999999892595e-01 -1.1868588115587822e+02 1.0000000000000000e+00 4.1712024194895410e+00 2.4612287009107185e+01 1.3027219399044753e+01 
364 10 1 9.7899999999995591e-01 -1.0495325982328157e+02 1.0000000000000000e+00 5.2162300170679963e+00 2.4715281928289901e+01 1.3599755408231655e+01 
4121 65 1 9.7916678274162805e-01 -2.6881665802232909e+01 1.0000000000000000e+00 2.1326323977410436e+01 2.5264998540230931e+01 1.1465379536940176e+01 
2923 47 1 9.7904501002739652e-01 -6.2281677399028553e+01 1.0000000000000000e+00 2.1500598485984835e+01 2.5482393772475785e+01 1.3156132918980722e+01 
2752 46 1 9.7904931404138962e-01 -7.1180096584811608e+01 1.0000000000000000e+00 2.1501934127172628e+01 2.5483386065800293e+01 1.3156256560271238e+01 
3533 57 1 9.7911212304014816e-01 -1.0076634881780663e+02 1.0000000000000000e+00 1.9729397967199588e+01 2.4804251350219801e+01 1.3987501919356307e+01 
2913 47 1 9.7911217367713166e-01 -1.2474965027032357e+02 1.0000000000000000e+00 1.9729402383559368e+01 2.4804242711778389e+01 1.3987503511921274e+01 
1929 30 1 9.7910913767883356e-01 -6.8027069907146299e+01 1.0000000000000000e+00 1.9729408570368527e+01 2.4804252197846559e+01 1.3987570596266755e+01 
634 14 1 9.7905619640687036e-01 -7.6293064937516121e+01 1.0000000000000000e+00 2.2343326079656496e+01 2.6095698515822946e+01 1.4260248143669026e+01 
785 17 1 9.7894776101730718e-01 -4.6569582534916265e+01 1.0000000000000000e+00 2.2483294337184841e+01 2.5873026057996107e+01 1.4142944253696045e+01 
3553 57 1 9.7899999999867215e-01 -9.7394400309636652e+01 1.0000000000000000e+00 1.0541649377523665e+01 2.8607734248153033e+01 1.1454527849037852e+01 
2201 34 1 9.7900000000049858e-01 -2.4811532008813511e+01 1.0000000000000000e+00 1.0541900066794687e+01 2.8608404665170696e+01 1.1454673632189349e+01 
3546 57 1 9.7900000000095744e-01 -1.0520985502993183e+02 1.0000000000000000e+00 9.5791113198738689e+00 2.8879836983277656e+01 1.1858418290215722e+01 
2015 30 1 9.7900000000143406e-01 -2.6270381824769981e+01 1.0000000000000000e+00 9.5793978105506170e+00 2.8880453358207685e+01 1.1858685778901192e+01 
1034 20 1 9.7900000000016052e-01 -9.9588775771331683e+01 1.0000000000000000e+00 1.6146187541085713e+01 2.7968916913207210e+01 1.1875108914717442e+01 
1750 28 1 9.7900000000017451e-01 -9.7468092073945613e+01 1.0000000000000000e+00 1.6146568217432481e+01 2.7966132981729228e+01 1.1876186254049042e+01 
2287 37 1 9.7889610680679462e-01 -6.8260964732178110e+01 1.0000000000000000e+00 2.4736366571210759e+01 2.8994427270977702e+01 1.2431455146083701e+01 
2338 38 1 9.7890081229040815e-01 -4.8697318558633754e+01 1.0000000000000000e+00 2.4735843166701464e+01 2.8995338266223616e+01 1.2430366245472353e+01 
2570 43 1 9.7920481755979749e-01 -7.8425595271710208e+01 1.0000000000000000e+00 2.4688318270720529e+01 2.9172923761096477e+01 1.2370013619938339e+01 
2995 49 1 9.7899999886467171e-01 -1.3396989533044632e+02 1.0000000000000000e+00 2.6465514435511082e+01 1.0020147307299027e+01 1.4385365806135727e+01 
2518 43 1 9.7899999886432332e-01 -2.9554868990704303e+01 1.0000000000000000e+00 2.6465514147681876e+01 1.0020147144318386e+01 1.4385365423722446e+01 
876 19 1 9.7900000003599652e-01 -7.1501544530099082e+01 1.0000000000000000e+00 2.5454974668559903e+01 1.0078908877792156e+01 1.5080050599302748e+01 
498 12 1 9.7900000143196542e-01 -7.6600641599299834e+01 1.0000000000000000e+00 2.5956798738012889e+01 9.9167714141623122e+00 1.5245339029749854e+01 
3182 53 1 9.7900000024545497e-01 -1.0013169496628394e+02 1.0000000000000000e+00 2.4162816839226675e+01 1.7495481088135687e+01 1.6116910412615912e+01 
2896 47 1 9.7900000024285072e-01 -9.2437908827978092e+01 1.0000000000000000e+00 2.4162800876170877e+01 1.7495864480850507e+01 1.6117023282955330e+01 
3976 63 1 9.7899999976140761e-01 -1.3780001239844967e+02 1.0000000000000000e+00 2.2657572189380392e+01 1.7303368300021241e+01 1.6170265190980793e+01 
477 12 1 9.7899999976482022e-01 -6.8733182202599139e+01 1.0000000000000000e+00 2.2657428935410397e+01 1.7303295074845646e+01 1.6170823851560485e+01 
2547 43 1 9.7900000000481269e-01 -1.1503727402780692e+02 1.0000000000000000e+00 2.3445507481837559e+01 1.7358343859618262e+01 1.6989266897436305e+01 
585 13 1 9.7899999999998699e-01 -6.5183837862432839e+01 1.0000000000000000e+00 4.8208068060473757e+00 2.4268915559156444e+01 1.4381770575151977e+01 
1930 30 1 9.7907663775720721e-01 -5.1232323440764020e+01 1.0000000000000000e+00 1.6915808806207057e+01 2.3359062488800578e+01 1.5422678300829263e+01 
1826 29 1 9.7907663775780984e-01 -1.0730581096783395e+02 1.0000000000000000e+00 1.6915808806208158e+01 2.3359062488804231e+01 1.5422678300830061e+01 
2786 46 1 9.7907663775795384e-01 -8.2291856126032428e+01 1.0000000000000000e+00 1.6915808806208727e+01 2.3359062488805115e+01 1.5422678300830235e+01 
2910 47 1 9.7899060792318104e-01 -1.0654662635384038e+02 1.0000000000000000e+00 1.7131741005318009e+01 2.5358413018967916e+01 1.5979602113914058e+01 
967 19 1 9.7905945741284794e-01 -7.8591638586993923e+01 1.0000000000000000e+00 1.6627585920700557e+01 2.5317751482159682e+01 1.5981807313558001e+01 
1406 24 1 9.7898681669578624e-01 -6.8856289878765693e+01 1.0000000000000000e+00 1.6834080323465869e+01 2.6442138319675358e+01 1.6270033358368050e+01 
2041 30 1 9.7898678750172241e-01 -2.3566855082650100e+01 1.0000000000000000e+00 1.6834080303633161e+01 2.6442138436710373e+01 1.6270033396755448e+01 
3696 60 1 9.7920430890847732e-01 -1.2620263299108902e+02 1.0000000000000000e+00 2.3248790732916877e+01 2.6590024816199467e+01 1.4966317847762822e+01 
900 19 1 9.7899324343607474e-01 -3.7979666670042377e+01 1.0000000000000000e+00 2.3709524690032648e+01 2.6966943859723767e+01 1.5433510487677895e+01 
2967 48 1 9.7910681908077735e-01 -1.2684939863341938e+02 1.0000000000000000e+00 2.3988374926159796e+01 2.7222544094196156e+01 1.5698025722740619e+01 
1767 28 1 9.7904208960244599e-01 -2.2198095807951947e+01 1.0000000000000000e+00 1.7379334329393380e+01 2.8571162784080244e+01 1.6717477812945539e+01 
2922 47 1 9.7904386684667888e-01 -9.2759411153026036e+01 1.0000000000000000e+00 1.7377135014610641e+01 2.8565812620599559e+01 1.6713803598390964e+01 
1936 30 1 9.7904304709406731e-01 -8.4072586375063523e+01 1.0000000000000000e+00 1.7377666150117093e+01 2.8566541851626869e+01 1.6714498022990554e+01 
1633 26 1 9.7906401468551796e-01 -1.2505443231743119e+02 1.0000000000000000e+00 2.4914515581299767e+01 2.7456940328698952e+01 1.6562649312885156e+01 
2040 30 1 9.7927523799672000e-01 -2.4421032007050925e+01 1.0000000000000000e+00 2.5066896341420872e+01 2.7468448853257261e+01 1.6769646604404230e+01 
1408 24 1 9.7882252119985880e-01 -1.0577544263937065e+02 1.0000000000000000e+00 2.7039654577294073e+01 2.9245088409671030e+01 1.6850957359106317e+01 
1928 30 1 9.7889273490424555e-01 -5.5347092707231937e+01 1.0000000000000000e+00 2.7039916124660937e+01 2.9231098148149002e+01 1.6856265657964165e+01 
543 13 1 9.7889541658182455e-01 -1.1566696768977114e+02 1.0000000000000000e+00 2.7041169990440817e+01 2.9254494402201807e+01 1.6847205900816260e+01 
1875 29 1 9.7962322440432259e-01 -2.0398142729322906e+01 1.0000000000000000e+00 2.9236367065317182e+01 2.9179302208685780e+01 1.6472342170679266e+01 
2471 41 1 9.7982329142395530e-01 -2.5176722760351392e+01 1.0000000000000000e+00 2.9284479423474277e+01 2.9629136561194734e+01 1.6365254587847179e+01 
1423 24 1 9.7899999398911897e-01 -7.0903442112267612e+01 1.0000000000000000e+00 2.0945050305894167e+01 1.1708222632320650e+01 1.7231725577261948e+01 
27 1 1 9.7899999358840573e-01 -1.5192352195498035e+01 1.0000000000000000e+00 2.0945339229690546e+01 1.1708196211411959e+01 1.7231652719801609e+01 
214 5 1 9.7899999385340597e-01 -2.3222814505949074e+01 1.0000000000000000e+00 2.0945156413713427e+01 1.1708210469583973e+01 1.7231708698404127e+01 
1286 24 1 9.7900000548526556e-01 -1.1722899450898043e+02 1.0000000000000000e+00 2.1265516288207110e+01 1.3802114785892336e+01 1.7742119921491145e+01 
657 14 1 9.7900000654970443e-01 -9.5798548676255407e+01 1.0000000000000000e+00 2.1265506845566570e+01 1.3802118935000573e+01 1.7742108799769671e+01 
848 18 1 9.7900000653527419e-01 -2.5429758142395312e+02 1.0000000000000000e+00 2.1265511126791182e+01 1.3802107486888186e+01 1.7742153072799269e+01 
3789 61 1 9.3252362671921596e-01 -1.9300962404947202e+02 1.0000000000000000e+00 6.9691815025655997e+00 2.3571468268007091e+01 1.9728009475829875e+01 
138 4 1 9.3252362671921596e-01 -1.0816623571410226e+02 1.0000000000000000e+00 6.9691815025627406e+00 2.3571468267996028e+01 1.9728009475829875e+01 
4008 64 1 9.3252362671921596e-01 -1.1295677293721484e+02 1.0000000000000000e+00 6.9691815025585413e+00 2.3571468267993804e+01 1.9728009475829875e+01 
201 5 1 9.7909625732862260e-01 -3.2827205169022044e+01 1.0000000000000000e+00 2.2659726873733515e+01 2.6174368028574445e+01 1.9098879386064368e+01 
3114 52 1 9.7899956992160575e-01 -1.0614385245325640e+02 1.0000000000000000e+00 2.2646382945802443e+01 2.6180028545077164e+01 1.9091603399423509e+01 
1813 29 1 9.7889766128416356e-01 -6.7226991818482773e+01 1.0000000000000000e+00 2.2690197763476760e+01 2.6154247663489052e+01 1.9120337044673867e+01 
956 19 1 9.7905172989617528e-01 -9.5464964803126151e+01 1.0000000000000000e+00 2.6028684457167955e+01 2.6932366904041011e+01 1.7567235014353113e+01 
914 19 1 9.7916978268547339e-01 -1.6693341616112981e+01 1.0000000000000000e+00 2.6057800627893094e+01 2.6710603545648802e+01 1.7643605989518051e+01 
1195 22 1 9.7902301344086473e-01 -6.3934378894829944e+00 1.0000000000000000e+00 2.7125214329880382e+01 2.6107717660809051e+01 1.8469298076951144e+01 
2935 47 1 9.7906556211902118e-01 -8.4534883609098358e+01 1.0000000000000000e+00 2.7091996410873168e+01 2.6114346340538880e+01 1.8455704495619553e+01 
1735 28 1 9.7869416848346946e-01 -2.7804363149398679e+00 1.0000000000000000e+00 2.9227325290226361e+01 2.4620377709333525e+01 1.9202096720470124e+01 
2810 46 1 9.7910207925366899e-01 -1.0686740505244045e+02 1.0000000000000000e+00 2.8268386632267770e+01 2.5237760824664026e+01 1.9050556680170494e+01 
643 14 1 9.7925594322564891e-01 -4.9033040100121866e+01 1.0000000000000000e+00 2.8263140760746015e+01 2.5232043695786359e+01 1.9047065712035408e+01 
1607 25 1 9.7924283967460302e-01 -2.2236704645428187e+01 1.0000000000000000e+00 2.4485119811532641e+01 2.9707687561055153e+01 1.7220646856731054e+01 
1293 24 1 9.7932009554073562e-01 -6.2432805903589653e+01 1.0000000000000000e+00 2.4486022499802981e+01 2.9704984738118604e+01 1.7218387225596839e+01 
2023 30 1 9.7946481186797019e-01 -4.6840652211580604e+01 1.0000000000000000e+00 2.4467659613943184e+01 2.9657467690468096e+01 1.7203513492294586e+01 
2937 47 1 9.7795631613653100e-01 -5.9226670074955884e+01 1.0000000000000000e+00 2.9085953318962503e+01 2.9241267720677502e+01 1.7294489738840706e+01 
1132 22 1 9.7899999999982668e-01 -3.7231114139909593e+01 1.0000000000000000e+00 1.0179615283582836e+01 8.0037234880054022e+00 2.0000860009410797e+01 
3088 52 1 9.7899999999986465e-01 -4.6828375866160108e+01 1.0000000000000000e+00 1.0181259219104987e+01 8.0044223400440515e+00 2.0003715341069395e+01 
1421 24 1 9.7899999999918752e-01 -7.6620091874306752e+01 1.0000000000000000e+00 9.2706100620436533e+00 8.3950129053401916e+00 2.0430092006648856e+01 
175 4 1 9.7900000000050391e-01 -6.8154784836501022e+01 1.0000000000000000e+00 9.2701473881453840e+00 8.3921142862118803e+00 2.0431743604985790e+01 
3750 61 1 9.7900000184273273e-01 -1.1518041193387093e+02 1.0000000000000000e+00 2.6644220478368457e+00 1.3403089179510687e+01 2.0541101737684947e+01 
4194 66 1 9.7900000065364423e-01 -8.3042453821058018e+01 1.0000000000000000e+00 2.7875505926331696e+00 1.1580932987304902e+01 2.0161390205506549e+01 
3399 56 1 9.7900000064288395e-01 -1.4949240806212163e+02 1.0000000000000000e+00 2.7875509035462840e+00 1.1580931911367944e+01 2.0161396041314003e+01 
3741 61 1 9.7900000064287740e-01 -1.3674949216870564e+02 1.0000000000000000e+00 2.7875522083414301e+00 1.1580932421513547e+01 2.0161393892571922e+01 
1185 22 1 9.7899999985916275e-01 -3.2210638659526985e+01 1.0000000000000000e+00 2.3871641878260101e+00 1.4056149097676284e+01 2.0316849538795179e+01 
2593 43 1 9.7899999941700466e-01 -6.0460754585122984e+01 1.0000000000000000e+00 2.7368334932692093e+00 1.4545295351743254e+01 2.1010327327639633e+01 
3739 61 1 9.7899999941655502e-01 -9.0257100623362263e+01 1.0000000000000000e+00 2.7368220944674309e+00 1.4545290440882498e+01 2.1010338078078444e+01 
1680 27 1 9.7901598730797601e-01 -8.2851928952855076e+01 1.0000000000000000e+00 2.1616354616480194e+01 2.6570631619124853e+01 2.0970413808758650e+01 
1637 26 1 9.7902205853272817e-01 -7.6239134731850186e+01 1.0000000000000000e+00 2.1621199610792981e+01 2.6566489891952219e+01 2.0973972164050988e+01 
1838 29 1 9.7897268756587819e-01 -1.0102846524517848e+02 1.0000000000000000e+00 2.1618512670787350e+01 2.6568740718165351e+01 2.0972327337692835e+01 
1450 24 1 9.7844371977977096e-01 -9.3765553046893274e+01 1.0000000000000000e+00 2.5135791060820189e+01 2.5186347198908976e+01 2.0464066609562860e+01 
1459 24 1 9.7848443907635718e-01 -1.0325433796045760e+02 1.0000000000000000e+00 2.5135525146638894e+01 2.5186440429186135e+01 2.0464016733227702e+01 
937 19 1 9.7971149252201173e-01 -2.1508276175931808e+01 1.0000000000000000e+00 2.4869560751219698e+01 2.5287267518739256e+01 2.0362222843289512e+01 
3642 59 1 9.7857560935061816e-01 -1.0530530151225793e+02 1.0000000000000000e+00 2.5062666133294123e+01 2.7221959272089848e+01 2.1172704201099442e+01 
1414 24 1 9.7886049790867002e-01 -7.5112507417553957e+01 1.0000000000000000e+00 2.5143395411179782e+01 2.7152371408392625e+01 2.1232516773094172e+01 
1453 24 1 9.7933007023806007e-01 -1.3052934632990360e+02 1.0000000000000000e+00 2.5014414191338350e+01 2.7229596098936547e+01 2.0922709933273794e+01 
2108 32 1 9.7919155293310567e-01 -2.4868844844991500e+01 1.0000000000000000e+00 2.5032158140749086e+01 2.9845820669684578e+01 2.1332907889479937e+01 
2080 31 1 9.7908578540084190e-01 -6.1094046776386485e+01 1.0000000000000000e+00 2.5017967918980940e+01 2.9845702266888953e+01 2.1318557107777067e+01 
3547 57 1 9.7881391636793880e-01 -1.3010792212637961e+02 1.0000000000000000e+00 2.4995101616620911e+01 2.9868636165925277e+01 2.1237423899134672e+01 
389 10 1 9.7900000539099907e-01 8.4026253064837988e+00 1.0000000000000000e+00 1.0955179976603103e+01 1.6268822843920471e+01 2.5610312754290060e+01 
1083 21 1 9.7900000463140135e-01 -8.1581324895159895e+01 1.0000000000000000e+00 1.0955075813372144e+01 1.6268872227465785e+01 2.5610248539821416e+01 
1399 24 1 9.7900000538577647e-01 -4.7671477508135382e+01 1.0000000000000000e+00 1.0955170872944077e+01 1.6268843851066521e+01 2.5610300097321002e+01 
167 4 1 9.7899999999823384e-01 -6.4882944069309644e+01 1.0000000000000000e+00 2.7322237400167705e+01 1.7757567406950031e+01 2.5324404705460779e+01 
1721 28 1 9.7900000000224963e-01 -9.5971685404250010e+01 1.0000000000000000e+00 2.7315611997656266e+01 1.7762557790243644e+01 2.5329881673590883e+01 
2515 43 1 9.7899859091601860e-01 -7.0425195417171253e+01 1.0000000000000000e+00 2.7244340706431821e+01 2.5753708778441119e+01 2.3625085220502491e+01 
2307 37 1 9.7899954988186544e-01 -8.0423940073956658e+01 1.0000000000000000e+00 2.7255049210593338e+01 2.5755767732131144e+01 2.3666074486039484e+01 
759 17 1 9.7900197456264504e-01 -8.2612247241334117e+01 1.0000000000000000e+00 2.7312842901630873e+01 2.5726735788870030e+01 2.3648689536443651e+01 
3127 52 1 9.7899467056844702e-01 -6.4454168148359827e+01 1.0000000000000000e+00 2.8239355672741926e+01 2.7650251631531741e+01 2.3239217720413972e+01 
2615 43 1 9.7900370053060204e-01 -1.2746114540610448e+02 1.0000000000000000e+00 2.8259931637503694e+01 2.7631251882583662e+01 2.3219014253318072e+01 
2892 47 1 9.7900156689996864e-01 -4.5471653294291229e+01 1.0000000000000000e+00 2.8190232111631047e+01 2.7672415386791599e+01 2.3255678604774744e+01 
1131 22 1 9.3252362671921596e-01 -1.5440606277844256e+02 1.0000000000000000e+00 2.4923686303318899e+01 6.0592780631444598e-01 2.7480889406484632e+01 
4024 64 1 9.3252362671921596e-01 -2.5362704498420297e+02 1.0000000000000000e+00 2.4923686303323244e+01 6.0592780631431198e-01 2.7480889406484632e+01 
1125 22 1 9.3252362671921596e-01 -8.9399061190340845e+01 1.0000000000000000e+00 2.4923686303306503e+01 6.0592780631431453e-01 2.7480889406484632e+01 
336 9 1 9.3252362671921596e-01 -1.0455921395289212e+02 1.0000000000000000e+00 1.5225331961051132e+00 9.4713419606299709e+00 2.6327158428385378e+01 
2167 33 1 9.3252362671921596e-01 -1.1801105142798728e+02 1.0000000000000000e+00 1.5225331961044757e+00 9.4713419606456739e+00 2.6327158428385378e+01 
1844 29 1 9.3252362671921596e-01 -1.5128549486034024e+02 1.0000000000000000e+00 1.5225331961049926e+00 9.4713419606376252e+00 2.6327158428385378e+01 
1358 24 1 9.7899999507640190e-01 -8.9399201820691772e+01 1.0000000000000000e+00 1.0174175133865337e+01 1.7059376040823796e+01 2.7484517148423816e+01 
1236 23 1 9.7899999472906729e-01 -6.0495646594827193e+01 1.0000000000000000e+00 1.0174394357420310e+01 1.7059316236834668e+01 2.7484633767092561e+01 
1243 23 1 9.7899999478453226e-01 -8.8133397544482420e+01 1.0000000000000000e+00 1.0174422464454992e+01 1.7059348802242106e+01 2.7484631731968808e+01 
616 14 1 9.7900000000001164e-01 -1.2159275355282043e+02 1.0000000000000000e+00 2.8119198201042579e+01 1.8158751536294176e+01 2.5930597816806856e+01 
683 15 1 9.7900000000047838e-01 -4.3891243315232359e+01 1.0000000000000000e+00 2.8117410843091402e+01 1.8151803132525931e+01 2.5937476922879441e+01 