LAMMPS data file via write_data, version 30 Jul 2016, timestep = 50400000

180 atoms
2 atom types

0.0000000000000000e+00 2.0000000000000000e+01 xlo xhi
0.0000000000000000e+00 2.0000000000000000e+01 ylo yhi
0.0000000000000000e+00 2.0000000000000000e+01 zlo zhi

Masses

1 3.896
2 4.31

Atoms # meso-molecular

150 1 2 1.0279999974391409e+00 -6.3348475033103011e+02 1.0000000000000000e+00 1.2456697332733052e+01 6.0886973499518344e+00 2.5838058944855535e+00 
73 1 2 1.0279999980878807e+00 -4.8520019896015862e+02 1.0000000000000000e+00 1.2967688798811549e+01 6.2112491122267741e+00 2.8775830543118750e+00 
84 1 2 1.0279999978929300e+00 -4.4035828310684303e+02 1.0000000000000000e+00 1.2767318086738568e+01 6.1809315445125685e+00 2.7936665256552500e+00 
115 1 2 1.0279999978354726e+00 -5.4381308865874746e+02 1.0000000000000000e+00 1.2719044049647394e+01 6.1680769647809175e+00 2.7688360572255126e+00 
78 1 2 1.0279999977593126e+00 -4.6369422269472216e+02 1.0000000000000000e+00 1.2660182887948510e+01 6.1537867693634585e+00 2.7341913810689693e+00 
120 1 2 1.0279999976179970e+00 -4.7614515676697488e+02 1.0000000000000000e+00 1.2563121893706713e+01 6.1273187958665396e+00 2.6682776467381637e+00 
109 1 2 1.0279999976122063e+00 -5.5511936625878388e+02 1.0000000000000000e+00 1.2559322952786776e+01 6.1224060577080115e+00 2.6668716793738176e+00 
145 1 2 1.0279999975711434e+00 -6.5162960935367028e+02 1.0000000000000000e+00 1.2533593317062937e+01 6.1139704403112010e+00 2.6475649231220642e+00 
114 1 2 1.0279999975254284e+00 -4.9054303437563817e+02 1.0000000000000000e+00 1.2506060607507155e+01 6.1066384229517841e+00 2.6251807264648335e+00 
40 1 2 3.5189241656666542e-01 -4.1428102397372982e+02 1.0000000000000000e+00 7.3420108169379361e+00 1.4165028700324960e+00 1.0187467241679393e+01 
41 1 2 3.5189241656666542e-01 -4.1070653716830572e+02 1.0000000000000000e+00 7.3420108169379361e+00 1.4165028700324960e+00 1.0187467241679393e+01 
4 1 2 3.5189241656666542e-01 -4.2362310447724565e+02 1.0000000000000000e+00 7.3420108169379361e+00 1.4165028700324960e+00 1.0187467241679396e+01 
5 1 2 3.5189241656666542e-01 -4.5736754389410470e+02 1.0000000000000000e+00 7.3420108169379397e+00 1.4165028700324960e+00 1.0187467241679393e+01 
11 1 2 3.5189241656666542e-01 -3.9918177677307182e+02 1.0000000000000000e+00 7.3420108169379432e+00 1.4165028700324960e+00 1.0187467241679393e+01 
10 1 2 3.5189241656666542e-01 -4.5828862813539280e+02 1.0000000000000000e+00 7.3420108169379503e+00 1.4165028700324960e+00 1.0187467241679396e+01 
46 1 2 3.5189241656666542e-01 -4.3611864469413985e+02 1.0000000000000000e+00 7.3420108169379299e+00 1.4165028700324964e+00 1.0187467241679396e+01 
34 1 2 3.5189241656666542e-01 -4.1625592685325785e+02 1.0000000000000000e+00 7.3420108169379299e+00 1.4165028700324960e+00 1.0187467241679393e+01 
70 1 2 3.5189241656666542e-01 -3.3063017583294908e+02 1.0000000000000000e+00 7.3420108169379299e+00 1.4165028700324960e+00 1.0187467241679393e+01 
9 1 2 3.5189241656666542e-01 -5.4643018471320022e+02 1.0000000000000000e+00 7.3420108169379361e+00 1.4165028700324960e+00 1.0187467241679419e+01 
3 1 2 3.5189241656666542e-01 -4.3236449100059406e+02 1.0000000000000000e+00 7.3420108169379361e+00 1.4165028700324960e+00 1.0187467241679441e+01 
45 1 2 3.5189241656666542e-01 -3.9987941738186828e+02 1.0000000000000000e+00 7.3420108169379299e+00 1.4165028700324962e+00 1.0187467241679391e+01 
39 1 2 3.5189241656666542e-01 -3.3122553546170582e+02 1.0000000000000000e+00 7.3420108169379299e+00 1.4165028700324960e+00 1.0187467241679391e+01 
82 1 2 1.0279999983345691e+00 -4.2093255604366743e+02 1.0000000000000000e+00 1.3018921524220175e+01 4.9847353624037254e+00 1.9466786173790599e+01 
151 1 2 1.0279999983345696e+00 -5.9951618591656074e+02 1.0000000000000000e+00 1.3018922665072632e+01 4.9847337732097596e+00 1.9466786592064814e+01 
75 1 2 1.0279999983345711e+00 -4.0451650551739681e+02 1.0000000000000000e+00 1.3018922402422904e+01 4.9847340465829877e+00 1.9466786528186567e+01 
80 1 2 1.0279999983345645e+00 -5.4797891885668196e+02 1.0000000000000000e+00 1.3018922533584112e+01 4.9847338213524361e+00 1.9466786591179034e+01 
85 1 2 1.0279999983345676e+00 -5.4993562308143191e+02 1.0000000000000000e+00 1.3018922473236287e+01 4.9847337394350459e+00 1.9466786627227705e+01 
116 1 2 1.0279999983345720e+00 -6.2759689494952750e+02 1.0000000000000000e+00 1.3018922534340788e+01 4.9847338454299406e+00 1.9466786582648218e+01 
110 1 2 1.0279999983345607e+00 -6.2034238316236190e+02 1.0000000000000000e+00 1.3018922535086189e+01 4.9847338770868106e+00 1.9466786571462201e+01 
86 1 2 1.0279999983345653e+00 -5.5140861406596605e+02 1.0000000000000000e+00 1.3018922428491058e+01 4.9847337115574755e+00 1.9466786642438979e+01 
87 1 2 1.0279999983345667e+00 -4.8692611039875669e+02 1.0000000000000000e+00 1.3018922397192492e+01 4.9847337879503160e+00 1.9466786619469868e+01 
152 1 2 1.0279999983345718e+00 -7.8449054816813020e+02 1.0000000000000000e+00 1.3018922559125825e+01 4.9847337812497301e+00 1.9466786602128941e+01 
81 1 2 1.0279999983345691e+00 -5.0788939383645550e+02 1.0000000000000000e+00 1.3018922439572952e+01 4.9847339221015332e+00 1.9466786567298602e+01 
74 1 2 1.0279999983345718e+00 -4.7658968254243752e+02 1.0000000000000000e+00 1.3018922650527459e+01 4.9847339098451693e+00 1.9466786545944434e+01 
153 1 2 1.0279999983345687e+00 -6.6636949813697515e+02 1.0000000000000000e+00 1.3018922122107048e+01 4.9847344730199330e+00 1.9466786412809732e+01 
159 1 2 1.0279999983345676e+00 -6.1396758326468125e+02 1.0000000000000000e+00 1.3018922383127371e+01 4.9847337919887300e+00 1.9466786619764640e+01 
165 1 2 1.0279999983345720e+00 -5.9854350832063710e+02 1.0000000000000000e+00 1.3018922357910490e+01 4.9847335783150299e+00 1.9466786697720664e+01 
117 1 2 1.0279999983345640e+00 -5.7741959274451744e+02 1.0000000000000000e+00 1.3018922422033674e+01 4.9847339567715876e+00 1.9466786557279772e+01 
164 1 2 1.0279999983345596e+00 -6.2754826557700710e+02 1.0000000000000000e+00 1.3018922363676126e+01 4.9847335172785661e+00 1.9466786718412060e+01 
129 1 2 1.0279999983345685e+00 -5.2811101942870596e+02 1.0000000000000000e+00 1.3018922352824060e+01 4.9847335746931574e+00 1.9466786699608523e+01 
123 1 2 1.0279999983345700e+00 -5.6320628159111664e+02 1.0000000000000000e+00 1.3018922406999300e+01 4.9847338189974657e+00 1.9466786607395861e+01 
163 1 2 1.0279999983345729e+00 -5.1185290986910297e+02 1.0000000000000000e+00 1.3018922357634541e+01 4.9847334691677139e+00 1.9466786736008974e+01 
147 1 2 1.0279999983345591e+00 -6.9450927662100753e+02 1.0000000000000000e+00 1.3018922499764200e+01 4.9847339680168989e+00 1.9466786543887178e+01 
128 1 2 1.0279999983345685e+00 -5.0617558914964002e+02 1.0000000000000000e+00 1.3018922364549139e+01 4.9847335280198992e+00 1.9466786714541261e+01 
158 1 2 1.0279999983345629e+00 -6.0200992237382945e+02 1.0000000000000000e+00 1.3018922413791628e+01 4.9847336088638619e+00 1.9466786680219062e+01 
111 1 2 1.0279999983345705e+00 -5.9439565962163340e+02 1.0000000000000000e+00 1.3018922473161432e+01 4.9847339675716249e+00 1.9466786547277927e+01 
121 1 2 1.0279999983345676e+00 -5.9733109291988819e+02 1.0000000000000000e+00 1.3018922435070593e+01 4.9847336105428379e+00 1.9466786677043324e+01 
122 1 2 1.0279999983345629e+00 -6.4828382903922841e+02 1.0000000000000000e+00 1.3018922438978208e+01 4.9847337089712065e+00 1.9466786642070293e+01 
157 1 2 1.0279999983345700e+00 -7.0567451532424207e+02 1.0000000000000000e+00 1.3018922483845106e+01 4.9847336676437832e+00 1.9466786651099710e+01 
92 1 2 1.0279999983345729e+00 -4.9336526318519617e+02 1.0000000000000000e+00 1.3018922357876795e+01 4.9847336016262505e+00 1.9466786689554482e+01 
146 1 2 1.0279999983345678e+00 -6.5533340145470891e+02 1.0000000000000000e+00 1.3018922533365895e+01 4.9847338840340054e+00 1.9466786569236511e+01 
62 1 2 9.7447130741538113e-01 -6.3117476218449633e+02 1.0000000000000000e+00 1.1177061541022987e+01 1.4744915017177039e+01 4.5566762136793786e+00 
97 1 2 9.7447130741538113e-01 -5.1870515046675962e+02 1.0000000000000000e+00 1.1177061541022800e+01 1.4744915017177032e+01 4.5566762136793413e+00 
98 1 2 9.7447130741538113e-01 -5.9455372156347050e+02 1.0000000000000000e+00 1.1177061541022928e+01 1.4744915017177032e+01 4.5566762136792276e+00 
26 1 2 9.7447130741538113e-01 -7.2837758221806678e+02 1.0000000000000000e+00 1.1177061541022795e+01 1.4744915017177034e+01 4.5566762136792374e+00 
139 1 2 9.7447130741538113e-01 -6.6978417951125846e+02 1.0000000000000000e+00 1.1177061541023040e+01 1.4744915017177073e+01 4.5566762136792667e+00 
93 1 2 9.7447130741538113e-01 -5.3399274710269083e+02 1.0000000000000000e+00 1.1177061541022905e+01 1.4744915017177046e+01 4.5566762136793768e+00 
134 1 2 9.7447130741538113e-01 -6.6288674454401689e+02 1.0000000000000000e+00 1.1177061541022889e+01 1.4744915017177098e+01 4.5566762136793022e+00 
133 1 2 9.7447130741538113e-01 -5.6902665627136992e+02 1.0000000000000000e+00 1.1177061541022834e+01 1.4744915017177032e+01 4.5566762136793075e+00 
127 1 2 9.7447130741538113e-01 -5.3277631274924204e+02 1.0000000000000000e+00 1.1177061541022894e+01 1.4744915017177162e+01 4.5566762136792933e+00 
140 1 2 9.7447130741538113e-01 -6.8108656655293305e+02 1.0000000000000000e+00 1.1177061541023113e+01 1.4744915017177034e+01 4.5566762136793226e+00 
91 1 2 9.7447130741538113e-01 -3.8239137068991488e+02 1.0000000000000000e+00 1.1177061541022821e+01 1.4744915017177053e+01 4.5566762136792498e+00 
169 1 2 9.7447130741538113e-01 -6.7969322542070461e+02 1.0000000000000000e+00 1.1177061541022850e+01 1.4744915017177112e+01 4.5566762136793653e+00 
175 1 2 9.7447130741538113e-01 -7.1100097751797523e+02 1.0000000000000000e+00 1.1177061541022864e+01 1.4744915017177062e+01 4.5566762136792143e+00 
170 1 2 9.7447130741538113e-01 -7.5915920534376573e+02 1.0000000000000000e+00 1.1177061541022971e+01 1.4744915017177078e+01 4.5566762136792907e+00 
176 1 2 9.7447130741538113e-01 -8.4725000074443165e+02 1.0000000000000000e+00 1.1177061541023033e+01 1.4744915017177044e+01 4.5566762136792125e+00 
68 1 2 9.7447130741538113e-01 -6.0182506820922868e+02 1.0000000000000000e+00 1.1177061541022965e+01 1.4744915017177043e+01 4.5566762136792578e+00 
103 1 2 9.7447130741538113e-01 -5.9456207876613439e+02 1.0000000000000000e+00 1.1177061541022843e+01 1.4744915017177032e+01 4.5566762136793511e+00 
104 1 2 9.7447130741538113e-01 -5.8018649859345749e+02 1.0000000000000000e+00 1.1177061541022939e+01 1.4744915017177078e+01 4.5566762136792702e+00 
61 1 2 9.7447130741538113e-01 -6.0529051827087437e+02 1.0000000000000000e+00 1.1177061541022772e+01 1.4744915017177114e+01 4.5566762136792436e+00 
135 1 2 9.7447130741538113e-01 -6.3768791230919032e+02 1.0000000000000000e+00 1.1177061541022852e+01 1.4744915017177032e+01 4.5566762136792960e+00 
25 1 2 9.7447130741538113e-01 -6.8435266398253816e+02 1.0000000000000000e+00 1.1177061541022960e+01 1.4744915017177131e+01 4.5566762136792773e+00 
32 1 2 9.7447130741538113e-01 -7.1739164487677363e+02 1.0000000000000000e+00 1.1177061541022816e+01 1.4744915017177032e+01 4.5566762136793759e+00 
31 1 2 9.7447130741538113e-01 -6.2444887695036891e+02 1.0000000000000000e+00 1.1177061541022880e+01 1.4744915017177030e+01 4.5566762136793448e+00 
141 1 2 9.7447130741538113e-01 -6.2738398351045237e+02 1.0000000000000000e+00 1.1177061541022875e+01 1.4744915017177036e+01 4.5566762136793386e+00 
67 1 2 9.7447130741538113e-01 -5.5849789080454002e+02 1.0000000000000000e+00 1.1177061541022860e+01 1.4744915017177032e+01 4.5566762136792409e+00 
177 1 2 9.7447130741538113e-01 -6.3559525465568504e+02 1.0000000000000000e+00 1.1177061541023015e+01 1.4744915017177034e+01 4.5566762136793502e+00 
99 1 2 9.7447130741538113e-01 -5.3469262857331057e+02 1.0000000000000000e+00 1.1177061541022978e+01 1.4744915017177037e+01 4.5566762136792809e+00 
105 1 2 9.7447130741538113e-01 -5.4221858133861781e+02 1.0000000000000000e+00 1.1177061541023109e+01 1.4744915017177043e+01 4.5566762136793759e+00 
33 1 2 9.7447130741538113e-01 -6.1620539531172653e+02 1.0000000000000000e+00 1.1177061541022868e+01 1.4744915017177052e+01 4.5566762136793111e+00 
69 1 2 9.7447130741538113e-01 -5.0454690369606874e+02 1.0000000000000000e+00 1.1177061541023155e+01 1.4744915017177041e+01 4.5566762136793226e+00 
27 1 2 9.7447130741538113e-01 -6.2457970740139410e+02 1.0000000000000000e+00 1.1177061541022862e+01 1.4744915017177146e+01 4.5566762136793466e+00 
63 1 2 9.7447130741538113e-01 -5.2467355616859834e+02 1.0000000000000000e+00 1.1177061541022809e+01 1.4744915017177314e+01 4.5566762136793155e+00 
171 1 2 9.7447130741538113e-01 -7.2145999066993966e+02 1.0000000000000000e+00 1.1177061541022818e+01 1.4744915017177030e+01 4.5566762136793022e+00 
100 1 2 9.7447130741538113e-01 -4.5405254232748104e+02 1.0000000000000000e+00 1.1177061541022930e+01 1.4744915017177235e+01 4.5566762136792747e+00 
28 1 2 9.7447130741538113e-01 -5.1351094660602223e+02 1.0000000000000000e+00 1.1177061541022814e+01 1.4744915017177041e+01 4.5566762136792081e+00 
64 1 2 9.7447130741538113e-01 -4.0844310896587558e+02 1.0000000000000000e+00 1.1177061541022937e+01 1.4744915017177036e+01 4.5566762136792063e+00 
36 1 2 1.0279999999973841e+00 -6.4555136333718156e+02 1.0000000000000000e+00 1.1556294488957057e+01 1.2672530255165057e+01 1.4007448226235613e+01 
60 1 2 1.0279999999853267e+00 -5.1786217538611402e+02 1.0000000000000000e+00 1.1388051955955023e+01 1.1142924652899355e+01 1.2748591629014408e+01 
23 1 2 1.0279999999877343e+00 -6.6368808085726073e+02 1.0000000000000000e+00 1.1388053239011629e+01 1.1142923872741115e+01 1.2748590465664794e+01 
102 1 2 1.0280000000038512e+00 -4.9725328281128429e+02 1.0000000000000000e+00 1.3093793979495167e+01 1.3148484750546416e+01 1.3929913844111361e+01 
94 1 2 1.0279999999857996e+00 -4.7326334252040436e+02 1.0000000000000000e+00 1.1388053650511090e+01 1.1142923617906641e+01 1.2748590102875974e+01 
96 1 2 1.0279999999996960e+00 -5.0021537327109581e+02 1.0000000000000000e+00 1.1864545997767983e+01 1.2831819663165888e+01 1.4131412520783977e+01 
47 1 2 1.0279999999862488e+00 -5.1219252716645701e+02 1.0000000000000000e+00 1.1388053099897510e+01 1.1142923969145498e+01 1.2748590565303656e+01 
95 1 2 1.0279999999871861e+00 -4.9385602723693358e+02 1.0000000000000000e+00 1.1388053177441886e+01 1.1142923917820520e+01 1.2748590504360072e+01 
89 1 2 1.0279999999870086e+00 -5.3946031717164897e+02 1.0000000000000000e+00 1.1388053249968294e+01 1.1142923873554279e+01 1.2748590438969247e+01 
16 1 2 1.0279999999867020e+00 -5.8958652724101955e+02 1.0000000000000000e+00 1.1388053825466031e+01 1.1142923510574887e+01 1.2748589946385181e+01 
17 1 2 1.0279999999853513e+00 -7.2797299320739626e+02 1.0000000000000000e+00 1.1388053290556758e+01 1.1142923845316705e+01 1.2748590410111879e+01 
90 1 2 1.0279999999855112e+00 -5.6703076432706087e+02 1.0000000000000000e+00 1.1388053087751246e+01 1.1142923975320656e+01 1.2748590579017103e+01 
58 1 2 1.0279999999878295e+00 -5.1881483334820746e+02 1.0000000000000000e+00 1.1388053765658700e+01 1.1142923543808759e+01 1.2748590007649037e+01 
51 1 2 1.0279999999870868e+00 -4.3681997410664582e+02 1.0000000000000000e+00 1.1388054037337396e+01 1.1142923376864447e+01 1.2748589765222851e+01 
57 1 2 1.0279999999860143e+00 -4.8406714379863229e+02 1.0000000000000000e+00 1.1388054007781347e+01 1.1142923392705498e+01 1.2748589796778237e+01 
88 1 2 1.0279999999877207e+00 -5.1998208505615992e+02 1.0000000000000000e+00 1.1388053508280791e+01 1.1142923710983998e+01 1.2748590217094495e+01 
24 1 2 1.0279999999866101e+00 -7.9593360238421178e+02 1.0000000000000000e+00 1.1388052867679411e+01 1.1142924104306166e+01 1.2748590789398870e+01 
22 1 2 1.0279999999876697e+00 -6.0902793041466907e+02 1.0000000000000000e+00 1.1388053835456512e+01 1.1142923498175115e+01 1.2748589951514036e+01 
59 1 2 1.0279999999870180e+00 -5.8504489305578818e+02 1.0000000000000000e+00 1.1388053217104288e+01 1.1142923888008504e+01 1.2748590481155542e+01 
52 1 2 1.0279999999868787e+00 -5.0688661903226921e+02 1.0000000000000000e+00 1.1388053807474980e+01 1.1142923522746973e+01 1.2748589959938981e+01 
15 1 2 1.0279999999866711e+00 -4.4835901223361793e+02 1.0000000000000000e+00 1.1388054185427871e+01 1.1142923282111854e+01 1.2748589641484971e+01 
54 1 2 1.0279999999851313e+00 -5.5740468873118732e+02 1.0000000000000000e+00 1.1388052645084246e+01 1.1142924248994927e+01 1.2748590970280707e+01 
21 1 2 1.0279999999878100e+00 -5.6601884871005677e+02 1.0000000000000000e+00 1.1388054145036818e+01 1.1142923305041661e+01 1.2748589681778464e+01 
53 1 2 1.0279999999874387e+00 -6.0462149548715149e+02 1.0000000000000000e+00 1.1388053293372396e+01 1.1142923843563910e+01 1.2748590407683560e+01 
66 1 2 1.0279999999982963e+00 -5.5074371874148483e+02 1.0000000000000000e+00 1.1563960425145774e+01 1.2674561006330942e+01 1.4013420443443335e+01 
65 1 2 1.0279999999982821e+00 -5.2823577382880148e+02 1.0000000000000000e+00 1.1530740208820538e+01 1.2659943625155737e+01 1.3990833056255843e+01 
35 1 2 1.0279999999975959e+00 -7.8063404205317693e+02 1.0000000000000000e+00 1.1523848633134937e+01 1.2664399922897353e+01 1.3980687064840227e+01 
29 1 2 1.0279999999975036e+00 -5.7878022841460836e+02 1.0000000000000000e+00 1.1528664411038903e+01 1.2661412082508672e+01 1.3987711133072196e+01 
71 1 2 1.0279999999979603e+00 -5.3529035337921857e+02 1.0000000000000000e+00 1.1530133202657787e+01 1.2663839796013320e+01 1.3987515549688137e+01 
72 1 2 1.0279999999972222e+00 -5.8026169834711811e+02 1.0000000000000000e+00 1.1543713370020933e+01 1.2668220481623790e+01 1.3998101249267348e+01 
30 1 2 1.0279999999978982e+00 -7.1046281187442821e+02 1.0000000000000000e+00 1.1554125936735046e+01 1.2670367963166324e+01 1.4006831051743307e+01 
42 1 2 1.0279999982216408e+00 -6.4719486031666804e+02 1.0000000000000000e+00 1.3809606842952592e+01 6.1620435716785327e+00 2.8561820344494708e+00 
37 1 2 1.0279999982216890e+00 -6.3014818529431761e+02 1.0000000000000000e+00 1.3809573430851865e+01 6.1621326071100961e+00 2.8561679804240958e+00 
38 1 2 1.0279999982217001e+00 -5.6497973802101535e+02 1.0000000000000000e+00 1.3809512393555252e+01 6.1622795225033249e+00 2.8561476359112596e+00 
1 1 2 1.0279999982217343e+00 -7.8828753246567078e+02 1.0000000000000000e+00 1.3809455013039269e+01 6.1620925582171244e+00 2.8562390981134307e+00 
2 1 2 1.0279999982217549e+00 -5.5424331202084181e+02 1.0000000000000000e+00 1.3809417392556755e+01 6.1624057938927557e+00 2.8561507817103404e+00 
6 1 2 1.0279999982217680e+00 -6.8488385812587569e+02 1.0000000000000000e+00 1.3809415900578626e+01 6.1618861179504378e+00 2.8563282622938351e+00 
48 1 2 1.0279999982217904e+00 -7.1526509030741636e+02 1.0000000000000000e+00 1.3809349573303246e+01 6.1618594839931262e+00 2.8563695032896659e+00 
43 1 2 1.0279999982217878e+00 -7.1521609188299919e+02 1.0000000000000000e+00 1.3809316384413837e+01 6.1620634549431745e+00 2.8563162812449350e+00 
8 1 2 1.0279999982218408e+00 -8.9591800741804184e+02 1.0000000000000000e+00 1.3809265597476381e+01 6.1621417182003420e+00 2.8563143124133852e+00 
12 1 2 1.0279999982218269e+00 -7.9105189529846825e+02 1.0000000000000000e+00 1.3809250028369146e+01 6.1617754358418120e+00 2.8564463568879170e+00 
44 1 2 1.0279999982218497e+00 -6.6591002525730346e+02 1.0000000000000000e+00 1.3809245949488055e+01 6.1621074648827916e+00 2.8563354946602768e+00 
7 1 2 1.0279999982219137e+00 -7.7943027261147620e+02 1.0000000000000000e+00 1.3809139238948017e+01 6.1619605286708552e+00 2.8564372141214860e+00 
18 1 2 1.0279999982219801e+00 -8.3306787472424264e+02 1.0000000000000000e+00 1.3809029853306496e+01 6.1616159249414393e+00 2.8566073017573426e+00 
20 1 2 1.0279999982220325e+00 -4.8693306915645428e+02 1.0000000000000000e+00 1.3808869349342276e+01 6.1614419800640192e+00 2.8567441235498916e+00 
56 1 2 1.0279999982220722e+00 -4.8273208838098344e+02 1.0000000000000000e+00 1.3808820682111826e+01 6.1615047073341973e+00 2.8567464286327180e+00 
14 1 2 1.0279999982220822e+00 -5.7700090289041157e+02 1.0000000000000000e+00 1.3808772264779156e+01 6.1615522652813750e+00 2.8567537531997358e+00 
19 1 2 1.0279999982221146e+00 -6.7424407439182733e+02 1.0000000000000000e+00 1.3808754413798908e+01 6.1615446789107189e+00 2.8567649760255409e+00 
55 1 2 1.0279999982221131e+00 -5.7865876041783895e+02 1.0000000000000000e+00 1.3808748382349702e+01 6.1615388307249175e+00 2.8567698823772356e+00 
49 1 2 1.0279999982221173e+00 -6.2472343603813420e+02 1.0000000000000000e+00 1.3808738275276893e+01 6.1616456253438301e+00 2.8567385387209239e+00 
13 1 2 1.0279999982221164e+00 -6.3790250792344830e+02 1.0000000000000000e+00 1.3808737134190512e+01 6.1616562721085950e+00 2.8567354778852088e+00 
50 1 2 1.0279999982221188e+00 -5.4822450481576016e+02 1.0000000000000000e+00 1.3808735024067973e+01 6.1616793983897029e+00 2.8567286503362102e+00 
79 1 2 1.0279999983025117e+00 -4.9054079208566770e+02 1.0000000000000000e+00 1.3467798114963179e+01 6.2203229688452994e+00 2.9365151604852189e+00 
112 1 2 4.8723565370769056e-01 -5.5627586768941865e+02 1.0000000000000000e+00 1.4995350990406010e+01 4.5335324990127752e+00 1.2239744837657621e+01 
113 1 2 4.8723565370769056e-01 -4.7927418306940865e+02 1.0000000000000000e+00 1.4995350990406010e+01 4.5335324990127628e+00 1.2239744837657618e+01 
118 1 2 4.8723565370769056e-01 -5.4856854286368275e+02 1.0000000000000000e+00 1.4995350990406010e+01 4.5335324990127743e+00 1.2239744837657621e+01 
119 1 2 4.8723565370769056e-01 -5.7819281977700257e+02 1.0000000000000000e+00 1.4995350990406010e+01 4.5335324990127717e+00 1.2239744837657621e+01 
148 1 2 4.8723565370769056e-01 -6.3601807329996620e+02 1.0000000000000000e+00 1.4995350990406010e+01 4.5335324990127646e+00 1.2239744837657621e+01 
149 1 2 4.8723565370769056e-01 -7.0969623898456734e+02 1.0000000000000000e+00 1.4995350990406051e+01 4.5335324990127699e+00 1.2239744837657621e+01 
154 1 2 4.8723565370769056e-01 -6.0579731876251640e+02 1.0000000000000000e+00 1.4995350990406051e+01 4.5335324990127743e+00 1.2239744837657621e+01 
155 1 2 4.8723565370769056e-01 -6.0726762237185483e+02 1.0000000000000000e+00 1.4995350990405996e+01 4.5335324990127708e+00 1.2239744837657621e+01 
77 1 2 4.8723565370769056e-01 -4.3635887931455682e+02 1.0000000000000000e+00 1.4995350990406010e+01 4.5335324990127628e+00 1.2239744837657621e+01 
83 1 2 4.8723565370769056e-01 -5.2548135515217564e+02 1.0000000000000000e+00 1.4995350990406010e+01 4.5335324990127797e+00 1.2239744837657623e+01 
76 1 2 4.8723565370769056e-01 -4.4547157420975822e+02 1.0000000000000000e+00 1.4995350990406010e+01 4.5335324990127628e+00 1.2239744837657621e+01 
156 1 2 4.8723565370769056e-01 -5.7397823551723093e+02 1.0000000000000000e+00 1.4995350990406063e+01 4.5335324990127823e+00 1.2239744837657621e+01 
125 1 2 4.8723565370769056e-01 -4.9129791149427029e+02 1.0000000000000000e+00 1.4995350990406051e+01 4.5335324990127823e+00 1.2239744837657618e+01 
162 1 2 4.8723565370769056e-01 -5.6441618059215386e+02 1.0000000000000000e+00 1.4995350990406024e+01 4.5335324990127823e+00 1.2239744837657621e+01 
161 1 2 4.8723565370769056e-01 -5.0958466974159694e+02 1.0000000000000000e+00 1.4995350990406038e+01 4.5335324990127823e+00 1.2239744837657621e+01 
126 1 2 4.8723565370769056e-01 -5.1517859737301194e+02 1.0000000000000000e+00 1.4995350990406051e+01 4.5335324990127823e+00 1.2239744837657621e+01 
160 1 2 4.8723565370769056e-01 -4.7890771194510091e+02 1.0000000000000000e+00 1.4995350990406012e+01 4.5335324990127823e+00 1.2239744837657623e+01 
124 1 2 4.8723565370769056e-01 -3.9084412492213312e+02 1.0000000000000000e+00 1.4995350990406051e+01 4.5335324990127823e+00 1.2239744837657621e+01 
130 1 2 1.0280000000147644e+00 -4.5708667779313362e+02 1.0000000000000000e+00 1.3826735560374505e+01 1.2734581531192756e+01 1.3115876927942535e+01 
167 1 2 1.0280000000146114e+00 -7.0817682039169995e+02 1.0000000000000000e+00 1.3826073669462311e+01 1.2736506257007390e+01 1.3118730387099429e+01 
166 1 2 1.0280000000128531e+00 -6.6286617259687932e+02 1.0000000000000000e+00 1.3820261503223612e+01 1.2750441023141750e+01 1.3121733705756117e+01 
131 1 2 1.0280000000156697e+00 -6.6242704225696480e+02 1.0000000000000000e+00 1.3819978706748788e+01 1.2751376854655788e+01 1.3124441190906390e+01 
136 1 2 1.0280000000141565e+00 -5.8145916999702490e+02 1.0000000000000000e+00 1.3819321503762808e+01 1.2752325603711615e+01 1.3119298868229260e+01 
172 1 2 1.0280000000135596e+00 -7.4750760121937196e+02 1.0000000000000000e+00 1.3819164869161153e+01 1.2753086008310264e+01 1.3122969572726985e+01 
137 1 2 1.0280000000123724e+00 -8.2123458528293315e+02 1.0000000000000000e+00 1.3818910324709101e+01 1.2753869226867925e+01 1.3124923942325109e+01 
168 1 2 1.0280000000155500e+00 -9.6237452106624562e+02 1.0000000000000000e+00 1.3818747071150325e+01 1.2754558209216185e+01 1.3128158896597911e+01 
173 1 2 1.0280000000137290e+00 -8.8931949502794782e+02 1.0000000000000000e+00 1.3818720294560000e+01 1.2754388881887460e+01 1.3125786676360915e+01 
174 1 2 1.0280000000139691e+00 -9.2237752692669187e+02 1.0000000000000000e+00 1.3818656923375542e+01 1.2754713590653576e+01 1.3127635454817467e+01 
179 1 2 1.0280000000144447e+00 -9.4030970466864983e+02 1.0000000000000000e+00 1.3818573513746458e+01 1.2754709086895989e+01 1.3125647741440488e+01 
180 1 2 1.0280000000147669e+00 -1.0232157035195022e+03 1.0000000000000000e+00 1.3818525240539977e+01 1.2754927727750554e+01 1.3126751076234981e+01 
178 1 2 1.0280000000133314e+00 -8.4100675319216759e+02 1.0000000000000000e+00 1.3818369740316880e+01 1.2754644329947920e+01 1.3120621814605432e+01 
132 1 2 1.0280000000135121e+00 -7.4545715761280644e+02 1.0000000000000000e+00 1.3818319457054910e+01 1.2755804772486153e+01 1.3131164557360394e+01 
101 1 2 1.0280000000140814e+00 -6.3036330304064199e+02 1.0000000000000000e+00 1.3818278119107207e+01 1.2755596383616099e+01 1.3127864167445864e+01 
142 1 2 1.0280000000142775e+00 -6.5949034654849413e+02 1.0000000000000000e+00 1.3818099304788989e+01 1.2755501224590070e+01 1.3122867852058535e+01 
143 1 2 1.0280000000146050e+00 -6.8495925031144770e+02 1.0000000000000000e+00 1.3818040588176387e+01 1.2755828732396264e+01 1.3124744139380498e+01 
144 1 2 1.0280000000144893e+00 -7.4914654698323488e+02 1.0000000000000000e+00 1.3817937249663281e+01 1.2756408369412513e+01 1.3128274912207477e+01 
107 1 2 1.0280000000135363e+00 -5.5362034378525834e+02 1.0000000000000000e+00 1.3817680210462701e+01 1.2756731987162778e+01 1.3125605821042715e+01 
106 1 2 1.0280000000143483e+00 -4.6306398582357463e+02 1.0000000000000000e+00 1.3816607813547391e+01 1.2755690638481617e+01 1.3098513447886951e+01 
138 1 2 1.0280000000126888e+00 -6.6561017226492220e+02 1.0000000000000000e+00 1.3815243153482877e+01 1.2763638013675299e+01 1.3143367337836546e+01 
108 1 2 1.0280000000136118e+00 -6.0152219897650980e+02 1.0000000000000000e+00 1.3768451992916088e+01 1.2850355504016671e+01 1.3266847332113496e+01 

Velocities

150 2.0048825255252357e-03 8.2341130258201578e-04 -2.4774925246374650e-03
73 2.0048778001898336e-03 8.2340913815604833e-04 -2.4774953742377130e-03
84 2.0048796069218242e-03 8.2340984628803920e-04 -2.4774941564883178e-03
115 2.0048800393703135e-03 8.2341007088261792e-04 -2.4774939030040200e-03
78 2.0048805686421426e-03 8.2341031505688749e-04 -2.4774935816849167e-03
120 2.0048814692097982e-03 8.2341073463669979e-04 -2.4774930603132872e-03
109 2.0048815122454314e-03 8.2341080451966400e-04 -2.4774930659557824e-03
145 2.0048817617226828e-03 8.2341093125073137e-04 -2.4774929330782058e-03
114 2.0048820284240005e-03 8.2341104163263941e-04 -2.4774927768352931e-03
40 -1.1257649375232758e-10 -2.3340975874511717e-11 -2.9396932649473187e-10
41 -1.1257649375232758e-10 -2.3340975874177827e-11 -2.9396932649473187e-10
4 -1.1257649375232758e-10 -2.3340975874511717e-11 -2.9449078055070810e-10
5 -1.1309794780843082e-10 -2.3340975874177823e-11 -2.9396932649473187e-10
11 -1.1361940186424806e-10 -2.3340975874041849e-11 -2.9396932649473182e-10
10 -1.1466230997553348e-10 -2.3340975874041852e-11 -2.9449078055070810e-10
46 -1.1166394915376816e-10 -2.3406157631010046e-11 -2.9449078055070805e-10
34 -1.1166394915376815e-10 -2.3340975874177823e-11 -2.9396932649473187e-10
70 -1.1166394915376815e-10 -2.3340975874177823e-11 -2.9396932649473187e-10
9 -1.1257649375232758e-10 -2.3340975874131889e-11 -2.9788023191658989e-10
3 -1.1257649375232758e-10 -2.3340975874511717e-11 -3.0100895625044611e-10
45 -1.1166394915376815e-10 -2.3373566752989384e-11 -2.9370859946647040e-10
39 -1.1166394915376816e-10 -2.3340975874511717e-11 -2.9370859946647040e-10
82 2.0048477102349183e-03 8.2342798647753806e-04 -2.4774764205175502e-03
151 2.0048477102474027e-03 8.2342798657837580e-04 -2.4774764202963075e-03
75 2.0048477102396988e-03 8.2342798654217418e-04 -2.4774764203881598e-03
80 2.0048477102262005e-03 8.2342798651166571e-04 -2.4774764204846499e-03
85 2.0048477102414287e-03 8.2342798655428082e-04 -2.4774764203667771e-03
116 2.0048477102348719e-03 8.2342798653606091e-04 -2.4774764204139447e-03
110 2.0048477102296894e-03 8.2342798652042183e-04 -2.4774764204572712e-03
86 2.0048477102293087e-03 8.2342798651789629e-04 -2.4774764204719174e-03
87 2.0048477102227436e-03 8.2342798649684651e-04 -2.4774764205284820e-03
152 2.0048477102361938e-03 8.2342798654150208e-04 -2.4774764204013654e-03
81 2.0048477102431370e-03 8.2342798655530842e-04 -2.4774764203560153e-03
74 2.0048477102374059e-03 8.2342798654713766e-04 -2.4774764203795954e-03
153 2.0048477102525613e-03 8.2342798656285252e-04 -2.4774764203113493e-03
159 2.0048477102460830e-03 8.2342798656354088e-04 -2.4774764203382258e-03
165 2.0048477102407726e-03 8.2342798655049782e-04 -2.4774764203844947e-03
117 2.0048477102284860e-03 8.2342798651188819e-04 -2.4774764204783138e-03
164 2.0048477102344903e-03 8.2342798653271831e-04 -2.4774764204378709e-03
129 2.0048477102280367e-03 8.2342798651283404e-04 -2.4774764204922948e-03
123 2.0048477102264689e-03 8.2342798650762532e-04 -2.4774764204965184e-03
163 2.0048477102470818e-03 8.2342798656974956e-04 -2.4774764203342068e-03