LAMMPS data file via write_data, version 30 Jul 2016, timestep = 50000000

384 atoms
2 atom types

0.0000000000000000e+00 2.0000000000000000e+01 xlo xhi
0.0000000000000000e+00 2.0000000000000000e+01 ylo yhi
0.0000000000000000e+00 2.0000000000000000e+01 zlo zhi

Masses

1 3.896
2 4.31

Atoms # meso-molecular

366 1 2 1.1605682584842913e+00 4.3242304564342214e+02 1.0000000000000000e+00 6.4967442407519327e+00 6.0427835373922634e-01 5.4939222307099000e-01 
91 1 2 1.1605682584842913e+00 1.9879700822443178e+03 1.0000000000000000e+00 3.5473354399138675e+00 1.8071149012676604e+00 1.1988148050599776e+00 
108 1 2 1.1605682584842913e+00 5.0553586132659791e+02 1.0000000000000000e+00 5.9890661548578752e+00 2.7227629618986171e+00 4.7309426571959268e-01 
365 1 2 1.1605682584842913e+00 6.6320093633605870e+02 1.0000000000000000e+00 9.7772133273883677e-01 4.5993965570491495e+00 7.1438031522344714e-01 
198 1 2 1.1605682584842913e+00 1.0257728391284054e+03 1.0000000000000000e+00 3.2532837867967572e+00 4.7513384373637422e+00 6.7749564724906772e-02 
323 1 2 1.1605682584842913e+00 1.2220640252562689e+03 1.0000000000000000e+00 4.7564540603967265e+00 8.0992553259753741e+00 1.0634852091183371e+00 
341 1 2 1.1605682584842913e+00 6.3137558354937505e+02 1.0000000000000000e+00 1.9648675372477868e+00 9.0142995716300582e+00 1.0271028330233309e+00 
14 1 2 1.1605682584842913e+00 2.7450018252095037e+02 1.0000000000000000e+00 5.3111304050432806e-01 1.3549045989647428e+00 2.2572991305086059e+00 
272 1 2 1.1605682584842913e+00 8.0669615773478608e+02 1.0000000000000000e+00 2.6771555905042814e+00 3.7042360550211977e+00 2.8538506391380389e+00 
131 1 2 1.1605682584842913e+00 1.4452071338900819e+03 1.0000000000000000e+00 2.2999014857411724e+00 7.4309056638344915e+00 2.6850686957610272e+00 
25 1 2 1.1605682584842913e+00 1.4497486679306835e+03 1.0000000000000000e+00 3.6638755590723044e+00 1.4043574868389863e+00 3.6464047698181994e+00 
55 1 2 1.1605682584842913e+00 1.7971675695945623e+03 1.0000000000000000e+00 5.2331048901493737e+00 3.8704806566096686e+00 3.3805171394961002e+00 
352 1 2 1.1605682584842913e+00 1.2008273485742243e+03 1.0000000000000000e+00 3.9980791333826365e-01 6.2281178712582523e+00 3.9185566262981126e+00 
115 1 2 1.1605682584842913e+00 9.2215474779574993e+02 1.0000000000000000e+00 5.6599270248653824e+00 6.7551892467564425e+00 3.8774961976657982e+00 
164 1 2 1.1605682584842913e+00 -4.0962057909448704e+03 1.0000000000000000e+00 4.5797846039422552e-01 3.0411167810765827e+00 4.7528439025550844e+00 
183 1 2 1.1605682584842913e+00 9.6589794889638870e+02 1.0000000000000000e+00 3.6197515983203985e+00 3.0605845075807561e+00 5.3631549296678172e+00 
43 1 2 1.1605682584842913e+00 1.4327753704531169e+03 1.0000000000000000e+00 4.8248851007171849e+00 8.4437300283773062e+00 4.5516258766206823e+00 
151 1 2 1.1605682584842913e+00 1.8459525917607975e+03 1.0000000000000000e+00 6.5722654532278417e+00 8.1374966898904499e-01 6.8763974784541420e+00 
354 1 2 1.1605682584842913e+00 8.7121856365105168e+02 1.0000000000000000e+00 7.3103267908360547e-01 2.8612470299889505e+00 7.0005701749326850e+00 
246 1 2 1.1605682584842913e+00 6.5274843011713824e+02 1.0000000000000000e+00 4.3824336918523441e+00 5.7654269663408835e+00 6.1549060482313172e+00 
27 1 2 1.1605682584842913e+00 1.4430995405000317e+03 1.0000000000000000e+00 2.0953841164162275e+00 7.5479335229948719e+00 7.0068172573722007e+00 
143 1 2 1.1605682584842913e+00 1.8953837985268237e+03 1.0000000000000000e+00 2.2844674935901019e+00 9.2664167931780916e+00 5.9726429861401824e+00 
274 1 2 1.1605682584842913e+00 1.4146160864477256e+03 1.0000000000000000e+00 3.7918834322590200e+00 2.9523524322710686e+00 7.5973224024011499e+00 
34 1 2 1.1605682584842913e+00 5.0288553519512698e+02 1.0000000000000000e+00 1.5524028537457273e+00 5.4731209372069980e+00 7.2062912327664295e+00 
239 1 2 1.1605682584842913e+00 2.0453964608333436e+03 1.0000000000000000e+00 5.5958007882516663e+00 5.2799360378631146e+00 8.1201648893899847e+00 
102 1 2 1.1605682584842913e+00 1.1266746385828374e+03 1.0000000000000000e+00 4.7746095323381885e+00 8.3950991030068085e+00 7.4243404496920373e+00 
160 1 2 1.1605682576489316e+00 2.0768666311546358e+03 1.0000000000000000e+00 2.8430331896071084e+00 9.5247366277442840e+00 8.5231984477501275e+00 
268 1 2 1.1605682584842913e+00 1.7324834423162547e+03 1.0000000000000000e+00 4.7118069651585639e+00 1.3758155381572599e+00 8.7679599078700345e+00 
69 1 2 1.1605682584842913e+00 1.1448647806027586e+02 1.0000000000000000e+00 1.6632094427019715e+00 1.9267806905930274e+00 9.5556660163643468e+00 
357 1 2 1.1605682584842913e+00 1.5749953954861921e+03 1.0000000000000000e+00 1.5028153795931491e+00 7.8212276964775231e+00 9.7215575261730542e+00 
130 1 2 1.1605682584842913e+00 1.8815763343329077e+03 1.0000000000000000e+00 3.4534943847368473e+00 7.5629669384074187e+00 8.7695129437118133e+00 
116 1 2 1.1605682584842913e+00 1.1618196589943968e+03 1.0000000000000000e+00 6.4216615916036757e+00 8.4579661650715288e+00 9.9124501723544540e+00 
286 1 2 1.1605682584842913e+00 1.0183883639184653e+03 1.0000000000000000e+00 1.3752515066563094e+00 4.6112747004718180e-01 1.1405907396810177e+01 
139 1 2 1.1605690663147261e+00 7.3555295628599788e+02 1.0000000000000000e+00 4.6633247740775037e+00 5.4426270671189485e+00 1.0670734561277595e+01 
334 1 2 1.1605690663147261e+00 1.7220741566892798e+03 1.0000000000000000e+00 5.2138186441043688e+00 7.2902096695830112e+00 1.1081462899429413e+01 
78 1 2 1.1605682584842913e+00 1.2548829012203696e+03 1.0000000000000000e+00 3.4661900015625595e+00 1.0224823520298552e+00 1.1958112742994583e+01 
119 1 2 1.1605682584842913e+00 -1.0303603867800313e+04 1.0000000000000000e+00 1.2820009165049016e+00 2.2554726731081156e+00 1.2358522306809146e+01 
206 1 2 1.1605682840212130e+00 -6.7425036951147458e+03 1.0000000000000000e+00 6.5137573145541383e+00 2.0613455247696590e+00 1.2418545076793304e+01 
309 1 2 1.1605682584842913e+00 1.6887508774889461e+03 1.0000000000000000e+00 4.0061629627319295e+00 2.9084847801030405e+00 1.1522008826319979e+01 
377 1 2 1.1605701040619714e+00 1.7817633203083576e+03 1.0000000000000000e+00 2.0059905729470335e+00 5.7087802208494445e+00 1.2595850056822844e+01 
229 1 2 1.1605701040619714e+00 -2.1339498441100917e+04 1.0000000000000000e+00 1.0712078824407577e-01 6.1794214731888806e+00 1.2767413339641815e+01 
129 1 2 1.1605682584842913e+00 2.3091493699229850e+03 1.0000000000000000e+00 3.6320871944611750e+00 7.2480584729856927e+00 1.2479177726403707e+01 
324 1 2 1.1605682584842913e+00 1.8879781500044292e+03 1.0000000000000000e+00 3.6306730582220177e+00 2.9662502102591537e-01 1.3960255921351957e+01 
75 1 2 1.1605682584842913e+00 2.1498775285835600e+03 1.0000000000000000e+00 6.0981068508428473e+00 8.1873104171743343e+00 1.3796697434807090e+01 
112 1 2 1.1605682584842913e+00 1.7145615012808421e+03 1.0000000000000000e+00 3.1361861552113033e+00 9.8107402034854694e+00 1.3417031584330109e+01 
351 1 2 1.1605682584842913e+00 1.3274191763079187e+02 1.0000000000000000e+00 1.5841483144410056e+00 1.2514148339339568e+00 1.5136054846958571e+01 
384 1 2 1.1605682584842913e+00 -1.6385720876529795e+03 1.0000000000000000e+00 8.6868346227160531e-01 5.3502031833295547e+00 1.4917081285933467e+01 
105 1 2 1.1605682584842913e+00 1.1851113914514472e+03 1.0000000000000000e+00 1.7517179597770101e+00 7.4088090744674577e+00 1.4716681252135105e+01 
159 1 2 1.1605682584842913e+00 1.7841270655249982e+03 1.0000000000000000e+00 1.8145673717292476e-01 1.2994077067036007e+00 1.6677181830637796e+01 
190 1 2 1.1605682584842913e+00 1.4337383902547708e+03 1.0000000000000000e+00 4.6787804458867335e+00 2.2724060903080709e+00 1.6390402165570340e+01 
49 1 2 1.1605682584842913e+00 9.1531116345229930e+02 1.0000000000000000e+00 2.4156354373639849e-01 3.6076928475833960e+00 1.6648053556744003e+01 
311 1 2 1.1605682584842913e+00 1.4254520074812958e+03 1.0000000000000000e+00 3.2563712588294234e+00 4.0319807744470246e+00 1.6429409109374326e+01 
142 1 2 1.1605682584842913e+00 -4.1182382116698627e+03 1.0000000000000000e+00 2.1829137531234148e+00 5.8801185831766318e+00 1.6353611944035908e+01 
181 1 2 1.1605682584111878e+00 9.7051378240001668e+02 1.0000000000000000e+00 1.0991531582216896e+00 8.3230892772299541e+00 1.6614716998865667e+01 
371 1 2 1.1605682584842913e+00 1.1399212239242629e+03 1.0000000000000000e+00 2.5344348802312440e+00 1.0934542086186885e+00 1.7284979699875819e+01 
264 1 2 1.1605682584842913e+00 1.4927097824304851e+03 1.0000000000000000e+00 8.7214467991222189e-01 4.0518026082942393e+00 1.8510456765177860e+01 
70 1 2 1.1605682584842913e+00 1.1332112383969261e+03 1.0000000000000000e+00 6.5819012627545543e+00 2.9295265558988026e+00 1.7417608042852024e+01 
346 1 2 1.1605682584842913e+00 1.8297084522594100e+03 1.0000000000000000e+00 5.5316196926617387e+00 4.8326840161942783e+00 1.8063614251064806e+01 
8 1 2 1.1605682584842913e+00 1.0054039556017458e+03 1.0000000000000000e+00 2.9709904214413294e+00 5.9268508896465928e+00 1.8407278835508162e+01 
12 1 2 1.1605682584842913e+00 1.0069807405786523e+03 1.0000000000000000e+00 4.8886822361605811e+00 7.2091640742762770e+00 1.7353965464000822e+01 
245 1 2 1.1605682584842913e+00 -3.2196577017278642e+03 1.0000000000000000e+00 3.9907258249810944e+00 9.4541365026167146e+00 1.7949180959792564e+01 
20 1 2 1.1605682584842913e+00 1.3735122571835655e+03 1.0000000000000000e+00 6.5548611841210160e+00 8.6946197275150396e+00 1.7850921206570465e+01 
259 1 2 1.1605682584842913e+00 8.5834757407434790e+02 1.0000000000000000e+00 5.4191165751665371e-01 1.6677617435733100e-01 1.9761730033702239e+01 
7 1 2 1.1605682584842913e+00 4.5533006369143209e+02 1.0000000000000000e+00 3.3377086635903970e+00 7.8114722720602945e+00 1.9669082979811282e+01 
33 1 2 1.1605682584842913e+00 1.5888435684975902e+03 1.0000000000000000e+00 2.5798345548128709e-02 9.2999578672778167e+00 1.9167407744532962e+01 
326 1 2 1.1605682585117707e+00 1.1688695538792085e+03 1.0000000000000000e+00 9.5867176267175447e-01 1.3612068157744487e+01 9.3966819244637678e-02 
294 1 2 1.1605682584842913e+00 1.3658384237880537e+03 1.0000000000000000e+00 2.3617258644803005e+00 1.5600912135291102e+01 1.3688163156943338e+00 
53 1 2 1.1605682584842913e+00 1.4531862598234720e+03 1.0000000000000000e+00 4.1836049376659998e+00 1.6613315578684517e+01 1.8168656369982331e-01 
173 1 2 1.1605690490539542e+00 1.3272920311606572e+03 1.0000000000000000e+00 1.6091705001228294e+00 1.7680327337627574e+01 1.0864857716147971e+00 
192 1 2 1.1605682584842913e+00 1.9213885817931191e+03 1.0000000000000000e+00 6.1897955325114946e+00 1.7853146105617515e+01 5.9620294111455063e-01 
203 1 2 1.1605682584842913e+00 1.5981448475956654e+03 1.0000000000000000e+00 3.6800200380359263e+00 1.9105006679957988e+01 4.2297892728097308e-01 
136 1 2 1.1605682584842913e+00 1.9099883313225023e+03 1.0000000000000000e+00 3.2933096570648379e+00 1.0401199623608861e+01 2.8533935317008670e+00 
18 1 2 1.1605682584842913e+00 2.0544805648581478e+03 1.0000000000000000e+00 9.8014157930122814e-01 1.1923518189245780e+01 2.0132677886082089e+00 
36 1 2 1.1605682584842913e+00 2.0151314480981778e+03 1.0000000000000000e+00 5.3106825619644811e+00 1.3713821537655736e+01 2.0114455588117637e+00 
301 1 2 1.1605682584842913e+00 1.8034333511389782e+03 1.0000000000000000e+00 4.9168404832269884e-02 1.7054871180911785e+01 2.6913165272345450e+00 
188 1 2 1.1605682584842913e+00 6.4188868588916057e+02 1.0000000000000000e+00 5.6762927460108701e+00 1.7445557576572206e+01 2.5353962224190059e+00 
90 1 2 1.1605690490539542e+00 1.9580059418429028e+03 1.0000000000000000e+00 1.1466947727985901e+00 1.9455176614751881e+01 1.8066785841644655e+00 
313 1 2 1.1605682584842913e+00 1.5938299685646030e+03 1.0000000000000000e+00 3.2926666012357524e+00 1.4452451215443709e+01 2.9164796345244293e+00 
158 1 2 1.1605688758460042e+00 1.1941248002496282e+03 1.0000000000000000e+00 2.7188815079263571e+00 1.8091896269387380e+01 3.4965880568111385e+00 
47 1 2 1.1605688758460042e+00 1.6769368095092514e+03 1.0000000000000000e+00 4.4065526450061752e+00 1.9002842149334072e+01 3.9597098468263670e+00 
193 1 2 1.1605682584842913e+00 1.6288736661690332e+03 1.0000000000000000e+00 1.3308680136079014e+00 1.1269388495845124e+01 4.7878718338984587e+00 
361 1 2 1.1605682584842913e+00 1.5096722887005376e+03 1.0000000000000000e+00 2.8066791897847070e+00 1.3579087616044154e+01 5.1826342950084268e+00 
230 1 2 1.1605682584842913e+00 1.5519738698408410e+03 1.0000000000000000e+00 6.0251132737350339e+00 1.3007650090135305e+01 5.1509301524503766e+00 
345 1 2 1.1605682584842913e+00 1.4312684533635588e+03 1.0000000000000000e+00 2.1115409963207963e+00 1.5399789618636946e+01 4.6874915137044697e+00 
60 1 2 1.1605692921817712e+00 7.5205302196353102e+02 1.0000000000000000e+00 5.0810552605904338e+00 1.7039484895839415e+01 4.7726014177232932e+00 
255 1 2 1.1605682584842913e+00 1.3336416304249842e+03 1.0000000000000000e+00 6.5760736770213590e+00 1.9746567961072650e+01 4.9677082365947047e+00 
117 1 2 1.1605682584842913e+00 -1.1240577953153268e+04 1.0000000000000000e+00 5.6630143649302651e+00 1.0234641789975614e+01 6.2618426285906121e+00 
383 1 2 1.1605682584842913e+00 1.9687039533095499e+03 1.0000000000000000e+00 4.9819685601873775e+00 1.3958699283240549e+01 6.7350921103315233e+00 
247 1 2 1.1605682584842913e+00 -3.9868722525041976e+03 1.0000000000000000e+00 3.5626150474507021e+00 1.5334393945357890e+01 6.2109378126914834e+00 
265 1 2 1.1605692921817712e+00 3.6083495827809159e+01 1.0000000000000000e+00 3.4644949202092179e+00 1.7354439361988138e+01 5.8516282770450330e+00 
94 1 2 1.1605682584842913e+00 1.9301136782499202e+03 1.0000000000000000e+00 7.8826372917023901e-01 1.8580938480101100e+01 6.0034604838434706e+00 
314 1 2 1.1605682584842913e+00 1.3140191050622952e+03 1.0000000000000000e+00 2.6622963592935549e+00 1.9130860226710578e+01 7.0869718828753889e+00 
155 1 2 1.1605682584842913e+00 -6.8537045754265255e+03 1.0000000000000000e+00 1.0078207710087399e+00 1.0594482308972086e+01 8.2533884716956862e+00 
62 1 2 1.1605682584842913e+00 1.4518711894572898e+03 1.0000000000000000e+00 4.2649704712857472e+00 1.1611528442935557e+01 7.7344405886119922e+00 
228 1 2 1.1605682584842913e+00 -6.1608783675692357e+03 1.0000000000000000e+00 2.8590388033336200e+00 1.3847842060112011e+01 7.5977924313013361e+00 
87 1 2 1.1605743339447581e+00 -5.3868845814832355e+01 1.0000000000000000e+00 7.2095373720762690e-01 1.5876868692240238e+01 7.4345432201273667e+00 
103 1 2 1.1605682584842913e+00 2.0437441011089154e+03 1.0000000000000000e+00 6.4362766743912188e+00 1.6096642647116294e+01 7.9978083266540114e+00 
205 1 2 1.1605743339447581e+00 8.0398912229472148e+02 1.0000000000000000e+00 1.6859609178654020e+00 1.7516770417760362e+01 7.8683975907519192e+00 
3 1 2 1.1605682584842913e+00 1.1763453454583632e+03 1.0000000000000000e+00 6.5424052318195436e+00 1.8881540750365762e+01 7.4308333460052500e+00 
356 1 2 1.1605682576489316e+00 3.1132005135696039e+02 1.0000000000000000e+00 2.4862472716274797e+00 1.0886656138873974e+01 9.9392722934989912e+00 
359 1 2 1.1605682584842913e+00 1.6119334936294413e+03 1.0000000000000000e+00 6.4679197690331636e+00 1.2501293575244958e+01 9.4140841942438680e+00 
123 1 2 1.1605682584842913e+00 7.7732488461129333e+02 1.0000000000000000e+00 3.6960086435129051e+00 1.4456968210278166e+01 9.3994294088799020e+00 
306 1 2 1.1605682584842913e+00 4.3452205867264809e+02 1.0000000000000000e+00 3.8853680365811966e-01 1.5851255104972907e+01 9.4350023163519996e+00 
79 1 2 1.1605682584842913e+00 8.9482460862005382e+02 1.0000000000000000e+00 6.4591236834359211e+00 1.9398709544274546e+01 9.4218999113845570e+00 
80 1 2 1.1605682584842913e+00 -6.1720184625308616e+02 1.0000000000000000e+00 5.8252928530851955e+00 1.0548952787292111e+01 1.0426489074971188e+01 
269 1 2 1.1605682584842913e+00 3.1772461686609574e+02 1.0000000000000000e+00 3.5453167494361306e+00 1.2818151812903263e+01 1.0727704311714712e+01 
276 1 2 1.1605682584842913e+00 1.5281464026493663e+03 1.0000000000000000e+00 5.3021114278035260e+00 1.6283902371709228e+01 1.1217048369441748e+01 
153 1 2 1.1605686519640634e+00 2.0023394552999562e+03 1.0000000000000000e+00 1.4167984181004449e+00 1.8537505613500997e+01 1.0517202503565020e+01 
44 1 2 1.1605682584842913e+00 2.0159423440797536e+03 1.0000000000000000e+00 1.1201557916922100e+00 1.1535275305041436e+01 1.1600121710832330e+01 
35 1 2 1.1605682584842913e+00 9.7783015387762475e+02 1.0000000000000000e+00 1.3130669494930753e+00 1.4236302907318098e+01 1.1731516765288973e+01 
163 1 2 1.1605682584842913e+00 1.5676328319793001e+03 1.0000000000000000e+00 2.3431152411266591e+00 1.6635346536908784e+01 1.1732564970484395e+01 
240 1 2 1.1605682584842913e+00 8.6636135570776264e+02 1.0000000000000000e+00 4.7076101115601707e+00 1.8176584324299821e+01 1.2324269420607994e+01 
295 1 2 1.1605686519640634e+00 1.7329240101317296e+03 1.0000000000000000e+00 2.4818264011612263e+00 1.8909252130883676e+01 1.2139541760606122e+01 
285 1 2 1.1605682584842913e+00 -6.6058644273012192e+02 1.0000000000000000e+00 3.1770063252591313e-01 1.1563132816614653e+01 1.3499503551236495e+01 
360 1 2 1.1605682584842913e+00 1.4967123669571961e+03 1.0000000000000000e+00 2.5717662814239830e+00 1.1903479563918127e+01 1.4187902287847667e+01 
258 1 2 1.1605682584842913e+00 1.2758658556605928e+03 1.0000000000000000e+00 6.0914483692172583e+00 1.1534179347817801e+01 1.3471938813921959e+01 
363 1 2 1.1605682584842913e+00 -1.6952457225686239e+03 1.0000000000000000e+00 5.2501073534503853e+00 1.3666640708463138e+01 1.3100130410359050e+01 
199 1 2 1.1605682584842913e+00 6.8585065080919389e+02 1.0000000000000000e+00 4.1122927315992399e+00 1.6608703259275291e+01 1.3778578806075791e+01 
171 1 2 1.1605682584842913e+00 -3.6610295910238592e+03 1.0000000000000000e+00 1.9730979593830802e+00 1.8018458349315878e+01 1.4182729738692608e+01 
73 1 2 1.1605682584842913e+00 -3.4369058979206466e+03 1.0000000000000000e+00 6.9523229270731368e-01 1.2874944121209458e+01 1.5561487989798360e+01 
304 1 2 1.1605682584842913e+00 1.9155613821589327e+03 1.0000000000000000e+00 6.5626614282416558e+00 1.3824934947950167e+01 1.5337454056848378e+01 
249 1 2 1.1605682584842913e+00 1.4170512588531465e+03 1.0000000000000000e+00 1.9513693956430116e+00 1.4982576655579351e+01 1.4289430813517340e+01 
225 1 2 1.1605682584842913e+00 1.9711481905015144e+03 1.0000000000000000e+00 3.8195112309844510e+00 1.1653692951192328e+01 1.6535618793827371e+01 
95 1 2 1.1605682584842913e+00 -1.8139258318015135e+02 1.0000000000000000e+00 5.0844588603548821e+00 1.5921918503674958e+01 1.6647076240112320e+01 
223 1 2 1.1605682584842913e+00 1.7575528248626915e+03 1.0000000000000000e+00 9.9338480916534092e-02 1.7741634938371934e+01 1.5779512313668841e+01 
175 1 2 1.1605682584842913e+00 -3.1085084195975098e+04 1.0000000000000000e+00 2.0658259551984601e+00 1.8623308214177023e+01 1.7056114149751544e+01 
197 1 2 1.1605682584111878e+00 1.1829101461363625e+03 1.0000000000000000e+00 1.0393851865422390e+00 1.0055484120667151e+01 1.7603640147543732e+01 
135 1 2 1.1605682584842913e+00 9.1377293863266891e+02 1.0000000000000000e+00 9.2007203917699854e-01 1.6081290722404944e+01 1.7881666981561054e+01 
305 1 2 1.1605682584842913e+00 8.4960333696184603e+02 1.0000000000000000e+00 3.2802501484983826e+00 1.6273355401963961e+01 1.7484196177235212e+01 
379 1 2 1.1605682584842913e+00 1.3235295405108914e+03 1.0000000000000000e+00 5.9634288031262699e+00 1.7543687156556668e+01 1.7823756619830540e+01 
177 1 2 1.1605682584842913e+00 2.6095206618587372e+03 1.0000000000000000e+00 3.8852064101382142e+00 1.9290163980306978e+01 1.7559304026717431e+01 
96 1 2 1.1605682584842913e+00 1.0817865338639062e+03 1.0000000000000000e+00 3.5200753329388008e+00 1.3065873281246867e+01 1.9602380457949312e+01 
81 1 2 1.1605870558216875e+00 1.1754982006756356e+03 1.0000000000000000e+00 3.5992104726648189e-01 1.5514026247530589e+01 1.9952693175662858e+01 
347 1 2 1.1605682584842913e+00 1.5325908535996373e+03 1.0000000000000000e+00 4.9643486210758683e+00 1.5431248826810458e+01 1.8661407786336309e+01 
237 1 2 1.1605682584842913e+00 1.8101565319231322e+03 1.0000000000000000e+00 1.9604062962999402e-01 1.7953661642044359e+01 1.9176549126649473e+01 
260 1 2 1.1605691632250592e+00 1.1569142903874231e+03 1.0000000000000000e+00 9.8662588888196350e+00 1.3259262814197131e-01 7.4056527846247167e-01 
74 1 2 1.1605682584842913e+00 -5.1957967480605566e+03 1.0000000000000000e+00 1.0293880870723790e+01 2.1107909662101303e+00 4.8632351472189284e-01 
147 1 2 1.1605682772972574e+00 -9.4661536214037624e+03 1.0000000000000000e+00 1.1655028093378633e+01 4.3101515017375851e+00 5.9152666968004941e-01 
157 1 2 1.1605682584842913e+00 1.3709565759507350e+03 1.0000000000000000e+00 6.7332847020056663e+00 1.8853137600022514e+00 2.6060199619786282e+00 
56 1 2 1.1605682772972574e+00 2.0318047511915886e+03 1.0000000000000000e+00 1.0358791278374440e+01 5.1476146912568277e+00 1.8482267992575363e+00 
212 1 2 1.1605693916702453e+00 2.6718926663053248e+03 1.0000000000000000e+00 7.2614318029858822e+00 5.7868621006456884e+00 1.8658843816087327e+00 
31 1 2 1.1605693916702453e+00 2.1376513538958693e+03 1.0000000000000000e+00 8.8813464771190436e+00 6.5571572692161277e+00 2.6766903522822014e+00 
85 1 2 1.1605682584842913e+00 1.6023841847965982e+03 1.0000000000000000e+00 1.2876660931342808e+01 6.0418067504680391e+00 2.6102888894998548e+00 
133 1 2 1.1605682584842913e+00 1.8705958652129111e+03 1.0000000000000000e+00 7.7798660844298224e+00 8.5721793447528345e+00 1.4812560769676151e+00 
204 1 2 1.1605682584842913e+00 1.5320023454509524e+03 1.0000000000000000e+00 1.2516355698947816e+01 1.0327427213067257e+00 3.7634943465001260e+00 
344 1 2 1.1605682584842913e+00 1.9918707768717813e+03 1.0000000000000000e+00 1.2067732527010872e+01 3.9494229450730698e+00 3.4651307404481466e+00 
211 1 2 1.1605730386236757e+00 7.8057320407292275e+02 1.0000000000000000e+00 1.1956661487145418e+01 8.6072581648005411e+00 4.1011816626957627e+00 
235 1 2 1.1605682584842913e+00 3.5536969568723284e+00 1.0000000000000000e+00 8.6534687286244356e+00 5.4773885399158253e+00 5.7125134355686562e+00 
369 1 2 1.1605682584842913e+00 1.6269479855633658e+03 1.0000000000000000e+00 9.8585335712946236e+00 7.7152756024386040e+00 4.5266255275142466e+00 
54 1 2 1.1605682584842913e+00 1.4608927196206982e+03 1.0000000000000000e+00 1.0937205239711934e+01 1.5471516233947407e+00 6.4400106560190613e+00 
156 1 2 1.1605682584842913e+00 1.8417602197702413e+03 1.0000000000000000e+00 9.0399842105221424e+00 2.8710379005805056e+00 5.8263171011281196e+00 
10 1 2 1.1605682578616312e+00 1.4318803011118403e+03 1.0000000000000000e+00 1.1722255813695449e+01 3.6894746183245872e+00 5.8181939791209700e+00 
266 1 2 1.1605682584842913e+00 1.3867651332686805e+03 1.0000000000000000e+00 9.0569055620012033e+00 7.3397619069371496e+00 6.6954374837751738e+00 
196 1 2 1.1605730385352637e+00 1.3455992503020827e+03 1.0000000000000000e+00 1.2198155392514817e+01 7.8940671511931848e+00 5.9047385679310889e+00 
97 1 2 1.1605684127038516e+00 -4.3711713787095596e+03 1.0000000000000000e+00 9.3203444584877690e+00 9.5268446181486386e+00 6.9259438884943068e+00 
17 1 2 1.1605682584842913e+00 1.9782775704861224e+03 1.0000000000000000e+00 1.2149560240692059e+01 3.6069320588536935e-01 8.3494089531258133e+00 
93 1 2 1.1605682584842913e+00 -2.7470789006617351e+03 1.0000000000000000e+00 1.0193263713335506e+01 6.5710112057003505e+00 8.3656782503974512e+00 
254 1 2 1.1605682584842913e+00 1.4503748604982952e+03 1.0000000000000000e+00 1.3242026451980839e+01 7.1258154890587662e+00 7.7402659151168285e+00 
219 1 2 1.1605682584842913e+00 1.9386635328690786e+03 1.0000000000000000e+00 7.8550392769266431e+00 8.3833839718346930e+00 8.2650368244798784e+00 
232 1 2 1.1605682583958794e+00 1.5785896639398138e+03 1.0000000000000000e+00 1.1275338401647995e+01 8.2868623416517977e+00 7.6331683527882941e+00 
38 1 2 1.1605682584842913e+00 1.1963746284042836e+03 1.0000000000000000e+00 7.1608231883000446e+00 1.3827960151182694e+00 8.8666120728397733e+00 
152 1 2 1.1605682584842913e+00 1.2120868188903360e+03 1.0000000000000000e+00 1.0989270500999682e+01 2.4777740738026246e+00 9.9337098087674711e+00 
273 1 2 1.1605682584842913e+00 2.4194693403640013e+03 1.0000000000000000e+00 1.2768117232094509e+01 3.7890222034680376e+00 9.3223294219991644e+00 
368 1 2 1.1605682584842913e+00 1.5625224045782406e+03 1.0000000000000000e+00 7.9831171159717895e+00 5.4894854770606036e+00 9.6019418380267840e+00 
144 1 2 1.1605682584842913e+00 1.0842085589260464e+03 1.0000000000000000e+00 1.0709297075103702e+01 4.6193909516167189e+00 9.3806743264057211e+00 
41 1 2 1.1605682584842913e+00 -8.1678583429608466e+02 1.0000000000000000e+00 9.5334857661959465e+00 9.0094917412064444e+00 9.5050463388551201e+00 
127 1 2 1.1605761301154485e+00 -1.0035560281514061e+04 1.0000000000000000e+00 9.5627312449565789e+00 2.6254379989161519e-01 1.1015013499125265e+01 
16 1 2 1.1605682584842913e+00 6.6853758793704287e+02 1.0000000000000000e+00 8.2852277334819657e+00 3.3790319637892843e+00 1.0742413477420172e+01 
226 1 2 1.1605682584842913e+00 1.3349445346414918e+03 1.0000000000000000e+00 7.0667537484124088e+00 6.1761368664317375e+00 1.1301926819793239e+01 
162 1 2 1.1605682584842913e+00 1.7527373408468980e+03 1.0000000000000000e+00 1.1200141434606355e+01 7.3708799463641261e+00 1.0011149472307762e+01 
179 1 2 1.1605682584842913e+00 1.4992604161049658e+03 1.0000000000000000e+00 1.2886735217742203e+01 8.3502215294433810e+00 1.0947367242309360e+01 
125 1 2 1.1605761301154485e+00 9.5302641472145967e+02 1.0000000000000000e+00 1.0858759188447030e+01 1.0607495474088799e+00 1.2232138298616269e+01 
242 1 2 1.1605684056240788e+00 6.0063721219728552e+02 1.0000000000000000e+00 6.9428876654685858e+00 3.9727904895054165e+00 1.2744421882031226e+01 
169 1 2 1.1605682584842913e+00 1.0327437661363101e+03 1.0000000000000000e+00 1.1139192371396557e+01 4.8368161575106354e+00 1.1605309484310602e+01 
109 1 2 1.1605682584842913e+00 2.0274616600201489e+03 1.0000000000000000e+00 7.6054676341046665e+00 8.6230910764772570e+00 1.1910404574941939e+01 
48 1 2 1.1605682584842913e+00 1.2368309395257047e+03 1.0000000000000000e+00 1.3174616164036962e+01 9.4603319865828617e+00 1.2599583833337638e+01 
327 1 2 1.1605682584842913e+00 6.6413366692185582e+02 1.0000000000000000e+00 6.9037855027489954e+00 1.9207694854401605e-01 1.3208478855940147e+01 
319 1 2 1.1605684696370109e+00 1.5206433448161313e+03 1.0000000000000000e+00 1.0042071367888781e+01 2.6977115551976089e-01 1.4030140598056438e+01 
11 1 2 1.1605682584842913e+00 1.6692123076672347e+03 1.0000000000000000e+00 1.2735427304681046e+01 1.3662189141494181e+00 1.3100895268852657e+01 
209 1 2 1.1605682584842913e+00 3.2302963857748205e+02 1.0000000000000000e+00 8.3780866201521906e+00 2.7770157568637930e+00 1.3633532770361276e+01 
238 1 2 1.1605683800871571e+00 8.6949744929258873e+02 1.0000000000000000e+00 7.3959335806810902e+00 5.5884489685925240e+00 1.3800730358487005e+01 
234 1 2 1.1605682584842913e+00 1.7664802697000287e+03 1.0000000000000000e+00 1.1586210484984443e+01 8.0287643773495976e+00 1.3705619828021977e+01 
76 1 2 1.1605682584842913e+00 3.0843864310006069e+01 1.0000000000000000e+00 7.5669474785351793e+00 3.8853722867220655e+00 1.5460285009679755e+01 
307 1 2 1.1605682584842913e+00 1.7185044207015003e+03 1.0000000000000000e+00 1.2151274183115291e+01 3.4940655236661193e+00 1.4978380292022276e+01 
310 1 2 1.1605691329275472e+00 1.0276903564354413e+03 1.0000000000000000e+00 1.0313814665920392e+01 4.7891370592285707e+00 1.5648030464814999e+01 
98 1 2 1.1605682584842913e+00 1.7013695051264076e+03 1.0000000000000000e+00 1.0283589051386365e+01 9.6279406908028911e+00 1.4478563872873629e+01 
2 1 2 1.1605682584842913e+00 1.2362203668676743e+03 1.0000000000000000e+00 1.2963303847131424e+01 8.7870592503239244e+00 1.5057488837213993e+01 
24 1 2 1.1605682584842913e+00 1.5986978299659941e+03 1.0000000000000000e+00 1.0338694931476125e+01 1.0080618412295346e+00 1.6256454128114477e+01 
332 1 2 1.1605695008868631e+00 9.0623856111654254e+02 1.0000000000000000e+00 1.2664604136731334e+01 1.8810572629029923e-01 1.6780502978686890e+01 
165 1 2 1.1605692738557269e+00 9.2636444139817252e+02 1.0000000000000000e+00 1.0459492306261875e+01 3.4705518050989190e+00 1.7105346964410611e+01 
82 1 2 1.1605682584842913e+00 -3.3579803210093369e+03 1.0000000000000000e+00 1.0305275662929914e+01 7.2816757426226966e+00 1.6451422598779338e+01 
84 1 2 1.1605682584842913e+00 2.0447354692654790e+03 1.0000000000000000e+00 1.1829376913813642e+01 8.5427406073607219e+00 1.6934922875376294e+01 
66 1 2 1.1605682584842913e+00 9.4082484565659843e+02 1.0000000000000000e+00 9.3468822814745014e+00 1.6500111769071022e+00 1.7956934228946771e+01 
172 1 2 1.1605682584842913e+00 8.9552314115848480e+02 1.0000000000000000e+00 8.5143683680599089e+00 3.6568932400126783e+00 1.8288799997283263e+01 
262 1 2 1.1605683994124711e+00 1.7987445570419679e+03 1.0000000000000000e+00 1.2018436364405632e+01 3.1115229613180033e+00 1.8274765357147952e+01 
72 1 2 1.1605682584842913e+00 1.2574698483963189e+03 1.0000000000000000e+00 1.2736340158968636e+01 5.5274092291161418e-02 1.9698076757276663e+01 
342 1 2 1.1605682584842913e+00 1.9014400571922729e+03 1.0000000000000000e+00 7.9775593876677018e+00 5.5000720807350705e+00 1.9424083031572131e+01 
280 1 2 1.1605682584842913e+00 -5.4557287195198523e+02 1.0000000000000000e+00 1.0651278420729582e+01 4.8312007627626192e+00 1.8872783671706120e+01 
221 1 2 1.1605707047302918e+00 -1.6436061794468120e+02 1.0000000000000000e+00 1.3054307147073233e+01 6.4697985982213444e+00 1.8798599477637225e+01 
300 1 2 1.1605686705274545e+00 1.6297044913609666e+03 1.0000000000000000e+00 9.6389113878114312e+00 8.2455633361534595e+00 1.8857926976066945e+01 
89 1 2 1.1605707047302918e+00 9.9116255124362249e+02 1.0000000000000000e+00 1.2298901613783887e+01 8.0910524474884919e+00 1.9604412241362432e+01 
287 1 2 1.1605682584842913e+00 1.1958880409433441e+03 1.0000000000000000e+00 8.3102637824431831e+00 9.8333609989033111e+00 1.9937257136599811e+01 