LAMMPS data file via write_data, version 30 Jul 2016, timestep = 50400000

384 atoms
2 atom types

0.0000000000000000e+00 2.0000000000000000e+01 xlo xhi
0.0000000000000000e+00 2.0000000000000000e+01 ylo yhi
0.0000000000000000e+00 2.0000000000000000e+01 zlo zhi

Masses

1 3.896
2 4.31

Atoms # meso-molecular

202 1 2 1.1605682584842913e+00 -4.5525011969456398e+02 1.0000000000000000e+00 2.7036023432182295e+00 8.7476178391979271e+00 1.1043016469166765e-01 
142 1 2 1.1605682584842913e+00 -4.1182212540872370e+03 1.0000000000000000e+00 4.8327220006554565e+00 9.5929677743063113e+00 1.2590221971122548e+00 
175 1 2 1.1605682584842913e+00 -3.1085061298610643e+04 1.0000000000000000e+00 6.0456987364628487e+00 1.2475872565014068e+00 1.5365128468787781e+00 
172 1 2 1.1605682584842913e+00 8.9554942092711281e+02 1.0000000000000000e+00 3.3800361338126552e+00 3.3380595875781558e+00 2.5602099370423614e+00 
383 1 2 1.1605684319772467e+00 1.9687537373352118e+03 1.0000000000000000e+00 5.1928462314214805e+00 5.4243948599283112e+00 2.0005871097797407e+00 
284 1 2 1.1605684319772467e+00 2.6787795139555178e+03 1.0000000000000000e+00 5.9606934045453785e+00 7.0836741471677760e+00 2.7584588282751157e+00 
253 1 2 1.1605682585193404e+00 -2.6145090911316106e+03 1.0000000000000000e+00 9.3704924566359493e-01 2.5205520401956689e+00 3.5060006137366928e+00 
252 1 2 1.1605682584842913e+00 -2.2312069347234392e+03 1.0000000000000000e+00 6.0941647040699900e+00 3.0238337605935977e+00 2.8651113231092036e+00 
64 1 2 1.1605685250680835e+00 1.2050370037188702e+03 1.0000000000000000e+00 5.0663459357081064e-01 9.5749995816497648e+00 4.1806883658153691e+00 
317 1 2 1.1605685250680835e+00 1.8442846515372364e+03 1.0000000000000000e+00 1.7897670871075726e+00 8.6855503597541635e+00 2.9676381067688617e+00 
281 1 2 1.1605682585193404e+00 -1.2853398047283170e+04 1.0000000000000000e+00 2.4787410907493688e+00 2.4213511940910979e+00 4.7731278772428798e+00 
246 1 2 1.1605682584842913e+00 6.5277501562054863e+02 1.0000000000000000e+00 1.4783363315438827e-02 6.6966487102875503e+00 5.3011524510668977e+00 
230 1 2 1.1605682584842913e+00 1.5519886308662840e+03 1.0000000000000000e+00 5.1745672399579750e+00 7.0390307893034052e+00 4.6521967460043374e+00 
359 1 2 1.1605682584842913e+00 1.6119589755529482e+03 1.0000000000000000e+00 4.0422278811184107e+00 9.1133008970262530e+00 4.2935075944572159e+00 
79 1 2 1.1605682584842913e+00 8.9484637821391425e+02 1.0000000000000000e+00 4.4129142664838312e+00 1.3528934138855613e+00 6.1636669599356306e+00 
311 1 2 1.1605692371517264e+00 1.4255738059762843e+03 1.0000000000000000e+00 6.2705629364433166e+00 2.5489412533250553e+00 5.7946124002224995e+00 
151 1 2 1.1605692386719315e+00 1.8460771785116413e+03 1.0000000000000000e+00 5.8872676698447490e+00 4.1467553677122764e+00 6.8796194997228595e+00 
27 1 2 1.1605682600044964e+00 1.4431257929981427e+03 1.0000000000000000e+00 4.0397020343739305e+00 4.6358022005596782e+00 6.3088526260574040e+00 
269 1 2 1.1605682584842913e+00 3.1774426375388680e+02 1.0000000000000000e+00 2.4629361874885305e+00 6.4336254540756226e+00 6.3987504113147313e+00 
227 1 2 1.1605682584842913e+00 1.1938884014616060e+03 1.0000000000000000e+00 5.9680669440753675e+00 6.5422774299037085e+00 6.5495493321170164e+00 
226 1 2 1.1605682742484016e+00 1.3349698790195407e+03 1.0000000000000000e+00 2.7282087083657585e+00 1.3960458199392398e+00 7.4366330988932452e+00 
20 1 2 1.1605682576068879e+00 1.3735351103209439e+03 1.0000000000000000e+00 4.0989408047184002e+00 2.7619239317246818e+00 7.9098617315006505e+00 
83 1 2 1.1605682584842913e+00 1.0553237088918231e+03 1.0000000000000000e+00 8.2636770911754143e-01 7.0332947381311444e+00 8.1781457299217699e+00 
352 1 2 1.1605682584842913e+00 1.2008459902009022e+03 1.0000000000000000e+00 3.9535331391042412e+00 6.1142151082953360e+00 7.8015525071643159e+00 
30 1 2 1.1605688073097311e+00 1.6656011507595620e+03 1.0000000000000000e+00 3.9991550131063183e+00 8.3857673760704685e+00 7.7343941612733431e+00 
94 1 2 1.1605682584842913e+00 1.9301301270238191e+03 1.0000000000000000e+00 1.0286758353876992e+00 9.1022794227999650e+00 7.3116546556849809e+00 
44 1 2 1.1605682584842913e+00 2.0159669986150525e+03 1.0000000000000000e+00 5.3910601787275176e+00 9.9788291696586615e+00 8.0188157732390959e+00 
232 1 2 1.1605682584842913e+00 1.5786096217500221e+03 1.0000000000000000e+00 3.4927333713320312e+00 1.7384953701337771e+00 9.6619523076605152e+00 
133 1 2 1.1605682584842913e+00 1.8706141194382776e+03 1.0000000000000000e+00 2.4820903488843435e+00 5.0698425689233693e+00 9.8829897172596795e+00 
378 1 2 1.1605682584842913e+00 1.4139098748407428e+03 1.0000000000000000e+00 2.5128820126534843e+00 7.0812794863257338e+00 9.4985331354826954e+00 
371 1 2 1.1605682584842913e+00 1.1399513295996599e+03 1.0000000000000000e+00 5.1849801896334062e+00 7.0115373749145906e+00 1.0207378893830874e+01 
119 1 2 1.1605682584842913e+00 -1.0303583628639502e+04 1.0000000000000000e+00 4.6388844624459376e+00 9.2911372591056995e+00 1.1054338345513253e+01 
292 1 2 1.1605682584842913e+00 1.6351171201864349e+03 1.0000000000000000e+00 1.2098459161615376e+00 2.8719562858587770e+00 1.1652667762501492e+01 
384 1 2 1.1605682584842913e+00 -1.6385591606410649e+03 1.0000000000000000e+00 7.0900901968884522e-01 6.5970038789142995e+00 1.1547162109344091e+01 
165 1 2 1.1605682584842913e+00 9.2627698505119611e+02 1.0000000000000000e+00 3.5286381739579396e+00 5.9515718057362035e+00 1.2145391881830054e+01 
89 1 2 1.1605682584842913e+00 9.9098324114719981e+02 1.0000000000000000e+00 1.3330843693304870e+00 9.2816037651867056e+00 1.1654461198394628e+01 
163 1 2 1.1605682584842913e+00 1.5676564669699801e+03 1.0000000000000000e+00 5.2262784078001898e+00 8.9701387321258030e-01 1.3826669011031512e+01 
369 1 2 1.1605844564823902e+00 1.6277924622422622e+03 1.0000000000000000e+00 2.2772985229390623e+00 2.0706267064002901e+00 1.4013539949351353e+01 
273 1 2 1.1605682584842913e+00 2.4194995314824064e+03 1.0000000000000000e+00 3.6394165320618899e+00 4.0564747724771504e+00 1.3218211627472964e+01 
178 1 2 1.1605682584838417e+00 1.1165711848207442e+02 1.0000000000000000e+00 1.2470522915344342e+00 7.7250981982271290e+00 1.4267220368694018e+01 
275 1 2 1.1605682584842913e+00 1.1496170029858695e+03 1.0000000000000000e+00 4.1110550824984813e+00 8.5335913706901252e+00 1.2946938673582480e+01 
63 1 2 1.1605844564823902e+00 1.2880291763643224e+03 1.0000000000000000e+00 8.7820607023443797e-01 1.5604825467278010e+00 1.5253440580766968e+01 
341 1 2 1.1605682584842913e+00 6.3139769734277866e+02 1.0000000000000000e+00 1.8333550919283248e+00 4.1509628437788386e+00 1.5234422731578722e+01 
161 1 2 1.1605682584842913e+00 -4.9342946573928257e+03 1.0000000000000000e+00 5.6536131864191059e+00 4.1501846161167864e+00 1.4341558991187924e+01 
265 1 2 1.1605682584838417e+00 3.5997189867219504e+01 1.0000000000000000e+00 6.2755867388296763e-02 6.4214317935088880e+00 1.5214517655276842e+01 
274 1 2 1.1605682584842913e+00 1.4146423666602955e+03 1.0000000000000000e+00 3.0797225920623577e+00 7.0215686294950519e+00 1.5600072051333090e+01 
326 1 2 1.1605682584842913e+00 1.1688886096722752e+03 1.0000000000000000e+00 3.5107817215264654e+00 9.0393939666905254e+00 1.5005617387241410e+01 
149 1 2 1.1605682584842913e+00 -1.7433124831684982e+01 1.0000000000000000e+00 5.6331087269273166e+00 8.8966966779261512e+00 1.4505766955223597e+01 
121 1 2 1.1605682584842913e+00 1.5949013150831433e+03 1.0000000000000000e+00 4.5215304029844035e+00 6.3131141486741871e-01 1.5946858174355032e+01 
164 1 2 1.1605682584842913e+00 -4.0961930492782867e+03 1.0000000000000000e+00 3.3923528248079404e+00 4.1954463936542652e+00 1.6936686739223344e+01 
283 1 2 1.1605682584842913e+00 2.2838373871054127e+03 1.0000000000000000e+00 5.8788008148055626e+00 4.4444445941063142e+00 1.6481253559760241e+01 
57 1 2 1.1605884222886205e+00 1.4513956281249757e+03 1.0000000000000000e+00 1.3572870476154468e+00 9.7889496709538690e+00 1.5830485650131328e+01 
374 1 2 1.1605682584842913e+00 5.8155805864768115e+02 1.0000000000000000e+00 1.6564484832362305e+00 4.4967248258401513e+00 1.8496778041339908e+01 
129 1 2 1.1605682584842913e+00 2.3091702499517442e+03 1.0000000000000000e+00 4.6274691236991332e+00 6.9097561498441724e+00 1.7896362682777795e+01 
130 1 2 1.1605682584842913e+00 1.8816053520866626e+03 1.0000000000000000e+00 3.2267559256806040e+00 9.3057745330327535e+00 1.7540191714183361e+01 
40 1 2 1.1605682584842913e+00 8.9562309495567501e+02 1.0000000000000000e+00 5.3704492150596135e+00 9.5370101938657896e+00 1.7877394656757023e+01 
154 1 2 1.1605682584842913e+00 1.4063411908196849e+02 1.0000000000000000e+00 5.0050416455830060e+00 1.0451294381869576e+00 1.8578801799694677e+01 
249 1 2 1.1605682584842913e+00 1.4170687738860620e+03 1.0000000000000000e+00 3.5340424365403251e+00 1.8423923285617585e+00 1.9835453600058884e+01 
305 1 2 1.1605682584842913e+00 8.4961924141795475e+02 1.0000000000000000e+00 6.4938651821778661e+00 4.4602516561382712e+00 1.8659226679142400e+01 
192 1 2 1.1605682584842913e+00 1.9214049672763267e+03 1.0000000000000000e+00 5.4514895220175763e+00 7.5712880388039920e+00 1.9973202994362882e+01 
272 1 2 1.1605682584842913e+00 8.0671599147600318e+02 1.0000000000000000e+00 4.0104052642007639e+00 1.4792689313575037e+01 1.3258897480461920e+00 
74 1 2 1.1605684278088479e+00 -5.1957528087668597e+03 1.0000000000000000e+00 1.5297343241403871e+00 1.6739505324788400e+01 2.3013635987686293e-01 
315 1 2 1.1605682584842913e+00 -1.7690680320740612e+04 1.0000000000000000e+00 6.4621338861883206e+00 1.6755378109700622e+01 5.9394606239882242e-01 
73 1 2 1.1605682584842913e+00 -3.4368891875927620e+03 1.0000000000000000e+00 2.5147858269463335e+00 1.9335495069909069e+01 1.0919962253224424e+00 
360 1 2 1.1605682584842913e+00 1.4967429274330375e+03 1.0000000000000000e+00 5.9118261662631229e+00 1.9453093847762599e+01 3.2974827226440839e-01 
92 1 2 1.1605755840414476e+00 1.0388416071180595e+03 1.0000000000000000e+00 1.2467390767962303e+00 1.1064400310713079e+01 1.6186587621264015e+00 
346 1 2 1.1605682584842913e+00 1.8297311403774038e+03 1.0000000000000000e+00 4.4832372347910079e+00 1.2066793683584521e+01 1.6963920746578323e+00 
56 1 2 1.1605682584842913e+00 2.0318214296970796e+03 1.0000000000000000e+00 1.7034955501908831e+00 1.3125912021011880e+01 1.5739646675666412e+00 
171 1 2 1.1605682584842913e+00 -3.6610083923870689e+03 1.0000000000000000e+00 3.1243390236662663e+00 1.7199000863139958e+01 2.0762299758910561e+00 
31 1 2 1.1605755840414476e+00 2.1380321592371906e+03 1.0000000000000000e+00 1.5211127222898444e+00 1.1744244572989997e+01 3.4240791561747890e+00 
150 1 2 1.1605682584842913e+00 3.8965137388521799e+02 1.0000000000000000e+00 2.4696365538631024e+00 1.4466601377995261e+01 3.0688323386734679e+00 
247 1 2 1.1605682584842913e+00 -3.9868606940663230e+03 1.0000000000000000e+00 4.7221699884718671e+00 1.4527481169100344e+01 3.2872581674847554e+00 
105 1 2 1.1605682584842913e+00 1.1851291257326702e+03 1.0000000000000000e+00 5.0077754034891786e+00 1.6667744298367243e+01 3.0169636509206348e+00 
381 1 2 1.1605682584842913e+00 1.6097859198754718e+03 1.0000000000000000e+00 3.3236496119677522e-01 1.7792833364641687e+01 3.0362020525588882e+00 
36 1 2 1.1605682584842913e+00 2.0151557202459317e+03 1.0000000000000000e+00 1.6565311203413928e+00 1.9321437277143072e+01 4.1267129288705044e+00 
335 1 2 1.1605682584842913e+00 -1.7455886818049532e+01 1.0000000000000000e+00 5.2968198408005858e+00 1.9631947827222202e+01 3.1680070628410699e+00 
169 1 2 1.1605682584842913e+00 1.0327681687420495e+03 1.0000000000000000e+00 2.3805184581068806e-01 1.3233744205074382e+01 4.4943308397175912e+00 
28 1 2 1.1605682584842913e+00 1.5056151230308869e+03 1.0000000000000000e+00 3.2304043833399056e+00 1.7657959075111233e+01 4.3417586918876623e+00 
137 1 2 1.1605682584842913e+00 1.8954243366502551e+03 1.0000000000000000e+00 7.2362871593979949e-01 1.2715494157781340e+01 6.3862510127046850e+00 
188 1 2 1.1605682584842913e+00 6.4190266398471340e+02 1.0000000000000000e+00 2.9772916037787707e+00 1.2366569194031422e+01 6.1998902993958156e+00 
377 1 2 1.1605682584842913e+00 1.7816261074204535e+03 1.0000000000000000e+00 4.9208565364256085e+00 1.1880776844279746e+01 6.5378712258386216e+00 
320 1 2 1.1605682584842913e+00 -6.2439354101798517e+02 1.0000000000000000e+00 5.4848935391759157e-01 1.5549391141537615e+01 6.6326460595792254e+00 
157 1 2 1.1605682584842913e+00 1.3709721569257367e+03 1.0000000000000000e+00 4.7675193791661092e+00 1.4747243761279705e+01 6.1721627963499719e+00 
334 1 2 1.1605682584842913e+00 1.7220125822471894e+03 1.0000000000000000e+00 2.7727731453319286e+00 1.7538076625146797e+01 7.0092936193047217e+00 
3 1 2 1.1605682584842913e+00 1.1763774400764091e+03 1.0000000000000000e+00 4.6240300222636481e+00 1.8472240591313675e+01 6.0468842728391001e+00 
240 1 2 1.1605682584842913e+00 8.6638327324080274e+02 1.0000000000000000e+00 1.9574985828312530e+00 1.9993357265105441e+01 6.1735615651057856e+00 
85 1 2 1.1605688073097311e+00 1.6024768353230577e+03 1.0000000000000000e+00 3.2973011579856273e+00 1.0100595057129331e+01 8.4157342225360452e+00 
65 1 2 1.1605684866735870e+00 1.3055159113544000e+03 1.0000000000000000e+00 5.0529279253892287e+00 1.4844158894711569e+01 8.4469828360020589e+00 
78 1 2 1.1605682659774683e+00 1.2549029587101647e+03 1.0000000000000000e+00 6.3175757728358004e+00 1.7810323256529625e+01 7.6403699279258062e+00 
276 1 2 1.1605682751258051e+00 1.5281785378407137e+03 1.0000000000000000e+00 2.9292457338717526e+00 1.9627150586918930e+01 8.3234649924937987e+00 
323 1 2 1.1605684866735870e+00 1.2221084971583500e+03 1.0000000000000000e+00 5.5370609654264920e+00 1.3006446528909578e+01 8.9999270391106787e+00 
297 1 2 1.1605682584842913e+00 -1.3517249443277392e+03 1.0000000000000000e+00 1.3152627658697180e+00 1.5263082799304271e+01 9.2563843459300941e+00 
114 1 2 1.1605682584842913e+00 1.6487062921057268e+03 1.0000000000000000e+00 3.4185038992207195e+00 1.6399565408210606e+01 8.6925764694861662e+00 
39 1 2 1.1605682584842913e+00 1.0681544907494440e+03 1.0000000000000000e+00 1.2827874677558695e+00 1.2442242549197815e+01 1.0466338106976441e+01 
125 1 2 1.1605682584842913e+00 9.5258183994669548e+02 1.0000000000000000e+00 3.4261673066453024e+00 1.2348054126937154e+01 1.0284038284213903e+01 
229 1 2 1.1605682584842913e+00 -2.1339644232427800e+04 1.0000000000000000e+00 4.2627147607910123e+00 1.4496424097421571e+01 1.0287789410535598e+01 
267 1 2 1.1605682584842913e+00 1.8340574300625995e+03 1.0000000000000000e+00 5.3727365414987949e+00 1.7532652402813234e+01 1.0071112076065493e+01 
342 1 2 1.1605682584842913e+00 1.9014576206971828e+03 1.0000000000000000e+00 3.6528694167106828e+00 1.1312311887303004e+01 1.2044861255196693e+01 
197 1 2 1.1605682584842913e+00 1.1829250738970302e+03 1.0000000000000000e+00 6.5674275379935194e+00 1.0240183760966669e+01 1.2711564810126061e+01 
9 1 2 1.1605682584842913e+00 1.0434013903938917e+03 1.0000000000000000e+00 4.7654821007870956e+00 1.2930500977918552e+01 1.2545711092567188e+01 
55 1 2 1.1605682584842913e+00 1.7971975028294373e+03 1.0000000000000000e+00 1.7798193180193060e+00 1.5879962555614060e+01 1.1596099110308620e+01 
183 1 2 1.1605682584842913e+00 9.6592355133751153e+02 1.0000000000000000e+00 1.6930682135888147e+00 1.8032523114862176e+01 1.1432705689552410e+01 
35 1 2 1.1605682584842913e+00 9.7786175693150631e+02 1.0000000000000000e+00 4.6964009908190114e+00 1.9096235867377910e+01 1.2422104343304389e+01 
280 1 2 1.1605682584842913e+00 -5.4555741593597054e+02 1.0000000000000000e+00 2.6042064115452370e+00 1.2746181115093634e+01 1.4121899198262248e+01 
80 1 2 1.1605682584842913e+00 -6.1717861703392418e+02 1.0000000000000000e+00 5.4907041381987662e+00 1.1741202062620408e+01 1.4204571794797310e+01 
215 1 2 1.1605682584842913e+00 2.2398140666109439e+03 1.0000000000000000e+00 2.5453204986396774e+00 1.5595553972711645e+01 1.4100296113011527e+01 
370 1 2 1.1605682584842913e+00 4.7564470484379137e+02 1.0000000000000000e+00 7.3139384696982057e-01 1.6556982758225793e+01 1.3937189527501996e+01 
376 1 2 1.1605884222886205e+00 -7.6381573967480176e+02 1.0000000000000000e+00 2.7684805359249469e+00 1.1027507364008180e+01 1.5365492379071483e+01 
206 1 2 1.1605682584842913e+00 -6.7424883226671909e+03 1.0000000000000000e+00 5.9613971151363321e-01 1.3345394821816354e+01 1.4614212624338411e+01 
361 1 2 1.1605682584842913e+00 1.5096894450520299e+03 1.0000000000000000e+00 4.1459374614572564e+00 1.6194211286498849e+01 1.5495045234517839e+01 
236 1 2 1.1605682584842913e+00 2.0675797704367269e+03 1.0000000000000000e+00 1.3663526326010171e+00 1.8061067175373960e+01 1.5275507986352819e+01 
318 1 2 1.1605682584842913e+00 1.1837462373527615e+03 1.0000000000000000e+00 4.7654500025003603e+00 1.8267379342275397e+01 1.4677425914443354e+01 
349 1 2 1.1605682584842913e+00 9.3708723366978688e+02 1.0000000000000000e+00 3.0173591499550234e+00 1.4274731397203354e+01 1.6000961945895046e+01 
245 1 2 1.1605682584842913e+00 -3.2196372024589846e+03 1.0000000000000000e+00 6.0550031793770707e+00 1.5368527390867614e+01 1.8369232326703898e+01 
254 1 2 1.1605682584842913e+00 1.4504042186937322e+03 1.0000000000000000e+00 1.8094013563720333e+00 1.7902976548854895e+01 1.8060784016544165e+01 
266 1 2 1.1605907870224683e+00 1.3878331957040102e+03 1.0000000000000000e+00 6.4563421570260511e+00 1.7497500855444912e+01 1.8461628945075436e+01 
357 1 2 1.1605682584842913e+00 1.5750137827667982e+03 1.0000000000000000e+00 6.6140882411353257e+00 1.2326417141015860e+01 1.8724381796728149e+01 
13 1 2 1.1605682584842913e+00 1.1737299135385056e+03 1.0000000000000000e+00 8.0701839836799782e-01 1.4260628070418681e+01 1.8871314380473823e+01 
26 1 2 1.1605682584842913e+00 7.9919087910413032e+02 1.0000000000000000e+00 2.9826620544861799e+00 1.3471297308290779e+01 1.9937947709557854e+01 
97 1 2 1.1605682584842913e+00 -4.3711798329755011e+03 1.0000000000000000e+00 4.4086163304924799e+00 1.4025489791772708e+01 1.8615566518771921e+01 
18 1 2 1.1605684278088479e+00 2.0545229420269852e+03 1.0000000000000000e+00 3.3405194231412101e+00 1.7150768541920488e+01 1.9535844821456259e+01 
205 1 2 1.1605682584842913e+00 8.0361508658368848e+02 1.0000000000000000e+00 6.8945261945426370e+00 3.8081895140241970e+00 6.9306018925174739e-01 
301 1 2 1.1605684658446480e+00 1.8034761329732094e+03 1.0000000000000000e+00 8.7068572214419433e+00 9.0311314214458545e+00 1.1206234177549703e+00 
262 1 2 1.1605685211559866e+00 1.7987817679966247e+03 1.0000000000000000e+00 1.2333702891735935e+01 9.9587248198725753e+00 4.5040664157748245e-01 
86 1 2 1.1605682584842913e+00 -5.6077630922075173e+01 1.0000000000000000e+00 9.8515179328317153e+00 5.6765439824975661e-01 1.5133990155298878e+00 
46 1 2 1.1605682584842913e+00 1.1986819945465277e+03 1.0000000000000000e+00 1.1953915422205505e+01 3.4470084384730487e-01 2.6443882527049598e+00 
379 1 2 1.1605682584842913e+00 1.3235496326338416e+03 1.0000000000000000e+00 7.7363373957316393e+00 1.8548855052785307e+00 2.7297461468107977e+00 
264 1 2 1.1605682584842913e+00 1.4927203603003177e+03 1.0000000000000000e+00 9.2902307370240802e+00 3.5354039900055456e+00 2.5952093639314264e+00 
366 1 2 1.1605682584842913e+00 4.3243724595174240e+02 1.0000000000000000e+00 1.2431982698838612e+01 4.5491434552341552e+00 2.3939874453289609e+00 
104 1 2 1.1605682584842913e+00 9.1642400228618453e+02 1.0000000000000000e+00 8.6976526138439425e+00 6.4203278747763637e+00 2.5299784764806854e+00 
103 1 2 1.1605685211559866e+00 2.0438096260852431e+03 1.0000000000000000e+00 1.2832608281227754e+01 8.9491917986392515e+00 2.0761359517688773e+00 
255 1 2 1.1605682584842913e+00 1.3336698025628234e+03 1.0000000000000000e+00 1.3026925254028196e+01 1.7725536468677170e+00 3.8911909250710197e+00 
196 1 2 1.1605682584842913e+00 1.3452855245043691e+03 1.0000000000000000e+00 1.1074952510079475e+01 4.0654413145973081e+00 3.9699774039409239e+00 
382 1 2 1.1605682584842913e+00 1.6670889613235909e+03 1.0000000000000000e+00 1.0364694665904072e+01 7.2567164457575100e+00 3.7392396112288462e+00 
111 1 2 1.1605682584842913e+00 -2.6902401297568984e+04 1.0000000000000000e+00 8.2190678881551076e+00 9.3481943421583900e+00 3.6916629320456531e+00 
77 1 2 1.1605682584842913e+00 1.2098605827999309e+03 1.0000000000000000e+00 7.6585004279605498e+00 4.6649814986479754e-01 5.4446341751524656e+00 
113 1 2 1.1605682584842913e+00 1.9595863354669987e+03 1.0000000000000000e+00 8.4739014598940319e+00 2.9224815471598373e+00 4.7768575307481376e+00 
147 1 2 1.1605682584842913e+00 -9.4661338897526675e+03 1.0000000000000000e+00 8.3973291268340144e+00 5.5435116939537528e+00 4.4567852895154232e+00 
179 1 2 1.1605682584842913e+00 1.4992797057501989e+03 1.0000000000000000e+00 1.3145498366099478e+01 6.2174730207259632e+00 4.7487654769553282e+00 
373 1 2 1.1605682584842913e+00 1.5064433003268400e+03 1.0000000000000000e+00 1.2192168629930766e+01 7.8235660790718535e+00 5.6975679742907825e+00 
348 1 2 1.1605682584842913e+00 1.1096679597734783e+03 1.0000000000000000e+00 9.4999706172108613e+00 1.0872047198235668e+00 6.3860308794894323e+00 
242 1 2 1.1605682584842913e+00 6.0062604197149233e+02 1.0000000000000000e+00 1.2141175517379795e+01 4.8878846973007057e+00 6.5126993209006478e+00 
120 1 2 1.1605682584842913e+00 2.1364828483503034e+03 1.0000000000000000e+00 9.4626969633906128e+00 6.0273223375116665e+00 6.8662723860950994e+00 
123 1 2 1.1605682584842913e+00 7.7734404935852649e+02 1.0000000000000000e+00 9.9831691086072176e+00 8.2056832638851951e+00 5.9905835968625745e+00 
332 1 2 1.1605682584842913e+00 9.0615097011589876e+02 1.0000000000000000e+00 7.2346582282565404e+00 8.8878698738554576e+00 6.1016785934521671e+00 
330 1 2 1.1605707280872739e+00 3.5573130172553141e+02 1.0000000000000000e+00 1.0997501998298361e+01 1.0246422089415659e+00 8.4130153142417932e+00 
37 1 2 1.1605682584842913e+00 1.8192972744924605e+03 1.0000000000000000e+00 8.5254489815697347e+00 4.0937779547133930e+00 7.3453799440046232e+00 
328 1 2 1.1605707280872739e+00 1.8407507194120317e+03 1.0000000000000000e+00 1.0921140378551348e+01 2.9838906595650814e+00 8.3686489839936229e+00 
329 1 2 1.1605682584842913e+00 1.0991762655517032e+03 1.0000000000000000e+00 7.0404526112526780e+00 5.0691625292565305e+00 8.3993938032371460e+00 
43 1 2 1.1605682584842913e+00 1.4327899209251227e+03 1.0000000000000000e+00 6.8013798559328391e+00 7.3374326393396059e+00 8.3115804270700000e+00 
109 1 2 1.1605682584842913e+00 2.0274771782599532e+03 1.0000000000000000e+00 1.2954961485491303e+01 7.6525077187955866e+00 8.0384193308588223e+00 
127 1 2 1.1605682584842913e+00 -1.0036013682471836e+04 1.0000000000000000e+00 6.8451213216157223e+00 1.6608648270022881e+00 8.6632464242497242e+00 
29 1 2 1.1605682584842913e+00 -3.7578464894340450e+03 1.0000000000000000e+00 8.9687781872792502e+00 2.6589390342771315e+00 9.2875114214973848e+00 
75 1 2 1.1605682584842913e+00 2.1499021731127441e+03 1.0000000000000000e+00 1.1492641770013684e+01 5.0371951495481175e+00 8.9842774530860954e+00 
41 1 2 1.1605682584842913e+00 -8.1676324527968177e+02 1.0000000000000000e+00 7.7052490477660607e+00 8.5702279398231127e+00 9.7520739722718126e+00 
153 1 2 1.1605682584842913e+00 2.0023194600913437e+03 1.0000000000000000e+00 1.1827586531257470e+01 9.9168461177098148e+00 9.8593813897962974e+00 
270 1 2 1.1605682584842913e+00 -6.5888280949323180e+03 1.0000000000000000e+00 1.2430055993370935e+01 4.1678262571574687e-01 1.0264379678556184e+01 
314 1 2 1.1605682599144718e+00 1.3140380743802189e+03 1.0000000000000000e+00 8.1735760881979456e+00 5.6616549676980856e+00 1.0767812266276461e+01 
176 1 2 1.1605682584842913e+00 -7.3473796568479838e+03 1.0000000000000000e+00 1.0214861100865761e+01 4.5857127228826577e+00 1.1349130278758576e+01 
358 1 2 1.1605682584842913e+00 2.3559136289188118e+03 1.0000000000000000e+00 1.1777943747443832e+01 6.6337454727173375e+00 1.0816089086975337e+01 
309 1 2 1.1605682739465275e+00 1.6887723796868247e+03 1.0000000000000000e+00 8.8039863881648106e+00 7.5246444801046080e+00 1.1102358414321044e+01 
224 1 2 1.1605682584842913e+00 4.6205627256079322e+02 1.0000000000000000e+00 1.0905152666932686e+01 8.5867305962706695e+00 1.1166506226743314e+01 
93 1 2 1.1605682584842913e+00 -2.7470517418046065e+03 1.0000000000000000e+00 9.4879437585198616e+00 7.6520604129313419e-01 1.2779047919153260e+01 
286 1 2 1.1605682584842913e+00 1.0184072110528468e+03 1.0000000000000000e+00 1.0815846716234560e+01 2.1254178842256204e+00 1.1976761435212303e+01 
102 1 2 1.1605682584842913e+00 1.1266919413665150e+03 1.0000000000000000e+00 8.1488289849655171e+00 2.8932116231566254e+00 1.2313833418431450e+01 
128 1 2 1.1605682725163471e+00 1.1719918182253191e+03 1.0000000000000000e+00 1.0155106433671175e+01 6.5381424398812440e+00 1.2179206812529706e+01 
51 1 2 1.1605682584842913e+00 1.4061956392313427e+03 1.0000000000000000e+00 1.2612707553902482e+01 7.8583214665145444e+00 1.2830152202298152e+01 
34 1 2 1.1605682584842913e+00 5.0290910817348561e+02 1.0000000000000000e+00 7.4483028684678425e+00 3.9349776051307794e-01 1.3224030560307419e+01 
67 1 2 1.1605682584842913e+00 1.3962590832396399e+03 1.0000000000000000e+00 1.2333386307431896e+01 9.9631348879115826e+00 1.3695515706572120e+01 
251 1 2 1.1605682584842913e+00 -8.1553840834258745e+02 1.0000000000000000e+00 1.1322537623179546e+01 7.7091640795805627e-01 1.4404416029609477e+01 
177 1 2 1.1605682584842913e+00 2.6095453458258544e+03 1.0000000000000000e+00 1.3252805313829670e+01 6.8870174635892925e+00 1.4709166199979057e+01 
66 1 2 1.1605682584842913e+00 9.4084416859175985e+02 1.0000000000000000e+00 1.2443669454758169e+01 7.6423629564266160e-01 1.6822600314874126e+01 
47 1 2 1.1605682584842913e+00 1.6768839996865863e+03 1.0000000000000000e+00 6.6670803229935833e+00 1.7696994151643770e+00 1.6598241260737353e+01 
106 1 2 1.1605682584842913e+00 1.0806651725420338e+03 1.0000000000000000e+00 1.0791305925911914e+01 3.9356507407495185e+00 1.6464659136274435e+01 
182 1 2 1.1605682584842913e+00 1.7190093153369849e+03 1.0000000000000000e+00 7.0467338269098185e+00 9.5390731671827940e+00 1.6100585694555043e+01 
368 1 2 1.1605682584842913e+00 1.5625412229703661e+03 1.0000000000000000e+00 1.0175105142232587e+01 8.8153427031149079e+00 1.6605596697957175e+01 
340 1 2 1.1605686178454873e+00 -3.4236384957591922e+03 1.0000000000000000e+00 7.9582259634824117e+00 4.8996822754452274e-01 1.8198941864625326e+01 
159 1 2 1.1605682584842913e+00 1.7841493676654754e+03 1.0000000000000000e+00 8.9530090966251912e+00 2.6482130993905901e+00 1.7929004059536400e+01 
290 1 2 1.1605682584842913e+00 1.2157377957359017e+03 1.0000000000000000e+00 7.0438793982507093e+00 7.6382302186427822e+00 1.7583823517805179e+01 
126 1 2 1.1605686178454873e+00 -2.9613484401830941e+04 1.0000000000000000e+00 7.4710172980330141e+00 1.6591897199420698e+00 1.9716477840357118e+01 
45 1 2 1.1605682584842913e+00 5.3672778585269657e+02 1.0000000000000000e+00 1.0582002713633988e+01 2.4332315478167392e+00 1.9238894718392313e+01 
162 1 2 1.1605682584842913e+00 1.7527448007461940e+03 1.0000000000000000e+00 9.5939157197853557e+00 5.6766988437611809e+00 1.8900269931151083e+01 
42 1 2 1.1605682584842913e+00 -9.1625261317145066e+02 1.0000000000000000e+00 1.2789034887327579e+01 4.2918489273962948e+00 1.9188761714930333e+01 
214 1 2 1.1605682584842913e+00 1.5566417393017625e+03 1.0000000000000000e+00 1.1776979664187564e+01 6.8960391090301361e+00 1.9530512842673506e+01 
198 1 2 1.1605682584842913e+00 1.0257965125962151e+03 1.0000000000000000e+00 9.7928692309143557e+00 8.3914309646221241e+00 1.9411847361093066e+01 
108 1 2 1.1605684658446480e+00 5.0559349300871605e+02 1.0000000000000000e+00 7.2960310958754100e+00 8.9674798995451148e+00 1.9734358154651598e+01 
16 1 2 1.1605682584842913e+00 6.6855635108949537e+02 1.0000000000000000e+00 6.6980861671981682e+00 1.0538920708874668e+01 1.4276330270911239e+00 
231 1 2 1.1605682584842913e+00 1.5483940233720164e+03 1.0000000000000000e+00 9.7779207720751025e+00 1.0790395913903176e+01 1.0339600562978455e+00 
304 1 2 1.1605682584842913e+00 1.9155906331343340e+03 1.0000000000000000e+00 9.3878128276363029e+00 1.3103909096984063e+01 3.6906960464069362e-02 
296 1 2 1.1605682584842913e+00 2.1213583681829296e+03 1.0000000000000000e+00 8.5327106549295237e+00 1.5833294613503414e+01 2.5661142931421371e-01 
327 1 2 1.1605682584842913e+00 6.6415589096924964e+02 1.0000000000000000e+00 1.0775246047812974e+01 1.6473379834611070e+01 1.4066749737960866e+00 
138 1 2 1.1605682584842913e+00 -3.8863371246086363e+03 1.0000000000000000e+00 1.2005121384554863e+01 1.8804396131032224e+01 1.7603124657537136e-01 
180 1 2 1.1605682584842913e+00 1.7951625692045418e+03 1.0000000000000000e+00 1.3130451107681074e+01 1.1738557424431088e+01 2.2989196668946215e+00 
146 1 2 1.1605682584842913e+00 -9.2509927718007748e+03 1.0000000000000000e+00 8.9219213886713487e+00 1.3518718981053038e+01 2.1720340199381192e+00 
208 1 2 1.1605682584842913e+00 1.4348257912797894e+03 1.0000000000000000e+00 1.0891681330587494e+01 1.2948171158568424e+01 2.2724349911627204e+00 
343 1 2 1.1605682584842913e+00 1.3514499209462710e+03 1.0000000000000000e+00 7.6265799294596057e+00 1.5683398558025781e+01 2.4885511939015537e+00 
10 1 2 1.1605682584842913e+00 1.4319012671478683e+03 1.0000000000000000e+00 1.3225311413455030e+01 1.7527131994531562e+01 1.7775034624838568e+00 
141 1 2 1.1605682584842913e+00 2.0195239245581893e+03 1.0000000000000000e+00 7.6993121430285951e+00 1.9064594048745384e+01 2.4499549885846572e+00 
238 1 2 1.1605682584842913e+00 8.6950003374665903e+02 1.0000000000000000e+00 1.0225595251026649e+01 1.0015387773186440e+01 4.1489431411411895e+00 
60 1 2 1.1605682584842913e+00 7.5196172759328124e+02 1.0000000000000000e+00 7.2452780424317869e+00 1.1523055369413870e+01 3.1721650906683614e+00 
218 1 2 1.1605682584842913e+00 -1.0277260538322032e+03 1.0000000000000000e+00 9.6478085352676572e+00 1.5632010955283366e+01 2.8688676591283420e+00 
155 1 2 1.1605682584842913e+00 -6.8536836298183916e+03 1.0000000000000000e+00 1.3168471535963858e+01 1.6473835533022257e+01 3.5209237435143361e+00 