LAMMPS data file via write_data, version 30 Jul 2016, timestep = 50000000

384 atoms
2 atom types

0.0000000000000000e+00 2.0000000000000000e+01 xlo xhi
0.0000000000000000e+00 2.0000000000000000e+01 ylo yhi
0.0000000000000000e+00 2.0000000000000000e+01 zlo zhi

Masses

1 3.89
2 0.042

Atoms # meso-molecular

65 1 2 9.9999999999940779e-03 1.0775214120922057e-01 1.0000000000000000e+00 8.9076014288334555e+00 5.3422155082860874e+00 2.2009838875456924e+00 
66 1 2 9.9999999999712420e-03 2.7537635576302497e-02 1.0000000000000000e+00 8.8072754737296339e+00 5.2657478444154542e+00 2.6615148345814608e+00 
73 1 2 1.0000000000000819e-02 1.4586031595956789e-01 1.0000000000000000e+00 9.0341796815293698e+00 6.4168177194719558e+00 1.7091657128316509e+00 
9 1 2 1.0000000000004543e-02 3.3201360598443580e-01 1.0000000000000000e+00 8.9299968630937894e+00 6.2640207395551792e+00 1.7776056668860916e+00 
137 1 2 1.0000000000012539e-02 -6.2989517040612120e-02 1.0000000000000000e+00 9.4405957065010853e+00 5.5176154310530938e+00 1.7092739432336097e+00 
129 1 2 9.9999999999515130e-03 1.0786931467296359e-02 1.0000000000000000e+00 9.7395681694148024e+00 4.8973475435196780e+00 2.8693907734667641e+00 
201 1 2 9.9999999999779172e-03 -8.2345849042578467e-02 1.0000000000000000e+00 1.1157003324170866e+01 6.4909508942953735e+00 1.0243571534026614e+00 
202 1 2 9.9999999999281965e-03 -6.4948711321266422e-02 1.0000000000000000e+00 1.1311259660182976e+01 5.6580669259678382e+00 2.5193554745855602e+00 
321 1 2 9.9999999999753810e-03 1.5153467881292826e-01 1.0000000000000000e+00 1.3024717939380437e+01 5.7208231639258704e+00 2.3701655460275708e+00 
329 1 2 9.9999999999843513e-03 1.3007125021378527e-01 1.0000000000000000e+00 1.3054592630009337e+01 6.1195482587576633e+00 2.0159768459665952e+00 
17 1 2 9.9999999999866168e-03 3.3096834176075879e-01 1.0000000000000000e+00 9.2379210989471598e+00 6.7565891428569822e+00 1.7042591726273142e+00 
81 1 2 1.0000000000067878e-02 -9.1231625414100403e-02 1.0000000000000000e+00 9.8463162062677050e+00 7.5994246076970109e+00 1.7649581148378835e+00 
89 1 2 9.9999999999888286e-03 2.7199212875997168e-02 1.0000000000000000e+00 9.6459592744038130e+00 9.4301194157380692e+00 1.6220923943004182e+00 
25 1 2 9.9999999999727789e-03 8.7612943206069563e-02 1.0000000000000000e+00 9.4985620451687645e+00 9.9379439509418077e+00 1.9321287844025343e+00 
153 1 2 9.9999999999632987e-03 -1.5376405023155393e-01 1.0000000000000000e+00 9.9501722945763813e+00 8.6082750310245491e+00 1.4256514156239666e+00 
265 1 2 9.9999999999735006e-03 6.6191612237553699e-01 1.0000000000000000e+00 1.2329128266808659e+01 7.0808707481104456e+00 4.7488280787854487e-01 
145 1 2 9.9999999999822609e-03 -6.8245989781215328e-03 1.0000000000000000e+00 1.0740823955114418e+01 7.3633636575548431e+00 7.6151829397990889e-01 
273 1 2 9.9999999999673891e-03 1.3769176057357010e-01 1.0000000000000000e+00 1.2674046171286648e+01 7.3628754859017622e+00 9.7931940162192088e-01 
209 1 2 9.9999999999719549e-03 6.2983813532800997e-02 1.0000000000000000e+00 1.1988966209566504e+01 7.6611940479724732e+00 5.2454202061240562e-01 
217 1 2 9.9999999999924837e-03 -5.6548373341893429e-02 1.0000000000000000e+00 1.1089799210484443e+01 9.3146210839203238e+00 2.2190833383909889e+00 
225 1 2 9.9999999999781305e-03 2.5808665128293240e-01 1.0000000000000000e+00 1.0889024470176683e+01 9.8327121575135727e+00 1.6550392975048474e+00 
337 1 2 9.9999999999822609e-03 1.6869828992222752e-02 1.0000000000000000e+00 1.2948577837489802e+01 7.1349816257925447e+00 1.4898327658593451e+00 
345 1 2 9.9999999999916579e-03 3.4273095425737574e-02 1.0000000000000000e+00 1.2902201391311603e+01 7.3579658235489029e+00 2.1072488458959406e+00 
281 1 2 9.9999999999691239e-03 3.8988706483536673e-01 1.0000000000000000e+00 1.2000413724628434e+01 7.5401747768657401e+00 4.3062875676542217e-01 
74 1 2 9.9999999999962706e-03 3.4560542150880230e-03 1.0000000000000000e+00 8.9444976423303029e+00 5.6143744328768959e+00 4.2994579107090951e+00 
75 1 2 9.9999999999340287e-03 1.8658607999941934e-01 1.0000000000000000e+00 9.2191225724919477e+00 5.8424746838681285e+00 5.2373016563662080e+00 
10 1 2 9.9999999999944873e-03 8.2014327835706224e-02 1.0000000000000000e+00 8.1901954346034689e+00 6.5813928811993669e+00 5.7703622333995108e+00 
138 1 2 1.0000000000009692e-02 -6.2380900805484439e-02 1.0000000000000000e+00 9.0603100972483706e+00 5.1895532517605707e+00 3.6069533936258091e+00 
11 1 2 9.9999999999390715e-03 -6.3340951271901341e-02 1.0000000000000000e+00 8.5790045947520799e+00 6.6181129219331511e+00 6.6627218024554233e+00 
257 1 2 9.9999999999936025e-03 1.8224447927465126e-01 1.0000000000000000e+00 1.2660163047234391e+01 4.6806187882296433e+00 3.3872244733386405e+00 
193 1 2 1.0000000000043148e-02 1.2693863930005413e+00 1.0000000000000000e+00 1.1830538445945914e+01 4.4714110315229503e+00 3.7421506945347365e+00 
130 1 2 1.0000000000029730e-02 1.2584790403932430e-01 1.0000000000000000e+00 1.0435938961849462e+01 4.8690416195862953e+00 3.9198670283343828e+00 
194 1 2 9.9999999999837216e-03 2.3736779621705048e-01 1.0000000000000000e+00 1.1536013396224844e+01 4.4337296444325132e+00 4.5479244473737008e+00 
195 1 2 9.9999999998418507e-03 2.9195409783825194e-01 1.0000000000000000e+00 1.1578373608968759e+01 4.4514719872977428e+00 5.4445961561435903e+00 
258 1 2 9.9999999999543440e-03 2.9041876856229758e-02 1.0000000000000000e+00 1.2143064912038108e+01 4.3709806018210680e+00 4.2877572497580632e+00 
211 1 2 1.0000000000056275e-02 -6.3343613671308405e-02 1.0000000000000000e+00 1.1936567770409917e+01 5.8625531539714801e+00 5.6887063018690176e+00 
331 1 2 9.9999999999896248e-03 2.2309682708996505e-02 1.0000000000000000e+00 1.2410982950293453e+01 5.5673722453028969e+00 5.6772048704359914e+00 
322 1 2 9.9999999999774089e-03 -9.2229804412500310e-02 1.0000000000000000e+00 1.3322509960123824e+01 5.1959885882333587e+00 3.7473838624474745e+00 
82 1 2 9.9999999999997209e-03 3.2327341695974857e-02 1.0000000000000000e+00 8.6564746334736355e+00 6.8363359400305237e+00 4.5613646929089660e+00 
18 1 2 1.0000000000013597e-02 -6.6990620648506333e-02 1.0000000000000000e+00 7.9347609988619512e+00 7.0351291531596294e+00 5.7307404012248231e+00 
83 1 2 9.9999999998754401e-03 1.8881070480447633e-02 1.0000000000000000e+00 9.4816125332963725e+00 6.8713714020048888e+00 6.2430535942417533e+00 
90 1 2 9.9999999999867972e-03 3.9494247759581727e-03 1.0000000000000000e+00 8.2000887081073284e+00 8.4567332382849809e+00 5.3833323160205495e+00 
26 1 2 9.9999999999651479e-03 2.0312832860337072e-02 1.0000000000000000e+00 7.9462925545592089e+00 9.1125930950605234e+00 5.7066245875179584e+00 
35 1 2 9.9999999999734433e-03 -1.1143918422350882e-01 1.0000000000000000e+00 7.8693167870589722e+00 9.7555848869776103e+00 6.4652539538804357e+00 
19 1 2 1.0000000000031529e-02 -1.7584180822214859e-01 1.0000000000000000e+00 7.7867301667918900e+00 7.6376772989685842e+00 6.5111553552281656e+00 
34 1 2 9.9999999999846306e-03 -2.4466394284072952e-02 1.0000000000000000e+00 7.8672854817271851e+00 9.9533085522371412e+00 6.1085294125079885e+00 
146 1 2 1.0000000000085857e-02 -4.3501635644223012e-02 1.0000000000000000e+00 9.9095392735354917e+00 6.9332435203450480e+00 4.5328157399228495e+00 
147 1 2 1.0000000000206791e-02 2.5170403413076366e-02 1.0000000000000000e+00 9.9879466512754824e+00 7.1249037710187322e+00 5.0976140711391364e+00 
210 1 2 9.9999999999323373e-03 -1.3344426231975604e-01 1.0000000000000000e+00 1.1601863228961427e+01 7.4557580113592419e+00 4.1638424056646430e+00 
154 1 2 1.0000000000050184e-02 -1.4082978408603966e-02 1.0000000000000000e+00 1.1003448053532324e+01 9.1619651031033751e+00 4.0374091350265404e+00 
155 1 2 9.9999999997615729e-03 1.2854872780961252e-02 1.0000000000000000e+00 1.0603257613352236e+01 9.3437754725028128e+00 5.2735955589646384e+00 
218 1 2 1.0000000000037486e-02 -6.5445175186583798e-02 1.0000000000000000e+00 1.1198883746689706e+01 8.7069384555866716e+00 3.9979849646113448e+00 
219 1 2 1.0000000000010424e-02 -7.5876537268207006e-02 1.0000000000000000e+00 1.1667489743069323e+01 8.1630125637634023e+00 6.0812547313310201e+00 
282 1 2 9.9999999999884348e-03 -6.5642017814954323e-02 1.0000000000000000e+00 1.2962901128133241e+01 8.9846921136209605e+00 4.4234166970301523e+00 
274 1 2 9.9999999999445376e-03 -1.4359325667095568e-01 1.0000000000000000e+00 1.2963466808618609e+01 7.6960503805775495e+00 4.1238003660270381e+00 
290 1 2 9.9999999999607486e-03 1.0622253857525170e-01 1.0000000000000000e+00 1.3043864450795239e+01 9.4501111121255956e+00 4.3898760647478428e+00 
162 1 2 9.9999999999259119e-03 1.2790861804300835e-02 1.0000000000000000e+00 1.0590695951127261e+01 9.7745917659530708e+00 5.1139397650689080e+00 
346 1 2 9.9999999999816729e-03 -5.3103043966511096e-02 1.0000000000000000e+00 1.2927548935031684e+01 8.5073480459756823e+00 4.4112412311823821e+00 
338 1 2 1.0000000000081149e-02 -1.7064605406111022e-01 1.0000000000000000e+00 1.3185617256386577e+01 6.9171239961771738e+00 4.2613247570359132e+00 
347 1 2 1.0000000000032835e-02 -2.3246821150389002e-01 1.0000000000000000e+00 1.2872744078946859e+01 8.3822149433653159e+00 6.0503009621365695e+00 
68 1 2 9.9999999997732163e-03 1.0742272034840890e+00 1.0000000000000000e+00 1.0564533466107621e+01 1.2711767802668470e+00 7.2397594296300696e+00 
132 1 2 9.9999999998812653e-03 4.5791050734066124e-01 1.0000000000000000e+00 1.0457527870551976e+01 1.6337145638274695e+00 7.2659626732456015e+00 
131 1 2 9.9999999999991589e-03 4.5001803495926396e-01 1.0000000000000000e+00 1.0502883990954084e+01 1.8853348277356046e+00 7.0389128891468120e+00 
196 1 2 9.9999999999058446e-03 5.4106753339511360e-01 1.0000000000000000e+00 1.0791190116925128e+01 1.4871800224127945e+00 7.1506142054260442e+00 
260 1 2 1.0000000000038459e-02 4.7550816490417237e-02 1.0000000000000000e+00 1.1688340719643344e+01 2.4923795857939433e+00 7.9127881585769728e+00 
259 1 2 1.0000000000051561e-02 1.1121965937334780e-01 1.0000000000000000e+00 1.2214682434110042e+01 3.0575522420398502e+00 7.2258921751789487e+00 
268 1 2 1.0000000000056406e-02 -1.8936972638243027e-01 1.0000000000000000e+00 1.1751850147021687e+01 3.2378104697669943e+00 8.8453592743959728e+00 
67 1 2 1.0000000000424959e-02 1.0649890046310739e+00 1.0000000000000000e+00 1.0110526335790430e+01 1.1948704536608168e-01 7.1686959221665667e+00 
76 1 2 9.9999999998458197e-03 1.1097016347213987e-01 1.0000000000000000e+00 9.3499779029109895e+00 5.3855727080860518e+00 8.6701482188743118e+00 
12 1 2 9.9999999998490064e-03 5.3352577904597354e-02 1.0000000000000000e+00 9.2457862312795775e+00 5.5392106113212920e+00 8.6093712004558114e+00 
21 1 2 1.0000000000024073e-02 -8.6935012537112485e-02 1.0000000000000000e+00 8.8205072143769101e+00 5.8743765181423546e+00 9.5273492392224544e+00 
141 1 2 1.0000000000065025e-02 -1.1293487135353913e-01 1.0000000000000000e+00 9.6158211727799348e+00 4.4870010332505581e+00 9.8396538540705620e+00 
139 1 2 1.0000000000092317e-02 1.7460767435888533e-01 1.0000000000000000e+00 1.0565661595102746e+01 3.4428798768731643e+00 6.6965086904826645e+00 
140 1 2 9.9999999998519034e-03 1.3265523210585384e-01 1.0000000000000000e+00 1.0326147387567676e+01 3.9908508230800050e+00 7.4870047989474502e+00 
203 1 2 1.0000000000035968e-02 9.4109442165095578e-02 1.0000000000000000e+00 1.0540362951093954e+01 3.6324054431466264e+00 6.7484441376477147e+00 
148 1 2 9.9999999999816416e-03 -4.1668320043472352e-02 1.0000000000000000e+00 1.0455852413553719e+01 5.0589240814916003e+00 8.6144509874732460e+00 
204 1 2 9.9999999998526094e-03 -6.9114632347337061e-03 1.0000000000000000e+00 1.0493768898601687e+01 4.5494752885354846e+00 7.6139625300875799e+00 
269 1 2 9.9999999999878728e-03 -2.1805710096253231e-01 1.0000000000000000e+00 1.3299156262419507e+01 4.6646098319768816e+00 9.7139508719626040e+00 
276 1 2 1.0000000000100286e-02 1.2475492298796929e-03 1.0000000000000000e+00 1.3128091688872825e+01 6.1297953747240488e+00 8.7565801520982358e+00 
267 1 2 9.9999999999644800e-03 -2.2236379079680631e-02 1.0000000000000000e+00 1.2597366415397586e+01 4.2194145700677517e+00 6.9810246252754133e+00 
323 1 2 9.9999999999717711e-03 -3.4758835996752689e-02 1.0000000000000000e+00 1.2613205822574178e+01 3.7683004760805519e+00 7.3444307730918599e+00 
340 1 2 9.9999999999013222e-03 -2.0358996444063221e-02 1.0000000000000000e+00 1.2970266870117175e+01 5.7092692541352621e+00 7.7857901410663350e+00 
149 1 2 9.9999999999321396e-03 -1.1838786133036952e-02 1.0000000000000000e+00 1.0863218793977484e+01 6.3719497577697028e+00 9.6465550035280145e+00 
275 1 2 1.0000000000214060e-02 -2.0722035659143739e-02 1.0000000000000000e+00 1.2693348901420610e+01 6.2367643666829400e+00 7.1412126606572128e+00 
324 1 2 9.9999999999758633e-03 -1.8576988562563074e-01 1.0000000000000000e+00 1.2758177835547261e+01 3.7486727510172675e+00 8.3408006252181810e+00 
212 1 2 1.0000000000363180e-02 -9.4135077124129413e-02 1.0000000000000000e+00 1.1625301594721263e+01 6.3969086735634164e+00 9.6179598627273304e+00 
332 1 2 9.9999999999067397e-03 -1.7919088463292221e-01 1.0000000000000000e+00 1.3224804267228016e+01 4.7212836353720782e+00 8.8038920074911200e+00 
27 1 2 9.9999999999892310e-03 -2.0244810327831686e-01 1.0000000000000000e+00 7.7820580715102112e+00 8.5047513225182829e+00 6.7804411135249572e+00 
84 1 2 1.0000000000331612e-02 -1.3103668565674403e-01 1.0000000000000000e+00 9.3148509046348256e+00 7.4057680098979546e+00 8.0542062124903353e+00 
92 1 2 9.9999999997435439e-03 3.1187932266272748e-02 1.0000000000000000e+00 9.0172277435703876e+00 8.3729611649582836e+00 9.1532402431233084e+00 
100 1 2 1.0000000000027305e-02 -9.9391919692079457e-04 1.0000000000000000e+00 9.2731568195223861e+00 9.5141248289254516e+00 9.1152493162303294e+00 
91 1 2 9.9999999999863462e-03 -1.6801435498571610e-01 1.0000000000000000e+00 8.6134163735782785e+00 9.3759288301945229e+00 7.3105599773877863e+00 
28 1 2 9.9999999999534610e-03 -8.4857834406116717e-02 1.0000000000000000e+00 8.7026313722729967e+00 7.5868777886567971e+00 8.9792188699208637e+00 
20 1 2 1.0000000000013807e-02 -1.5555963965836828e-01 1.0000000000000000e+00 8.6227117802777915e+00 7.0337609983292948e+00 8.8840347807710334e+00 
29 1 2 9.9999999999222135e-03 -2.9419437518963136e-02 1.0000000000000000e+00 8.7621399960313511e+00 7.4447675158569968e+00 9.2418298401174486e+00 
339 1 2 9.9999999998311179e-03 -1.5319896505433483e-01 1.0000000000000000e+00 1.2927992631420622e+01 7.3997940915534066e+00 6.8936412350505964e+00 
292 1 2 9.9999999999527481e-03 -1.8096593668184885e-01 1.0000000000000000e+00 1.3253229189605053e+01 9.5754751255687900e+00 9.1021947451387373e+00 
348 1 2 9.9999999997695231e-03 -8.5912290916143330e-02 1.0000000000000000e+00 1.2910420255441451e+01 7.5363880536284382e+00 7.6277431805232228e+00 
283 1 2 1.0000000000389300e-02 -1.6651064370410656e-01 1.0000000000000000e+00 1.2312017228596448e+01 7.8292380713905789e+00 7.4611526379778894e+00 
293 1 2 9.9999999999679529e-03 -1.7079373789530804e-02 1.0000000000000000e+00 1.3124921077005830e+01 9.6110287780950436e+00 9.9169854686183179e+00 
284 1 2 9.9999999997878557e-03 -1.0473344918434960e-01 1.0000000000000000e+00 1.2892248583637249e+01 7.5868692865850189e+00 7.7143462770397564e+00 
291 1 2 1.0000000000023507e-02 -2.1192952318920846e-01 1.0000000000000000e+00 1.3131469609218968e+01 9.8775656797187708e+00 7.5366407058805018e+00 
156 1 2 1.0000000000035879e-02 1.0514361899296000e-01 1.0000000000000000e+00 1.0112314921660158e+01 8.9615779754954037e+00 9.6767932592723707e+00 
220 1 2 1.0000000000034136e-02 4.4685997084622335e-03 1.0000000000000000e+00 1.2226335116283661e+01 9.0289052041920765e+00 8.9475205227577934e+00 
355 1 2 1.0000000000026685e-02 -3.0985478332218563e-01 1.0000000000000000e+00 1.3141925204212484e+01 9.9879778441591540e+00 7.5716375877879729e+00 
69 1 2 1.0000000000012586e-02 -3.5603002122208613e-03 1.0000000000000000e+00 9.6844867847410594e+00 2.5709564135860528e+00 1.0688114017818599e+01 
70 1 2 9.9999999999978405e-03 -1.5227603679332208e-01 1.0000000000000000e+00 9.6098102376771504e+00 1.7996048872733557e+00 1.1544068386463161e+01 
6 1 2 9.9999999999982082e-03 7.2665764396460975e-01 1.0000000000000000e+00 9.3437497836351735e+00 1.7686505336341505e+00 1.1923147919224981e+01 
5 1 2 9.9999999999484720e-03 1.5047941945685836e-01 1.0000000000000000e+00 9.0967532974595624e+00 2.5851203634715252e+00 1.1136576147213805e+01 
14 1 2 1.0000000000005914e-02 -2.2224939421480322e-01 1.0000000000000000e+00 8.5256427096455258e+00 3.2467876808921825e+00 1.2894007504883190e+01 
133 1 2 1.0000000000010813e-02 1.6454384267557162e-01 1.0000000000000000e+00 1.0095201640100708e+01 2.1134210567546314e+00 1.0889645285784528e+01 
134 1 2 1.0000000000002807e-02 -7.9539104792068355e-02 1.0000000000000000e+00 1.0458251543132279e+01 1.7532517841249728e+00 1.1461880635252449e+01 
197 1 2 9.9999999999607035e-03 2.7729893767385046e-02 1.0000000000000000e+00 1.1694773933295293e+01 2.8690922148276621e+00 1.0646974707462874e+01 
198 1 2 9.9999999999927161e-03 1.8767320016211292e-01 1.0000000000000000e+00 1.1476676557486980e+01 2.0196385649333468e+00 1.2794414630733730e+01 
262 1 2 9.9999999999499465e-03 3.4348740968777008e-01 1.0000000000000000e+00 1.2442289830632175e+01 2.9889609090141436e+00 1.2633956199630902e+01 
199 1 2 9.9999999999875362e-03 3.8586854629718792e-01 1.0000000000000000e+00 1.1578123615787000e+01 2.2327316317933081e+00 1.3126752196480101e+01 
261 1 2 9.9999999999581413e-03 -1.7687225568907877e-01 1.0000000000000000e+00 1.2463880210175782e+01 3.0887259327046439e+00 1.1155349488010653e+01 
206 1 2 9.9999999999610956e-03 -1.1873442482494784e-01 1.0000000000000000e+00 1.2573200351380896e+01 3.0389663572936336e+00 1.1951243240539974e+01 
326 1 2 9.9999999999718907e-03 3.1766931657642695e-02 1.0000000000000000e+00 1.2667490052165846e+01 3.3308532846477261e+00 1.2208725258955642e+01 
205 1 2 1.0000000000020902e-02 -1.3355582620088624e-01 1.0000000000000000e+00 1.1555944968648660e+01 3.3298911905425266e+00 1.0365443708539805e+01 
77 1 2 1.0000000000126170e-02 -4.1299857897624595e-02 1.0000000000000000e+00 9.4887537594312317e+00 4.0315181726430973e+00 1.0291688166970033e+01 
78 1 2 1.0000000000009156e-02 -2.3474040588124867e-01 1.0000000000000000e+00 8.9674046873824622e+00 5.0425443651277968e+00 1.2377919249234928e+01 
85 1 2 1.0000000000041585e-02 -9.3319146079328702e-02 1.0000000000000000e+00 9.0400365338461501e+00 5.7355536845579165e+00 1.0927912925997676e+01 
86 1 2 9.9999999999134236e-03 1.3737060800423692e-01 1.0000000000000000e+00 9.5987893420381294e+00 5.8639078411266858e+00 1.1704627533682432e+01 
22 1 2 9.9999999999951239e-03 -7.2926903609519950e-02 1.0000000000000000e+00 8.9770446753481927e+00 5.1254087389941070e+00 1.2254521206757664e+01 
13 1 2 9.9999999999292512e-03 -1.9180294115711738e-01 1.0000000000000000e+00 8.6585200761914880e+00 3.9389188900647460e+00 1.1394401285741615e+01 
150 1 2 9.9999999999366151e-03 -1.7016959100030527e-02 1.0000000000000000e+00 9.6613231534784578e+00 5.6398773418677113e+00 1.2019328525170076e+01 
15 1 2 9.9999999999991866e-03 -2.1464878275892565e-01 1.0000000000000000e+00 8.6134333702332846e+00 3.4775102785239471e+00 1.3249000978837683e+01 
142 1 2 9.9999999999420691e-03 -1.9887193214878213e-01 1.0000000000000000e+00 1.0502254817405952e+01 4.4531980127396347e+00 1.2387559009188653e+01 
270 1 2 1.0000000000212816e-02 -1.5656953341148744e-01 1.0000000000000000e+00 1.2542917713102705e+01 4.5815566840917752e+00 1.2292942529533144e+01 
278 1 2 1.0000000000168239e-02 -5.3613565592383380e-02 1.0000000000000000e+00 1.2237114734559990e+01 6.6477262465274878e+00 1.3244365535942690e+01 
325 1 2 9.9999999999163171e-03 -2.5892568903956914e-01 1.0000000000000000e+00 1.3176075484298762e+01 4.3480344054127933e+00 1.0490253363213959e+01 
213 1 2 9.9999999996871515e-03 -7.8279966106699878e-02 1.0000000000000000e+00 1.0852643372645176e+01 6.6463175034377135e+00 1.0996874767480103e+01 
93 1 2 1.0000000000024337e-02 -1.1912341228752923e-01 1.0000000000000000e+00 9.4017295094978071e+00 8.9651435775773418e+00 1.0890194029737509e+01 
94 1 2 1.0000000000043851e-02 3.8546231051918796e-02 1.0000000000000000e+00 9.5980910220197178e+00 8.8095357136109413e+00 1.2106473236057651e+01 
30 1 2 1.0000000000023714e-02 9.0187158373408571e-02 1.0000000000000000e+00 9.3376385318733259e+00 8.6233302028414176e+00 1.3232006498474920e+01 
214 1 2 1.0000000000364192e-02 -6.8642442173027771e-02 1.0000000000000000e+00 1.1353351887532851e+01 6.7487453216534172e+00 1.1468994594733003e+01 
221 1 2 9.9999999998771402e-03 1.9347757408738522e-02 1.0000000000000000e+00 1.1981153739402608e+01 7.7637094650125977e+00 1.0606861469550337e+01 
222 1 2 1.0000000000068550e-02 -3.9560981919750340e-02 1.0000000000000000e+00 1.0808372473202201e+01 8.9254534862294754e+00 1.2091434417369847e+01 
285 1 2 9.9999999998823166e-03 -3.5512387871405385e-02 1.0000000000000000e+00 1.2343800601557520e+01 7.4580824584233270e+00 1.0449849524725991e+01 
166 1 2 9.9999999999600374e-03 -7.5949275344671857e-02 1.0000000000000000e+00 1.0413105513638550e+01 9.5609443590087277e+00 1.3010056883867151e+01 
286 1 2 9.9999999999173025e-03 -6.1767122100455915e-02 1.0000000000000000e+00 1.3000034266636087e+01 7.3365750338064526e+00 1.2916547721298702e+01 
229 1 2 9.9999999999627678e-03 -5.2963968385745432e-04 1.0000000000000000e+00 1.2252635694320006e+01 9.4487242854390523e+00 1.1036575834357260e+01 
158 1 2 9.9999999999249283e-03 3.5941355474076078e-02 1.0000000000000000e+00 1.0184339831663223e+01 7.9032031018916999e+00 1.2943894661262711e+01 
349 1 2 9.9999999998798828e-03 -1.0912615955892328e-01 1.0000000000000000e+00 1.3257236139639168e+01 6.7439915557075274e+00 1.1725987317699888e+01 
294 1 2 1.0000000000018246e-02 -1.0018821865662066e-01 1.0000000000000000e+00 1.2505562027182757e+01 9.9266362272131623e+00 1.1758576036725463e+01 
157 1 2 1.0000000000073313e-02 -5.1100812118292979e-03 1.0000000000000000e+00 1.0436691960152247e+01 9.0236109998215603e+00 1.0035840482487460e+01 
71 1 2 9.9999999999841674e-03 4.4076771417212356e-02 1.0000000000000000e+00 9.2221303970430153e+00 1.4325425641179697e+00 1.3623641680651001e+01 
7 1 2 9.9999999999796970e-03 -3.7675511498554637e-02 1.0000000000000000e+00 8.9324659638245478e+00 2.4108211751637731e+00 1.3658889309868099e+01 
72 1 2 9.9999999999895676e-03 1.8181642296837641e-01 1.0000000000000000e+00 1.0083881208192045e+01 1.3692471053576982e-01 1.4219206239597240e+01 
80 1 2 1.0000000000010013e-02 4.0240792988229246e-01 1.0000000000000000e+00 1.0272156624167824e+01 2.9376421089224678e+00 1.4588583156027115e+01 
135 1 2 9.9999999999923674e-03 -9.1903404533786232e-02 1.0000000000000000e+00 1.1064163737718026e+01 1.9205118387382121e+00 1.3713481066243872e+01 
136 1 2 9.9999999999816919e-03 4.7622151154935194e-01 1.0000000000000000e+00 1.0189151659578418e+01 2.3921463773463239e-01 1.4169098761931028e+01 
144 1 2 1.0000000000004880e-02 6.2435667195602695e-01 1.0000000000000000e+00 1.0543507364957152e+01 3.2947945532462954e+00 1.4664022244187707e+01 
79 1 2 1.0000000000035491e-02 -2.3705460020246152e-01 1.0000000000000000e+00 9.3706222241994865e+00 4.2526996649693363e+00 1.3613439351917636e+01 
16 1 2 1.0000000000000106e-02 -6.2202641204936578e-02 1.0000000000000000e+00 9.2737562052042080e+00 3.4692196206986474e+00 1.4127147237700049e+01 
143 1 2 1.0000000000003973e-02 -1.4345849924958398e-01 1.0000000000000000e+00 1.0422627376405369e+01 3.4133190407172567e+00 1.4625154747058550e+01 
200 1 2 1.0000000000006051e-02 7.0873732390618804e-01 1.0000000000000000e+00 1.1699582086505201e+01 4.1210625136704975e+00 1.5568951797718567e+01 
263 1 2 1.0000000000006452e-02 -7.8772369984804275e-02 1.0000000000000000e+00 1.2599866992607733e+01 3.8882885855506575e+00 1.4943429475555680e+01 
264 1 2 1.0000000000005413e-02 -1.1966935404842249e-01 1.0000000000000000e+00 1.2359060182216266e+01 4.1911268561827884e+00 1.5715869354832137e+01 
207 1 2 9.9999999999407403e-03 -2.3595011599236210e-01 1.0000000000000000e+00 1.1570248624100561e+01 4.8957391550582523e+00 1.5814207570138064e+01 
271 1 2 9.9999999998978822e-03 -1.6192171141223119e-01 1.0000000000000000e+00 1.3164004444225357e+01 4.5187926657615609e+00 1.4285460454042125e+01 
328 1 2 9.9999999999918487e-03 -8.2536386982279428e-02 1.0000000000000000e+00 1.2645025204009196e+01 4.7660582145824142e+00 1.5987491352267662e+01 
327 1 2 9.9999999999185827e-03 -2.0195639930891479e-01 1.0000000000000000e+00 1.3012645463863397e+01 4.2535968008581939e+00 1.4465766870054594e+01 
88 1 2 9.9999999999763802e-03 2.4911203157650615e-02 1.0000000000000000e+00 9.2875319098512481e+00 7.0626374419385991e+00 1.6018385456498418e+01 
87 1 2 9.9999999999532806e-03 -1.3358562875197388e-01 1.0000000000000000e+00 9.1200506525851264e+00 7.2034254245570022e+00 1.4797042898916319e+01 
95 1 2 1.0000000000025504e-02 -1.2398808804707417e-01 1.0000000000000000e+00 9.0281500735386508e+00 8.1984061615656429e+00 1.3920954313763794e+01 
23 1 2 9.9999999999910542e-03 -3.1474436727141436e-01 1.0000000000000000e+00 8.5304667459546426e+00 7.7209244272070290e+00 1.5541243892218420e+01 
31 1 2 1.0000000000024331e-02 -2.0728242605457911e-01 1.0000000000000000e+00 8.7542332858573850e+00 8.2836337951821672e+00 1.4493181172978826e+01 
39 1 2 9.9999999999987634e-03 -3.3588516798675105e-01 1.0000000000000000e+00 8.6015104538515299e+00 9.2618245653528923e+00 1.5872276376695224e+01 
103 1 2 1.0000000000001430e-02 -1.4780790265523291e-01 1.0000000000000000e+00 9.0380137240700940e+00 9.7698657938592124e+00 1.5566375248001137e+01 
151 1 2 1.0000000000058127e-02 -1.0225296241181342e-01 1.0000000000000000e+00 1.0290640264356034e+01 7.0498096587483667e+00 1.5281410540485966e+01 
159 1 2 9.9999999999717815e-03 -7.8849895048068899e-02 1.0000000000000000e+00 1.0337647903382351e+01 7.5856545210541544e+00 1.3889386806855983e+01 
215 1 2 1.0000000000033886e-02 -3.8031136742155164e-02 1.0000000000000000e+00 1.0545229522961240e+01 7.4719439058456478e+00 1.4831114570816949e+01 
223 1 2 1.0000000000020312e-02 -1.3892676260017189e-01 1.0000000000000000e+00 1.1712567478483981e+01 7.8439613776757353e+00 1.5467793731305223e+01 
288 1 2 9.9999999999791922e-03 -1.2491543515358308e-01 1.0000000000000000e+00 1.2763471910594070e+01 8.7343254954673419e+00 1.6522165182143393e+01 
296 1 2 1.0000000000000661e-02 -8.9210669084042710e-02 1.0000000000000000e+00 1.2838442872158437e+01 9.1683899691090254e+00 1.6402972339779378e+01 
352 1 2 9.9999999999568247e-03 -1.1467593811680046e-01 1.0000000000000000e+00 1.3249892912830726e+01 8.7416433195395573e+00 1.6109433073671543e+01 
295 1 2 9.9999999999798288e-03 -7.9604519915535479e-02 1.0000000000000000e+00 1.2905794619915751e+01 9.7398155724559317e+00 1.4295097873592502e+01 
216 1 2 1.0000000000026278e-02 -2.0386910145063358e-01 1.0000000000000000e+00 1.1502840278146333e+01 5.9834667563769246e+00 1.7548688998857063e+01 
208 1 2 1.0000000000025586e-02 4.2278662561211905e-02 1.0000000000000000e+00 1.1782744536182301e+01 5.7359245799353280e+00 1.7361946082842554e+01 
272 1 2 1.0000000000053156e-02 -2.5517762484425735e-02 1.0000000000000000e+00 1.2055125771117600e+01 5.9118669724061963e+00 1.7465035374394976e+01 
336 1 2 9.9999999999982256e-03 4.4306692435580614e-01 1.0000000000000000e+00 1.2262729383863300e+01 5.4824333719420233e+00 1.6829331845286749e+01 
24 1 2 9.9999999999848144e-03 1.5107225040477132e-01 1.0000000000000000e+00 9.1064382498585097e+00 7.5798100981699905e+00 1.6735533361269354e+01 
96 1 2 9.9999999999641175e-03 -2.6288652812324720e-01 1.0000000000000000e+00 8.9151949748067167e+00 8.3681694782059264e+00 1.7019576520951567e+01 
32 1 2 9.9999999999725205e-03 -2.5870872823350888e-01 1.0000000000000000e+00 8.7371430613217456e+00 8.8817774114307806e+00 1.6894623682287786e+01 
232 1 2 9.9999999999992387e-03 4.8204297259659759e-02 1.0000000000000000e+00 1.1782355139114467e+01 8.8762892412699141e+00 1.6825721724515915e+01 
344 1 2 9.9999999999695610e-03 1.5737847491984985e-01 1.0000000000000000e+00 1.2201221384811030e+01 7.1703014880690441e+00 1.7880646173327666e+01 
160 1 2 1.0000000000069975e-02 -1.1713954878061129e-01 1.0000000000000000e+00 1.0637899551482873e+01 7.8972365578913033e+00 1.7550162562174553e+01 
280 1 2 9.9999999997649833e-03 8.6601185991230262e-02 1.0000000000000000e+00 1.2028130306015219e+01 7.0614830474613743e+00 1.8072682501359914e+01 
168 1 2 9.9999999999620930e-03 2.5993523094263005e-01 1.0000000000000000e+00 1.0175994830288937e+01 9.6654499218110566e+00 1.7258844451392953e+01 
152 1 2 1.0000000000094721e-02 1.5393666635859350e-02 1.0000000000000000e+00 1.0239365636513144e+01 7.0381358978208839e+00 1.7095161417047141e+01 
224 1 2 9.9999999999363775e-03 -1.0833120199826001e-02 1.0000000000000000e+00 1.1912878591480171e+01 7.3602980290758007e+00 1.8030024325111906e+01 
105 1 2 9.9999999999469298e-03 -1.3301965718368930e-01 1.0000000000000000e+00 9.5657585345597393e+00 1.1738156248451940e+01 2.9332038242677299e+00 
33 1 2 9.9999999999719428e-03 3.1503417153100949e-01 1.0000000000000000e+00 9.5283250127039913e+00 1.0948682191785416e+01 2.2207578969651016e+00 
97 1 2 1.0000000000010802e-02 2.2045093951438677e-01 1.0000000000000000e+00 9.8575797687652731e+00 1.0078993394923325e+01 1.3697539731863508e+00 
161 1 2 1.0000000000009680e-02 5.3127256629407127e-01 1.0000000000000000e+00 1.0180728527441389e+01 1.0314082610591928e+01 1.3690574550365691e+00 
169 1 2 9.9999999999927352e-03 3.4871379877624575e-01 1.0000000000000000e+00 1.0454387991699940e+01 1.1595306059813709e+01 2.1767532766017901e+00 
233 1 2 9.9999999999948012e-03 5.1462008473910345e-02 1.0000000000000000e+00 1.2161558758401311e+01 1.1455396580069760e+01 3.1049172885835810e+00 
297 1 2 9.9999999999811160e-03 3.8625115764956357e-02 1.0000000000000000e+00 1.2622285770043078e+01 1.1385342629722967e+01 3.1487087152596365e+00 
289 1 2 9.9999999999674429e-03 1.8479802480378449e-01 1.0000000000000000e+00 1.2912183410569900e+01 1.1042165509328026e+01 3.2310506014630000e+00 