LAMMPS data file via write_data, version 30 Jul 2016, timestep = 50400000

180 atoms
2 atom types

0.0000000000000000e+00 2.0000000000000000e+01 xlo xhi
0.0000000000000000e+00 2.0000000000000000e+01 ylo yhi
0.0000000000000000e+00 2.0000000000000000e+01 zlo zhi

Masses

1 3.896
2 4.31

Atoms # meso-molecular

59 1 2 1.0279999766892116e+00 -7.1758374617675116e+01 1.0000000000000000e+00 1.4943171335621832e+00 1.4696946968783542e+00 5.6200322950939787e+00 
68 1 2 1.0279999834074112e+00 -7.8547029069013035e+01 1.0000000000000000e+00 1.6392392036011305e+00 1.7314133522911219e+00 5.7059539790648195e+00 
73 1 2 1.0280000040600576e+00 -6.3490477259205960e+01 1.0000000000000000e+00 2.7851080410984479e+00 2.8606272263835492e-01 4.7190917377074557e+00 
109 1 2 1.0280000040600579e+00 -6.3489464388011541e+01 1.0000000000000000e+00 2.7851080410980402e+00 2.8606272263931226e-01 4.7190917377059627e+00 
141 1 2 1.0280000046419249e+00 -7.6082089572775743e+01 1.0000000000000000e+00 3.3882612758782722e+00 1.2743807814021317e+00 5.4605760676223287e+00 
107 1 2 1.0280000042634978e+00 -4.8601009062508737e+01 1.0000000000000000e+00 2.8233867116469962e+00 1.6647891184177279e+00 4.7675050767160307e+00 
156 1 2 1.0279999750762565e+00 -5.1906407073797773e+01 1.0000000000000000e+00 1.4299388773315864e+00 1.1581495213534545e+00 7.0569209499674015e+00 
5 1 2 1.0280001209194978e+00 -3.9814682781413765e+01 1.0000000000000000e+00 2.1731623548904957e+00 2.7362841292307422e-01 7.1534802524683494e+00 
140 1 2 1.0279999272340492e+00 -8.4687253747876142e+01 1.0000000000000000e+00 2.2040227105135273e+00 2.9040122629421572e-01 7.5854973845021556e+00 
152 1 2 1.0279999804741513e+00 -7.7393550754805204e+01 1.0000000000000000e+00 4.5220141013068345e+00 3.1176288108636618e-01 6.6575148694255093e+00 
83 1 2 1.0279999813012290e+00 -6.2051520654821879e+01 1.0000000000000000e+00 4.5213020084812756e+00 3.1481436347633901e-01 6.6590252521742768e+00 
10 1 2 1.0280000341303088e+00 -6.2399611251585704e+01 1.0000000000000000e+00 5.6005438168689592e+00 1.1561258616148620e-01 7.9360849733608134e+00 
92 1 2 1.0280000339584978e+00 -4.9378151021248421e+01 1.0000000000000000e+00 5.6027722584979047e+00 1.2294959369816903e-01 7.9302736820737652e+00 
155 1 2 1.0280001138136354e+00 -4.6929489053912601e+00 1.0000000000000000e+00 9.8565137039404027e-01 3.6291990360052515e+00 7.1342755133394924e+00 
29 1 2 1.0280001138136359e+00 1.4475210038671502e+01 1.0000000000000000e+00 9.8565137039344897e-01 3.6291990360050117e+00 7.1342755133389675e+00 
117 1 2 1.0279999414661201e+00 -5.0193178218287180e+00 1.0000000000000000e+00 4.0602724133356096e+00 1.0035465769621887e+00 8.3884796643823396e+00 
79 1 2 1.0279999585059183e+00 -7.3255349044925808e+01 1.0000000000000000e+00 3.1903884651769139e+00 1.2246254430110338e-01 8.4600694801154095e+00 
121 1 2 1.0280000102223348e+00 -5.8487819452929962e+01 1.0000000000000000e+00 5.3451191084741332e+00 6.9651980343484954e-01 9.5523225239421024e+00 
128 1 2 1.0280000073248063e+00 -9.3269141016999470e+01 1.0000000000000000e+00 5.3172790880645238e+00 7.5004542810231656e-01 9.5730493000408465e+00 
122 1 2 1.0279999477204673e+00 -1.1441606558733302e+02 1.0000000000000000e+00 1.0672187886901323e+00 2.3659793434461487e+00 8.3616332773621522e+00 
123 1 2 1.0279999477204667e+00 -8.8408678059540122e+01 1.0000000000000000e+00 1.0672187872481760e+00 2.3659793415799899e+00 8.3616332707755543e+00 
37 1 2 1.0280001918061714e+00 -8.2360264567486645e+00 1.0000000000000000e+00 7.2921020961652239e-01 3.3584366834806541e+00 9.6502708640420902e+00 
106 1 2 1.0280001905929650e+00 3.6583047220129972e+00 1.0000000000000000e+00 4.1660001580642367e+00 2.7009651859295847e+00 9.7795595568464684e+00 
76 1 2 1.0280001909691128e+00 -6.2385121273423927e+01 1.0000000000000000e+00 4.1680367220874315e+00 2.7007411370619088e+00 9.7812586347353037e+00 
98 1 2 1.0279997905449825e+00 -6.9398897088556467e+01 1.0000000000000000e+00 4.5071285272383212e+00 2.5534082323152631e+00 9.2585791146179748e+00 
147 1 2 1.0279999530957187e+00 1.7994946146772396e+01 1.0000000000000000e+00 1.0196511293675716e+00 4.1565940023817571e+00 9.1795962055598999e+00 
51 1 2 1.0279999530957178e+00 -7.0901017841287612e+01 1.0000000000000000e+00 1.0196511293335373e+00 4.1565940023926773e+00 9.1795962055472291e+00 
90 1 2 1.0279999319823092e+00 -7.1163795977967567e+01 1.0000000000000000e+00 8.4904450761007833e-01 1.1178824722809713e+00 1.0957860170450903e+01 
54 1 2 1.0279999314826485e+00 -5.4712100638617606e+01 1.0000000000000000e+00 8.4738720386254163e-01 1.1135847266217662e+00 1.0961711848901954e+01 
81 1 2 1.0279999976494765e+00 -7.0582601419113686e+01 1.0000000000000000e+00 3.1144876139237732e+00 9.0166471215909760e-01 1.1163073362465465e+01 
111 1 2 1.0280000412657693e+00 -3.2958401304050902e+01 1.0000000000000000e+00 2.8271174625131104e+00 1.1269361163867289e+00 1.0758639429817242e+01 
88 1 2 1.0280000532094864e+00 -3.4781937010892463e+01 1.0000000000000000e+00 7.8880311160484617e-01 2.5603515107669024e+00 1.1428471072510673e+01 
52 1 2 1.0280000532229672e+00 -3.3321071303363901e+01 1.0000000000000000e+00 7.8877727324454439e-01 2.5603517165313323e+00 1.1428466934555846e+01 
39 1 2 1.0279999375579942e+00 -7.1341181741262176e+01 1.0000000000000000e+00 2.8784916324289735e+00 2.1279319030142125e+00 1.1846603284754890e+01 
47 1 2 1.0279999372321340e+00 -5.9637716552765006e+01 1.0000000000000000e+00 2.8781490638219998e+00 2.1280763080842560e+00 1.1846383003016992e+01 
167 1 2 1.0280000195569383e+00 -6.4958200159883361e+01 1.0000000000000000e+00 5.4283957805100891e-01 5.1653594624821020e-01 1.2978368692095474e+01 
166 1 2 1.0280000195569361e+00 -1.1049304599216964e+02 1.0000000000000000e+00 5.4283955111569837e-01 5.1653599824061514e-01 1.2978368700043180e+01 
19 1 2 1.0280000089636312e+00 -5.9000642494001312e+01 1.0000000000000000e+00 4.1817402729876756e+00 1.0210526345807203e+00 1.3004963205106165e+01 
165 1 2 1.0280000023348199e+00 3.1191779145242887e-01 1.0000000000000000e+00 4.1795476050385822e+00 1.0264726643990434e+00 1.3005000361569639e+01 
103 1 2 1.0279999259311849e+00 -7.8376942286632996e+01 1.0000000000000000e+00 4.6185146350041757e+00 5.7065795624973903e-01 1.3717652598801243e+01 
129 1 2 1.0280001450649499e+00 3.4039250832097615e+01 1.0000000000000000e+00 6.1605744808715421e+00 1.3176429488822987e+00 1.3958817526302363e+01 
85 1 2 1.0279999037533762e+00 -4.8463475372192370e+01 1.0000000000000000e+00 6.2763065329572267e+00 4.8600733401470192e-01 1.3949161895799230e+01 
66 1 2 1.0279999033261176e+00 -9.0457304712951725e+01 1.0000000000000000e+00 6.2992476098400703e+00 5.0508284513240842e-01 1.3906999114866469e+01 
91 1 2 1.0279999763847218e+00 -8.8573248107375449e+01 1.0000000000000000e+00 6.3134123330939174e+00 3.7236023445207906e+00 1.2698111742411783e+01 
99 1 2 1.0279999763847374e+00 -3.7900630520910177e+01 1.0000000000000000e+00 6.3134126774893620e+00 3.7236020644249592e+00 1.2698111384037515e+01 
60 1 2 1.0280000024791256e+00 -1.0843398076659474e+02 1.0000000000000000e+00 1.7516524108103975e+00 5.7048577807863605e+00 1.3185940294735158e+01 
168 1 2 1.0279999520830234e+00 -8.8689410067243948e+00 1.0000000000000000e+00 2.5837145272431385e+00 4.8346851817107748e+00 1.2356029433564464e+01 
145 1 2 1.0279999520830250e+00 -6.9164285678680955e+01 1.0000000000000000e+00 2.5837145273803874e+00 4.8346851817636232e+00 1.2356029433415735e+01 
171 1 2 1.0279999663717563e+00 -5.8884115597788622e+01 1.0000000000000000e+00 9.2951875739903000e-01 7.3101806006019681e+00 1.3366859390693353e+01 
105 1 2 1.0279999663717552e+00 -7.2645230752136243e+01 1.0000000000000000e+00 9.2951875739999690e-01 7.3101806006031271e+00 1.3366859390693493e+01 
175 1 2 1.0280000494708035e+00 -5.2074376740987958e+01 1.0000000000000000e+00 3.1677312391499077e+00 6.1592707839494416e+00 1.2688645764774158e+01 
139 1 2 1.0280000494708037e+00 -5.2071332227438177e+01 1.0000000000000000e+00 3.1677312391505730e+00 6.1592707839489380e+00 1.2688645764774449e+01 
154 1 2 1.0279998436135731e+00 -5.8398942749011319e+01 1.0000000000000000e+00 4.9865232485144411e+00 2.7950499880160793e+00 1.4413077602290791e+01 
179 1 2 1.0279998437011033e+00 -5.0138916906996052e+01 1.0000000000000000e+00 4.9866459805415451e+00 2.7948769455462781e+00 1.4413260374471124e+01 
36 1 2 1.0280000004196530e+00 -2.4608201197471690e+01 1.0000000000000000e+00 6.5237192665096764e+00 3.4689912311395474e+00 1.4779877965450122e+01 
164 1 2 1.0280000363646082e+00 -6.0056356772712334e+01 1.0000000000000000e+00 6.0399208461626159e+00 3.8823005406324103e+00 1.5325142583287013e+01 
30 1 2 1.0279998233589760e+00 5.1931719765215369e+00 1.0000000000000000e+00 3.7932172868386549e+00 5.5225271439931403e+00 1.4687085824013446e+01 
58 1 2 1.0280000917275507e+00 -9.8251432697373531e+01 1.0000000000000000e+00 3.7364123371268048e+00 5.7473326901119579e+00 1.5399736643725319e+01 
118 1 2 1.0280000960915900e+00 -6.3749131234038813e+01 1.0000000000000000e+00 3.7238537093792785e+00 5.7528435321797105e+00 1.5395848927485217e+01 
148 1 2 1.0280000526146658e+00 -5.7659768399343932e+01 1.0000000000000000e+00 5.8712753883612754e+00 4.5090953199666686e+00 1.4460791320645910e+01 
41 1 2 1.0280000840988102e+00 -1.0227483368826378e+02 1.0000000000000000e+00 4.6587317138931859e+00 4.2677796493429661e+00 1.4890384314662361e+01 
63 1 2 1.0279999986390973e+00 -4.7123397576389785e+01 1.0000000000000000e+00 1.0441708269893439e+00 6.3884969517720736e+00 1.4130662146254108e+01 
28 1 2 1.0280000391497854e+00 -8.7736259017009402e+01 1.0000000000000000e+00 2.0683657185273110e+00 7.3320043239639405e+00 1.5002042132040447e+01 
159 1 2 1.0280000507237066e+00 -3.9242020267943090e+01 1.0000000000000000e+00 2.1002203220598399e+00 7.3073792611763206e+00 1.4963082666567347e+01 
170 1 2 1.0280000181053799e+00 -7.0656393802425583e+01 1.0000000000000000e+00 1.0981049098029101e+00 8.0690107740069212e+00 1.5175918924126391e+01 
25 1 2 1.0280000001889986e+00 -7.1917990949752607e+01 1.0000000000000000e+00 1.8624063903986277e+00 1.7475682151324452e+01 7.5029684655002873e+00 
48 1 2 1.0280000019131670e+00 -5.8148295160844327e+01 1.0000000000000000e+00 1.6068375776862740e+00 1.7627623260584752e+01 7.5236622014355534e+00 
74 1 2 1.0280000514752892e+00 7.5176952635598671e+00 1.0000000000000000e+00 5.6587395547669761e+00 1.7134244071586288e+01 6.7534851718152558e+00 
146 1 2 1.0279999752954032e+00 -9.1341232581567780e+01 1.0000000000000000e+00 5.9866369843522680e+00 1.7131619040690115e+01 6.6972686729014548e+00 
70 1 2 1.0279999752954028e+00 -6.4868129459790310e+01 1.0000000000000000e+00 5.9866369851072481e+00 1.7131619038649355e+01 6.6972686741778613e+00 
93 1 2 1.0279999805476299e+00 -5.4666724174430612e+01 1.0000000000000000e+00 3.5218459548537537e+00 1.8579505608619538e+01 6.3250653922762883e+00 
4 1 2 1.0279999805656015e+00 6.9913902184840229e+00 1.0000000000000000e+00 3.5216924862471526e+00 1.8579633496984044e+01 6.3250409810472137e+00 
53 1 2 1.0280000214787146e+00 -7.2255328237926179e+01 1.0000000000000000e+00 3.8826492283635310e+00 1.8303413635748299e+01 7.0578114860401540e+00 
113 1 2 1.0280000039280992e+00 -6.0214809925810322e+01 1.0000000000000000e+00 2.6854453074600455e+00 1.6733694045670497e+01 9.1593658374374662e+00 
125 1 2 1.0280000040403094e+00 -7.2464918843531223e+01 1.0000000000000000e+00 2.6761368211161565e+00 1.6748870211656413e+01 9.1773558798642387e+00 
57 1 2 1.0279999964293194e+00 -8.6606256697276478e+01 1.0000000000000000e+00 3.8366049705611114e+00 1.7550213802893861e+01 8.7500775483345166e+00 
20 1 2 1.0279999964293198e+00 -8.5553919140263105e+01 1.0000000000000000e+00 3.8366049705630130e+00 1.7550213802885693e+01 8.7500775483326141e+00 
12 1 2 1.0280000449767221e+00 -5.7785210486329547e+01 1.0000000000000000e+00 5.8140255171901858e+00 1.7049676860276975e+01 9.3485955397416483e+00 
72 1 2 1.0279999995270073e+00 -9.5624109829006414e+01 1.0000000000000000e+00 6.3195073107979605e+00 1.7313919571900644e+01 9.1700918775767235e+00 
177 1 2 1.0279999836713580e+00 -6.1556396651122910e+01 1.0000000000000000e+00 6.5624151628725862e+00 1.6240745840566809e+01 8.8906788965968460e+00 
150 1 2 1.0279999861006781e+00 -5.6532333054039114e+01 1.0000000000000000e+00 1.5322845656831423e+00 1.8412697837454363e+01 8.5382337777126764e+00 
132 1 2 1.0280000009224415e+00 -8.3910814387703368e+01 1.0000000000000000e+00 1.4745584046215074e+00 1.8202833989801160e+01 8.7080612760089728e+00 
134 1 2 1.0280000178762176e+00 -7.6816342488787654e+01 1.0000000000000000e+00 3.7858834470030964e+00 1.9676309382605076e+01 9.7059363308042421e+00 
110 1 2 1.0280000178963311e+00 -6.3118777564933644e+01 1.0000000000000000e+00 3.7859500651798044e+00 1.9676327818082274e+01 9.7059941484602206e+00 
3 1 2 1.0279999116499106e+00 -2.3096577301531003e+01 1.0000000000000000e+00 1.7479780126803501e+00 1.9108937749476805e+01 1.2082708618464400e+01 
114 1 2 1.0280000380460621e+00 -5.4531300214585997e+01 1.0000000000000000e+00 1.5189207582574353e+00 1.8695428741110980e+01 1.2097166699595537e+01 
9 1 2 1.0280000418090349e+00 -2.3436575009165168e+01 1.0000000000000000e+00 1.4893807026316919e+00 1.8682589561808484e+01 1.2248640672553870e+01 
157 1 2 1.0279999992472229e+00 -6.3261552448522337e+01 1.0000000000000000e+00 8.5012947768529177e+00 7.2972313786878171e+00 4.4351440598232541e+00 
82 1 2 1.0279999992479525e+00 -3.2616263062935388e+01 1.0000000000000000e+00 8.5013288871224137e+00 7.2972865848267530e+00 4.4350690168189324e+00 
38 1 2 1.0280000007518837e+00 -6.6120085438312799e+01 1.0000000000000000e+00 9.4794464015119182e+00 6.5971189329941815e+00 4.3646457517145123e+00 
131 1 2 1.0280000007518360e+00 -1.0043496383266668e+02 1.0000000000000000e+00 9.4794464945798325e+00 6.5971190699327034e+00 4.3646456829767697e+00 
89 1 2 1.0280000015299748e+00 -5.3323264983313315e+01 1.0000000000000000e+00 8.0482728640903929e+00 5.2530971206183033e+00 1.1712075200283186e+01 
180 1 2 1.0279999979748253e+00 -6.6199687237688153e+01 1.0000000000000000e+00 8.7561933509470826e+00 4.7817915494421195e+00 1.0867330773471753e+01 
174 1 2 1.0279999979670011e+00 -6.6118969873154242e+01 1.0000000000000000e+00 8.7557086454699888e+00 4.7844224913965387e+00 1.0866688056093686e+01 
169 1 2 1.0279999983714998e+00 1.6142804584908543e+01 1.0000000000000000e+00 1.2675735484048827e+01 1.8988764022776941e-01 1.2016839266362318e+01 
18 1 2 1.0279999981794588e+00 8.9537110353108069e+00 1.0000000000000000e+00 1.2539818768019300e+01 2.0624560626747779e-01 1.2146823311773492e+01 
35 1 2 1.0279999981357495e+00 -7.1492580457155157e+01 1.0000000000000000e+00 1.2637956524554411e+01 2.1553108667825402e-01 1.2341371978081625e+01 
2 1 2 1.0279999669044331e+00 -1.5403460243890357e+00 1.0000000000000000e+00 7.8025630346899364e+00 3.7533576998014246e+00 1.2470186439768039e+01 
6 1 2 1.0280000015962649e+00 -4.4327994500467163e+01 1.0000000000000000e+00 7.4555599943617681e+00 3.7763188665866712e+00 1.3248606831100297e+01 
163 1 2 1.0279999963952091e+00 2.9750459115052569e-01 1.0000000000000000e+00 8.6841924843544724e+00 4.9329341160636666e+00 1.2164582589214504e+01 
160 1 2 1.0279999936393267e+00 -3.8161138268881061e+01 1.0000000000000000e+00 7.0116897018988995e+00 1.6240262851873041e+01 1.0074863249582462e+01 
96 1 2 1.0279999936393265e+00 -7.9383663617810541e+01 1.0000000000000000e+00 7.0116897019868025e+00 1.6240262851477315e+01 1.0074863249297040e+01 
135 1 2 1.0280000000007758e+00 -7.1104416356420984e+01 1.0000000000000000e+00 1.4686581604868172e+01 4.5240421676949563e+00 9.1042779108106553e-01 
173 1 2 1.0280000000005436e+00 -9.4901566414009082e+01 1.0000000000000000e+00 1.4686581011352152e+01 4.5240421218160813e+00 9.1042769371714594e-01 
45 1 2 1.0279999661453976e+00 -9.8798562403459496e+00 1.0000000000000000e+00 1.8554322207602166e+01 7.7255366306318214e+00 5.5792204261166738e+00 
162 1 2 1.0279999664440884e+00 -7.7285619370992322e+01 1.0000000000000000e+00 1.8563145160709034e+01 7.7311609192937381e+00 5.5805491274423042e+00 
46 1 2 1.0279999938871922e+00 -6.4679509245711358e+01 1.0000000000000000e+00 1.6976139655419711e+01 3.2219441005014580e+00 6.1221297295832438e+00 
158 1 2 1.0280000131465366e+00 -6.2485235979820040e+01 1.0000000000000000e+00 1.6231701138980512e+01 3.2362939157713555e+00 6.1633943152882420e+00 
77 1 2 1.0280000131487681e+00 -4.8028403847466436e+01 1.0000000000000000e+00 1.6231736040731327e+01 3.2362577627471683e+00 6.1633346479885702e+00 
142 1 2 1.0279999513812970e+00 -1.1071049002843683e+01 1.0000000000000000e+00 1.7507208251411395e+01 2.3593841402132676e+00 7.4341544482594770e+00 
75 1 2 1.0280000083922640e+00 -8.9961992031098760e+01 1.0000000000000000e+00 1.7558143981320661e+01 2.1867165601376559e+00 7.4821940669332596e+00 
124 1 2 1.0279999233384449e+00 -7.3726409220274377e+01 1.0000000000000000e+00 1.9656579117125759e+01 3.9599054010153552e+00 7.0194913994351076e+00 
80 1 2 1.0279999847858603e+00 -8.2149060266386471e+01 1.0000000000000000e+00 1.6723996047298193e+01 5.6645685504825618e+00 6.6257307662988261e+00 
56 1 2 1.0279999854335558e+00 -5.9911487858194057e+01 1.0000000000000000e+00 1.6725515414254261e+01 5.6674584282440188e+00 6.6250083406747882e+00 
94 1 2 1.0280001913416994e+00 -9.3154296708299825e+01 1.0000000000000000e+00 1.8693319371715329e+01 4.7047788010915497e+00 7.3955221771055042e+00 
178 1 2 1.0279997615819159e+00 -8.9524146210152651e+01 1.0000000000000000e+00 1.9070530013392140e+01 4.4325701930464660e+00 7.3675671230588611e+00 
130 1 2 1.0279999804744699e+00 -8.4327498727080297e+01 1.0000000000000000e+00 1.7549416813993076e+01 6.3531781784897561e+00 6.3811545888737173e+00 
119 1 2 1.0280000655402384e+00 -9.7036840206279194e+01 1.0000000000000000e+00 1.9133244586659760e+01 6.4819094547500935e+00 6.3149773020155742e+00 
17 1 2 1.0280000626903167e+00 -6.2690783225691199e+01 1.0000000000000000e+00 1.9136981833304866e+01 6.4874211299224163e+00 6.3122869481025221e+00 
27 1 2 1.0280000508677241e+00 -8.9120310520590664e+01 1.0000000000000000e+00 1.6265913284091607e+01 8.3639547659427631e+00 7.9595853572880149e+00 
86 1 2 1.0280000508194371e+00 1.5712851516911892e+01 1.0000000000000000e+00 1.6266699895407939e+01 8.3641244497916887e+00 7.9603476312680090e+00 
116 1 2 1.0279999578165038e+00 -7.5635728383793349e+01 1.0000000000000000e+00 1.6298233449869532e+01 9.5336608610265667e+00 7.4930003939860192e+00 
31 1 2 1.0279999578165055e+00 -4.8365223473065640e+01 1.0000000000000000e+00 1.6298233449872196e+01 9.5336608610268900e+00 7.4930003939853389e+00 
144 1 2 1.0279999848655641e+00 -5.4552220624296126e+01 1.0000000000000000e+00 1.8689565604840112e+01 8.3486976441022733e+00 7.3801977426809353e+00 
65 1 2 1.0280000347289890e+00 -1.6716355659748672e+01 1.0000000000000000e+00 1.8697325912757695e+01 8.9432353875089898e+00 7.0975467979791267e+00 
67 1 2 1.0279999776660074e+00 -7.7573349170562039e+01 1.0000000000000000e+00 1.8360270958818376e+01 8.9796105177226995e+00 7.3774170666323560e+00 
151 1 2 1.0279999959133077e+00 -6.7312864638708049e+01 1.0000000000000000e+00 1.6481645434093831e+01 1.6834712729908310e+00 8.7060643088587373e+00 
112 1 2 1.0279999959133059e+00 -3.4700619220516160e+01 1.0000000000000000e+00 1.6481645433706255e+01 1.6834712770319773e+00 8.7060643088569893e+00 
87 1 2 1.0280000028695409e+00 -1.1569816897467346e+02 1.0000000000000000e+00 1.7631263544813809e+01 1.6290670670905583e+00 9.9841628652060326e+00 
172 1 2 1.0280000028734151e+00 -9.0726022802095727e+01 1.0000000000000000e+00 1.7631657474523870e+01 1.6283914118918903e+00 9.9842779269593525e+00 
78 1 2 1.0280000053410727e+00 -6.5681125989538202e+01 1.0000000000000000e+00 1.8403362868877007e+01 1.1019510577982876e+00 8.7450840613391936e+00 
42 1 2 1.0280000053413010e+00 -6.4053508502651979e+01 1.0000000000000000e+00 1.8403386103561619e+01 1.1019823205755994e+00 8.7450923264681872e+00 
22 1 2 1.0280000152712061e+00 -3.7316832394560272e+01 1.0000000000000000e+00 1.6275171180557020e+01 4.2506486167040700e+00 8.2660956385880837e+00 
69 1 2 1.0280000152712050e+00 -4.3723249566691827e+01 1.0000000000000000e+00 1.6275171178393983e+01 4.2506486179074496e+00 8.2660956366492968e+00 
120 1 2 1.0279999401640829e+00 -1.0107660319158143e+02 1.0000000000000000e+00 1.7705197664169788e+01 5.2253606882270605e+00 8.7161892900652571e+00 
95 1 2 1.0279999416077790e+00 -7.0001929266702149e+01 1.0000000000000000e+00 1.7702023520304710e+01 5.2368161647856724e+00 8.7156174697077660e+00 
23 1 2 1.0280000289854032e+00 -2.0029546494725057e+01 1.0000000000000000e+00 1.6043135344344250e+01 5.9460601322196078e+00 8.4078932262768156e+00 
71 1 2 1.0280000293086586e+00 -7.4324378151356996e+01 1.0000000000000000e+00 1.6047429145144370e+01 5.9507253361207537e+00 8.4064624880246157e+00 
13 1 2 1.0279998651683395e+00 -7.5300076486141421e+01 1.0000000000000000e+00 1.6133174971605332e+01 4.6747456276856179e+00 1.0703218088349363e+01 
40 1 2 1.0280000421007665e+00 -2.1190179396975307e+01 1.0000000000000000e+00 1.6002507557694891e+01 4.5698469852931378e+00 1.0598272433027057e+01 
1 1 2 1.0280000972139971e+00 -1.1265624105910790e+00 1.0000000000000000e+00 1.6300582543560413e+01 4.3446110860610530e+00 1.0548281260937639e+01 
115 1 2 1.0279999981586221e+00 -5.8340198831637366e+01 1.0000000000000000e+00 1.4954273788774316e+01 1.1636805858101067e+00 1.2923459463242192e+01 
33 1 2 1.0279999981588090e+00 -2.3829698611374795e+01 1.0000000000000000e+00 1.4954260273291375e+01 1.1636958480459016e+00 1.2923417371639768e+01 
143 1 2 1.0280000228680486e+00 4.4012209926580619e+00 1.0000000000000000e+00 1.7182240171855348e+01 1.5462855172661236e+00 1.2697581736531758e+01 
161 1 2 1.0279999269335762e+00 -6.8587069041640206e+01 1.0000000000000000e+00 1.7391825537096302e+01 1.6345774212573474e+00 1.3219147986752356e+01 
176 1 2 1.0279999914477747e+00 -6.7229770384241036e+01 1.0000000000000000e+00 1.9202603792759174e+01 1.6633191560092173e+00 1.2458646904966315e+01 
62 1 2 1.0279999964035347e+00 -8.5200871287884340e+01 1.0000000000000000e+00 1.9211818621595711e+01 1.6656335972163281e+00 1.2474007622610959e+01 
16 1 2 1.0280000326670500e+00 -4.1019955872417505e+01 1.0000000000000000e+00 1.7285059983153637e+01 2.0306432497126239e+00 1.2835664575261127e+01 
153 1 2 1.0280000577629032e+00 5.1902797613886289e+00 1.0000000000000000e+00 1.8756651840653518e+01 3.8940568144019605e+00 1.3783915741763071e+01 
104 1 2 1.0279999342075556e+00 -7.2347459586038838e+01 1.0000000000000000e+00 1.7609917689962892e+01 4.6076738260410970e+00 1.2453877171095680e+01 
133 1 2 1.0280000398459082e+00 -7.2476690216638644e+01 1.0000000000000000e+00 1.8323465952545668e+01 4.8310121432488025e+00 1.2018093534439625e+01 
11 1 2 1.0280000119063635e+00 -6.3499415153780689e+01 1.0000000000000000e+00 1.7779094462696285e+01 5.0383087733626901e+00 1.2606460545872183e+01 
26 1 2 1.0279999466597998e+00 4.2270036484335385e+01 1.0000000000000000e+00 1.9515362559574996e+01 4.1485643456761387e+00 1.2956246564023672e+01 
32 1 2 1.0279999466751590e+00 -8.2008616572430455e+00 1.0000000000000000e+00 1.9515360343543385e+01 4.1485481593525453e+00 1.2956238556644955e+01 
136 1 2 1.0279999966110318e+00 -1.7379958659487824e+02 1.0000000000000000e+00 1.6812890226892488e+01 2.9801523988316974e+00 1.5218777725620582e+01 
64 1 2 1.0279999985515544e+00 -4.4803563171508344e+01 1.0000000000000000e+00 1.6791016324519283e+01 3.0905645984471857e+00 1.5062876751353979e+01 
7 1 2 1.0280000054718570e+00 -8.0606789081270804e+00 1.0000000000000000e+00 1.6749989622915731e+01 3.5793739278535339e+00 1.5927904188021305e+01 
44 1 2 1.0280000103845832e+00 -4.8830240742083284e+01 1.0000000000000000e+00 1.7773795093864141e+01 4.1069038378241283e+00 1.5961919128428439e+01 
149 1 2 1.0279999887768523e+00 -6.0637998529088946e+01 1.0000000000000000e+00 1.8169485444258093e+01 4.7115691819088799e+00 1.4995212191679895e+01 
61 1 2 1.0279999887768485e+00 -5.8899886322562878e+01 1.0000000000000000e+00 1.8169485462318608e+01 4.7115691727171392e+00 1.4995212127583306e+01 
34 1 2 1.0279999926534336e+00 -1.0029195780724875e+02 1.0000000000000000e+00 1.8739173204481084e+01 8.9941146987247755e+00 1.4681123484175956e+01 
100 1 2 1.0280000489548877e+00 -5.6260831468141127e+01 1.0000000000000000e+00 1.9783079438234033e+01 8.5761205984030759e+00 1.5180022519841664e+01 
24 1 2 1.0280000560401525e+00 -8.8571155739819034e+01 1.0000000000000000e+00 1.9795544271625804e+01 8.5727582293098159e+00 1.5174675176403083e+01 
15 1 2 1.0280000000008189e+00 -8.6312448421382285e+01 1.0000000000000000e+00 1.4823331182424008e+01 5.0437335599758581e+00 1.9831943455134347e+01 
21 1 2 1.0280000000006113e+00 -8.7697131306387064e+01 1.0000000000000000e+00 1.4823331188260363e+01 5.0437335626558957e+00 1.9831943457165288e+01 
50 1 2 1.0279997784111150e+00 -5.9497212528671312e+01 1.0000000000000000e+00 1.5390574564774626e+01 1.9346995958927206e+01 4.7770658502686629e+00 
8 1 2 1.0279997784106858e+00 -7.2064036074025836e+01 1.0000000000000000e+00 1.5391560492441965e+01 1.9348059005800426e+01 4.7761727328265291e+00 
14 1 2 1.0280002215892774e+00 -9.2719913079587954e+01 1.0000000000000000e+00 1.4408706227973671e+01 1.9871360416739726e+01 4.3156730570704678e+00 
49 1 2 1.0280002215892645e+00 -4.1634717826948759e+01 1.0000000000000000e+00 1.4408705593623512e+01 1.9871361081317865e+01 4.3156751642393667e+00 
97 1 2 1.0279999987552266e+00 -8.8561257138497126e+01 1.0000000000000000e+00 1.9193597685596945e+01 1.9538747936842945e+01 1.1828624117703514e+01 
55 1 2 1.0279999987553474e+00 -8.1448326785105252e+01 1.0000000000000000e+00 1.9193594265528645e+01 1.9538744802618702e+01 1.1828628625030811e+01 
138 1 2 1.0280000034837686e+00 -4.4923885098103568e+01 1.0000000000000000e+00 1.4962479002712323e+01 1.9993553104206768e+01 1.2476347640553104e+01 
102 1 2 1.0280000034837637e+00 -4.4923995908891570e+01 1.0000000000000000e+00 1.4962478808643397e+01 1.9993553049444170e+01 1.2476347649998447e+01 
126 1 2 1.0279999979025201e+00 -4.5986514444147994e+00 1.0000000000000000e+00 1.9075039510740368e+01 1.9693498436077853e+01 1.2714855676978310e+01 
108 1 2 1.0279999591237996e+00 -5.3741153258500326e+01 1.0000000000000000e+00 1.8402028133110587e+01 1.0115959869161451e+01 1.4633468395543616e+01 
43 1 2 1.0279999591240294e+00 2.8039966119945866e+01 1.0000000000000000e+00 1.8402027916556037e+01 1.0115958302089229e+01 1.4633469064472362e+01 
137 1 2 1.0280000230285697e+00 -1.0163334160167689e+02 1.0000000000000000e+00 1.9085068471223025e+01 1.1523024283981796e+01 1.5351301214908197e+01 
127 1 2 1.0279999703122025e+00 -7.8914405587695228e+01 1.0000000000000000e+00 1.9507123951592156e+01 1.1955646210976349e+01 1.4105755108448625e+01 
84 1 2 1.0279999702980684e+00 -1.6217185674161591e+01 1.0000000000000000e+00 1.9507891896933355e+01 1.1955306374672647e+01 1.4106102868539450e+01 
101 1 2 1.0280000249612447e+00 -3.9212537501397136e+01 1.0000000000000000e+00 1.8882121309026193e+01 1.2103331567470672e+01 1.5080999942301547e+01 

Velocities

59 -1.9102712160970020e-01 -2.6379018459357756e-01 1.9360758805125516e-01
68 -1.9102835432589738e-01 -2.6379209504157691e-01 1.9360734563485968e-01
73 -1.9102918763154286e-01 -2.6378889029540975e-01 1.9360394217463947e-01
109 -1.9102918763154259e-01 -2.6378889029540248e-01 1.9360394217464419e-01
141 -1.9102722178570039e-01 -2.6378734456678915e-01 1.9360432857569373e-01
107 -1.9102998065689528e-01 -2.6378848319376785e-01 1.9360553761731150e-01
156 -1.9102720436267867e-01 -2.6378878313828497e-01 1.9361182912170560e-01
5 -1.9102404253673061e-01 -2.6378706199013369e-01 1.9360640868031698e-01
140 -1.9101860319240063e-01 -2.6378255622777352e-01 1.9360594019607283e-01
152 -1.9101998615694296e-01 -2.6378071632276895e-01 1.9359627979365757e-01
83 -1.9101995812390435e-01 -2.6378070608833754e-01 1.9359625096529454e-01
10 -1.9100710801132628e-01 -2.6377561316709364e-01 1.9358852749913710e-01
92 -1.9100712241296702e-01 -2.6377555749233889e-01 1.9358849905086800e-01
155 -1.9104675554233091e-01 -2.6381064535732363e-01 1.9363051903265502e-01
29 -1.9104675554232711e-01 -2.6381064535732207e-01 1.9363051903265077e-01
117 -1.9100157152433811e-01 -2.6377541406689364e-01 1.9359043163006862e-01
79 -1.9100671017308815e-01 -2.6377454895546293e-01 1.9359383573795377e-01
121 -1.9099765646022354e-01 -2.6376761036019336e-01 1.9358745015786549e-01
128 -1.9099740321811001e-01 -2.6376747836975134e-01 1.9358711221718827e-01
122 -1.9103467385947870e-01 -2.6380594051064798e-01 1.9362375178205271e-01
123 -1.9103467385947548e-01 -2.6380594051073514e-01 1.9362375178214269e-01
37 -1.9102862569379614e-01 -2.6379578899604478e-01 1.9363083728165895e-01
106 -1.9097787114479781e-01 -2.6374824208571035e-01 1.9357965286029616e-01
76 -1.9097778418882980e-01 -2.6374823385786805e-01 1.9357973405300341e-01
98 -1.9098232030406301e-01 -2.6376795493520044e-01 1.9358100189337099e-01
147 -1.9103302796071980e-01 -2.6379961498949078e-01 1.9362344908181525e-01
51 -1.9103302796071706e-01 -2.6379961498948007e-01 1.9362344908181950e-01
90 -1.9095709961096360e-01 -2.6376181265577503e-01 1.9362943064717481e-01
54 -1.9095707782037630e-01 -2.6376174032483130e-01 1.9362942030008062e-01
81 -1.9094454226589583e-01 -2.6373725517222230e-01 1.9359248018059444e-01
111 -1.9095466155343288e-01 -2.6374549917362700e-01 1.9359652302867328e-01
88 -1.9096212111227628e-01 -2.6376767889850972e-01 1.9362999044860763e-01
52 -1.9096212160336790e-01 -2.6376767842398252e-01 1.9362999064639846e-01
39 -1.9092743329299636e-01 -2.6373623092146137e-01 1.9358543886073218e-01
47 -1.9092743834871428e-01 -2.6373625213866436e-01 1.9358543877489698e-01
167 -1.9095851334695615e-01 -2.6376244417649419e-01 1.9362764708387969e-01
166 -1.9095851334709457e-01 -2.6376244417649286e-01 1.9362764708405353e-01
19 -1.9082647903048128e-01 -2.6365859055876378e-01 1.9352341667112355e-01
165 -1.9082645949913618e-01 -2.6365859413032272e-01 1.9352352149144755e-01
103 -1.9079842261667807e-01 -2.6363641983814468e-01 1.9350246363957366e-01
129 -1.9077528044506692e-01 -2.6362099235080710e-01 1.9348277652019008e-01
85 -1.9079816442008460e-01 -2.6362719129534723e-01 1.9348675274295668e-01