LAMMPS data file via write_data, version 30 Jul 2016, timestep = 50000000

180 atoms
2 atom types

0.0000000000000000e+00 2.0000000000000000e+01 xlo xhi
0.0000000000000000e+00 2.0000000000000000e+01 ylo yhi
0.0000000000000000e+00 2.0000000000000000e+01 zlo zhi

Masses

1 3.896
2 4.31

Atoms # meso-molecular

108 1 2 1.0279999555427577e+00 -5.3741153264184668e+01 1.0000000000000000e+00 6.0215244229165137e+00 6.5234519121910395e-01 6.9009483998206802e+00 
43 1 2 1.0279999555430155e+00 2.8039966114168177e+01 1.0000000000000000e+00 6.0215242071246182e+00 6.5234362379757993e-01 6.9009490689033157e+00 
101 1 2 1.0280000272182985e+00 -3.9212537501397136e+01 1.0000000000000000e+00 6.5012939222327990e+00 2.6396765673474212e+00 7.3487868043204125e+00 
50 1 2 1.0279997774419127e+00 -5.9497212528671312e+01 1.0000000000000000e+00 2.9611514126916121e+00 9.5005981276195328e+00 1.6861723284149036e+01 
8 1 2 1.0279997774420788e+00 -7.2064036074025836e+01 1.0000000000000000e+00 2.9621394922709614e+00 9.5016634946667597e+00 1.6860828217292472e+01 
31 1 2 1.0279999529223580e+00 -4.8365223473065640e+01 1.0000000000000000e+00 3.9425345831073129e+00 8.8650907457533096e-02 1.9744459031134809e+01 
116 1 2 1.0279999529223578e+00 -7.5635728383793349e+01 1.0000000000000000e+00 3.9425345831046545e+00 8.8650907457210340e-02 1.9744459031135499e+01 
42 1 2 1.0280000060094576e+00 -6.4053508502651979e+01 1.0000000000000000e+00 6.0474993218766055e+00 1.1657462453042461e+01 9.9659740986492573e-01 
78 1 2 1.0280000060092205e+00 -6.5681125989538202e+01 1.0000000000000000e+00 6.0474760892941948e+00 1.1657431192247008e+01 9.9658914445961233e-01 
151 1 2 1.0279999958138335e+00 -6.7312864638708049e+01 1.0000000000000000e+00 4.1256856918383580e+00 1.2238915343969035e+01 9.5759155565779175e-01 
112 1 2 1.0279999958138344e+00 -3.4700619220516160e+01 1.0000000000000000e+00 4.1256856914502311e+00 1.2238915348010298e+01 9.5759155565617138e-01 
22 1 2 1.0280000169928187e+00 -3.7316832400244614e+01 1.0000000000000000e+00 3.9185075686817679e+00 1.4805645830660577e+01 5.1801228295425050e-01 
69 1 2 1.0280000169928181e+00 -4.3723249572376169e+01 1.0000000000000000e+00 3.9185075665192337e+00 1.4805645831863817e+01 5.1801228101554131e-01 
120 1 2 1.0279999349598103e+00 -1.0107660320295011e+02 1.0000000000000000e+00 5.3486614050147594e+00 1.5780231436525769e+01 9.6846075481824123e-01 
95 1 2 1.0279999365092620e+00 -7.0001929278070833e+01 1.0000000000000000e+00 5.3454846640518037e+00 1.5791692581356962e+01 9.6788526543765430e-01 
23 1 2 1.0280000318683529e+00 -2.0029546497567228e+01 1.0000000000000000e+00 3.6865893437091808e+00 1.6500905351846839e+01 6.5977352472208861e-01 
71 1 2 1.0280000322220202e+00 -7.4324378151356996e+01 1.0000000000000000e+00 3.6908833543790940e+00 1.6505569742623074e+01 6.5834253261471443e-01 
86 1 2 1.0280000567775751e+00 1.5712851515490806e+01 1.0000000000000000e+00 3.9110654266717009e+00 1.8919105415727614e+01 2.1179016599638542e-01 
27 1 2 1.0280000568312588e+00 -8.9120310520590664e+01 1.0000000000000000e+00 3.9102792182192694e+00 1.8918935894184145e+01 2.1102826240959777e-01 
87 1 2 1.0280000028482412e+00 -1.1569816898604215e+02 1.0000000000000000e+00 5.2753740724099298e+00 1.2184520330220364e+01 2.2356319407717349e+00 
172 1 2 1.0280000028524845e+00 -9.0726022813464411e+01 1.0000000000000000e+00 5.2757679758676028e+00 1.2183844680610372e+01 2.2357469873422007e+00 
40 1 2 1.0280000478850679e+00 -2.1190179412348797e+01 1.0000000000000000e+00 3.6445699965415939e+00 1.5123975420943538e+01 2.8502919679707719e+00 
13 1 2 1.0279998442974123e+00 -7.5300076508878789e+01 1.0000000000000000e+00 3.7750300147650440e+00 1.5228939554627832e+01 2.9554157640402079e+00 
1 1 2 1.0280001141884787e+00 -1.1265624336307130e+00 1.0000000000000000e+00 3.9425319043262639e+00 1.4898871435960135e+01 2.8003287881521262e+00 
169 1 2 1.0279999971583473e+00 1.6142804584908543e+01 1.0000000000000000e+00 3.1451983627034780e-01 1.0740569425281659e+01 4.2711912042883275e+00 
18 1 2 1.0279999986486668e+00 8.9537110353108069e+00 1.0000000000000000e+00 1.7860089905803642e-01 1.0756926686668848e+01 4.4011784719100158e+00 
35 1 2 1.0280000016265467e+00 -7.1492580457155157e+01 1.0000000000000000e+00 2.7674125128614208e-01 1.0766213698145096e+01 4.5957289910209811e+00 
138 1 2 1.0280000019063988e+00 -4.4923885098103568e+01 1.0000000000000000e+00 2.6012567699255333e+00 1.0544310883425377e+01 4.7307003478072112e+00 
102 1 2 1.0280000019064051e+00 -4.4923995908891570e+01 1.0000000000000000e+00 2.6012565758608273e+00 1.0544310828658960e+01 4.7307003572515169e+00 
115 1 2 1.0280000000822391e+00 -5.8340198831637366e+01 1.0000000000000000e+00 2.5930486932982526e+00 1.1714442171198757e+01 5.1778090551138902e+00 
33 1 2 1.0280000000824354e+00 -2.3829698611374795e+01 1.0000000000000000e+00 2.5930351784604122e+00 1.1714457432944277e+01 5.1777669631423846e+00 
143 1 2 1.0280000281652599e+00 4.4012209812315621e+00 1.0000000000000000e+00 4.8209743472947242e+00 1.2097245374994191e+01 4.9519954688719006e+00 
161 1 2 1.0279999245007225e+00 -6.8587069041640206e+01 1.0000000000000000e+00 5.0304991423031797e+00 1.2185464048985278e+01 5.4736983868278868e+00 
16 1 2 1.0280000319453175e+00 -4.1019955878101847e+01 1.0000000000000000e+00 4.9237903936310348e+00 1.2581553077921027e+01 5.0900741815992800e+00 
133 1 2 1.0280000484798997e+00 -7.2476690228007328e+01 1.0000000000000000e+00 5.9628646468491064e+00 1.5383134131431285e+01 4.2719494589060858e+00 
104 1 2 1.0279999256921573e+00 -7.2347459612745993e+01 1.0000000000000000e+00 5.2492936532425345e+00 1.5159870388153813e+01 4.7075652429489692e+00 
11 1 2 1.0280000157501303e+00 -6.3499415165149372e+01 1.0000000000000000e+00 5.4185685759433655e+00 1.5590467155781685e+01 4.8602145587001573e+00 
64 1 2 1.0279999981294359e+00 -4.4803563171508344e+01 1.0000000000000000e+00 4.4300512288259375e+00 1.3642238268633745e+01 7.3167615731805817e+00 
136 1 2 1.0279999961478552e+00 -1.7379958659487824e+02 1.0000000000000000e+00 4.4519231965285355e+00 1.3531823497724456e+01 7.4726619560846332e+00 
153 1 2 1.0280000682597568e+00 5.1902797571989110e+00 1.0000000000000000e+00 6.3957607385209920e+00 1.4445962179965324e+01 6.0378617497248221e+00 
149 1 2 1.0279999864362694e+00 -6.0637998529088946e+01 1.0000000000000000e+00 5.8086154027167636e+00 1.5263317465965120e+01 7.2490316926070388e+00 
61 1 2 1.0279999864362612e+00 -5.8899886322562878e+01 1.0000000000000000e+00 5.8086154207830383e+00 1.5263317456781294e+01 7.2490316285102754e+00 
34 1 2 1.0279999920911933e+00 -1.0029195781861743e+02 1.0000000000000000e+00 6.3592490654582559e+00 1.9530530780368004e+01 6.9484031695091399e+00 
7 1 2 1.0280000065765673e+00 -8.0606789081270804e+00 1.0000000000000000e+00 4.3890520893895788e+00 1.4131059562961205e+01 8.1817421324796964e+00 
44 1 2 1.0280000116363739e+00 -4.8830240742083284e+01 1.0000000000000000e+00 5.4128414854934466e+00 1.4658584993013191e+01 8.2157156600593968e+00 
21 1 2 1.0279999999999374e+00 -8.7697131306387064e+01 1.0000000000000000e+00 2.4147744572313368e+00 1.5579721413412836e+01 1.1923364395282151e+01 
15 1 2 1.0279999999997360e+00 -8.6312448421382285e+01 1.0000000000000000e+00 2.4147744513889391e+00 1.5579721410737138e+01 1.1923364393251484e+01 
135 1 2 1.0280000000004295e+00 -7.1104416356420984e+01 1.0000000000000000e+00 2.2780248738454931e+00 1.5060030018441358e+01 1.3001848729194020e+01 
173 1 2 1.0279999999991327e+00 -9.4901566414009082e+01 1.0000000000000000e+00 2.2780242803290176e+00 1.5060029972558178e+01 1.3001848631830706e+01 
49 1 2 1.0280002225561986e+00 -4.1634717826948759e+01 1.0000000000000000e+00 1.9792835210399489e+00 1.0024964407848227e+01 1.6400331622558252e+01 
14 1 2 1.0280002225579399e+00 -9.2719913079587954e+01 1.0000000000000000e+00 1.9792841540079580e+00 1.0024963744689606e+01 1.6400329519958557e+01 
45 1 2 1.0279999633786170e+00 -9.8798562417670350e+00 1.0000000000000000e+00 6.1983555058219402e+00 1.8280242641320022e+01 1.7830965944978480e+01 
162 1 2 1.0279999636992951e+00 -7.7285619370992322e+01 1.0000000000000000e+00 6.2071815502085963e+00 1.8285867961662387e+01 1.7832295488866450e+01 
158 1 2 1.0280000146901038e+00 -6.2485235979820040e+01 1.0000000000000000e+00 3.8755685494616228e+00 1.3791743581529099e+01 1.8414936367446465e+01 
77 1 2 1.0280000146925756e+00 -4.8028403847466436e+01 1.0000000000000000e+00 3.8756034545794802e+00 1.3791707437310805e+01 1.8414876703962459e+01 
75 1 2 1.0280000085433920e+00 -8.9961992031098760e+01 1.0000000000000000e+00 5.2021399507524260e+00 1.2742129298949887e+01 1.9733717244103048e+01 
142 1 2 1.0279999456116338e+00 -1.1071049008988917e+01 1.0000000000000000e+00 5.1512386960253638e+00 1.2914804647254012e+01 1.9685639158257082e+01 
46 1 2 1.0279999935180970e+00 -6.4679509245711358e+01 1.0000000000000000e+00 4.6199797278669834e+00 1.3777402089246383e+01 1.8373631199437686e+01 
94 1 2 1.0280002168035116e+00 -9.3154296732178537e+01 1.0000000000000000e+00 6.3362974483431547e+00 1.5259381536095852e+01 1.9648121933727570e+01 
80 1 2 1.0279999829075628e+00 -8.2149060266386471e+01 1.0000000000000000e+00 4.3676305822980082e+00 1.6219414718358884e+01 1.8877659640735505e+01 
56 1 2 1.0279999836329621e+00 -5.9911487858194057e+01 1.0000000000000000e+00 4.3691509957726922e+00 1.6222304536361936e+01 1.8876938415029315e+01 
130 1 2 1.0279999790207244e+00 -8.4327498727080297e+01 1.0000000000000000e+00 5.1932846088057589e+00 1.6907956045223457e+01 1.8633099631746088e+01 
144 1 2 1.0279999824674160e+00 -5.4552220624296126e+01 1.0000000000000000e+00 6.3338155905360782e+00 1.8903497346510949e+01 1.9631977653171131e+01 
65 1 2 1.0280000377349747e+00 -1.6716355659748672e+01 1.0000000000000000e+00 6.3415617154008812e+00 1.9498030111472282e+01 1.9349281455572115e+01 
67 1 2 1.0279999758765173e+00 -7.7573349170562039e+01 1.0000000000000000e+00 6.0045738971477753e+00 1.9534512980621113e+01 1.9629145688448631e+01 
113 1 2 1.0280000042257842e+00 -6.0214809925810322e+01 1.0000000000000000e+00 1.0326974031431298e+01 7.2851659729309466e+00 1.4156289898314687e+00 
125 1 2 1.0280000043703557e+00 -7.2464918843531223e+01 1.0000000000000000e+00 1.0317665867429342e+01 7.3003416692407805e+00 1.4336181420844982e+00 
132 1 2 1.0280000016223383e+00 -8.3910814387703368e+01 1.0000000000000000e+00 9.1160022592274768e+00 8.7542484803087213e+00 9.6429814002857717e-01 
150 1 2 1.0279999836233651e+00 -5.6532333054039114e+01 1.0000000000000000e+00 9.1736776739029935e+00 8.9641428765610858e+00 7.9446803357605722e-01 
57 1 2 1.0279999967693458e+00 -8.6606256700670301e+01 1.0000000000000000e+00 1.1478106374923126e+01 8.1016840041811271e+00 1.0063708712867010e+00 
20 1 2 1.0279999967693458e+00 -8.5553919143656927e+01 1.0000000000000000e+00 1.1478106374925021e+01 8.1016840041729630e+00 1.0063708712847992e+00 
114 1 2 1.0280000397853215e+00 -5.4531300214585997e+01 1.0000000000000000e+00 9.1571742023405740e+00 9.2457637571861451e+00 4.3522275362849232e+00 
9 1 2 1.0280000436186481e+00 -2.3436575009165168e+01 1.0000000000000000e+00 9.1276376340835981e+00 9.2329448695901615e+00 4.5036557500138326e+00 
3 1 2 1.0279999090526775e+00 -2.3096577304373174e+01 1.0000000000000000e+00 9.3864146120148408e+00 9.6592105362084357e+00 4.3377307646153485e+00 
137 1 2 1.0280000250164933e+00 -1.0163334160167689e+02 1.0000000000000000e+00 6.7042459004594397e+00 2.0594749932406868e+00 7.6190293891494942e+00 
84 1 2 1.0279999676498031e+00 -1.6217185674161591e+01 1.0000000000000000e+00 7.1270890540609297e+00 2.4917600996542069e+00 6.3738118283584546e+00 
127 1 2 1.0279999676653704e+00 -7.8914405587695228e+01 1.0000000000000000e+00 7.1263208395425863e+00 2.4921000351560156e+00 6.3734639829041644e+00 
74 1 2 1.0280000608271000e+00 7.5176952621085560e+00 1.0000000000000000e+00 1.3300589053902272e+01 7.6863710738418121e+00 1.9009944753137471e+01 
25 1 2 1.0279999998421538e+00 -7.1917990949752607e+01 1.0000000000000000e+00 9.5038816974944460e+00 8.0271029915245329e+00 1.9759199489289649e+01 
48 1 2 1.0280000020410216e+00 -5.8148295160844327e+01 1.0000000000000000e+00 9.2483141962216102e+00 8.1790472672518959e+00 1.9779890688296796e+01 
53 1 2 1.0280000245628658e+00 -7.2255328237926179e+01 1.0000000000000000e+00 1.1523990224697652e+01 8.8548246233088381e+00 1.9314038892706325e+01 
93 1 2 1.0279999777437128e+00 -5.4666724174430612e+01 1.0000000000000000e+00 1.1163101830027630e+01 9.1308613014100679e+00 1.8581200422345287e+01 
4 1 2 1.0279999777637532e+00 6.9913902169902036e+00 1.0000000000000000e+00 1.1162948321871488e+01 9.1309892255987517e+00 1.8581176019228021e+01 
79 1 2 1.0279999529903028e+00 -7.3255349056294492e+01 1.0000000000000000e+00 1.0830812859547144e+01 1.0673501682524378e+01 7.1633744098660368e-01 
134 1 2 1.0280000181278701e+00 -7.6816342511525022e+01 1.0000000000000000e+00 1.1425902718684430e+01 1.0227089449740348e+01 1.9624299817256816e+00 
110 1 2 1.0280000181506270e+00 -6.3118777585836753e+01 1.0000000000000000e+00 1.1425969317218847e+01 1.0227107908512028e+01 1.9624877679835873e+00 
128 1 2 1.0280000090784305e+00 -9.3269141016999470e+01 1.0000000000000000e+00 1.2957315708781818e+01 1.1300788066905307e+01 1.8295977196077216e+00 
121 1 2 1.0280000122421014e+00 -5.8487819458614304e+01 1.0000000000000000e+00 1.2985166416887905e+01 1.1247268244948755e+01 1.8088569802993533e+00 
117 1 2 1.0279999359652174e+00 -5.0193178344764942e+00 1.0000000000000000e+00 1.1700484099785472e+01 1.1554621998248850e+01 6.4489051803593322e-01 
10 1 2 1.0280000368506281e+00 -6.2399611257270045e+01 1.0000000000000000e+00 1.3240993367730029e+01 1.0666696549392322e+01 1.9257856297077189e-01 
92 1 2 1.0280000366575943e+00 -4.9378151026932763e+01 1.0000000000000000e+00 1.3243222427694967e+01 1.0674031244778497e+01 1.8676845504213679e-01 
122 1 2 1.0279999399542750e+00 -1.1441606559870171e+02 1.0000000000000000e+00 8.7087706084581402e+00 1.2918316276808770e+01 6.1664402360997550e-01 
123 1 2 1.0279999399542794e+00 -8.8408678070908806e+01 1.0000000000000000e+00 8.7087706070160973e+00 1.2918316274945695e+01 6.1664401701973681e-01 
37 1 2 1.0280002126758407e+00 -8.2360265005337467e+00 1.0000000000000000e+00 8.3705040350285707e+00 1.3910345178183755e+01 1.9049842790103770e+00 
98 1 2 1.0279997704320221e+00 -6.9398897100427462e+01 1.0000000000000000e+00 1.2146527621023370e+01 1.3104167261181461e+01 1.5153797137910048e+00 
51 1 2 1.0279999482665392e+00 -7.0901017852656295e+01 1.0000000000000000e+00 8.6611274915275427e+00 1.4708664510474737e+01 1.4346189390075423e+00 
147 1 2 1.0279999482665392e+00 1.7994946138245883e+01 1.0000000000000000e+00 8.6611274915615848e+00 1.4708664510463818e+01 1.4346189390202269e+00 
54 1 2 1.0279999271461773e+00 -5.4712100655670632e+01 1.0000000000000000e+00 8.4856817530275670e+00 1.1664065484352715e+01 3.2164807905341726e+00 
90 1 2 1.0279999276287137e+00 -7.1163796000704934e+01 1.0000000000000000e+00 8.4873399959736702e+00 1.1668366204706711e+01 3.2126286531202135e+00 
81 1 2 1.0279999900847909e+00 -7.0582601556185168e+01 1.0000000000000000e+00 1.0752285441109670e+01 1.1451134768151810e+01 3.4193713682015816e+00 
111 1 2 1.0280000570084298e+00 -3.2958401369331249e+01 1.0000000000000000e+00 1.0465335637878789e+01 1.1676757722352249e+01 3.0147819710290946e+00 
88 1 2 1.0280000605424262e+00 -3.4781937047877811e+01 1.0000000000000000e+00 8.4273034083438656e+00 1.3111062743230139e+01 3.6832096773246943e+00 
52 1 2 1.0280000605570894e+00 -3.3321071340348624e+01 1.0000000000000000e+00 8.4272775905447173e+00 1.3111062929008906e+01 3.6832055312890315e+00 
106 1 2 1.0280002072108656e+00 3.6583047046083346e+00 1.0000000000000000e+00 1.1805209368616655e+01 1.3250899888544543e+01 2.0364170140647428e+00 
76 1 2 1.0280002076175205e+00 -6.2385121290476953e+01 1.0000000000000000e+00 1.1807242312543176e+01 1.3250675499196658e+01 2.0381127071264205e+00 
97 1 2 1.0279999992794719e+00 -8.8561257138497126e+01 1.0000000000000000e+00 6.8320261960748061e+00 1.0089236963045959e+01 4.0834878793885778e+00 
55 1 2 1.0279999992794944e+00 -8.1448326785105252e+01 1.0000000000000000e+00 6.8320227764896675e+00 1.0089233829200083e+01 4.0834923866423205e+00 
126 1 2 1.0279999962008033e+00 -4.5986514451253422e+00 1.0000000000000000e+00 6.7135163179011839e+00 1.0244030331344387e+01 4.9696968911042818e+00 
167 1 2 1.0280000197250048e+00 -6.4958200159883361e+01 1.0000000000000000e+00 8.1811781844538825e+00 1.1067039898650728e+01 5.2332098694032378e+00 
166 1 2 1.0280000197250005e+00 -1.1049304599216964e+02 1.0000000000000000e+00 8.1811781575248705e+00 1.1067039950643361e+01 5.2332098773447937e+00 
103 1 2 1.0279999197793128e+00 -7.8376942367028647e+01 1.0000000000000000e+00 1.2250258133822872e+01 1.1115956646266405e+01 5.9776630894768967e+00 
165 1 2 1.0280000026652760e+00 3.1191755386695635e-01 1.0000000000000000e+00 1.1812452857648681e+01 1.1572688888488511e+01 5.2641436842184710e+00 
19 1 2 1.0280000092385915e+00 -5.9000642730007108e+01 1.0000000000000000e+00 1.1814646208759841e+01 1.1567268645701764e+01 5.2641107662870370e+00 
176 1 2 1.0279999940430911e+00 -6.7229770384241036e+01 1.0000000000000000e+00 6.8412033772618246e+00 1.2214071268432610e+01 4.7133134738176965e+00 
62 1 2 1.0279999987835426e+00 -8.5200871287884340e+01 1.0000000000000000e+00 6.8504206920006512e+00 1.2216378998370722e+01 4.7286744371536251e+00 
47 1 2 1.0279999305270053e+00 -5.9637716743231692e+01 1.0000000000000000e+00 1.0515227265036341e+01 1.2677506748450524e+01 4.1029698176943779e+00 
39 1 2 1.0279999308753744e+00 -7.1341181932064899e+01 1.0000000000000000e+00 1.0515569628937845e+01 1.2677361467329446e+01 4.1031900976884783e+00 
32 1 2 1.0279999336602779e+00 -8.2008617320043502e+00 1.0000000000000000e+00 7.1546847025395603e+00 1.4700263163294213e+01 5.2103140598379571e+00 
26 1 2 1.0279999336420096e+00 4.2270036409421394e+01 1.0000000000000000e+00 7.1546869518037042e+00 1.4700279354180486e+01 5.2103220709597062e+00 
168 1 2 1.0279999474326462e+00 -8.8689410736583181e+00 1.0000000000000000e+00 1.0206043379642720e+01 1.5374255259899078e+01 4.6210563740750219e+00 
145 1 2 1.0279999474326467e+00 -6.9164285746062589e+01 1.0000000000000000e+00 1.0206043379780029e+01 1.5374255259951969e+01 4.6210563739262085e+00 
171 1 2 1.0279999660997743e+00 -5.8884115609157305e+01 1.0000000000000000e+00 8.5508693101176387e+00 1.7848974280894847e+01 5.6328273339297317e+00 
105 1 2 1.0279999660997752e+00 -7.2645230763504927e+01 1.0000000000000000e+00 8.5508693101186211e+00 1.7848974280895984e+01 5.6328273339298569e+00 
60 1 2 1.0279999958983874e+00 -1.0843398091861415e+02 1.0000000000000000e+00 9.3737698001787564e+00 1.6244323643280861e+01 5.4513302707442257e+00 
139 1 2 1.0280000557417155e+00 -5.2071332238806860e+01 1.0000000000000000e+00 1.0789826882889516e+01 1.6698847575686990e+01 4.9538077766473547e+00 
175 1 2 1.0280000557417137e+00 -5.2074376752356642e+01 1.0000000000000000e+00 1.0789826882888789e+01 1.6698847575687548e+01 4.9538077766470678e+00 
154 1 2 1.0279998337259542e+00 -5.8398942874725222e+01 1.0000000000000000e+00 1.2613975330483951e+01 1.3338768786429123e+01 6.6759378171032999e+00 
179 1 2 1.0279998338206697e+00 -5.0138917032719306e+01 1.0000000000000000e+00 1.2614098505385030e+01 1.3338595648207985e+01 6.6761208023840606e+00 
41 1 2 1.0280000896992878e+00 -1.0227483378153919e+02 1.0000000000000000e+00 1.2285209143110384e+01 1.4811017284027367e+01 7.1543016091837837e+00 
63 1 2 1.0279999979842318e+00 -4.7123397590234475e+01 1.0000000000000000e+00 8.6657057071239212e+00 1.6927310180838951e+01 6.3966998058478648e+00 
159 1 2 1.0280000534583609e+00 -3.9242020305380770e+01 1.0000000000000000e+00 9.7216130199362212e+00 1.7846097600112788e+01 7.2290177394994517e+00 
28 1 2 1.0280000405757290e+00 -8.7736259051115454e+01 1.0000000000000000e+00 9.6897612367896482e+00 1.7870700116788189e+01 7.2679874715037469e+00 
30 1 2 1.0279998171616074e+00 5.1931719066722630e+00 1.0000000000000000e+00 1.1417567420352711e+01 1.6063705099601087e+01 6.9517297297456988e+00 
118 1 2 1.0280001015961713e+00 -6.3749131279712579e+01 1.0000000000000000e+00 1.1348163197426205e+01 1.6293968532001113e+01 7.6606150859656053e+00 
58 1 2 1.0280000964599103e+00 -9.8251432742848266e+01 1.0000000000000000e+00 1.1360721997316215e+01 1.6288467255590728e+01 7.6645029369735580e+00 
24 1 2 1.0280000613237597e+00 -8.8571155762556401e+01 1.0000000000000000e+00 7.4159330169146074e+00 1.9109810511536303e+01 7.4414948007609309e+00 
100 1 2 1.0280000535613492e+00 -5.6260831486873769e+01 1.0000000000000000e+00 7.4034697397049438e+00 1.9113164018539283e+01 7.4468494884883025e+00 
170 1 2 1.0280000194522916e+00 -7.0656393825162951e+01 1.0000000000000000e+00 8.7190249302625080e+00 1.8607038152205053e+01 7.4422098918403874e+00 
109 1 2 1.0280000040470743e+00 -6.3489464388011541e+01 1.0000000000000000e+00 1.0426477460845490e+01 1.0837699129290785e+01 1.6974941358492412e+01 
73 1 2 1.0280000040470765e+00 -6.3490477259205960e+01 1.0000000000000000e+00 1.0426477460845895e+01 1.0837699129289815e+01 1.6974941358493933e+01 
141 1 2 1.0280000058556484e+00 -7.6082089572775743e+01 1.0000000000000000e+00 1.1029546460194098e+01 1.1825952208269818e+01 1.7716409137059365e+01 
59 1 2 1.0279999739984864e+00 -7.1758374617675116e+01 1.0000000000000000e+00 9.1355951581568888e+00 1.2021383557031049e+01 1.7875727877991537e+01 
68 1 2 1.0279999825041015e+00 -7.8547029069013035e+01 1.0000000000000000e+00 9.2805687911187107e+00 1.2283181465177709e+01 1.7961659902903218e+01 
107 1 2 1.0280000049219822e+00 -4.8601009062508737e+01 1.0000000000000000e+00 1.0464787915269405e+01 1.2216407714497061e+01 1.7023288728147154e+01 
5 1 2 1.0280001344259018e+00 -3.9814682787098107e+01 1.0000000000000000e+00 9.8143144170000323e+00 1.0825188322545495e+01 1.9409222919256212e+01 
140 1 2 1.0279999214404918e+00 -8.4687253759244825e+01 1.0000000000000000e+00 9.8449461331227148e+00 1.0841771834834145e+01 1.9841257517575340e+01 
156 1 2 1.0279999718122415e+00 -5.1906407081465616e+01 1.0000000000000000e+00 9.0712132184144103e+00 1.1709774704884778e+01 1.9312434327407420e+01 
152 1 2 1.0279999781043367e+00 -7.7393550754805204e+01 1.0000000000000000e+00 1.2163003485765772e+01 1.0863061123840236e+01 1.8913683093813365e+01 
83 1 2 1.0279999790379311e+00 -6.2051520660506220e+01 1.0000000000000000e+00 1.2162290196879354e+01 1.0866112172262216e+01 1.8915194699522061e+01 
124 1 2 1.0279999197104737e+00 -7.3726409267453263e+01 1.0000000000000000e+00 7.2994704201512430e+00 1.4513262279689277e+01 1.9272840434395597e+01 
178 1 2 1.0279997330169190e+00 -8.9524146249569938e+01 1.0000000000000000e+00 6.7133725393837400e+00 1.4986694503550222e+01 1.9620519538806825e+01 
155 1 2 1.0280001281594280e+00 -4.6929489365608426e+00 1.0000000000000000e+00 8.6276970660416481e+00 1.4181733067405526e+01 1.9389002853924215e+01 
29 1 2 1.0280001281594264e+00 1.4475210007504312e+01 1.0000000000000000e+00 8.6276970660410779e+00 1.4181733067405276e+01 1.9389002853923696e+01 
119 1 2 1.0280000714385098e+00 -9.7036840206279194e+01 1.0000000000000000e+00 6.7768298214623446e+00 1.7036678599536209e+01 1.8566965578659694e+01 
17 1 2 1.0280000683318491e+00 -6.2690783231375541e+01 1.0000000000000000e+00 6.7805715315378130e+00 1.7042185276890162e+01 1.8564276032814764e+01 
177 1 2 1.0279999809665241e+00 -6.1556396651122910e+01 1.0000000000000000e+00 1.4204448322884275e+01 6.7929307078289725e+00 1.1470458482236847e+00 
12 1 2 1.0280000522625348e+00 -5.7785210486329547e+01 1.0000000000000000e+00 1.3456154833116633e+01 7.6017569549985895e+00 1.6049620718091049e+00 
72 1 2 1.0279999993404656e+00 -9.5624109829006414e+01 1.0000000000000000e+00 1.3961516953859261e+01 7.8660789516011400e+00 1.4265040923204879e+00 
96 1 2 1.0279999927919858e+00 -7.9383663617810541e+01 1.0000000000000000e+00 1.4653763179637254e+01 6.7924916963790967e+00 2.3312967311903789e+00 
160 1 2 1.0279999927919852e+00 -3.8161138268881061e+01 1.0000000000000000e+00 1.4653763179549347e+01 6.7924916967748823e+00 2.3312967314758106e+00 
146 1 2 1.0279999707580265e+00 -9.1341232581567780e+01 1.0000000000000000e+00 1.3628477701143527e+01 7.6837525688427766e+00 1.8953698244848518e+01 
70 1 2 1.0279999707580267e+00 -6.4868129459790310e+01 1.0000000000000000e+00 1.3628477701899001e+01 7.6837525668016919e+00 1.8953698246124915e+01 
180 1 2 1.0279999979108536e+00 -6.6199687237688153e+01 1.0000000000000000e+00 1.6382779457313177e+01 1.5325275256195408e+01 3.1307763498263110e+00 
174 1 2 1.0279999979014367e+00 -6.6118969873154242e+01 1.0000000000000000e+00 1.6382294690325669e+01 1.5327906259394158e+01 3.1301336382528322e+00 
89 1 2 1.0280000017750464e+00 -5.3323264983313315e+01 1.0000000000000000e+00 1.5674891456693716e+01 1.5796621217834096e+01 3.9755276896798888e+00 
91 1 2 1.0279999751540292e+00 -8.8573248118744132e+01 1.0000000000000000e+00 1.3940207555746239e+01 1.4267251433198240e+01 4.9613856632178761e+00 
99 1 2 1.0279999751540629e+00 -3.7900630526594519e+01 1.0000000000000000e+00 1.3940207900184047e+01 1.4267251152955005e+01 4.9613853048406451e+00 
6 1 2 1.0280000007341421e+00 -4.4327994500467163e+01 1.0000000000000000e+00 1.5082374302053294e+01 1.4319903353787199e+01 5.5121297810457364e+00 
2 1 2 1.0279999635273995e+00 -1.5403460255627228e+00 1.0000000000000000e+00 1.5429399189128375e+01 1.4296802915632906e+01 4.7336192429312778e+00 
163 1 2 1.0279999960162516e+00 2.9750459077594438e-01 1.0000000000000000e+00 1.6310845630501859e+01 1.5476460314941892e+01 4.4280642508905679e+00 
66 1 2 1.0279998969249327e+00 -9.0457304735689092e+01 1.0000000000000000e+00 1.3930999388878590e+01 1.1050022378445087e+01 6.1676131922632651e+00 
85 1 2 1.0279998974244460e+00 -4.8463475392065575e+01 1.0000000000000000e+00 1.3908040564781182e+01 1.1030928465330966e+01 6.2098164977987675e+00 
129 1 2 1.0280001550794680e+00 3.4039250731417660e+01 1.0000000000000000e+00 1.3791362315057734e+01 1.1862308777952036e+01 6.2196332767695939e+00 
36 1 2 1.0280000000855973e+00 -2.4608201218006208e+01 1.0000000000000000e+00 1.4150988624521476e+01 1.4012899700770852e+01 7.0433014511560126e+00 
148 1 2 1.0280000549600075e+00 -5.7659768423803634e+01 1.0000000000000000e+00 1.3498117320275110e+01 1.5052588999101179e+01 6.7244445011057143e+00 
164 1 2 1.0280000387112496e+00 -6.0056356778396676e+01 1.0000000000000000e+00 1.3666956208137353e+01 1.4426218294008457e+01 7.5885159408701952e+00 
38 1 2 1.0280000007531467e+00 -6.6120085438312799e+01 1.0000000000000000e+00 1.6565191592546409e+01 1.7137219971447433e+01 1.6374077659732812e+01 
131 1 2 1.0280000007520789e+00 -1.0043496383266668e+02 1.0000000000000000e+00 1.6565191685610543e+01 1.7137220108376674e+01 1.6374077590994663e+01 
82 1 2 1.0279999992479920e+00 -3.2616263062935388e+01 1.0000000000000000e+00 1.5587074078251264e+01 1.7837387623441010e+01 1.6444500924524583e+01 
157 1 2 1.0279999992486477e+00 -6.3261552448522337e+01 1.0000000000000000e+00 1.5587039967779443e+01 1.7837332416956940e+01 1.6444575968095201e+01 

Velocities

108 -1.9047299060381692e-01 -2.6339952877418726e-01 1.9330533845641282e-01
43 -1.9047299062373840e-01 -2.6339952876507972e-01 1.9330533845239461e-01
101 -1.9046451868050679e-01 -2.6339848336247262e-01 1.9329734241695642e-01
50 -1.8926441823389067e-01 -2.5384005027559337e-01 1.9788356107467925e-01
8 -1.8926447222123846e-01 -2.5384010846316418e-01 1.9788360996062371e-01
31 -1.9111422658219746e-01 -2.6388011231350006e-01 1.9371967564837819e-01
116 -1.9111422658219734e-01 -2.6388011231350067e-01 1.9371967564837875e-01
42 -1.9110930010582841e-01 -2.6389311231627310e-01 1.9371841430181119e-01
78 -1.9110930016068320e-01 -2.6389311237036100e-01 1.9371841430977216e-01
151 -1.9110738702933136e-01 -2.6389216543942662e-01 1.9371782347632949e-01
112 -1.9110738702932012e-01 -2.6389216543943050e-01 1.9371782347632577e-01
22 -1.9108890862655675e-01 -2.6388028606020647e-01 1.9370746952652204e-01
69 -1.9108890862656627e-01 -2.6388028606019664e-01 1.9370746952651907e-01
120 -1.9109228045718207e-01 -2.6387693505559706e-01 1.9369820844290442e-01
95 -1.9109221351796113e-01 -2.6387708258138015e-01 1.9369830413873920e-01
23 -1.9109203121364920e-01 -2.6387626316663199e-01 1.9370844278728835e-01
71 -1.9109203699801625e-01 -2.6387624206424465e-01 1.9370844953240832e-01
86 -1.9111593468742039e-01 -2.6387988259289979e-01 1.9372010023609637e-01
27 -1.9111594532564333e-01 -2.6387988687380803e-01 1.9372009045372618e-01
87 -1.9110924007971669e-01 -2.6389243023881298e-01 1.9371935279323127e-01
172 -1.9110923940691540e-01 -2.6389243035789228e-01 1.9371935318309491e-01
40 -1.9105478225553063e-01 -2.6385709089566967e-01 1.9370471482488300e-01
13 -1.9104922968220750e-01 -2.6385885842864726e-01 1.9369994687366712e-01
1 -1.9105175081923073e-01 -2.6386068216015229e-01 1.9370397835482345e-01
169 -1.9096952103040402e-01 -2.6376593733637088e-01 1.9364105269142112e-01
18 -1.9096948787026360e-01 -2.6376591664186400e-01 1.9364095506849088e-01
35 -1.9096957312024582e-01 -2.6376595845419476e-01 1.9364097948371350e-01
138 -1.9096951112073429e-01 -2.6376801527830662e-01 1.9364143214241589e-01
102 -1.9096951112079483e-01 -2.6376801527819077e-01 1.9364143214242147e-01
115 -1.9096946374035934e-01 -2.6376813937273430e-01 1.9364164229513689e-01
33 -1.9096946375858515e-01 -2.6376813935474130e-01 1.9364164229144898e-01
143 -1.9096840383404359e-01 -2.6377378728665546e-01 1.9364100402626933e-01
161 -1.9096673145273141e-01 -2.6377187786201822e-01 1.9363768384030758e-01
16 -1.9096816607617240e-01 -2.6377246613281508e-01 1.9364122982594231e-01
133 -1.9098339379247498e-01 -2.6380371332826663e-01 1.9365553273191910e-01
104 -1.9098294886595543e-01 -2.6380574824558528e-01 1.9366013459487755e-01
11 -1.9098555420459409e-01 -2.6380462055429504e-01 1.9365839209492688e-01
64 -1.9097398640572971e-01 -2.6379169012139847e-01 1.9365489455700127e-01
136 -1.9097392282520773e-01 -2.6379161791051686e-01 1.9365490285891496e-01
153 -1.9097584402243176e-01 -2.6379800787899294e-01 1.9365319696090960e-01
149 -1.9097639920290740e-01 -2.6379371695287840e-01 1.9365659616152595e-01
61 -1.9097639920308615e-01 -2.6379371695315629e-01 1.9365659616152886e-01