LAMMPS data file via write_data, version 30 Jul 2016, timestep = 1000000

2080 atoms
8 atom types

0.0000000000000000e+00 4.0000000000000000e+01 xlo xhi
0.0000000000000000e+00 4.0000000000000000e+01 ylo yhi
0.0000000000000000e+00 1.0000000000000000e+02 zlo zhi

Masses

1 3.896
2 40.306
3 20.064
4 8.378
5 8.378
6 8.378
7 8.378
8 8.378

Atoms # meso-molecular

1 2 4 2.2559723595316457e+00 9.8852571854389738e+05 1.0000000000000000e+00 0.0000000000000000e+00 0.0000000000000000e+00 2.5000000000000000e+00 
2 2 4 2.2559723595316457e+00 1.0019348916704303e+06 1.0000000000000000e+00 0.0000000000000000e+00 2.0000000000000000e+00 2.5000000000000000e+00 
21 2 4 2.2559723595316457e+00 7.6320150204818859e+05 1.0000000000000000e+00 2.0000000000000000e+00 0.0000000000000000e+00 2.5000000000000000e+00 
22 2 4 2.2559723595316457e+00 7.4296463290627301e+05 1.0000000000000000e+00 2.0000000000000000e+00 2.0000000000000000e+00 2.5000000000000000e+00 
41 2 4 2.2559723595316457e+00 5.2705386308028642e+05 1.0000000000000000e+00 4.0000000000000000e+00 0.0000000000000000e+00 2.5000000000000000e+00 
42 2 4 2.2559723595316457e+00 7.4903206380856433e+05 1.0000000000000000e+00 4.0000000000000000e+00 2.0000000000000000e+00 2.5000000000000000e+00 
61 2 4 2.2559723595316457e+00 4.7723878935809457e+05 1.0000000000000000e+00 6.0000000000000000e+00 0.0000000000000000e+00 2.5000000000000000e+00 
62 2 4 2.2559723595316457e+00 6.6765700470874039e+05 1.0000000000000000e+00 6.0000000000000000e+00 2.0000000000000000e+00 2.5000000000000000e+00 
81 2 4 2.2559723595316457e+00 5.0693626880997739e+05 1.0000000000000000e+00 8.0000000000000000e+00 0.0000000000000000e+00 2.5000000000000000e+00 
82 2 4 2.2559723595316457e+00 7.2525481460371381e+05 1.0000000000000000e+00 8.0000000000000000e+00 2.0000000000000000e+00 2.5000000000000000e+00 
101 2 4 2.2559723595316457e+00 5.0747890710983507e+05 1.0000000000000000e+00 1.0000000000000000e+01 0.0000000000000000e+00 2.5000000000000000e+00 
102 2 4 2.2559723604820996e+00 8.1526750412764749e+05 1.0000000000000000e+00 1.0000000000000000e+01 2.0000000000000000e+00 2.5000000000000000e+00 
121 2 4 2.2559723595316457e+00 9.1558546979569294e+05 1.0000000000000000e+00 1.2000000000000000e+01 0.0000000000000000e+00 2.5000000000000000e+00 
122 2 4 2.2559723595316457e+00 9.2424283319774061e+05 1.0000000000000000e+00 1.2000000000000000e+01 2.0000000000000000e+00 2.5000000000000000e+00 
141 2 4 2.2559723595316457e+00 9.2559095724019082e+05 1.0000000000000000e+00 1.4000000000000000e+01 0.0000000000000000e+00 2.5000000000000000e+00 
142 2 4 2.2559723595316457e+00 9.8439507152092038e+05 1.0000000000000000e+00 1.4000000000000000e+01 2.0000000000000000e+00 2.5000000000000000e+00 
161 2 4 2.2559723595316457e+00 7.2868826858285489e+05 1.0000000000000000e+00 1.6000000000000000e+01 0.0000000000000000e+00 2.5000000000000000e+00 
162 2 4 2.2559723595316457e+00 8.6829037811133056e+05 1.0000000000000000e+00 1.6000000000000000e+01 2.0000000000000000e+00 2.5000000000000000e+00 
181 2 4 2.2559723595316457e+00 6.3079990366167412e+05 1.0000000000000000e+00 1.8000000000000000e+01 0.0000000000000000e+00 2.5000000000000000e+00 
182 2 4 2.2559723595316457e+00 8.5515484812061256e+05 1.0000000000000000e+00 1.8000000000000000e+01 2.0000000000000000e+00 2.5000000000000000e+00 
3 2 4 2.2559723595316457e+00 9.6608895869173575e+05 1.0000000000000000e+00 0.0000000000000000e+00 4.0000000000000000e+00 2.5000000000000000e+00 
4 2 4 2.2559723619397976e+00 7.4370112170810334e+05 1.0000000000000000e+00 0.0000000000000000e+00 6.0000000000000000e+00 2.5000000000000000e+00 
23 2 4 2.2559723595316457e+00 8.0097437444744818e+05 1.0000000000000000e+00 2.0000000000000000e+00 4.0000000000000000e+00 2.5000000000000000e+00 
24 2 4 2.2559723595316457e+00 7.4328105533278105e+05 1.0000000000000000e+00 2.0000000000000000e+00 6.0000000000000000e+00 2.5000000000000000e+00 
43 2 4 2.2559723595316457e+00 7.5010241915743728e+05 1.0000000000000000e+00 4.0000000000000000e+00 4.0000000000000000e+00 2.5000000000000000e+00 
44 2 4 2.2559723595316457e+00 7.3895848338288674e+05 1.0000000000000000e+00 4.0000000000000000e+00 6.0000000000000000e+00 2.5000000000000000e+00 
63 2 4 2.2559723595316457e+00 8.1172355602344032e+05 1.0000000000000000e+00 6.0000000000000000e+00 4.0000000000000000e+00 2.5000000000000000e+00 
64 2 4 2.2559723595316457e+00 8.0603846913432027e+05 1.0000000000000000e+00 6.0000000000000000e+00 6.0000000000000000e+00 2.5000000000000000e+00 
83 2 4 2.2559723595316457e+00 7.9270662527096504e+05 1.0000000000000000e+00 8.0000000000000000e+00 4.0000000000000000e+00 2.5000000000000000e+00 
84 2 4 2.2559723595316457e+00 8.2410932677003252e+05 1.0000000000000000e+00 8.0000000000000000e+00 6.0000000000000000e+00 2.5000000000000000e+00 
103 2 4 2.2559723595316457e+00 8.9536656223859359e+05 1.0000000000000000e+00 1.0000000000000000e+01 4.0000000000000000e+00 2.5000000000000000e+00 
104 2 4 2.2559723595316457e+00 8.8025378612469207e+05 1.0000000000000000e+00 1.0000000000000000e+01 6.0000000000000000e+00 2.5000000000000000e+00 
123 2 4 2.2559723595316457e+00 8.9941023836544901e+05 1.0000000000000000e+00 1.2000000000000000e+01 4.0000000000000000e+00 2.5000000000000000e+00 
124 2 4 2.2559723595316457e+00 9.0679067391723278e+05 1.0000000000000000e+00 1.2000000000000000e+01 6.0000000000000000e+00 2.5000000000000000e+00 
143 2 4 2.2559723595316457e+00 9.0599393744845595e+05 1.0000000000000000e+00 1.4000000000000000e+01 4.0000000000000000e+00 2.5000000000000000e+00 
144 2 4 2.2559723595316457e+00 8.7854662639842380e+05 1.0000000000000000e+00 1.4000000000000000e+01 6.0000000000000000e+00 2.5000000000000000e+00 
163 2 4 2.2559723595316457e+00 8.5286225539592351e+05 1.0000000000000000e+00 1.6000000000000000e+01 4.0000000000000000e+00 2.5000000000000000e+00 
164 2 4 2.2559723595316457e+00 9.2258061933884560e+05 1.0000000000000000e+00 1.6000000000000000e+01 6.0000000000000000e+00 2.5000000000000000e+00 
183 2 4 2.2559723595316457e+00 8.9444145812188182e+05 1.0000000000000000e+00 1.8000000000000000e+01 4.0000000000000000e+00 2.5000000000000000e+00 
184 2 4 2.2559723595316457e+00 9.1942979726634431e+05 1.0000000000000000e+00 1.8000000000000000e+01 6.0000000000000000e+00 2.5000000000000000e+00 
5 2 4 2.2559723595316457e+00 6.3316083559892932e+05 1.0000000000000000e+00 0.0000000000000000e+00 8.0000000000000000e+00 2.5000000000000000e+00 
6 2 4 2.2559723595316457e+00 9.0909031760155619e+05 1.0000000000000000e+00 0.0000000000000000e+00 1.0000000000000000e+01 2.5000000000000000e+00 
25 2 4 2.2559723595316457e+00 8.1510603104253975e+05 1.0000000000000000e+00 2.0000000000000000e+00 8.0000000000000000e+00 2.5000000000000000e+00 
26 2 4 2.2559723595316457e+00 8.5533669150280161e+05 1.0000000000000000e+00 2.0000000000000000e+00 1.0000000000000000e+01 2.5000000000000000e+00 
45 2 4 2.2559723595316457e+00 8.5227779265024420e+05 1.0000000000000000e+00 4.0000000000000000e+00 8.0000000000000000e+00 2.5000000000000000e+00 
46 2 4 2.2559723595316457e+00 8.9039544625019119e+05 1.0000000000000000e+00 4.0000000000000000e+00 1.0000000000000000e+01 2.5000000000000000e+00 
65 2 4 2.2559723595316457e+00 8.6119717826791340e+05 1.0000000000000000e+00 6.0000000000000000e+00 8.0000000000000000e+00 2.5000000000000000e+00 
66 2 4 2.2559723595316457e+00 8.5121015639109677e+05 1.0000000000000000e+00 6.0000000000000000e+00 1.0000000000000000e+01 2.5000000000000000e+00 
85 2 4 2.2559723595316457e+00 8.9807238563502766e+05 1.0000000000000000e+00 8.0000000000000000e+00 8.0000000000000000e+00 2.5000000000000000e+00 
86 2 4 2.2559723595316457e+00 9.5398639200230781e+05 1.0000000000000000e+00 8.0000000000000000e+00 1.0000000000000000e+01 2.5000000000000000e+00 
105 2 4 2.2559723595316457e+00 8.8735987007066910e+05 1.0000000000000000e+00 1.0000000000000000e+01 8.0000000000000000e+00 2.5000000000000000e+00 
106 2 4 2.2559723595316457e+00 9.1134196649259492e+05 1.0000000000000000e+00 1.0000000000000000e+01 1.0000000000000000e+01 2.5000000000000000e+00 
125 2 4 2.2559723595316457e+00 9.3956158482301794e+05 1.0000000000000000e+00 1.2000000000000000e+01 8.0000000000000000e+00 2.5000000000000000e+00 
126 2 4 2.2559723595316457e+00 9.5328688618385582e+05 1.0000000000000000e+00 1.2000000000000000e+01 1.0000000000000000e+01 2.5000000000000000e+00 
145 2 4 2.2559723595316457e+00 8.8585761434499640e+05 1.0000000000000000e+00 1.4000000000000000e+01 8.0000000000000000e+00 2.5000000000000000e+00 
146 2 4 2.2559723595316457e+00 9.4292163123126864e+05 1.0000000000000000e+00 1.4000000000000000e+01 1.0000000000000000e+01 2.5000000000000000e+00 
165 2 4 2.2559723595316457e+00 8.4954692020788067e+05 1.0000000000000000e+00 1.6000000000000000e+01 8.0000000000000000e+00 2.5000000000000000e+00 
166 2 4 2.2559723595316457e+00 8.9825378439682117e+05 1.0000000000000000e+00 1.6000000000000000e+01 1.0000000000000000e+01 2.5000000000000000e+00 
185 2 4 2.2559723595316457e+00 7.9705682606083457e+05 1.0000000000000000e+00 1.8000000000000000e+01 8.0000000000000000e+00 2.5000000000000000e+00 
186 2 4 2.2559723595316457e+00 7.0466766818310879e+05 1.0000000000000000e+00 1.8000000000000000e+01 1.0000000000000000e+01 2.5000000000000000e+00 
7 2 4 2.2559723595316457e+00 8.5961853293963103e+05 1.0000000000000000e+00 0.0000000000000000e+00 1.2000000000000000e+01 2.5000000000000000e+00 
8 2 4 2.2559723595316457e+00 6.9473246528324462e+05 1.0000000000000000e+00 0.0000000000000000e+00 1.4000000000000000e+01 2.5000000000000000e+00 
27 2 4 2.2559723595316457e+00 8.6617532553707436e+05 1.0000000000000000e+00 2.0000000000000000e+00 1.2000000000000000e+01 2.5000000000000000e+00 
28 2 4 2.2559723595316457e+00 8.2574168840701296e+05 1.0000000000000000e+00 2.0000000000000000e+00 1.4000000000000000e+01 2.5000000000000000e+00 
47 2 4 2.2559723595316457e+00 8.2647617282840656e+05 1.0000000000000000e+00 4.0000000000000000e+00 1.2000000000000000e+01 2.5000000000000000e+00 
48 2 4 2.2559723595316457e+00 7.4811709291022667e+05 1.0000000000000000e+00 4.0000000000000000e+00 1.4000000000000000e+01 2.5000000000000000e+00 
67 2 4 2.2559723595316457e+00 9.6962757788662007e+05 1.0000000000000000e+00 6.0000000000000000e+00 1.2000000000000000e+01 2.5000000000000000e+00 
68 2 4 2.2559723595316457e+00 9.0169007621128368e+05 1.0000000000000000e+00 6.0000000000000000e+00 1.4000000000000000e+01 2.5000000000000000e+00 
87 2 4 2.2559723595316457e+00 9.3876987908315449e+05 1.0000000000000000e+00 8.0000000000000000e+00 1.2000000000000000e+01 2.5000000000000000e+00 
88 2 4 2.2559723595316457e+00 1.0013255186666924e+06 1.0000000000000000e+00 8.0000000000000000e+00 1.4000000000000000e+01 2.5000000000000000e+00 
107 2 4 2.2559723595316457e+00 1.0313077974175659e+06 1.0000000000000000e+00 1.0000000000000000e+01 1.2000000000000000e+01 2.5000000000000000e+00 
108 2 4 2.2559723595316457e+00 1.1034832179913800e+06 1.0000000000000000e+00 1.0000000000000000e+01 1.4000000000000000e+01 2.5000000000000000e+00 
127 2 4 2.2559723595316457e+00 1.0209034715125147e+06 1.0000000000000000e+00 1.2000000000000000e+01 1.2000000000000000e+01 2.5000000000000000e+00 
128 2 4 2.2559723595316457e+00 9.6795772827448812e+05 1.0000000000000000e+00 1.2000000000000000e+01 1.4000000000000000e+01 2.5000000000000000e+00 
147 2 4 2.2559723595316457e+00 1.0060677141435130e+06 1.0000000000000000e+00 1.4000000000000000e+01 1.2000000000000000e+01 2.5000000000000000e+00 
148 2 4 2.2559723595316457e+00 9.6235597863517050e+05 1.0000000000000000e+00 1.4000000000000000e+01 1.4000000000000000e+01 2.5000000000000000e+00 
167 2 4 2.2559723595316457e+00 1.0002456117418804e+06 1.0000000000000000e+00 1.6000000000000000e+01 1.2000000000000000e+01 2.5000000000000000e+00 
168 2 4 2.2559723595316457e+00 1.1478441298535820e+06 1.0000000000000000e+00 1.6000000000000000e+01 1.4000000000000000e+01 2.5000000000000000e+00 
187 2 4 2.2559723595316457e+00 9.9671256159638078e+05 1.0000000000000000e+00 1.8000000000000000e+01 1.2000000000000000e+01 2.5000000000000000e+00 
188 2 4 2.2559723595316457e+00 1.0987478175998270e+06 1.0000000000000000e+00 1.8000000000000000e+01 1.4000000000000000e+01 2.5000000000000000e+00 
9 2 4 2.2559723595316457e+00 7.7042179520809348e+05 1.0000000000000000e+00 0.0000000000000000e+00 1.6000000000000000e+01 2.5000000000000000e+00 
10 2 4 2.2559723595316457e+00 3.1714130272711953e+05 1.0000000000000000e+00 0.0000000000000000e+00 1.8000000000000000e+01 2.5000000000000000e+00 
29 2 4 2.2559723595316457e+00 7.7639434514206275e+05 1.0000000000000000e+00 2.0000000000000000e+00 1.6000000000000000e+01 2.5000000000000000e+00 
30 2 4 2.2559723595316457e+00 5.6969712300985772e+05 1.0000000000000000e+00 2.0000000000000000e+00 1.8000000000000000e+01 2.5000000000000000e+00 
49 2 4 2.2559723595316457e+00 7.7473204759041732e+05 1.0000000000000000e+00 4.0000000000000000e+00 1.6000000000000000e+01 2.5000000000000000e+00 
50 2 4 2.2559723595316457e+00 7.3485642055448913e+05 1.0000000000000000e+00 4.0000000000000000e+00 1.8000000000000000e+01 2.5000000000000000e+00 
69 2 4 2.2559723595316457e+00 8.7758874990362348e+05 1.0000000000000000e+00 6.0000000000000000e+00 1.6000000000000000e+01 2.5000000000000000e+00 
70 2 4 2.2559723595316457e+00 8.4332806680366560e+05 1.0000000000000000e+00 6.0000000000000000e+00 1.8000000000000000e+01 2.5000000000000000e+00 
89 2 4 2.2559723595316457e+00 9.3907105817313562e+05 1.0000000000000000e+00 8.0000000000000000e+00 1.6000000000000000e+01 2.5000000000000000e+00 
90 2 4 2.2559723595316457e+00 9.5111797582581639e+05 1.0000000000000000e+00 8.0000000000000000e+00 1.8000000000000000e+01 2.5000000000000000e+00 
109 2 4 2.2559723595316457e+00 8.6516813571452838e+05 1.0000000000000000e+00 1.0000000000000000e+01 1.6000000000000000e+01 2.5000000000000000e+00 
110 2 4 2.2559723595316457e+00 8.2924063152270881e+05 1.0000000000000000e+00 1.0000000000000000e+01 1.8000000000000000e+01 2.5000000000000000e+00 
129 2 4 2.2559723595316457e+00 9.6009256250554859e+05 1.0000000000000000e+00 1.2000000000000000e+01 1.6000000000000000e+01 2.5000000000000000e+00 
130 2 4 2.2559723595316457e+00 8.2277667801258713e+05 1.0000000000000000e+00 1.2000000000000000e+01 1.8000000000000000e+01 2.5000000000000000e+00 
149 2 4 2.2559723595316457e+00 8.8966989043142623e+05 1.0000000000000000e+00 1.4000000000000000e+01 1.6000000000000000e+01 2.5000000000000000e+00 
150 2 4 2.2559723595316457e+00 8.6483277328227740e+05 1.0000000000000000e+00 1.4000000000000000e+01 1.8000000000000000e+01 2.5000000000000000e+00 
169 2 4 2.2559723595316457e+00 9.2974590402747272e+05 1.0000000000000000e+00 1.6000000000000000e+01 1.6000000000000000e+01 2.5000000000000000e+00 
170 2 4 2.2559723595316457e+00 9.6615813027831551e+05 1.0000000000000000e+00 1.6000000000000000e+01 1.8000000000000000e+01 2.5000000000000000e+00 
189 2 4 2.2559723595316457e+00 1.0156629264388685e+06 1.0000000000000000e+00 1.8000000000000000e+01 1.6000000000000000e+01 2.5000000000000000e+00 
190 2 4 2.2559723595316457e+00 1.0790120164367035e+06 1.0000000000000000e+00 1.8000000000000000e+01 1.8000000000000000e+01 2.5000000000000000e+00 
1618 1220 2 1.0280063571605027e+00 -6.8855880096153527e+07 1.0000000000000000e+00 1.7445442049053621e+00 2.1673131324405213e+00 1.1327902023780229e+01 
1284 886 2 1.0280024936825880e+00 5.4338553020991668e+07 1.0000000000000000e+00 4.2015363439940980e+00 2.3252058472377697e+00 8.5987829804442146e+00 
1599 1201 2 1.0279958394675630e+00 -6.5711756084425196e+07 1.0000000000000000e+00 4.0621431175120462e+00 3.7793836743255654e-01 8.8450617500410562e+00 
546 148 2 1.0279826328572206e+00 3.2059369525545191e+07 1.0000000000000000e+00 8.8639088195661948e+00 2.9031042494742358e+00 8.7710375028623631e+00 
1387 989 2 1.0280582202943616e+00 -6.5968163232806116e+07 1.0000000000000000e+00 9.7979083933111344e+00 1.7636991583769333e+00 8.4710819100186736e+00 
1543 1145 2 1.0279810013147834e+00 -6.3972190131371833e+07 1.0000000000000000e+00 1.2573891677295325e+01 3.7350408027183319e+00 8.6403747483381963e+00 
1285 887 2 1.0279856402135783e+00 5.1659797402770177e+07 1.0000000000000000e+00 1.3829329759377440e+01 1.7281420427413672e+00 8.8162269733233796e+00 
1283 885 2 1.0280337912593527e+00 -6.6506785305728227e+07 1.0000000000000000e+00 1.5211103539415927e+01 3.7256201760996190e+00 1.1325747774570651e+01 
1738 1340 2 1.0279912425170554e+00 -4.2400931212608658e+07 1.0000000000000000e+00 1.7183885896079897e+01 2.2154835369704169e+00 8.4529479553198144e+00 
1080 682 2 1.0280056971968423e+00 3.4763690142374359e+07 1.0000000000000000e+00 1.9280434012891053e+01 2.1284371685228001e+00 8.8259470698443216e+00 
1359 961 2 1.0280072598749896e+00 -7.0623910164582089e+07 1.0000000000000000e+00 1.6504503105480342e+01 9.7947704511041089e-01 1.1085889149387171e+01 
1058 660 2 1.0279902443853661e+00 -6.0514155242803298e+07 1.0000000000000000e+00 2.4991201908620759e+00 5.3285756377198776e+00 8.6546340251321556e+00 
862 464 2 1.0280160302217916e+00 -6.8006877965939075e+07 1.0000000000000000e+00 4.6088775467604730e+00 4.8813669206482793e+00 1.1231020645250794e+01 
2068 1670 2 1.0280089021331527e+00 3.6089754482679404e+07 1.0000000000000000e+00 6.6267496019303938e+00 4.8817937849934365e+00 8.5374944911402721e+00 
1659 1261 2 1.0280036780241295e+00 -6.3516294803591512e+07 1.0000000000000000e+00 6.6947121779016641e+00 7.1034744411039572e+00 8.6320891895739926e+00 
1064 666 2 1.0279966973137546e+00 3.2952339133472960e+07 1.0000000000000000e+00 9.9967428805596210e+00 7.2525920841957268e+00 8.7024392055611326e+00 
1171 773 2 1.0280158582623748e+00 -6.5572870391906500e+07 1.0000000000000000e+00 8.1914564945000112e+00 7.7450543444372677e+00 1.1910598631614246e+01 
556 158 2 1.0280070776825607e+00 3.5562425032016106e+07 1.0000000000000000e+00 1.1881350037040693e+01 6.5902977907874547e+00 8.7528748516148358e+00 
782 384 2 1.0280044039776630e+00 -6.6477945927981950e+07 1.0000000000000000e+00 1.5425223933603110e+01 7.1839410880467307e+00 8.6482102881838987e+00 
569 171 2 1.0279900068475183e+00 2.9182537114961319e+07 1.0000000000000000e+00 1.8101035383038138e+01 6.0370355229859589e+00 1.2137075318804488e+01 
1161 763 2 1.0279901351208840e+00 6.8368624819080576e+07 1.0000000000000000e+00 1.6723870534378914e+01 6.1945349903085631e+00 8.6268853553974036e+00 
606 208 2 1.0280169448942020e+00 -3.9252288808943868e+07 1.0000000000000000e+00 1.9742091787005148e+01 6.2425023007385674e+00 8.5335260024256012e+00 
1394 996 2 1.0280100725108221e+00 -6.6777272319441907e+07 1.0000000000000000e+00 1.8928401951640845e+00 1.0010273045210702e+01 8.6118222445474899e+00 
1030 632 2 1.0279784439147464e+00 -6.5704926684364073e+07 1.0000000000000000e+00 6.8180492461819941e-01 1.1372311561083281e+01 1.1849487454597321e+01 
1346 948 2 1.0280055271782789e+00 -7.1700826335387647e+07 1.0000000000000000e+00 3.7655020855267272e+00 1.1808130965150003e+01 8.4999500419181242e+00 
443 45 2 1.0279947334854445e+00 3.5116564797748961e+07 1.0000000000000000e+00 3.9304598723281572e+00 8.1979725858377304e+00 8.6403678116572973e+00 
2078 1680 2 1.0280004194594998e+00 2.6632927812469169e+07 1.0000000000000000e+00 4.5952996527496603e+00 9.7293015576174646e+00 1.1831070054545737e+01 
905 507 2 1.0279946496671994e+00 3.1993978081809849e+07 1.0000000000000000e+00 6.6060805123313502e+00 1.1423105178693389e+01 8.6074413855910397e+00 
1141 743 2 1.0279905906318583e+00 6.0130252587548897e+07 1.0000000000000000e+00 8.9874990519989737e+00 9.3067861738550892e+00 1.2453694719024115e+01 
760 362 2 1.0279934178261472e+00 3.5055760400411867e+07 1.0000000000000000e+00 9.3147835074599659e+00 1.0948049730332635e+01 8.5677084750178771e+00 
699 301 2 1.0279972150868493e+00 -4.5520828077382505e+07 1.0000000000000000e+00 1.2264420040798234e+01 8.0205886456054944e+00 1.1409828008165556e+01 
1710 1312 2 1.0280107998933197e+00 -7.5607410162474021e+07 1.0000000000000000e+00 1.2269166408628132e+01 1.1114069795469931e+01 8.6693131696846173e+00 
1477 1079 2 1.0279931092301535e+00 3.6860173354489326e+07 1.0000000000000000e+00 1.5122789405844237e+01 1.0137025550369346e+01 8.6720917430044171e+00 
521 123 2 1.0279817022939106e+00 3.6266766376714401e+07 1.0000000000000000e+00 1.7854373680133250e+01 1.0219041080167470e+01 1.1145279221958011e+01 
498 100 2 1.0280101171418379e+00 3.5942600208093181e+07 1.0000000000000000e+00 1.7284865457764116e+01 1.1554291653647391e+01 8.8072005295767539e+00 
450 52 2 1.0279980030202860e+00 2.8509908296842035e+07 1.0000000000000000e+00 2.2140733745959548e-01 1.2790659859467741e+01 8.5985820946775604e+00 
2074 1676 2 1.0280122099071931e+00 2.4336220675218903e+07 1.0000000000000000e+00 3.8332328645423344e+00 1.5878800653294379e+01 8.6083294542365199e+00 
1012 614 2 1.0280283266608874e+00 4.2594048004638188e+07 1.0000000000000000e+00 7.7672410716939249e+00 1.2273652853010427e+01 1.1286229233630502e+01 
736 338 2 1.0279874834049094e+00 2.8997200512680937e+07 1.0000000000000000e+00 4.5061359205009355e+00 1.3327109488506409e+01 1.1801936169501591e+01 
2057 1659 2 1.0279992881311979e+00 4.1792933552757315e+07 1.0000000000000000e+00 4.8005762158924163e+00 1.5773391384735481e+01 8.6702061701705055e+00 
551 153 2 1.0279956250596649e+00 3.1266270954796512e+07 1.0000000000000000e+00 8.6373350308865255e+00 1.4191347957635193e+01 8.7661479751956897e+00 
1746 1348 2 1.0280142266824353e+00 2.4250294789243810e+07 1.0000000000000000e+00 1.1265486361075435e+01 1.5687183618402601e+01 8.7047374233133166e+00 
913 515 2 1.0279849518304502e+00 2.4866012858424298e+07 1.0000000000000000e+00 1.2512799085589988e+01 1.2938193588296862e+01 8.9189178464181023e+00 
1723 1325 2 1.0280244866240431e+00 -6.8021825039088294e+07 1.0000000000000000e+00 1.5797702095728242e+01 1.3850832852350932e+01 1.1908311884385173e+01 
1055 657 2 1.0279859916895160e+00 -6.9448434741569713e+07 1.0000000000000000e+00 1.7179849324998393e+01 1.4193209187579569e+01 8.8186635470230321e+00 
961 563 2 1.0279912125524722e+00 4.7226216710355960e+07 1.0000000000000000e+00 1.9034363640238230e+00 1.8418155164856351e+01 8.8548944366116871e+00 
1258 860 2 1.0280065282454782e+00 -6.6182691034382299e+07 1.0000000000000000e+00 4.5891895790075825e+00 1.9561025166641144e+01 8.6603553822107493e+00 
1250 852 2 1.0280001960558054e+00 -6.6287037574243970e+07 1.0000000000000000e+00 7.1970746356334594e+00 1.9222055794620299e+01 1.1648174724798416e+01 
1385 987 2 1.0279874435807905e+00 5.2120552030100234e+07 1.0000000000000000e+00 8.1424394580339001e+00 1.6813455528974391e+01 1.0100133025814374e+01 
1631 1233 2 1.0280510245928287e+00 -5.9981496769108929e+07 1.0000000000000000e+00 1.1614832141409899e+01 1.8892894907352009e+01 1.2341150463227590e+01 
1886 1488 2 1.0279785408108435e+00 -4.0707589632502809e+07 1.0000000000000000e+00 1.1621784951437849e+01 1.8733519682809735e+01 8.8410165627853541e+00 
1541 1143 2 1.0279805964648498e+00 1.1701794171721429e+07 1.0000000000000000e+00 1.3203083132379152e+01 1.6085767409083886e+01 1.1987099955002895e+01 
1732 1334 2 1.0280060379510461e+00 3.0637694958422601e+07 1.0000000000000000e+00 1.4897077230553833e+01 1.6453941070843218e+01 8.6083390903752264e+00 
1910 1512 2 1.0280020605556142e+00 2.0261680617095735e+07 1.0000000000000000e+00 1.4194445653633908e+01 1.8433032285150137e+01 8.5223513629813343e+00 
552 154 2 1.0279923342745614e+00 3.8623707472082369e+07 1.0000000000000000e+00 1.8814064739957136e+01 1.6271716308531758e+01 8.5441978896077764e+00 
733 335 2 1.0280091189549174e+00 2.8165070257953964e+07 1.0000000000000000e+00 1.7668735044013591e+01 1.9368820176540609e+01 8.5355100211999808e+00 
1066 668 2 1.0280284452904507e+00 -4.2893324974611215e+07 1.0000000000000000e+00 9.3335383860412746e-01 3.6749525580560070e+00 1.4235860934676513e+01 
723 325 2 1.0280276326205484e+00 -4.3563463445935689e+07 1.0000000000000000e+00 5.7643466818542830e+00 3.6702668220142316e+00 1.5271580086660288e+01 
655 257 2 1.0280363618730655e+00 -5.2864468579354681e+07 1.0000000000000000e+00 4.2887338803850916e+00 1.3168022681330651e+00 1.3963937254277919e+01 
1461 1063 2 1.0279769965514052e+00 4.0284209252331212e+07 1.0000000000000000e+00 7.5660800272839834e+00 2.1164024746237993e+00 1.3264393090033165e+01 
2004 1606 2 1.0280197913330826e+00 3.3942232499663219e+07 1.0000000000000000e+00 9.7336246652512077e+00 3.8223509974128449e+00 1.5209101316834440e+01 
1533 1135 2 1.0280283634850522e+00 4.4555048931587003e+07 1.0000000000000000e+00 1.0059712382136134e+01 1.7549176000436015e+00 1.2668280487406623e+01 
833 435 2 1.0280016870298010e+00 3.2761309350666113e+07 1.0000000000000000e+00 1.2701355298542488e+01 3.3813006021479959e+00 1.2504892351936501e+01 
1256 858 2 1.0280140487123872e+00 4.1983522155671574e+07 1.0000000000000000e+00 1.2149345917578049e+01 9.1975667473058564e-01 1.6012869863022111e+01 
1383 985 2 1.0279979830544175e+00 -6.9277657044438988e+07 1.0000000000000000e+00 1.4915314176699525e+01 7.8656958005632005e-01 1.5230783825066062e+01 
512 114 2 1.0280324939206356e+00 3.7996793796048582e+07 1.0000000000000000e+00 1.9600971027649461e+01 1.2534475803923091e+00 1.4700806757087131e+01 
1289 891 2 1.0279995466033209e+00 5.4387220263238639e+07 1.0000000000000000e+00 1.6002186567666654e+00 5.9483240342855606e+00 1.2816828424508550e+01 
1060 662 2 1.0279778318666524e+00 3.8730757997150913e+07 1.0000000000000000e+00 1.2143088946891638e+00 5.9032272096071816e+00 1.6362862699156839e+01 
897 499 2 1.0279927072033015e+00 2.1270252569637641e+07 1.0000000000000000e+00 5.0243116809869486e+00 7.0814760923013136e+00 1.3032158282416367e+01 
947 549 2 1.0280075577291463e+00 -6.8769764856238693e+07 1.0000000000000000e+00 1.2695915503799514e+01 5.4830564923791005e+00 1.3998023959282898e+01 
839 441 2 1.0279890983344804e+00 -6.5900094603399701e+07 1.0000000000000000e+00 1.4086322288692958e+01 7.0251196463465897e+00 1.5835418061863987e+01 
472 74 2 1.0279770925144869e+00 3.3741931547655039e+07 1.0000000000000000e+00 1.7795420635008483e+01 4.6717712409798313e+00 1.6203107588079902e+01 
444 46 2 1.0280170832852786e+00 3.9184564370521292e+07 1.0000000000000000e+00 1.8663282193535391e+01 4.9405940753710658e+00 1.4472153826532654e+01 
1238 840 2 1.0280543020259429e+00 2.6843671385989800e+07 1.0000000000000000e+00 1.5301128073703398e+00 8.4662595841693253e+00 1.4168947336456768e+01 
1454 1056 2 1.0280039329523893e+00 -6.0895709284269594e+07 1.0000000000000000e+00 6.9416007308448346e+00 9.6011551241660751e+00 1.5220435727687258e+01 
1853 1455 2 1.0280153087722324e+00 3.3697013602580145e+07 1.0000000000000000e+00 4.2647239668648940e+00 1.0043834634846439e+01 1.5485937389911076e+01 
1441 1043 2 1.0280399420642723e+00 8.3330922980196616e+06 1.0000000000000000e+00 1.1396074041773307e+01 8.6208407322645151e+00 1.5738006212975312e+01 
1000 602 2 1.0279916966243552e+00 3.7658415591239177e+07 1.0000000000000000e+00 1.3698512733998577e+01 9.4343234130534519e+00 1.3322934629381749e+01 
1956 1558 2 1.0280298193879012e+00 3.9715226328374974e+07 1.0000000000000000e+00 1.6719756861122665e+01 8.6042637214826669e+00 1.2594541629133062e+01 
865 467 2 1.0279850085591051e+00 2.3418654274305724e+07 1.0000000000000000e+00 1.9248361382602642e+01 9.9866181836904140e+00 1.4521477906036839e+01 
1222 824 2 1.0280467003731018e+00 -6.6057613846057333e+07 1.0000000000000000e+00 5.2637750229852021e-01 1.3100146265923529e+01 1.2649277699744102e+01 
1871 1473 2 1.0279883449291811e+00 -4.9356264234490432e+07 1.0000000000000000e+00 3.3771675865516144e+00 1.3318547411872178e+01 1.5465670934999658e+01 
928 530 2 1.0280555705676033e+00 4.8421415234302498e+07 1.0000000000000000e+00 2.4806918495335033e+00 1.5425215783236382e+01 1.6585249349905038e+01 
1492 1094 2 1.0280273329898804e+00 2.0762538662603017e+07 1.0000000000000000e+00 5.3113629901451107e+00 1.3800843965660443e+01 1.4042184942073369e+01 
946 548 2 1.0280008829673257e+00 -6.9681672958771899e+07 1.0000000000000000e+00 1.0199686209598337e+01 1.2254818615719342e+01 1.6471043732693886e+01 
739 341 2 1.0279970621092591e+00 2.2089699397776160e+07 1.0000000000000000e+00 1.0944932100916528e+01 1.3620138595155403e+01 1.3838047762884910e+01 
631 233 2 1.0280006143288660e+00 -4.0979670423139967e+07 1.0000000000000000e+00 9.7159146900550084e+00 1.5720736407329282e+01 1.2584519135919734e+01 
1737 1339 2 1.0280219696782942e+00 2.1323596524557225e+07 1.0000000000000000e+00 1.3074610478245447e+01 1.2242709292655354e+01 1.2971263123824540e+01 
1319 921 2 1.0280268215534305e+00 -6.8612544321750700e+07 1.0000000000000000e+00 1.2965218387555144e+01 1.4879841283955031e+01 1.6494072325027965e+01 
950 552 2 1.0279806505929128e+00 -6.2208642260339074e+07 1.0000000000000000e+00 1.5885075161776205e+01 1.3777333745637453e+01 1.4269967237185041e+01 
658 260 2 1.0280481028938497e+00 -4.4308302726692885e+07 1.0000000000000000e+00 1.9870943350139452e+01 1.3913920175227101e+01 1.6169898915629631e+01 
1044 646 2 1.0280057283852413e+00 1.7916466360684264e+07 1.0000000000000000e+00 7.0824826867863755e-01 1.7601561017197007e+01 1.2614970869797205e+01 
740 342 2 1.0279709224225628e+00 2.8138076950773682e+07 1.0000000000000000e+00 1.2547593207073948e+00 1.7872754156311050e+01 1.4239213073336302e+01 
1614 1216 2 1.0280139132469523e+00 -7.2558270416504398e+07 1.0000000000000000e+00 6.2877963528832810e+00 1.7098504644974536e+01 1.3356290725999427e+01 
1162 764 2 1.0279748144753000e+00 -7.2073262938683599e+07 1.0000000000000000e+00 5.8287495998775372e+00 1.7607733593901202e+01 1.5370153001478592e+01 
1018 620 2 1.0279890026362588e+00 -7.1035556314413056e+07 1.0000000000000000e+00 1.0073070284044977e+01 1.7582706593984831e+01 1.5867593079039523e+01 
1911 1513 2 1.0280559629652024e+00 2.0951707199364681e+07 1.0000000000000000e+00 8.5039533441180222e+00 1.9820821564290206e+01 1.5860157995971354e+01 
901 503 2 1.0279711465622288e+00 2.9483299378357857e+07 1.0000000000000000e+00 1.5764352962569872e+01 1.8161732599015263e+01 1.3006782191539154e+01 
1895 1497 2 1.0279865672609527e+00 -3.8596161189428687e+07 1.0000000000000000e+00 1.7101852671057635e+01 1.6888188134125958e+01 1.5882579273168297e+01 