LAMMPS data file via write_data, version 30 Jul 2016, timestep = 50400000

180 atoms
2 atom types

0.0000000000000000e+00 2.0000000000000000e+01 xlo xhi
0.0000000000000000e+00 2.0000000000000000e+01 ylo yhi
0.0000000000000000e+00 2.0000000000000000e+01 zlo zhi

Masses

1 3.896
2 4.31

Atoms # meso-molecular

7 1 2 5.8028412924214567e-01 -4.0529077505407645e+02 1.0000000000000000e+00 5.9196357835319784e+00 4.8364354109958647e+00 3.6160720914901603e+00 
8 1 2 5.8028412924214567e-01 -3.8900347865050878e+02 1.0000000000000000e+00 5.9196357835322173e+00 4.8364354109958736e+00 3.6160720914901603e+00 
14 1 2 5.8028412924214567e-01 -2.4903776307972231e+02 1.0000000000000000e+00 5.9196357835321010e+00 4.8364354109960512e+00 3.6160720914901603e+00 
44 1 2 5.8028412924214567e-01 -2.4851025832842072e+02 1.0000000000000000e+00 5.9196357835320947e+00 4.8364354109958736e+00 3.6160720914901634e+00 
9 1 2 1.0279999999999951e+00 -3.8958240880482958e+02 1.0000000000000000e+00 6.0681449560778420e+00 5.9179344273078192e+00 8.6130249021003884e+00 
51 1 2 1.0280000000001259e+00 -2.5994096345714729e+02 1.0000000000000000e+00 6.2532164267310897e+00 6.5426939895348966e+00 7.9688727004548943e+00 
10 1 2 1.0279999999999743e+00 -4.1716724426064332e+02 1.0000000000000000e+00 6.3418435857147619e+00 6.0282884001071420e+00 8.7930771520930104e+00 
45 1 2 1.0280000000000005e+00 -3.9786306497566687e+02 1.0000000000000000e+00 6.3978205359366438e+00 6.0490013256565662e+00 8.7519369298425129e+00 
46 1 2 1.0280000000000005e+00 -2.4260730789278031e+02 1.0000000000000000e+00 6.4349755933158841e+00 6.1111351792707360e+00 8.8234401710226162e+00 
16 1 2 1.0279999999999325e+00 -2.6734231227497941e+02 1.0000000000000000e+00 5.6293915834908654e+00 7.2315052262600785e+00 8.5616464762437499e+00 
22 1 2 1.0280000000000409e+00 -3.3685116999310588e+02 1.0000000000000000e+00 5.6294668742510288e+00 7.2315514562563958e+00 8.5616570436192738e+00 
15 1 2 1.0280000000000435e+00 -2.7605110419526426e+02 1.0000000000000000e+00 5.6286997409642838e+00 7.2310710029029091e+00 8.5604096513341226e+00 
21 1 2 1.0280000000000382e+00 -3.3496434727803921e+02 1.0000000000000000e+00 5.6294749667299824e+00 7.2315559007273631e+00 8.5615760805318910e+00 
18 1 2 5.8028412924214567e-01 -3.5156933289633741e+02 1.0000000000000000e+00 5.9209429458203156e+00 6.1095804520572816e+00 1.8268472914464148e+01 
12 1 2 5.8028412924214567e-01 -2.8926806349915154e+02 1.0000000000000000e+00 5.9209429458202205e+00 6.1095804520572816e+00 1.8268472914464148e+01 
13 1 2 5.8028412924214567e-01 -3.0689557075637197e+02 1.0000000000000000e+00 5.9209429458202205e+00 6.1095804520572692e+00 1.8268472914464155e+01 
54 1 2 5.8028412924214567e-01 -3.4307330033815293e+02 1.0000000000000000e+00 5.9209429458201255e+00 6.1095804520574370e+00 1.8268472914464159e+01 
19 1 2 4.3521309693160926e-01 -2.5654467677642464e+02 1.0000000000000000e+00 4.3773333768598013e+00 1.1095406323789909e+01 1.9641127023216363e+00 
20 1 2 4.3521309693160926e-01 -2.1039668111617439e+02 1.0000000000000000e+00 4.3773333768598039e+00 1.1095406323789948e+01 1.9641127023216400e+00 
25 1 2 4.3521309693160926e-01 -2.4665867858469861e+02 1.0000000000000000e+00 4.3773333768597995e+00 1.1095406323789893e+01 1.9641127023216394e+00 
31 1 2 7.2535516155268209e-01 -4.1075260690236831e+02 1.0000000000000000e+00 4.4453344344026959e+00 1.9042488897924780e+01 3.3999027664219633e-01 
1 1 2 7.2535516155268209e-01 -3.9870210432423437e+02 1.0000000000000000e+00 4.4453344344026897e+00 1.9042488897924784e+01 3.3999027664219600e-01 
2 1 2 7.2535516155268209e-01 -3.9764677108759514e+02 1.0000000000000000e+00 4.4453344344026959e+00 1.9042488897924780e+01 3.3999027664219633e-01 
6 1 2 7.2535516155268209e-01 -3.8236900095823592e+02 1.0000000000000000e+00 4.4453344344027004e+00 1.9042488897924780e+01 3.3999027664218612e-01 
36 1 2 7.2535516155268209e-01 -3.5115843987243181e+02 1.0000000000000000e+00 4.4453344344027004e+00 1.9042488897924780e+01 3.3999027664218612e-01 
26 1 2 5.8028412924214567e-01 -2.5662668985372886e+02 1.0000000000000000e+00 5.7300928936028255e+00 1.6418430912657154e+01 5.1250171751740066e+00 
32 1 2 5.8028412924214567e-01 -3.2568654769776003e+02 1.0000000000000000e+00 5.7300928936028255e+00 1.6418430912657154e+01 5.1250171751740128e+00 
33 1 2 5.8028412924214567e-01 -3.4487733391750788e+02 1.0000000000000000e+00 5.7300928936028246e+00 1.6418430912657158e+01 5.1250171751738360e+00 
68 1 2 5.8028412924214567e-01 -3.0563550153008754e+02 1.0000000000000000e+00 5.7300928936028237e+00 1.6418430912657623e+01 5.1250171751740128e+00 
4 1 2 7.2535516155268209e-01 -3.5532392944368695e+02 1.0000000000000000e+00 6.5214736808338021e+00 1.9559583617007455e+01 9.4855952104908035e+00 
3 1 2 7.2535516155268209e-01 -3.4284036879567157e+02 1.0000000000000000e+00 6.5214736808338021e+00 1.9559583617007455e+01 9.4855952104908035e+00 
40 1 2 7.2535516155268209e-01 -3.4792979561337933e+02 1.0000000000000000e+00 6.5214736808338110e+00 1.9559583617006467e+01 9.4855952104912724e+00 
70 1 2 7.2535516155268209e-01 -3.1524738944694622e+02 1.0000000000000000e+00 6.5214736808338110e+00 1.9559583617007483e+01 9.4855952104913204e+00 
69 1 2 7.2535516155268209e-01 -2.8108716874901182e+02 1.0000000000000000e+00 6.5214736808338110e+00 1.9559583617007654e+01 9.4855952104907910e+00 
28 1 2 7.2535516155268209e-01 -2.8474562228382240e+02 1.0000000000000000e+00 4.9239182314692220e+00 1.5221279029108080e+01 1.1458132318095624e+01 
34 1 2 7.2535516155268209e-01 -2.7703446490752634e+02 1.0000000000000000e+00 4.9239182314691554e+00 1.5221279029108414e+01 1.1458132318095211e+01 
35 1 2 7.2535516155268209e-01 -2.5286472284181320e+02 1.0000000000000000e+00 4.9239182314691554e+00 1.5221279029108421e+01 1.1458132318095624e+01 
29 1 2 7.2535516155268209e-01 -2.5317086674293779e+02 1.0000000000000000e+00 4.9239182314691545e+00 1.5221279029108405e+01 1.1458132318095624e+01 
27 1 2 7.2535516155268209e-01 -2.4681061521429450e+02 1.0000000000000000e+00 4.9239182314691545e+00 1.5221279029108080e+01 1.1458132318095625e+01 
38 1 2 5.8028412924214567e-01 -1.9718677852318007e+02 1.0000000000000000e+00 9.6815242621902815e+00 9.4494325445763516e-01 6.2050072660768416e+00 
74 1 2 5.8028412924214567e-01 -2.3979705516233736e+02 1.0000000000000000e+00 9.6815242621899742e+00 9.4494325445763516e-01 6.2050072660766782e+00 
75 1 2 5.8028412924214567e-01 -2.2384739643511003e+02 1.0000000000000000e+00 9.6815242621897983e+00 9.4494325445765892e-01 6.2050072660767830e+00 
39 1 2 5.8028412924214567e-01 -2.4283915032078977e+02 1.0000000000000000e+00 9.6815242621902815e+00 9.4494325445765892e-01 6.2050072660766196e+00 
93 1 2 2.9014206462107284e-01 -1.3173916094292022e+02 1.0000000000000000e+00 1.1327154170054680e+01 9.6905620832575323e+00 6.0095631097061588e+00 
92 1 2 2.9014206462107284e-01 -1.3426999592804907e+02 1.0000000000000000e+00 1.1327154170054687e+01 9.6905620832575519e+00 6.0095631097061490e+00 
58 1 2 4.3521309693160926e-01 -1.6489776129545038e+02 1.0000000000000000e+00 9.3500528160633198e+00 9.4728557603844123e+00 1.0100336384551236e+01 
94 1 2 4.3521309693160926e-01 -2.1533845377350545e+02 1.0000000000000000e+00 9.3500528160633163e+00 9.4728557603844070e+00 1.0100336384551261e+01 
52 1 2 4.3521309693160926e-01 -1.7128997685229223e+02 1.0000000000000000e+00 9.3500528160633110e+00 9.4728557603843875e+00 1.0100336384551241e+01 
41 1 2 5.8028412924214567e-01 -2.5576978792563330e+02 1.0000000000000000e+00 6.7529141883668098e+00 3.1679374401508342e+00 1.3704985834760148e+01 
5 1 2 5.8028412924214567e-01 -3.1018354469166701e+02 1.0000000000000000e+00 6.7529141883666339e+00 3.1679374401508817e+00 1.3704985834760153e+01 
11 1 2 5.8028412924214567e-01 -2.2522751027110917e+02 1.0000000000000000e+00 6.7529141883668107e+00 3.1679374401508342e+00 1.3704985834759976e+01 
47 1 2 5.8028412924214567e-01 -2.0759541248844613e+02 1.0000000000000000e+00 6.7529141883667982e+00 3.1679374401507867e+00 1.3704985834760171e+01 
48 1 2 8.7042619386321851e-01 -2.9275335175840934e+02 1.0000000000000000e+00 9.1595884998770440e+00 2.2242652989875213e+00 1.8832021842142314e+01 
73 1 2 8.7042619386321851e-01 -3.7745140857349054e+02 1.0000000000000000e+00 9.1595884998766373e+00 2.2242652989875267e+00 1.8832021842142296e+01 
37 1 2 8.7042619386321851e-01 -3.3997197866765396e+02 1.0000000000000000e+00 9.1595884998767367e+00 2.2242652989875267e+00 1.8832021842142296e+01 
42 1 2 8.7042619386321851e-01 -1.9959304278488690e+02 1.0000000000000000e+00 9.1595884998766319e+00 2.2242652989873157e+00 1.8832021842142314e+01 
43 1 2 8.7042619386321851e-01 -3.6527346079468737e+02 1.0000000000000000e+00 9.1595884998767367e+00 2.2242652989875253e+00 1.8832021842142296e+01 
78 1 2 8.7042619386321851e-01 -3.2803588498377616e+02 1.0000000000000000e+00 9.1595884998766373e+00 2.2242652989873157e+00 1.8832021842142314e+01 
55 1 2 1.0279999999499290e+00 -3.5481345130071708e+02 1.0000000000000000e+00 9.2462378282272191e+00 1.0772196275148461e+01 2.6828547516052232e+00 
98 1 2 1.0280000000492331e+00 -3.0586245331324966e+02 1.0000000000000000e+00 9.5549498495689775e+00 1.1699119056312972e+01 2.4602697903242037e+00 
62 1 2 1.0280000000498373e+00 -2.9340636232749591e+02 1.0000000000000000e+00 9.5349525542980480e+00 1.1705292049345516e+01 2.4586935160272967e+00 
97 1 2 1.0280000000511855e+00 -3.1632631062945109e+02 1.0000000000000000e+00 9.5584649278268490e+00 1.1697294365443701e+01 2.4580608446314662e+00 
91 1 2 1.0280000000503930e+00 -3.1993885103421917e+02 1.0000000000000000e+00 9.5614096229902330e+00 1.1695826088964074e+01 2.4565880875600810e+00 
56 1 2 1.0279999999516252e+00 -3.3424455455643647e+02 1.0000000000000000e+00 9.2287666159919812e+00 1.0780868327987971e+01 2.6946083707118005e+00 
49 1 2 1.0279999999490941e+00 -3.6331325603892617e+02 1.0000000000000000e+00 9.2270866223302530e+00 1.0781651573333086e+01 2.6952949521637142e+00 
50 1 2 1.0279999999488261e+00 -2.6202471739809749e+02 1.0000000000000000e+00 9.2246275097291388e+00 1.0782977011276547e+01 2.6969068600961821e+00 
61 1 2 5.8028412924214567e-01 -2.9648699975965491e+02 1.0000000000000000e+00 9.5568229409020038e+00 1.5967048574786180e+01 1.1935266627991381e-01 
67 1 2 5.8028412924214567e-01 -3.7657716630084485e+02 1.0000000000000000e+00 9.5568229409020091e+00 1.5967048574786180e+01 1.1935266627991387e-01 
103 1 2 5.8028412924214567e-01 -3.5939873209442351e+02 1.0000000000000000e+00 9.5568229409019541e+00 1.5967048574785800e+01 1.1935266627991370e-01 
72 1 2 5.8028412924214567e-01 -2.6111269999534920e+02 1.0000000000000000e+00 9.5568229409020091e+00 1.5967048574785800e+01 1.1935266627991380e-01 
63 1 2 2.9014206462107284e-01 -1.1743979391279527e+02 1.0000000000000000e+00 8.1765644082105631e+00 1.2509688467825782e+01 6.9025361037332278e+00 
57 1 2 2.9014206462107284e-01 -1.4029796686690253e+02 1.0000000000000000e+00 8.1765644082105435e+00 1.2509688467825763e+01 6.9025361037332376e+00 
104 1 2 1.0279999999999796e+00 -2.5883502262981852e+02 1.0000000000000000e+00 1.2980688462965958e+01 1.5400929304507670e+01 7.8168620890730205e+00 
105 1 2 1.0279999999999805e+00 -3.3038522834903478e+02 1.0000000000000000e+00 1.2980648519258018e+01 1.5401177907727730e+01 7.8169194758672429e+00 
64 1 2 1.0280000000003340e+00 -2.9543804978823800e+02 1.0000000000000000e+00 1.1633857679327015e+01 1.5198139500670980e+01 8.2345383116520150e+00 
99 1 2 1.0280000000001246e+00 -3.9287825863324161e+02 1.0000000000000000e+00 1.1637339633401524e+01 1.5199609790911920e+01 8.2508926926554302e+00 
100 1 2 1.0280000000000036e+00 -4.5009076921683754e+02 1.0000000000000000e+00 1.1633281915637822e+01 1.5200509078117115e+01 8.2322636609231203e+00 
135 1 2 1.0280000000003324e+00 -4.5661878564402565e+02 1.0000000000000000e+00 1.2534938521063209e+01 1.4796405635110414e+01 8.5194253740515897e+00 
141 1 2 1.0279999999997673e+00 -4.0347141107142454e+02 1.0000000000000000e+00 1.2980800604950774e+01 1.5401210642294116e+01 7.8172957458146088e+00 
136 1 2 1.0279999999996463e+00 -3.1655212990342704e+02 1.0000000000000000e+00 1.1631281209263552e+01 1.5206739761400790e+01 8.2231777003182582e+00 
142 1 2 1.0280000000002587e+00 -3.1898815471846183e+02 1.0000000000000000e+00 1.2980822721548300e+01 1.5401440815593046e+01 7.8174879296110840e+00 
144 1 2 1.0280000000000007e+00 -4.2762485416255714e+02 1.0000000000000000e+00 1.2181043977955961e+01 1.7055018971520035e+01 1.2896631941525717e+01 
60 1 2 1.0279999999996658e+00 -3.0834738188950058e+02 1.0000000000000000e+00 8.3703123069122789e+00 1.1093176598499404e+01 1.5615894669019976e+01 
59 1 2 1.0280000000001546e+00 -2.5933419203129955e+02 1.0000000000000000e+00 8.3410903729513990e+00 1.0501107830697405e+01 1.5053070590468190e+01 
95 1 2 1.0279999999998446e+00 -3.2375126001873201e+02 1.0000000000000000e+00 8.4439898724636056e+00 1.0670241353226576e+01 1.5220186063371965e+01 
96 1 2 1.0280000000002671e+00 -3.2420600063942231e+02 1.0000000000000000e+00 8.4551674186480810e+00 1.0902835917589789e+01 1.5463463208490655e+01 
66 1 2 1.0280000000002500e+00 -3.3294832134118980e+02 1.0000000000000000e+00 7.1150195389484407e+00 1.1317280081833955e+01 1.5809458303599925e+01 
30 1 2 1.0280000000000651e+00 -3.4043198719128031e+02 1.0000000000000000e+00 7.1087794779820292e+00 1.1313860956893597e+01 1.5806681429248675e+01 
24 1 2 1.0280000000000233e+00 -3.3515998879418947e+02 1.0000000000000000e+00 7.1083206301555997e+00 1.1313449973086957e+01 1.5806639166864359e+01 
23 1 2 1.0279999999998468e+00 -2.9995232369169838e+02 1.0000000000000000e+00 7.0651805954599194e+00 1.0384472853379256e+01 1.4881696300422087e+01 
17 1 2 1.0279999999998468e+00 -2.7200569088425567e+02 1.0000000000000000e+00 7.0651805954599194e+00 1.0384472853379256e+01 1.4881696300422087e+01 
53 1 2 1.0279999999998468e+00 -2.2671019265009275e+02 1.0000000000000000e+00 7.0651805954599194e+00 1.0384472853379256e+01 1.4881696300422087e+01 
65 1 2 1.0279999999994620e+00 -3.6661399229064256e+02 1.0000000000000000e+00 1.1234422227252638e+01 1.6114761958784843e+01 1.4355282772853858e+01 
101 1 2 1.0279999999994620e+00 -4.4002743161625409e+02 1.0000000000000000e+00 1.1234422227252638e+01 1.6114761958784843e+01 1.4355282772853858e+01 
71 1 2 1.0279999999994620e+00 -3.6930676023147413e+02 1.0000000000000000e+00 1.1234422227252638e+01 1.6114761958784843e+01 1.4355282772853858e+01 
106 1 2 1.0279999999994620e+00 -4.2100270864934220e+02 1.0000000000000000e+00 1.1234422227252638e+01 1.6114761958784843e+01 1.4355282772853858e+01 
107 1 2 1.0279999999994620e+00 -3.2325257584248806e+02 1.0000000000000000e+00 1.1234422227252638e+01 1.6114761958784843e+01 1.4355282772853858e+01 
143 1 2 1.0280000000010241e+00 -4.6941088832908042e+02 1.0000000000000000e+00 1.2627504186246210e+01 1.6504476684693920e+01 1.4622243209576407e+01 
102 1 2 1.0280000000000573e+00 -1.8107652750077708e+02 1.0000000000000000e+00 1.2631019466045299e+01 1.6506692182316790e+01 1.4619952391963217e+01 
108 1 2 1.0280000000000573e+00 -1.6561777231913206e+02 1.0000000000000000e+00 1.2631019466045299e+01 1.6506692182316790e+01 1.4619952391963217e+01 
109 1 2 5.8028412924214567e-01 -2.8043460017719843e+02 1.0000000000000000e+00 1.6909780885724565e+01 1.9329718402138731e+00 1.6983906927073693e+00 
145 1 2 5.8028412924214567e-01 -3.0432420025830066e+02 1.0000000000000000e+00 1.6909780885724555e+01 1.9329718402138685e+00 1.6983906927073751e+00 
152 1 2 5.8028412924214567e-01 -2.4385935595018231e+02 1.0000000000000000e+00 1.6909780885725095e+01 1.9329718402138687e+00 1.6983906927073726e+00 
151 1 2 5.8028412924214567e-01 -2.4792880438700072e+02 1.0000000000000000e+00 1.6909780885724555e+01 1.9329718402138685e+00 1.6983906927073751e+00 
111 1 2 1.0264596136489892e+00 -3.0154881507459947e+02 1.0000000000000000e+00 1.3357576355313205e+01 5.8373071160562517e+00 7.1777911862690602e-01 
110 1 2 1.0264596136489892e+00 -3.5538427818095460e+02 1.0000000000000000e+00 1.3357576355313205e+01 5.8373071160562517e+00 7.1777911862690602e-01 
116 1 2 1.0264596136489892e+00 -3.4609963391715405e+02 1.0000000000000000e+00 1.3357576355313205e+01 5.8373071160562517e+00 7.1777911862690602e-01 
115 1 2 1.0264596136489892e+00 -3.3004460579867401e+02 1.0000000000000000e+00 1.3357576355313205e+01 5.8373071160562517e+00 7.1777911862690602e-01 
79 1 2 1.0264596136489892e+00 -3.1899135538296275e+02 1.0000000000000000e+00 1.3357576355313205e+01 5.8373071160562517e+00 7.1777911862690602e-01 
80 1 2 1.0264596136489892e+00 -3.0603139269077735e+02 1.0000000000000000e+00 1.3357576355313205e+01 5.8373071160562517e+00 7.1777911862690602e-01 
86 1 2 1.0264596136489892e+00 -2.5743640135118955e+02 1.0000000000000000e+00 1.3357576355313205e+01 5.8373071160562517e+00 7.1777911862690602e-01 
122 1 2 1.0154972261737549e+00 -2.4766886800191554e+02 1.0000000000000000e+00 1.6329394942421921e+01 8.8433404861448377e+00 5.7376024042498734e+00 
123 1 2 1.0154972261737549e+00 -3.2264114556882646e+02 1.0000000000000000e+00 1.6329394942422972e+01 8.8433404861575173e+00 5.7376024042498166e+00 
164 1 2 1.0154972261737549e+00 -3.6460713355213841e+02 1.0000000000000000e+00 1.6329394942411419e+01 8.8433404861458982e+00 5.7376024042500555e+00 
129 1 2 1.0154972261737549e+00 -2.7794048362701164e+02 1.0000000000000000e+00 1.6329394942415590e+01 8.8433404861536857e+00 5.7376024042495546e+00 
128 1 2 1.0154972261737549e+00 -3.1871045462375395e+02 1.0000000000000000e+00 1.6329394942422127e+01 8.8433404861547231e+00 5.7376024042501577e+00 
158 1 2 1.0154972261737549e+00 -2.8989066601820167e+02 1.0000000000000000e+00 1.6329394942409699e+01 8.8433404861505878e+00 5.7376024042498219e+00 
159 1 2 1.0154972261737549e+00 -2.5317197467050738e+02 1.0000000000000000e+00 1.6329394942414957e+01 8.8433404861458875e+00 5.7376024042500156e+00 
154 1 2 1.0279992878580426e+00 -3.4236180333837427e+02 1.0000000000000000e+00 1.6261964589010962e+01 2.3511948955046749e+00 1.1922898150674804e+01 
118 1 2 1.0279992878580426e+00 -2.8926326770709386e+02 1.0000000000000000e+00 1.6261964589010962e+01 2.3511948955046749e+00 1.1922898150674804e+01 
119 1 2 1.0279992878580426e+00 -2.4407549279974788e+02 1.0000000000000000e+00 1.6261964589010962e+01 2.3511948955046749e+00 1.1922898150674804e+01 
160 1 2 1.0279992878580426e+00 -2.7483331751262057e+02 1.0000000000000000e+00 1.6261964589010962e+01 2.3511948955046749e+00 1.1922898150674804e+01 
76 1 2 1.0279992878579998e+00 -3.2032781424146498e+02 1.0000000000000000e+00 1.6261960475328124e+01 2.3511934180436285e+00 1.1922895273152225e+01 
82 1 2 1.0279992879062796e+00 -3.3484659294372483e+02 1.0000000000000000e+00 1.6266336220118777e+01 2.3530616564380997e+00 1.1923876425790020e+01 
150 1 2 1.0280007121232124e+00 -3.2346935561324472e+02 1.0000000000000000e+00 1.7248665063274462e+01 2.3413909573547037e-01 1.1594387116996984e+01 
149 1 2 1.0280007121232124e+00 -3.2798804277135923e+02 1.0000000000000000e+00 1.7248665063274462e+01 2.3413909573547037e-01 1.1594387116996984e+01 
120 1 2 1.0280007121232124e+00 -4.0709993617251223e+02 1.0000000000000000e+00 1.7248665063274462e+01 2.3413909573547037e-01 1.1594387116996984e+01 
155 1 2 1.0280007121232124e+00 -2.8901646177082307e+02 1.0000000000000000e+00 1.7248665063274462e+01 2.3413909573547037e-01 1.1594387116996984e+01 
161 1 2 1.0280007121232124e+00 -2.6309957290853816e+02 1.0000000000000000e+00 1.7248665063274462e+01 2.3413909573547037e-01 1.1594387116996984e+01 
156 1 2 1.0280007121232124e+00 -3.8430620985007670e+02 1.0000000000000000e+00 1.7248665063274462e+01 2.3413909573547037e-01 1.1594387116996984e+01 
89 1 2 1.0283737622094793e+00 -3.2042357068495727e+02 1.0000000000000000e+00 1.5698215673253939e+01 7.4439416029587449e+00 1.2580527907030108e+01 
83 1 2 1.0283816291127823e+00 -3.2368907165557226e+02 1.0000000000000000e+00 1.5699471150225712e+01 7.4429256493643079e+00 1.2579622536058377e+01 
88 1 2 1.0284205622178400e+00 -3.8193825595620791e+02 1.0000000000000000e+00 1.5709209739168077e+01 7.4347279556703736e+00 1.2572729127371577e+01 
146 1 2 1.0282522244711176e+00 -3.1428784387501526e+02 1.0000000000000000e+00 1.5817270752118127e+01 7.2542147326675641e+00 1.2579005285118418e+01 
148 1 2 1.0282522244711176e+00 -2.5920442914612585e+02 1.0000000000000000e+00 1.5817270752118127e+01 7.2542147326675641e+00 1.2579005285118418e+01 
147 1 2 1.0282522244711176e+00 -3.4356301338299721e+02 1.0000000000000000e+00 1.5817270752118127e+01 7.2542147326675641e+00 1.2579005285118418e+01 
153 1 2 1.0282522244711176e+00 -3.6330601868340847e+02 1.0000000000000000e+00 1.5817270752118127e+01 7.2542147326675641e+00 1.2579005285118418e+01 
130 1 2 1.0276521972822039e+00 -1.7251891779872039e+02 1.0000000000000000e+00 1.4622592582585270e+01 7.3432358314180997e+00 1.5545896146391556e+01 
131 1 2 1.0276521972822039e+00 -1.8720797408143420e+02 1.0000000000000000e+00 1.4622592582585270e+01 7.3432358314180997e+00 1.5545896146391556e+01 
117 1 2 1.0274379143415280e+00 -3.6130915621282054e+02 1.0000000000000000e+00 1.4758207461022812e+01 7.0465128795267509e+00 1.5518952522919800e+01 
124 1 2 1.0274313696206385e+00 -4.1404724954766783e+02 1.0000000000000000e+00 1.4759312409162352e+01 7.0512536676100819e+00 1.5518765367753783e+01 
81 1 2 1.0274251118419613e+00 -4.2212817159269036e+02 1.0000000000000000e+00 1.4760671219477672e+01 7.0562065113371570e+00 1.5518827201925131e+01 
87 1 2 1.0274233432063296e+00 -3.2299731087641305e+02 1.0000000000000000e+00 1.4761061549792286e+01 7.0576651409046613e+00 1.5518856601520561e+01 
121 1 2 1.0283585583462120e+00 -2.2775467354834413e+02 1.0000000000000000e+00 1.3599256978372104e+01 6.8712705207263545e+00 1.7633539470653464e+01 
125 1 2 1.0283585583462120e+00 -2.8021804182227379e+02 1.0000000000000000e+00 1.3599256978372104e+01 6.8712705207263545e+00 1.7633539470653464e+01 
84 1 2 1.0283585583462120e+00 -3.2603664276746997e+02 1.0000000000000000e+00 1.3599256978372104e+01 6.8712705207263545e+00 1.7633539470653464e+01 
126 1 2 1.0283585583462120e+00 -3.1195528558219968e+02 1.0000000000000000e+00 1.3599256978372104e+01 6.8712705207263545e+00 1.7633539470653464e+01 
90 1 2 1.0283585583462120e+00 -3.5252823753170338e+02 1.0000000000000000e+00 1.3599256978372104e+01 6.8712705207263545e+00 1.7633539470653464e+01 
85 1 2 1.0283585583462120e+00 -2.9794610456834477e+02 1.0000000000000000e+00 1.3599256978372104e+01 6.8712705207263545e+00 1.7633539470653464e+01 
167 1 2 7.2535516155268209e-01 -3.4046922754933649e+02 1.0000000000000000e+00 1.7701221117179205e+01 8.9629782862825920e+00 1.7886103495604704e+01 
162 1 2 7.2535516155268209e-01 -3.4551253514024279e+02 1.0000000000000000e+00 1.7701221117179216e+01 8.9629782862831693e+00 1.7886103495605767e+01 
163 1 2 7.2535516155268209e-01 -3.0916143609484470e+02 1.0000000000000000e+00 1.7701221117179216e+01 8.9629782862831693e+00 1.7886103495605429e+01 
168 1 2 7.2535516155268209e-01 -4.0538409030257395e+02 1.0000000000000000e+00 1.7701221117179205e+01 8.9629782862825920e+00 1.7886103495605457e+01 
157 1 2 7.2535516155268209e-01 -3.0428701382868582e+02 1.0000000000000000e+00 1.7701221117179216e+01 8.9629782862831693e+00 1.7886103495604598e+01 
127 1 2 1.0280000000001905e+00 -3.0472822596710711e+02 1.0000000000000000e+00 1.5454465450855654e+01 1.4497298111988060e+01 3.1197949661448452e+00 
133 1 2 1.0280000000002063e+00 -3.8145279701027169e+02 1.0000000000000000e+00 1.5475426136852969e+01 1.4487890647273803e+01 3.1219102804712615e+00 
139 1 2 1.0279999999999754e+00 -3.3083522868028439e+02 1.0000000000000000e+00 1.6164171718821127e+01 1.5411788364695534e+01 2.2924898889803114e+00 
140 1 2 1.0279999999998604e+00 -3.1927362328197836e+02 1.0000000000000000e+00 1.6157662511160144e+01 1.5416566937490193e+01 2.2905683241089330e+00 
170 1 2 1.0280000000002480e+00 -4.1287734347008075e+02 1.0000000000000000e+00 1.5435042916638334e+01 1.4502502576658269e+01 3.1113547716364098e+00 
176 1 2 1.0279999999998171e+00 -2.5749462086713089e+02 1.0000000000000000e+00 1.6153907887314062e+01 1.5421340838773153e+01 2.2912869840527050e+00 
175 1 2 1.0280000000000755e+00 -2.3994548702280071e+02 1.0000000000000000e+00 1.6154506525133442e+01 1.5420665082730670e+01 2.2912397860217819e+00 
169 1 2 1.0280000000002107e+00 -3.9255093289518129e+02 1.0000000000000000e+00 1.5436111519367737e+01 1.4508558310529997e+01 3.1207331074696980e+00 
134 1 2 1.0279999999999405e+00 -2.2183056605148926e+02 1.0000000000000000e+00 1.5390276633494494e+01 1.5513797167444229e+01 2.9701230017249416e+00 
165 1 2 5.8028412924214567e-01 -3.0732393033595497e+02 1.0000000000000000e+00 1.7565119841911926e+01 1.1808096110791636e+01 8.6517717369145668e+00 
171 1 2 5.8028412924214567e-01 -3.1075159684578585e+02 1.0000000000000000e+00 1.7565119841911915e+01 1.1808096110791645e+01 8.6517717369145668e+00 
172 1 2 5.8028412924214567e-01 -2.8032969698909494e+02 1.0000000000000000e+00 1.7565119841911926e+01 1.1808096110791636e+01 8.6517717369143092e+00 
166 1 2 5.8028412924214567e-01 -2.6310594611331624e+02 1.0000000000000000e+00 1.7565119841911919e+01 1.1808096110791634e+01 8.6517717369142471e+00 
177 1 2 2.9014206462107284e-01 -2.4013973903726605e+02 1.0000000000000000e+00 1.7810393421094822e+01 1.7071221620123023e+01 8.8402484754361534e+00 
178 1 2 2.9014206462107284e-01 -2.4168777777781565e+02 1.0000000000000000e+00 1.7810393421094837e+01 1.7071221620122984e+01 8.8402484754361463e+00 
112 1 2 1.0280000000002985e+00 -3.3515902145823503e+02 1.0000000000000000e+00 1.3524847518821955e+01 1.7617182724428329e+01 1.2632849854549262e+01 
113 1 2 1.0280000000004836e+00 -3.7719602506481289e+02 1.0000000000000000e+00 1.3524847510868112e+01 1.7617182692617195e+01 1.2632849822734558e+01 
77 1 2 1.0280000000003677e+00 -3.8630940231804442e+02 1.0000000000000000e+00 1.3524847517030198e+01 1.7617182700546440e+01 1.2632849834859661e+01 
179 1 2 1.0279999999990652e+00 -2.6012855491256011e+02 1.0000000000000000e+00 1.3524846292841753e+01 1.7617184565251634e+01 1.2632850002974115e+01 
180 1 2 1.0279999999990652e+00 -2.6314373160112979e+02 1.0000000000000000e+00 1.3524846292841753e+01 1.7617184565251634e+01 1.2632850002974115e+01 
114 1 2 1.0280000000003191e+00 -3.8139927788534584e+02 1.0000000000000000e+00 1.3525077687109395e+01 1.7617196711948669e+01 1.2633091580020286e+01 
174 1 2 7.2535516155268209e-01 -2.7502072701891382e+02 1.0000000000000000e+00 1.6257284971412304e+01 1.3208209127923352e+01 1.5660549676490335e+01 
173 1 2 7.2535516155268209e-01 -2.8974135501922530e+02 1.0000000000000000e+00 1.6257284971412304e+01 1.3208209127923352e+01 1.5660549676490412e+01 
137 1 2 7.2535516155268209e-01 -2.9622392383782409e+02 1.0000000000000000e+00 1.6257284971412993e+01 1.3208209127923697e+01 1.5660549676490705e+01 
138 1 2 7.2535516155268209e-01 -2.7237041090165110e+02 1.0000000000000000e+00 1.6257284971413426e+01 1.3208209127923913e+01 1.5660549676490348e+01 
132 1 2 7.2535516155268209e-01 -2.4076369020076487e+02 1.0000000000000000e+00 1.6257284971413426e+01 1.3208209127923913e+01 1.5660549676490348e+01 

Velocities

7 2.9332526669667557e-12 3.0461151628562588e-12 2.3235446540210135e-13
8 -2.9332526669667504e-12 3.9063555826099300e-13 2.3235446540210079e-13
14 -9.2941786160834885e-13 -3.8273862793784679e-12 2.3235446540210433e-13
44 9.2941786160834057e-13 3.9063555826104545e-13 -6.9706339620621357e-13
9 5.6659416521406090e-14 -2.1392487206460915e-12 3.7867797275362863e-13
51 5.2878878001464717e-13 -2.9141396644814345e-13 -7.6295466329677240e-13
10 1.1234493031818641e-12 -1.7494992788304203e-12 1.2027395285343044e-12
45 7.8331384012894903e-13 -9.8302397752341993e-13 8.1395564473301177e-13
46 3.9650088597458943e-14 -1.0922240224725021e-13 3.8738652876852228e-13
16 -7.7410339445141992e-13 1.5525756706833501e-12 -4.9898172375217275e-13
22 -1.0623561342639983e-12 2.0239500794334729e-12 -4.9784946042957514e-13
15 -7.3941080373036659e-13 1.4697433424403819e-12 -5.2035412464224424e-13
21 4.4008904003741253e-14 2.2613925313715700e-13 -5.0261970266972721e-13
18 -1.1353741282827521e-12 -3.1527677777098775e-13 1.3277398022975513e-12
12 5.2560545034993762e-26 -3.1527677777092192e-13 1.3277398022975396e-12
13 5.4586893550362817e-26 3.4023946686624769e-12 -7.9664388137858160e-13
54 1.1353741282826580e-12 -2.7718411131211136e-12 -1.8588357232167239e-12
19 7.3219516840673379e-14 5.2104341133573412e-13 5.6745125551475689e-13
20 -5.8575613472479118e-13 -4.9959407320650997e-12 -3.6609758420296026e-13
25 5.1253661788432916e-13 4.4748973207284303e-12 -2.0135367131160117e-13
31 1.7368894386080715e-13 2.3158525848120375e-13 -2.2035388130710205e-13
1 2.2000599555712050e-12 -9.2634103392481681e-13 -1.1179829139404317e-13
2 1.7368894386080715e-13 2.3158525848120375e-13 -2.2035388130710205e-13
6 -1.2737189216467592e-12 2.3158525848120435e-13 2.7625302700416067e-13
36 -1.2737189216467592e-12 2.3158525848120435e-13 2.7625302700416067e-13
26 -1.9916097034465916e-13 1.4162311530440341e-12 -1.1855856690539360e-13
32 -1.9916097034465893e-13 1.4162311530440345e-12 -1.9773942901220906e-12
33 6.6386990114871622e-14 3.5403931120572980e-13 4.0733471471489138e-12
68 3.3193495057440177e-13 -3.1865016172939587e-12 -1.9773942901219133e-12
4 1.7368894386092051e-12 -2.9952671212784708e-12 2.1319117519490853e-12
3 1.7368894386092051e-12 -2.9952671212784708e-12 2.1319117519490853e-12
40 -1.1579262924062095e-12 1.7686769583703833e-11 -6.8926011387248115e-12
70 -1.1579262924060459e-12 -1.2258677460527767e-11 -3.5558761405442486e-12
69 -1.1579262924059987e-12 5.6244211938207462e-13 6.1846537753701355e-12
28 -4.1132449587770705e-12 8.7572512800499986e-12 -1.1140366482485457e-12
34 8.8357045314321534e-13 -6.0311552354318215e-12 5.0351097391994016e-12
35 8.8357045314330884e-13 -8.3470078202442603e-12 -1.1140366482490510e-12
29 1.1730520262448144e-12 -3.1363395044172067e-12 -1.1140366482490512e-12
27 1.1730520262450148e-12 8.7572512800502167e-12 -1.6929997944516477e-12
38 -3.3647847543351886e-12 1.4192176603529653e-13 -2.0054396898097389e-12
74 6.3126030881368995e-13 1.4192176603531680e-13 -6.1360989343784048e-13
75 6.0983091998557055e-12 -1.4192176603529882e-13 6.1360989343793600e-13