LAMMPS data file via write_data, version 30 Jul 2016, timestep = 600000

2080 atoms
8 atom types

0.0000000000000000e+00 4.0000000000000000e+01 xlo xhi
0.0000000000000000e+00 4.0000000000000000e+01 ylo yhi
0.0000000000000000e+00 1.0000000000000000e+02 zlo zhi

Masses

1 3.896
2 40.306
3 20.064
4 8.378
5 8.378
6 8.378
7 8.378
8 8.378

Atoms # meso-molecular

1 2 4 2.2559723595316457e+00 9.8852571836863644e+05 1.0000000000000000e+00 0.0000000000000000e+00 0.0000000000000000e+00 2.5000000000000000e+00 
2 2 4 2.2559723595316457e+00 1.0019348916573578e+06 1.0000000000000000e+00 0.0000000000000000e+00 2.0000000000000000e+00 2.5000000000000000e+00 
21 2 4 2.2559723595316457e+00 7.6320150201072521e+05 1.0000000000000000e+00 2.0000000000000000e+00 0.0000000000000000e+00 2.5000000000000000e+00 
22 2 4 2.2559723595316457e+00 7.4296463283543265e+05 1.0000000000000000e+00 2.0000000000000000e+00 2.0000000000000000e+00 2.5000000000000000e+00 
41 2 4 2.2559723595316457e+00 5.2705386307969247e+05 1.0000000000000000e+00 4.0000000000000000e+00 0.0000000000000000e+00 2.5000000000000000e+00 
42 2 4 2.2559723595316457e+00 7.4903206380134774e+05 1.0000000000000000e+00 4.0000000000000000e+00 2.0000000000000000e+00 2.5000000000000000e+00 
61 2 4 2.2559723595314063e+00 4.7723879016775923e+05 1.0000000000000000e+00 6.0000000000000000e+00 0.0000000000000000e+00 2.5000000000000000e+00 
62 2 4 2.2559723595316457e+00 6.6765700464656646e+05 1.0000000000000000e+00 6.0000000000000000e+00 2.0000000000000000e+00 2.5000000000000000e+00 
81 2 4 2.2559723595316457e+00 5.0693626872558979e+05 1.0000000000000000e+00 8.0000000000000000e+00 0.0000000000000000e+00 2.5000000000000000e+00 
82 2 4 2.2559723595316457e+00 7.2525481460314710e+05 1.0000000000000000e+00 8.0000000000000000e+00 2.0000000000000000e+00 2.5000000000000000e+00 
101 2 4 2.2559723595316457e+00 5.0747890710983507e+05 1.0000000000000000e+00 1.0000000000000000e+01 0.0000000000000000e+00 2.5000000000000000e+00 
102 2 4 2.2559723595316457e+00 8.1526748479499598e+05 1.0000000000000000e+00 1.0000000000000000e+01 2.0000000000000000e+00 2.5000000000000000e+00 
121 2 4 2.2559723595367283e+00 9.1558546991878760e+05 1.0000000000000000e+00 1.2000000000000000e+01 0.0000000000000000e+00 2.5000000000000000e+00 
122 2 4 2.2559723595316457e+00 9.2424283305370668e+05 1.0000000000000000e+00 1.2000000000000000e+01 2.0000000000000000e+00 2.5000000000000000e+00 
141 2 4 2.2559723595316457e+00 9.2559095717960317e+05 1.0000000000000000e+00 1.4000000000000000e+01 0.0000000000000000e+00 2.5000000000000000e+00 
142 2 4 2.2559723595316457e+00 9.8439507149214135e+05 1.0000000000000000e+00 1.4000000000000000e+01 2.0000000000000000e+00 2.5000000000000000e+00 
161 2 4 2.2559723595316457e+00 7.2868826858285489e+05 1.0000000000000000e+00 1.6000000000000000e+01 0.0000000000000000e+00 2.5000000000000000e+00 
162 2 4 2.2559725139904812e+00 8.6829127896730171e+05 1.0000000000000000e+00 1.6000000000000000e+01 2.0000000000000000e+00 2.5000000000000000e+00 
181 2 4 2.2559723595316457e+00 6.3079990359829646e+05 1.0000000000000000e+00 1.8000000000000000e+01 0.0000000000000000e+00 2.5000000000000000e+00 
182 2 4 2.2559723595316457e+00 8.5515484809670830e+05 1.0000000000000000e+00 1.8000000000000000e+01 2.0000000000000000e+00 2.5000000000000000e+00 
3 2 4 2.2559723595316457e+00 9.6608895866922894e+05 1.0000000000000000e+00 0.0000000000000000e+00 4.0000000000000000e+00 2.5000000000000000e+00 
4 2 4 2.2559723595316457e+00 7.4370108212248422e+05 1.0000000000000000e+00 0.0000000000000000e+00 6.0000000000000000e+00 2.5000000000000000e+00 
23 2 4 2.2559723595316457e+00 8.0097437425342156e+05 1.0000000000000000e+00 2.0000000000000000e+00 4.0000000000000000e+00 2.5000000000000000e+00 
24 2 4 2.2559723595316457e+00 7.4328105522517371e+05 1.0000000000000000e+00 2.0000000000000000e+00 6.0000000000000000e+00 2.5000000000000000e+00 
43 2 4 2.2559723595316457e+00 7.5010241911536874e+05 1.0000000000000000e+00 4.0000000000000000e+00 4.0000000000000000e+00 2.5000000000000000e+00 
44 2 4 2.2559723595316457e+00 7.3895848323259177e+05 1.0000000000000000e+00 4.0000000000000000e+00 6.0000000000000000e+00 2.5000000000000000e+00 
63 2 4 2.2559723595316457e+00 8.1172355599930394e+05 1.0000000000000000e+00 6.0000000000000000e+00 4.0000000000000000e+00 2.5000000000000000e+00 
64 2 4 2.2559723595316457e+00 8.0603846908231685e+05 1.0000000000000000e+00 6.0000000000000000e+00 6.0000000000000000e+00 2.5000000000000000e+00 
83 2 4 2.2559723595316457e+00 7.9270662519926764e+05 1.0000000000000000e+00 8.0000000000000000e+00 4.0000000000000000e+00 2.5000000000000000e+00 
84 2 4 2.2559723595316457e+00 8.2410932671647868e+05 1.0000000000000000e+00 8.0000000000000000e+00 6.0000000000000000e+00 2.5000000000000000e+00 
103 2 4 2.2559723595316457e+00 8.9536656220548507e+05 1.0000000000000000e+00 1.0000000000000000e+01 4.0000000000000000e+00 2.5000000000000000e+00 
104 2 4 2.2559723595316457e+00 8.8025378612469207e+05 1.0000000000000000e+00 1.0000000000000000e+01 6.0000000000000000e+00 2.5000000000000000e+00 
123 2 4 2.2559723595316457e+00 8.9941023819772387e+05 1.0000000000000000e+00 1.2000000000000000e+01 4.0000000000000000e+00 2.5000000000000000e+00 
124 2 4 2.2559723595316457e+00 9.0679067391723278e+05 1.0000000000000000e+00 1.2000000000000000e+01 6.0000000000000000e+00 2.5000000000000000e+00 
143 2 4 2.2559723595316457e+00 9.0599393743321882e+05 1.0000000000000000e+00 1.4000000000000000e+01 4.0000000000000000e+00 2.5000000000000000e+00 
144 2 4 2.2559724130320600e+00 8.7854702559536649e+05 1.0000000000000000e+00 1.4000000000000000e+01 6.0000000000000000e+00 2.5000000000000000e+00 
163 2 4 2.2559723595316457e+00 8.5286225529464963e+05 1.0000000000000000e+00 1.6000000000000000e+01 4.0000000000000000e+00 2.5000000000000000e+00 
164 2 4 2.2559723595316457e+00 9.2258061932874168e+05 1.0000000000000000e+00 1.6000000000000000e+01 6.0000000000000000e+00 2.5000000000000000e+00 
183 2 4 2.2559723595316457e+00 8.9444145812188182e+05 1.0000000000000000e+00 1.8000000000000000e+01 4.0000000000000000e+00 2.5000000000000000e+00 
184 2 4 2.2559723595316457e+00 9.1942979713679873e+05 1.0000000000000000e+00 1.8000000000000000e+01 6.0000000000000000e+00 2.5000000000000000e+00 
5 2 4 2.2559723595316457e+00 6.3316083557250304e+05 1.0000000000000000e+00 0.0000000000000000e+00 8.0000000000000000e+00 2.5000000000000000e+00 
6 2 4 2.2559723595316457e+00 9.0909031760155619e+05 1.0000000000000000e+00 0.0000000000000000e+00 1.0000000000000000e+01 2.5000000000000000e+00 
25 2 4 2.2559723595316457e+00 8.1510603087617550e+05 1.0000000000000000e+00 2.0000000000000000e+00 8.0000000000000000e+00 2.5000000000000000e+00 
26 2 4 2.2559723595316457e+00 8.5533669143276941e+05 1.0000000000000000e+00 2.0000000000000000e+00 1.0000000000000000e+01 2.5000000000000000e+00 
45 2 4 2.2559723595316457e+00 8.5227779247312900e+05 1.0000000000000000e+00 4.0000000000000000e+00 8.0000000000000000e+00 2.5000000000000000e+00 
46 2 4 2.2559723595316457e+00 8.9039544620873081e+05 1.0000000000000000e+00 4.0000000000000000e+00 1.0000000000000000e+01 2.5000000000000000e+00 
65 2 4 2.2559723595316457e+00 8.6119717819881137e+05 1.0000000000000000e+00 6.0000000000000000e+00 8.0000000000000000e+00 2.5000000000000000e+00 
66 2 4 2.2559723595316457e+00 8.5121015635070787e+05 1.0000000000000000e+00 6.0000000000000000e+00 1.0000000000000000e+01 2.5000000000000000e+00 
85 2 4 2.2559723595316457e+00 8.9807238551316946e+05 1.0000000000000000e+00 8.0000000000000000e+00 8.0000000000000000e+00 2.5000000000000000e+00 
86 2 4 2.2559723595316457e+00 9.5398639193619112e+05 1.0000000000000000e+00 8.0000000000000000e+00 1.0000000000000000e+01 2.5000000000000000e+00 
105 2 4 2.2559723595316457e+00 8.8735986995805241e+05 1.0000000000000000e+00 1.0000000000000000e+01 8.0000000000000000e+00 2.5000000000000000e+00 
106 2 4 2.2559723595316457e+00 9.1134196645849966e+05 1.0000000000000000e+00 1.0000000000000000e+01 1.0000000000000000e+01 2.5000000000000000e+00 
125 2 4 2.2559723689254354e+00 9.3956169327276142e+05 1.0000000000000000e+00 1.2000000000000000e+01 8.0000000000000000e+00 2.5000000000000000e+00 
126 2 4 2.2559723595316457e+00 9.5328688618385582e+05 1.0000000000000000e+00 1.2000000000000000e+01 1.0000000000000000e+01 2.5000000000000000e+00 
145 2 4 2.2559723595316457e+00 8.8585761417261744e+05 1.0000000000000000e+00 1.4000000000000000e+01 8.0000000000000000e+00 2.5000000000000000e+00 
146 2 4 2.2559723595316457e+00 9.4292163110432634e+05 1.0000000000000000e+00 1.4000000000000000e+01 1.0000000000000000e+01 2.5000000000000000e+00 
165 2 4 2.2559723595316457e+00 8.4954692016626918e+05 1.0000000000000000e+00 1.6000000000000000e+01 8.0000000000000000e+00 2.5000000000000000e+00 
166 2 4 2.2559723595316457e+00 8.9825378434899845e+05 1.0000000000000000e+00 1.6000000000000000e+01 1.0000000000000000e+01 2.5000000000000000e+00 
185 2 4 2.2559723595316457e+00 7.9705682606068859e+05 1.0000000000000000e+00 1.8000000000000000e+01 8.0000000000000000e+00 2.5000000000000000e+00 
186 2 4 2.2559723595316457e+00 7.0466766816101572e+05 1.0000000000000000e+00 1.8000000000000000e+01 1.0000000000000000e+01 2.5000000000000000e+00 
7 2 4 2.2559723595316457e+00 8.5961853290273785e+05 1.0000000000000000e+00 0.0000000000000000e+00 1.2000000000000000e+01 2.5000000000000000e+00 
8 2 4 2.2559723595316457e+00 6.9473246509501385e+05 1.0000000000000000e+00 0.0000000000000000e+00 1.4000000000000000e+01 2.5000000000000000e+00 
27 2 4 2.2559723595316457e+00 8.6617532537309034e+05 1.0000000000000000e+00 2.0000000000000000e+00 1.2000000000000000e+01 2.5000000000000000e+00 
28 2 4 2.2559723595316457e+00 8.2574168826013338e+05 1.0000000000000000e+00 2.0000000000000000e+00 1.4000000000000000e+01 2.5000000000000000e+00 
47 2 4 2.2559723595316457e+00 8.2647617267025937e+05 1.0000000000000000e+00 4.0000000000000000e+00 1.2000000000000000e+01 2.5000000000000000e+00 
48 2 4 2.2559723595316457e+00 7.4811709281601710e+05 1.0000000000000000e+00 4.0000000000000000e+00 1.4000000000000000e+01 2.5000000000000000e+00 
67 2 4 2.2559723595316457e+00 9.6962757788660354e+05 1.0000000000000000e+00 6.0000000000000000e+00 1.2000000000000000e+01 2.5000000000000000e+00 
68 2 4 2.2559723595316457e+00 9.0169007620194461e+05 1.0000000000000000e+00 6.0000000000000000e+00 1.4000000000000000e+01 2.5000000000000000e+00 
87 2 4 2.2559723595316457e+00 9.3876987906512315e+05 1.0000000000000000e+00 8.0000000000000000e+00 1.2000000000000000e+01 2.5000000000000000e+00 
88 2 4 2.2559723595316457e+00 1.0013255185251663e+06 1.0000000000000000e+00 8.0000000000000000e+00 1.4000000000000000e+01 2.5000000000000000e+00 
107 2 4 2.2559723595316457e+00 1.0313077972754734e+06 1.0000000000000000e+00 1.0000000000000000e+01 1.2000000000000000e+01 2.5000000000000000e+00 
108 2 4 2.2559723595316457e+00 1.1034832179050245e+06 1.0000000000000000e+00 1.0000000000000000e+01 1.4000000000000000e+01 2.5000000000000000e+00 
127 2 4 2.2559723595316457e+00 1.0209034715125147e+06 1.0000000000000000e+00 1.2000000000000000e+01 1.2000000000000000e+01 2.5000000000000000e+00 
128 2 4 2.2559723595316457e+00 9.6795772809677571e+05 1.0000000000000000e+00 1.2000000000000000e+01 1.4000000000000000e+01 2.5000000000000000e+00 
147 2 4 2.2559723595316457e+00 1.0060677140827680e+06 1.0000000000000000e+00 1.4000000000000000e+01 1.2000000000000000e+01 2.5000000000000000e+00 
148 2 4 2.2559723595316457e+00 9.6235597856947035e+05 1.0000000000000000e+00 1.4000000000000000e+01 1.4000000000000000e+01 2.5000000000000000e+00 
167 2 4 2.2559723595316457e+00 1.0002456116865880e+06 1.0000000000000000e+00 1.6000000000000000e+01 1.2000000000000000e+01 2.5000000000000000e+00 
168 2 4 2.2559723595316457e+00 1.1478441298449980e+06 1.0000000000000000e+00 1.6000000000000000e+01 1.4000000000000000e+01 2.5000000000000000e+00 
187 2 4 2.2559723595316457e+00 9.9671256151554058e+05 1.0000000000000000e+00 1.8000000000000000e+01 1.2000000000000000e+01 2.5000000000000000e+00 
188 2 4 2.2559723595316457e+00 1.0987478175222813e+06 1.0000000000000000e+00 1.8000000000000000e+01 1.4000000000000000e+01 2.5000000000000000e+00 
9 2 4 2.2559723595316457e+00 7.7042179520469671e+05 1.0000000000000000e+00 0.0000000000000000e+00 1.6000000000000000e+01 2.5000000000000000e+00 
10 2 4 2.2559723595316457e+00 3.1714130272625142e+05 1.0000000000000000e+00 0.0000000000000000e+00 1.8000000000000000e+01 2.5000000000000000e+00 
29 2 4 2.2559723595316457e+00 7.7639434512594785e+05 1.0000000000000000e+00 2.0000000000000000e+00 1.6000000000000000e+01 2.5000000000000000e+00 
30 2 4 2.2559723595316457e+00 5.6969712281182036e+05 1.0000000000000000e+00 2.0000000000000000e+00 1.8000000000000000e+01 2.5000000000000000e+00 
49 2 4 2.2559723595316457e+00 7.7473204749647831e+05 1.0000000000000000e+00 4.0000000000000000e+00 1.6000000000000000e+01 2.5000000000000000e+00 
50 2 4 2.2559723595316457e+00 7.3485642045136890e+05 1.0000000000000000e+00 4.0000000000000000e+00 1.8000000000000000e+01 2.5000000000000000e+00 
69 2 4 2.2559723595316457e+00 8.7758874984747730e+05 1.0000000000000000e+00 6.0000000000000000e+00 1.6000000000000000e+01 2.5000000000000000e+00 
70 2 4 2.2559723595316457e+00 8.4332806671848148e+05 1.0000000000000000e+00 6.0000000000000000e+00 1.8000000000000000e+01 2.5000000000000000e+00 
89 2 4 2.2559723595316457e+00 9.3907105804857565e+05 1.0000000000000000e+00 8.0000000000000000e+00 1.6000000000000000e+01 2.5000000000000000e+00 
90 2 4 2.2559723595316457e+00 9.5111797567309975e+05 1.0000000000000000e+00 8.0000000000000000e+00 1.8000000000000000e+01 2.5000000000000000e+00 
109 2 4 2.2559723595316457e+00 8.6516813569074823e+05 1.0000000000000000e+00 1.0000000000000000e+01 1.6000000000000000e+01 2.5000000000000000e+00 
110 2 4 2.2559723595316457e+00 8.2924063151387637e+05 1.0000000000000000e+00 1.0000000000000000e+01 1.8000000000000000e+01 2.5000000000000000e+00 
129 2 4 2.2559723595316457e+00 9.6009256245145248e+05 1.0000000000000000e+00 1.2000000000000000e+01 1.6000000000000000e+01 2.5000000000000000e+00 
130 2 4 2.2559723595316457e+00 8.2277667801208515e+05 1.0000000000000000e+00 1.2000000000000000e+01 1.8000000000000000e+01 2.5000000000000000e+00 
149 2 4 2.2559723595316457e+00 8.8966989039453818e+05 1.0000000000000000e+00 1.4000000000000000e+01 1.6000000000000000e+01 2.5000000000000000e+00 
150 2 4 2.2559723595316457e+00 8.6483277324323566e+05 1.0000000000000000e+00 1.4000000000000000e+01 1.8000000000000000e+01 2.5000000000000000e+00 
169 2 4 2.2559723595316457e+00 9.2974590372536564e+05 1.0000000000000000e+00 1.6000000000000000e+01 1.6000000000000000e+01 2.5000000000000000e+00 
170 2 4 2.2559723595316457e+00 9.6615813004143292e+05 1.0000000000000000e+00 1.6000000000000000e+01 1.8000000000000000e+01 2.5000000000000000e+00 
189 2 4 2.2559723595316457e+00 1.0156629263495230e+06 1.0000000000000000e+00 1.8000000000000000e+01 1.6000000000000000e+01 2.5000000000000000e+00 
190 2 4 2.2559723595316457e+00 1.0790120164008117e+06 1.0000000000000000e+00 1.8000000000000000e+01 1.8000000000000000e+01 2.5000000000000000e+00 
1359 961 2 1.0281857409237214e+00 -7.0623916991596520e+07 1.0000000000000000e+00 1.7700786252804210e+00 3.9609446601461333e+00 1.1966668822993359e+01 
1934 1536 2 1.0280510907895315e+00 2.9539819738828089e+07 1.0000000000000000e+00 2.8513042153096366e+00 1.5661552337831068e+00 9.0220877615279456e+00 
812 414 2 1.0278087644801459e+00 2.4578396277362753e+07 1.0000000000000000e+00 2.3718260501532336e+00 6.8505784115661505e-01 1.2414955645572858e+01 
449 51 2 1.0281054938174961e+00 3.4872209289942808e+07 1.0000000000000000e+00 7.7426105552399855e+00 8.3414894093881831e-01 1.2168204592559263e+01 
1169 771 2 1.0280029210322388e+00 6.2401139650253281e+07 1.0000000000000000e+00 6.2852963096186381e+00 3.3915551477896083e-01 8.6107873176764596e+00 
1674 1276 2 1.0279546466886649e+00 -6.2524557417422749e+07 1.0000000000000000e+00 8.9734286755690409e+00 3.2667676886301789e+00 1.0894243396246106e+01 
1582 1184 2 1.0281597332957872e+00 -4.1522541221788801e+07 1.0000000000000000e+00 9.8840632584372408e+00 1.0156126367069369e+00 8.5580332555636200e+00 
1849 1451 2 1.0281530544668913e+00 3.3663343168324418e+07 1.0000000000000000e+00 1.1962050404369608e+01 1.0745172619726006e-02 8.4949583140588825e+00 
1888 1490 2 1.0277464492095199e+00 3.3253406464303829e+07 1.0000000000000000e+00 1.3879487939886088e+01 2.6663860748795858e+00 8.5225667182263543e+00 
2053 1655 2 1.0286262517950695e+00 4.3544907441491716e+07 1.0000000000000000e+00 1.5772901305451429e+01 1.9127754745589460e+00 8.4197040697329193e+00 
1801 1403 2 1.0280084727468535e+00 3.7468663171143696e+07 1.0000000000000000e+00 1.6770942815591976e+01 3.7241387683196168e+00 8.9526910023478621e+00 
1285 887 2 1.0280194554164674e+00 5.1659789186194390e+07 1.0000000000000000e+00 2.5500040444542380e+00 4.4670213760646211e+00 8.4842730123617258e+00 
1283 885 2 1.0278811952025475e+00 -6.6506794425895557e+07 1.0000000000000000e+00 1.7239018078237782e+00 6.9914196801932684e+00 1.1373209665169680e+01 
1543 1145 2 1.0281445024052132e+00 -6.3972194839804187e+07 1.0000000000000000e+00 2.0008777580433259e+00 7.1925388118450817e+00 8.6739330900091147e+00 
1738 1340 2 1.0279132372535831e+00 -4.2400937548264936e+07 1.0000000000000000e+00 5.0748151350787980e+00 4.8019122477391560e+00 8.5562879668904319e+00 
2070 1672 2 1.0281321890340427e+00 2.8210853503343645e+07 1.0000000000000000e+00 5.9903205765850220e+00 7.1359885850963707e+00 1.2179428851982083e+01 
1080 682 2 1.0281158011519174e+00 3.4763686286425702e+07 1.0000000000000000e+00 7.0711165872268866e+00 5.0510247013934970e+00 8.5670759509781060e+00 
922 524 2 1.0278353445809882e+00 -6.3146516220727749e+07 1.0000000000000000e+00 9.6723932238225458e+00 5.0716994079599260e+00 8.4893048005272593e+00 
751 353 2 1.0284615984682350e+00 -6.7415064708459571e+07 1.0000000000000000e+00 1.1872731574844764e+01 4.9723606407748706e+00 1.0077655570689743e+01 
1081 683 2 1.0278203935037573e+00 3.3933760425366081e+07 1.0000000000000000e+00 1.1927598261507956e+01 7.9094198142383769e+00 8.4617395844790533e+00 
1750 1352 2 1.0282244569120400e+00 -1.7729146628219292e+07 1.0000000000000000e+00 1.4823926072748034e+01 6.6498647983583004e+00 8.3492461635065798e+00 
2056 1658 2 1.0281457863780579e+00 4.4494667788623355e+07 1.0000000000000000e+00 1.8981689193158022e+01 7.0463764444364063e+00 1.1169079220509921e+01 
1832 1434 2 1.0282588968357238e+00 4.4817335487610452e+07 1.0000000000000000e+00 1.9455046248330845e+01 5.2756616054256558e+00 1.0321389264115245e+01 
556 158 2 1.0280191681230919e+00 3.5562422156863302e+07 1.0000000000000000e+00 9.9930596868430077e-01 1.0108342417491707e+01 8.5391526066306405e+00 
569 171 2 1.0279905016801028e+00 2.9182531464455336e+07 1.0000000000000000e+00 2.8145311536186481e+00 9.9735834658548832e+00 1.1886302009175774e+01 
1161 763 2 1.0279705545094004e+00 6.8368619977802098e+07 1.0000000000000000e+00 6.2383256934486422e+00 9.0253103590851538e+00 8.8380847406913734e+00 
782 384 2 1.0280356032653275e+00 -6.6477950331009500e+07 1.0000000000000000e+00 4.9922100547703012e+00 9.9572878039758095e+00 8.4939820142981173e+00 
606 208 2 1.0281827018200511e+00 -3.9252295286882475e+07 1.0000000000000000e+00 8.8681137490134692e+00 8.5451186043822371e+00 9.7505984451642025e+00 
1867 1469 2 1.0280548576108055e+00 -4.8138419373493113e+07 1.0000000000000000e+00 1.0565257098099220e+01 1.0893052745442054e+01 8.5533149331653124e+00 
518 120 2 1.0280170139798983e+00 3.2004944622835401e+07 1.0000000000000000e+00 1.1593178932096084e+01 1.1759199237156926e+01 1.1341789851255850e+01 
802 404 2 1.0281870373474140e+00 -6.9323814542858496e+07 1.0000000000000000e+00 1.3426025563995333e+01 8.9334618939366663e+00 1.0904403665169067e+01 
679 281 2 1.0281371559746795e+00 -3.8678542985041529e+07 1.0000000000000000e+00 1.5583592328374872e+01 1.0741009100553596e+01 8.6368350122415194e+00 
1208 810 2 1.0279519706086717e+00 5.1173078438790329e+07 1.0000000000000000e+00 1.6234350354431204e+01 8.0102343236590947e+00 8.7889845837738729e+00 
1838 1440 2 1.0281601388572035e+00 -4.6118302942423686e+07 1.0000000000000000e+00 1.9041638719299073e+01 9.9534982510760184e+00 1.1782303987516828e+01 
1710 1312 2 1.0278376542469891e+00 -7.5607415246577606e+07 1.0000000000000000e+00 9.1063754328421542e-01 1.5016227504032710e+01 8.9014664102868686e+00 
1477 1079 2 1.0279849069864706e+00 3.6860169864813730e+07 1.0000000000000000e+00 4.7032606706030222e+00 1.2756993163495512e+01 8.4743673055614082e+00 
521 123 2 1.0281594445430779e+00 3.6266757553995661e+07 1.0000000000000000e+00 4.1803021197464911e+00 1.3458986705850689e+01 1.0772102156699349e+01 
498 100 2 1.0280022825932342e+00 3.5942591902369067e+07 1.0000000000000000e+00 5.6148791709009664e+00 1.5090739406326918e+01 8.4472060160734568e+00 
954 556 2 1.0282165104564511e+00 -7.0410995105187222e+07 1.0000000000000000e+00 9.8696908305353048e+00 1.5936895875542342e+01 8.7974855460593950e+00 
474 76 2 1.0280144682361096e+00 3.3207217986093432e+07 1.0000000000000000e+00 1.0468034300166812e+01 1.4748143523362753e+01 8.5958061309658707e+00 
1975 1577 2 1.0280343542624544e+00 3.0972003802294120e+07 1.0000000000000000e+00 1.2339877786840109e+01 1.2417554444532357e+01 8.4967371886511547e+00 
772 374 2 1.0281696443173585e+00 2.7651257512798760e+07 1.0000000000000000e+00 1.5384673951441343e+01 1.5674810617726941e+01 8.8643284919977727e+00 
973 575 2 1.0278124578932242e+00 3.6521007300629519e+07 1.0000000000000000e+00 1.6080073327994263e+01 1.2250806393767300e+01 1.0419839655992156e+01 
674 276 2 1.0281063622283910e+00 -4.0903475497924581e+07 1.0000000000000000e+00 1.8525989163492206e+01 1.2487162848850337e+01 8.5848982272961294e+00 
1360 962 2 1.0281251425448601e+00 5.4958646766230933e+07 1.0000000000000000e+00 1.8663252532008723e+01 1.5780703933713028e+01 1.2456412892020889e+01 
787 389 2 1.0280195893748549e+00 -6.2409241879482284e+07 1.0000000000000000e+00 1.9291421341189718e+01 1.4260923924836737e+01 8.4948550800498897e+00 
913 515 2 1.0280832075827548e+00 2.4866003172543470e+07 1.0000000000000000e+00 2.8316543809611883e-01 1.6031143827191485e+01 8.6551857370738734e+00 
1732 1334 2 1.0278565330811380e+00 3.0637690178944942e+07 1.0000000000000000e+00 1.5114614837645637e+00 1.9694104115844091e+01 8.9527863855457461e+00 
1723 1325 2 1.0282450301549559e+00 -6.8021833133991137e+07 1.0000000000000000e+00 1.5333638736334707e+00 1.8168909101740116e+01 1.1235705308682030e+01 
1055 657 2 1.0280248736473965e+00 -6.9448439296662942e+07 1.0000000000000000e+00 5.4543563352648752e+00 1.6991036011419801e+01 8.8403362524175790e+00 
1977 1579 2 1.0279404930929097e+00 3.5804883891167492e+07 1.0000000000000000e+00 4.7644761764113417e+00 1.9105754121231861e+01 1.1907604576875491e+01 
552 154 2 1.0281590081589305e+00 3.8623702993646778e+07 1.0000000000000000e+00 5.7054737816793661e+00 1.9774689900406887e+01 8.4632111091639857e+00 
1431 1033 2 1.0279220610108368e+00 -6.6887508465394907e+07 1.0000000000000000e+00 8.3189191031246974e+00 1.7016105644654562e+01 1.0998165842435514e+01 
924 526 2 1.0279643069740880e+00 2.6738733427265830e+07 1.0000000000000000e+00 1.1746018106661792e+01 1.9258141346712708e+01 8.4200899632930870e+00 
1176 778 2 1.0279465900432212e+00 6.4851437239355817e+07 1.0000000000000000e+00 1.3461056436531203e+01 1.6943689311878295e+01 1.0458580400032327e+01 
1918 1520 2 1.0282940656493831e+00 2.8176944927503385e+07 1.0000000000000000e+00 1.3708021171911136e+01 1.9636972044207948e+01 8.4261216366415290e+00 
1800 1402 2 1.0278911025398672e+00 2.7808749889219061e+07 1.0000000000000000e+00 1.6343355249977076e+01 1.7216941826523595e+01 8.9571571947596738e+00 
1767 1369 2 1.0281733837845386e+00 -4.2449400334883705e+07 1.0000000000000000e+00 1.7377340830833074e+01 1.9871238327065559e+01 1.1350611057698606e+01 
1880 1482 2 1.0280625721215562e+00 6.1259695031981446e+07 1.0000000000000000e+00 1.9993121735310361e+01 1.7391263324417899e+01 1.1715384863953988e+01 
1084 686 2 1.0281429869719836e+00 3.4771440917871162e+07 1.0000000000000000e+00 1.0940374358618530e+00 5.9247704329925421e-01 1.5543868678940450e+01 
1537 1139 2 1.0279771731862775e+00 2.9184839800993837e+07 1.0000000000000000e+00 4.0003885487538779e+00 2.5422617655328872e+00 1.6214619696872465e+01 
633 235 2 1.0281958597730072e+00 3.8050951385116979e+07 1.0000000000000000e+00 5.7202416764734876e+00 2.4191554163327322e+00 1.3107141116065451e+01 
1137 739 2 1.0280224849103035e+00 6.1409432786254913e+07 1.0000000000000000e+00 1.0277285297639063e+01 9.7096599601335265e-01 1.5217353161217066e+01 
717 319 2 1.0278774174773486e+00 3.0096115874499738e+07 1.0000000000000000e+00 1.2455531952890528e+01 3.5824170498275136e+00 1.3573188277936353e+01 
1405 1007 2 1.0283423820389681e+00 3.7509595656310655e+07 1.0000000000000000e+00 1.5688256081682567e+01 2.7251614926578100e+00 1.4436480291053202e+01 
710 312 2 1.0280385144480670e+00 -4.0494333329539418e+07 1.0000000000000000e+00 1.8107582288714596e+01 3.5598464573782151e+00 1.2893205004729101e+01 
512 114 2 1.0281437289751811e+00 3.7996781775397480e+07 1.0000000000000000e+00 6.8005040573954467e-01 5.3164690879559062e+00 1.4908469704432244e+01 
1650 1252 2 1.0280804505441252e+00 -5.7798270158834502e+07 1.0000000000000000e+00 4.9117113373476089e+00 4.7355013962220767e+00 1.2835553771482600e+01 
635 237 2 1.0281241277691893e+00 -4.3960076188094445e+07 1.0000000000000000e+00 9.4684978076168882e+00 4.1551976543023956e+00 1.4840279383040022e+01 
1052 654 2 1.0281133231226485e+00 4.5275267065691732e+07 1.0000000000000000e+00 9.6155223534211771e+00 7.9400683198462101e+00 1.5064382404701931e+01 
953 555 2 1.0279150853119441e+00 3.7880222991619796e+07 1.0000000000000000e+00 9.3758603310925981e+00 7.9436418323020961e+00 1.3004721138088952e+01 
588 190 2 1.0281048984902241e+00 3.0521644362402610e+07 1.0000000000000000e+00 1.2095024850986677e+01 5.5229120109571177e+00 1.3819160085534898e+01 
842 444 2 1.0282055169619608e+00 -6.3003709073246077e+07 1.0000000000000000e+00 1.5246188766483417e+01 7.6019736595256475e+00 1.6321024034896091e+01 
1199 801 2 1.0279885667397088e+00 -6.6112206904107802e+07 1.0000000000000000e+00 1.5939802869945172e+01 5.9825682038078325e+00 1.2687395652633656e+01 
1715 1317 2 1.0279763154849182e+00 -6.8804074225336239e+07 1.0000000000000000e+00 1.7168501364996349e+01 7.2254954633775315e+00 1.4903584316572871e+01 
799 401 2 1.0281903767420242e+00 -6.6270546022293113e+07 1.0000000000000000e+00 1.6985607985558024e+00 8.5705932997429439e+00 1.4892931945837644e+01 
444 46 2 1.0280220640574174e+00 3.9184548076112799e+07 1.0000000000000000e+00 2.7531944411785036e-01 1.0552521826592743e+01 1.5208775704645442e+01 
1774 1376 2 1.0280794721797062e+00 -3.9983827751186445e+07 1.0000000000000000e+00 4.8894932266543156e+00 8.1382506669405856e+00 1.4513392698589966e+01 
507 109 2 1.0278906183745862e+00 4.1530886477964424e+07 1.0000000000000000e+00 5.5846945350875599e+00 1.0981778092109355e+01 1.3060254837954998e+01 
889 491 2 1.0281015747322948e+00 2.9606659199916296e+07 1.0000000000000000e+00 7.7562576371758896e+00 9.7290866729664884e+00 1.6568011188263796e+01 
1233 835 2 1.0280450434558255e+00 3.2617717113892145e+07 1.0000000000000000e+00 9.2971748985865457e+00 1.1446498900922085e+01 1.3445741385116966e+01 
1748 1350 2 1.0280267497861235e+00 3.1022135604000896e+07 1.0000000000000000e+00 1.0707191331818473e+01 1.1674401513731548e+01 1.6427783289037933e+01 
1870 1472 2 1.0280343303285311e+00 -4.7674689165259592e+07 1.0000000000000000e+00 1.5097477092735621e+01 9.5481129151015622e+00 1.3841989822045052e+01 
505 107 2 1.0281100545339621e+00 4.0235961332803927e+07 1.0000000000000000e+00 1.7272226082135568e+01 1.0638688324463734e+01 1.3821021104236445e+01 
646 248 2 1.0280814225513895e+00 -5.2083001189228177e+07 1.0000000000000000e+00 1.5592843576648732e+00 1.2658115381816453e+01 1.6458093485121278e+01 
1956 1558 2 1.0279460802912121e+00 3.9715214518245555e+07 1.0000000000000000e+00 5.7862443328618285e-01 1.3025457668960232e+01 1.3282643283813899e+01 
865 467 2 1.0282316062273746e+00 2.3418643648286752e+07 1.0000000000000000e+00 3.9607596211928758e-01 1.5852206075878247e+01 1.5055239730671264e+01 
1265 867 2 1.0279820902158252e+00 5.9818569370910875e+07 1.0000000000000000e+00 3.3468197808213707e+00 1.5550392309745245e+01 1.3456199659590748e+01 
1121 723 2 1.0281537541752184e+00 5.5059051032511093e+07 1.0000000000000000e+00 5.6188266769018016e+00 1.2842276659005444e+01 1.4560763961440820e+01 
445 47 2 1.0278848797882119e+00 3.9500866779747978e+07 1.0000000000000000e+00 4.8517338590607340e+00 1.5402510919904962e+01 1.5786065579851915e+01 
419 21 2 1.0279573781456295e+00 2.5761198036110062e+07 1.0000000000000000e+00 9.1931272617418092e+00 1.5577836098602857e+01 1.3321893604504460e+01 
1687 1289 2 1.0281908018083725e+00 -6.3519133898210384e+07 1.0000000000000000e+00 1.1219092924120833e+01 1.4140035856826282e+01 1.3571167908541600e+01 
1601 1203 2 1.0277928496398139e+00 3.8879719211844958e+07 1.0000000000000000e+00 1.3525423051818905e+01 1.5970560789854694e+01 1.6023334258323210e+01 
1193 795 2 1.0282478316253709e+00 5.6723219360855661e+07 1.0000000000000000e+00 1.5097793306029697e+01 1.3486727115518720e+01 1.4644462861618578e+01 
1287 889 2 1.0281195134522496e+00 -7.0977780400081158e+07 1.0000000000000000e+00 1.5760893840345942e+01 1.5672441359741828e+01 1.2608353188761749e+01 
425 27 2 1.0280533410556276e+00 4.0011555334031120e+07 1.0000000000000000e+00 1.2464273069538514e+00 1.8733028128904415e+01 1.4751474170438970e+01 
1577 1179 2 1.0283513484157363e+00 2.8954261967516664e+07 1.0000000000000000e+00 6.6670752630594619e+00 1.7242868210981076e+01 1.3576086784746318e+01 
681 283 2 1.0278819328995423e+00 3.8572856925483190e+07 1.0000000000000000e+00 1.1041313857497583e+01 1.8233543237578381e+01 1.6033790209155509e+01 
1336 938 2 1.0282706038995626e+00 5.8623596113031842e+07 1.0000000000000000e+00 1.2117034709516048e+01 1.7867080129450390e+01 1.4421124017299150e+01 