LAMMPS data file via write_data, version 30 Jul 2016, timestep = 1000000

2080 atoms
8 atom types

0.0000000000000000e+00 4.0000000000000000e+01 xlo xhi
0.0000000000000000e+00 4.0000000000000000e+01 ylo yhi
0.0000000000000000e+00 1.0000000000000000e+02 zlo zhi

Masses

1 3.896
2 16.08
3 1058.08
4 8.378
5 8.378
6 8.378
7 8.378
8 8.378

Atoms # meso-molecular

1 2 4 2.2559723595316457e+00 5.6569564409752116e-01 4.2000000000000000e+03 0.0000000000000000e+00 0.0000000000000000e+00 2.5000000000000000e+00 
2 2 4 2.2559723595316457e+00 1.1477901085231024e+00 4.2000000000000000e+03 0.0000000000000000e+00 2.0000000000000000e+00 2.5000000000000000e+00 
3 2 4 2.2559723595316457e+00 1.1330408112402282e+00 4.2000000000000000e+03 0.0000000000000000e+00 4.0000000000000000e+00 2.5000000000000000e+00 
4 2 4 2.2559723595316457e+00 1.0294129629840327e+00 4.2000000000000000e+03 0.0000000000000000e+00 6.0000000000000000e+00 2.5000000000000000e+00 
21 2 4 2.2559723595316457e+00 9.3634591507385934e-01 4.2000000000000000e+03 2.0000000000000000e+00 0.0000000000000000e+00 2.5000000000000000e+00 
22 2 4 2.2559723595316457e+00 9.6276123597878716e-01 4.2000000000000000e+03 2.0000000000000000e+00 2.0000000000000000e+00 2.5000000000000000e+00 
23 2 4 2.2559723595316457e+00 9.3756022944102546e-01 4.2000000000000000e+03 2.0000000000000000e+00 4.0000000000000000e+00 2.5000000000000000e+00 
24 2 4 2.2559723595316457e+00 9.2919035728056032e-01 4.2000000000000000e+03 2.0000000000000000e+00 6.0000000000000000e+00 2.5000000000000000e+00 
41 2 4 2.2559723595316457e+00 1.0917730932794472e+00 4.2000000000000000e+03 4.0000000000000000e+00 0.0000000000000000e+00 2.5000000000000000e+00 
42 2 4 2.2559723595316457e+00 9.2238945804112094e-01 4.2000000000000000e+03 4.0000000000000000e+00 2.0000000000000000e+00 2.5000000000000000e+00 
43 2 4 2.2559723595316457e+00 7.4774411032458876e-01 4.2000000000000000e+03 4.0000000000000000e+00 4.0000000000000000e+00 2.5000000000000000e+00 
44 2 4 2.2559723595316457e+00 9.6744305099908434e-01 4.2000000000000000e+03 4.0000000000000000e+00 6.0000000000000000e+00 2.5000000000000000e+00 
61 2 4 2.2559723595316457e+00 1.1939176059294354e+00 4.2000000000000000e+03 6.0000000000000000e+00 0.0000000000000000e+00 2.5000000000000000e+00 
62 2 4 2.2559723595316457e+00 1.0967494691582309e+00 4.2000000000000000e+03 6.0000000000000000e+00 2.0000000000000000e+00 2.5000000000000000e+00 
63 2 4 2.2559723595316457e+00 8.3185725394978460e-01 4.2000000000000000e+03 6.0000000000000000e+00 4.0000000000000000e+00 2.5000000000000000e+00 
64 2 4 2.2559723595316457e+00 1.0194036872229324e+00 4.2000000000000000e+03 6.0000000000000000e+00 6.0000000000000000e+00 2.5000000000000000e+00 
81 2 4 2.2559723595316457e+00 5.8239073623471116e-01 4.2000000000000000e+03 8.0000000000000000e+00 0.0000000000000000e+00 2.5000000000000000e+00 
82 2 4 2.2559723595316457e+00 9.7631372533549476e-01 4.2000000000000000e+03 8.0000000000000000e+00 2.0000000000000000e+00 2.5000000000000000e+00 
83 2 4 2.2559723595316457e+00 8.9656354302151975e-01 4.2000000000000000e+03 8.0000000000000000e+00 4.0000000000000000e+00 2.5000000000000000e+00 
84 2 4 2.2559723595316457e+00 1.0782865980320671e+00 4.2000000000000000e+03 8.0000000000000000e+00 6.0000000000000000e+00 2.5000000000000000e+00 
101 2 4 2.2559723595316457e+00 -5.2797511854458946e-02 4.2000000000000000e+03 1.0000000000000000e+01 0.0000000000000000e+00 2.5000000000000000e+00 
102 2 4 2.2559723595316457e+00 9.5758817259197304e-01 4.2000000000000000e+03 1.0000000000000000e+01 2.0000000000000000e+00 2.5000000000000000e+00 
103 2 4 2.2559723595316457e+00 9.3339214690876049e-01 4.2000000000000000e+03 1.0000000000000000e+01 4.0000000000000000e+00 2.5000000000000000e+00 
104 2 4 2.2559723595316457e+00 1.1157805350510439e+00 4.2000000000000000e+03 1.0000000000000000e+01 6.0000000000000000e+00 2.5000000000000000e+00 
121 2 4 2.2559723595316457e+00 9.7943798382372482e-01 4.2000000000000000e+03 1.2000000000000000e+01 0.0000000000000000e+00 2.5000000000000000e+00 
122 2 4 2.2559723595316457e+00 1.1113427130418136e+00 4.2000000000000000e+03 1.2000000000000000e+01 2.0000000000000000e+00 2.5000000000000000e+00 
123 2 4 2.2559723595316457e+00 1.0251714446119395e+00 4.2000000000000000e+03 1.2000000000000000e+01 4.0000000000000000e+00 2.5000000000000000e+00 
124 2 4 2.2559723595316457e+00 -6.0949747694924483e+01 4.2000000000000000e+03 1.2000000000000000e+01 6.0000000000000000e+00 2.5000000000000000e+00 
141 2 4 2.2559723595316457e+00 2.7829572955580161e+01 4.2000000000000000e+03 1.4000000000000000e+01 0.0000000000000000e+00 2.5000000000000000e+00 
142 2 4 2.2559723595316457e+00 6.9040898533208690e+00 4.2000000000000000e+03 1.4000000000000000e+01 2.0000000000000000e+00 2.5000000000000000e+00 
143 2 4 2.2559723595316457e+00 -1.4352249761949780e+00 4.2000000000000000e+03 1.4000000000000000e+01 4.0000000000000000e+00 2.5000000000000000e+00 
144 2 4 2.2559723595316457e+00 -6.2367745002028312e+02 4.2000000000000000e+03 1.4000000000000000e+01 6.0000000000000000e+00 2.5000000000000000e+00 
161 2 4 2.2559723595316457e+00 6.3565445361666605e+01 4.2000000000000000e+03 1.6000000000000000e+01 0.0000000000000000e+00 2.5000000000000000e+00 
162 2 4 2.2559723595316457e+00 1.1783550344615929e+01 4.2000000000000000e+03 1.6000000000000000e+01 2.0000000000000000e+00 2.5000000000000000e+00 
163 2 4 2.2559723595316457e+00 -2.3501821088204512e+01 4.2000000000000000e+03 1.6000000000000000e+01 4.0000000000000000e+00 2.5000000000000000e+00 
164 2 4 2.2559723595316457e+00 -1.5883827765236433e+03 4.2000000000000000e+03 1.6000000000000000e+01 6.0000000000000000e+00 2.5000000000000000e+00 
181 2 4 2.2559723595316457e+00 6.4514651333835985e+01 4.2000000000000000e+03 1.8000000000000000e+01 0.0000000000000000e+00 2.5000000000000000e+00 
182 2 4 2.2559723595316457e+00 -3.9826476980676642e+00 4.2000000000000000e+03 1.8000000000000000e+01 2.0000000000000000e+00 2.5000000000000000e+00 
183 2 4 2.2559723595316457e+00 -3.7997101786529257e+01 4.2000000000000000e+03 1.8000000000000000e+01 4.0000000000000000e+00 2.5000000000000000e+00 
184 2 4 2.2559723595316457e+00 -2.1790225122828151e+03 4.2000000000000000e+03 1.8000000000000000e+01 6.0000000000000000e+00 2.5000000000000000e+00 
5 2 4 2.2559723595316457e+00 8.7965805844971889e-01 4.2000000000000000e+03 0.0000000000000000e+00 8.0000000000000000e+00 2.5000000000000000e+00 
6 2 4 2.2559723595316457e+00 9.5661712648287800e-01 4.2000000000000000e+03 0.0000000000000000e+00 1.0000000000000000e+01 2.5000000000000000e+00 
7 2 4 2.2559723595316457e+00 9.7288597837652935e-01 4.2000000000000000e+03 0.0000000000000000e+00 1.2000000000000000e+01 2.5000000000000000e+00 
25 2 4 2.2559723595316457e+00 3.4777727393754321e-01 4.2000000000000000e+03 2.0000000000000000e+00 8.0000000000000000e+00 2.5000000000000000e+00 
26 2 4 2.2559723595316457e+00 5.4253920361041730e-01 4.2000000000000000e+03 2.0000000000000000e+00 1.0000000000000000e+01 2.5000000000000000e+00 
27 2 4 2.2559723595316457e+00 1.0834884010740042e+00 4.2000000000000000e+03 2.0000000000000000e+00 1.2000000000000000e+01 2.5000000000000000e+00 
45 2 4 2.2559723595316457e+00 4.5472052931042439e-01 4.2000000000000000e+03 4.0000000000000000e+00 8.0000000000000000e+00 2.5000000000000000e+00 
46 2 4 2.2559723595316457e+00 7.3825393743907863e-01 4.2000000000000000e+03 4.0000000000000000e+00 1.0000000000000000e+01 2.5000000000000000e+00 
47 2 4 2.2559723595316457e+00 1.0830260192751697e+00 4.2000000000000000e+03 4.0000000000000000e+00 1.2000000000000000e+01 2.5000000000000000e+00 
65 2 4 2.2559723595316457e+00 9.3906666806937078e-01 4.2000000000000000e+03 6.0000000000000000e+00 8.0000000000000000e+00 2.5000000000000000e+00 
66 2 4 2.2559723595316457e+00 1.0309108921135373e+00 4.2000000000000000e+03 6.0000000000000000e+00 1.0000000000000000e+01 2.5000000000000000e+00 
67 2 4 2.2559723595316457e+00 9.6429252141805599e-01 4.2000000000000000e+03 6.0000000000000000e+00 1.2000000000000000e+01 2.5000000000000000e+00 
85 2 4 2.2559723595316457e+00 9.2525790787089435e-01 4.2000000000000000e+03 8.0000000000000000e+00 8.0000000000000000e+00 2.5000000000000000e+00 
86 2 4 2.2559723595316457e+00 7.7906447605768436e-01 4.2000000000000000e+03 8.0000000000000000e+00 1.0000000000000000e+01 2.5000000000000000e+00 
87 2 4 2.2559723595316457e+00 8.9487807937940178e-01 4.2000000000000000e+03 8.0000000000000000e+00 1.2000000000000000e+01 2.5000000000000000e+00 
105 2 4 2.2559723595316457e+00 -7.6553074617220029e-01 4.2000000000000000e+03 1.0000000000000000e+01 8.0000000000000000e+00 2.5000000000000000e+00 
106 2 4 2.2559723595316457e+00 -1.6882798443206376e+01 4.2000000000000000e+03 1.0000000000000000e+01 1.0000000000000000e+01 2.5000000000000000e+00 
107 2 4 2.2559723595316457e+00 -1.8356257669532560e+01 4.2000000000000000e+03 1.0000000000000000e+01 1.2000000000000000e+01 2.5000000000000000e+00 
125 2 4 2.2559723595316457e+00 -6.2626268052757462e+02 4.2000000000000000e+03 1.2000000000000000e+01 8.0000000000000000e+00 2.5000000000000000e+00 
126 2 4 2.2559723595316457e+00 -1.5878064316057732e+03 4.2000000000000000e+03 1.2000000000000000e+01 1.0000000000000000e+01 2.5000000000000000e+00 
127 2 4 2.2559723595316457e+00 -2.1667462966038602e+03 4.2000000000000000e+03 1.2000000000000000e+01 1.2000000000000000e+01 2.5000000000000000e+00 
145 2 4 2.2559723595316457e+00 -3.4677466599640265e+03 4.2000000000000000e+03 1.4000000000000000e+01 8.0000000000000000e+00 2.5000000000000000e+00 
146 2 4 2.2559723595316457e+00 -7.8814805033599487e+03 4.2000000000000000e+03 1.4000000000000000e+01 1.0000000000000000e+01 2.5000000000000000e+00 
147 2 4 2.2559723595316457e+00 -1.0875477525328712e+04 4.2000000000000000e+03 1.4000000000000000e+01 1.2000000000000000e+01 2.5000000000000000e+00 
165 2 4 2.2559723595316457e+00 -7.8848330917781313e+03 4.2000000000000000e+03 1.6000000000000000e+01 8.0000000000000000e+00 2.5000000000000000e+00 
166 2 4 2.2559723595316457e+00 -1.7631942264297861e+04 4.2000000000000000e+03 1.6000000000000000e+01 1.0000000000000000e+01 2.5000000000000000e+00 
167 2 4 2.2559723595316457e+00 -2.4642467428465068e+04 4.2000000000000000e+03 1.6000000000000000e+01 1.2000000000000000e+01 2.5000000000000000e+00 
185 2 4 2.2559723595316457e+00 -1.0909261225366918e+04 4.2000000000000000e+03 1.8000000000000000e+01 8.0000000000000000e+00 2.5000000000000000e+00 
186 2 4 2.2559723595316457e+00 -2.4655161977221098e+04 4.2000000000000000e+03 1.8000000000000000e+01 1.0000000000000000e+01 2.5000000000000000e+00 
187 2 4 2.2559723595316457e+00 -3.4745835215311337e+04 4.2000000000000000e+03 1.8000000000000000e+01 1.2000000000000000e+01 2.5000000000000000e+00 
8 2 4 2.2559723595316457e+00 9.0987569290484926e-01 4.2000000000000000e+03 0.0000000000000000e+00 1.4000000000000000e+01 2.5000000000000000e+00 
9 2 4 2.2559723595316457e+00 9.6792035714641789e-01 4.2000000000000000e+03 0.0000000000000000e+00 1.6000000000000000e+01 2.5000000000000000e+00 
10 2 4 2.2559723595316457e+00 9.6798186123617891e-01 4.2000000000000000e+03 0.0000000000000000e+00 1.8000000000000000e+01 2.5000000000000000e+00 
28 2 4 2.2559723595316457e+00 1.0275778487008163e+00 4.2000000000000000e+03 2.0000000000000000e+00 1.4000000000000000e+01 2.5000000000000000e+00 
29 2 4 2.2559723595316457e+00 1.0182750825228610e+00 4.2000000000000000e+03 2.0000000000000000e+00 1.6000000000000000e+01 2.5000000000000000e+00 
30 2 4 2.2559723595316457e+00 1.0309794531917058e+00 4.2000000000000000e+03 2.0000000000000000e+00 1.8000000000000000e+01 2.5000000000000000e+00 
48 2 4 2.2559723595316457e+00 9.9182909927214769e-01 4.2000000000000000e+03 4.0000000000000000e+00 1.4000000000000000e+01 2.5000000000000000e+00 
49 2 4 2.2559723595316457e+00 1.0604778192872728e+00 4.2000000000000000e+03 4.0000000000000000e+00 1.6000000000000000e+01 2.5000000000000000e+00 
50 2 4 2.2559723595316457e+00 1.1954397844969571e+00 4.2000000000000000e+03 4.0000000000000000e+00 1.8000000000000000e+01 2.5000000000000000e+00 
68 2 4 2.2559723595316457e+00 9.1146200619872297e-01 4.2000000000000000e+03 6.0000000000000000e+00 1.4000000000000000e+01 2.5000000000000000e+00 
69 2 4 2.2559723595316457e+00 1.1153328207688531e+00 4.2000000000000000e+03 6.0000000000000000e+00 1.6000000000000000e+01 2.5000000000000000e+00 
70 2 4 2.2559723595316457e+00 1.5268698800387686e+00 4.2000000000000000e+03 6.0000000000000000e+00 1.8000000000000000e+01 2.5000000000000000e+00 
88 2 4 2.2559723595316457e+00 1.1174954519558735e+00 4.2000000000000000e+03 8.0000000000000000e+00 1.4000000000000000e+01 2.5000000000000000e+00 
89 2 4 2.2559723595316457e+00 1.1944158202481590e+00 4.2000000000000000e+03 8.0000000000000000e+00 1.6000000000000000e+01 2.5000000000000000e+00 
90 2 4 2.2559723595316457e+00 1.0745078701506314e+00 4.2000000000000000e+03 8.0000000000000000e+00 1.8000000000000000e+01 2.5000000000000000e+00 
108 2 4 2.2559723595316457e+00 -1.7643588540382869e+01 4.2000000000000000e+03 1.0000000000000000e+01 1.4000000000000000e+01 2.5000000000000000e+00 
109 2 4 2.2559723595316457e+00 -1.5464482181421953e+01 4.2000000000000000e+03 1.0000000000000000e+01 1.6000000000000000e+01 2.5000000000000000e+00 
110 2 4 2.2559723595316457e+00 -1.5467292158953875e+01 4.2000000000000000e+03 1.0000000000000000e+01 1.8000000000000000e+01 2.5000000000000000e+00 
128 2 4 2.2559723595316457e+00 -2.2367950444822427e+03 4.2000000000000000e+03 1.2000000000000000e+01 1.4000000000000000e+01 2.5000000000000000e+00 
129 2 4 2.2559723595316457e+00 -2.2343819702370338e+03 4.2000000000000000e+03 1.2000000000000000e+01 1.6000000000000000e+01 2.5000000000000000e+00 
130 2 4 2.2559723595316457e+00 -2.2339072920747094e+03 4.2000000000000000e+03 1.2000000000000000e+01 1.8000000000000000e+01 2.5000000000000000e+00 
148 2 4 2.2559723595316457e+00 -1.1549769283920417e+04 4.2000000000000000e+03 1.4000000000000000e+01 1.4000000000000000e+01 2.5000000000000000e+00 
149 2 4 2.2559723595316457e+00 -1.1535717490582634e+04 4.2000000000000000e+03 1.4000000000000000e+01 1.6000000000000000e+01 2.5000000000000000e+00 
150 2 4 2.2559723595316457e+00 -1.1531018100668909e+04 4.2000000000000000e+03 1.4000000000000000e+01 1.8000000000000000e+01 2.5000000000000000e+00 
168 2 4 2.2559723595316457e+00 -2.6488119824732905e+04 4.2000000000000000e+03 1.6000000000000000e+01 1.4000000000000000e+01 2.5000000000000000e+00 
169 2 4 2.2559723595316457e+00 -2.6472043628439453e+04 4.2000000000000000e+03 1.6000000000000000e+01 1.6000000000000000e+01 2.5000000000000000e+00 
170 2 4 2.2559723595316457e+00 -2.6450623638339282e+04 4.2000000000000000e+03 1.6000000000000000e+01 1.8000000000000000e+01 2.5000000000000000e+00 
188 2 4 2.2559723595316457e+00 -3.7436575732363919e+04 4.2000000000000000e+03 1.8000000000000000e+01 1.4000000000000000e+01 2.5000000000000000e+00 
189 2 4 2.2559723595316457e+00 -3.7413608264849652e+04 4.2000000000000000e+03 1.8000000000000000e+01 1.6000000000000000e+01 2.5000000000000000e+00 
190 2 4 2.2559723595316457e+00 -3.7365732833558439e+04 4.2000000000000000e+03 1.8000000000000000e+01 1.8000000000000000e+01 2.5000000000000000e+00 
533 135 2 1.0280000732877788e+00 4.2839978798984157e+04 4.2000000000000000e+03 1.4947040175253019e+01 3.0934744836778085e+00 3.2841250278615981e+01 
1918 1520 2 1.0280000644554927e+00 5.7438333662300691e+04 4.2000000000000000e+03 1.5358638293056858e+01 3.2351834746134576e+00 3.2908312551977716e+01 
1654 1256 2 1.0280000601392796e+00 8.1217244977195833e+03 4.2000000000000000e+03 1.5302209747633540e+01 3.2914724388682544e+00 3.2917915816207511e+01 
1449 1051 2 1.0280000390603503e+00 3.6362064426647667e+04 4.2000000000000000e+03 1.4393403178624757e+01 3.3294042314985566e+00 3.2927836947371816e+01 
796 398 2 1.0280000269133782e+00 2.4451895666923127e+04 4.2000000000000000e+03 1.5231293136823179e+01 3.6001061598138615e+00 3.3022903218809248e+01 
571 173 2 1.0279999971602425e+00 2.1423929491753392e+04 4.2000000000000000e+03 1.4597204121259320e+01 3.6918509499932917e+00 3.3042196850832802e+01 
662 264 2 1.0280000238767679e+00 -2.5079065039012326e+04 4.2000000000000000e+03 1.6105207363966212e+01 3.5408193060456177e+00 3.3204924755430199e+01 
1209 811 2 1.0280000549186430e+00 5.9099862493379842e+04 4.2000000000000000e+03 1.7319779955961572e+01 2.4692427008065314e+00 3.3232352404214112e+01 
615 217 2 1.0280000536078688e+00 2.5519446178497449e+02 4.2000000000000000e+03 1.7615249386629543e+01 2.3794983005203423e+00 3.3307904615081050e+01 
723 325 2 1.0279998728564728e+00 7.7534697574770462e+03 4.2000000000000000e+03 1.4288962643808096e+01 4.1452075172961846e+00 3.3328079694903664e+01 
958 560 2 1.0279998563117583e+00 -3.2807102806709001e+04 4.2000000000000000e+03 7.9330122761160684e+00 9.0012422039881894e+00 3.2302558909566926e+01 
1094 696 2 1.0279998451831749e+00 -6.3800843179797979e+04 4.2000000000000000e+03 7.9613904395253590e+00 9.1230780168938992e+00 3.2303850342314433e+01 
1001 603 2 1.0279998560170556e+00 4.7472571030432438e+04 4.2000000000000000e+03 7.7918358581535605e+00 9.0051188937826581e+00 3.2313332664761333e+01 
1292 894 2 1.0279998619171702e+00 3.2256263315326491e+04 4.2000000000000000e+03 7.8113954687476230e+00 8.9456230085340813e+00 3.2313821867616696e+01 
1499 1101 2 1.0279998742470446e+00 -5.3739759909243883e+04 4.2000000000000000e+03 7.8682640891413582e+00 8.8121019157338125e+00 3.2319820701693999e+01 
1863 1465 2 1.0279998909463506e+00 -1.0262635393187828e+04 4.2000000000000000e+03 7.8152824909430700e+00 8.6359308301367097e+00 3.2356017379930137e+01 
1029 631 2 1.0279998811027515e+00 3.0765763909418474e+04 4.2000000000000000e+03 7.6263896885580591e+00 8.7726163506231263e+00 3.2366058963070344e+01 
1338 940 2 1.0279998140817790e+00 -9.9446075900493073e+04 4.2000000000000000e+03 8.1292287998618580e+00 9.5103968010803204e+00 3.2372801247516477e+01 
642 244 2 1.0279999035896970e+00 -3.5532469002343991e+04 4.2000000000000000e+03 7.8868541709742122e+00 8.4404386702199226e+00 3.2397235324789079e+01 
426 28 2 1.0279999023737361e+00 1.6587294240889689e+04 4.2000000000000000e+03 7.9636132680223470e+00 8.4069607305958325e+00 3.2399023566021235e+01 
1607 1209 2 1.0279999133471032e+00 -4.3721605304912460e+04 4.2000000000000000e+03 7.7274818652038997e+00 8.3807165150139227e+00 3.2446454674324578e+01 
751 353 2 1.0279997855881298e+00 -5.0408188812157430e+04 4.2000000000000000e+03 8.1246713952846239e+00 9.8319830352184283e+00 3.2480237149325461e+01 
2079 1681 2 1.0279999411303937e+00 1.2298982424973707e+04 4.2000000000000000e+03 3.4510768011847714e-01 1.9877948244147145e+01 3.2791602367403030e+01 
1234 836 2 1.0279998864419875e+00 -6.7936348315393683e+04 4.2000000000000000e+03 2.1595971354052961e+00 1.7205725488112364e+01 3.2845846635353688e+01 
470 72 2 1.0279997207533471e+00 3.6288466696563628e+04 4.2000000000000000e+03 1.9199042994977746e+00 1.7279809464948276e+01 3.2866882173673197e+01 
810 412 2 1.0279997677175758e+00 2.7589408800633853e+04 4.2000000000000000e+03 1.9501997163380140e+00 1.6453213509389329e+01 3.2892502661287118e+01 
2055 1657 2 1.0280001275077417e+00 -1.0324639625842416e+04 4.2000000000000000e+03 3.3572724345118989e+00 1.6567958030493912e+01 3.2929918014356815e+01 
798 400 2 1.0279995154835249e+00 -1.0097502802947949e+04 4.2000000000000000e+03 7.3094026267864720e-01 1.4146217421278999e+01 3.3150968496562051e+01 
1253 855 2 1.0280001773621663e+00 1.0524370728402861e+04 4.2000000000000000e+03 3.9975159533075040e+00 1.7278658007579583e+01 3.3189650702882453e+01 
1297 899 2 1.0280001803803336e+00 -9.5328337895542893e+02 4.2000000000000000e+03 4.0219066315251029e+00 1.7468146171102841e+01 3.3235885572076349e+01 
1179 781 2 1.0279996676903582e+00 -1.0232423053506452e+05 4.2000000000000000e+03 6.4684469408721252e+00 3.1327819652745155e+00 3.6359688505777576e+01 
971 573 2 1.0279994970781832e+00 -4.9551849571315746e+04 4.2000000000000000e+03 6.0401375790821819e+00 3.4489329876109482e+00 3.6675261072812901e+01 
998 600 2 1.0279998891382334e+00 -7.3618044994443189e+04 4.2000000000000000e+03 2.9482699559315035e+00 5.1061193463200798e+00 3.7151143294532098e+01 
2045 1647 2 1.0279996247478136e+00 4.2873553729801788e+04 4.2000000000000000e+03 3.8931628438634664e+00 3.5982418514435293e+00 3.7212084535241729e+01 
780 382 2 1.0279999119871817e+00 2.8428976257473274e+04 4.2000000000000000e+03 1.7914333689847852e+00 3.6393964773215424e+00 3.7696810544205164e+01 
1956 1558 2 1.0279998784998643e+00 3.7102183951128070e+04 4.2000000000000000e+03 1.8414266766355962e+00 3.5005470760630253e+00 3.7755323096123149e+01 
1307 909 2 1.0279999755851961e+00 -8.7625208416651643e+04 4.2000000000000000e+03 1.3874779315121062e+00 3.8409363306419824e+00 3.7767489892038761e+01 
1528 1130 2 1.0279999846181171e+00 2.9481054919397124e+04 4.2000000000000000e+03 1.2574116590425903e+00 3.7648358768546530e+00 3.7878261293384206e+01 
1347 949 2 1.0279999865875091e+00 -1.0255838401955366e+05 4.2000000000000000e+03 9.3917183936541826e-01 3.8995237558474702e+00 3.7964159028460749e+01 
1176 778 2 1.0279999794388137e+00 7.3434968797736525e+04 4.2000000000000000e+03 8.2037760965149675e-01 3.9434597010713395e+00 3.8002574920134812e+01 
1847 1449 2 1.0279999958225712e+00 -1.5818249793664749e+04 4.2000000000000000e+03 1.0993668055675181e+00 3.7240272185836485e+00 3.7996419832720825e+01 
1207 809 2 1.0279999932989321e+00 -4.8238796776740208e+04 4.2000000000000000e+03 8.9588940621545177e-01 3.8389235748458477e+00 3.8032234136910226e+01 
858 460 2 1.0280000146175698e+00 2.3808127998685570e+04 4.2000000000000000e+03 9.4035940902598314e-01 3.6012516048595593e+00 3.8209970465044087e+01 
886 488 2 1.0279999733025136e+00 -1.8891605392999158e+04 4.2000000000000000e+03 5.0523649019037464e-01 3.9051910632611855e+00 3.8229285397735261e+01 
1223 825 2 1.0280000594108580e+00 -6.7232269277269617e+04 4.2000000000000000e+03 1.2980563044317970e+01 1.5309092957736907e+00 3.3432368545737425e+01 
953 555 2 1.0280001568893959e+00 3.7926158352982195e+04 4.2000000000000000e+03 1.1909893514192952e+01 2.1082218822728445e+00 3.3875701914036711e+01 
460 62 2 1.0280001610943095e+00 4.0470658279956195e+04 4.2000000000000000e+03 1.1924667202234964e+01 2.0061662404976026e+00 3.3877264213090797e+01 
1556 1158 2 1.0280002205469159e+00 2.4523050622389143e+04 4.2000000000000000e+03 1.1657991866746460e+01 1.9891943281566755e+00 3.4020986193587760e+01 
2050 1652 2 1.0280001505356582e+00 2.5300926241178240e+03 4.2000000000000000e+03 1.0950632056287098e+01 2.5733844040688463e+00 3.4403598961514270e+01 
889 491 2 1.0280000949629813e+00 -1.1699780364653214e+04 4.2000000000000000e+03 1.0565036777296289e+01 2.6073877373186582e+00 3.4523925705620357e+01 
1885 1487 2 1.0280000322971727e+00 1.7120514911530692e+04 4.2000000000000000e+03 1.2852805377759267e+01 3.7569595570835647e-02 3.4532976978880505e+01 
1789 1391 2 1.0279999756725520e+00 2.2005645578412172e+04 4.2000000000000000e+03 8.3371185701859112e+00 5.4195373842092911e+00 3.4610464323821446e+01 
1981 1583 2 1.0279998744999133e+00 -3.0755643104754613e+03 4.2000000000000000e+03 1.1099357601560367e+01 3.0671386149618294e+00 3.4728257268682206e+01 
1189 791 2 1.0280001069792191e+00 2.1381115726427190e+04 4.2000000000000000e+03 7.9763444178384519e+00 5.2215337420674617e+00 3.4880870363722885e+01 
1083 685 2 1.0279994593203783e+00 -3.3952238885197592e+04 4.2000000000000000e+03 9.1507663571338931e+00 5.1035370680404357e+00 3.4906060635903579e+01 
1160 762 2 1.0279991174819283e+00 -2.7282840502289291e+03 4.2000000000000000e+03 9.3999569417481244e+00 4.5718971453998805e+00 3.5248915742002893e+01 
1829 1431 2 1.0279999691206729e+00 2.0943440462241771e+04 4.2000000000000000e+03 7.8582919639566793e+00 2.3668344528726037e+00 3.5242547857078776e+01 
469 71 2 1.0279999298623537e+00 -3.0034366132619157e+03 4.2000000000000000e+03 7.3783256100449321e+00 2.4713953750620870e+00 3.5563669949920452e+01 
673 275 2 1.0279996978738866e+00 7.4939740627743686e+03 4.2000000000000000e+03 6.8362257102193622e+00 9.4298577573400266e-01 3.5718458002004745e+01 
1311 913 2 1.0279999392170809e+00 -9.4315655193513463e+04 4.2000000000000000e+03 7.0927085787206039e+00 3.3503533405714445e+00 3.5889686275434457e+01 
511 113 2 1.0279996850773314e+00 8.3375149571011443e+03 4.2000000000000000e+03 6.6913421153702606e+00 2.2119631176794350e+00 3.6066401340683946e+01 
837 439 2 1.0280007399444695e+00 2.7780440397013677e+04 4.2000000000000000e+03 6.8727572201562372e+00 4.4819613381402845e-01 3.7579189709736994e+01 
764 366 2 1.0280013252985292e+00 1.1065614429544306e+04 4.2000000000000000e+03 6.8866584242387310e+00 1.0501940369557810e+00 3.7661221097587614e+01 
982 584 2 1.0280024542607273e+00 -6.7248066855627243e+04 4.2000000000000000e+03 9.2307528977534616e+00 4.9792403064794835e+00 3.8182135373452930e+01 
1866 1468 2 1.0279999158736153e+00 -7.6575971458295235e+03 4.2000000000000000e+03 1.5820641751619014e+01 4.2055622629171925e+00 3.3537445822649140e+01 
852 454 2 1.0280000654944512e+00 2.0973696389884328e+04 4.2000000000000000e+03 1.8520710006819463e+01 2.1018566931420466e+00 3.3533000807291742e+01 
614 216 2 1.0280000767214132e+00 2.8694860590924640e+02 4.2000000000000000e+03 1.9052031663407224e+01 2.0946740868351927e+00 3.3701345037115729e+01 
1191 793 2 1.0279999952821470e+00 -1.1735115786218300e+05 4.2000000000000000e+03 1.8175180805725383e+01 5.4471728038174714e+00 3.6684657116963578e+01 
619 221 2 1.0280009789412936e+00 -1.6092209625393365e+04 4.2000000000000000e+03 1.9782424785552497e+01 5.8722894915469341e+00 3.7258656914250373e+01 
1807 1409 2 1.0280001833918186e+00 -1.3339762314279455e+04 4.2000000000000000e+03 1.8651596247209188e+01 5.1241132408833998e+00 3.7258382534288543e+01 
1000 602 2 1.0280002735252973e+00 4.6119990856904966e+04 4.2000000000000000e+03 1.8677113352894153e+01 5.1050702340840504e+00 3.7289863954894436e+01 
1864 1466 2 1.0279947541958376e+00 3.7247694818506163e+04 4.2000000000000000e+03 1.8851365352715259e+01 4.9390413708544605e+00 3.7496579426329831e+01 
1806 1408 2 1.0280024315345415e+00 -1.3362716810677728e+04 4.2000000000000000e+03 1.8596907049498235e+01 3.7529773355595588e+00 3.8326310237027002e+01 
957 559 2 1.0279999029260203e+00 3.8069267725750942e+04 4.2000000000000000e+03 1.7936806976135482e+01 5.3735206409928864e+00 3.8682303076204853e+01 
635 237 2 1.0280000717242788e+00 1.6181451924525234e+03 4.2000000000000000e+03 8.0146045581287226e-02 1.1852514957366488e+01 3.3729955237965726e+01 
1625 1227 2 1.0279999500223387e+00 5.6258707018430636e+04 4.2000000000000000e+03 3.1463294567718725e+00 1.2741430282958554e+01 3.4132032952607744e+01 
1587 1189 2 1.0279998329912554e+00 -1.2076998518932256e+04 4.2000000000000000e+03 3.2105904876505345e+00 1.2335667108323982e+01 3.4273200264555825e+01 
699 301 2 1.0279996432021437e+00 -4.7383845896699195e+03 4.2000000000000000e+03 3.5355528651230945e+00 1.1427363868315533e+01 3.4516840618034742e+01 
1466 1068 2 1.0279998564950299e+00 -5.3787890571783202e+04 4.2000000000000000e+03 2.6800890376903861e+00 1.1753291257324511e+01 3.4548768955179106e+01 
1343 945 2 1.0279996787673478e+00 -1.0962451180179331e+05 4.2000000000000000e+03 4.1791822389165425e+00 1.0426417219858411e+01 3.4692729733889102e+01 
1430 1032 2 1.0279994975052953e+00 -7.5963275174709808e+04 4.2000000000000000e+03 7.9082525546305671e-01 9.4491681738673527e+00 3.5991863602685072e+01 
1372 974 2 1.0280008337031632e+00 8.8080775885039926e+04 4.2000000000000000e+03 5.4601593490016844e+00 7.7667428570718284e+00 3.6410165137110745e+01 
2067 1669 2 1.0279990632044056e+00 2.3696795826985213e+04 4.2000000000000000e+03 6.3093437363589755e-01 9.0939512327117473e+00 3.6462918762879205e+01 
529 131 2 1.0280004885483105e+00 2.8547568654085866e+04 4.2000000000000000e+03 4.0795332436145211e+00 9.1620325365253645e+00 3.6607773538676547e+01 
1820 1422 2 1.0280023359539054e+00 3.5133995131375515e+04 4.2000000000000000e+03 2.9651722937613365e+00 1.1348979009408508e+01 3.6739029925596668e+01 
540 142 2 1.0279984687099832e+00 4.0062354666008134e+04 4.2000000000000000e+03 1.8509416385810680e+00 8.5059552686737465e+00 3.7017486792702542e+01 
1163 765 2 1.0280040881205466e+00 -6.4234809920672269e+04 4.2000000000000000e+03 4.7531875714264347e+00 9.4278202015657602e+00 3.7316640942998561e+01 
1361 963 2 1.0279992653029828e+00 3.6693207255407026e+04 4.2000000000000000e+03 6.2528677434744750e+00 8.3227430839675929e+00 3.7486678366680032e+01 
1563 1165 2 1.0279946516444844e+00 -2.2544926114696849e+04 4.2000000000000000e+03 4.5510588651318802e+00 9.5856080707499096e+00 3.7716614049619864e+01 
1564 1166 2 1.0279967675773332e+00 2.3172020025109287e+04 4.2000000000000000e+03 4.6003862204325072e+00 9.8511040645581396e+00 3.7913965876145802e+01 
1037 639 2 1.0280048904295600e+00 -1.7210770303058553e+03 4.2000000000000000e+03 5.6135308258673593e+00 6.8299180732810596e+00 3.7938640582310676e+01 
884 486 2 1.0279951946537556e+00 3.6493594039653355e+04 4.2000000000000000e+03 5.5137406939458407e+00 6.8192918671295759e+00 3.8120404092233443e+01 
844 446 2 1.0279995322640436e+00 5.0606577779087856e+04 4.2000000000000000e+03 7.0104047633145239e+00 1.2211289488206804e+01 3.3945132670496818e+01 
1385 987 2 1.0279999079179747e+00 1.0287253103759249e+04 4.2000000000000000e+03 1.1903979536589111e+01 8.7554244373430059e+00 3.4842712797944131e+01 
1623 1225 2 1.0279999629879777e+00 -2.9587204062732231e+04 4.2000000000000000e+03 1.2062839724001522e+01 8.6775028058405042e+00 3.4921617858327373e+01 
1008 610 2 1.0279997769000109e+00 5.4642926916565462e+04 4.2000000000000000e+03 1.1979427146803657e+01 8.4614154902237075e+00 3.4963707491259562e+01 
1752 1354 2 1.0280002965542756e+00 4.0709784771882762e+04 4.2000000000000000e+03 1.0969111188809876e+01 1.1263428993886441e+01 3.5107350295499259e+01 
836 438 2 1.0279986876327760e+00 3.9636342379340706e+04 4.2000000000000000e+03 1.1620769202612529e+01 7.6265534775627311e+00 3.5223217411317975e+01 
988 590 2 1.0280004871263548e+00 4.8588757576224292e+04 4.2000000000000000e+03 9.8678866002053134e+00 1.0653031603132520e+01 3.5371613405024718e+01 