LAMMPS data file via write_data, version 30 Jul 2016, timestep = 600000

2080 atoms
8 atom types

0.0000000000000000e+00 4.0000000000000000e+01 xlo xhi
0.0000000000000000e+00 4.0000000000000000e+01 ylo yhi
0.0000000000000000e+00 1.0000000000000000e+02 zlo zhi

Masses

1 3.896
2 5.36
3 1058.08
4 8.378
5 8.378
6 8.378
7 8.378
8 8.378

Atoms # meso-molecular

1 2 4 2.2559723595316457e+00 9.9757901934886006e-01 4.2000000000000000e+03 0.0000000000000000e+00 0.0000000000000000e+00 2.5000000000000000e+00 
2 2 4 2.2559723595316457e+00 1.0000000000000000e+00 4.2000000000000000e+03 0.0000000000000000e+00 2.0000000000000000e+00 2.5000000000000000e+00 
21 2 4 2.2559723595316457e+00 1.0000000000000000e+00 4.2000000000000000e+03 2.0000000000000000e+00 0.0000000000000000e+00 2.5000000000000000e+00 
22 2 4 2.2559723595316457e+00 1.0000000000000000e+00 4.2000000000000000e+03 2.0000000000000000e+00 2.0000000000000000e+00 2.5000000000000000e+00 
41 2 4 2.2559723595316457e+00 1.0000000000000000e+00 4.2000000000000000e+03 4.0000000000000000e+00 0.0000000000000000e+00 2.5000000000000000e+00 
42 2 4 2.2559723595316457e+00 1.0000000000000000e+00 4.2000000000000000e+03 4.0000000000000000e+00 2.0000000000000000e+00 2.5000000000000000e+00 
61 2 4 2.2559723595316457e+00 1.0000000000000000e+00 4.2000000000000000e+03 6.0000000000000000e+00 0.0000000000000000e+00 2.5000000000000000e+00 
62 2 4 2.2559723595316457e+00 1.0000000000000000e+00 4.2000000000000000e+03 6.0000000000000000e+00 2.0000000000000000e+00 2.5000000000000000e+00 
81 2 4 2.2559723595316457e+00 1.0000000000000000e+00 4.2000000000000000e+03 8.0000000000000000e+00 0.0000000000000000e+00 2.5000000000000000e+00 
82 2 4 2.2559723595316457e+00 1.0000000000000000e+00 4.2000000000000000e+03 8.0000000000000000e+00 2.0000000000000000e+00 2.5000000000000000e+00 
101 2 4 2.2559723595316457e+00 1.0000000000000000e+00 4.2000000000000000e+03 1.0000000000000000e+01 0.0000000000000000e+00 2.5000000000000000e+00 
102 2 4 2.2559723595316457e+00 1.0000000000000000e+00 4.2000000000000000e+03 1.0000000000000000e+01 2.0000000000000000e+00 2.5000000000000000e+00 
121 2 4 2.2559723595316457e+00 1.0000000000000000e+00 4.2000000000000000e+03 1.2000000000000000e+01 0.0000000000000000e+00 2.5000000000000000e+00 
122 2 4 2.2559723595316457e+00 1.0000000000000000e+00 4.2000000000000000e+03 1.2000000000000000e+01 2.0000000000000000e+00 2.5000000000000000e+00 
141 2 4 2.2559723595316457e+00 1.0000000000000000e+00 4.2000000000000000e+03 1.4000000000000000e+01 0.0000000000000000e+00 2.5000000000000000e+00 
142 2 4 2.2559723595316457e+00 1.0000000000000000e+00 4.2000000000000000e+03 1.4000000000000000e+01 2.0000000000000000e+00 2.5000000000000000e+00 
161 2 4 2.2559723598775983e+00 1.0086287959029840e+00 4.2000000000000000e+03 1.6000000000000000e+01 0.0000000000000000e+00 2.5000000000000000e+00 
162 2 4 2.2559723595316457e+00 1.0000000000000000e+00 4.2000000000000000e+03 1.6000000000000000e+01 2.0000000000000000e+00 2.5000000000000000e+00 
181 2 4 2.2559723595316457e+00 1.0005900631515958e+00 4.2000000000000000e+03 1.8000000000000000e+01 0.0000000000000000e+00 2.5000000000000000e+00 
182 2 4 2.2559723595316457e+00 1.0000000000000000e+00 4.2000000000000000e+03 1.8000000000000000e+01 2.0000000000000000e+00 2.5000000000000000e+00 
3 2 4 2.2559723595316457e+00 1.0000000000000000e+00 4.2000000000000000e+03 0.0000000000000000e+00 4.0000000000000000e+00 2.5000000000000000e+00 
23 2 4 2.2559723595316457e+00 1.0000000000000000e+00 4.2000000000000000e+03 2.0000000000000000e+00 4.0000000000000000e+00 2.5000000000000000e+00 
43 2 4 2.2559723595316457e+00 1.0000000000000000e+00 4.2000000000000000e+03 4.0000000000000000e+00 4.0000000000000000e+00 2.5000000000000000e+00 
63 2 4 2.2559723595316457e+00 1.0000000000000000e+00 4.2000000000000000e+03 6.0000000000000000e+00 4.0000000000000000e+00 2.5000000000000000e+00 
83 2 4 2.2559723595316457e+00 1.0000000000000000e+00 4.2000000000000000e+03 8.0000000000000000e+00 4.0000000000000000e+00 2.5000000000000000e+00 
103 2 4 2.2559723595316457e+00 1.0000000000000000e+00 4.2000000000000000e+03 1.0000000000000000e+01 4.0000000000000000e+00 2.5000000000000000e+00 
123 2 4 2.2559723595316457e+00 1.0000000000000000e+00 4.2000000000000000e+03 1.2000000000000000e+01 4.0000000000000000e+00 2.5000000000000000e+00 
143 2 4 2.2559723595316457e+00 1.0000000000000000e+00 4.2000000000000000e+03 1.4000000000000000e+01 4.0000000000000000e+00 2.5000000000000000e+00 
163 2 4 2.2559723595316457e+00 1.0000000000000000e+00 4.2000000000000000e+03 1.6000000000000000e+01 4.0000000000000000e+00 2.5000000000000000e+00 
183 2 4 2.2559723595316457e+00 1.0000000000000000e+00 4.2000000000000000e+03 1.8000000000000000e+01 4.0000000000000000e+00 2.5000000000000000e+00 
4 2 4 2.2559723595316457e+00 1.0000000000000000e+00 4.2000000000000000e+03 0.0000000000000000e+00 6.0000000000000000e+00 2.5000000000000000e+00 
5 2 4 2.2559723595316457e+00 1.0000000000000000e+00 4.2000000000000000e+03 0.0000000000000000e+00 8.0000000000000000e+00 2.5000000000000000e+00 
24 2 4 2.2559723595316457e+00 1.0000000000000000e+00 4.2000000000000000e+03 2.0000000000000000e+00 6.0000000000000000e+00 2.5000000000000000e+00 
25 2 4 2.2559723595316457e+00 1.0000000000000000e+00 4.2000000000000000e+03 2.0000000000000000e+00 8.0000000000000000e+00 2.5000000000000000e+00 
44 2 4 2.2559723595316457e+00 1.0000000000000000e+00 4.2000000000000000e+03 4.0000000000000000e+00 6.0000000000000000e+00 2.5000000000000000e+00 
45 2 4 2.2559723595316457e+00 1.0000000000000000e+00 4.2000000000000000e+03 4.0000000000000000e+00 8.0000000000000000e+00 2.5000000000000000e+00 
64 2 4 2.2559723595316457e+00 1.0000000000000000e+00 4.2000000000000000e+03 6.0000000000000000e+00 6.0000000000000000e+00 2.5000000000000000e+00 
65 2 4 2.2559723595316457e+00 1.0000000000000000e+00 4.2000000000000000e+03 6.0000000000000000e+00 8.0000000000000000e+00 2.5000000000000000e+00 
84 2 4 2.2559723595316457e+00 1.0000000000000000e+00 4.2000000000000000e+03 8.0000000000000000e+00 6.0000000000000000e+00 2.5000000000000000e+00 
85 2 4 2.2559723595316457e+00 1.0000000000000000e+00 4.2000000000000000e+03 8.0000000000000000e+00 8.0000000000000000e+00 2.5000000000000000e+00 
104 2 4 2.2559723595316457e+00 1.0000000000000000e+00 4.2000000000000000e+03 1.0000000000000000e+01 6.0000000000000000e+00 2.5000000000000000e+00 
105 2 4 2.2559723595316457e+00 1.0000000000000000e+00 4.2000000000000000e+03 1.0000000000000000e+01 8.0000000000000000e+00 2.5000000000000000e+00 
124 2 4 2.2559723595316457e+00 1.0000000000000000e+00 4.2000000000000000e+03 1.2000000000000000e+01 6.0000000000000000e+00 2.5000000000000000e+00 
125 2 4 2.2559723595316457e+00 1.0000000000000000e+00 4.2000000000000000e+03 1.2000000000000000e+01 8.0000000000000000e+00 2.5000000000000000e+00 
144 2 4 2.2559723595316457e+00 1.0000000000000000e+00 4.2000000000000000e+03 1.4000000000000000e+01 6.0000000000000000e+00 2.5000000000000000e+00 
145 2 4 2.2559723595316457e+00 1.0000000000000000e+00 4.2000000000000000e+03 1.4000000000000000e+01 8.0000000000000000e+00 2.5000000000000000e+00 
164 2 4 2.2559723595316457e+00 1.0000000000000000e+00 4.2000000000000000e+03 1.6000000000000000e+01 6.0000000000000000e+00 2.5000000000000000e+00 
165 2 4 2.2559723595316457e+00 1.0000000000000000e+00 4.2000000000000000e+03 1.6000000000000000e+01 8.0000000000000000e+00 2.5000000000000000e+00 
184 2 4 2.2559723595316457e+00 1.0000000000000000e+00 4.2000000000000000e+03 1.8000000000000000e+01 6.0000000000000000e+00 2.5000000000000000e+00 
185 2 4 2.2559723595316457e+00 1.0000000000000000e+00 4.2000000000000000e+03 1.8000000000000000e+01 8.0000000000000000e+00 2.5000000000000000e+00 
6 2 4 2.2559723595316457e+00 1.0000000000000000e+00 4.2000000000000000e+03 0.0000000000000000e+00 1.0000000000000000e+01 2.5000000000000000e+00 
26 2 4 2.2559723595316457e+00 1.0000000000000000e+00 4.2000000000000000e+03 2.0000000000000000e+00 1.0000000000000000e+01 2.5000000000000000e+00 
46 2 4 2.2559723595316457e+00 1.0000000000000000e+00 4.2000000000000000e+03 4.0000000000000000e+00 1.0000000000000000e+01 2.5000000000000000e+00 
66 2 4 2.2559723595316457e+00 1.0000000000000000e+00 4.2000000000000000e+03 6.0000000000000000e+00 1.0000000000000000e+01 2.5000000000000000e+00 
86 2 4 2.2559723595316457e+00 1.0000000000000000e+00 4.2000000000000000e+03 8.0000000000000000e+00 1.0000000000000000e+01 2.5000000000000000e+00 
106 2 4 2.2559723595316457e+00 1.0000000000000000e+00 4.2000000000000000e+03 1.0000000000000000e+01 1.0000000000000000e+01 2.5000000000000000e+00 
126 2 4 2.2559723595316457e+00 1.0000000000000000e+00 4.2000000000000000e+03 1.2000000000000000e+01 1.0000000000000000e+01 2.5000000000000000e+00 
146 2 4 2.2559723595316457e+00 1.0000000000000000e+00 4.2000000000000000e+03 1.4000000000000000e+01 1.0000000000000000e+01 2.5000000000000000e+00 
166 2 4 2.2559723595316457e+00 1.0000000000000000e+00 4.2000000000000000e+03 1.6000000000000000e+01 1.0000000000000000e+01 2.5000000000000000e+00 
186 2 4 2.2559723595316457e+00 1.0000000000000000e+00 4.2000000000000000e+03 1.8000000000000000e+01 1.0000000000000000e+01 2.5000000000000000e+00 
7 2 4 2.2559723595316457e+00 1.0000000000000000e+00 4.2000000000000000e+03 0.0000000000000000e+00 1.2000000000000000e+01 2.5000000000000000e+00 
8 2 4 2.2559723595316457e+00 1.0227669380211384e+00 4.2000000000000000e+03 0.0000000000000000e+00 1.4000000000000000e+01 2.5000000000000000e+00 
27 2 4 2.2559723595316457e+00 1.0000000000000000e+00 4.2000000000000000e+03 2.0000000000000000e+00 1.2000000000000000e+01 2.5000000000000000e+00 
28 2 4 2.2559723595316457e+00 1.0000000000000000e+00 4.2000000000000000e+03 2.0000000000000000e+00 1.4000000000000000e+01 2.5000000000000000e+00 
47 2 4 2.2559723595316457e+00 1.0000000000000000e+00 4.2000000000000000e+03 4.0000000000000000e+00 1.2000000000000000e+01 2.5000000000000000e+00 
48 2 4 2.2559723595316457e+00 1.0000000000000000e+00 4.2000000000000000e+03 4.0000000000000000e+00 1.4000000000000000e+01 2.5000000000000000e+00 
67 2 4 2.2559723595316457e+00 1.0000000000000000e+00 4.2000000000000000e+03 6.0000000000000000e+00 1.2000000000000000e+01 2.5000000000000000e+00 
68 2 4 2.2559723595316457e+00 1.0000000000000000e+00 4.2000000000000000e+03 6.0000000000000000e+00 1.4000000000000000e+01 2.5000000000000000e+00 
87 2 4 2.2559723595316457e+00 1.0000000000000000e+00 4.2000000000000000e+03 8.0000000000000000e+00 1.2000000000000000e+01 2.5000000000000000e+00 
88 2 4 2.2559723595316457e+00 1.0000000000000000e+00 4.2000000000000000e+03 8.0000000000000000e+00 1.4000000000000000e+01 2.5000000000000000e+00 
107 2 4 2.2559723595316457e+00 1.0000000000000000e+00 4.2000000000000000e+03 1.0000000000000000e+01 1.2000000000000000e+01 2.5000000000000000e+00 
108 2 4 2.2559723595316457e+00 1.0000000000000000e+00 4.2000000000000000e+03 1.0000000000000000e+01 1.4000000000000000e+01 2.5000000000000000e+00 
127 2 4 2.2559723595316457e+00 1.0000000000000000e+00 4.2000000000000000e+03 1.2000000000000000e+01 1.2000000000000000e+01 2.5000000000000000e+00 
128 2 4 2.2559723595316457e+00 1.0000000000000000e+00 4.2000000000000000e+03 1.2000000000000000e+01 1.4000000000000000e+01 2.5000000000000000e+00 
147 2 4 2.2559723595316457e+00 1.0000000000000000e+00 4.2000000000000000e+03 1.4000000000000000e+01 1.2000000000000000e+01 2.5000000000000000e+00 
148 2 4 2.2559723595316457e+00 1.0000000000000000e+00 4.2000000000000000e+03 1.4000000000000000e+01 1.4000000000000000e+01 2.5000000000000000e+00 
167 2 4 2.2559723595316457e+00 1.0000000000000000e+00 4.2000000000000000e+03 1.6000000000000000e+01 1.2000000000000000e+01 2.5000000000000000e+00 
168 2 4 2.2559723595316457e+00 1.0000000000000000e+00 4.2000000000000000e+03 1.6000000000000000e+01 1.4000000000000000e+01 2.5000000000000000e+00 
187 2 4 2.2559723595316457e+00 1.0000000000000000e+00 4.2000000000000000e+03 1.8000000000000000e+01 1.2000000000000000e+01 2.5000000000000000e+00 
188 2 4 2.2559723595316457e+00 1.0000000000000000e+00 4.2000000000000000e+03 1.8000000000000000e+01 1.4000000000000000e+01 2.5000000000000000e+00 
9 2 4 2.2559723595316457e+00 9.9995659176404783e-01 4.2000000000000000e+03 0.0000000000000000e+00 1.6000000000000000e+01 2.5000000000000000e+00 
29 2 4 2.2559723595316457e+00 1.0000000000000000e+00 4.2000000000000000e+03 2.0000000000000000e+00 1.6000000000000000e+01 2.5000000000000000e+00 
49 2 4 2.2559723595316457e+00 1.0000000000000000e+00 4.2000000000000000e+03 4.0000000000000000e+00 1.6000000000000000e+01 2.5000000000000000e+00 
69 2 4 2.2559723595316457e+00 1.0000000000000000e+00 4.2000000000000000e+03 6.0000000000000000e+00 1.6000000000000000e+01 2.5000000000000000e+00 
89 2 4 2.2559723595316457e+00 1.0000000000000000e+00 4.2000000000000000e+03 8.0000000000000000e+00 1.6000000000000000e+01 2.5000000000000000e+00 
109 2 4 2.2559723595316457e+00 1.0000000000000000e+00 4.2000000000000000e+03 1.0000000000000000e+01 1.6000000000000000e+01 2.5000000000000000e+00 
129 2 4 2.2559723595316457e+00 1.0000000000000000e+00 4.2000000000000000e+03 1.2000000000000000e+01 1.6000000000000000e+01 2.5000000000000000e+00 
149 2 4 2.2559723595316457e+00 1.0000000000000000e+00 4.2000000000000000e+03 1.4000000000000000e+01 1.6000000000000000e+01 2.5000000000000000e+00 
169 2 4 2.2559723595316457e+00 1.0000000000000000e+00 4.2000000000000000e+03 1.6000000000000000e+01 1.6000000000000000e+01 2.5000000000000000e+00 
189 2 4 2.2559723595316457e+00 1.0000000000000000e+00 4.2000000000000000e+03 1.8000000000000000e+01 1.6000000000000000e+01 2.5000000000000000e+00 
10 2 4 2.2559723595316457e+00 1.0000000000000000e+00 4.2000000000000000e+03 0.0000000000000000e+00 1.8000000000000000e+01 2.5000000000000000e+00 
30 2 4 2.2559723595316457e+00 1.0000000000000000e+00 4.2000000000000000e+03 2.0000000000000000e+00 1.8000000000000000e+01 2.5000000000000000e+00 
50 2 4 2.2559723595316457e+00 1.0000000000000000e+00 4.2000000000000000e+03 4.0000000000000000e+00 1.8000000000000000e+01 2.5000000000000000e+00 
70 2 4 2.2559723595316457e+00 1.0002050029549028e+00 4.2000000000000000e+03 6.0000000000000000e+00 1.8000000000000000e+01 2.5000000000000000e+00 
90 2 4 2.2559723595316457e+00 7.1193629808272352e-01 4.2000000000000000e+03 8.0000000000000000e+00 1.8000000000000000e+01 2.5000000000000000e+00 
110 2 4 2.2559723595316457e+00 9.8530188282333608e-01 4.2000000000000000e+03 1.0000000000000000e+01 1.8000000000000000e+01 2.5000000000000000e+00 
130 2 4 2.2559723595316457e+00 1.0759012593019111e+00 4.2000000000000000e+03 1.2000000000000000e+01 1.8000000000000000e+01 2.5000000000000000e+00 
150 2 4 2.2559723595316457e+00 1.3007929333303774e+00 4.2000000000000000e+03 1.4000000000000000e+01 1.8000000000000000e+01 2.5000000000000000e+00 
170 2 4 2.2559723595316457e+00 9.5434886362470506e-01 4.2000000000000000e+03 1.6000000000000000e+01 1.8000000000000000e+01 2.5000000000000000e+00 
190 2 4 2.2559723595316457e+00 9.8387802260217161e-01 4.2000000000000000e+03 1.8000000000000000e+01 1.8000000000000000e+01 2.5000000000000000e+00 
1719 1321 2 1.0280000006930996e+00 -4.5794043279993627e+02 4.2000000000000000e+03 1.4736883995739070e-01 8.1540164804423920e-01 6.9673531319434892e+00 
1420 1022 2 1.0279999945280238e+00 3.5402392073340111e+03 4.2000000000000000e+03 3.8653412884098182e-02 7.6558376143512197e-01 6.4287586580852771e+00 
1896 1498 2 1.0280052666586870e+00 -1.4687056561462002e+03 4.2000000000000000e+03 1.9808650232358872e+01 1.7251674386113428e-01 6.8697962032724371e+00 
890 492 2 1.0280067153603039e+00 -3.1451863871305513e+03 4.2000000000000000e+03 1.9739183380930964e+01 1.9792361597745045e-01 7.0396178329763801e+00 
1893 1495 2 1.0279714166231313e+00 -1.4687145452519662e+03 4.2000000000000000e+03 1.7891816353650121e+01 2.9987912505102582e-01 7.3312790293269021e+00 
891 493 2 1.0279730812881769e+00 -3.1451669114736619e+03 4.2000000000000000e+03 1.7886637196595672e+01 2.5422408996899576e-01 7.5506820199575619e+00 
1120 722 2 1.0280094798141615e+00 -1.1806886020927091e+03 4.2000000000000000e+03 1.8123166974803794e+01 2.2139992756098928e-01 1.5106229035066344e+01 
1167 769 2 1.0279999026541344e+00 -7.0843217432278482e+02 4.2000000000000000e+03 1.8934158881295019e+01 2.1653006884180868e+00 1.5539034054132518e+01 
1166 768 2 1.0279997044120091e+00 -7.0841635031687042e+02 4.2000000000000000e+03 1.9615608996961264e+01 2.1575226554701228e+00 1.5570815437621913e+01 
483 85 2 1.0280029661827004e+00 -8.8690892292913145e+02 4.2000000000000000e+03 1.9453473060557041e+01 2.3568007440148531e+00 1.5965242415817896e+01 
482 84 2 1.0279996704592307e+00 -8.8691881992643778e+02 4.2000000000000000e+03 1.9082536864959408e+01 2.3656017839873731e+00 1.5956584732364544e+01 
1986 1588 2 1.0280023882333678e+00 -2.7074902465347159e+03 4.2000000000000000e+03 1.9255781431447872e+01 1.6570495356619031e+00 1.6437819149613031e+01 
1987 1589 2 1.0280024846717499e+00 -2.7075062007006723e+03 4.2000000000000000e+03 1.9211220266609999e+01 1.6554635964623787e+00 1.6436428337842681e+01 
409 11 2 1.0279764614543041e+00 3.7310066594414307e+03 4.2000000000000000e+03 1.8468494228472614e+00 1.9442537106124522e+01 2.0655167435359083e+01 
1921 1523 2 1.0279773389772939e+00 3.7309908517999438e+03 4.2000000000000000e+03 1.8357840201001370e+00 1.9504606173068055e+01 2.0643821865882327e+01 
579 181 2 1.0280099439359718e+00 2.5556952056448261e+00 4.2000000000000000e+03 3.3091103648815432e+00 1.7731883659279930e+01 2.0612866905366761e+01 
741 343 2 1.0280034361545474e+00 2.6389720109949399e+03 4.2000000000000000e+03 3.6435502320978745e+00 1.7734452924302804e+01 2.0292721747612120e+01 
743 345 2 1.0280092308121889e+00 6.6539630963336535e+01 4.2000000000000000e+03 3.9224583648875835e+00 1.7480922252397434e+01 2.0629886772909526e+01 
411 13 2 1.0279966974733366e+00 -1.2339168959761748e+03 4.2000000000000000e+03 4.5814388401041661e+00 1.8350736798490974e+01 2.0236352935864375e+01 
580 182 2 1.0279991706679805e+00 3.0091712582857290e+03 4.2000000000000000e+03 4.4934256602263947e+00 1.7823007831593966e+01 2.0857828495697209e+01 
738 340 2 1.0280015170649766e+00 -1.3965761319145095e+03 4.2000000000000000e+03 4.4455283399893695e+00 1.7782979300542181e+01 2.0934486775006725e+01 
1918 1520 2 1.0280006089097260e+00 -4.8141713951462089e+03 4.2000000000000000e+03 7.6625143905357895e-01 1.2231488307805738e-01 2.4295441044464823e+01 
802 404 2 1.0279993847672841e+00 -2.4103413845478467e+03 4.2000000000000000e+03 1.2806372618566628e+00 1.2452357280000123e-02 2.4521441617613814e+01 
1079 681 2 1.0279986328553319e+00 -4.3838968782034171e+03 4.2000000000000000e+03 1.1338336844285841e+01 7.1547344545830130e-02 2.3958927479884402e+01 
946 548 2 1.0280018798379857e+00 -3.6165914367520145e+03 4.2000000000000000e+03 1.3401444729264384e+01 2.8328075448774132e-01 2.2608272345359445e+01 
457 59 2 1.0280021532200956e+00 2.1089680845272046e+03 4.2000000000000000e+03 1.3392504054602414e+01 3.1250762942878590e-01 2.2815972811587113e+01 
1997 1599 2 1.0280015877297561e+00 2.5435484445585344e+03 4.2000000000000000e+03 1.2800192399164706e+01 3.5258557763704529e-01 2.3591803224695223e+01 
1291 893 2 1.0279962687375921e+00 -1.1695792520626997e+03 4.2000000000000000e+03 3.2556443123906341e-02 1.5685207084277165e+01 2.2826878489713714e+01 
1716 1318 2 1.0279939295710638e+00 4.2741904832963710e+03 4.2000000000000000e+03 2.1976524169998295e+00 1.6598467754789446e+01 2.3411657644570170e+01 
1677 1279 2 1.0279926944270661e+00 3.7595232688293522e+03 4.2000000000000000e+03 2.2129169076105342e+00 1.6618545648230448e+01 2.3603854004477025e+01 
1356 958 2 1.0279929654045310e+00 -8.7895766597970783e+02 4.2000000000000000e+03 2.4032794050485262e+00 1.6932100602744846e+01 2.3860112277284987e+01 
901 503 2 1.0279969720785784e+00 1.9920216209328187e+03 4.2000000000000000e+03 1.4457122366257842e+00 1.6616814066458357e+01 2.3959498879457136e+01 
1502 1104 2 1.0280001202984628e+00 -4.1657846888013601e+03 4.2000000000000000e+03 1.3125389069185309e-01 1.6430847086202085e+01 2.3922557476281920e+01 
1073 675 2 1.0280102020236348e+00 2.8178041697771141e+03 4.2000000000000000e+03 6.0779557405935858e-01 1.8231344175538556e+01 2.2328524042838321e+01 
1359 961 2 1.0279936066016460e+00 -1.1618682541739834e+03 4.2000000000000000e+03 4.4088411319534900e-02 1.8263506124943127e+01 2.3228901043608595e+01 
1641 1243 2 1.0280248929614120e+00 3.7545672362383198e+03 4.2000000000000000e+03 3.0319553529175125e+00 1.9439231803050443e+01 2.2945645163875415e+01 
1608 1210 2 1.0280260501694229e+00 4.2694325339697389e+03 4.2000000000000000e+03 3.1120413488749370e+00 1.8066347171489593e+01 2.3084022197537983e+01 
757 359 2 1.0279796379913981e+00 6.7055865423653495e+03 4.2000000000000000e+03 2.8768206980155342e+00 1.9032041313697473e+01 2.3209089026210791e+01 
881 483 2 1.0280021227588318e+00 6.7091411628302403e+03 4.2000000000000000e+03 2.9371310355919138e+00 1.7554050037075655e+01 2.3496351249128232e+01 
788 390 2 1.0280000977199408e+00 5.8090208789063536e+03 4.2000000000000000e+03 5.7042147923239939e-01 2.1245906734977216e-01 2.6905232372677307e+01 
459 61 2 1.0280009962433967e+00 -6.2246833741552371e+02 4.2000000000000000e+03 1.7058307596176043e+01 8.3509008178018866e-03 2.6615990360766890e+01 
571 173 2 1.0280001156938838e+00 -4.6219113301036014e+03 4.2000000000000000e+03 9.0002475741458376e-01 2.0532213687050491e-01 3.7863841640304386e+01 
401 3 2 1.0279970365769420e+00 -3.6314142479579405e+03 4.2000000000000000e+03 2.1155782718468994e+00 1.7045035532903036e-01 4.0670808737385208e+01 
422 24 2 1.0279958059751801e+00 -2.5864715699517546e+03 4.2000000000000000e+03 1.8457446232075114e+00 6.6973960825548240e-01 4.1132658178353850e+01 
964 566 2 1.0280008071791704e+00 7.3917811810698004e+03 4.2000000000000000e+03 6.2009156830337275e-01 1.5485371758425615e+00 4.1436520782361406e+01 
792 394 2 1.0279998848150458e+00 5.0876041936960510e+03 4.2000000000000000e+03 1.2347080560035062e-01 1.7028084174835063e+00 4.1531870334766985e+01 
948 550 2 1.0279974694470506e+00 7.7360147400614842e+03 4.2000000000000000e+03 2.9376566748776942e+00 6.8366542323581792e-01 4.1304887448000230e+01 
461 63 2 1.0280000868613717e+00 -9.0409179411836055e+02 4.2000000000000000e+03 4.6206871952656039e+00 6.2514839453034932e-02 4.1035432660554427e+01 
1813 1415 2 1.0279999576429943e+00 -3.9831869146407126e+02 4.2000000000000000e+03 4.8581430162292039e+00 2.5635356435927925e-01 4.1183219893525930e+01 
1777 1379 2 1.0279995565122686e+00 2.6528066468994081e+02 4.2000000000000000e+03 3.9914995112645202e+00 6.8154001575348977e-01 4.1190228634100620e+01 
1646 1248 2 1.0279970883802891e+00 -1.5452307234703051e+03 4.2000000000000000e+03 5.7013210195965947e-01 1.1478624239562346e-01 4.3660247828289968e+01 
786 388 2 1.0279984950698169e+00 -2.3305301356919485e+03 4.2000000000000000e+03 8.3561646952807644e-01 2.1633771112265117e+00 4.2891252554563891e+01 
1938 1540 2 1.0280080416047195e+00 -2.2607913115946094e+03 4.2000000000000000e+03 4.1431415087872825e-01 1.3051697310693686e+00 4.4134175663023093e+01 
962 564 2 1.0279961008568534e+00 -3.8109265905446200e+03 4.2000000000000000e+03 3.9852533096405178e+00 6.7572248898879161e-01 4.2598598360550191e+01 
1126 728 2 1.0279971258842806e+00 -2.5410514696560690e+03 4.2000000000000000e+03 4.7729958663148881e+00 8.4666027949710754e-01 4.2584250086607760e+01 
1981 1583 2 1.0279935457945288e+00 3.9616419864264681e+03 4.2000000000000000e+03 6.6538193689024441e+00 1.9630306135330189e-01 4.3181219419850713e+01 
1437 1039 2 1.0279951234374252e+00 4.8814682181528842e+03 4.2000000000000000e+03 6.7240986027990273e+00 2.1614657800690368e-01 4.3163309001646354e+01 
1124 726 2 1.0280040391237233e+00 9.3085013716374408e+02 4.2000000000000000e+03 7.7341018723204860e+00 5.2193716295769566e-01 4.2981202274425918e+01 
420 22 2 1.0279919559128261e+00 2.4788655091668079e+03 4.2000000000000000e+03 8.7215093277445419e+00 1.5622760044768294e-02 4.2047932926734127e+01 
1114 716 2 1.0279717540209274e+00 -8.9764532223688593e+02 4.2000000000000000e+03 8.9797225049118747e+00 3.0288532699474408e-01 4.3691156699414158e+01 
1989 1591 2 1.0280094422357076e+00 1.9371134911306692e+03 4.2000000000000000e+03 1.0973462805979837e+01 1.7030823122407451e-01 4.3400426826644683e+01 
1116 718 2 1.0280004135837999e+00 -1.7967743546175332e+03 4.2000000000000000e+03 1.2838283323824070e+01 2.8296157174388364e-01 4.3143427728512933e+01 
1142 744 2 1.0280019072911866e+00 -2.4767659189538090e+03 4.2000000000000000e+03 1.1910041052596450e+01 5.1963136981181957e-01 4.3366934220889554e+01 
749 351 2 1.0279996542651819e+00 2.9329107756636536e+03 4.2000000000000000e+03 1.3090471889418014e+01 5.8208071469181236e-02 4.3607778645282046e+01 
1806 1408 2 1.0279995146162650e+00 -1.5063934193978585e+03 4.2000000000000000e+03 1.3044910193371575e+01 6.9769007569837463e-02 4.3707904576636118e+01 
780 382 2 1.0279990488520103e+00 4.2731066299428039e+03 4.2000000000000000e+03 1.2977826629846454e+01 2.0710023402422884e-02 4.3858679980568226e+01 
776 378 2 1.0279986979805162e+00 5.2289828391141527e+03 4.2000000000000000e+03 4.5092202453040992e-01 3.1297513421993055e+00 4.3180385123231588e+01 
1118 720 2 1.0279979777091519e+00 -1.6242872013300614e+03 4.2000000000000000e+03 4.3970389544970429e-01 3.5110558783521184e+00 4.3800816702615869e+01 
1407 1009 2 1.0279922237702526e+00 -4.2055660541718353e+03 4.2000000000000000e+03 4.9889562763481532e-01 1.5304838154142814e-01 4.6283214668197004e+01 
1815 1417 2 1.0280087341960449e+00 7.9982273013237659e+01 4.2000000000000000e+03 5.1996812752119614e-01 1.0082573551258156e+00 4.6134624067933643e+01 
1958 1560 2 1.0279937498004810e+00 4.7056229125201105e+02 4.2000000000000000e+03 2.4938624481987688e+00 1.4838223600584988e+00 4.5180246082730172e+01 
1268 870 2 1.0279938707642953e+00 8.8204815252239587e+02 4.2000000000000000e+03 2.1935672921745728e+00 1.6296988743327216e+00 4.5012400952316021e+01 
956 558 2 1.0279980995362692e+00 6.5684931690077965e+03 4.2000000000000000e+03 2.1180765560298846e+00 2.1931061968545720e+00 4.5615155739966120e+01 
490 92 2 1.0279998493209843e+00 -6.0728706120101890e+02 4.2000000000000000e+03 4.2167817948387221e+00 7.8739325505526137e-01 4.5129787990530858e+01 
1554 1156 2 1.0279971646776260e+00 -4.2926843844803579e+03 4.2000000000000000e+03 4.2503904410097340e+00 8.0422829887114977e-01 4.4604355074796132e+01 
826 428 2 1.0279939674072154e+00 -2.7783569444232407e+03 4.2000000000000000e+03 4.3753293905724968e+00 4.4666756075908565e-01 4.5686571844343682e+01 
1313 915 2 1.0279928591065233e+00 -1.1309060102919188e+03 4.2000000000000000e+03 4.6789422291473208e+00 3.9053734338456669e-01 4.5122765228703763e+01 
614 216 2 1.0279889902896167e+00 -8.6875379020010348e+02 4.2000000000000000e+03 8.3490588377846997e+00 1.5777518438374727e-01 4.5789289039918579e+01 
647 249 2 1.0280034990801814e+00 -6.1662520682957393e+02 4.2000000000000000e+03 9.1878473499615883e+00 8.0938594882921711e-01 4.5820493754035752e+01 
1473 1075 2 1.0279815488675470e+00 6.6390929033056054e+03 4.2000000000000000e+03 1.0754629846569744e+01 4.0527353159529805e-01 4.5331824728468121e+01 
1478 1080 2 1.0279989651208155e+00 -5.0932143356913466e+03 4.2000000000000000e+03 1.0444950398729011e+01 7.4271634896032213e-01 4.4510311634451917e+01 
1640 1242 2 1.0279868307940123e+00 4.9679054858747741e+03 4.2000000000000000e+03 1.0594682417041604e+01 5.0718258861146248e-01 4.5494539253947721e+01 
1107 709 2 1.0280071669500883e+00 8.7979363426031819e+02 4.2000000000000000e+03 9.6081480125889289e+00 8.4675335069288493e-01 4.6074658412624515e+01 
829 431 2 1.0279933039983493e+00 4.9480533197651521e+03 4.2000000000000000e+03 1.0867107228913063e+01 1.9810311232460198e-01 4.6977113160835067e+01 
1928 1530 2 1.0280013335674298e+00 2.2396440531704206e+03 4.2000000000000000e+03 1.0539503598594435e+00 3.3289612262258204e+00 4.5997830332715694e+01 
1985 1587 2 1.0280042915144927e+00 1.5338084297474941e+03 4.2000000000000000e+03 6.0196514241565613e-01 3.4833351329614057e+00 4.5876239599486873e+01 
1793 1395 2 1.0280022054039022e+00 2.6991075699056393e+02 4.2000000000000000e+03 4.7217160924970220e-01 3.5970413222161390e+00 4.5163604910898130e+01 
1243 845 2 1.0279956775953987e+00 -4.2040740567172907e+03 4.2000000000000000e+03 7.2643459407345901e-01 5.8056612770966645e-02 4.8534392204965300e+01 
1176 778 2 1.0280053294961207e+00 7.1457815727487207e+02 4.2000000000000000e+03 1.3395926794409476e+00 2.7675385263612279e-01 4.9712900184515732e+01 
1140 742 2 1.0279997430621060e+00 7.1424777948384803e+02 4.2000000000000000e+03 3.8913415618082148e-01 5.0426858157903209e-01 4.7723443849653918e+01 
944 546 2 1.0280042501431561e+00 7.4335704441344942e+03 4.2000000000000000e+03 2.4535385646075865e+00 1.2341510626058392e+00 4.7499891077188110e+01 
984 586 2 1.0279990945655142e+00 7.0954141200602435e+03 4.2000000000000000e+03 2.3279786452335465e+00 1.4981574572145691e+00 4.7296907169598768e+01 
790 392 2 1.0279895629103137e+00 -6.4313710647401092e+02 4.2000000000000000e+03 1.9758994378271133e+00 2.3521764358868986e+00 4.8227889125712380e+01 
850 452 2 1.0280016888452113e+00 -6.4322550694327197e+02 4.2000000000000000e+03 1.6544929570723599e+00 2.4946746271720799e+00 4.9939651533783348e+01 
1810 1412 2 1.0280029717206260e+00 -1.7375424765936662e+03 4.2000000000000000e+03 3.8156939465989921e+00 1.0510800238620333e+00 4.8715149724914774e+01 
1846 1448 2 1.0280026759176439e+00 -1.7375902209278497e+03 4.2000000000000000e+03 3.8174705321704590e+00 1.0876288002791086e+00 4.8884282220879754e+01 
957 559 2 1.0279977298345573e+00 8.1097662861580484e+03 4.2000000000000000e+03 6.4580444896107307e+00 9.0145710187198802e-01 4.9112127181162450e+01 
441 43 2 1.0279973626743237e+00 -3.9620880662579434e+03 4.2000000000000000e+03 7.6334348025852634e+00 5.6125149203991753e-01 4.7253309358339706e+01 
2052 1654 2 1.0279966380010666e+00 -1.2108682817162862e+03 4.2000000000000000e+03 7.7940924922144523e+00 7.3110097319595280e-01 4.7585744184592848e+01 