LAMMPS data file via write_data, version 30 Jul 2016, timestep = 1000000

2080 atoms
8 atom types

0.0000000000000000e+00 4.0000000000000000e+01 xlo xhi
0.0000000000000000e+00 4.0000000000000000e+01 ylo yhi
0.0000000000000000e+00 1.0000000000000000e+02 zlo zhi

Masses

1 3.896
2 5.36
3 1058.08
4 8.378
5 8.378
6 8.378
7 8.378
8 8.378

Atoms # meso-molecular

1 2 4 2.2559723595316457e+00 9.9757901864259457e-01 4.2000000000000000e+03 0.0000000000000000e+00 0.0000000000000000e+00 2.5000000000000000e+00 
2 2 4 2.2559723595352197e+00 1.0002110538205138e+00 4.2000000000000000e+03 0.0000000000000000e+00 2.0000000000000000e+00 2.5000000000000000e+00 
21 2 4 2.2559723595316457e+00 1.0000000000000000e+00 4.2000000000000000e+03 2.0000000000000000e+00 0.0000000000000000e+00 2.5000000000000000e+00 
22 2 4 2.2559723595316457e+00 1.0000000000000000e+00 4.2000000000000000e+03 2.0000000000000000e+00 2.0000000000000000e+00 2.5000000000000000e+00 
41 2 4 2.2559723595316457e+00 1.0000000000000000e+00 4.2000000000000000e+03 4.0000000000000000e+00 0.0000000000000000e+00 2.5000000000000000e+00 
42 2 4 2.2559723595316457e+00 1.0000000000000000e+00 4.2000000000000000e+03 4.0000000000000000e+00 2.0000000000000000e+00 2.5000000000000000e+00 
61 2 4 2.2559723595316457e+00 1.0000000000000000e+00 4.2000000000000000e+03 6.0000000000000000e+00 0.0000000000000000e+00 2.5000000000000000e+00 
62 2 4 2.2559723595316457e+00 1.0000000000000000e+00 4.2000000000000000e+03 6.0000000000000000e+00 2.0000000000000000e+00 2.5000000000000000e+00 
81 2 4 2.2559723595316457e+00 1.0000000000000000e+00 4.2000000000000000e+03 8.0000000000000000e+00 0.0000000000000000e+00 2.5000000000000000e+00 
82 2 4 2.2559723595316457e+00 1.0000000000000000e+00 4.2000000000000000e+03 8.0000000000000000e+00 2.0000000000000000e+00 2.5000000000000000e+00 
101 2 4 2.2559723595316457e+00 1.0000000000000000e+00 4.2000000000000000e+03 1.0000000000000000e+01 0.0000000000000000e+00 2.5000000000000000e+00 
102 2 4 2.2559723595316457e+00 1.0000000000000000e+00 4.2000000000000000e+03 1.0000000000000000e+01 2.0000000000000000e+00 2.5000000000000000e+00 
121 2 4 2.2559723595316457e+00 1.0000189417218408e+00 4.2000000000000000e+03 1.2000000000000000e+01 0.0000000000000000e+00 2.5000000000000000e+00 
122 2 4 2.2559723595316457e+00 1.0000000000000000e+00 4.2000000000000000e+03 1.2000000000000000e+01 2.0000000000000000e+00 2.5000000000000000e+00 
141 2 4 2.2559723595316457e+00 1.0000000000000000e+00 4.2000000000000000e+03 1.4000000000000000e+01 0.0000000000000000e+00 2.5000000000000000e+00 
142 2 4 2.2559723595316457e+00 1.0000000000000000e+00 4.2000000000000000e+03 1.4000000000000000e+01 2.0000000000000000e+00 2.5000000000000000e+00 
161 2 4 2.2559723595316457e+00 9.9958287275810687e-01 4.2000000000000000e+03 1.6000000000000000e+01 0.0000000000000000e+00 2.5000000000000000e+00 
162 2 4 2.2559723595316457e+00 1.0000000000000000e+00 4.2000000000000000e+03 1.6000000000000000e+01 2.0000000000000000e+00 2.5000000000000000e+00 
181 2 4 2.2559723595317509e+00 1.0006104342597868e+00 4.2000000000000000e+03 1.8000000000000000e+01 0.0000000000000000e+00 2.5000000000000000e+00 
182 2 4 2.2559723595316457e+00 1.0000000000000000e+00 4.2000000000000000e+03 1.8000000000000000e+01 2.0000000000000000e+00 2.5000000000000000e+00 
3 2 4 2.2559723595316457e+00 1.0000000000000000e+00 4.2000000000000000e+03 0.0000000000000000e+00 4.0000000000000000e+00 2.5000000000000000e+00 
23 2 4 2.2559723595316457e+00 1.0000000000000000e+00 4.2000000000000000e+03 2.0000000000000000e+00 4.0000000000000000e+00 2.5000000000000000e+00 
43 2 4 2.2559723595316457e+00 1.0000000000000000e+00 4.2000000000000000e+03 4.0000000000000000e+00 4.0000000000000000e+00 2.5000000000000000e+00 
63 2 4 2.2559723595316457e+00 1.0000000000000000e+00 4.2000000000000000e+03 6.0000000000000000e+00 4.0000000000000000e+00 2.5000000000000000e+00 
83 2 4 2.2559723595316457e+00 1.0000000000000000e+00 4.2000000000000000e+03 8.0000000000000000e+00 4.0000000000000000e+00 2.5000000000000000e+00 
103 2 4 2.2559723595316457e+00 1.0000000000000000e+00 4.2000000000000000e+03 1.0000000000000000e+01 4.0000000000000000e+00 2.5000000000000000e+00 
123 2 4 2.2559723595316457e+00 1.0000000000000000e+00 4.2000000000000000e+03 1.2000000000000000e+01 4.0000000000000000e+00 2.5000000000000000e+00 
143 2 4 2.2559723595316457e+00 1.0000000000000000e+00 4.2000000000000000e+03 1.4000000000000000e+01 4.0000000000000000e+00 2.5000000000000000e+00 
163 2 4 2.2559723595316457e+00 1.0000000000000000e+00 4.2000000000000000e+03 1.6000000000000000e+01 4.0000000000000000e+00 2.5000000000000000e+00 
183 2 4 2.2559723595316457e+00 1.0000000000000000e+00 4.2000000000000000e+03 1.8000000000000000e+01 4.0000000000000000e+00 2.5000000000000000e+00 
4 2 4 2.2559723595316457e+00 1.0000000000000000e+00 4.2000000000000000e+03 0.0000000000000000e+00 6.0000000000000000e+00 2.5000000000000000e+00 
5 2 4 2.2559723595316457e+00 1.0000000000000000e+00 4.2000000000000000e+03 0.0000000000000000e+00 8.0000000000000000e+00 2.5000000000000000e+00 
24 2 4 2.2559723595316457e+00 1.0000000000000000e+00 4.2000000000000000e+03 2.0000000000000000e+00 6.0000000000000000e+00 2.5000000000000000e+00 
25 2 4 2.2559723595316457e+00 1.0000000000000000e+00 4.2000000000000000e+03 2.0000000000000000e+00 8.0000000000000000e+00 2.5000000000000000e+00 
44 2 4 2.2559723595316457e+00 1.0000000000000000e+00 4.2000000000000000e+03 4.0000000000000000e+00 6.0000000000000000e+00 2.5000000000000000e+00 
45 2 4 2.2559723595316457e+00 1.0000000000000000e+00 4.2000000000000000e+03 4.0000000000000000e+00 8.0000000000000000e+00 2.5000000000000000e+00 
64 2 4 2.2559723595316457e+00 1.0000000000000000e+00 4.2000000000000000e+03 6.0000000000000000e+00 6.0000000000000000e+00 2.5000000000000000e+00 
65 2 4 2.2559723595316457e+00 1.0000000000000000e+00 4.2000000000000000e+03 6.0000000000000000e+00 8.0000000000000000e+00 2.5000000000000000e+00 
84 2 4 2.2559723595316457e+00 1.0000000000000000e+00 4.2000000000000000e+03 8.0000000000000000e+00 6.0000000000000000e+00 2.5000000000000000e+00 
85 2 4 2.2559723595316457e+00 1.0000000000000000e+00 4.2000000000000000e+03 8.0000000000000000e+00 8.0000000000000000e+00 2.5000000000000000e+00 
104 2 4 2.2559723595316457e+00 1.0000000000000000e+00 4.2000000000000000e+03 1.0000000000000000e+01 6.0000000000000000e+00 2.5000000000000000e+00 
105 2 4 2.2559723595316457e+00 1.0000000000000000e+00 4.2000000000000000e+03 1.0000000000000000e+01 8.0000000000000000e+00 2.5000000000000000e+00 
124 2 4 2.2559723595316457e+00 1.0000000000000000e+00 4.2000000000000000e+03 1.2000000000000000e+01 6.0000000000000000e+00 2.5000000000000000e+00 
125 2 4 2.2559723595316457e+00 1.0000000000000000e+00 4.2000000000000000e+03 1.2000000000000000e+01 8.0000000000000000e+00 2.5000000000000000e+00 
144 2 4 2.2559723595316457e+00 1.0000000000000000e+00 4.2000000000000000e+03 1.4000000000000000e+01 6.0000000000000000e+00 2.5000000000000000e+00 
145 2 4 2.2559723595316457e+00 1.0000000000000000e+00 4.2000000000000000e+03 1.4000000000000000e+01 8.0000000000000000e+00 2.5000000000000000e+00 
164 2 4 2.2559723595316457e+00 1.0000000000000000e+00 4.2000000000000000e+03 1.6000000000000000e+01 6.0000000000000000e+00 2.5000000000000000e+00 
165 2 4 2.2559723595316457e+00 1.0000000000000000e+00 4.2000000000000000e+03 1.6000000000000000e+01 8.0000000000000000e+00 2.5000000000000000e+00 
184 2 4 2.2559723595316457e+00 1.0000000000000000e+00 4.2000000000000000e+03 1.8000000000000000e+01 6.0000000000000000e+00 2.5000000000000000e+00 
185 2 4 2.2559723595316457e+00 1.0000000000000000e+00 4.2000000000000000e+03 1.8000000000000000e+01 8.0000000000000000e+00 2.5000000000000000e+00 
6 2 4 2.2559723595316457e+00 1.0000000000000000e+00 4.2000000000000000e+03 0.0000000000000000e+00 1.0000000000000000e+01 2.5000000000000000e+00 
26 2 4 2.2559723595316457e+00 1.0000000000000000e+00 4.2000000000000000e+03 2.0000000000000000e+00 1.0000000000000000e+01 2.5000000000000000e+00 
46 2 4 2.2559723595316457e+00 1.0000000000000000e+00 4.2000000000000000e+03 4.0000000000000000e+00 1.0000000000000000e+01 2.5000000000000000e+00 
66 2 4 2.2559723595316457e+00 1.0000000000000000e+00 4.2000000000000000e+03 6.0000000000000000e+00 1.0000000000000000e+01 2.5000000000000000e+00 
86 2 4 2.2559723595316457e+00 1.0000000000000000e+00 4.2000000000000000e+03 8.0000000000000000e+00 1.0000000000000000e+01 2.5000000000000000e+00 
106 2 4 2.2559723595316457e+00 1.0000000000000000e+00 4.2000000000000000e+03 1.0000000000000000e+01 1.0000000000000000e+01 2.5000000000000000e+00 
126 2 4 2.2559723595316457e+00 1.0000000000000000e+00 4.2000000000000000e+03 1.2000000000000000e+01 1.0000000000000000e+01 2.5000000000000000e+00 
146 2 4 2.2559723595316457e+00 1.0000000000000000e+00 4.2000000000000000e+03 1.4000000000000000e+01 1.0000000000000000e+01 2.5000000000000000e+00 
166 2 4 2.2559723595316457e+00 1.0000000000000000e+00 4.2000000000000000e+03 1.6000000000000000e+01 1.0000000000000000e+01 2.5000000000000000e+00 
186 2 4 2.2559723595316457e+00 1.0000000000000000e+00 4.2000000000000000e+03 1.8000000000000000e+01 1.0000000000000000e+01 2.5000000000000000e+00 
7 2 4 2.2559723595316457e+00 1.0000000000000000e+00 4.2000000000000000e+03 0.0000000000000000e+00 1.2000000000000000e+01 2.5000000000000000e+00 
8 2 4 2.2559723595316457e+00 1.0227669380211384e+00 4.2000000000000000e+03 0.0000000000000000e+00 1.4000000000000000e+01 2.5000000000000000e+00 
27 2 4 2.2559723595316457e+00 1.0000000000000000e+00 4.2000000000000000e+03 2.0000000000000000e+00 1.2000000000000000e+01 2.5000000000000000e+00 
28 2 4 2.2559723595316457e+00 1.0000000000000000e+00 4.2000000000000000e+03 2.0000000000000000e+00 1.4000000000000000e+01 2.5000000000000000e+00 
47 2 4 2.2559723595316457e+00 1.0000000000000000e+00 4.2000000000000000e+03 4.0000000000000000e+00 1.2000000000000000e+01 2.5000000000000000e+00 
48 2 4 2.2559723595316457e+00 1.0000000000000000e+00 4.2000000000000000e+03 4.0000000000000000e+00 1.4000000000000000e+01 2.5000000000000000e+00 
67 2 4 2.2559723595316457e+00 1.0000000000000000e+00 4.2000000000000000e+03 6.0000000000000000e+00 1.2000000000000000e+01 2.5000000000000000e+00 
68 2 4 2.2559723595316457e+00 1.0000000000000000e+00 4.2000000000000000e+03 6.0000000000000000e+00 1.4000000000000000e+01 2.5000000000000000e+00 
87 2 4 2.2559723595316457e+00 1.0000000000000000e+00 4.2000000000000000e+03 8.0000000000000000e+00 1.2000000000000000e+01 2.5000000000000000e+00 
88 2 4 2.2559723595316457e+00 1.0000000000000000e+00 4.2000000000000000e+03 8.0000000000000000e+00 1.4000000000000000e+01 2.5000000000000000e+00 
107 2 4 2.2559723595316457e+00 1.0000000000000000e+00 4.2000000000000000e+03 1.0000000000000000e+01 1.2000000000000000e+01 2.5000000000000000e+00 
108 2 4 2.2559723595316457e+00 1.0000000000000000e+00 4.2000000000000000e+03 1.0000000000000000e+01 1.4000000000000000e+01 2.5000000000000000e+00 
127 2 4 2.2559723595316457e+00 1.0000000000000000e+00 4.2000000000000000e+03 1.2000000000000000e+01 1.2000000000000000e+01 2.5000000000000000e+00 
128 2 4 2.2559723595316457e+00 1.0000000000000000e+00 4.2000000000000000e+03 1.2000000000000000e+01 1.4000000000000000e+01 2.5000000000000000e+00 
147 2 4 2.2559723595316457e+00 1.0000000000000000e+00 4.2000000000000000e+03 1.4000000000000000e+01 1.2000000000000000e+01 2.5000000000000000e+00 
148 2 4 2.2559723595316457e+00 1.0000000000000000e+00 4.2000000000000000e+03 1.4000000000000000e+01 1.4000000000000000e+01 2.5000000000000000e+00 
167 2 4 2.2559723595316457e+00 1.0000000000000000e+00 4.2000000000000000e+03 1.6000000000000000e+01 1.2000000000000000e+01 2.5000000000000000e+00 
168 2 4 2.2559723595316457e+00 1.0000000000000000e+00 4.2000000000000000e+03 1.6000000000000000e+01 1.4000000000000000e+01 2.5000000000000000e+00 
187 2 4 2.2559723595316457e+00 1.0000000000000000e+00 4.2000000000000000e+03 1.8000000000000000e+01 1.2000000000000000e+01 2.5000000000000000e+00 
188 2 4 2.2559723595316457e+00 1.0000000000000000e+00 4.2000000000000000e+03 1.8000000000000000e+01 1.4000000000000000e+01 2.5000000000000000e+00 
9 2 4 2.2559723595316457e+00 9.9995659176404783e-01 4.2000000000000000e+03 0.0000000000000000e+00 1.6000000000000000e+01 2.5000000000000000e+00 
29 2 4 2.2559723595316457e+00 1.0000000000000000e+00 4.2000000000000000e+03 2.0000000000000000e+00 1.6000000000000000e+01 2.5000000000000000e+00 
49 2 4 2.2559723595316457e+00 1.0000000000000000e+00 4.2000000000000000e+03 4.0000000000000000e+00 1.6000000000000000e+01 2.5000000000000000e+00 
69 2 4 2.2559723595316457e+00 1.0000000000000000e+00 4.2000000000000000e+03 6.0000000000000000e+00 1.6000000000000000e+01 2.5000000000000000e+00 
89 2 4 2.2559723595316457e+00 1.0000000000000000e+00 4.2000000000000000e+03 8.0000000000000000e+00 1.6000000000000000e+01 2.5000000000000000e+00 
109 2 4 2.2559723595316457e+00 1.0000000000000000e+00 4.2000000000000000e+03 1.0000000000000000e+01 1.6000000000000000e+01 2.5000000000000000e+00 
129 2 4 2.2559723595316457e+00 1.0000000000000000e+00 4.2000000000000000e+03 1.2000000000000000e+01 1.6000000000000000e+01 2.5000000000000000e+00 
149 2 4 2.2559723595316457e+00 1.0000000000000000e+00 4.2000000000000000e+03 1.4000000000000000e+01 1.6000000000000000e+01 2.5000000000000000e+00 
169 2 4 2.2559723595316457e+00 1.0000000000000000e+00 4.2000000000000000e+03 1.6000000000000000e+01 1.6000000000000000e+01 2.5000000000000000e+00 
189 2 4 2.2559723595316457e+00 1.0000000000000000e+00 4.2000000000000000e+03 1.8000000000000000e+01 1.6000000000000000e+01 2.5000000000000000e+00 
10 2 4 2.2559723595316457e+00 1.0000000000000000e+00 4.2000000000000000e+03 0.0000000000000000e+00 1.8000000000000000e+01 2.5000000000000000e+00 
30 2 4 2.2559723595316457e+00 1.0000000000000000e+00 4.2000000000000000e+03 2.0000000000000000e+00 1.8000000000000000e+01 2.5000000000000000e+00 
50 2 4 2.2559723595316457e+00 1.0000000000000000e+00 4.2000000000000000e+03 4.0000000000000000e+00 1.8000000000000000e+01 2.5000000000000000e+00 
70 2 4 2.2559723595316457e+00 1.0002050029549028e+00 4.2000000000000000e+03 6.0000000000000000e+00 1.8000000000000000e+01 2.5000000000000000e+00 
90 2 4 2.2559723595316457e+00 7.1193629808272352e-01 4.2000000000000000e+03 8.0000000000000000e+00 1.8000000000000000e+01 2.5000000000000000e+00 
110 2 4 2.2559723595316457e+00 9.8530188282333608e-01 4.2000000000000000e+03 1.0000000000000000e+01 1.8000000000000000e+01 2.5000000000000000e+00 
130 2 4 2.2559723595316457e+00 1.0759012593019111e+00 4.2000000000000000e+03 1.2000000000000000e+01 1.8000000000000000e+01 2.5000000000000000e+00 
150 2 4 2.2559723595316457e+00 1.3007929333303774e+00 4.2000000000000000e+03 1.4000000000000000e+01 1.8000000000000000e+01 2.5000000000000000e+00 
170 2 4 2.2559723595316457e+00 9.5434886362470506e-01 4.2000000000000000e+03 1.6000000000000000e+01 1.8000000000000000e+01 2.5000000000000000e+00 
190 2 4 2.2559723595316457e+00 9.8387802260217161e-01 4.2000000000000000e+03 1.8000000000000000e+01 1.8000000000000000e+01 2.5000000000000000e+00 
816 418 2 1.0280006589998132e+00 2.6916990249282453e+03 4.2000000000000000e+03 1.6653404017113438e+01 6.9956909453872687e-02 7.8958070584452100e+00 
633 235 2 1.0279995000304529e+00 -1.8284446217970969e+02 4.2000000000000000e+03 1.7697953250122975e+01 7.7010894597184876e-01 6.4140053868701790e+00 
1809 1411 2 1.0279994856029642e+00 -1.8274014012587131e+02 4.2000000000000000e+03 1.7768466911039834e+01 8.0459452168806667e-01 6.4124904359598718e+00 
1893 1495 2 1.0280000113777774e+00 -1.4686382109132339e+03 4.2000000000000000e+03 1.9265934840248004e+01 1.0283887245855150e+00 6.7086526900520758e+00 
891 493 2 1.0280001664528433e+00 -3.1450796753147997e+03 4.2000000000000000e+03 1.9254017521570606e+01 1.0386979144095798e+00 6.8396575241958759e+00 
741 343 2 1.0280000180097855e+00 2.6390001164484092e+03 4.2000000000000000e+03 4.1258762956103734e+00 1.9692922205712559e+01 7.6121592340842916e+00 
579 181 2 1.0280000119783630e+00 2.6023859818870041e+00 4.2000000000000000e+03 3.6916878721364648e+00 1.9669123344981930e+01 7.8641100503633163e+00 
743 345 2 1.0280000055836325e+00 6.6573018149599520e+01 4.2000000000000000e+03 4.4591212328013263e+00 1.9386985330635895e+01 7.9907653731040336e+00 
580 182 2 1.0279999898995942e+00 3.0091983573648586e+03 4.2000000000000000e+03 5.0340196811668898e+00 1.9818817673733019e+01 8.2559021035004445e+00 
738 340 2 1.0279999889549343e+00 -1.3965454524231930e+03 4.2000000000000000e+03 4.9916835282257903e+00 1.9772761948048323e+01 8.3264149964783698e+00 
453 55 2 1.0279878549260013e+00 -2.3778593610614876e+03 4.2000000000000000e+03 2.2473682230470677e+00 1.4996761238937079e-01 1.1089292499231588e+01 
934 536 2 1.0280004137804788e+00 -2.1001308745521501e+03 4.2000000000000000e+03 1.7638949103002812e+01 4.1738420343084459e-01 8.6400225206481132e+00 
910 512 2 1.0280002838517608e+00 -7.1229414060260308e+02 4.2000000000000000e+03 1.7571409304992578e+01 3.1887079137750463e-01 9.0914606665851778e+00 
1803 1405 2 1.0280006035552494e+00 -1.7447861410725493e+03 4.2000000000000000e+03 1.8415830530440765e+01 1.7532894837354984e-01 1.1104992772458985e+01 
1291 893 2 1.0280000179820306e+00 -1.1695747293920622e+03 4.2000000000000000e+03 6.4576304768590345e-02 1.7710276049884911e+01 9.3574564357769265e+00 
1716 1318 2 1.0280000152224076e+00 4.2742115825691862e+03 4.2000000000000000e+03 2.2424968922713009e+00 1.8587129469495331e+01 1.0137355571671124e+01 
1677 1279 2 1.0280000079601419e+00 3.7595421112794297e+03 4.2000000000000000e+03 2.2482720200980744e+00 1.8616360378881645e+01 1.0299654783112048e+01 
1502 1104 2 1.0279999731225320e+00 -4.1657780256106544e+03 4.2000000000000000e+03 2.0173390784605982e-01 1.8407831759737739e+01 1.0394131830443929e+01 
901 503 2 1.0279999996313982e+00 1.9920338447452082e+03 4.2000000000000000e+03 1.5220377261831961e+00 1.8611199361882989e+01 1.0527676023669255e+01 
1356 958 2 1.0279999870250423e+00 -8.7893612904649467e+02 4.2000000000000000e+03 2.4331197088957861e+00 1.8896458496364112e+01 1.0532457754187373e+01 
881 483 2 1.0279999725629212e+00 6.7091841479329732e+03 4.2000000000000000e+03 3.0611632068874739e+00 1.9487971567826289e+01 1.0329020202212098e+01 
1918 1520 2 1.0280183973213679e+00 -4.8141610306582206e+03 4.2000000000000000e+03 9.2721775610350998e-01 4.4794993165312613e-01 1.2731002677011858e+01 
802 404 2 1.0280012233262599e+00 -2.4103352144308383e+03 4.2000000000000000e+03 1.4168596663319144e+00 3.2008130687944025e-01 1.2919933352387531e+01 
1395 997 2 1.0279975394017005e+00 -8.0775839757896720e+03 4.2000000000000000e+03 1.4269193065842805e+00 5.1889028046327855e-02 1.3039580405454512e+01 
406 8 2 1.0280064697731506e+00 -4.8155309332378874e+03 4.2000000000000000e+03 7.7292175290165277e-01 3.3820847520412846e-02 1.3844319644225356e+01 
1120 722 2 1.0279972677118403e+00 -1.1806024202954723e+03 4.2000000000000000e+03 1.9106176695996396e+01 4.9026547449293617e-01 1.1729818005074845e+01 
1167 769 2 1.0280002067387264e+00 -7.0839113914352549e+02 4.2000000000000000e+03 1.9980026744844167e+01 2.5550032288005657e+00 1.1380264195232179e+01 
454 56 2 1.0280004868155994e+00 -1.1138564856500750e+03 4.2000000000000000e+03 1.8490607664459109e+01 1.8039274162754318e-01 1.1145345121312870e+01 
788 390 2 1.0280011650621093e+00 5.8090216848651153e+03 4.2000000000000000e+03 6.5251028826528568e-01 5.4140008958983676e-01 1.5284624331732049e+01 
592 194 2 1.0280002793153893e+00 5.2637861156303234e+02 4.2000000000000000e+03 5.5673823148121671e-01 1.0972420982727266e-01 1.5994834691919428e+01 
1768 1370 2 1.0279999807579998e+00 5.3107086191611631e+02 4.2000000000000000e+03 4.8816463791379666e-01 8.5902352681266864e-02 1.6086434255155016e+01 
946 548 2 1.0279999868351761e+00 -3.6165800806796678e+03 4.2000000000000000e+03 1.3501407635530279e+01 1.7036060881983173e-01 1.4128961060928457e+01 
457 59 2 1.0280001645330707e+00 2.1089823468691307e+03 4.2000000000000000e+03 1.3498205163394511e+01 2.1416697324721296e-01 1.4383449231138030e+01 
1997 1599 2 1.0279990821660245e+00 2.5435887350055746e+03 4.2000000000000000e+03 1.2940391183139825e+01 3.7507915435312650e-02 1.5412910505214853e+01 
459 61 2 1.0280004856763227e+00 -6.2242237158129012e+02 4.2000000000000000e+03 1.6542145494302165e+01 1.6926234689173498e-02 1.8301210860703023e+01 
571 173 2 1.0279998452262584e+00 -4.6219105932614530e+03 4.2000000000000000e+03 7.7223603330735613e-01 1.6617620308790765e-01 3.6898380847099141e+01 
401 3 2 1.0279995874216359e+00 -3.6314095144926828e+03 4.2000000000000000e+03 2.1363538466723324e+00 3.6457980778270949e-02 3.9779754704765949e+01 
422 24 2 1.0279993292231524e+00 -2.5864670892978838e+03 4.2000000000000000e+03 1.8885401064592122e+00 4.1748514779553197e-01 4.0221840488393440e+01 
964 566 2 1.0280003049482309e+00 7.3917849569531609e+03 4.2000000000000000e+03 6.3272139603783062e-01 1.2513117179121620e+00 4.0526829584881064e+01 
792 394 2 1.0279999514506057e+00 5.0876079951278953e+03 4.2000000000000000e+03 9.0188611279150649e-02 1.3640881451264408e+00 4.0661041257837546e+01 
948 550 2 1.0279997087850770e+00 7.7360195645984104e+03 4.2000000000000000e+03 3.0280983544325131e+00 4.0604969902074201e-01 4.0378055678490504e+01 
1813 1415 2 1.0280006196894178e+00 -3.9828273878182762e+02 4.2000000000000000e+03 5.1011598162108527e+00 6.3842783234198563e-02 3.9877528439971087e+01 
1777 1379 2 1.0280005667374339e+00 2.6529331833109939e+02 4.2000000000000000e+03 4.1074490564900490e+00 4.7819510998770970e-01 4.0158499111186025e+01 
1126 728 2 1.0279989467337229e+00 -2.5410179966719052e+03 4.2000000000000000e+03 4.8564167297165293e+00 4.0790884045049447e-01 4.1445472438013262e+01 
962 564 2 1.0279992447697448e+00 -3.8109114777480759e+03 4.2000000000000000e+03 4.1618677313725865e+00 2.9079879716553270e-01 4.1593034503747397e+01 
1124 726 2 1.0279972490040912e+00 9.3095507867751201e+02 4.2000000000000000e+03 7.9564563577227938e+00 1.3649148272592221e-01 3.9971506500819764e+01 
1989 1591 2 1.0280024193013897e+00 1.9372869808970470e+03 4.2000000000000000e+03 9.9728122658661320e+00 3.8590222172980543e-01 4.0745294936740585e+01 
1142 744 2 1.0280010740585643e+00 -2.4766628768138648e+03 4.2000000000000000e+03 1.0764975540505999e+01 5.1736617552853315e-01 4.0919791037491372e+01 
1116 718 2 1.0279991800956050e+00 -1.7967159497489631e+03 4.2000000000000000e+03 1.1604592006540129e+01 1.0173681530926258e-01 4.0270721026581946e+01 
786 388 2 1.0279995329044775e+00 -2.3305251075936549e+03 4.2000000000000000e+03 7.8676760346184260e-01 1.7110584469761896e+00 4.2093458883282210e+01 
1938 1540 2 1.0280008100053388e+00 -2.2607847580598473e+03 4.2000000000000000e+03 3.1363942972129338e-01 8.3466498750632656e-01 4.3386948593823604e+01 
776 378 2 1.0279998396402359e+00 5.2289864318295968e+03 4.2000000000000000e+03 3.7351100230430306e-01 2.5872314514138752e+00 4.2439058962487003e+01 
1268 870 2 1.0279990072782976e+00 8.8205892654327033e+02 4.2000000000000000e+03 2.2925591848853593e+00 1.1046964267308588e+00 4.4348530263720477e+01 
1554 1156 2 1.0279982669508863e+00 -4.2926678333811269e+03 4.2000000000000000e+03 4.3047606108239860e+00 3.0921987292459380e-01 4.3579514105038861e+01 
1313 915 2 1.0280003167292793e+00 -1.1308879443329606e+03 4.2000000000000000e+03 4.6334330694815637e+00 4.7106140906777810e-02 4.4038221803160532e+01 
490 92 2 1.0279993450549305e+00 -6.0727262433114765e+02 4.2000000000000000e+03 4.2708442181158981e+00 3.6017762865464292e-01 4.4101656583652080e+01 
647 249 2 1.0280037459950162e+00 -6.1661320101224203e+02 4.2000000000000000e+03 9.1735490701531734e+00 2.3475282760788554e-01 4.4242046444832233e+01 
1118 720 2 1.0279997830399072e+00 -1.6242833265164436e+03 4.2000000000000000e+03 3.4628252996661291e-01 2.8883234842334256e+00 4.3093783654370561e+01 
1815 1417 2 1.0280004322386205e+00 7.9986926679850711e+01 4.2000000000000000e+03 4.3725518105000788e-01 4.9449509813752274e-01 4.5493335340452106e+01 
1958 1560 2 1.0279984237210813e+00 4.7057307049181054e+02 4.2000000000000000e+03 2.5927966319851210e+00 9.6175928436810154e-01 4.4470484762949525e+01 
956 558 2 1.0279992838770138e+00 6.5685007814405153e+03 4.2000000000000000e+03 2.1573490655362164e+00 1.5556493741010622e+00 4.4931004205899647e+01 
984 586 2 1.0280001191904755e+00 7.0954202866661508e+03 4.2000000000000000e+03 2.3167900215666060e+00 9.1267246534741575e-01 4.6616754804498051e+01 
1928 1530 2 1.0280001622302395e+00 2.2396474527699638e+03 4.2000000000000000e+03 9.8100724738652845e-01 2.6079011336308171e+00 4.5369431362973167e+01 
944 546 2 1.0279995276963407e+00 7.4335762507776453e+03 4.2000000000000000e+03 2.4298082895963882e+00 6.6578134527430688e-01 4.6824779816636671e+01 
445 47 2 1.0279999382369054e+00 -2.3382822744657865e+03 4.2000000000000000e+03 1.2191283660532830e+00 2.5811730767280325e+00 4.7046116414965809e+01 
1985 1587 2 1.0279998934958237e+00 1.5338106306696666e+03 4.2000000000000000e+03 4.9010779534555349e-01 2.7861463460869436e+00 4.5263257736241719e+01 
826 428 2 1.0279983153054291e+00 -2.7783406190160149e+03 4.2000000000000000e+03 4.3366677089522341e+00 4.4118522771785275e-02 4.4637809741473440e+01 
1425 1027 2 1.0279998264623527e+00 5.7741675591361072e+03 4.2000000000000000e+03 7.5165207523945252e+00 2.4229294341864041e+00 4.7140904336886059e+01 
1107 709 2 1.0280027190633496e+00 8.7982195247484037e+02 4.2000000000000000e+03 9.5599080055184871e+00 2.1759065018590099e-01 4.4451650176918378e+01 
1793 1395 2 1.0279997726268719e+00 2.6991479457353319e+02 4.2000000000000000e+03 3.7687531140904512e-01 2.9110442113598278e+00 4.4552741960007111e+01 
1952 1554 2 1.0279998838789730e+00 1.3646413890411391e+03 4.2000000000000000e+03 6.7881800892984812e-01 7.2406559055343704e+00 4.7072323945849455e+01 
790 392 2 1.0280000654799752e+00 -6.4312223049782062e+02 4.2000000000000000e+03 1.8826663342469419e+00 1.6236598335287693e+00 4.7745757030335511e+01 
850 452 2 1.0279995653757175e+00 -6.4322329348450990e+02 4.2000000000000000e+03 1.7053816515175597e+00 1.8051384372510175e+00 4.9671709695909513e+01 
1036 638 2 1.0279986122376548e+00 7.4337731070325744e+03 4.2000000000000000e+03 2.5314393286435952e+00 7.0112876548137326e-01 4.9818361997752447e+01 
521 123 2 1.0279994146321323e+00 -2.3383104413935539e+03 4.2000000000000000e+03 1.1018341581814701e+00 2.7643204630001854e+00 4.9667964051410443e+01 
996 598 2 1.0279996032558500e+00 7.0955456342034531e+03 4.2000000000000000e+03 2.2136007958308328e+00 8.8785853259275016e-01 4.9992402435671401e+01 
1810 1412 2 1.0280004064637265e+00 -1.7375266993766611e+03 4.2000000000000000e+03 3.7442417323809711e+00 4.9264575044014991e-01 4.8182081395553460e+01 
1846 1448 2 1.0280004454561340e+00 -1.7375745786572008e+03 4.2000000000000000e+03 3.7347735201744956e+00 5.3213945728787670e-01 4.8406887118240768e+01 
443 45 2 1.0279991674883828e+00 -1.3522111070054539e+03 4.2000000000000000e+03 5.0040029854030390e+00 4.3156267838814744e-01 4.9825666774655225e+01 
527 129 2 1.0279990874213130e+00 -1.3524599255135174e+03 4.2000000000000000e+03 5.0026312952293326e+00 4.2355062803112303e-01 4.9849941372491664e+01 
957 559 2 1.0279988544212291e+00 8.1097968965046857e+03 4.2000000000000000e+03 6.0536785027322768e+00 3.3620054112078895e-01 4.8634851291496389e+01 
1944 1546 2 1.0279977402906102e+00 -1.2110306230360829e+03 4.2000000000000000e+03 7.2364368770987095e+00 3.8237268986464590e-01 4.8315175704069553e+01 
1557 1159 2 1.0280015448570172e+00 5.7741682893003099e+03 4.2000000000000000e+03 7.6498034084871653e+00 2.3933079267793942e+00 4.8051663396790595e+01 
1017 619 2 1.0280004837999319e+00 8.1094840160414697e+03 4.2000000000000000e+03 5.9591595543740246e+00 4.2642168955884668e-01 4.9760369578970760e+01 
1926 1528 2 1.0280010763105005e+00 -5.6540632619080907e+03 4.2000000000000000e+03 7.7305070681892101e+00 2.7648542257295334e+00 4.7583470892967924e+01 
2066 1668 2 1.0280010577792065e+00 -5.6540124011858206e+03 4.2000000000000000e+03 7.7289197985173246e+00 2.7662218210866003e+00 4.7573723484072332e+01 
1858 1460 2 1.0280146438957529e+00 -8.8703319327123643e+02 4.2000000000000000e+03 8.9917752907760882e+00 3.1078310262379333e-01 4.7636197593472779e+01 
1863 1465 2 1.0280001187208407e+00 1.1819994788435642e+03 4.2000000000000000e+03 1.0585084523157391e+01 7.4146550335640160e-01 4.7550022415131345e+01 
1795 1397 2 1.0279994364118670e+00 1.1819309012666558e+03 4.2000000000000000e+03 1.0581824131316539e+01 7.0830436320683676e-01 4.8173679841334916e+01 
602 204 2 1.0279998913267785e+00 -1.6735151624369066e+03 4.2000000000000000e+03 1.0782936924380246e+01 7.1016006269010779e-01 4.8106297772116385e+01 
702 304 2 1.0280003152489758e+00 -1.6735124216928418e+03 4.2000000000000000e+03 1.0801678742382926e+01 7.3805561702896783e-01 4.7648698089979895e+01 
599 201 2 1.0279999905623700e+00 -3.2568773371565767e+03 4.2000000000000000e+03 1.8102485472903034e+01 1.4499612717779287e-01 4.9428054737130530e+01 
707 309 2 1.0279999866134457e+00 -3.2569035920417700e+03 4.2000000000000000e+03 1.8110463899090306e+01 1.5179633419294097e-01 4.9511169122433685e+01 
609 211 2 1.0279987877408252e+00 2.1946053507063638e+02 4.2000000000000000e+03 1.8291601718893172e-01 3.6165753050545564e+00 4.7334142088835350e+01 
796 398 2 1.0280003649046598e+00 3.3131304037683312e+03 4.2000000000000000e+03 2.3735362490008544e-01 3.9574424625242637e+00 4.8105552958668149e+01 
848 450 2 1.0280007239956144e+00 3.3130058091660680e+03 4.2000000000000000e+03 4.1804147257471336e-01 3.6929442255191991e+00 4.8991771285858228e+01 
693 295 2 1.0279991613432191e+00 2.1946473194489133e+02 4.2000000000000000e+03 4.5668167448080260e-01 3.4089916475572828e+00 4.9559338538309952e+01 
1088 690 2 1.0280003250240073e+00 3.3996989299912266e+03 4.2000000000000000e+03 1.6908732951943293e+00 5.4378898208565563e+00 4.7605745294542530e+01 
1228 830 2 1.0280003386863270e+00 3.3998382459168556e+03 4.2000000000000000e+03 1.6917953870673181e+00 5.4371993716520484e+00 4.7606844145486477e+01 