LAMMPS data file via write_data, version 30 Jul 2016, timestep = 50400000

180 atoms
2 atom types

0.0000000000000000e+00 2.0000000000000000e+01 xlo xhi
0.0000000000000000e+00 2.0000000000000000e+01 ylo yhi
0.0000000000000000e+00 2.0000000000000000e+01 zlo zhi

Masses

1 3.896
2 4.31

Atoms # meso-molecular

124 1 2 1.0282933570656416e+00 -4.7750671529448846e+02 1.0000000000000000e+00 1.3203805385480742e+01 7.3178028838396321e+00 1.6297107300550024e+01 
126 1 2 1.0282933570656416e+00 -4.4783929147502363e+02 1.0000000000000000e+00 1.3203805385480742e+01 7.3178028838396321e+00 1.6297107300550024e+01 
123 1 2 1.0282933570656416e+00 -3.9727447522102818e+02 1.0000000000000000e+00 1.3203805385480742e+01 7.3178028838396321e+00 1.6297107300550024e+01 
162 1 2 1.0282933570656416e+00 -5.5809377170541518e+02 1.0000000000000000e+00 1.3203805385480742e+01 7.3178028838396321e+00 1.6297107300550024e+01 
168 1 2 1.0282933570656416e+00 -6.1277054637996218e+02 1.0000000000000000e+00 1.3203805385480742e+01 7.3178028838396321e+00 1.6297107300550024e+01 
132 1 2 1.0282933570656416e+00 -5.1398015402943304e+02 1.0000000000000000e+00 1.3203805385480742e+01 7.3178028838396321e+00 1.6297107300550024e+01 
166 1 2 1.0282933570656416e+00 -5.7732801649372004e+02 1.0000000000000000e+00 1.3203805385480742e+01 7.3178028838396321e+00 1.6297107300550024e+01 
167 1 2 1.0282933570656416e+00 -5.7462961062590193e+02 1.0000000000000000e+00 1.3203805385480742e+01 7.3178028838396321e+00 1.6297107300550024e+01 
130 1 2 1.0282933570656416e+00 -4.6895299647596528e+02 1.0000000000000000e+00 1.3203805385480742e+01 7.3178028838396321e+00 1.6297107300550024e+01 
131 1 2 1.0282933570656416e+00 -5.0719857332264348e+02 1.0000000000000000e+00 1.3203805385480742e+01 7.3178028838396321e+00 1.6297107300550024e+01 
161 1 2 1.0282933570656416e+00 -6.4484829717186881e+02 1.0000000000000000e+00 1.3203805385480742e+01 7.3178028838396321e+00 1.6297107300550024e+01 
160 1 2 1.0282933570656416e+00 -5.4654177694657517e+02 1.0000000000000000e+00 1.3203805385480742e+01 7.3178028838396321e+00 1.6297107300550024e+01 
155 1 2 1.0282933570656416e+00 -5.2104396302692419e+02 1.0000000000000000e+00 1.3203805385480742e+01 7.3178028838396321e+00 1.6297107300550024e+01 
154 1 2 1.0282933570656416e+00 -4.8206063922682154e+02 1.0000000000000000e+00 1.3203805385480742e+01 7.3178028838396321e+00 1.6297107300550024e+01 
125 1 2 1.0282933570656416e+00 -5.3827136630026394e+02 1.0000000000000000e+00 1.3203805385480742e+01 7.3178028838396321e+00 1.6297107300550024e+01 
5 1 2 1.0275631251483974e+00 -6.7387064453391565e+02 1.0000000000000000e+00 9.3382912728343115e+00 6.4926093780140492e+00 1.6303174715851871e+01 
6 1 2 1.0275631251483974e+00 -6.5506159710931274e+02 1.0000000000000000e+00 9.3382912728343115e+00 6.4926093780140492e+00 1.6303174715851871e+01 
41 1 2 1.0275631251483974e+00 -5.9710168220698324e+02 1.0000000000000000e+00 9.3382912728343115e+00 6.4926093780140492e+00 1.6303174715851871e+01 
42 1 2 1.0275631251483974e+00 -5.3330551217030779e+02 1.0000000000000000e+00 9.3382912728343115e+00 6.4926093780140492e+00 1.6303174715851871e+01 
12 1 2 1.0275631251483974e+00 -7.1133382222321484e+02 1.0000000000000000e+00 9.3382912728343115e+00 6.4926093780140492e+00 1.6303174715851871e+01 
11 1 2 1.0275631251483974e+00 -6.3225672354598737e+02 1.0000000000000000e+00 9.3382912728343115e+00 6.4926093780140492e+00 1.6303174715851871e+01 
48 1 2 1.0275631251483974e+00 -5.2831446745299729e+02 1.0000000000000000e+00 9.3382912728343115e+00 6.4926093780140492e+00 1.6303174715851871e+01 
47 1 2 1.0275631251483974e+00 -5.9139058583977328e+02 1.0000000000000000e+00 9.3382912728343115e+00 6.4926093780140492e+00 1.6303174715851871e+01 
83 1 2 1.0275631251483974e+00 -3.8245488169053044e+02 1.0000000000000000e+00 9.3382912728343115e+00 6.4926093780140492e+00 1.6303174715851871e+01 
46 1 2 1.0275631251483974e+00 -4.4534714174138105e+02 1.0000000000000000e+00 9.3382912728343115e+00 6.4926093780140492e+00 1.6303174715851871e+01 
52 1 2 1.0275631251483974e+00 -4.8097071364298176e+02 1.0000000000000000e+00 9.3382912728343115e+00 6.4926093780140492e+00 1.6303174715851871e+01 
53 1 2 1.0275631251483974e+00 -5.2709033777714944e+02 1.0000000000000000e+00 9.3382912728343115e+00 6.4926093780140492e+00 1.6303174715851871e+01 
59 1 2 1.0275631251483974e+00 -5.1233417773553333e+02 1.0000000000000000e+00 9.3382912728343115e+00 6.4926093780140492e+00 1.6303174715851871e+01 
82 1 2 1.0275631251483974e+00 -3.6058484635121641e+02 1.0000000000000000e+00 9.3382912728343115e+00 6.4926093780140492e+00 1.6303174715851871e+01 
88 1 2 1.0275631251483974e+00 -3.9332480844469683e+02 1.0000000000000000e+00 9.3382912728343115e+00 6.4926093780140492e+00 1.6303174715851871e+01 
89 1 2 1.0275631251483974e+00 -4.7290560081997421e+02 1.0000000000000000e+00 9.3382912728343115e+00 6.4926093780140492e+00 1.6303174715851871e+01 
10 1 2 1.0275631251483974e+00 -6.7901367579586372e+02 1.0000000000000000e+00 9.3382912728343115e+00 6.4926093780140492e+00 1.6303174715851871e+01 
16 1 2 1.0275631251483974e+00 -5.6416454648570959e+02 1.0000000000000000e+00 9.3382912728343115e+00 6.4926093780140492e+00 1.6303174715851871e+01 
22 1 2 1.0275631251483974e+00 -5.7164548552787505e+02 1.0000000000000000e+00 9.3382912728343115e+00 6.4926093780140492e+00 1.6303174715851871e+01 
17 1 2 1.0275631251483974e+00 -6.8804733766438505e+02 1.0000000000000000e+00 9.3382912728343115e+00 6.4926093780140492e+00 1.6303174715851871e+01 
18 1 2 1.0275631251483974e+00 -6.1285894248278896e+02 1.0000000000000000e+00 9.3382912728343115e+00 6.4926093780140492e+00 1.6303174715851871e+01 
54 1 2 1.0275631251483974e+00 -4.3494837187096391e+02 1.0000000000000000e+00 9.3382912728343115e+00 6.4926093780140492e+00 1.6303174715851871e+01 
116 1 2 1.0282919745454862e+00 -5.2440214326992225e+02 1.0000000000000000e+00 1.3203812642673894e+01 7.3178044419707842e+00 1.6297104121392440e+01 
121 1 2 1.0282919215434949e+00 -5.4208827002570922e+02 1.0000000000000000e+00 1.3203812875382177e+01 7.3178044843411847e+00 1.6297103815256175e+01 
85 1 2 1.0282919201212837e+00 -5.3964934912565263e+02 1.0000000000000000e+00 1.3203812883493175e+01 7.3178044858078612e+00 1.6297103814293706e+01 
84 1 2 1.0282919181217880e+00 -5.2053219160741617e+02 1.0000000000000000e+00 1.3203812895285154e+01 7.3178044878617676e+00 1.6297103814389029e+01 
115 1 2 1.0282919198581029e+00 -6.0041459230337114e+02 1.0000000000000000e+00 1.3203812884995548e+01 7.3178044859244507e+00 1.6297103813996905e+01 
109 1 2 1.0282919197609821e+00 -6.3742373043064174e+02 1.0000000000000000e+00 1.3203812885536365e+01 7.3178044858630811e+00 1.6297103813752845e+01 
151 1 2 1.0282919201776866e+00 -6.2893265639612116e+02 1.0000000000000000e+00 1.3203812883138745e+01 7.3178044855476179e+00 1.6297103814047340e+01 
157 1 2 1.0282919201965222e+00 -6.2376430609982799e+02 1.0000000000000000e+00 1.3203812883063220e+01 7.3178044857630500e+00 1.6297103814367656e+01 
120 1 2 1.0282919189821067e+00 -5.7698896494357962e+02 1.0000000000000000e+00 1.3203812890141061e+01 7.3178044869128680e+00 1.6297103814032322e+01 
145 1 2 1.0282919198386644e+00 -6.7397537336324876e+02 1.0000000000000000e+00 1.3203812885084860e+01 7.3178044857787228e+00 1.6297103813770278e+01 
78 1 2 1.0282919178320542e+00 -5.5720657733866346e+02 1.0000000000000000e+00 1.3203812896978668e+01 7.3178044878122233e+00 1.6297103814067864e+01 
156 1 2 1.0282919193617599e+00 -6.4305047190590903e+02 1.0000000000000000e+00 1.3203812887890479e+01 7.3178044864216973e+00 1.6297103813889773e+01 
150 1 2 1.0282919189568378e+00 -6.0574697889470121e+02 1.0000000000000000e+00 1.3203812890244199e+01 7.3178044866385763e+00 1.6297103813621213e+01 
79 1 2 1.0282919157844868e+00 -5.1246856392348184e+02 1.0000000000000000e+00 1.3203812909809605e+01 7.3178044905154582e+00 1.6297103817474163e+01 
90 1 2 1.0282919161591835e+00 -4.1522344425570520e+02 1.0000000000000000e+00 1.3203812907447936e+01 7.3178044902201220e+00 1.6297103816959407e+01 
119 1 2 1.0282919145045801e+00 -4.3405918699748599e+02 1.0000000000000000e+00 1.3203812917912849e+01 7.3178044908347273e+00 1.6297103818815348e+01 
152 1 2 1.0282927263871267e+00 -6.1692336887871670e+02 1.0000000000000000e+00 1.3203810847519680e+01 7.3178027432509891e+00 1.6297113222079577e+01 
37 1 2 1.0283103059881991e+00 -5.3903198501444433e+02 1.0000000000000000e+00 9.5225934216918233e+00 6.5246393052683898e+00 1.9856773312060199e+01 
2 1 2 1.0283103059881764e+00 -5.5734376447469549e+02 1.0000000000000000e+00 9.5225934216942516e+00 6.5246393052703189e+00 1.9856773312060952e+01 
1 1 2 1.0283103059879153e+00 -6.2734137273293982e+02 1.0000000000000000e+00 9.5225934216914077e+00 6.5246393052686207e+00 1.9856773312061641e+01 
38 1 2 1.0283103059878194e+00 -4.8621837516681285e+02 1.0000000000000000e+00 9.5225934216933492e+00 6.5246393052703242e+00 1.9856773312062657e+01 
43 1 2 1.0283103059881975e+00 -5.7910855646897107e+02 1.0000000000000000e+00 9.5225934216917274e+00 6.5246393052679981e+00 1.9856773312060167e+01 
80 1 2 1.0283103059881382e+00 -6.2027562028167529e+02 1.0000000000000000e+00 9.5225934216946833e+00 6.5246393052695888e+00 1.9856773312061211e+01 
7 1 2 1.0283103059880350e+00 -7.3163193562477556e+02 1.0000000000000000e+00 9.5225934216934895e+00 6.5246393052682352e+00 1.9856773312061428e+01 
9 1 2 1.0283103059878047e+00 -6.1278707603447640e+02 1.0000000000000000e+00 9.5225934216972039e+00 6.5246393052705320e+00 1.9856773312063584e+01 
8 1 2 1.0283103059880416e+00 -7.2616217076544694e+02 1.0000000000000000e+00 9.5225934216958894e+00 6.5246393052693064e+00 1.9856773312061975e+01 
45 1 2 1.0283103059880423e+00 -5.1951944780047927e+02 1.0000000000000000e+00 9.5225934217010817e+00 6.5246393052717595e+00 1.9856773312063215e+01 
14 1 2 1.0283103059879484e+00 -7.1901584441312900e+02 1.0000000000000000e+00 9.5225934216968682e+00 6.5246393052689946e+00 1.9856773312062664e+01 
87 1 2 1.0283103059878569e+00 -3.7952401405759514e+02 1.0000000000000000e+00 9.5225934216987440e+00 6.5246393052701332e+00 1.9856773312063613e+01 
49 1 2 1.0283103059878718e+00 -4.9850300034006693e+02 1.0000000000000000e+00 9.5225934216891623e+00 6.5246393052650182e+00 1.9856773312061208e+01 
13 1 2 1.0283103059880374e+00 -7.3106504519002340e+02 1.0000000000000000e+00 9.5225934216957917e+00 6.5246393052684271e+00 1.9856773312061929e+01 
51 1 2 1.0283103059878895e+00 -5.3221832510015520e+02 1.0000000000000000e+00 9.5225934217003427e+00 6.5246393052703517e+00 1.9856773312063797e+01 
73 1 2 1.0283103059878351e+00 -5.4379801891143109e+02 1.0000000000000000e+00 9.5225934216949373e+00 6.5246393052698339e+00 1.9856773312062892e+01 
15 1 2 1.0283103059878882e+00 -6.9407687575697707e+02 1.0000000000000000e+00 9.5225934216992414e+00 6.5246393052693810e+00 1.9856773312063520e+01 
50 1 2 1.0283103059880689e+00 -5.9848703421807943e+02 1.0000000000000000e+00 9.5225934216984331e+00 6.5246393052688658e+00 1.9856773312062362e+01 
44 1 2 1.0283103059880900e+00 -6.4664353578170142e+02 1.0000000000000000e+00 9.5225934216945234e+00 6.5246393052691474e+00 1.9856773312061410e+01 
74 1 2 1.0283103059880934e+00 -5.3754117396994070e+02 1.0000000000000000e+00 9.5225934216807495e+00 6.5246393052569802e+00 1.9856773312057808e+01 
76 1 2 1.0283103059968166e+00 -4.9909386049043155e+02 1.0000000000000000e+00 9.5225934270475321e+00 6.5246393086324854e+00 1.9856773313342604e+01 
81 1 2 1.0283103059924987e+00 -4.1226234802064414e+02 1.0000000000000000e+00 9.5225934245238868e+00 6.5246393071527438e+00 1.9856773312744817e+01 
110 1 2 1.0283103059989445e+00 -5.8758292905894223e+02 1.0000000000000000e+00 9.5225934282363944e+00 6.5246393092576831e+00 1.9856773313620224e+01 
146 1 2 1.0283103059983580e+00 -7.5303224297413806e+02 1.0000000000000000e+00 9.5225934280676672e+00 6.5246393091717305e+00 1.9856773313582476e+01 
153 1 2 1.0283103059976100e+00 -6.4420774530635242e+02 1.0000000000000000e+00 9.5225934276432103e+00 6.5246393089498325e+00 1.9856773313483359e+01 
117 1 2 1.0283103059975742e+00 -5.6429318011461999e+02 1.0000000000000000e+00 9.5225934276104578e+00 6.5246393089323442e+00 1.9856773313475578e+01 
118 1 2 1.0283103059961223e+00 -4.7413621079351645e+02 1.0000000000000000e+00 9.5225934268539323e+00 6.5246393085244065e+00 1.9856773313298945e+01 
147 1 2 1.0283103059974299e+00 -7.3625282389390622e+02 1.0000000000000000e+00 9.5225934275790536e+00 6.5246393089169468e+00 1.9856773313468775e+01 
111 1 2 1.0283103059973113e+00 -6.0369839635107428e+02 1.0000000000000000e+00 9.5225934274641784e+00 6.5246393088570702e+00 1.9856773313441508e+01 
75 1 2 1.0283103059972676e+00 -5.2122891946375080e+02 1.0000000000000000e+00 9.5225934272797428e+00 6.5246393087569672e+00 1.9856773313396758e+01 
58 1 2 7.8499077541794593e-01 -4.6412843967201479e+02 1.0000000000000000e+00 7.9337655130953184e+00 1.4359938694366722e+01 1.2716803311377884e+01 
64 1 2 7.8499077541794593e-01 -4.7166741284112516e+02 1.0000000000000000e+00 7.9337655130948468e+00 1.4359938694366679e+01 1.2716803311379250e+01 
65 1 2 7.8499077541794593e-01 -6.1258577199203546e+02 1.0000000000000000e+00 7.9337655130947828e+00 1.4359938694367310e+01 1.2716803311380648e+01 
95 1 2 7.8499077541794593e-01 -4.5444853668920132e+02 1.0000000000000000e+00 7.9337655130947606e+00 1.4359938694366535e+01 1.2716803311378939e+01 
100 1 2 7.8499077541794593e-01 -4.6404030691380080e+02 1.0000000000000000e+00 7.9337655130953184e+00 1.4359938694365768e+01 1.2716803311379250e+01 
101 1 2 7.8499077541794593e-01 -5.7881425146353286e+02 1.0000000000000000e+00 7.9337655130955582e+00 1.4359938694366356e+01 1.2716803311378328e+01 
28 1 2 7.8499077541794593e-01 -5.4497201334203544e+02 1.0000000000000000e+00 7.9337655130945670e+00 1.4359938694366933e+01 1.2716803311379488e+01 
29 1 2 7.8499077541794593e-01 -6.2655064662902339e+02 1.0000000000000000e+00 7.9337655130949543e+00 1.4359938694365754e+01 1.2716803311379250e+01 
94 1 2 7.8499077541794593e-01 -3.3343097737866867e+02 1.0000000000000000e+00 7.9337655130949285e+00 1.4359938694367310e+01 1.2716803311379488e+01 
23 1 2 7.8499077541794593e-01 -6.6682967848799080e+02 1.0000000000000000e+00 7.9337655130950155e+00 1.4359938694366356e+01 1.2716803311380648e+01 
36 1 2 7.8499077541794593e-01 -6.5193937478782277e+02 1.0000000000000000e+00 7.9337655130947207e+00 1.4359938694366983e+01 1.2716803311378328e+01 
66 1 2 7.8499077541794593e-01 -6.1951676427043265e+02 1.0000000000000000e+00 7.9337655130950413e+00 1.4359938694368230e+01 1.2716803311380044e+01 
107 1 2 7.8499077541794593e-01 -5.6965005134400167e+02 1.0000000000000000e+00 7.9337655130941016e+00 1.4359938694366697e+01 1.2716803311378847e+01 
30 1 2 7.8499077541794593e-01 -6.9225507827879960e+02 1.0000000000000000e+00 7.9337655130950413e+00 1.4359938694366505e+01 1.2716803311379348e+01 
60 1 2 7.8499077541794593e-01 -5.7522250551757270e+02 1.0000000000000000e+00 7.9337655130949543e+00 1.4359938694366983e+01 1.2716803311377856e+01 
72 1 2 7.8499077541794593e-01 -5.2236474323857954e+02 1.0000000000000000e+00 7.9337655130947757e+00 1.4359938694367198e+01 1.2716803311379234e+01 
24 1 2 7.8499077541794593e-01 -7.3991965387257562e+02 1.0000000000000000e+00 7.9337655130950271e+00 1.4359938694365685e+01 1.2716803311379348e+01 
71 1 2 7.8499077541794593e-01 -5.3411776983685388e+02 1.0000000000000000e+00 7.9337655130947828e+00 1.4359938694365889e+01 1.2716803311378994e+01 
35 1 2 7.8499077541794593e-01 -5.5567180539120591e+02 1.0000000000000000e+00 7.9337655130951399e+00 1.4359938694366697e+01 1.2716803311379945e+01 
96 1 2 7.8499077541794593e-01 -4.4856686586557805e+02 1.0000000000000000e+00 7.9337655130951150e+00 1.4359938694367695e+01 1.2716803311378406e+01 
102 1 2 7.8499077541794593e-01 -4.4784478583096563e+02 1.0000000000000000e+00 7.9337655130948681e+00 1.4359938694366356e+01 1.2716803311378952e+01 
70 1 2 7.8499077541794593e-01 -4.9061469359129217e+02 1.0000000000000000e+00 7.9337655130947038e+00 1.4359938694365578e+01 1.2716803311379481e+01 
34 1 2 7.8499077541794593e-01 -6.7245490060757197e+02 1.0000000000000000e+00 7.9337655130952474e+00 1.4359938694366555e+01 1.2716803311379945e+01 
69 1 2 7.8499077541794593e-01 -4.4312306403846009e+02 1.0000000000000000e+00 7.9337655130947855e+00 1.4359938694366933e+01 1.2716803311380023e+01 
40 1 2 7.8499077541794593e-01 -4.8922706007350860e+02 1.0000000000000000e+00 7.9337655130950839e+00 1.4359938694366933e+01 1.2716803311379488e+01 
4 1 2 7.8499077541794593e-01 -4.4916168200928695e+02 1.0000000000000000e+00 7.9337655130949303e+00 1.4359938694366372e+01 1.2716803311379241e+01 
33 1 2 7.8499077541794593e-01 -5.1387217681077868e+02 1.0000000000000000e+00 7.9337655130945812e+00 1.4359938694366345e+01 1.2716803311379108e+01 
3 1 2 7.8499077541794593e-01 -5.3666465279950387e+02 1.0000000000000000e+00 7.9337655130947375e+00 1.4359938694366296e+01 1.2716803311380023e+01 
39 1 2 7.8499077541794593e-01 -4.3052047662099659e+02 1.0000000000000000e+00 7.9337655130949578e+00 1.4359938694366443e+01 1.2716803311378609e+01 
139 1 2 1.0280571030389571e+00 -5.5274169592347243e+02 1.0000000000000000e+00 1.5629010851018796e+01 1.4432985823912675e+01 2.1447502210327780e+00 
141 1 2 1.0279981640494091e+00 -4.7419531140821385e+02 1.0000000000000000e+00 1.5422673561995344e+01 1.4384226127070134e+01 2.3254196835097773e+00 
136 1 2 1.0279986108230215e+00 -4.1089212798474961e+02 1.0000000000000000e+00 1.5408316318783378e+01 1.4387670688453603e+01 2.3353896499628299e+00 
176 1 2 1.0279985384221388e+00 -6.5496825274737148e+02 1.0000000000000000e+00 1.5405867838597276e+01 1.4398312291668873e+01 2.3258168120393310e+00 
172 1 2 1.0279986949750528e+00 -4.5075370078908730e+02 1.0000000000000000e+00 1.5405094453803276e+01 1.4389501140792511e+01 2.3364943189979281e+00 
135 1 2 1.0279986842969275e+00 -5.0605651505326330e+02 1.0000000000000000e+00 1.5402824616473747e+01 1.4394922961422893e+01 2.3325993498972823e+00 
140 1 2 1.0279985912788121e+00 -6.0374723132212375e+02 1.0000000000000000e+00 1.5402167201154581e+01 1.4405430574463763e+01 2.3216278705419122e+00 
170 1 2 1.0279987581090833e+00 -6.3545232270313079e+02 1.0000000000000000e+00 1.5397061984423036e+01 1.4403982854749302e+01 2.3282460599638473e+00 
134 1 2 1.0279987498670708e+00 -6.1734558829305615e+02 1.0000000000000000e+00 1.5396271780873089e+01 1.4406890218168535e+01 2.3258454611995907e+00 
171 1 2 1.0279988277346372e+00 -5.5738199822289687e+02 1.0000000000000000e+00 1.5396081667920994e+01 1.4399671427044286e+01 2.3340182847480824e+00 
175 1 2 1.0279988448860440e+00 -7.6655768117120749e+02 1.0000000000000000e+00 1.5392636762299563e+01 1.4408823574694971e+01 2.3273657284001481e+00 
165 1 2 1.0279989613894018e+00 -5.5887541290687204e+02 1.0000000000000000e+00 1.5391786624164192e+01 1.4400187567904299e+01 2.3378035645957693e+00 
169 1 2 1.0279989865550554e+00 -8.5733280136114706e+02 1.0000000000000000e+00 1.5384828940635703e+01 1.4418849530661415e+01 2.3244145177151831e+00 
133 1 2 1.0279991944964528e+00 -6.2706404724951619e+02 1.0000000000000000e+00 1.5384196356786044e+01 1.4401062949354202e+01 2.3446842723716177e+00 
129 1 2 1.0279991241020965e+00 -5.0992144438720322e+02 1.0000000000000000e+00 1.5383713444357619e+01 1.4406040395444251e+01 2.3395641006653336e+00 
93 1 2 1.0279991460602502e+00 -4.2913313845155119e+02 1.0000000000000000e+00 1.5383154611144283e+01 1.4405914670069770e+01 2.3402880091829776e+00 
159 1 2 1.0279992119784169e+00 -6.0703952913880983e+02 1.0000000000000000e+00 1.5382924174053676e+01 1.4403236018498406e+01 2.3435507664506021e+00 
164 1 2 1.0279991083746916e+00 -6.3178918258050703e+02 1.0000000000000000e+00 1.5381983720585774e+01 1.4412023405335082e+01 2.3347207600189939e+00 
128 1 2 1.0279991339328807e+00 -5.7590095330603481e+02 1.0000000000000000e+00 1.5380759657042946e+01 1.4411370422289050e+01 2.3367118609844333e+00 
97 1 2 1.0279921486521502e+00 -5.3676885514242610e+02 1.0000000000000000e+00 1.5378468320126332e+01 1.4549172744596783e+01 2.2171282460091941e+00 
163 1 2 1.0279993026442762e+00 -7.3196059808923849e+02 1.0000000000000000e+00 1.5372234195769158e+01 1.4420829508839246e+01 2.3352943602264440e+00 
127 1 2 1.0279993674639998e+00 -6.3523287554589342e+02 1.0000000000000000e+00 1.5366036346294463e+01 1.4430712041549594e+01 2.3312502569163516e+00 
122 1 2 1.0279996205994180e+00 -4.4527800246988062e+02 1.0000000000000000e+00 1.5362584713630769e+01 1.4420559363897970e+01 2.3459526234452439e+00 
158 1 2 1.0279997385545951e+00 -5.6222737316229268e+02 1.0000000000000000e+00 1.5356496133876840e+01 1.4426114910854055e+01 2.3465252957822917e+00 
91 1 2 1.0279945132201054e+00 -5.1113159696347321e+02 1.0000000000000000e+00 1.6996684874084142e+01 1.5641514647896056e+01 3.7116147044153958e+00 
104 1 2 1.0280012614819163e+00 -4.7484763566814968e+02 1.0000000000000000e+00 1.6778908847594927e+01 1.5929635570963047e+01 3.7272279036561295e+00 
86 1 2 1.0280012193109196e+00 -3.2925319890770379e+02 1.0000000000000000e+00 1.6771101868698310e+01 1.5933922984699032e+01 3.7301474264414085e+00 
55 1 2 1.0280012177522704e+00 -4.9392406544919254e+02 1.0000000000000000e+00 1.6771019781182581e+01 1.5934064023738609e+01 3.7300725771140315e+00 
19 1 2 1.0280012175987694e+00 -6.3721516822010176e+02 1.0000000000000000e+00 1.6771015296724705e+01 1.5934066766088041e+01 3.7300739044658124e+00 
21 1 2 1.0280012167072696e+00 -6.5653870548585223e+02 1.0000000000000000e+00 1.6771006648575259e+01 1.5934043689952350e+01 3.7301074319370753e+00 
56 1 2 1.0280012167011698e+00 -4.9946441381373791e+02 1.0000000000000000e+00 1.6771008229682199e+01 1.5934046090033851e+01 3.7301032894738335e+00 
57 1 2 1.0280012185601035e+00 -4.4849819113801624e+02 1.0000000000000000e+00 1.6771003653847497e+01 1.5934044355461520e+01 3.7301095712095278e+00 
61 1 2 1.0280012175596001e+00 -5.9142260909695051e+02 1.0000000000000000e+00 1.6771002703448861e+01 1.5934073071231394e+01 3.7300791515638458e+00 
25 1 2 1.0280012177929827e+00 -5.7773686900190012e+02 1.0000000000000000e+00 1.6771003262427918e+01 1.5934071976249262e+01 3.7300798061382192e+00 
20 1 2 1.0280012178410236e+00 -5.7276892988474503e+02 1.0000000000000000e+00 1.6771000309732397e+01 1.5934058441415742e+01 3.7300974239266633e+00 
98 1 2 1.0280012178093529e+00 -4.6638615296308961e+02 1.0000000000000000e+00 1.6770991870807560e+01 1.5934082474528616e+01 3.7300793176188645e+00 
62 1 2 1.0280012181555847e+00 -5.3240801135775087e+02 1.0000000000000000e+00 1.6770986022418739e+01 1.5934078022235051e+01 3.7300898070764976e+00 
31 1 2 1.0280012176114783e+00 -6.0071536196441400e+02 1.0000000000000000e+00 1.6770986054295513e+01 1.5934085782391582e+01 3.7300813106896857e+00 
26 1 2 1.0280012176569131e+00 -5.7875682723678131e+02 1.0000000000000000e+00 1.6770979508987701e+01 1.5934082799313787e+01 3.7300908704825693e+00 
99 1 2 1.0280012182426173e+00 -3.7708974878996287e+02 1.0000000000000000e+00 1.6770977066493785e+01 1.5934076171668858e+01 3.7301004516525467e+00 
63 1 2 1.0280012178135935e+00 -4.3250996481972584e+02 1.0000000000000000e+00 1.6770977822446653e+01 1.5934078237498525e+01 3.7300974728817518e+00 
32 1 2 1.0280012170965771e+00 -6.3308387448816268e+02 1.0000000000000000e+00 1.6770975938717971e+01 1.5934089185591297e+01 3.7300873432230608e+00 
27 1 2 1.0280012175980049e+00 -4.9511293801734325e+02 1.0000000000000000e+00 1.6770973747526920e+01 1.5934083893597316e+01 3.7300952253343671e+00 
68 1 2 1.0280012177074558e+00 -4.7311530684827341e+02 1.0000000000000000e+00 1.6770971590364827e+01 1.5934095174999598e+01 3.7300849867123418e+00 
105 1 2 1.0280012178113014e+00 -4.3815617518045553e+02 1.0000000000000000e+00 1.6770967727110506e+01 1.5934092773946134e+01 3.7300913273838621e+00 
67 1 2 1.0280012176254190e+00 -4.2523749689777799e+02 1.0000000000000000e+00 1.6770967292517863e+01 1.5934103485419280e+01 3.7300800546348141e+00 
103 1 2 1.0280012175608966e+00 -4.8370293924860124e+02 1.0000000000000000e+00 1.6771088374301982e+01 1.5934282628086329e+01 3.7297677500014763e+00 
92 1 2 1.0280012127872473e+00 -4.3127051859162287e+02 1.0000000000000000e+00 1.6768463068354951e+01 1.5935185378663688e+01 3.7313029199062928e+00 
137 1 2 5.1430430113589565e-01 -4.7775037824010326e+02 1.0000000000000000e+00 1.5002798861004200e+01 1.7973545013851556e+01 1.3087272461152322e+01 
173 1 2 5.1430430113589565e-01 -5.8489186732716325e+02 1.0000000000000000e+00 1.5002798861004736e+01 1.7973545013851556e+01 1.3087272461153407e+01 
143 1 2 5.1430430113589565e-01 -6.6346589253654520e+02 1.0000000000000000e+00 1.5002798861004736e+01 1.7973545013851634e+01 1.3087272461153407e+01 
178 1 2 5.1430430113589565e-01 -5.7890148643236705e+02 1.0000000000000000e+00 1.5002798861004736e+01 1.7973545013852057e+01 1.3087272461153141e+01 
179 1 2 5.1430430113589565e-01 -7.2563396091488198e+02 1.0000000000000000e+00 1.5002798861004736e+01 1.7973545013852160e+01 1.3087272461153407e+01 
142 1 2 5.1430430113589565e-01 -5.6881717726164823e+02 1.0000000000000000e+00 1.5002798861004502e+01 1.7973545013851258e+01 1.3087272461153141e+01 
149 1 2 5.1430430113589565e-01 -7.9077549456138047e+02 1.0000000000000000e+00 1.5002798861004736e+01 1.7973545013852107e+01 1.3087272461153141e+01 
106 1 2 5.1430430113589565e-01 -5.1046495235781663e+02 1.0000000000000000e+00 1.5002798861004639e+01 1.7973545013851876e+01 1.3087272461152322e+01 
174 1 2 5.1430430113589565e-01 -6.6886561884962043e+02 1.0000000000000000e+00 1.5002798861004282e+01 1.7973545013851556e+01 1.3087272461153407e+01 
77 1 2 5.1430430113589565e-01 -5.3982291293967819e+02 1.0000000000000000e+00 1.5002798861004639e+01 1.7973545013851538e+01 1.3087272461153470e+01 
148 1 2 5.1430430113589565e-01 -7.2623535105238045e+02 1.0000000000000000e+00 1.5002798861004241e+01 1.7973545013851538e+01 1.3087272461153452e+01 
113 1 2 5.1430430113589565e-01 -5.3679404206967399e+02 1.0000000000000000e+00 1.5002798861004639e+01 1.7973545013851538e+01 1.3087272461153470e+01 
138 1 2 5.1430430113589565e-01 -6.0844907644190994e+02 1.0000000000000000e+00 1.5002798861004282e+01 1.7973545013852057e+01 1.3087272461153407e+01 
180 1 2 5.1430430113589565e-01 -6.4878595688714461e+02 1.0000000000000000e+00 1.5002798861004736e+01 1.7973545013851876e+01 1.3087272461153583e+01 
112 1 2 5.1430430113589565e-01 -4.7296758350507935e+02 1.0000000000000000e+00 1.5002798861004244e+01 1.7973545013851538e+01 1.3087272461153407e+01 
108 1 2 5.1430430113589565e-01 -4.6944512143491983e+02 1.0000000000000000e+00 1.5002798861004170e+01 1.7973545013851169e+01 1.3087272461153583e+01 
177 1 2 5.1430430113589565e-01 -6.2657144247923327e+02 1.0000000000000000e+00 1.5002798861004200e+01 1.7973545013850753e+01 1.3087272461153407e+01 
144 1 2 5.1430430113589565e-01 -5.7725521861601521e+02 1.0000000000000000e+00 1.5002798861004639e+01 1.7973545013851538e+01 1.3087272461153141e+01 
114 1 2 5.1430430113589565e-01 -4.7767559810967020e+02 1.0000000000000000e+00 1.5002798861004241e+01 1.7973545013851538e+01 1.3087272461153407e+01 

Velocities

124 -1.8849683340495739e-03 -4.2963318223355367e-04 5.1589671602875371e-03
126 -1.8849683340495739e-03 -4.2963318223355367e-04 5.1589671602875371e-03
123 -1.8849683340495739e-03 -4.2963318223355367e-04 5.1589671602875371e-03
162 -1.8849683340495739e-03 -4.2963318223355367e-04 5.1589671602875371e-03
168 -1.8849683340495739e-03 -4.2963318223355367e-04 5.1589671602875371e-03
132 -1.8849683340495739e-03 -4.2963318223355367e-04 5.1589671602875371e-03
166 -1.8849683340495739e-03 -4.2963318223355367e-04 5.1589671602875371e-03
167 -1.8849683340495739e-03 -4.2963318223355367e-04 5.1589671602875371e-03
130 -1.8849683340495739e-03 -4.2963318223355367e-04 5.1589671602875371e-03
131 -1.8849683340495739e-03 -4.2963318223355367e-04 5.1589671602875371e-03
161 -1.8849683340495739e-03 -4.2963318223355367e-04 5.1589671602875371e-03
160 -1.8849683340495739e-03 -4.2963318223355367e-04 5.1589671602875371e-03
155 -1.8849683340495739e-03 -4.2963318223355367e-04 5.1589671602875371e-03
154 -1.8849683340495739e-03 -4.2963318223355367e-04 5.1589671602875371e-03
125 -1.8849683340495739e-03 -4.2963318223355367e-04 5.1589671602875371e-03
5 -3.7938001790856642e-03 -7.9838636935490191e-04 -3.8682681958015245e-03
6 -3.7938001790856642e-03 -7.9838636935490191e-04 -3.8682681958015245e-03
41 -3.7938001790856642e-03 -7.9838636935490191e-04 -3.8682681958015245e-03
42 -3.7938001790856642e-03 -7.9838636935490191e-04 -3.8682681958015245e-03
12 -3.7938001790856642e-03 -7.9838636935490191e-04 -3.8682681958015245e-03
11 -3.7938001790856642e-03 -7.9838636935490191e-04 -3.8682681958015245e-03
48 -3.7938001790856642e-03 -7.9838636935490191e-04 -3.8682681958015245e-03
47 -3.7938001790856642e-03 -7.9838636935490191e-04 -3.8682681958015245e-03
83 -3.7938001790856642e-03 -7.9838636935490191e-04 -3.8682681958015245e-03
46 -3.7938001790856642e-03 -7.9838636935490191e-04 -3.8682681958015245e-03
52 -3.7938001790856642e-03 -7.9838636935490191e-04 -3.8682681958015245e-03
53 -3.7938001790856642e-03 -7.9838636935490191e-04 -3.8682681958015245e-03
59 -3.7938001790856642e-03 -7.9838636935490191e-04 -3.8682681958015245e-03
82 -3.7938001790856642e-03 -7.9838636935490191e-04 -3.8682681958015245e-03
88 -3.7938001790856642e-03 -7.9838636935490191e-04 -3.8682681958015245e-03
89 -3.7938001790856642e-03 -7.9838636935490191e-04 -3.8682681958015245e-03
10 -3.7938001790856642e-03 -7.9838636935490191e-04 -3.8682681958015245e-03
16 -3.7938001790856642e-03 -7.9838636935490191e-04 -3.8682681958015245e-03
22 -3.7938001790856642e-03 -7.9838636935490191e-04 -3.8682681958015245e-03
17 -3.7938001790856642e-03 -7.9838636935490191e-04 -3.8682681958015245e-03
18 -3.7938001790856642e-03 -7.9838636935490191e-04 -3.8682681958015245e-03
54 -3.7938001790856642e-03 -7.9838636935490191e-04 -3.8682681958015245e-03
116 -1.9270190781246498e-03 -4.3862374402137480e-04 5.1720212490706857e-03
121 -1.9284988371705831e-03 -4.3893970801718791e-04 5.1724873308860919e-03
85 -1.9285379280010130e-03 -4.3894804204529535e-04 5.1724995261617952e-03
84 -1.9285928084347142e-03 -4.3895974034904742e-04 5.1725166233701917e-03