LAMMPS data file via write_data, version 30 Jul 2016, timestep = 100400000

3150 atoms
8 atom types

0.0000000000000000e+00 6.0000000000000000e+01 xlo xhi
0.0000000000000000e+00 6.0000000000000000e+01 ylo yhi
0.0000000000000000e+00 6.0000000000000000e+01 zlo zhi

Masses

1 3.896
2 8.3
3 4.31
4 28.378
5 28.378
6 28.378
7 28.378
8 28.378

Atoms # meso-molecular

2318 43 1 1.0081160003531633e+00 -9.0220468013701819e+01 1.0000000000000000e+00 1.0448423517618492e+01 5.4281733136095189e+00 1.0343647542677592e+00 
1393 24 1 1.0144747934898106e+00 -1.5270766517571628e+01 1.0000000000000000e+00 9.3572908535296957e+00 7.9143716856130384e+00 6.7120825715897225e-01 
1418 25 2 2.5923218689094156e+00 -1.2259115413370100e+02 1.0000000000000000e+00 1.0519136276009949e+01 6.0678736128262969e+00 1.5974345007153681e+00 
1411 25 2 2.5115918925561993e+00 -4.5370369224796633e+01 1.0000000000000000e+00 9.5378834235308343e+00 7.7914829856830190e+00 1.8549487125601822e+00 
2333 43 1 1.0080702478497194e+00 -6.0147439164185258e+01 1.0000000000000000e+00 1.3318961027154860e+01 7.1944708427352655e+00 4.4848313982724353e-01 
1421 25 2 2.5925880735827755e+00 -1.3647046945814219e+00 1.0000000000000000e+00 1.2914270087293222e+01 7.5001866342529020e+00 1.1372025649487914e+00 
1551 26 1 1.0047796612919739e+00 -4.2800056842428837e+01 1.0000000000000000e+00 1.2491189293718366e+01 6.0035912281662940e+00 2.6851191856429568e+00 
1419 25 2 2.6083203274212736e+00 -6.1498654489147931e+01 1.0000000000000000e+00 1.2007228440902335e+01 6.7427358495639647e+00 2.7507526139050120e+00 
2386 44 1 1.0105167691203676e+00 -6.8736456975379511e+01 1.0000000000000000e+00 5.8954972662662479e+00 1.0762743766518804e+01 9.7160805247660920e-01 
1414 25 2 2.5242618801823133e+00 -2.0022075079828852e+01 1.0000000000000000e+00 1.0444925069921720e+01 8.5489337703719563e+00 2.4139866360396178e-01 
2086 37 2 2.8871187934377116e+00 -4.3885163328242491e+01 1.0000000000000000e+00 9.0899906197239346e+00 1.0308002438334452e+01 1.7230399401374097e+00 
1404 25 2 2.8857130284631478e+00 -6.5255086607642383e+01 1.0000000000000000e+00 8.5566305710517199e+00 9.5150923585397411e+00 2.1124629244049968e+00 
1181 18 1 1.0149515059753411e+00 -6.1062465369517781e+01 1.0000000000000000e+00 1.1536892491288064e+01 9.2789682458362019e+00 2.4246334135685985e-01 
1415 25 2 2.5109607278115136e+00 -5.5281379938509282e+01 1.0000000000000000e+00 1.1933017234814107e+01 9.2237960071096232e+00 1.3947167767936055e+00 
2493 45 1 1.0345857662390261e+00 -1.0186599657009050e+02 1.0000000000000000e+00 1.2462509018355764e+01 8.4863613118633427e+00 2.5667472471035495e+00 
1416 25 2 2.6045746789260025e+00 -3.2989907101752259e+01 1.0000000000000000e+00 1.3421109399706493e+01 9.8986582438472919e+00 2.5480348899832501e+00 
1387 24 1 1.0069336713019532e+00 -1.0617003814158024e+02 1.0000000000000000e+00 1.3993705749443540e+01 1.0522106540976415e+01 2.4148994133919861e+00 
2079 37 2 2.5701719647927299e+00 5.0819528290777896e+01 1.0000000000000000e+00 6.3339754870529390e+00 1.0942612394166042e+01 1.6824099949258189e+00 
2080 37 2 2.5546417945772215e+00 -9.0576972033526104e+01 1.0000000000000000e+00 8.0275179202545459e+00 1.2001160097663170e+01 1.7891376219327668e+00 
2315 43 1 1.0114772855912431e+00 -5.8477623594058898e+01 1.0000000000000000e+00 8.1231952238437657e+00 1.2071526754945040e+01 9.2521875303823187e-01 
2081 37 2 2.5661321362367389e+00 -1.5090398040118346e+01 1.0000000000000000e+00 9.7210603534561546e+00 1.3059707801160300e+01 1.8958652489397148e+00 
1407 25 2 2.5643752416040737e+00 -1.1662869345891718e+01 1.0000000000000000e+00 1.0951764382334993e+01 1.0947405379966346e+01 1.6522309886384201e+00 
1157 18 1 1.0126721831841941e+00 -5.6157170924453972e+01 1.0000000000000000e+00 1.1501965010136029e+01 1.1592201361407385e+01 1.5962362412095810e+00 
2815 50 1 1.0121726681601435e+00 -1.3953671426998696e+02 1.0000000000000000e+00 4.1716398925420792e+00 1.4482930227819898e+01 1.5639895287869561e+00 
2099 38 2 2.5729590990463258e+00 5.3540214250389283e+01 1.0000000000000000e+00 3.9476976617940811e+00 1.5300139952533376e+01 1.6524036048809636e+00 
2072 37 2 2.9084476237356496e+00 -2.5164154708033774e+01 1.0000000000000000e+00 6.9650452207851581e+00 1.3694317756991891e+01 1.8552353037281235e+00 
2095 38 2 2.9071248382084258e+00 -7.9454872919954724e+01 1.0000000000000000e+00 6.7041939540733839e+00 1.4670521263966311e+01 1.7252630425506736e+00 
2102 38 2 2.7054627834168214e+00 -1.4195035427027708e+01 1.0000000000000000e+00 5.6377242349540895e+00 1.6361409463558886e+01 1.7847561907291882e+00 
2112 38 1 1.0107671956089799e+00 -4.6610060988356821e+01 1.0000000000000000e+00 9.9148717826999384e+00 1.3802951863411188e+01 1.5231427340897778e+00 
95 2 2 2.6873191474783833e+00 -1.9317953308012562e+01 1.0000000000000000e+00 3.5495019501286920e+00 1.8564655652313974e+01 1.7001754233901947e+00 
2109 38 2 3.1228009332475457e+00 -3.5716902604458454e+01 1.0000000000000000e+00 4.5712545158347950e+00 1.8052297663151464e+01 1.8442493389077024e+00 
1705 29 1 1.0166372738072340e+00 -3.4225068201118930e+01 1.0000000000000000e+00 2.9014883200538240e+00 1.6479748215765738e+01 2.8548024644650858e+00 
96 2 2 2.6795282243682648e+00 -2.9966741907426839e+00 1.0000000000000000e+00 5.5215024205922401e+00 1.8689086304731365e+01 2.0095799437685011e+00 
2316 43 1 9.9615220216277656e-01 -7.8333794497674134e+01 1.0000000000000000e+00 6.8388216782065854e+00 1.6933947253761087e+01 1.0607986689033739e+00 
2105 38 2 2.7000730890145039e+00 4.4318770958453058e+01 1.0000000000000000e+00 7.3277508081140983e+00 1.7422678974584397e+01 1.9171087765774124e+00 
2113 38 1 9.9774964368635366e-01 -1.8905403711309452e+02 1.0000000000000000e+00 7.9294077767787163e+00 1.7911682239960317e+01 2.6578490079916683e+00 
98 2 2 3.1169417915955164e+00 -1.7278172215978248e+01 1.0000000000000000e+00 5.5035523936534556e+00 1.6875813228088454e+01 2.8532140742153738e+00 
145 2 1 1.0019070277024378e+00 -6.6747483264821568e+01 1.0000000000000000e+00 2.5491562762750344e+00 2.1742813757770723e+01 2.5488543963403076e+00 
297 5 1 9.9913328816236890e-01 -1.2185045545301485e+02 1.0000000000000000e+00 4.4100711663858316e+00 2.0447000574900930e+01 2.1369439546129567e+00 
99 2 2 2.6515896613257288e+00 7.6096178099758689e+01 1.0000000000000000e+00 3.2344475611441368e+00 2.1212529089764939e+01 2.6433122062712235e+00 
94 2 2 2.6494718002497462e+00 1.4855096939956997e+01 1.0000000000000000e+00 5.5394524475310245e+00 2.0502359381374276e+01 1.1659458133216289e+00 
124 2 1 1.0029453848910503e+00 -1.2101352645017549e+02 1.0000000000000000e+00 6.1548808643290611e+00 2.0487167932511241e+01 5.5529439147425497e-01 
1402 24 1 1.0097334337410149e+00 -3.6768993473517064e+01 1.0000000000000000e+00 1.1197957544904471e+01 5.2559383024507627e+00 4.7988762440969834e+00 
2327 43 1 1.0062489429289718e+00 -1.2361866055138998e+02 1.0000000000000000e+00 8.0250580726487613e+00 6.4198142789169070e+00 3.4473613564747461e+00 
2117 38 1 1.0367626902344411e+00 -6.7359527669003981e+01 1.0000000000000000e+00 1.0298006008221796e+01 7.1705623527747351e+00 2.9918116152259291e+00 
1408 25 2 2.5968084826317619e+00 -2.4932925575492547e+01 1.0000000000000000e+00 8.6308417771399490e+00 7.0340322009940817e+00 3.4684987615164031e+00 
1409 25 2 2.5891793145076458e+00 3.1603556278340054e+01 1.0000000000000000e+00 1.0118933942032335e+01 7.7088944377317494e+00 4.6218168747060471e+00 
988 15 1 1.0072779238816698e+00 -8.5044730178632804e+01 1.0000000000000000e+00 9.8401315624436752e+00 7.3745983218253635e+00 5.3937768501586758e+00 
1417 25 2 2.5763840340009327e+00 9.2589782695220499e+00 1.0000000000000000e+00 1.1100186794511449e+01 5.9852850648750273e+00 4.3643026628612329e+00 
1420 25 2 2.5754458469971637e+00 6.5013393693305286e+00 1.0000000000000000e+00 1.3495320605794721e+01 7.4175980863016324e+00 3.9040707270946560e+00 
2167 39 1 1.0099673517722663e+00 -9.0907432049199684e+01 1.0000000000000000e+00 1.4208217411748986e+01 7.1135897958406042e+00 4.2629419191835956e+00 
2314 43 1 1.0126365505590813e+00 -5.3766642352306981e+01 1.0000000000000000e+00 5.5624713293344499e+00 1.0361708529651844e+01 3.4603635087880860e+00 
2076 37 2 2.5502008320275209e+00 7.3677324024869847e+01 1.0000000000000000e+00 6.2786059121240223e+00 1.0829945184750679e+01 3.6784661840384265e+00 
2083 37 2 2.5628256760609553e+00 4.6914305840095780e+00 1.0000000000000000e+00 7.3410786115934110e+00 9.1367875254219584e+00 3.6123685022430694e+00 
3432 64 1 1.0120362536559473e+00 -1.0729803565606854e+02 1.0000000000000000e+00 7.0848063394575345e+00 8.6194821372096229e+00 4.2458203991265000e+00 
2073 37 2 2.5680270301968950e+00 4.5966859961592505e+01 1.0000000000000000e+00 6.2232363371951056e+00 1.0717277975335314e+01 5.6745223731510332e+00 
1405 25 2 2.9198121970927198e+00 -1.4308964063748169e+01 1.0000000000000000e+00 1.0044722735944106e+01 1.0189954595277410e+01 3.2657810375946408e+00 
2084 37 2 2.9121240849156318e+00 -1.1821575217728829e+02 1.0000000000000000e+00 9.0346210447950188e+00 1.0195335228919086e+01 3.7190961292500173e+00 
1403 25 2 2.9726768223427857e+00 -3.0440812562784347e+00 1.0000000000000000e+00 9.1376810895532206e+00 9.4325038105884715e+00 4.8793310865508612e+00 
1412 25 2 2.4181232395988941e+00 -2.7912524001342366e+01 1.0000000000000000e+00 1.1025975588423220e+01 8.4663452224206868e+00 3.0082668257498262e+00 
1413 25 2 2.5890499974164691e+00 2.5282342936154105e+00 1.0000000000000000e+00 1.2514067753315608e+01 9.1412074591583536e+00 4.1615849389394697e+00 
1406 25 2 2.8125859773913522e+00 -1.8950397955382989e+01 1.0000000000000000e+00 1.1532814900836494e+01 1.0864816832015077e+01 4.4190991507842847e+00 
2494 45 1 1.0077291981020440e+00 -1.0193786209459435e+02 1.0000000000000000e+00 1.3077874542577666e+01 9.4066151134318936e+00 4.7928271018410733e+00 
2092 38 2 2.9091596716230321e+00 -1.7280629589467276e+02 1.0000000000000000e+00 4.9338398002536028e+00 1.3488404239742348e+01 3.5876393501461417e+00 
2069 37 2 2.9099471308419975e+00 -6.9963418378864745e+01 1.0000000000000000e+00 5.2161332126546336e+00 1.2523102844079398e+01 3.7445638658337832e+00 
2070 37 2 2.9087938944305973e+00 -9.3030874578681676e+01 1.0000000000000000e+00 6.9096756458562414e+00 1.3581650547576526e+01 3.8512914928407311e+00 
2077 37 2 2.2349690360602366e+00 -8.7397214741688089e+01 1.0000000000000000e+00 7.9721483453256301e+00 1.1888492888247807e+01 3.7851938110453744e+00 
2078 37 2 2.5537103084541650e+00 -1.5626159522869006e+01 1.0000000000000000e+00 9.6656907785272370e+00 1.2947040591744935e+01 3.8919214380523224e+00 
2085 37 2 2.9775845139570825e+00 -7.7059356540025149e+01 1.0000000000000000e+00 1.0728163477996626e+01 1.1253882932416214e+01 3.8258237562569657e+00 
1732 30 1 1.0113073284618148e+00 -1.1756021717271084e+02 1.0000000000000000e+00 1.0390622162814557e+01 1.3408129028643014e+01 4.0542072272534861e+00 
1882 32 1 1.0202746199049986e+00 -1.1874849059153478e+02 1.0000000000000000e+00 3.2201421009473075e+00 1.4653489718485414e+01 4.5357057147078477e+00 
2098 38 2 2.4460053296452209e+00 -2.3332213922636831e+02 1.0000000000000000e+00 3.8673700811343084e+00 1.5179292439334924e+01 3.6471324983246562e+00 
2097 38 2 2.4815890976149997e+00 4.8843209995583301e+01 1.0000000000000000e+00 3.7870425004745352e+00 1.5058444926136472e+01 5.6418613917683489e+00 
2101 38 2 2.7309721115132306e+00 -1.0776022746176534e+02 1.0000000000000000e+00 5.5573966542943172e+00 1.6240561950360433e+01 3.7794850841728804e+00 
2094 38 2 2.9087938943260241e+00 -5.9204219244617306e+01 1.0000000000000000e+00 6.6238663734136107e+00 1.4549673750767859e+01 3.7199919359943658e+00 
2096 38 2 2.9076791918923894e+00 -3.3100841689436313e+00 1.0000000000000000e+00 8.3138929465736204e+00 1.5610943261793370e+01 3.8523445218425900e+00 
2071 37 2 2.9095978041535826e+00 -5.1256679313892690e+01 1.0000000000000000e+00 8.6032180790578483e+00 1.4640198251073656e+01 3.9580191198476791e+00 
1537 26 1 1.0102177606184335e+00 -6.9934769568800377e+01 1.0000000000000000e+00 2.4227539536883467e+00 1.9058826780943839e+01 3.4270763225679666e+00 
2106 38 2 2.5267653333582540e+00 -2.4652162623768401e+01 1.0000000000000000e+00 2.8009003620150139e+00 1.6870180638927501e+01 3.7066256465031708e+00 
2108 38 2 2.8225184611594285e+00 -2.1078641306163735e+02 1.0000000000000000e+00 4.4909269351750218e+00 1.7931450149953012e+01 3.8389782323513950e+00 
106 2 2 2.9577853590935783e+00 -8.4430633276368539e+01 1.0000000000000000e+00 5.1705479777301164e+00 1.7710413588896508e+01 4.6399849875432748e+00 
2110 38 2 3.1038721340777933e+00 -1.1714228111105152e+02 1.0000000000000000e+00 6.1809535083350315e+00 1.8992719660978523e+01 3.9713308181996196e+00 
2104 38 2 2.7282133633307160e+00 3.5695799767956480e+01 1.0000000000000000e+00 7.2474232274543251e+00 1.7301831461385945e+01 3.9118376700211046e+00 
107 2 2 3.0890830275561334e+00 4.0705445681733119e+00 1.0000000000000000e+00 7.1425484481936641e+00 1.7834844241313899e+01 4.9493895079215813e+00 
109 2 2 2.6571011494855115e+00 8.9713641920422688e+01 1.0000000000000000e+00 2.8834931182820132e+00 2.0233856373930081e+01 5.2737172500459968e+00 
100 2 2 2.6555735077906291e+00 2.9540272943241193e+00 1.0000000000000000e+00 5.2064480316076853e+00 2.1336959742182330e+01 2.9527167266495300e+00 
102 2 2 2.5736488255177510e+00 -5.2552612290073860e+01 1.0000000000000000e+00 3.2164975342053523e+00 1.9399256013122027e+01 3.4869463367180957e+00 
103 2 2 2.7285036935419158e+00 -2.1855215544582755e+01 1.0000000000000000e+00 5.1884980046689009e+00 1.9523686665539419e+01 3.7963508570964022e+00 
114 2 1 1.0077686534725041e+00 -1.2859653004471264e+02 1.0000000000000000e+00 3.9964503837309984e+00 2.0845314692873245e+01 4.5564841727333620e+00 
110 2 2 2.5975235944470181e+00 -4.2112211499183971e+01 1.0000000000000000e+00 4.8554935887455608e+00 2.0358287026347472e+01 5.5831217704243032e+00 
932 14 1 1.0016979774214250e+00 -1.0231993039434822e+02 1.0000000000000000e+00 5.9725160797918235e+00 2.1781594870881687e+01 3.0860083942439522e+00 
104 2 2 2.6456366494448367e+00 -5.7043844776466948e+01 1.0000000000000000e+00 7.1604984751324485e+00 1.9648117317956810e+01 4.1057553774747086e+00 
108 2 2 2.6292054541817902e+00 -1.8431318070808608e+01 1.0000000000000000e+00 4.8734436156843453e+00 2.2171560102990384e+01 4.7394876399774315e+00 
2646 48 1 1.0034803671194958e+00 -9.8986887430930039e+01 1.0000000000000000e+00 4.9449178727683751e+00 2.2979852809116814e+01 5.0484310207005327e+00 
1569 26 1 9.7899999858019082e-01 -1.1284152398121802e+02 1.0000000000000000e+00 2.1442796587144201e+01 2.3396287385085042e+01 5.3557681848742620e+00 
1579 26 1 9.7899999859424769e-01 -8.8698701308637979e+01 1.0000000000000000e+00 2.1440538501347479e+01 2.3399313549723797e+01 5.3593913215281841e+00 
2162 39 1 9.7899999861662235e-01 -1.0136764015172669e+02 1.0000000000000000e+00 2.1440482096230614e+01 2.3399383946260606e+01 5.3594676850526364e+00 
2155 39 1 9.7900000160468204e-01 -8.7963663486571164e+01 1.0000000000000000e+00 2.2194461171326797e+01 2.4961480451421455e+01 3.8921480504776822e+00 
2163 39 1 9.7900000160559564e-01 -1.2604164790320469e+02 1.0000000000000000e+00 2.2193085121280628e+01 2.4958173283280075e+01 3.8926026184416735e+00 
1442 25 1 9.7899999892843148e-01 -5.1341948066300453e+01 1.0000000000000000e+00 2.2207882335845909e+01 2.5491077104818789e+01 4.9202932640069132e+00 
1981 35 1 9.7899999892964884e-01 -4.3844559893374253e+01 1.0000000000000000e+00 2.2205115049601410e+01 2.5489674661177801e+01 4.9221319208859926e+00 
3025 53 1 9.8700123694694031e-01 -1.9220960473157579e+01 1.0000000000000000e+00 2.1621331594278580e+01 2.8740741479652034e+01 4.4870456983532021e+00 
3086 56 2 2.7954218000143523e+00 -5.2038528220320231e+01 1.0000000000000000e+00 2.1785570929291282e+01 2.9724752407975569e+01 4.8333092486118003e+00 
3321 61 1 9.9221055658101276e-01 -7.7131317066531963e+01 1.0000000000000000e+00 1.9846795441652084e+01 2.9525807234274872e+01 5.4673445729196963e+00 
4143 76 1 9.8601716664841921e-01 -7.5196557672350295e+01 1.0000000000000000e+00 2.1964099694315241e+01 2.9897629111030351e+01 3.8328459571554050e+00 
2304 43 1 1.0113481932645292e+00 -3.6409687695408572e+01 1.0000000000000000e+00 5.6003479869278046e+00 1.0349343281078408e+01 6.1234219401157945e+00 
2082 37 2 2.8162765765682765e+00 -3.1887224691699082e+01 1.0000000000000000e+00 8.9792514698661012e+00 1.0082668019503723e+01 5.7151523183626249e+00 
1428 25 1 1.0097762250643976e+00 -3.0276514987551376e+01 1.0000000000000000e+00 1.1769980767733804e+01 8.3514385822609363e+00 6.6173219365887084e+00 
1410 25 2 2.5719422623116581e+00 1.8134313526606288e+01 1.0000000000000000e+00 1.1607026106924721e+01 8.3837566744694172e+00 5.7751349878956901e+00 
558 9 1 9.7899999773070734e-01 -8.3247191551156490e+01 1.0000000000000000e+00 2.9987881344941311e+01 1.0022279832578059e+01 7.2781170245036959e+00 
891 14 1 9.7899999773132651e-01 -6.5921298361123831e+01 1.0000000000000000e+00 2.9984605837663690e+01 1.0021925570614648e+01 7.2822176980878890e+00 
551 9 1 9.7899999773006208e-01 -5.9127849731792161e+01 1.0000000000000000e+00 2.9984229029341961e+01 1.0021267571195846e+01 7.2827040060504942e+00 
2068 37 2 2.9104711173296245e+00 -3.0219708013549820e+01 1.0000000000000000e+00 6.8543060709273247e+00 1.3468983338161163e+01 5.8473476819533392e+00 
2074 37 2 2.5542485253845713e+00 2.9479759415681340e+01 1.0000000000000000e+00 7.9167787703967134e+00 1.1775825678832442e+01 5.7812500001579821e+00 
2319 43 1 1.0119440484962976e+00 -1.2126316853322851e+02 1.0000000000000000e+00 7.8166158305450981e+00 1.1640945062549457e+01 6.6379442992406101e+00 
2075 37 2 2.5681356521682592e+00 8.9956593481146907e+00 1.0000000000000000e+00 9.6103212035983212e+00 1.2834373382329572e+01 5.8879776271649300e+00 
1923 33 1 1.0111007556721914e+00 -1.5038109247204434e+02 1.0000000000000000e+00 1.0023908844477404e+01 1.3068243198123017e+01 6.5955952368391504e+00 
1733 30 1 1.0191577238057408e+00 -1.0494784212658598e+02 1.0000000000000000e+00 4.8200537255150904e+00 1.5664765064489099e+01 6.5030765704947520e+00 
2100 38 2 2.4694222290127952e+00 3.4220134855651189e+01 1.0000000000000000e+00 5.4770690736345440e+00 1.6119714437161985e+01 5.7742139776165731e+00 
2093 38 2 2.9098518456867000e+00 -7.9399338875030061e+00 1.0000000000000000e+00 6.5435387927538375e+00 1.4428826237569407e+01 5.7147208294380585e+00 
2107 38 2 3.0120769110411754e+00 -3.5222420639541468e+01 1.0000000000000000e+00 4.4105993545152495e+00 1.7810602636754560e+01 5.8337071257950885e+00 
112 2 2 2.8768048418713974e+00 -5.4158597656550917e+01 1.0000000000000000e+00 4.8375435618067764e+00 1.8545013949704561e+01 6.4267559008711759e+00 
2103 38 2 2.6692112738089304e+00 4.7120914478934203e+01 1.0000000000000000e+00 7.1670956467945519e+00 1.7180983948187496e+01 5.9065665634647964e+00 
1635 28 2 2.6083770189690205e+00 -8.6735827415854114e+00 1.0000000000000000e+00 2.6106607703867187e+01 1.8930360573734337e+01 8.3529254620439506e+00 
520 9 1 1.0011443294139921e+00 -1.5273721085557199e+02 1.0000000000000000e+00 2.3211613065465073e+00 2.0042261548659816e+01 5.9124924206432201e+00 
512 9 1 1.0063504585791361e+00 -1.6076858519051430e+02 1.0000000000000000e+00 5.3522495552587639e+00 2.0686968670414160e+01 6.4367221358935423e+00 
2817 50 1 1.0068167061683264e+00 -1.1807220434155172e+02 1.0000000000000000e+00 7.7137012739362252e+00 2.0445279819765208e+01 5.7521377071276270e+00 
111 2 2 2.6126210906671807e+00 -2.7224971233899012e+01 1.0000000000000000e+00 6.8274940592091093e+00 2.0482717678764864e+01 5.8925262908026106e+00 
1775 31 1 9.7900000001533594e-01 -5.8676077031004631e+01 1.0000000000000000e+00 2.0987257135886832e+01 2.1025785928449846e+01 6.3551136912438491e+00 
1785 31 1 9.7899999981120522e-01 -8.8077337576630399e+01 1.0000000000000000e+00 2.1077760611285960e+01 2.1125117739185136e+01 6.4362202475881025e+00 
1938 33 1 9.7899999980972263e-01 -5.5214480016089730e+01 1.0000000000000000e+00 2.1076141912700923e+01 2.1133704610792059e+01 6.4539846868298607e+00 
1570 26 1 9.7899999986147457e-01 -9.1648803036307569e+01 1.0000000000000000e+00 2.0895624625115502e+01 1.9356670661042020e+01 7.7185366499168406e+00 
1589 26 1 9.7899999986150388e-01 -4.9013925691335039e+01 1.0000000000000000e+00 2.0895618346250863e+01 1.9356665278412414e+01 7.7185287744295641e+00 
2674 48 1 9.7899999986150610e-01 -1.1522535331942635e+02 1.0000000000000000e+00 2.0895628734511966e+01 1.9356657467954932e+01 7.7185195770640016e+00 
1443 25 1 1.0098859804532045e+00 -7.7339719700332154e+01 1.0000000000000000e+00 2.3977699615310630e+01 2.0305643786920392e+01 6.1591524768817782e+00 
1636 28 2 2.5792958877318686e+00 -3.2207593720623315e+01 1.0000000000000000e+00 2.4560927537346895e+01 2.0621752957246599e+01 6.6945935809590704e+00 
1643 28 1 1.0351691438068182e+00 -2.6670048035430248e+01 1.0000000000000000e+00 2.6099065661422767e+01 2.0536510403948093e+01 7.8440564890848732e+00 
1804 31 1 1.0098902724150614e+00 -1.6821621824747261e+01 1.0000000000000000e+00 2.7816627241787220e+01 2.0197785194388032e+01 5.7634633966274507e+00 
1631 28 2 2.5792715854547570e+00 -2.4139604606186239e+01 1.0000000000000000e+00 2.7373355990929173e+01 2.0542794846400010e+01 6.4047456721994305e+00 
1491 26 1 1.0168286628108598e+00 -1.3969731646914095e+01 1.0000000000000000e+00 2.8753699082727024e+01 2.0341456956615740e+01 8.3274177108229317e+00 
1628 28 2 2.4976608257945525e+00 -2.6050125296429457e+01 1.0000000000000000e+00 2.7569864167038634e+01 2.0293511282961180e+01 8.3793955757826897e+00 
1621 28 2 2.5075963065976765e+00 -3.2595617442774717e+01 1.0000000000000000e+00 2.9033120630210078e+01 2.1656661992188027e+01 8.4058656895214288e+00 
1448 25 1 1.0098856038871968e+00 -8.0686234376386395e+01 1.0000000000000000e+00 2.4124183489025341e+01 2.3908234079609333e+01 6.5994409605707194e+00 
1795 31 1 1.0060128269674740e+00 -2.5314800908109767e+01 1.0000000000000000e+00 2.5937678193855692e+01 2.2094604113787952e+01 5.8525752186764635e+00 
1630 28 2 2.6003487638656555e+00 -8.8698354106435637e+00 1.0000000000000000e+00 2.6024184000518343e+01 2.1984903666473446e+01 6.7210636946978095e+00 
1629 28 2 2.5792966844156751e+00 -2.3948297237789151e+00 1.0000000000000000e+00 2.4675012010107508e+01 2.3427012486546879e+01 7.0373817171961885e+00 
1594 26 1 1.0351700601363238e+00 -9.3516901729060180e+00 1.0000000000000000e+00 2.6203728068449404e+01 2.3110087355154057e+01 8.1585417305590351e+00 
1794 31 1 1.0098898908852449e+00 -2.1314111442792072e+01 1.0000000000000000e+00 2.7963178354826777e+01 2.3800557642632356e+01 6.2037694675470201e+00 
1622 28 2 2.5792722838511728e+00 -3.7340151362983152e+00 1.0000000000000000e+00 2.7487440463689786e+01 2.3348054375700290e+01 6.7475338084365486e+00 
2131 39 2 2.6989779208674194e+00 -2.1895999298159521e+00 1.0000000000000000e+00 8.9662382337079940e+00 2.5511446611540414e+01 7.9275060102883685e+00 
1501 26 1 9.9919835253974454e-01 -1.5423166065458247e+02 1.0000000000000000e+00 9.6713198067030568e+00 2.6553146315707323e+01 7.9177784016187127e+00 
4028 74 1 9.9843527832330492e-01 -1.0661482275668895e+02 1.0000000000000000e+00 1.0862586205866688e+01 2.4984542349248340e+01 7.5538943856527645e+00 
2365 43 1 9.9788138137172577e-01 -1.9671975416560795e+01 1.0000000000000000e+00 1.3516760077748161e+01 2.5867718219610293e+01 8.0271337474309057e+00 
2132 39 2 2.6630114145504122e+00 -1.3821105094458042e+02 1.0000000000000000e+00 1.0927080633140200e+01 2.5667959514331315e+01 8.2888933313843243e+00 
2843 51 1 9.9643725258849014e-01 -1.1440044603237649e+02 1.0000000000000000e+00 7.8473867834545832e+00 2.8163369122127811e+01 8.5158922925516674e+00 
2130 39 2 2.6708414421045799e+00 5.6782653024646557e+00 1.0000000000000000e+00 1.0908102554118461e+01 2.7538654809500713e+01 7.5816883079662745e+00 
2500 45 1 9.9852234885423385e-01 -7.6445218453679459e+01 1.0000000000000000e+00 1.1204542387402771e+01 2.7756089528147548e+01 6.7726921238315168e+00 
3955 73 1 9.8891131755173534e-01 -8.6594880999064586e+01 1.0000000000000000e+00 1.9113103007924106e+01 2.8557972736665914e+01 7.0264925807622340e+00 
3082 56 2 2.7620915269214374e+00 2.6563844230620845e+01 1.0000000000000000e+00 1.9896205716106017e+01 2.9046031225163105e+01 6.8257039502728576e+00 
3035 53 1 9.9115782252601836e-01 -3.2141189110285687e+01 1.0000000000000000e+00 2.1188300696963118e+01 2.8388849482532613e+01 7.0116796250544358e+00 
3083 56 2 2.7088087389053257e+00 2.7564336516246204e+00 1.0000000000000000e+00 2.1245356039244577e+01 2.9454901282990519e+01 8.2443718752600024e+00 
2889 51 1 9.9220973491906461e-01 -3.4864785738516787e+01 1.0000000000000000e+00 2.3232495934537308e+01 2.8791716124974151e+01 5.9454276149574516e+00 
3081 56 2 2.7620958508966047e+00 1.4983346025180214e+01 1.0000000000000000e+00 2.2634416273074351e+01 2.8452156428872250e+01 7.2123765146444097e+00 
2882 51 1 9.9203511779515186e-01 -2.7385128277958316e+01 1.0000000000000000e+00 2.4050104990027211e+01 2.9937091861458196e+01 5.7409461843592045e+00 
3320 61 1 9.8891100971763279e-01 -7.3560560262034926e+01 1.0000000000000000e+00 2.3067868780502984e+01 2.7700406397801963e+01 7.5848862788597806e+00 
2890 51 1 9.8516609437862157e-01 -2.4010156072538166e+01 1.0000000000000000e+00 2.5172285171614831e+01 2.9943383615440343e+01 8.0287652777541343e+00 
896 14 1 9.7900000000001408e-01 -4.9164570856330762e+01 1.0000000000000000e+00 2.9834533681795897e+01 1.2063401666528639e+01 1.1301246514226612e+01 
897 14 1 9.7900000000001708e-01 -4.1956327238617000e+01 1.0000000000000000e+00 2.9821794788309418e+01 1.2065155630077193e+01 1.1307343460720835e+01 
1557 26 1 9.9404465155822708e-01 -8.7157353990966612e+01 1.0000000000000000e+00 1.2872188348850854e+01 1.5724497099894938e+01 9.5567769767096351e+00 
1200 19 2 2.7061464564189759e+00 6.2759012109670458e+00 1.0000000000000000e+00 1.3294316498177883e+01 1.5638498793999513e+01 1.0364840366432189e+01 
1009 15 1 9.9672312728627177e-01 -1.1263270690829829e+02 1.0000000000000000e+00 1.2642851334137523e+01 1.4514919152502669e+01 1.1351580387914606e+01 
875 14 1 9.9585011387693734e-01 -2.3417904636723009e+01 1.0000000000000000e+00 1.4819969450490129e+01 1.5615853774875118e+01 1.0353763772164134e+01 
1201 19 2 2.7095185831507274e+00 5.0125583011810793e-01 1.0000000000000000e+00 1.5857852254436796e+01 1.5045283812333672e+01 1.1402327914265529e+01 
994 15 1 9.9375852814129806e-01 -6.9898529431771621e+01 1.0000000000000000e+00 1.6697172077163888e+01 1.4841744533442307e+01 1.1105715036289510e+01 
876 14 1 9.9404461505981245e-01 -7.0756355673338589e+01 1.0000000000000000e+00 1.0849990528423360e+01 1.7303999746919587e+01 1.1259141605088880e+01 
1171 18 1 9.9640344278867199e-01 -1.5601822631074777e+01 1.0000000000000000e+00 1.3415120813127290e+01 1.8806247837693771e+01 1.0127323416323319e+01 
692 11 1 9.9675473515016910e-01 -1.2813455403588844e+02 1.0000000000000000e+00 1.5133283355043048e+01 1.7631829868005841e+01 1.0529331887459392e+01 
1197 19 2 2.6813128792002425e+00 -3.0569086301763743e+01 1.0000000000000000e+00 1.3721463937953242e+01 1.8386495594675967e+01 1.0880649098585241e+01 
1199 19 2 2.6773220586659687e+00 -1.6860750107929555e+01 1.0000000000000000e+00 1.4789658096195019e+01 1.6715889703504818e+01 1.1141488506425384e+01 
1492 26 1 1.0067610291180302e+00 -1.3401516515489851e+01 1.0000000000000000e+00 2.6110307283391183e+01 1.8113425161889214e+01 8.6121594772718453e+00 
2511 45 1 1.0168245318802227e+00 -1.1942985419834409e+02 1.0000000000000000e+00 2.3592518799531433e+01 2.0486180595081329e+01 8.8592450965230700e+00 
1633 28 2 2.5074589379738987e+00 -1.7110485339183768e+01 1.0000000000000000e+00 2.3408263723045522e+01 2.1814578213881205e+01 8.9855615070407087e+00 
1634 28 2 2.4978043599442952e+00 -1.7920256155860117e+00 1.0000000000000000e+00 2.4757435713456353e+01 2.0372469393807769e+01 8.6692434845423296e+00 
1627 28 2 2.4285345076229512e+00 -6.8503957600082799e-01 1.0000000000000000e+00 2.6220692176627800e+01 2.1735620103034616e+01 8.6957135982810687e+00 
1632 28 2 2.5658600463908416e+00 -3.8840986110896068e+01 1.0000000000000000e+00 2.4953943889565814e+01 2.0123185830368939e+01 1.0643893388125589e+01 
1624 28 2 2.5566525252943633e+00 -1.3425876655913873e+00 1.0000000000000000e+00 2.6417200352737257e+01 2.1486336539595786e+01 1.0670363501864328e+01 
1246 20 1 1.0118449691251223e+00 -3.8899875480978842e+01 1.0000000000000000e+00 2.4806848331876342e+01 1.9366197381331229e+01 1.1001254253490439e+01 
1625 28 2 2.5658557229217012e+00 -1.1161138729173162e+01 1.0000000000000000e+00 2.7766372343148092e+01 2.0044227719522354e+01 1.0354045479365949e+01 
1257 20 1 1.0118465005146999e+00 -1.6428373619199551e+01 1.0000000000000000e+00 2.7941100030195749e+01 1.9278388660519926e+01 1.0678591326063660e+01 
3258 59 1 9.9172104028576791e-01 -1.5051596517336781e+01 1.0000000000000000e+00 5.4969967730963374e+00 2.3838222159389431e+01 8.8504671678775821e+00 
3226 59 2 2.7610179693356041e+00 7.6348543350358042e+00 1.0000000000000000e+00 6.1074200121513735e+00 2.3095781001330494e+01 9.2016194681337655e+00 
3233 59 2 2.9746653452110854e+00 -1.2896039337298549e+02 1.0000000000000000e+00 8.0746339107593919e+00 2.3331788264162860e+01 9.4743281937254036e+00 
2556 47 2 2.9509006192536278e+00 -1.3658615375943276e+02 1.0000000000000000e+00 7.1943942532432752e+00 2.2643004562475380e+01 9.7274742257567155e+00 
3227 59 2 3.0035986217019430e+00 -4.0506502786329683e+01 1.0000000000000000e+00 5.7605515301651158e+00 2.3919821621104077e+01 1.0990652534672146e+01 
2553 47 2 2.7740171189941294e+00 -5.7515635363187144e+01 1.0000000000000000e+00 7.1036867888185453e+00 2.4511994024507224e+01 9.0213222968408804e+00 
3234 59 2 3.2164519047697624e+00 -3.6423680356405271e+02 1.0000000000000000e+00 7.7277654287731341e+00 2.4155828883936444e+01 1.1263361260263784e+01 
3240 59 2 2.9180744258460036e+00 -5.2690255877140473e+01 1.0000000000000000e+00 1.0041847809367409e+01 2.3567795526995226e+01 9.7470369193170399e+00 
2549 47 2 2.7582579064536885e+00 -2.1100274133191877e+02 1.0000000000000000e+00 9.0484318023411383e+00 2.2985161463887110e+01 1.0394912178941516e+01 