LAMMPS data file via write_data, version 30 Jul 2016, timestep = 100400000

3637 atoms
8 atom types

0.0000000000000000e+00 6.0000000000000000e+01 xlo xhi
0.0000000000000000e+00 6.0000000000000000e+01 ylo yhi
0.0000000000000000e+00 6.0000000000000000e+01 zlo zhi

Masses

1 3.896
2 8.3
3 4.31
4 28.378
5 28.378
6 28.378
7 28.378
8 28.378

Atoms # meso-molecular

2257 38 1 9.7899999999996157e-01 -1.3251646953806946e+02 1.0000000000000000e+00 1.2074740790545912e+01 2.0518002669457410e+01 2.7794159977397048e+00 
2272 38 1 9.7899999999868870e-01 -1.6871643113107740e+02 1.0000000000000000e+00 1.2074759289797706e+01 2.0517978094830948e+01 2.7794387073013462e+00 
2580 43 1 9.7899999999589638e-01 -3.3279704205758200e+01 1.0000000000000000e+00 1.2074365071030499e+01 2.0518170020099578e+01 2.7791828002667822e+00 
2456 41 1 9.7899999999862197e-01 -3.9704709244141839e+01 1.0000000000000000e+00 1.2154062690774380e+01 2.0643127995439048e+01 2.7693455224614305e+00 
758 13 1 8.2468295249091128e-01 -1.4279818425705278e+02 1.0000000000000000e+00 7.7779621247529747e+00 2.4117819571374227e+01 5.5255917196458570e-01 
1157 22 1 8.2468295249091128e-01 -1.1962072735067144e+02 1.0000000000000000e+00 7.7779621247529835e+00 2.4117819571374191e+01 5.5255917196458604e-01 
2422 41 1 8.2468295249091128e-01 -1.2548899494603731e+02 1.0000000000000000e+00 7.7779621247530075e+00 2.4117819571374245e+01 5.5255917196458548e-01 
757 13 1 8.2468295249091128e-01 -1.7898122988094838e+02 1.0000000000000000e+00 7.7779621247529889e+00 2.4117819571374167e+01 5.5255917196458393e-01 
2754 47 1 9.9536889407712081e-01 -2.4222318924845695e+01 1.0000000000000000e+00 1.3478723830249690e+01 2.9900771577174929e+01 1.8733369462627953e+00 
3340 59 2 2.6645993772924697e+00 -9.5504389883748093e+00 1.0000000000000000e+00 1.3685387526025774e+01 2.9691208119075085e+01 2.3927569530849477e+00 
2769 47 1 9.9946650383201197e-01 -3.7993061073189168e+01 1.0000000000000000e+00 1.5574631814695714e+01 2.8792679218814150e+01 2.0766921176706377e+00 
3339 59 2 2.6123156590003749e+00 -5.5043427038592654e+00 1.0000000000000000e+00 1.5564564788799073e+01 2.9134180245612686e+01 2.7907679620555679e+00 
36 1 2 2.7105916057486192e+00 -2.1863230845393377e+02 1.0000000000000000e+00 2.1926143128058460e+01 1.2791876508998879e+01 5.3132017487544170e+00 
410 7 1 9.9197902324864318e-01 -4.5776224239451750e+01 1.0000000000000000e+00 2.1997566184102457e+01 1.2558695456609863e+01 4.7398831995720325e+00 
585 10 1 9.8970510502042264e-01 -1.7718622865564203e+02 1.0000000000000000e+00 2.1006267563472921e+01 1.5271008833706249e+01 3.8805454063468781e+00 
31 1 2 2.7429128823126923e+00 7.3826105998413624e+01 1.0000000000000000e+00 2.1257769996263836e+01 1.5420460935281707e+01 4.5108170089952289e+00 
43 1 1 9.9759879990669664e-01 -3.8228034879834027e+01 1.0000000000000000e+00 2.0626977174067470e+01 1.5852287340928553e+01 5.5335754178966976e+00 
165 2 1 9.9830042451229228e-01 -1.3605918622568305e+02 1.0000000000000000e+00 2.0293813467981732e+01 1.3831206950942732e+01 5.5689603337273734e+00 
35 1 2 2.6929179749300340e+00 -2.8584929745230323e+02 1.0000000000000000e+00 2.3970295788365032e+01 1.4631728011792266e+01 4.6526062983988474e+00 
387 7 1 9.9308671785917713e-01 -8.8023691917330567e+01 1.0000000000000000e+00 2.4323479720388772e+01 1.4442240696394698e+01 4.1013003874910448e+00 
15 0 1 1.0002172744137345e+00 -1.0381071036186785e+02 1.0000000000000000e+00 2.3237769645437499e+01 1.5667909325675900e+01 4.2006618849939485e+00 
28 1 2 2.6228021316771519e+00 1.8098283307600745e+01 1.0000000000000000e+00 2.2886689837668680e+01 1.6117787320111617e+01 5.4383708151421661e+00 
567 10 1 9.9989757741730190e-01 -1.5507893294592887e+02 1.0000000000000000e+00 2.2761149370346647e+01 1.6874696101923771e+01 4.8768582623287440e+00 
1595 28 1 9.7900000000148746e-01 -1.2193185888007535e+02 1.0000000000000000e+00 1.1733360116077792e+01 2.1069953886231232e+01 3.7420022773822597e+00 
2279 38 1 9.7900000000209764e-01 -3.1262294700257232e+01 1.0000000000000000e+00 1.1302179396164998e+01 2.1478766618864256e+01 4.5358769363830636e+00 
1821 31 1 9.7899999999865506e-01 -6.7348043678026215e+01 1.0000000000000000e+00 1.0952492327576298e+01 2.1872862265131086e+01 5.5565268805862251e+00 
1304 24 1 9.7899999999836684e-01 -1.3968619665948202e+02 1.0000000000000000e+00 1.0953755487958196e+01 2.2025725766277425e+01 5.4901143508278691e+00 
1298 24 1 9.7899999999917753e-01 -1.3521325214310147e+02 1.0000000000000000e+00 1.0970806790551483e+01 2.2018327368750104e+01 5.5033842745165025e+00 
998 19 1 9.7899999999758436e-01 -1.3029182112167220e+02 1.0000000000000000e+00 1.0948695229610696e+01 2.1930890321012832e+01 5.5433408337447760e+00 
3267 56 1 9.9523342888646127e-01 -8.8299048563828038e+01 1.0000000000000000e+00 1.5054167417308967e+01 2.6819468982481524e+01 3.3034259652202804e+00 
2426 41 1 9.9522072153730157e-01 -1.2318052945461675e+02 1.0000000000000000e+00 1.6853609957667999e+01 2.7032178984011125e+01 5.6530308832362142e+00 
3350 59 2 2.6632934971914719e+00 -2.8070826940840349e-01 1.0000000000000000e+00 1.2855790482453010e+01 2.8686185638258227e+01 4.9030753708057073e+00 
3016 54 1 9.9576804060949842e-01 -2.3044678609956385e+01 1.0000000000000000e+00 1.2362229636950980e+01 2.8572093453410549e+01 5.2085108441074102e+00 
3347 59 2 2.6645365106079355e+00 -5.4874340302096876e+01 1.0000000000000000e+00 1.4900189437435587e+01 2.7369788492890923e+01 3.4582461530311770e+00 
3639 62 1 1.0259789638965147e+00 -1.3504264390548414e+02 1.0000000000000000e+00 1.4041003152213422e+01 2.8748189133872515e+01 3.7407111344396262e+00 
3342 59 2 2.3294593785391235e+00 -1.1666470527107315e+01 1.0000000000000000e+00 1.5399343096589796e+01 2.9893549517517588e+01 4.6336081888007188e+00 
3349 59 2 2.6121838833355269e+00 -2.8888252009004397e+01 1.0000000000000000e+00 1.4734967745226308e+01 2.8129157764795828e+01 5.3010863797763275e+00 
3525 62 1 9.9965274797830839e-01 -2.9098681864193800e+01 1.0000000000000000e+00 1.4470472557598088e+01 2.7443470461085106e+01 5.5714537543360896e+00 
3842 65 1 9.9392583721958183e-01 -3.3303350668754646e+01 1.0000000000000000e+00 1.7736447838595449e+01 2.8089078464460552e+01 3.0085530133751361e+00 
3338 59 2 2.6776518387360349e+00 8.6221227053778937e-01 1.0000000000000000e+00 1.7443742051572372e+01 2.8577152372150287e+01 3.1887789710261880e+00 
3341 59 2 2.6123246011300232e+00 -3.0673525078457075e+01 1.0000000000000000e+00 1.7278520359363092e+01 2.9336521644055189e+01 5.0316191977713389e+00 
3517 62 1 9.9947423980857208e-01 -5.6114635826272291e+01 1.0000000000000000e+00 1.7996504935560640e+01 2.9078634145414679e+01 5.2434082060816722e+00 
3348 59 2 2.6647244959215817e+00 -6.4097504770213774e+01 1.0000000000000000e+00 1.6614145007999607e+01 2.7572129891333429e+01 5.6990973887469476e+00 
1145 22 1 9.9850140026828615e-01 -1.5602862140418824e+02 1.0000000000000000e+00 2.1488836880129224e+01 1.2414062971330548e+01 6.6121942759231898e+00 
166 2 1 9.8994624091555383e-01 -7.2124837106752537e+01 1.0000000000000000e+00 2.0110661224783403e+01 1.2667038744781840e+01 8.0667464064989574e+00 
29 1 2 2.7454587570799185e+00 -7.1587533429831723e+01 1.0000000000000000e+00 2.0427304358460379e+01 1.3135410699354754e+01 7.6871155220002434e+00 
181 3 2 2.9196512958833414e+00 -1.0224032073030351e+02 1.0000000000000000e+00 2.4473533683753200e+01 1.3291951579006488e+01 5.8376339716083159e+00 
33 1 2 2.8822217675853294e+00 -9.1244493691749938e+01 1.0000000000000000e+00 2.3139830150561572e+01 1.2346677775865313e+01 7.8289048114038611e+00 
34 1 2 3.0507605750026596e+00 -1.4129801981097415e+02 1.0000000000000000e+00 2.3555062969463304e+01 1.3489202893828789e+01 6.2407555549013543e+00 
188 3 2 2.8262520898775700e+00 -9.7657368264894711e+00 1.0000000000000000e+00 2.4004250198615722e+01 1.1892197927543720e+01 8.2501974890714038e+00 
191 3 2 2.6379631436010653e+00 -1.1436970690002551e+02 1.0000000000000000e+00 2.2026524173981720e+01 1.3629387006227489e+01 7.2154154461332602e+00 
180 3 2 2.6898465262095743e+00 -1.5993147748967920e+02 1.0000000000000000e+00 2.5433454372101540e+01 1.3122469965297139e+01 7.5840097200357048e+00 
417 7 1 9.8965708939504560e-01 -9.1061784765065127e+01 1.0000000000000000e+00 1.9211023130400797e+01 1.6131628656467331e+01 7.0578263608342064e+00 
30 1 2 2.6502651493396101e+00 -7.1890850221250782e+00 1.0000000000000000e+00 2.0842537177362107e+01 1.4277935817318230e+01 6.0989662654977366e+00 
171 2 1 9.9734513927483015e-01 -1.1714213404581245e+02 1.0000000000000000e+00 2.0026882088592465e+01 1.4500234376260481e+01 7.5215249500492813e+00 
22 1 2 2.7450962623770976e+00 1.1843551200172868e+01 1.0000000000000000e+00 1.9758931226665755e+01 1.5763995125637582e+01 6.8847307822410562e+00 
27 1 2 2.9908327453761236e+00 -5.2459316360816452e+01 1.0000000000000000e+00 2.2471457018766948e+01 1.4975262202148141e+01 7.0265200716446738e+00 
184 3 2 2.9205935736370559e+00 -8.9664670782016202e+01 1.0000000000000000e+00 2.3455728347467542e+01 1.4859659043980908e+01 6.5492276770975613e+00 
24 1 2 2.9525338426418739e+00 -9.5740583569078467e+01 1.0000000000000000e+00 2.4100376860171792e+01 1.5672588586978053e+01 7.9540738777916111e+00 
183 3 2 3.0070533046281760e+00 -1.2571472190156871e+02 1.0000000000000000e+00 2.4415649035815882e+01 1.4690177430271559e+01 8.2956034255249502e+00 
172 2 1 9.9728932765590061e-01 -4.1025985521183628e+01 1.0000000000000000e+00 2.7067332005022450e+01 1.3725630862643074e+01 6.6707176522253686e+00 
177 3 2 3.0494103029765340e+00 -2.9518818760451444e+02 1.0000000000000000e+00 2.4884932520953363e+01 1.6089931081734328e+01 5.8830399080618623e+00 
32 1 2 2.8049956191820851e+00 -2.0404688546304499e+02 1.0000000000000000e+00 2.5183982810868144e+01 1.4186529278658702e+01 7.1683093610482915e+00 
174 3 2 2.6753011465089007e+00 -2.2224870202481344e+02 1.0000000000000000e+00 2.6862658545587362e+01 1.4352742003050558e+01 6.9178219510000059e+00 
42 1 1 1.0022091800837982e+00 -1.3682013543613232e+02 1.0000000000000000e+00 2.6835559960264153e+01 1.5772343979416830e+01 7.1554130903448359e+00 
176 3 2 2.6033700487781153e+00 -1.4456173553616495e+01 1.0000000000000000e+00 2.5844853209301704e+01 1.5920449468024978e+01 7.6294156564892512e+00 
20 1 2 2.7845427337693383e+00 -9.3884648383817691e+01 1.0000000000000000e+00 2.1387851068070596e+01 1.6461321510467492e+01 7.8122845883879934e+00 
41 1 1 9.9153679552786500e-01 -1.2181294635669175e+02 1.0000000000000000e+00 2.1135389251643119e+01 1.7654879894167614e+01 7.4096884776281060e+00 
21 1 2 2.7392847355593553e+00 -5.5701946903680742e+01 1.0000000000000000e+00 2.1803083886972324e+01 1.7603846628430972e+01 6.2241353318854866e+00 
51 1 1 9.9210263855063019e-01 -1.4782119442163673e+02 1.0000000000000000e+00 2.2000665968142574e+01 1.8285281943309290e+01 6.1110916644378888e+00 
187 3 2 2.7975919094097534e+00 -2.1168714729991720e+02 1.0000000000000000e+00 2.2437923011181883e+01 1.6427366508955327e+01 7.2608213825868066e+00 
25 1 2 3.0493764402081545e+00 -2.9515614616726367e+02 1.0000000000000000e+00 2.4515609679073521e+01 1.6815113704941531e+01 6.3659246212891043e+00 
178 3 2 2.6586732985355095e+00 -1.5838128527408159e+01 1.0000000000000000e+00 2.4827047873016046e+01 1.7488156932999399e+01 8.3410093619784966e+00 
627 11 1 9.9547742385769700e-01 -1.9328946451471379e+02 1.0000000000000000e+00 2.4908556124521610e+01 1.8114021433111400e+01 8.3927760237392146e+00 
3 0 1 1.0045075855599266e+00 -8.8405365316008329e+01 1.0000000000000000e+00 2.6256042154634208e+01 1.6935922583585814e+01 8.2211347123224936e+00 
982 19 1 9.7899999999999299e-01 -1.4532088360855195e+02 1.0000000000000000e+00 4.7922170013179910e+00 2.0279956361421995e+01 6.8857710939131520e+00 
606 11 1 9.7900000000000864e-01 -1.3903424167178292e+02 1.0000000000000000e+00 4.4199470629758952e+00 2.0469523474096075e+01 7.2200086966151273e+00 
573 10 1 9.7900000000000409e-01 -1.3539044600036513e+02 1.0000000000000000e+00 4.4302700367124173e+00 2.0479330434050212e+01 7.2191726744782638e+00 
732 12 1 9.7899999999999088e-01 -1.2765202039652637e+02 1.0000000000000000e+00 4.4257848627195573e+00 2.0076329789322561e+01 7.0377227632190484e+00 
705 11 1 9.7899999999998699e-01 -1.5399746662012805e+02 1.0000000000000000e+00 4.7636043611533108e+00 2.0258259135099959e+01 6.8559458879610666e+00 
1767 30 1 9.7900000000000431e-01 -1.1714561966602302e+02 1.0000000000000000e+00 1.5812051979712074e+01 2.2255115075030659e+01 7.9206750136272390e+00 
1929 32 1 9.7899999999999865e-01 -1.2238485954426515e+02 1.0000000000000000e+00 1.5974932310848818e+01 2.2319076236830167e+01 7.7877366636825860e+00 
983 19 1 9.7899999999999210e-01 -1.0207177773852544e+02 1.0000000000000000e+00 1.5587949242648442e+01 2.2053742720211197e+01 7.4945711711600049e+00 
1602 28 1 9.7899999999999554e-01 -9.3174476088242059e+01 1.0000000000000000e+00 1.5528437962761725e+01 2.2285987204547069e+01 7.5609477079544263e+00 
733 12 1 9.7900000000001708e-01 -1.0196914424475870e+02 1.0000000000000000e+00 1.5943176530940045e+01 2.2028221623857984e+01 7.5132816012007888e+00 
3301 57 1 9.9573418060256258e-01 -4.1480237665717333e+01 1.0000000000000000e+00 1.4135806768833422e+01 2.8825203107605009e+01 7.5401459941560898e+00 
3351 59 2 2.6632720132993670e+00 -3.0064840118258520e+01 1.0000000000000000e+00 1.4569746053017029e+01 2.8888527036700733e+01 7.1439266065214779e+00 
3496 62 1 1.0258406890582681e+00 -1.5045225274095176e+02 1.0000000000000000e+00 1.5993393481148384e+01 2.8978262693131668e+01 6.2958697783243185e+00 
1600 28 1 9.9557397252781366e-01 -1.1393509044661937e+02 1.0000000000000000e+00 2.3970281364738618e+01 1.2737510483155233e+01 1.0924521649639827e+01 
189 3 2 2.6872467394052184e+00 -6.8660687121931856e+00 1.0000000000000000e+00 2.3946365550678404e+01 1.3290423778808790e+01 1.0708166942988038e+01 
190 3 2 3.0214755698178446e+00 -2.7417518983035268e+02 1.0000000000000000e+00 2.2986444862330060e+01 1.3459905392518140e+01 8.9617911945606501e+00 
401 7 1 1.0032915053282767e+00 -1.5414041907791511e+02 1.0000000000000000e+00 2.6560335340541592e+01 1.2448695117529754e+01 9.1710183160154575e+00 
179 3 2 2.6210796964623717e+00 3.8209636993818371e+01 1.0000000000000000e+00 2.6393375060449880e+01 1.2952988351587789e+01 9.3303854684630938e+00 
1482 25 1 9.7900000000002108e-01 -1.2487142853318969e+02 1.0000000000000000e+00 2.9632870187457751e+01 1.3444032341684519e+01 1.0781783646751784e+01 
426 7 1 9.7900000000000209e-01 -1.4808813732555359e+02 1.0000000000000000e+00 2.9632931736006377e+01 1.3445523628439782e+01 1.0784894441807470e+01 
1148 22 1 9.7899999999999732e-01 -1.5336179548904138e+02 1.0000000000000000e+00 2.9633049387782545e+01 1.3447693889548505e+01 1.0789349255858674e+01 
19 1 2 2.8137846101979362e+00 -5.6599967919175207e+01 1.0000000000000000e+00 2.0972618249168868e+01 1.5318796392504016e+01 9.4004338448905003e+00 
192 3 2 2.8579234666444284e+00 -2.0314328107032404e+02 1.0000000000000000e+00 2.1968639526044406e+01 1.5027612857492560e+01 9.6733849000498946e+00 
26 1 2 3.0123722154496209e+00 -1.9298600324636632e+02 1.0000000000000000e+00 2.2056224199865220e+01 1.3832737084184664e+01 8.6146693281471816e+00 
23 1 2 2.6255248341506894e+00 -8.0277303312732059e+01 1.0000000000000000e+00 2.3685144041270064e+01 1.4530063469014575e+01 9.5422231342941188e+00 
167 2 1 1.0029478980723323e+00 -1.1166773023480033e+01 1.0000000000000000e+00 2.3692987015421412e+01 1.4754755540756648e+01 1.0981724445557985e+01 
185 3 2 2.6779331522719478e+00 5.7114473464671498e+01 1.0000000000000000e+00 2.4357764387878564e+01 1.6088403281536632e+01 1.0753572879441585e+01 
186 3 2 3.0750810839975817e+00 -2.0158365851163128e+02 1.0000000000000000e+00 2.3397843699530224e+01 1.6257884895245979e+01 9.0071971310141965e+00 
182 3 2 2.5577789377527007e+00 1.5287085847725809e+01 1.0000000000000000e+00 2.5375569724164222e+01 1.4520695816562210e+01 1.0041979173952340e+01 
427 7 1 1.0084220272128983e+00 -1.5509086579888020e+02 1.0000000000000000e+00 2.5963373935634152e+01 1.4285961307437116e+01 1.0545913870506014e+01 
175 3 2 2.6448976436552374e+00 -1.9249411917377435e+02 1.0000000000000000e+00 2.6804773897650044e+01 1.5750967854315631e+01 9.3757914049166402e+00 
405 7 1 9.9960049560162367e-01 -1.0812253774145146e+01 1.0000000000000000e+00 2.7294784709308292e+01 1.5744937486645110e+01 9.7314708639203129e+00 
18 1 2 2.9332951927272615e+00 -1.0878850996671017e+02 1.0000000000000000e+00 2.3016770909475440e+01 1.7158647895297403e+01 8.7398383945349316e+00 
611 11 1 9.9549760003291032e-01 -3.3676631884391163e+01 1.0000000000000000e+00 2.4625658983485820e+01 1.6523854703806752e+01 1.1028493356024937e+01 
2260 38 1 9.7900000000002463e-01 -1.2282687071876670e+02 1.0000000000000000e+00 5.6417541818084587e+00 2.3907757206287556e+01 1.0871859832705491e+01 
2256 38 1 9.7900000000000220e-01 -1.1656325693386557e+02 1.0000000000000000e+00 5.6405480149759955e+00 2.3910503265893276e+01 1.0869957956123759e+01 
984 19 1 9.7899999999995402e-01 -1.1167281837175398e+02 1.0000000000000000e+00 5.6407852477959484e+00 2.3909971641519508e+01 1.0870436146754956e+01 
2427 41 1 9.7900000000002585e-01 -1.0305342365365232e+02 1.0000000000000000e+00 5.6403614110886595e+00 2.3910913028122902e+01 1.0869497836156006e+01 
977 19 1 9.7899999999998610e-01 -1.2219802344403415e+02 1.0000000000000000e+00 7.9095471400746149e+00 2.3855217346870184e+01 1.0829583617870441e+01 
1316 24 1 9.7899999999997278e-01 -1.5872277800766054e+02 1.0000000000000000e+00 7.9095949789468660e+00 2.3855361870861081e+01 1.0829597304549685e+01 
2579 43 1 9.7899999999999276e-01 -1.3640013393500908e+01 1.0000000000000000e+00 7.9098148081507826e+00 2.3856067928438939e+01 1.0829312267881186e+01 
1428 25 1 9.7899999999997878e-01 -9.4514416549960941e+01 1.0000000000000000e+00 7.9099268111900383e+00 2.3856435835935738e+01 1.0829113147804479e+01 
1594 28 1 9.7900000000002996e-01 -1.4082904985360398e+02 1.0000000000000000e+00 1.0187387568859585e+01 2.2391908859150526e+01 1.1293706619301332e+01 
1446 25 1 9.7899999999997389e-01 -1.4526320071242321e+02 1.0000000000000000e+00 1.0187377449229812e+01 2.2391869636313967e+01 1.1293734537603658e+01 
1762 30 1 9.7899999999997600e-01 -1.3167480626438629e+02 1.0000000000000000e+00 1.0187410534239282e+01 2.2391871258737382e+01 1.1293910775608762e+01 
581 10 1 9.7899999999999188e-01 -1.1688251293999959e+02 1.0000000000000000e+00 1.0188460455971684e+01 2.2399006600550685e+01 1.1282098843625899e+01 
1310 24 1 9.7899999999999388e-01 -1.2602798830271054e+02 1.0000000000000000e+00 1.1305781308362993e+01 2.1894967402230726e+01 1.0946191826508134e+01 
1776 30 1 9.7899999999996334e-01 -1.5243250175783119e+01 1.0000000000000000e+00 6.7391933677048552e+00 2.5671292053233199e+01 1.0712207983608849e+01 
1442 25 1 9.7900000000002574e-01 -1.4262099042480804e+02 1.0000000000000000e+00 6.7066960159555302e+00 2.5629156725117994e+01 1.0710231810006690e+01 
1918 32 1 9.7899999999998133e-01 -1.4465108854820019e+02 1.0000000000000000e+00 7.1844307250220183e+00 2.7159319003091106e+01 1.0572958464575867e+01 
2261 38 1 9.7900000000001186e-01 -1.1668666394942085e+02 1.0000000000000000e+00 7.0409852602700500e+00 2.7209884811294025e+01 1.0570257039692557e+01 
2573 43 1 9.7899999999994880e-01 -8.8198208939481049e+01 1.0000000000000000e+00 7.0303480437443735e+00 2.7210513272966494e+01 1.0567702256887072e+01 
706 11 1 9.7899999999999843e-01 -1.4240403639275868e+02 1.0000000000000000e+00 7.0622222068160285e+00 2.7207329636383204e+01 1.0573350950662427e+01 
1930 32 1 9.7899999999999621e-01 -1.1474301698851096e+02 1.0000000000000000e+00 1.8606032492893139e+01 2.7114356917402084e+01 9.5459151269534921e+00 
970 19 1 9.7900000000000398e-01 -1.4555806284030226e+02 1.0000000000000000e+00 1.8580579404433010e+01 2.7058367813555897e+01 9.5971431580813995e+00 
1150 22 1 9.7899999999999388e-01 -1.6986732429334970e+02 1.0000000000000000e+00 1.8351586146242244e+01 2.6740737666409082e+01 9.4699411460063381e+00 
1143 22 1 9.7899999999998677e-01 -9.4034797704155309e+01 1.0000000000000000e+00 1.8549992376370056e+01 2.6830798621458815e+01 9.1007984615909194e+00 
580 10 1 9.7899999999997322e-01 -1.6251837474105872e+02 1.0000000000000000e+00 1.8518776160403942e+01 2.6890884384802593e+01 9.0845208313419583e+00 
3707 64 1 9.7899999999999143e-01 -8.4663645178274834e+01 1.0000000000000000e+00 2.8998668540394821e+01 2.9310018941359775e+01 1.1159192406299539e+01 
2800 48 1 9.7899999999996934e-01 -1.6071531038626355e+02 1.0000000000000000e+00 2.8980602143011406e+01 2.9302896067164358e+01 1.1164144856406510e+01 
1933 32 1 9.7899999999998610e-01 -1.2157098798714792e+02 1.0000000000000000e+00 2.9142917711094238e+01 2.9632466923587078e+01 1.1140438049829662e+01 
3970 66 1 9.7899999999997089e-01 -2.2731789115881654e+01 1.0000000000000000e+00 2.8744318146462295e+01 2.9752955229291125e+01 1.1412771113730999e+01 
2058 33 1 9.7899999999999665e-01 -2.3036651310194119e+02 1.0000000000000000e+00 2.8730096953500169e+01 2.9739009578265563e+01 1.1415978281881573e+01 
162 2 1 9.7899999999997511e-01 -1.5265143402621672e+02 1.0000000000000000e+00 8.7678054682593185e+00 3.1596030149894956e+00 1.2541358789587468e+01 
156 2 1 9.7899999999996890e-01 -1.2660068163673900e+02 1.0000000000000000e+00 8.7635661731921566e+00 3.1605327044719465e+00 1.2531564045764947e+01 
4 0 1 9.7900000000000731e-01 -1.8022347074714133e+02 1.0000000000000000e+00 8.7613575483871404e+00 3.1607114576495015e+00 1.2526241235394991e+01 
13 0 1 9.7899999999998977e-01 -1.5642379296348622e+02 1.0000000000000000e+00 9.8869637909601327e+00 3.1288326808927689e+00 1.2051015396850163e+01 
14 0 1 9.7900000000002119e-01 -1.6888669381494560e+02 1.0000000000000000e+00 9.8905838800390455e+00 3.1195230239607570e+00 1.2060288542245615e+01 
169 2 1 9.7900000000002418e-01 -1.0517996700770415e+02 1.0000000000000000e+00 9.8857403376919866e+00 3.1204507487923427e+00 1.2048777331395202e+01 
450 8 1 9.9017617633137400e-01 -8.4014108577970006e+01 1.0000000000000000e+00 1.3746517783580540e+01 7.2976519263747859e+00 1.3820095001582477e+01 
69 1 1 9.9110734136921608e-01 -3.7733118498250747e+01 1.0000000000000000e+00 1.5683101292502906e+01 8.6010949495647022e+00 1.4082724521387425e+01 
400 7 1 9.7899999999997445e-01 -1.6740938131678911e+02 1.0000000000000000e+00 2.5936778528724588e+01 1.0626486831386657e+01 1.2829661190561604e+01 
1193 22 1 9.7900000000001874e-01 -8.7786182588347359e+01 1.0000000000000000e+00 2.6137092003807336e+01 1.0814774359736560e+01 1.2808088991519371e+01 
1309 24 1 9.7900000000000453e-01 -1.7540494780903418e+02 1.0000000000000000e+00 2.5756959009357992e+01 1.0857907903358470e+01 1.3210624352477968e+01 
258 4 1 9.7899999999997001e-01 -1.0882083140796250e+02 1.0000000000000000e+00 2.5758167282532028e+01 1.0853754807654260e+01 1.3212219326939602e+01 
813 14 1 9.7900000000001486e-01 -1.4861863677754997e+02 1.0000000000000000e+00 2.6152993930011210e+01 1.1018802162936481e+01 1.2993781222004811e+01 
1650 29 1 9.7900000000001230e-01 -1.1813554671579188e+02 1.0000000000000000e+00 2.6543671228718580e+01 1.8007664043000226e+01 1.4077294847165961e+01 
1817 31 1 9.7899999999986698e-01 -9.0549929593300050e+01 1.0000000000000000e+00 2.6508953163551652e+01 1.9012573059047014e+01 1.3521427849926331e+01 
1831 31 1 9.7899999999994336e-01 -6.2869913965610969e+01 1.0000000000000000e+00 2.6486266443409420e+01 1.8998751407547942e+01 1.3503972621767458e+01 
1955 32 1 9.7900000000001808e-01 -5.5749857753317489e-01 1.0000000000000000e+00 2.6496853527305170e+01 1.9006256902784333e+01 1.3520566907752990e+01 
1947 32 1 9.7899999999995879e-01 -1.5337296090316539e+01 1.0000000000000000e+00 2.7424436488617062e+01 1.7699563749141987e+01 1.3414571569970088e+01 
1793 30 1 9.7899999999994824e-01 -1.3979953002220682e+02 1.0000000000000000e+00 2.7405824572502485e+01 1.7686661550629456e+01 1.3402366224338611e+01 
2145 35 1 9.7900000000007104e-01 -5.3015086084490960e+01 1.0000000000000000e+00 2.7447121278240655e+01 1.7718084138701311e+01 1.3427521045378221e+01 
1303 24 1 9.7899999999995968e-01 -1.4774353594889192e+02 1.0000000000000000e+00 1.2486811898747304e+01 2.1236102363222297e+01 1.1784859047155509e+01 
1766 30 1 9.7900000000004039e-01 -1.1383331333517411e+02 1.0000000000000000e+00 1.2486805678349224e+01 2.1236093962191546e+01 1.1784862782833901e+01 
582 10 1 9.7899999999999321e-01 -1.1982172887559615e+02 1.0000000000000000e+00 1.2486808314184072e+01 2.1236093779290812e+01 1.1784856515967679e+01 
2428 41 1 9.7900000000003684e-01 -1.1333747704894057e+02 1.0000000000000000e+00 1.2486807223549066e+01 2.1236093987440025e+01 1.1784859274944933e+01 
1149 22 1 9.7900000000001763e-01 -1.4530413342696215e+02 1.0000000000000000e+00 1.4091294356565722e+01 2.0408335902300351e+01 1.2497905760078140e+01 
2265 38 1 9.7900000000001486e-01 -2.3011014579750565e+01 1.0000000000000000e+00 1.4885789796032812e+01 1.9999474288576032e+01 1.2858001013420882e+01 
1590 28 1 9.7899999999999265e-01 -7.1642981391482195e+01 1.0000000000000000e+00 1.4885743870043775e+01 1.9999492878103272e+01 1.2858123809192900e+01 
1171 22 1 9.7900000000001641e-01 -1.3148687358552658e+02 1.0000000000000000e+00 1.4885768613391189e+01 1.9999444721494164e+01 1.2858014194439525e+01 
1156 22 1 9.7899999999999376e-01 -1.5240446281224357e+02 1.0000000000000000e+00 1.4885868381710061e+01 1.9999590133719952e+01 1.2857958960147201e+01 
617 11 1 9.9017217714707484e-01 -1.9273226822576628e+01 1.0000000000000000e+00 1.0566289398042224e+01 5.3442618140911913e+00 1.6979879415381738e+01 
1431 25 1 9.9169843392922974e-01 -1.6379555717887231e+02 1.0000000000000000e+00 1.2994160730012855e+01 4.1262756471339062e+00 1.5483375848983878e+01 
800 14 2 2.7194814765484474e+00 -5.5654630132332574e+00 1.0000000000000000e+00 1.3261662691152310e+01 4.6965788898298282e+00 1.5675179995708913e+01 
1170 22 1 9.9465407255954719e-01 -1.2601964002145127e+02 1.0000000000000000e+00 1.5800215725567380e+01 4.9658378950559419e+00 1.6737236558995541e+01 
6 0 1 9.9547467667428602e-01 -9.9010331107515015e+01 1.0000000000000000e+00 1.4406110416526069e+01 4.1573206256263928e+00 1.7119956150475524e+01 
1040 21 1 9.9669004546471218e-01 -1.0071657829555961e+02 1.0000000000000000e+00 1.1840992136655737e+01 6.0264698432663160e+00 1.5312797286815483e+01 
801 14 2 2.6569824123491763e+00 -4.9881743011687935e-01 1.0000000000000000e+00 1.2379525528229205e+01 6.4836303650708240e+00 1.5843349703530977e+01 
414 7 1 9.9576118858348917e-01 -5.3980434648284898e+01 1.0000000000000000e+00 1.2580922370482018e+01 7.9142109937621354e+00 1.5059397810515875e+01 
799 14 2 2.7371406401159550e+00 -7.0356365885332139e+01 1.0000000000000000e+00 1.3655131369746037e+01 7.2396052876295895e+00 1.4501212730807850e+01 
811 14 1 1.0054588565267455e+00 -2.0764566348533563e+01 1.0000000000000000e+00 1.4055330538569912e+01 5.8920235522655959e+00 1.5486597244122590e+01 
791 14 2 2.8360720217311277e+00 -3.6891137135573800e+01 1.0000000000000000e+00 1.4917931339209971e+01 7.7243206074836781e+00 1.5974436167975695e+01 
790 14 2 2.7065772285202860e+00 -4.7053815071373544e+00 1.0000000000000000e+00 1.5800068502133076e+01 5.9372691322426832e+00 1.5806266460153630e+01 
454 8 1 9.9311769739818490e-01 -7.6133837020821232e+01 1.0000000000000000e+00 1.6115101617882353e+01 5.6971355979918110e+00 1.5081624889617562e+01 
443 8 2 2.9664528966970232e+00 -5.1270465488238422e+01 1.0000000000000000e+00 1.6030778355441040e+01 7.6980560580031394e+00 1.6304395402440857e+01 
442 8 2 2.7385483133594248e+00 5.4698256918434174e+00 1.0000000000000000e+00 1.7696584586465971e+01 6.7432700134280914e+00 1.5744508619454107e+01 
635 11 1 9.9153658573277259e-01 -1.6669799020063483e+01 1.0000000000000000e+00 1.7831573716394200e+01 6.3681465312455980e+00 1.5087598725791443e+01 
1388 25 1 9.9512418297631289e-01 -2.3938747676196211e+01 1.0000000000000000e+00 1.8153058241344191e+01 6.5753994676112111e+00 1.6852344410702685e+01 
439 8 2 2.6847055785305192e+00 7.3331835760592057e+00 1.0000000000000000e+00 1.8801729149382766e+01 8.1221020362999230e+00 1.6681246441770799e+01 
211 3 1 9.9534013289063683e-01 -8.5947994010965175e+01 1.0000000000000000e+00 1.9499893408185816e+01 7.6211257647536286e+00 1.6389419438457661e+01 
625 11 1 9.8978714470817331e-01 -3.1415907797921662e+01 1.0000000000000000e+00 1.0982066525837304e+01 8.6427540732068344e+00 1.5744961766806181e+01 
802 14 2 2.7378892051491381e+00 1.9164622161932130e+00 1.0000000000000000e+00 1.1497388365306101e+01 8.2706818403118199e+00 1.6011519411353042e+01 
792 14 2 2.9282242220286512e+00 -6.1176858510232400e+01 1.0000000000000000e+00 1.4035794176286865e+01 9.5113720827246748e+00 1.6142605875797759e+01 
444 8 2 2.9370295777857214e+00 -2.7788482004154986e+01 1.0000000000000000e+00 1.4364972124416113e+01 8.6528421025781892e+00 1.6864282185427605e+01 
249 4 2 2.8977765570105571e+00 -4.8697778852757295e+01 1.0000000000000000e+00 1.4571745412686319e+01 1.0384955209105087e+01 1.6912419540093968e+01 
646 11 1 9.9772677805640930e-01 -1.7254673126612093e+02 1.0000000000000000e+00 1.6141726047480176e+01 1.0479634096634829e+01 1.4857356377550564e+01 
449 8 2 2.7381416147303788e+00 -1.7444752500926788e+00 1.0000000000000000e+00 1.6091975542745431e+01 8.7876458256624659e+00 1.4628373611867080e+01 
447 8 2 2.6560118849594607e+00 -6.1495321825293594e+00 1.0000000000000000e+00 1.7197120105662222e+01 1.0166477848534299e+01 1.5565111434183773e+01 
221 3 1 9.9716011023267737e-01 -1.5230775011043599e+02 1.0000000000000000e+00 1.7449772085078447e+01 8.7551856815457434e+00 1.4711247929286309e+01 
446 8 2 2.7524590251810874e+00 -6.3196726712483958e+01 1.0000000000000000e+00 1.8862926336687153e+01 9.2116918039592495e+00 1.5005224651197024e+01 
397 7 1 9.8878703710514726e-01 -1.6044608508878608e+02 1.0000000000000000e+00 1.9268236540322150e+01 9.2264603434459556e+00 1.4405486243855005e+01 
68 1 1 9.9479917978886512e-01 -2.4542611491980349e+01 1.0000000000000000e+00 1.9778839876868243e+01 9.3087700362138399e+00 1.6226184244017588e+01 
448 8 2 2.7545883898745775e+00 -1.8748250176253524e+02 1.0000000000000000e+00 1.5531313874637293e+01 1.1121263893109347e+01 1.6124998217170521e+01 