LAMMPS data file via write_data, version 30 Jul 2016, timestep = 100000000

3637 atoms
8 atom types

0.0000000000000000e+00 6.0000000000000000e+01 xlo xhi
0.0000000000000000e+00 6.0000000000000000e+01 ylo yhi
0.0000000000000000e+00 6.0000000000000000e+01 zlo zhi

Masses

1 3.896
2 8.3
3 4.31
4 28.378
5 28.378
6 28.378
7 28.378
8 28.378

Atoms # meso-molecular

2257 38 1 9.7899999999382403e-01 -1.3251646953806946e+02 1.0000000000000000e+00 1.2074740790549855e+01 2.0518002669455253e+01 2.7794159977265611e+00 
2272 38 1 9.7899999999379006e-01 -1.6871643113107740e+02 1.0000000000000000e+00 1.2074759289791277e+01 2.0517978094835609e+01 2.7794387072885840e+00 
2580 43 1 9.7899999999321174e-01 -3.3279704205758200e+01 1.0000000000000000e+00 1.2074365071005241e+01 2.0518170020076155e+01 2.7791828002822152e+00 
2456 41 1 9.7899999999565046e-01 -3.9704709244141839e+01 1.0000000000000000e+00 1.2154062690790562e+01 2.0643127995480281e+01 2.7693455224708914e+00 
758 13 1 8.2468295249091128e-01 -1.4279818425705278e+02 1.0000000000000000e+00 7.7779621247530004e+00 2.4117819571374227e+01 5.5255917196458570e-01 
1157 22 1 8.2468295249091128e-01 -1.1962072735067144e+02 1.0000000000000000e+00 7.7779621247530217e+00 2.4117819571374309e+01 5.5255917196458604e-01 
2422 41 1 8.2468295249091128e-01 -1.2548899494603731e+02 1.0000000000000000e+00 7.7779621247530075e+00 2.4117819571374245e+01 5.5255917196458548e-01 
757 13 1 8.2468295249091128e-01 -1.7898122988094838e+02 1.0000000000000000e+00 7.7779621247530306e+00 2.4117819571374277e+01 5.5255917196458759e-01 
2754 47 1 9.9536894355104444e-01 -2.4219946404920229e+01 1.0000000000000000e+00 1.3478726843517407e+01 2.9900773115015735e+01 1.8733363483644758e+00 
3340 59 2 2.6645989286608835e+00 -9.5446409197837827e+00 1.0000000000000000e+00 1.3685387013687400e+01 2.9691210634000896e+01 2.3927572342189052e+00 
2769 47 1 9.9946651075143789e-01 -3.7990979265905125e+01 1.0000000000000000e+00 1.5574629257149500e+01 2.8792683462172779e+01 2.0766913076162714e+00 
3339 59 2 2.6123157117307567e+00 -5.4995571160999344e+00 1.0000000000000000e+00 1.5564564273785688e+01 2.9134182828770033e+01 2.7907683513113581e+00 
36 1 2 2.7105316337985381e+00 -2.1863179625470983e+02 1.0000000000000000e+00 2.1926034722128488e+01 1.2792296983172873e+01 5.3127890090503307e+00 
410 7 1 9.9198618371104419e-01 -4.5777801301155620e+01 1.0000000000000000e+00 2.1997179317971330e+01 1.2559273059009573e+01 4.7394225254103803e+00 
585 10 1 9.8968815140858257e-01 -1.7718543630312800e+02 1.0000000000000000e+00 2.1006577476558476e+01 1.5271766451267997e+01 3.8799910415490340e+00 
31 1 2 2.7430325801187161e+00 7.3827154936317754e+01 1.0000000000000000e+00 2.1257913954954081e+01 1.5420978443208641e+01 4.5105119857382450e+00 
43 1 1 9.9759813648690498e-01 -3.8229582376764306e+01 1.0000000000000000e+00 2.0627252944132870e+01 1.5852839656064457e+01 5.5328277738917455e+00 
165 2 1 9.9829954848695246e-01 -1.3606034551338166e+02 1.0000000000000000e+00 2.0293685147550619e+01 1.3831990384518841e+01 5.5684236476870064e+00 
35 1 2 2.6928782324364282e+00 -2.8584948603916638e+02 1.0000000000000000e+00 2.3970367508353171e+01 1.4632007266095128e+01 4.6523576847803962e+00 
387 7 1 9.9310698907694439e-01 -8.8025271821296869e+01 1.0000000000000000e+00 2.4323231718056618e+01 1.4444228689607419e+01 4.1004875646287706e+00 
15 0 1 1.0002239387826042e+00 -1.0381165074064059e+02 1.0000000000000000e+00 2.3237724303667125e+01 1.5668436634212046e+01 4.2001908690866481e+00 
28 1 2 2.6228274475498052e+00 1.8103526965165631e+01 1.0000000000000000e+00 2.2886860449527962e+01 1.6118119662716367e+01 5.4381581671451098e+00 
567 10 1 9.9989098074802485e-01 -1.5507667624215492e+02 1.0000000000000000e+00 2.2761639915410921e+01 1.6874560869101472e+01 4.8762509649075279e+00 
1595 28 1 9.7900000000534815e-01 -1.2193185888007535e+02 1.0000000000000000e+00 1.1733360116048155e+01 2.1069953886254496e+01 3.7420022774303270e+00 
2279 38 1 9.7900000000654719e-01 -3.1262294700257232e+01 1.0000000000000000e+00 1.1302179396185926e+01 2.1478766618845473e+01 4.5358769363342875e+00 
1821 31 1 9.7899999999528975e-01 -6.7348043678026215e+01 1.0000000000000000e+00 1.0952492327576298e+01 2.1872862265088845e+01 5.5565268805937729e+00 
1304 24 1 9.7899999999510579e-01 -1.3968619665948202e+02 1.0000000000000000e+00 1.0953755487958196e+01 2.2025725766299193e+01 5.4901143508063948e+00 
1298 24 1 9.7899999999486287e-01 -1.3521325214310147e+02 1.0000000000000000e+00 1.0970806790544357e+01 2.2018327368758435e+01 5.5033842745134374e+00 
998 19 1 9.7899999999368670e-01 -1.3029182112167220e+02 1.0000000000000000e+00 1.0948695229623892e+01 2.1930890320987313e+01 5.5433408337630716e+00 
3267 56 1 9.9523346281801728e-01 -8.8296676218121888e+01 1.0000000000000000e+00 1.5054166811255712e+01 2.6819472090546252e+01 3.3034256923097525e+00 
2426 41 1 9.9522074590826626e-01 -1.2317816437220536e+02 1.0000000000000000e+00 1.6853609494305761e+01 2.7032181832020029e+01 5.6530311416158217e+00 
3350 59 2 2.6632933959723473e+00 -2.7484351949383190e-01 1.0000000000000000e+00 1.2855789802792650e+01 2.8686187822842221e+01 4.9030754643894072e+00 
3016 54 1 9.9576805370091137e-01 -2.3042421658811218e+01 1.0000000000000000e+00 1.2362229508732089e+01 2.8572097573438761e+01 5.2085127800834456e+00 
3347 59 2 2.6645360382723098e+00 -5.4868028321354714e+01 1.0000000000000000e+00 1.4900188967735753e+01 2.7369790961592798e+01 3.4582462848416635e+00 
3639 62 1 1.0259791143226864e+00 -1.3502818854970988e+02 1.0000000000000000e+00 1.4041002624870110e+01 2.8748194364723393e+01 3.7407116096151576e+00 
3342 59 2 2.3294590050431911e+00 -1.1666035650495294e+01 1.0000000000000000e+00 1.5399342368940871e+01 2.9893551884788593e+01 4.6336086479515561e+00 
3349 59 2 2.6121837502203995e+00 -2.8883808702286029e+01 1.0000000000000000e+00 1.4734967062890936e+01 2.8129160017611358e+01 5.3010865814818606e+00 
3525 62 1 9.9965276167589623e-01 -2.9096805701919710e+01 1.0000000000000000e+00 1.4470470978783798e+01 2.7443473693937889e+01 5.5714550431988581e+00 
3842 65 1 9.9392586966806862e-01 -3.3300615681152777e+01 1.0000000000000000e+00 1.7736447562233860e+01 2.8089082009218181e+01 3.0085531950915803e+00 
3338 59 2 2.6776515132575973e+00 8.7074333903282275e-01 1.0000000000000000e+00 1.7443741533883976e+01 2.8577155023539170e+01 3.1887794684038120e+00 
3341 59 2 2.6123246376243223e+00 -3.0668753915472443e+01 1.0000000000000000e+00 1.7278519629039160e+01 2.9336524079557734e+01 5.0316197650440095e+00 
3517 62 1 9.9947425228189724e-01 -5.6112558084377781e+01 1.0000000000000000e+00 1.7996504551212791e+01 2.9078638122493881e+01 5.2434105620597302e+00 
3348 59 2 2.6647241444031464e+00 -6.4091245592948056e+01 1.0000000000000000e+00 1.6614144322989223e+01 2.7572132212380499e+01 5.6990976985743140e+00 
1145 22 1 9.9850948962942965e-01 -1.5603409242642920e+02 1.0000000000000000e+00 2.1487832396643793e+01 1.2414635505181153e+01 6.6117535082799588e+00 
166 2 1 9.8995096732806176e-01 -7.2129469497706097e+01 1.0000000000000000e+00 2.0110299604141925e+01 1.2667437088185054e+01 8.0660581850875648e+00 
29 1 2 2.7454286439584386e+00 -7.1567297230513915e+01 1.0000000000000000e+00 2.0427141371652478e+01 1.3135840316379586e+01 7.6866669970918435e+00 
181 3 2 2.9196146284377607e+00 -1.0196714739021944e+02 1.0000000000000000e+00 2.4473452910653549e+01 1.3292140833756903e+01 5.8374141514375610e+00 
33 1 2 2.8821643807035766e+00 -9.1130813681083339e+01 1.0000000000000000e+00 2.3139594925051572e+01 1.2346869139266072e+01 7.8285126961339948e+00 
34 1 2 3.0507572727417425e+00 -1.4098458140716636e+02 1.0000000000000000e+00 2.3554981216702373e+01 1.3489438202680601e+01 6.2404351904571955e+00 
188 3 2 2.8262736956233274e+00 -9.6491917567238712e+00 1.0000000000000000e+00 2.4003922354943651e+01 1.1892322178002013e+01 8.2498918794705727e+00 
191 3 2 2.6379784847560903e+00 -1.1419864972324869e+02 1.0000000000000000e+00 2.2026422084543473e+01 1.3629768702310029e+01 7.2151106196203436e+00 
180 3 2 2.6899454175998949e+00 -1.5918135177281383e+02 1.0000000000000000e+00 2.5433283637446568e+01 1.3122475236985160e+01 7.5838214811221558e+00 
417 7 1 9.8965452739778503e-01 -9.1061411044152507e+01 1.0000000000000000e+00 1.9211144579494494e+01 1.6132308211616714e+01 7.0573890088538329e+00 
30 1 2 2.6502758942300093e+00 -7.1661592377645560e+00 1.0000000000000000e+00 2.0842527663303279e+01 1.4278409379794113e+01 6.0985894914150443e+00 
171 2 1 9.9734429027606941e-01 -1.1714529853024662e+02 1.0000000000000000e+00 2.0026471217032235e+01 1.4501141603964275e+01 7.5207656659218856e+00 
22 1 2 2.7451467966886565e+00 1.1844347850232325e+01 1.0000000000000000e+00 1.9759020604478071e+01 1.5764521776415354e+01 6.8843899737797578e+00 
27 1 2 2.9908401957460820e+00 -5.2315806943651275e+01 1.0000000000000000e+00 2.2471474157877161e+01 1.4975550599301840e+01 7.0262356728219091e+00 
184 3 2 2.9205701378025783e+00 -8.9528533482577316e+01 1.0000000000000000e+00 2.3455783367046390e+01 1.4859921761293176e+01 6.5490402212719259e+00 
24 1 2 2.9524842424343238e+00 -9.5455315236364896e+01 1.0000000000000000e+00 2.4100420652451046e+01 1.5672691818809568e+01 7.9538818542287739e+00 
183 3 2 3.0070336633041683e+00 -1.2546067575555014e+02 1.0000000000000000e+00 2.4415614093839409e+01 1.4690256164521433e+01 8.2954475509565206e+00 
172 2 1 9.9728900443306767e-01 -4.1027602008803427e+01 1.0000000000000000e+00 2.7067220107397787e+01 1.3725087263927854e+01 6.6711433707153578e+00 
177 3 2 3.0494217817885878e+00 -2.9402171745495639e+02 1.0000000000000000e+00 2.4885144649549311e+01 1.6090074820276325e+01 5.8829698229235081e+00 
32 1 2 2.8049161263005717e+00 -2.0327391450164700e+02 1.0000000000000000e+00 2.5183927711276255e+01 1.4186579422188329e+01 7.1680813718640604e+00 
174 3 2 2.6752394704975528e+00 -2.2221919764117504e+02 1.0000000000000000e+00 2.6862644919949485e+01 1.4352628295968309e+01 6.9177510827737372e+00 
42 1 1 1.0022242730248392e+00 -1.3682116501885110e+02 1.0000000000000000e+00 2.6836337152089023e+01 1.5772090830843847e+01 7.1566337172152323e+00 
176 3 2 2.6033232436685516e+00 -1.4453023581316975e+01 1.0000000000000000e+00 2.5844975376342326e+01 1.5920409223504581e+01 7.6293771526081029e+00 
20 1 2 2.7844377754488905e+00 -9.3498406908328235e+01 1.0000000000000000e+00 2.1387967099051952e+01 1.6461662995923081e+01 7.8120361551866218e+00 
41 1 1 9.9154458869771922e-01 -1.2181431300348810e+02 1.0000000000000000e+00 2.1135772880821012e+01 1.7655501655691332e+01 7.4092687799599144e+00 
21 1 2 2.7392617985688577e+00 -5.5678828920609639e+01 1.0000000000000000e+00 2.1803353390702753e+01 1.7604232059337608e+01 6.2239586495098225e+00 
51 1 1 9.9211020643842096e-01 -1.4782243737035219e+02 1.0000000000000000e+00 2.2001011168439728e+01 1.8285656275897548e+01 6.1111516094329819e+00 
187 3 2 2.7975198175918088e+00 -2.1128610484916098e+02 1.0000000000000000e+00 2.2438113823439235e+01 1.6427702688829449e+01 7.2606662911062916e+00 
25 1 2 3.0494108001711004e+00 -2.9398873436581937e+02 1.0000000000000000e+00 2.4515806944101847e+01 1.6815260882224095e+01 6.3658043485519737e+00 
178 3 2 2.6585702362951849e+00 -1.5838380918215346e+01 1.0000000000000000e+00 2.4827305832735171e+01 1.7488190151040854e+01 8.3410032224424686e+00 
627 11 1 9.9549969353479795e-01 -1.9329240628828981e+02 1.0000000000000000e+00 2.4910052197165349e+01 1.8113766402345576e+01 8.3920461344588091e+00 
3 0 1 1.0045165859457168e+00 -8.8405704667692703e+01 1.0000000000000000e+00 2.6256854817532400e+01 1.6935424673629488e+01 8.2215941271627777e+00 
982 19 1 9.7899999999998233e-01 -1.4532088360855195e+02 1.0000000000000000e+00 4.7922170013181518e+00 2.0279956361421995e+01 6.8857710939131520e+00 
606 11 1 9.7900000000000076e-01 -1.3903424167178292e+02 1.0000000000000000e+00 4.4199470629758952e+00 2.0469523474096075e+01 7.2200086966151273e+00 
573 10 1 9.7899999999999676e-01 -1.3539044600036513e+02 1.0000000000000000e+00 4.4302700367124173e+00 2.0479330434050212e+01 7.2191726744782638e+00 
732 12 1 9.7900000000000842e-01 -1.2765202039652637e+02 1.0000000000000000e+00 4.4257848627198273e+00 2.0076329789322561e+01 7.0377227632190484e+00 
705 11 1 9.7899999999999843e-01 -1.5399746662012805e+02 1.0000000000000000e+00 4.7636043611533108e+00 2.0258259135099959e+01 6.8559458879610666e+00 
1767 30 1 9.7900000000000276e-01 -1.1714561966602302e+02 1.0000000000000000e+00 1.5812051979712074e+01 2.2255115075030659e+01 7.9206750136272390e+00 
1929 32 1 9.7899999999999743e-01 -1.2238485954426515e+02 1.0000000000000000e+00 1.5974932310848818e+01 2.2319076236830167e+01 7.7877366636825860e+00 
983 19 1 9.7900000000001741e-01 -1.0207177773852544e+02 1.0000000000000000e+00 1.5587949242648442e+01 2.2053742720211197e+01 7.4945711711602394e+00 
1602 28 1 9.7899999999999587e-01 -9.3174476088242059e+01 1.0000000000000000e+00 1.5528437962761725e+01 2.2285987204547069e+01 7.5609477079544263e+00 
733 12 1 9.7899999999999221e-01 -1.0196914424475870e+02 1.0000000000000000e+00 1.5943176530940045e+01 2.2028221623857984e+01 7.5132816012005170e+00 
3301 57 1 9.9573417955230503e-01 -4.1477929713427734e+01 1.0000000000000000e+00 1.4135804649725999e+01 2.8825206091780903e+01 7.5401453388021960e+00 
3351 59 2 2.6632719612511915e+00 -3.0058938785869405e+01 1.0000000000000000e+00 1.4569745158046119e+01 2.8888529073629918e+01 7.1439268781220582e+00 
3496 62 1 1.0258408176411924e+00 -1.5043795518942426e+02 1.0000000000000000e+00 1.5993392346493170e+01 2.8978266999900306e+01 6.2958699504339632e+00 
1600 28 1 9.9556912975392209e-01 -1.1394308251029433e+02 1.0000000000000000e+00 2.3968671330159108e+01 1.2737230005442980e+01 1.0923550602503036e+01 
189 3 2 2.6872788455231738e+00 -6.8291348670716490e+00 1.0000000000000000e+00 2.3946083538129511e+01 1.3290437508766543e+01 1.0707925278989533e+01 
190 3 2 3.0215311594517038e+00 -2.7350737547142279e+02 1.0000000000000000e+00 2.2986252811336492e+01 1.3460103105538286e+01 8.9615179493049393e+00 
401 7 1 1.0033273819912611e+00 -1.5414052078157607e+02 1.0000000000000000e+00 2.6559887299252736e+01 1.2448807834468752e+01 9.1691861235050336e+00 
179 3 2 2.6207896857417370e+00 3.8209956808363373e+01 1.0000000000000000e+00 2.6393114364239587e+01 1.2952809640213417e+01 9.3302288108067497e+00 
1482 25 1 9.7899999999999998e-01 -1.2487142853318969e+02 1.0000000000000000e+00 2.9632870187457751e+01 1.3444032341684386e+01 1.0781783646751784e+01 
426 7 1 9.7900000000001364e-01 -1.4808813732555359e+02 1.0000000000000000e+00 2.9632931736006377e+01 1.3445523628439782e+01 1.0784894441807470e+01 
1148 22 1 9.7900000000000875e-01 -1.5336179548904138e+02 1.0000000000000000e+00 2.9633049387782545e+01 1.3447693889548505e+01 1.0789349255858674e+01 
19 1 2 2.8137582827973322e+00 -5.6400270626325074e+01 1.0000000000000000e+00 2.0972580807401151e+01 1.5319093932508554e+01 9.4001136608634219e+00 
192 3 2 2.8578953623376737e+00 -2.0296050195877851e+02 1.0000000000000000e+00 2.1968583267729333e+01 1.5027884033074558e+01 9.6731440191393041e+00 
26 1 2 3.0123959704112986e+00 -1.9233840280714452e+02 1.0000000000000000e+00 2.2056087866226363e+01 1.3832981535887313e+01 8.6143131784987084e+00 
23 1 2 2.6256605181133916e+00 -8.0085937495031629e+01 1.0000000000000000e+00 2.3685034360800245e+01 1.4530122755395041e+01 9.5419593599055723e+00 
167 2 1 1.0029347870263172e+00 -1.1167458495327580e+01 1.0000000000000000e+00 2.3692376246321309e+01 1.4754417434613821e+01 1.0981324689729991e+01 
185 3 2 2.6778211511240766e+00 5.7115246850751539e+01 1.0000000000000000e+00 2.4357775277025269e+01 1.6088371495285962e+01 1.0753480950475481e+01 
186 3 2 3.0750361127373380e+00 -2.0107262913568042e+02 1.0000000000000000e+00 2.3397944550232250e+01 1.6258037092057705e+01 9.0070736207908855e+00 
182 3 2 2.5578923584944939e+00 1.5316788143904343e+01 1.0000000000000000e+00 2.5375444820632428e+01 1.4520590567749689e+01 1.0041854880641115e+01 
427 7 1 1.0084299969069648e+00 -1.5509356818393911e+02 1.0000000000000000e+00 2.5963509487501963e+01 1.4288523279687270e+01 1.0545923478379539e+01 
175 3 2 2.6451038448741726e+00 -1.9249342546232089e+02 1.0000000000000000e+00 2.6804806103135345e+01 1.5750743626732838e+01 9.3757844822926977e+00 
405 7 1 9.9956944282564064e-01 -1.0810507309507877e+01 1.0000000000000000e+00 2.7294943597158522e+01 1.5744457530169822e+01 9.7320589659482017e+00 
18 1 2 2.9332525721435694e+00 -1.0836085489482655e+02 1.0000000000000000e+00 2.3016913593625837e+01 1.7158804215430809e+01 8.7396823365934857e+00 
611 11 1 9.9550962280186928e-01 -3.3678689140612697e+01 1.0000000000000000e+00 2.4626464410102813e+01 1.6523107096147367e+01 1.1028919191855135e+01 
2260 38 1 9.7900000000001075e-01 -1.2282687071876670e+02 1.0000000000000000e+00 5.6417541818084649e+00 2.3907757206287556e+01 1.0871859832705491e+01 
2256 38 1 9.7900000000000875e-01 -1.1656325693386557e+02 1.0000000000000000e+00 5.6405480149760683e+00 2.3910503265893276e+01 1.0869957956123759e+01 
984 19 1 9.7899999999999532e-01 -1.1167281837175398e+02 1.0000000000000000e+00 5.6407852477961340e+00 2.3909971641519508e+01 1.0870436146754956e+01 
2427 41 1 9.7899999999999687e-01 -1.0305342365365232e+02 1.0000000000000000e+00 5.6403614110886160e+00 2.3910913028122902e+01 1.0869497836156006e+01 
977 19 1 9.7900000000000476e-01 -1.2219802344403415e+02 1.0000000000000000e+00 7.9095471400745581e+00 2.3855217346870184e+01 1.0829583617870441e+01 
1316 24 1 9.7900000000000487e-01 -1.5872277800766054e+02 1.0000000000000000e+00 7.9095949789467541e+00 2.3855361870861081e+01 1.0829597304549685e+01 
2579 43 1 9.7900000000000487e-01 -1.3640013393500908e+01 1.0000000000000000e+00 7.9098148081507533e+00 2.3856067928438939e+01 1.0829312267881186e+01 
1428 25 1 9.7900000000001208e-01 -9.4514416549960941e+01 1.0000000000000000e+00 7.9099268111899201e+00 2.3856435835935738e+01 1.0829113147804479e+01 
1594 28 1 9.7899999999998788e-01 -1.4082904985360398e+02 1.0000000000000000e+00 1.0187387568859053e+01 2.2391908859150526e+01 1.1293706619301332e+01 
1446 25 1 9.7900000000000353e-01 -1.4526320071242321e+02 1.0000000000000000e+00 1.0187377449229812e+01 2.2391869636313967e+01 1.1293734537603658e+01 
1762 30 1 9.7900000000000575e-01 -1.3167480626438629e+02 1.0000000000000000e+00 1.0187410534239282e+01 2.2391871258737382e+01 1.1293910775608762e+01 
581 10 1 9.7899999999996712e-01 -1.1688251293999959e+02 1.0000000000000000e+00 1.0188460455971276e+01 2.2399006600550685e+01 1.1282098843625899e+01 
1310 24 1 9.7900000000000009e-01 -1.2602798830271054e+02 1.0000000000000000e+00 1.1305781308362787e+01 2.1894967402230726e+01 1.0946191826508286e+01 
1776 30 1 9.7899999999999210e-01 -1.5243250175783119e+01 1.0000000000000000e+00 6.7391933677053570e+00 2.5671292053233437e+01 1.0712207983608849e+01 
1442 25 1 9.7899999999997656e-01 -1.4262099042480804e+02 1.0000000000000000e+00 6.7066960159551554e+00 2.5629156725118214e+01 1.0710231810006690e+01 
1918 32 1 9.7899999999997644e-01 -1.4465108854820019e+02 1.0000000000000000e+00 7.1844307250224801e+00 2.7159319003091106e+01 1.0572958464575867e+01 
2261 38 1 9.7900000000007148e-01 -1.1668666394942085e+02 1.0000000000000000e+00 7.0409852602700500e+00 2.7209884811293939e+01 1.0570257039692557e+01 
2573 43 1 9.7900000000005216e-01 -8.8198208939481049e+01 1.0000000000000000e+00 7.0303480437443735e+00 2.7210513272966207e+01 1.0567702256887072e+01 
706 11 1 9.7899999999995735e-01 -1.4240403639275868e+02 1.0000000000000000e+00 7.0622222068160285e+00 2.7207329636383594e+01 1.0573350950662427e+01 
1930 32 1 9.7899999999999621e-01 -1.1474301698851096e+02 1.0000000000000000e+00 1.8606032492893139e+01 2.7114356917402084e+01 9.5459151269534921e+00 
970 19 1 9.7900000000000409e-01 -1.4555806284030226e+02 1.0000000000000000e+00 1.8580579404433010e+01 2.7058367813555897e+01 9.5971431580813995e+00 
1150 22 1 9.7899999999999399e-01 -1.6986732429334970e+02 1.0000000000000000e+00 1.8351586146242244e+01 2.6740737666409082e+01 9.4699411460063381e+00 
1143 22 1 9.7899999999998677e-01 -9.4034797704155309e+01 1.0000000000000000e+00 1.8549992376370056e+01 2.6830798621458815e+01 9.1007984615909194e+00 
580 10 1 9.7899999999997345e-01 -1.6251837474105872e+02 1.0000000000000000e+00 1.8518776160403942e+01 2.6890884384802593e+01 9.0845208313419583e+00 
3707 64 1 9.7899999999999110e-01 -8.4663645178274834e+01 1.0000000000000000e+00 2.8998668540394821e+01 2.9310018941359775e+01 1.1159192406299539e+01 
2800 48 1 9.7900000000002785e-01 -1.6071531038626355e+02 1.0000000000000000e+00 2.8980602143011406e+01 2.9302896067164358e+01 1.1164144856407463e+01 
1933 32 1 9.7899999999998344e-01 -1.2157098798714792e+02 1.0000000000000000e+00 2.9142917711094238e+01 2.9632466923587078e+01 1.1140438049829662e+01 
3970 66 1 9.7900000000001353e-01 -2.2731789115881654e+01 1.0000000000000000e+00 2.8744318146462295e+01 2.9752955229291125e+01 1.1412771113730999e+01 
2058 33 1 9.7900000000004028e-01 -2.3036651310194119e+02 1.0000000000000000e+00 2.8730096953500169e+01 2.9739009578265563e+01 1.1415978281881573e+01 
162 2 1 9.7899999999999299e-01 -1.5265143402621672e+02 1.0000000000000000e+00 8.7678054682593185e+00 3.1596030149894956e+00 1.2541358789587468e+01 
156 2 1 9.7899999999995946e-01 -1.2660068163673900e+02 1.0000000000000000e+00 8.7635661731920695e+00 3.1605327044719465e+00 1.2531564045764947e+01 
4 0 1 9.7899999999997178e-01 -1.8022347074714133e+02 1.0000000000000000e+00 8.7613575483869699e+00 3.1607114576495015e+00 1.2526241235394991e+01 
13 0 1 9.7900000000001663e-01 -1.5642379296348622e+02 1.0000000000000000e+00 9.8869637909599604e+00 3.1288326808927689e+00 1.2051015396850163e+01 
14 0 1 9.7899999999999399e-01 -1.6888669381494560e+02 1.0000000000000000e+00 9.8905838800390455e+00 3.1195230239607570e+00 1.2060288542245615e+01 
169 2 1 9.7899999999999754e-01 -1.0517996700770415e+02 1.0000000000000000e+00 9.8857403376919866e+00 3.1204507487923427e+00 1.2048777331395202e+01 
450 8 1 9.9017768883612933e-01 -8.4013192827519859e+01 1.0000000000000000e+00 1.3746340474425498e+01 7.2974858268231024e+00 1.3819934218208898e+01 
69 1 1 9.9110830213235668e-01 -3.7734217994553042e+01 1.0000000000000000e+00 1.5683174990384845e+01 8.6010553734445381e+00 1.4082638272828023e+01 
400 7 1 9.7900000000001963e-01 -1.6740938131678911e+02 1.0000000000000000e+00 2.5936778528724588e+01 1.0626486831386657e+01 1.2829661190562033e+01 
1193 22 1 9.7899999999996845e-01 -8.7786182588347359e+01 1.0000000000000000e+00 2.6137092003807336e+01 1.0814774359736560e+01 1.2808088991518957e+01 
1309 24 1 9.7899999999999621e-01 -1.7540494780903418e+02 1.0000000000000000e+00 2.5756959009357992e+01 1.0857907903358470e+01 1.3210624352477968e+01 
258 4 1 9.7900000000000431e-01 -1.0882083140796250e+02 1.0000000000000000e+00 2.5758167282532028e+01 1.0853754807654260e+01 1.3212219326939273e+01 
813 14 1 9.7899999999997289e-01 -1.4861863677754997e+02 1.0000000000000000e+00 2.6152993930011210e+01 1.1018802162936893e+01 1.2993781222004811e+01 
1650 29 1 9.7899999999985898e-01 -1.1813554671579188e+02 1.0000000000000000e+00 2.6543671228718580e+01 1.8007664043000226e+01 1.4077294847166195e+01 
1817 31 1 9.7899999999997300e-01 -9.0549929593300050e+01 1.0000000000000000e+00 2.6508953163551652e+01 1.9012573059046662e+01 1.3521427849926331e+01 
1831 31 1 9.7899999999995335e-01 -6.2869913965610969e+01 1.0000000000000000e+00 2.6486266443409420e+01 1.8998751407547843e+01 1.3503972621767458e+01 
1955 32 1 9.7899999999999454e-01 -5.5749857753317489e-01 1.0000000000000000e+00 2.6496853527305170e+01 1.9006256902784333e+01 1.3520566907752990e+01 
1947 32 1 9.7899999999997545e-01 -1.5337296090316539e+01 1.0000000000000000e+00 2.7424436488617062e+01 1.7699563749141987e+01 1.3414571569970088e+01 
1793 30 1 9.7899999999995824e-01 -1.3979953002220682e+02 1.0000000000000000e+00 2.7405824572502485e+01 1.7686661550629456e+01 1.3402366224338611e+01 
2145 35 1 9.7899999999992682e-01 -5.3015086084490960e+01 1.0000000000000000e+00 2.7447121278242289e+01 1.7718084138702388e+01 1.3427521045378221e+01 
1303 24 1 9.7900000000001619e-01 -1.4774353594889192e+02 1.0000000000000000e+00 1.2486811898746105e+01 2.1236102363222297e+01 1.1784859047155509e+01 
1766 30 1 9.7900000000001031e-01 -1.1383331333517411e+02 1.0000000000000000e+00 1.2486805678349224e+01 2.1236093962191546e+01 1.1784862782833901e+01 
582 10 1 9.7899999999996323e-01 -1.1982172887559615e+02 1.0000000000000000e+00 1.2486808314184072e+01 2.1236093779290812e+01 1.1784856515967679e+01 
2428 41 1 9.7899999999994769e-01 -1.1333747704894057e+02 1.0000000000000000e+00 1.2486807223549889e+01 2.1236093987440025e+01 1.1784859274944933e+01 
1149 22 1 9.7899999999999099e-01 -1.4530413342696215e+02 1.0000000000000000e+00 1.4091294356565722e+01 2.0408335902300351e+01 1.2497905760078140e+01 
2265 38 1 9.7900000000001208e-01 -2.3011014579750565e+01 1.0000000000000000e+00 1.4885789796032812e+01 1.9999474288576032e+01 1.2858001013420882e+01 
1590 28 1 9.7899999999998977e-01 -7.1642981391482195e+01 1.0000000000000000e+00 1.4885743870043775e+01 1.9999492878103272e+01 1.2858123809192900e+01 
1171 22 1 9.7900000000001342e-01 -1.3148687358552658e+02 1.0000000000000000e+00 1.4885768613391189e+01 1.9999444721494164e+01 1.2858014194439525e+01 
1156 22 1 9.7899999999999066e-01 -1.5240446281224357e+02 1.0000000000000000e+00 1.4885868381710061e+01 1.9999590133719952e+01 1.2857958960147201e+01 
617 11 1 9.9017452692706109e-01 -1.9272408164405356e+01 1.0000000000000000e+00 1.0566486578602728e+01 5.3438824998817003e+00 1.6979831003795333e+01 
1431 25 1 9.9166892785860361e-01 -1.6379349347691976e+02 1.0000000000000000e+00 1.2994120700837653e+01 4.1258822142792972e+00 1.5483110498250999e+01 
800 14 2 2.7197667521175686e+00 -5.5630287297787424e+00 1.0000000000000000e+00 1.3261748807388765e+01 4.6964099233278329e+00 1.5675060502906357e+01 
1170 22 1 9.9466517388075526e-01 -1.2602200793788636e+02 1.0000000000000000e+00 1.5801463316903947e+01 4.9669059704750094e+00 1.6736527198481188e+01 
6 0 1 9.9549506965757362e-01 -9.9010252078819860e+01 1.0000000000000000e+00 1.4404826627352691e+01 4.1569106633549584e+00 1.7120153130094895e+01 
1040 21 1 9.9668658085084150e-01 -1.0071538759750412e+02 1.0000000000000000e+00 1.1841573131962710e+01 6.0256976337296742e+00 1.5312381254996833e+01 
801 14 2 2.6569866287907531e+00 -4.9757726808931463e-01 1.0000000000000000e+00 1.2379615910854083e+01 6.4834660841344292e+00 1.5843202796736682e+01 
414 7 1 9.9576299252877087e-01 -5.3980533883767443e+01 1.0000000000000000e+00 1.2580978735053387e+01 7.9139243133889208e+00 1.5059128877465474e+01 
799 14 2 2.7371285164837151e+00 -7.0355013362769299e+01 1.0000000000000000e+00 1.3655271216641610e+01 7.2394356666516835e+00 1.4501109830089131e+01 
811 14 1 1.0054433024332936e+00 -2.0762620038825126e+01 1.0000000000000000e+00 1.4054737225728886e+01 5.8910369691380842e+00 1.5485941477279200e+01 
791 14 2 2.8360401680664626e+00 -3.6871438543521002e+01 1.0000000000000000e+00 1.4918024198688162e+01 7.7241420400695286e+00 1.5974376485484774e+01 
790 14 2 2.7067889135673338e+00 -4.7010845642604053e+00 1.0000000000000000e+00 1.5800157095222845e+01 5.9370858792629324e+00 1.5806234191654450e+01 
454 8 1 9.9310461454647680e-01 -7.6135895555584696e+01 1.0000000000000000e+00 1.6115221236561922e+01 5.6966447024775695e+00 1.5081576790955085e+01 
443 8 2 2.9665561430451488e+00 -5.1161613049931475e+01 1.0000000000000000e+00 1.6030795487473181e+01 7.6979592572410862e+00 1.6304344031959900e+01 
442 8 2 2.7385046195340732e+00 5.4701881177655798e+00 1.0000000000000000e+00 1.7696630632313635e+01 6.7432376292217491e+00 1.5744433429089677e+01 
635 11 1 9.9153658255367727e-01 -1.6669741701141504e+01 1.0000000000000000e+00 1.7831444664362753e+01 6.3678911287965745e+00 1.5087593570760058e+01 
1388 25 1 9.9512756100107091e-01 -2.3938379395182405e+01 1.0000000000000000e+00 1.8152896866376555e+01 6.5754595767082833e+00 1.6852434207228907e+01 
439 8 2 2.6846981037699225e+00 7.3341126683943560e+00 1.0000000000000000e+00 1.8801734702585627e+01 8.1221022731286165e+00 1.6681171005816402e+01 
211 3 1 9.9533981638328928e-01 -8.5947516066229113e+01 1.0000000000000000e+00 1.9499954014955208e+01 7.6211818731141756e+00 1.6389504709653863e+01 
625 11 1 9.8979050013233028e-01 -3.1415351813692617e+01 1.0000000000000000e+00 1.0982070780818169e+01 8.6424966655511923e+00 1.5744949599511711e+01 
802 14 2 2.7378492509740608e+00 1.9177623852769032e+00 1.0000000000000000e+00 1.1497483014319400e+01 8.2705222449410236e+00 1.6011345090567005e+01 
792 14 2 2.9282417073877638e+00 -6.1176318953398017e+01 1.0000000000000000e+00 1.4035891302153480e+01 9.5111982008761249e+00 1.6142518779315097e+01 
444 8 2 2.9370165514385760e+00 -2.7706199356379528e+01 1.0000000000000000e+00 1.4364960342632731e+01 8.6526808852604233e+00 1.6864254634830122e+01 
249 4 2 2.8978359675458982e+00 -4.8648076623428096e+01 1.0000000000000000e+00 1.4571695316098086e+01 1.0384820930854676e+01 1.6912370434464236e+01 
646 11 1 9.9772651426584968e-01 -1.7254578786008349e+02 1.0000000000000000e+00 1.6141556232346208e+01 1.0479637293528736e+01 1.4857425757955207e+01 
449 8 2 2.7381200146834925e+00 -1.7440378392940945e+00 1.0000000000000000e+00 1.6091936832589731e+01 8.7875641887532812e+00 1.4628330061510475e+01 
447 8 2 2.6559965346080592e+00 -6.1483265510365825e+00 1.0000000000000000e+00 1.7197040902861726e+01 1.0166428832660149e+01 1.5565067638237201e+01 
221 3 1 9.9716259631292847e-01 -1.5230919320663133e+02 1.0000000000000000e+00 1.7449800452181503e+01 8.7552107172916589e+00 1.4711190761829005e+01 
446 8 2 2.7524497803487029e+00 -6.3195982421291177e+01 1.0000000000000000e+00 1.8862876047702176e+01 9.2117072046408115e+00 1.5005157035366979e+01 
397 7 1 9.8879027230205474e-01 -1.6044548411676723e+02 1.0000000000000000e+00 1.9268232333562757e+01 9.2264961827558611e+00 1.4405464351253020e+01 
68 1 1 9.9480106839880467e-01 -2.4542530436189249e+01 1.0000000000000000e+00 1.9778873834711664e+01 9.3088095686240084e+00 1.6226239263009308e+01 
448 8 2 2.7546421735340765e+00 -1.8742339072852153e+02 1.0000000000000000e+00 1.5531205758021274e+01 1.1121150460679486e+01 1.6124978241107424e+01 