LAMMPS data file via write_data, version 30 Jul 2016, timestep = 50000000

4620 atoms
8 atom types

0.0000000000000000e+00 1.0000000000000000e+02 xlo xhi
0.0000000000000000e+00 4.0000000000000000e+01 ylo yhi
0.0000000000000000e+00 4.0000000000000000e+01 zlo zhi

Masses

1 3.896
2 5.36
3 20.064
4 8.378
5 8.378
6 8.378
7 8.378
8 8.378

Atoms # meso-molecular

120 121 2 1.2467813888044947e+00 -5.0584666888212859e-01 1.0000000000000000e+00 1.4391314672686220e+00 1.0000000000000000e+01 1.7138411774173987e+00 
372 373 2 1.2467813888044947e+00 -3.2513462535990802e+00 1.0000000000000000e+00 4.1047520715588828e+00 1.0000000000000000e+01 1.7185250222084194e+00 
716 717 2 1.2467813888044947e+00 -3.0263154426752288e+00 1.0000000000000000e+00 5.7914016626018041e+00 1.2199999999999999e+01 1.2423073246811422e+00 
178 179 2 1.2467813888044947e+00 -3.2265653999417712e+00 1.0000000000000000e+00 6.1651394576096905e+00 1.0000000000000000e+01 1.1950368615208724e+00 
121 122 2 1.2467813888044947e+00 -6.4148288950586574e-01 1.0000000000000000e+00 9.9143336125697257e+00 1.0000000000000000e+01 1.3087977965589109e-01 
628 629 2 1.2467813888044947e+00 -4.0962151409972867e+00 1.0000000000000000e+00 7.9839547966641531e+00 1.2199999999999999e+01 5.0270829665667982e-01 
165 166 2 1.2467813888044947e+00 -1.5124700191896117e+00 1.0000000000000000e+00 8.8525161618422761e+00 1.0000000000000000e+01 2.2758603246823270e+00 
564 565 2 1.2467813888044947e+00 -5.0930419465729866e+00 1.0000000000000000e+00 7.9602074440639825e+00 1.2199999999999999e+01 3.1517122376642632e+00 
765 766 2 1.2467813888044947e+00 -1.8311097662585913e+00 1.0000000000000000e+00 1.0417320271249162e+01 1.2199999999999999e+01 2.0584149387605694e-01 
143 144 2 1.2467813888044947e+00 -3.7487009982927910e+00 1.0000000000000000e+00 1.1389461391647977e+01 1.0000000000000000e+01 1.9663128901707574e+00 
546 547 2 1.2467813888044947e+00 5.2945341590847317e+00 1.0000000000000000e+00 1.1075028542372262e+01 1.2199999999999999e+01 2.2406673665874601e+00 
758 759 2 1.2467813888044947e+00 -1.5900578512135561e+00 1.0000000000000000e+00 1.3382379881454089e+01 1.2199999999999999e+01 2.8360780894121511e+00 
518 519 2 1.2467813888044947e+00 -3.8972542138697230e+00 1.0000000000000000e+00 1.5113073776177874e+01 1.2199999999999999e+01 9.3418077461179294e-01 
408 409 2 1.2467813888044947e+00 -2.1875846108871366e+00 1.0000000000000000e+00 1.8057490534607332e+01 1.0000000000000000e+01 9.3209590348124571e-01 
565 566 2 1.2467813888044947e+00 -1.9753713461998013e+00 1.0000000000000000e+00 1.7809099733791324e+01 1.2199999999999999e+01 1.7932313219890486e+00 
26 27 2 1.2467813888044947e+00 2.7257934516670410e+00 1.0000000000000000e+00 2.0767445518252710e+01 1.0000000000000000e+01 1.8551535356309454e+00 
175 176 2 1.2467813888044947e+00 -2.8188640544231012e+00 1.0000000000000000e+00 2.2605109370846559e+01 1.0000000000000000e+01 7.2277538267496722e-01 
673 674 2 1.2467813888044947e+00 5.9298489006838437e+00 1.0000000000000000e+00 2.0445603126485050e+01 1.2199999999999999e+01 1.8305707406948879e+00 
164 165 2 1.2467813888044947e+00 -2.8445853980179274e+00 1.0000000000000000e+00 2.2897282039664173e+01 1.0000000000000000e+01 2.8965565436163132e+00 
625 626 2 1.2467813888044947e+00 -1.1591326354585969e+00 1.0000000000000000e+00 2.5530281541147652e+01 1.2199999999999999e+01 1.9114160511218903e+00 
330 331 2 1.2467813888044947e+00 -2.8739561143410404e+00 1.0000000000000000e+00 2.5143932230738550e+01 1.0000000000000000e+01 1.3206813553414956e+00 
377 378 2 1.2467813888044947e+00 -5.6023365725124261e+00 1.0000000000000000e+00 2.7433625341276787e+01 1.0000000000000000e+01 2.3344765923739019e+00 
802 803 2 1.2467813888044947e+00 -3.4641555109099835e+00 1.0000000000000000e+00 2.8130893506218186e+01 1.2199999999999999e+01 2.0057930444746170e+00 
281 282 2 1.2467813888044947e+00 -4.0145358560312809e+00 1.0000000000000000e+00 2.9980901057258009e+01 1.0000000000000000e+01 3.1387708623135517e+00 
707 708 2 1.2467813888044947e+00 -3.2610745044443918e+00 1.0000000000000000e+00 3.0639715407745943e+01 1.2199999999999999e+01 1.4607110345995458e+00 
734 735 2 1.2467813888044947e+00 -2.9153071109811211e+00 1.0000000000000000e+00 3.2858795846316205e+01 1.2199999999999999e+01 1.0305555775414137e+00 
290 291 2 1.2467813888044947e+00 -3.5796428803763209e+00 1.0000000000000000e+00 3.3302924311576035e+01 1.0000000000000000e+01 7.1318445488783044e-01 
1337 1338 2 1.2467813888044947e+00 -1.1288456472045518e+00 1.0000000000000000e+00 1.9398274003563896e+00 1.4400000000000000e+01 3.8293833419996859e-01 
1700 1701 2 1.2467813888044947e+00 -3.6783797758757215e+00 1.0000000000000000e+00 9.8076725837756051e-01 1.6600000000000001e+01 6.1084810661160960e-01 
1694 1695 2 1.2467813888044947e+00 -3.5367356135189114e+00 1.0000000000000000e+00 4.8553373489632365e+00 1.6600000000000001e+01 3.2146725660276587e+00 
1130 1131 2 1.2467813888044947e+00 -3.4482978697375661e+00 1.0000000000000000e+00 7.0831607242601047e+00 1.4400000000000000e+01 2.2611967341498098e+00 
1696 1697 2 1.2467813888044947e+00 -3.7596585497194583e+00 1.0000000000000000e+00 7.3245624089068073e+00 1.6600000000000001e+01 2.7679424301610922e+00 
1545 1546 2 1.2467813888044947e+00 -3.9629367349851172e+00 1.0000000000000000e+00 9.1860093954221664e+00 1.6600000000000001e+01 1.1940224305357534e+00 
925 926 2 1.2467813888044947e+00 1.2645188857457597e+01 1.0000000000000000e+00 1.0241489500096240e+01 1.4400000000000000e+01 2.0934980576745112e+00 
1836 1837 2 1.2467813888044947e+00 5.5665520573402780e+00 1.0000000000000000e+00 1.1378094960162622e+01 1.6600000000000001e+01 2.8209749686452001e+00 
1066 1067 2 1.2467813888044947e+00 -3.0455805122328652e+00 1.0000000000000000e+00 1.2133096869454516e+01 1.4400000000000000e+01 9.7750736116493919e-01 
1415 1416 2 1.2467813891349282e+00 6.1977334551817780e+00 1.0000000000000000e+00 1.3908717876572293e+01 1.6600000000000001e+01 8.9023721860952698e-01 
1317 1318 2 1.2467813888044947e+00 -3.7409004451354155e+00 1.0000000000000000e+00 1.5782607686133639e+01 1.4400000000000000e+01 2.4607450560320170e+00 
1550 1551 2 1.2467813888044947e+00 -2.7894288714262494e+00 1.0000000000000000e+00 1.6155342265861712e+01 1.6600000000000001e+01 3.0661113543727798e+00 
1304 1305 2 1.2467813888044947e+00 -4.1617935994227695e+00 1.0000000000000000e+00 1.7945821502426423e+01 1.4400000000000000e+01 2.9811933186901816e+00 
1393 1394 2 1.2467817763075075e+00 5.6623737595199177e+00 1.0000000000000000e+00 1.9275674943678943e+01 1.6600000000000001e+01 2.3884785171031599e+00 
1160 1161 2 1.2467813888044947e+00 -2.5401548016656861e-01 1.0000000000000000e+00 1.8423144252205432e+01 1.4400000000000000e+01 3.0264542029466263e-01 
1601 1602 2 1.2467817763075075e+00 -3.0802316216275929e+00 1.0000000000000000e+00 2.1258491080511842e+01 1.6600000000000001e+01 1.7800961446652153e+00 
1008 1009 2 1.2467813888044947e+00 5.0485163132298361e+00 1.0000000000000000e+00 2.2412404523229700e+01 1.4400000000000000e+01 2.4295961114927440e+00 
1638 1639 2 1.2467813888044947e+00 6.4160296100338812e+00 1.0000000000000000e+00 2.4242051836673262e+01 1.6600000000000001e+01 2.7217263999383712e+00 
1044 1045 2 1.2467813888044947e+00 -4.9099890878266605e-01 1.0000000000000000e+00 2.5831862918853229e+01 1.4400000000000000e+01 3.3587088993103725e-01 
1743 1744 2 1.2467828237035012e+00 -4.1963469882121025e+00 1.0000000000000000e+00 2.6681369382856268e+01 1.6600000000000001e+01 2.3914594444226061e+00 
936 937 2 1.2467813888044947e+00 4.0972941761513830e+00 1.0000000000000000e+00 2.6735137321382162e+01 1.4400000000000000e+01 2.8995943595579083e+00 
1748 1749 2 1.2467828237035012e+00 -1.0419455181425814e+00 1.0000000000000000e+00 2.8526143595098123e+01 1.6600000000000001e+01 1.4642637916730388e+00 
1240 1241 2 1.2467813888044947e+00 -3.9945178547820941e+00 1.0000000000000000e+00 2.9268860363589720e+01 1.4400000000000000e+01 1.6906048792156296e+00 
1780 1781 2 1.2467813888044947e+00 -4.1834369854303146e+00 1.0000000000000000e+00 3.1434307927461106e+01 1.6600000000000001e+01 1.9391541926324696e-01 
1612 1613 2 1.2467813888044947e+00 1.9584341544244896e+00 1.0000000000000000e+00 3.2598868065205970e+01 1.6600000000000001e+01 2.9023529773620527e+00 
2094 2095 2 1.2467813888044947e+00 -1.1017178517427506e+00 1.0000000000000000e+00 5.2287428188470413e+00 1.8800000000000001e+01 2.8185544504563032e+00 
1911 1912 2 1.2467813888044947e+00 -7.3964267275751738e-01 1.0000000000000000e+00 7.1285705144664941e+00 1.8800000000000001e+01 9.3938769821306223e-01 
1925 1926 2 1.2467813888044947e+00 -4.2333344671969346e+00 1.0000000000000000e+00 9.5893425687714302e+00 1.8800000000000001e+01 7.9268333386641920e-01 
2234 2235 2 1.2467813920935986e+00 -1.5693354626416596e+00 1.0000000000000000e+00 8.3185949430603916e+00 1.8800000000000001e+01 2.8799277601721358e+00 
2211 2212 2 1.2467827624624779e+00 -2.3451358672226674e+00 1.0000000000000000e+00 1.1890788451742381e+01 1.8800000000000001e+01 1.3031758302571581e+00 
2309 2310 2 1.2467827657515815e+00 5.4361194677387950e+00 1.0000000000000000e+00 1.0405858963719748e+01 1.8800000000000001e+01 2.7397958510356486e+00 
1949 1950 2 1.2467813888044947e+00 -1.9913531807304210e+00 1.0000000000000000e+00 1.8730945718303108e+01 1.8800000000000001e+01 1.4567214950365774e+00 
2188 2189 2 1.2467813888044947e+00 -3.4722325502547200e+00 1.0000000000000000e+00 2.3460648239853679e+01 1.8800000000000001e+01 2.6323593976787202e-01 
2158 2159 2 1.2467813888044947e+00 -2.8582503455930315e+00 1.0000000000000000e+00 2.5459214241606908e+01 1.8800000000000001e+01 1.9886323526732246e+00 
1983 1984 2 1.2467813888044947e+00 -2.4323043367183668e+00 1.0000000000000000e+00 2.7641971139917533e+01 1.8800000000000001e+01 1.4694493115390059e+00 
2250 2251 2 1.2467813888044947e+00 -4.9248970662249185e+00 1.0000000000000000e+00 3.2331741721457355e+01 1.8800000000000001e+01 5.1307499226106235e-01 
2163 2164 2 1.2467813888044947e+00 -2.4213007349224562e+00 1.0000000000000000e+00 3.2269911983820641e+01 1.8800000000000001e+01 2.8292216460904753e+00 
1889 1890 2 1.2467813888044947e+00 4.8460021815240104e+00 1.0000000000000000e+00 3.0043133581731389e+01 1.8800000000000001e+01 2.8555333321762516e-01 
721 722 2 1.2467813888044947e+00 -2.7356003776603188e+00 1.0000000000000000e+00 2.0181978467530732e+00 1.2199999999999999e+01 4.0321100800142178e+00 
101 102 2 1.2467813888044947e+00 -7.9009242361202459e-01 1.0000000000000000e+00 2.3368947140844121e+00 1.0000000000000000e+01 4.2757512108515492e+00 
71 72 2 1.2467842909249787e+00 -2.7857216679915773e+00 1.0000000000000000e+00 2.1863754319549547e-01 1.0000000000000000e+01 6.4255075862011344e+00 
809 810 2 1.2467813888044947e+00 -3.1621531996307071e+00 1.0000000000000000e+00 2.9314250121765717e-01 1.2199999999999999e+01 5.2372631777495418e+00 
418 419 2 1.2467813888044947e+00 -2.0129235994543890e+00 1.0000000000000000e+00 5.2863169077767331e+00 1.0000000000000000e+01 3.8493679472499363e+00 
818 819 2 1.2467813888044947e+00 -3.4423530714548889e+00 1.0000000000000000e+00 5.9023482168531229e+00 1.2199999999999999e+01 4.3731523640382903e+00 
343 344 2 1.2467813888044947e+00 -2.1174505771382885e+00 1.0000000000000000e+00 4.7396229719151739e+00 1.0000000000000000e+01 6.5076508019695360e+00 
860 861 2 1.2467813888044947e+00 -1.8185226127054199e+00 1.0000000000000000e+00 1.1556346889818958e+01 1.2199999999999999e+01 4.7211770267345514e+00 
186 187 2 1.2467813888044947e+00 -3.0020821605692345e+00 1.0000000000000000e+00 1.1381981742403497e+01 1.0000000000000000e+01 5.5411545642934525e+00 
611 612 2 1.2467813888044947e+00 -2.8494634151983247e+00 1.0000000000000000e+00 1.5826890844332519e+01 1.2199999999999999e+01 3.3658390789118862e+00 
437 438 2 1.2467813888044947e+00 4.2841111638145488e+00 1.0000000000000000e+00 1.4498550837065716e+01 1.0000000000000000e+01 6.2379335888934122e+00 
683 684 2 1.2467813888044947e+00 -1.6007390763050120e+00 1.0000000000000000e+00 1.6160091149294708e+01 1.2199999999999999e+01 6.0051947462801225e+00 
52 53 2 1.2467813888044947e+00 -1.2286983034824204e+00 1.0000000000000000e+00 1.7450697318953427e+01 1.0000000000000000e+01 6.1159482102344631e+00 
629 630 2 1.2467813888044947e+00 -2.0941835332037386e+00 1.0000000000000000e+00 1.8561251856209235e+01 1.2199999999999999e+01 5.2110635569582122e+00 
27 28 2 1.2467813888044947e+00 3.7146439108972609e+00 1.0000000000000000e+00 1.7139117850928894e+01 1.0000000000000000e+01 3.5431547080503645e+00 
840 841 2 1.2467813888044947e+00 4.2147549814771068e+00 1.0000000000000000e+00 2.1665183530624581e+01 1.2199999999999999e+01 5.0561891676893813e+00 
245 246 2 1.2467813888044947e+00 -3.8335471385724933e+00 1.0000000000000000e+00 2.1777573652761497e+01 1.0000000000000000e+01 5.3349872786844807e+00 
334 335 2 1.2467813888044947e+00 -4.1456830146590340e+00 1.0000000000000000e+00 2.0038024562274355e+01 1.0000000000000000e+01 6.6607994017493173e+00 
690 691 2 1.2467813888044947e+00 2.2831555825450476e+00 1.0000000000000000e+00 2.5383078701109529e+01 1.2199999999999999e+01 4.5840765760233193e+00 
305 306 2 1.2467813888044947e+00 -1.8297168139921820e+00 1.0000000000000000e+00 2.4233428304056353e+01 1.0000000000000000e+01 5.2899435106528170e+00 
431 432 2 1.2467813888044947e+00 4.6418979976100712e+00 1.0000000000000000e+00 2.7253772126982337e+01 1.0000000000000000e+01 5.1702722060141708e+00 
116 117 2 1.2467813888044947e+00 -2.7293233220351425e+00 1.0000000000000000e+00 2.9715055985813546e+01 1.0000000000000000e+01 6.3192398571030370e+00 
466 467 2 1.2467813888044947e+00 4.0349411004835929e+00 1.0000000000000000e+00 2.9000174979287550e+01 1.2199999999999999e+01 3.9188278690613427e+00 
865 866 2 1.2467813888044947e+00 -4.5386774162888397e+00 1.0000000000000000e+00 2.7419097879736007e+01 1.2199999999999999e+01 6.2855957074581728e+00 
832 833 2 1.2467813888044947e+00 -1.5817594213986579e+00 1.0000000000000000e+00 3.3309391346029081e+01 1.2199999999999999e+01 6.4833803683807627e+00 
681 682 2 1.2467813888044947e+00 -2.6860148294775650e+00 1.0000000000000000e+00 3.1346418459369104e+01 1.2199999999999999e+01 4.2262185476489744e+00 
370 371 2 1.2467813888044947e+00 -1.9737133728842680e+00 1.0000000000000000e+00 3.1594812196880856e+01 1.0000000000000000e+01 4.6167189356371079e+00 
1037 1038 2 1.2467813888044947e+00 -3.1204006566586098e+00 1.0000000000000000e+00 3.1330900324295694e+00 1.4400000000000000e+01 3.8181246342907342e+00 
1219 1220 2 1.2467831553031741e+00 3.0435985099855234e+00 1.0000000000000000e+00 4.3008688696586772e-01 1.4400000000000000e+01 4.6806869320854450e+00 
1489 1490 2 1.2467813888044947e+00 -2.1067531332571141e+00 1.0000000000000000e+00 2.7978568566332171e+00 1.6600000000000001e+01 5.9043477164056961e+00 
996 997 2 1.2467813888044947e+00 -3.2331849980795848e+00 1.0000000000000000e+00 1.7017620281629846e+00 1.4400000000000000e+01 6.4564778816898771e+00 
1566 1567 2 1.2467814796979115e+00 -2.3961826867233551e+00 1.0000000000000000e+00 5.5076226533304395e-01 1.6600000000000001e+01 5.0886434198680259e+00 
1828 1829 2 1.2467813888044947e+00 6.0387623069188976e+00 1.0000000000000000e+00 5.1606524755587140e+00 1.6600000000000001e+01 5.3073712439066050e+00 
1707 1708 2 1.2467813888044947e+00 -4.9940309601758477e+00 1.0000000000000000e+00 9.2822351750326035e+00 1.6600000000000001e+01 3.6799534767127580e+00 
1710 1711 2 1.2467813888044947e+00 -3.8736127744968396e+00 1.0000000000000000e+00 7.0491495008430007e+00 1.6600000000000001e+01 6.4344206527475709e+00 
956 957 2 1.2467813888044947e+00 5.7532754272032474e+00 1.0000000000000000e+00 7.1075679395901590e+00 1.4400000000000000e+01 4.8989583435470081e+00 
1767 1768 2 1.2467813888044947e+00 -5.6738660963268259e+00 1.0000000000000000e+00 9.4302174979747591e+00 1.6600000000000001e+01 5.9006722590830289e+00 
957 958 2 1.2467813888044947e+00 4.1395767921351538e+00 1.0000000000000000e+00 8.3038433154062385e+00 1.4400000000000000e+01 6.6498086198591251e+00 
1289 1290 2 1.2467813888044947e+00 -3.2813854479232845e+00 1.0000000000000000e+00 1.1033939147103951e+01 1.4400000000000000e+01 4.6954510581060607e+00 
1207 1208 2 1.2467813888044947e+00 -4.7466702184832386e+00 1.0000000000000000e+00 1.3333084445112503e+01 1.4400000000000000e+01 4.2527683243108392e+00 
1779 1780 2 1.2467813888044947e+00 -3.9247523729349778e+00 1.0000000000000000e+00 1.5762644572131448e+01 1.6600000000000001e+01 5.1920540012504839e+00 
943 944 2 1.2467813888044947e+00 2.4118438311288681e+00 1.0000000000000000e+00 1.4814295822003064e+01 1.4400000000000000e+01 6.4394557818735700e+00 
1251 1252 2 1.2467813888044947e+00 -1.9061526328894907e+00 1.0000000000000000e+00 1.9689307787722885e+01 1.4400000000000000e+01 4.4908471976252047e+00 
1602 1603 2 1.2467813888044947e+00 3.8091118015663417e-01 1.0000000000000000e+00 2.0060221393277608e+01 1.6600000000000001e+01 4.4295700253305297e+00 
1737 1738 2 1.2467813888044947e+00 -1.3088948521571051e+00 1.0000000000000000e+00 2.2285660083554280e+01 1.6600000000000001e+01 4.2733728232456585e+00 
1274 1275 2 1.2467813888044947e+00 -2.0836485533263525e+00 1.0000000000000000e+00 2.2995606853803864e+01 1.4400000000000000e+01 6.0894719168533911e+00 
1837 1838 2 1.2467813888044947e+00 5.3503583758564996e+00 1.0000000000000000e+00 2.5570359977367790e+01 1.6600000000000001e+01 4.4910639081861490e+00 
1353 1354 2 1.2467813888044947e+00 5.2811247216209320e+00 1.0000000000000000e+00 2.4694906727950990e+01 1.4400000000000000e+01 4.5701780814994315e+00 
1417 1418 2 1.2467813888044947e+00 3.3140981989350431e+00 1.0000000000000000e+00 2.4415130225469255e+01 1.6600000000000001e+01 6.3042322453116597e+00 
1678 1679 2 1.2467813888044947e+00 -2.7101295594730859e+00 1.0000000000000000e+00 2.6599462286342369e+01 1.6600000000000001e+01 6.5102681331116141e+00 
1809 1810 2 1.2467813888044947e+00 6.6602182971277131e+00 1.0000000000000000e+00 2.8590220299748189e+01 1.6600000000000001e+01 3.7758325261490260e+00 
1328 1329 2 1.2467813888044947e+00 -2.2347044501488806e+00 1.0000000000000000e+00 2.8767226595226578e+01 1.4400000000000000e+01 5.2714550942521807e+00 
1025 1026 2 1.2467813888044947e+00 -6.0255336941725990e-01 1.0000000000000000e+00 3.1511851483907165e+01 1.4400000000000000e+01 3.3895432434595638e+00 
1787 1788 2 1.2467813888044947e+00 1.8147479579266874e+00 1.0000000000000000e+00 3.0427151010313228e+01 1.6600000000000001e+01 5.2363607110665056e+00 
1560 1561 2 1.2467813888044947e+00 -4.5015162356467930e-01 1.0000000000000000e+00 3.2697852126339818e+01 1.6600000000000001e+01 5.6717690066542028e+00 
2100 2101 2 1.2467813888044947e+00 6.2292966524336926e+00 1.0000000000000000e+00 2.5322827267595862e+00 1.8800000000000001e+01 6.3687818385644199e+00 
2210 2211 2 1.2467813888044947e+00 -3.3252516934973246e+00 1.0000000000000000e+00 7.7440042093978816e+00 1.8800000000000001e+01 5.7525223608927663e+00 
2192 2193 2 1.2467813888044947e+00 -3.3183292103327933e+00 1.0000000000000000e+00 1.2637734663246073e+01 1.8800000000000001e+01 4.3089604495984482e+00 
2171 2172 2 1.2467813888044947e+00 -1.5221553917155339e+00 1.0000000000000000e+00 1.6012945786365240e+01 1.8800000000000001e+01 5.1001022370079721e+00 
1966 1967 2 1.2467813888044947e+00 -2.0807711612565996e+00 1.0000000000000000e+00 1.8873690560067455e+01 1.8800000000000001e+01 4.8055970182966998e+00 
1916 1917 2 1.2467813888044947e+00 -3.2732667845588939e+00 1.0000000000000000e+00 2.2285758045002652e+01 1.8800000000000001e+01 4.8675893290103991e+00 
2048 2049 2 1.2467813888044947e+00 -3.0266118897746876e+00 1.0000000000000000e+00 2.4372015840791722e+01 1.8800000000000001e+01 3.8609380476514592e+00 
2175 2176 2 1.2467813888044947e+00 -1.7254980614068880e+00 1.0000000000000000e+00 2.6306449977608814e+01 1.8800000000000001e+01 5.9030081744765095e+00 
2264 2265 2 1.2467813888044947e+00 -2.6005101401406043e+00 1.0000000000000000e+00 2.6606199562492620e+01 1.8800000000000001e+01 3.8131689268037863e+00 
1943 1944 2 1.2467813888044947e+00 -1.9298267049356914e+00 1.0000000000000000e+00 3.0241019915630638e+01 1.8800000000000001e+01 3.3953808734536963e+00 
2012 2013 2 1.2467813888044947e+00 -4.0136978816111659e+00 1.0000000000000000e+00 3.0941927071875483e+01 1.8800000000000001e+01 5.8708212903230033e+00 
203 204 2 1.2467813888044947e+00 -1.8530022074977905e+00 1.0000000000000000e+00 1.8791693829260772e+00 1.0000000000000000e+01 7.9429693573026929e+00 
922 923 2 1.2467813884246144e+00 4.1884591387735863e+00 1.0000000000000000e+00 2.5306816167474939e+00 1.2199999999999999e+01 8.2219689813219805e+00 
468 469 2 1.2467813888044947e+00 6.4120538783784973e+00 1.0000000000000000e+00 6.3518165693185864e+00 1.2199999999999999e+01 6.8297734955424785e+00 
41 42 2 1.2467813888044947e+00 4.1915565644623314e+00 1.0000000000000000e+00 3.8829469777809602e+00 1.0000000000000000e+01 8.8105684952223804e+00 
500 501 2 1.2467813884246144e+00 3.0710809945087503e+00 1.0000000000000000e+00 4.5476795940947472e+00 1.2199999999999999e+01 8.7853002059449796e+00 
434 435 2 1.2467814046379471e+00 6.1270109593592155e+00 1.0000000000000000e+00 6.7913306306026202e+00 1.0000000000000000e+01 7.6382832555710012e+00 
74 75 2 1.2467816109917513e+00 -2.5367584032452277e+00 1.0000000000000000e+00 8.8798710586537588e+00 1.0000000000000000e+01 7.6657776927488390e+00 
497 498 2 1.2467813888044947e+00 5.5883327250953432e+00 1.0000000000000000e+00 8.5231017641259221e+00 1.2199999999999999e+01 7.1372700877487087e+00 
385 386 2 1.2467815952552737e+00 -2.8747015505342328e+00 1.0000000000000000e+00 7.8314519378167153e+00 1.0000000000000000e+01 9.4616901481945757e+00 
539 540 2 1.2467813888044947e+00 -3.9655380136344860e+00 1.0000000000000000e+00 1.2697600286879810e+01 1.2199999999999999e+01 8.4240694611161508e+00 
410 411 2 1.2467813888044947e+00 -3.5189797470015964e+00 1.0000000000000000e+00 1.2140789422797248e+01 1.0000000000000000e+01 8.1990877151034010e+00 
351 352 2 1.2467813888044947e+00 -9.1142414114240777e-01 1.0000000000000000e+00 1.4878043016471759e+01 1.0000000000000000e+01 9.7175090121337604e+00 
759 760 2 1.2467813888044947e+00 -4.0111765715788055e+00 1.0000000000000000e+00 1.5086508585628714e+01 1.2199999999999999e+01 7.9467631118594504e+00 
103 104 2 1.2467813888044947e+00 -1.7305108153548465e+00 1.0000000000000000e+00 1.9229548492465295e+01 1.0000000000000000e+01 9.3544572486814630e+00 
616 617 2 1.2467813888044947e+00 -2.4992499864577984e+00 1.0000000000000000e+00 1.9457912248553189e+01 1.2199999999999999e+01 7.4631301438803757e+00 
265 266 2 1.2467813888044947e+00 -1.9207945490588005e+00 1.0000000000000000e+00 2.1299341161398928e+01 1.0000000000000000e+01 9.7773946648745316e+00 
907 908 2 1.2467813888044947e+00 3.2161192221914696e+00 1.0000000000000000e+00 2.2336048960617930e+01 1.2199999999999999e+01 7.7845694698297034e+00 
40 41 2 1.2467813888044947e+00 2.2648249055381120e+00 1.0000000000000000e+00 2.4098764603198184e+01 1.0000000000000000e+01 7.6828086534353801e+00 
465 466 2 1.2467813888044947e+00 5.4183919550341990e+00 1.0000000000000000e+00 2.5462746461672541e+01 1.2199999999999999e+01 7.5799380740847715e+00 
200 201 2 1.2467813888676746e+00 -3.1156564771322688e+00 1.0000000000000000e+00 2.6723846425005796e+01 1.0000000000000000e+01 8.0568189226051103e+00 
37 38 2 1.2467813888676746e+00 3.8696302608093154e+00 1.0000000000000000e+00 2.8765414325299819e+01 1.0000000000000000e+01 8.5430141388530778e+00 
814 815 2 1.2467813888044947e+00 -2.4220627411031002e+00 1.0000000000000000e+00 2.7205287908091673e+01 1.2199999999999999e+01 9.6210896812631681e+00 
331 332 2 1.2467813888044947e+00 -2.9177825966764064e+00 1.0000000000000000e+00 3.1201935573235634e+01 1.0000000000000000e+01 8.6974665903954609e+00 
416 417 2 1.2467813888044947e+00 -3.3614894423608268e+00 1.0000000000000000e+00 3.3290928653783560e+01 1.0000000000000000e+01 9.7502260813683339e+00 
1735 1736 2 1.2467814796979115e+00 -4.7929727268519109e+00 1.0000000000000000e+00 8.6066977242662623e-01 1.6600000000000001e+01 7.1476604709196225e+00 
1175 1176 2 1.2467813888044947e+00 -2.8138093186947355e+00 1.0000000000000000e+00 2.1663755798684026e+00 1.4400000000000000e+01 8.5252734394659591e+00 
1831 1832 2 1.2467813888044947e+00 3.0851963638223232e+00 1.0000000000000000e+00 2.5665862330457174e+00 1.6600000000000001e+01 8.8630080121599306e+00 
1243 1244 2 1.2467813888044947e+00 -1.7334311287658339e+00 1.0000000000000000e+00 3.7493269989680340e+00 1.4400000000000000e+01 7.1147414087874168e+00 
1721 1722 2 1.2467813888044947e+00 -1.0373126959836552e+00 1.0000000000000000e+00 4.9092682554473566e+00 1.6600000000000001e+01 7.6058756885348782e+00 
1253 1254 2 1.2467813888044947e+00 -3.8226500274570263e+00 1.0000000000000000e+00 5.4116633473542244e+00 1.4400000000000000e+01 8.9732457821888651e+00 
1454 1455 2 1.2467813888044947e+00 -2.0641735639951340e+00 1.0000000000000000e+00 5.0783183698592245e+00 1.6600000000000001e+01 9.9624534495082564e+00 
1764 1765 2 1.2467813888044947e+00 4.1736902181464082e+00 1.0000000000000000e+00 7.3010670893239018e+00 1.6600000000000001e+01 8.5289407806343185e+00 
998 999 2 1.2467813888044947e+00 -1.9202888161549654e+00 1.0000000000000000e+00 1.1401900338489916e+01 1.4400000000000000e+01 7.4553549464898730e+00 
1642 1643 2 1.2467813888044947e+00 -5.7212082410263658e+00 1.0000000000000000e+00 1.1338477780288853e+01 1.6600000000000001e+01 7.0836331316431380e+00 
1660 1661 2 1.2467813888044947e+00 -2.2170001094027203e+00 1.0000000000000000e+00 1.2586263744025157e+01 1.6600000000000001e+01 9.2092057473186113e+00 
1479 1480 2 1.2467813888044947e+00 -4.0056452995434260e+00 1.0000000000000000e+00 1.4689156906601344e+01 1.6600000000000001e+01 9.3996747355879258e+00 
990 991 2 1.2467813888044947e+00 -1.0278601170066377e+00 1.0000000000000000e+00 1.7744927617875490e+01 1.4400000000000000e+01 7.2856115855763770e+00 
1551 1552 2 1.2467813888044947e+00 -1.6056331273271374e+00 1.0000000000000000e+00 1.8910272636475590e+01 1.6600000000000001e+01 7.7091273013319199e+00 
1613 1614 2 1.2467813888044947e+00 1.0580116292829367e+00 1.0000000000000000e+00 2.1981564891115582e+01 1.6600000000000001e+01 7.5871840403908095e+00 
1078 1079 2 1.2467813888044947e+00 -3.5466380393809560e+00 1.0000000000000000e+00 2.0487266082645981e+01 1.4400000000000000e+01 7.7231977931587306e+00 
1015 1016 2 1.2467813888044947e+00 4.5721676275472967e-01 1.0000000000000000e+00 2.5429346176486813e+01 1.4400000000000000e+01 6.8566684804831173e+00 
1271 1272 2 1.2467813888044947e+00 -2.9399045891079645e+00 1.0000000000000000e+00 2.3873503291975531e+01 1.4400000000000000e+01 8.8675995863366737e+00 
1400 1401 2 1.2467813888044947e+00 5.4255573597769509e+00 1.0000000000000000e+00 2.4463111240347416e+01 1.6600000000000001e+01 8.4916552140647674e+00 
991 992 2 1.2467813888044947e+00 -1.3525764832801984e-01 1.0000000000000000e+00 2.6861908951655341e+01 1.4400000000000000e+01 9.9990502186270476e+00 
979 980 2 1.2467813888044947e+00 -3.6515858561931074e+00 1.0000000000000000e+00 2.8114951338370627e+01 1.4400000000000000e+01 7.4685520597211479e+00 
1302 1303 2 1.2467813888044947e+00 3.8324072972899437e+00 1.0000000000000000e+00 3.0824404261844133e+01 1.4400000000000000e+01 8.5266996830582258e+00 
1394 1395 2 1.2467813888044947e+00 5.1306948562939141e+00 1.0000000000000000e+00 3.0574356188297372e+01 1.6600000000000001e+01 8.6529754148746960e+00 
1585 1586 2 1.2467848136159412e+00 -2.2712201077460055e+00 1.0000000000000000e+00 3.2653471604614197e+01 1.6600000000000001e+01 9.5614995211907434e+00 
2075 2076 2 1.2467813888044947e+00 9.7592346554193377e-01 1.0000000000000000e+00 4.9608226979396370e+00 1.8800000000000001e+01 6.7446326200368070e+00 
2055 2056 2 1.2467813888044947e+00 -3.8068782520809679e+00 1.0000000000000000e+00 4.7799597589612652e+00 1.8800000000000001e+01 8.9951935106051657e+00 
2023 2024 2 1.2467813888044947e+00 -3.0776842385290424e+00 1.0000000000000000e+00 6.9599516600611455e+00 1.8800000000000001e+01 8.6903937442567862e+00 
2049 2050 2 1.2467813888044947e+00 -3.7371924647081487e+00 1.0000000000000000e+00 9.1443229313881069e+00 1.8800000000000001e+01 7.7062769518233747e+00 
1932 1933 2 1.2467813888044947e+00 5.6379439431254186e+00 1.0000000000000000e+00 1.1241759398593350e+01 1.8800000000000001e+01 8.4656154339324736e+00 
2135 2136 2 1.2467813888044947e+00 -1.3663835909740145e+00 1.0000000000000000e+00 1.4050601481819623e+01 1.8800000000000001e+01 7.0489691155825787e+00 
2000 2001 2 1.2467813888044947e+00 -3.6162945274818430e+00 1.0000000000000000e+00 1.5635814130882165e+01 1.8800000000000001e+01 9.3787868195706121e+00 
2004 2005 2 1.2467813888044947e+00 -2.4352319328118153e+00 1.0000000000000000e+00 1.7314907962006117e+01 1.8800000000000001e+01 6.9435827427237768e+00 
2185 2186 2 1.2467813888044947e+00 5.6293741696314612e+00 1.0000000000000000e+00 2.1432487550400726e+01 1.8800000000000001e+01 8.8809079682462624e+00 
1871 1872 2 1.2467813888044947e+00 3.6209217557636011e+00 1.0000000000000000e+00 2.3835981257408584e+01 1.8800000000000001e+01 7.1757962103595725e+00 
1898 1899 2 1.2467813888044947e+00 -3.2669486826697622e+00 1.0000000000000000e+00 2.4743529430286706e+01 1.8800000000000001e+01 9.2884883010780115e+00 
2026 2027 2 1.2467813888044947e+00 -3.1174085320120373e+00 1.0000000000000000e+00 2.7533727638088791e+01 1.8800000000000001e+01 8.3885572868725191e+00 
2122 2123 2 1.2467813888044947e+00 -4.3936284036919453e+00 1.0000000000000000e+00 2.9854406924011769e+01 1.8800000000000001e+01 7.9494251809767489e+00 
2124 2125 2 1.2467813888044947e+00 -9.0176623569114434e-01 1.0000000000000000e+00 3.3263358339282156e+01 1.8800000000000001e+01 8.2131045057631145e+00 
195 196 2 1.2467813888044947e+00 -1.7014026466214789e+00 1.0000000000000000e+00 2.2345655892332288e+00 1.0000000000000000e+01 1.0261918487955507e+01 
572 573 2 1.2467820030573236e+00 -3.1223215879445489e+00 1.0000000000000000e+00 1.5322932809964942e+00 1.2199999999999999e+01 1.1975976369453115e+01 
666 667 2 1.2467813888044947e+00 -1.7709639791087233e+00 1.0000000000000000e+00 3.8121119962090448e+00 1.2199999999999999e+01 1.1010755536294701e+01 