LAMMPS data file via write_data, version 30 Jul 2016, timestep = 50400000

4620 atoms
8 atom types

0.0000000000000000e+00 1.0000000000000000e+02 xlo xhi
0.0000000000000000e+00 4.0000000000000000e+01 ylo yhi
0.0000000000000000e+00 4.0000000000000000e+01 zlo zhi

Masses

1 3.896
2 5.36
3 20.064
4 8.378
5 8.378
6 8.378
7 8.378
8 8.378

Atoms # meso-molecular

510 511 2 1.2467813888044947e+00 -8.8566078032450567e-04 1.0000000000000000e+00 6.9013857858053373e-01 1.2199999999999999e+01 2.4334635365092967e+00 
721 722 2 1.2467813888044947e+00 -2.7275972500482020e+00 1.0000000000000000e+00 3.8277765713056744e+00 1.2199999999999999e+01 2.9102856662787664e+00 
434 435 2 1.2467813888044947e+00 6.1226354683718842e+00 1.0000000000000000e+00 3.9488161343662576e+00 1.0000000000000000e+01 1.5422538426632959e+00 
724 725 2 1.2467813888044947e+00 -2.7805567287802653e+00 1.0000000000000000e+00 6.0489901678812750e+00 1.2199999999999999e+01 7.5057847929226473e-01 
138 139 2 1.2467813888044947e+00 -2.8692230710040629e+00 1.0000000000000000e+00 7.3932449429363052e+00 1.0000000000000000e+01 2.7494454483390727e+00 
414 415 2 1.2467813888044947e+00 -3.3025210247864338e+00 1.0000000000000000e+00 1.1841737106624324e+01 1.0000000000000000e+01 1.5633589995020254e+00 
540 541 2 1.2467813888044947e+00 -2.1824882213372718e+00 1.0000000000000000e+00 1.1041137847275730e+01 1.2199999999999999e+01 1.3801410607021238e+00 
765 766 2 1.2467813888044947e+00 -1.8252975102316507e+00 1.0000000000000000e+00 1.4309521686921622e+01 1.2199999999999999e+01 1.3458934690041890e+00 
235 236 2 1.2467813888044947e+00 1.9773149390258471e+00 1.0000000000000000e+00 1.6339913360890868e+01 1.0000000000000000e+01 1.5435518665337658e-01 
628 629 2 1.2467813888044947e+00 -4.0921977248898207e+00 1.0000000000000000e+00 1.7896643125806296e+01 1.2199999999999999e+01 2.7604454926548034e+00 
52 53 2 1.2467813888044947e+00 -1.2229952494525407e+00 1.0000000000000000e+00 1.9155644590640080e+01 1.0000000000000000e+01 9.7663153053427332e-01 
518 519 2 1.2467813888044947e+00 -3.8916257643528995e+00 1.0000000000000000e+00 2.0010455743464028e+01 1.2199999999999999e+01 2.8313154739678130e+00 
121 122 2 1.2467813888044947e+00 -6.3249009270735435e-01 1.0000000000000000e+00 2.2641766352620380e+01 1.0000000000000000e+01 2.0277042348194483e+00 
465 466 2 1.2467813888044947e+00 5.4234890920793770e+00 1.0000000000000000e+00 2.2424205723313904e+01 1.2199999999999999e+01 2.5473475191039419e+00 
748 749 2 1.2467813888044947e+00 -3.1123074449034958e+00 1.0000000000000000e+00 2.0117976133242937e+01 1.2199999999999999e+01 6.4825960623486512e-01 
616 617 2 1.2467813888044947e+00 -2.4944803334624530e+00 1.0000000000000000e+00 2.4326759650660588e+01 1.2199999999999999e+01 1.0635677963956833e+00 
175 176 2 1.2467813888044947e+00 -2.8135938076221425e+00 1.0000000000000000e+00 2.6256794508584800e+01 1.0000000000000000e+01 8.8073078247354397e-01 
213 214 2 1.2467813888044947e+00 -9.0506408990795462e-01 1.0000000000000000e+00 2.8707179036251055e+01 1.0000000000000000e+01 5.5394133697505410e-01 
625 626 2 1.2467813888044947e+00 -1.1536407759515537e+00 1.0000000000000000e+00 2.8666192742639296e+01 1.2199999999999999e+01 3.4046726366901220e-01 
370 371 2 1.2467813888044947e+00 -1.9668664331167516e+00 1.0000000000000000e+00 3.1804536621558377e+01 1.0000000000000000e+01 1.4959550134464714e+00 
681 682 2 1.2467813888044947e+00 -2.6797815696963538e+00 1.0000000000000000e+00 3.1965663787046463e+01 1.2199999999999999e+01 5.7957686454698076e-01 
690 691 2 1.2467813888044947e+00 2.2892053762903330e+00 1.0000000000000000e+00 3.0457605197717516e+01 1.2199999999999999e+01 2.5557261180606332e+00 
53 54 2 1.2467813888044947e+00 -5.0911439378191248e-01 1.0000000000000000e+00 3.3238543016164236e+01 1.0000000000000000e+01 3.3264186753076266e+00 
1566 1567 2 1.2467813888044947e+00 -2.4308012215047148e+00 1.0000000000000000e+00 1.6029525264987836e+00 1.6600000000000001e+01 1.7728445361283893e-01 
1157 1158 2 1.2467813888044947e+00 -1.2664623907294390e+00 1.0000000000000000e+00 1.7302034604704861e+00 1.4400000000000000e+01 2.3858549000793592e+00 
1165 1166 2 1.2467813888044947e+00 -3.6171134907748419e+00 1.0000000000000000e+00 4.9330405644616162e+00 1.4400000000000000e+01 1.6015106303661115e+00 
1660 1661 2 1.2467814020346879e+00 -2.1990990904842769e+00 1.0000000000000000e+00 4.0797344201408547e+00 1.6600000000000001e+01 1.3587870888990066e+00 
1578 1579 2 1.2467813888044947e+00 -2.3873960610630602e+00 1.0000000000000000e+00 6.2246950109792234e+00 1.6600000000000001e+01 7.4690946340022768e-01 
1207 1208 2 1.2467813888044947e+00 -4.7393320006609541e+00 1.0000000000000000e+00 8.3423026585342548e+00 1.4400000000000000e+01 9.8522017058980049e-01 
925 926 2 1.2467813888044947e+00 1.2651776171273386e+01 1.0000000000000000e+00 6.9488081659585967e+00 1.4400000000000000e+01 2.6636092395737911e+00 
1696 1697 2 1.2467813888044947e+00 -3.7525379718214609e+00 1.0000000000000000e+00 7.6412180377827843e+00 1.6600000000000001e+01 2.5457034396590572e+00 
1551 1552 2 1.2467813888044947e+00 -1.5990812198055098e+00 1.0000000000000000e+00 1.0169364956211203e+01 1.6600000000000001e+01 3.3253358841213179e+00 
954 955 2 1.2467813888044947e+00 3.2950179875995271e+00 1.0000000000000000e+00 1.0456475819343220e+01 1.4400000000000000e+01 1.0803987131066228e+00 
1602 1603 2 1.2467813888044947e+00 3.8993730332384280e-01 1.0000000000000000e+00 1.3388900188873512e+01 1.6600000000000001e+01 1.3816213619044908e+00 
1240 1241 2 1.2467813888044947e+00 -3.9868663773157529e+00 1.0000000000000000e+00 1.4434645701658892e+01 1.4400000000000000e+01 1.2849775168004156e+00 
1123 1124 2 1.2467813888044947e+00 -2.5506212980616745e+00 1.0000000000000000e+00 1.7532963394830027e+01 1.4400000000000000e+01 2.8454084307259855e+00 
1568 1569 2 1.2467813888044947e+00 -2.5111816184332598e+00 1.0000000000000000e+00 1.8740224767271631e+01 1.6600000000000001e+01 2.4853476758577169e+00 
1550 1551 2 1.2467813888044947e+00 -2.7838818981140880e+00 1.0000000000000000e+00 2.0105062810409528e+01 1.6600000000000001e+01 6.2313328910143839e-01 
1737 1738 2 1.2467813888044947e+00 -1.2987269773352301e+00 1.0000000000000000e+00 2.3201633813542159e+01 1.6600000000000001e+01 2.9799369699356029e+00 
1251 1252 2 1.2467813888044947e+00 -1.8945716779014861e+00 1.0000000000000000e+00 2.3506982116411852e+01 1.4400000000000000e+01 1.3975190441692784e+00 
1542 1543 2 1.2467813888044947e+00 -2.4965780904189270e+00 1.0000000000000000e+00 2.4945313352134907e+01 1.6600000000000001e+01 1.3522235288077511e-01 
1095 1096 2 1.2467813888044947e+00 -1.8111003800313834e+00 1.0000000000000000e+00 2.7708145077777804e+01 1.4400000000000000e+01 2.9189402417109478e-01 
1256 1257 2 1.2467813888044947e+00 -5.2925505498989427e+00 1.0000000000000000e+00 2.9760082909783936e+01 1.4400000000000000e+01 1.1591122961506617e+00 
1025 1026 2 1.2467813888044947e+00 -5.9069300205882003e-01 1.0000000000000000e+00 2.7858544344727431e+01 1.4400000000000000e+01 2.8370738870205350e+00 
1787 1788 2 1.2467813888044947e+00 1.8222263620373695e+00 1.0000000000000000e+00 3.0950842223769520e+01 1.6600000000000001e+01 2.9504379189064611e+00 
964 965 2 1.2467813888044947e+00 2.4444887267910902e+00 1.0000000000000000e+00 3.2422132792515754e+01 1.4400000000000000e+01 1.5608250715636467e+00 
1612 1613 2 1.2467813888044947e+00 1.9622679922955304e+00 1.0000000000000000e+00 3.2712505821921738e+01 1.6600000000000001e+01 5.9527650157886369e-01 
2049 2050 2 1.2467813888044947e+00 -3.7285401557802418e+00 1.0000000000000000e+00 3.0458013105638554e-01 1.8800000000000001e+01 1.6270753008603487e+00 
2023 2024 2 1.2467813888044947e+00 -3.0729250973091125e+00 1.0000000000000000e+00 3.2315574671144502e+00 1.8800000000000001e+01 2.2519657958255799e+00 
2192 2193 2 1.2467813888044947e+00 -3.3094213524121754e+00 1.0000000000000000e+00 5.5558646100397358e+00 1.8800000000000001e+01 2.0933758729090846e-01 
2285 2286 2 1.2467813888044947e+00 5.9308406556640474e+00 1.0000000000000000e+00 6.8260299935164364e+00 1.8800000000000001e+01 2.5487918859672707e+00 
1932 1933 2 1.2467813888044947e+00 5.6476494096596106e+00 1.0000000000000000e+00 9.4196853123517368e+00 1.8800000000000001e+01 1.5469031085919762e+00 
2243 2244 2 1.2467813888044947e+00 -1.7465822035481220e+00 1.0000000000000000e+00 1.4275200347711946e+01 1.8800000000000001e+01 3.0595963594122542e+00 
2171 2172 2 1.2467813888044947e+00 -1.5147170950780295e+00 1.0000000000000000e+00 1.9711161190073806e+01 1.8800000000000001e+01 1.1534339111465084e+00 
1997 1998 2 1.2467815799120392e+00 -2.3454405506720906e+00 1.0000000000000000e+00 2.2472545361177492e+01 1.8800000000000001e+01 2.3130716697521780e+00 
1916 1917 2 1.2467813888044947e+00 -3.2680405538057435e+00 1.0000000000000000e+00 2.5380638417145637e+01 1.8800000000000001e+01 2.1903141384329388e+00 
1850 1851 2 1.2467813888044947e+00 4.8378474284447499e+00 1.0000000000000000e+00 2.7586032913454044e+01 1.8800000000000001e+01 4.9978909842067815e-01 
2158 2159 2 1.2467813888044947e+00 -2.8535845700661167e+00 1.0000000000000000e+00 2.7620474046422800e+01 1.8800000000000001e+01 2.8645507555232950e+00 
1874 1875 2 1.2467813888044947e+00 3.1426775674415701e+00 1.0000000000000000e+00 3.0562944005646223e+01 1.8800000000000001e+01 3.2758476189493666e+00 
1889 1890 2 1.2467813888044947e+00 4.8518245553871182e+00 1.0000000000000000e+00 3.2975401446648476e+01 1.8800000000000001e+01 2.3536919026135990e+00 
2124 2125 2 1.2467813888044947e+00 -8.9753323746225033e-01 1.0000000000000000e+00 3.1815557508408194e+01 1.8800000000000001e+01 1.9637407995002593e-01 
217 218 2 1.2467826117659289e+00 1.4845438672681619e+00 1.0000000000000000e+00 2.7913477654553492e-01 1.0000000000000000e+01 3.7575185777350510e+00 
176 177 2 1.2467813888044947e+00 -2.6867700935625369e+00 1.0000000000000000e+00 1.7682984165708731e+00 1.0000000000000000e+01 6.0566698928637610e+00 
654 655 2 1.2467813888044947e+00 -2.3503074918107139e+00 1.0000000000000000e+00 4.5550029731784542e-01 1.2199999999999999e+01 6.5740267717553511e+00 
504 505 2 1.2467813888044947e+00 9.5114938650871466e+00 1.0000000000000000e+00 3.7883426726722158e+00 1.2199999999999999e+01 5.3208201149063283e+00 
44 45 2 1.2467813888044947e+00 -2.3971017773728622e+00 1.0000000000000000e+00 4.5262050794577782e+00 1.0000000000000000e+01 4.9923102738984468e+00 
905 906 2 1.2467813888044947e+00 7.5779591086231388e+00 1.0000000000000000e+00 6.6871367900757850e+00 1.2199999999999999e+01 4.5852353968417674e+00 
178 179 2 1.2467813888044947e+00 -3.2178178331135054e+00 1.0000000000000000e+00 7.2800848709333668e+00 1.0000000000000000e+01 5.2464372473397836e+00 
143 144 2 1.2467813888044947e+00 -3.7421600738408882e+00 1.0000000000000000e+00 9.6190569522616283e+00 1.0000000000000000e+01 3.8806996822691979e+00 
546 547 2 1.2467813888044947e+00 5.2999766361854963e+00 1.0000000000000000e+00 1.0309623250984087e+01 1.2199999999999999e+01 3.5291617503827757e+00 
902 903 2 1.2467813888044947e+00 5.8699531348834313e+00 1.0000000000000000e+00 1.2410802204538093e+01 1.2199999999999999e+01 3.5747118047422188e+00 
351 352 2 1.2467813888044947e+00 -9.0061026819815049e-01 1.0000000000000000e+00 1.1333322721790864e+01 1.0000000000000000e+01 5.6115516808152632e+00 
156 157 2 1.2467813888044947e+00 -2.8436506264934405e+00 1.0000000000000000e+00 1.2791199376005506e+01 1.0000000000000000e+01 3.6616308332275822e+00 
611 612 2 1.2467813888044947e+00 -2.8436513271120640e+00 1.0000000000000000e+00 1.5234990011313565e+01 1.2199999999999999e+01 4.9101028808521061e+00 
410 411 2 1.2467813888044947e+00 -3.5116705498404759e+00 1.0000000000000000e+00 1.5588945298541230e+01 1.0000000000000000e+01 3.7047368959028346e+00 
95 96 2 1.2467813888044947e+00 -2.1237822628608090e+00 1.0000000000000000e+00 1.4357348348657997e+01 1.0000000000000000e+01 6.5351056863177748e+00 
629 630 2 1.2467813888044947e+00 -2.0915980490449777e+00 1.0000000000000000e+00 1.7845770516061215e+01 1.2199999999999999e+01 4.9065460047420224e+00 
103 104 2 1.2467813888044947e+00 -1.7243850411276036e+00 1.0000000000000000e+00 1.9292186052116943e+01 1.0000000000000000e+01 3.5978259749706583e+00 
744 745 2 1.2467813888044947e+00 -2.9075256387465336e+00 1.0000000000000000e+00 2.1610798633376618e+01 1.2199999999999999e+01 4.7085247253144908e+00 
673 674 2 1.2467813888044947e+00 5.9349012261518919e+00 1.0000000000000000e+00 2.3944356211471440e+01 1.2199999999999999e+01 4.9241883045686228e+00 
466 467 2 1.2467813888044947e+00 4.0408512441048998e+00 1.0000000000000000e+00 2.6247811904699251e+01 1.2199999999999999e+01 4.4826935412459310e+00 
26 27 2 1.2467813888044947e+00 2.7325431953353796e+00 1.0000000000000000e+00 2.4159400571731172e+01 1.0000000000000000e+01 3.6850960914716673e+00 
27 28 2 1.2467813888044947e+00 3.7203029682520108e+00 1.0000000000000000e+00 2.4691588171708723e+01 1.0000000000000000e+01 5.8900872375548508e+00 
164 165 2 1.2467813888044947e+00 -2.8376999598809451e+00 1.0000000000000000e+00 2.6862734450909720e+01 1.0000000000000000e+01 4.3816950837120565e+00 
865 866 2 1.2467827481694838e+00 -4.2329615754500738e+00 1.0000000000000000e+00 2.9339226256647887e+01 1.2199999999999999e+01 5.3915390417552000e+00 
416 417 2 1.2467813888044947e+00 -3.3500460942109793e+00 1.0000000000000000e+00 2.9902232955393973e+01 1.0000000000000000e+01 4.1007642336985084e+00 
360 361 2 1.2467813888044947e+00 -2.6491737448351773e+00 1.0000000000000000e+00 2.9371480298110406e+01 1.0000000000000000e+01 6.3954602371636540e+00 
831 832 2 1.2467813888044947e+00 -3.9461156548888479e+00 1.0000000000000000e+00 3.2091734999482512e+01 1.2199999999999999e+01 4.8196068486826311e+00 
431 432 2 1.2467813888044947e+00 4.6495174957863821e+00 1.0000000000000000e+00 3.2111370604602890e+01 1.0000000000000000e+01 6.6637062879635653e+00 
1710 1711 2 1.2467813888044947e+00 -3.8636432273720605e+00 1.0000000000000000e+00 3.1962623793120031e+00 1.6600000000000001e+01 6.2883419318003213e+00 
1522 1523 2 1.2467813888044947e+00 -4.6762672863276444e+00 1.0000000000000000e+00 2.6294378392818829e-01 1.6600000000000001e+01 3.8281262502695794e+00 
1037 1038 2 1.2467813888044947e+00 -3.1155529802671680e+00 1.0000000000000000e+00 2.5594945602134112e+00 1.4400000000000000e+01 4.5615817012007218e+00 
980 981 2 1.2467813888044947e+00 -4.2496287375661037e+00 1.0000000000000000e+00 4.0750366930447068e+00 1.4400000000000000e+01 6.5291420628860690e+00 
1489 1490 2 1.2467813888044947e+00 -2.0955489241090506e+00 1.0000000000000000e+00 5.2626526069590147e+00 1.6600000000000001e+01 4.4350570468575228e+00 
1647 1648 2 1.2467813888044947e+00 -1.8151310400256908e+00 1.0000000000000000e+00 6.0684196841481661e+00 1.6600000000000001e+01 6.5288913560533084e+00 
1272 1273 2 1.2467813888044947e+00 -2.4430978104022341e+00 1.0000000000000000e+00 9.3154212176536504e+00 1.4400000000000000e+01 3.5948945729133110e+00 
1831 1832 2 1.2467813914229149e+00 3.0972103362663113e+00 1.0000000000000000e+00 8.9236088270588656e+00 1.6600000000000001e+01 5.5894161836668879e+00 
957 958 2 1.2467813888044947e+00 4.1442723223999192e+00 1.0000000000000000e+00 8.1825599962347333e+00 1.4400000000000000e+01 6.3955086595006083e+00 
1160 1161 2 1.2467813888044947e+00 -2.4616883164242725e-01 1.0000000000000000e+00 1.1824876356789215e+01 1.4400000000000000e+01 3.7544217835193843e+00 
1096 1097 2 1.2467813888044947e+00 -2.0524670641656066e+00 1.0000000000000000e+00 1.0716319516979677e+01 1.4400000000000000e+01 5.8981784923768421e+00 
1836 1837 2 1.2467813914229149e+00 5.5763587662032457e+00 1.0000000000000000e+00 1.0997473398018112e+01 1.6600000000000001e+01 5.8605771136369560e+00 
1289 1290 2 1.2467813888044947e+00 -3.2748487505293262e+00 1.0000000000000000e+00 1.3297182711471629e+01 1.4400000000000000e+01 6.6226289054786083e+00 
1393 1394 2 1.2467813888044947e+00 5.5404899694922527e+00 1.0000000000000000e+00 1.6296782777585026e+01 1.6600000000000001e+01 3.5191439728595166e+00 
1370 1371 2 1.2467813888044947e+00 5.2382996899501020e+00 1.0000000000000000e+00 1.6448848746276642e+01 1.4400000000000000e+01 5.5925925226283910e+00 
1779 1780 2 1.2467813888044947e+00 -3.9179695546703694e+00 1.0000000000000000e+00 1.3421030158533208e+01 1.6600000000000001e+01 4.1300766838915264e+00 
943 944 2 1.2467813888044947e+00 2.4266609517423046e+00 1.0000000000000000e+00 1.8785381085763735e+01 1.4400000000000000e+01 5.3823071628364900e+00 
1479 1480 2 1.2467813888044947e+00 -3.9992398990484688e+00 1.0000000000000000e+00 1.7495859501985841e+01 1.6600000000000001e+01 5.6138935289151597e+00 
1044 1045 2 1.2467813888044947e+00 -4.8187380453165979e-01 1.0000000000000000e+00 2.1635544168579028e+01 1.4400000000000000e+01 4.1070339860021710e+00 
1008 1009 2 1.2467813888044947e+00 5.0569505914912938e+00 1.0000000000000000e+00 2.1308088316957438e+01 1.4400000000000000e+01 6.2922616356233538e+00 
1613 1614 2 1.2467813888044947e+00 1.0631923436723336e+00 1.0000000000000000e+00 2.1290062673481259e+01 1.6600000000000001e+01 5.5726580078192987e+00 
936 937 2 1.2467813888044947e+00 4.1115370143372285e+00 1.0000000000000000e+00 2.3953207470653901e+01 1.4400000000000000e+01 4.1331691228950476e+00 
979 980 2 1.2467813888044947e+00 -3.6459094717918763e+00 1.0000000000000000e+00 2.6197799913158189e+01 1.4400000000000000e+01 5.7885791598934011e+00 
1809 1810 2 1.2467813888044947e+00 6.6636746807032292e+00 1.0000000000000000e+00 2.7688814491728412e+01 1.6600000000000001e+01 3.7184880777422018e+00 
1125 1126 2 1.2467813888044947e+00 -3.8441279055873219e+00 1.0000000000000000e+00 3.0429726854240158e+01 1.4400000000000000e+01 4.1799831686107138e+00 
1325 1326 2 1.2467813888044947e+00 1.7482831736255990e+00 1.0000000000000000e+00 3.2843951311477284e+01 1.4400000000000000e+01 5.3605874883241160e+00 
1526 1527 2 1.2467813888044947e+00 -3.0309447457109506e+00 1.0000000000000000e+00 3.2576686229428120e+01 1.6600000000000001e+01 6.0681123464153881e+00 
2058 2059 2 1.2467813888044947e+00 3.3549811258004159e+00 1.0000000000000000e+00 2.0528946623064108e+00 1.8800000000000001e+01 4.2644503650774501e+00 
1896 1897 2 1.2467813888044947e+00 -2.2979234326551938e+00 1.0000000000000000e+00 8.0148577698293959e+00 1.8800000000000001e+01 5.1900181282030786e+00 
2146 2147 2 1.2467813888044947e+00 -1.6381113321940743e+00 1.0000000000000000e+00 1.2377981834289312e+01 1.8800000000000001e+01 4.4745172253586887e+00 
2075 2076 2 1.2467813888044947e+00 9.8778688476472110e-01 1.0000000000000000e+00 1.1846863804132798e+01 1.8800000000000001e+01 6.6074907440937070e+00 
2000 2001 2 1.2467813888044947e+00 -3.6079436816147750e+00 1.0000000000000000e+00 1.6231385978559160e+01 1.8800000000000001e+01 5.1686036707945995e+00 
2186 2187 2 1.2467813888044947e+00 -4.1184730592586387e+00 1.0000000000000000e+00 1.4318613561681827e+01 1.8800000000000001e+01 6.5080296729498794e+00 
2138 2139 2 1.2467813888044947e+00 -4.5038849348118131e+00 1.0000000000000000e+00 1.8535502444525083e+01 1.8800000000000001e+01 3.6573157033825430e+00 
2211 2212 2 1.2467813888044947e+00 -2.6325887374699937e+00 1.0000000000000000e+00 2.0839808527649343e+01 1.8800000000000001e+01 4.5928671651066919e+00 
2131 2132 2 1.2467813888044947e+00 -2.3197975609892816e+00 1.0000000000000000e+00 2.4230730617635565e+01 1.8800000000000001e+01 6.2238341469185290e+00 
1931 1932 2 1.2467815799120392e+00 -2.3858598166409974e+00 1.0000000000000000e+00 2.3765142104864609e+01 1.8800000000000001e+01 3.9410025994750981e+00 
2305 2306 2 1.2467813888044947e+00 2.1508078345950299e+00 1.0000000000000000e+00 2.6152959652112571e+01 1.8800000000000001e+01 5.0782176192974031e+00 
2185 2186 2 1.2467813888044947e+00 5.6321034958809246e+00 1.0000000000000000e+00 2.8533210431768421e+01 1.8800000000000001e+01 5.1684232708303419e+00 
266 267 2 1.2467813888044947e+00 -4.2015453112440708e+00 1.0000000000000000e+00 2.1406970537044563e+00 1.0000000000000000e+01 8.2341783234265193e+00 
860 861 2 1.2467813888044947e+00 -1.8085836345670052e+00 1.0000000000000000e+00 3.6046786336894749e+00 1.2199999999999999e+01 8.0533049374244570e+00 
74 75 2 1.2467813888044947e+00 -2.6047878301482772e+00 1.0000000000000000e+00 5.0656878097425038e+00 1.0000000000000000e+01 7.1365944276473563e+00 
666 667 2 1.2467813888044947e+00 -1.7663831387016566e+00 1.0000000000000000e+00 5.7159020444577413e+00 1.2199999999999999e+01 6.8225359054984667e+00 
233 234 2 1.2467813888044947e+00 -8.7816321965245192e-01 1.0000000000000000e+00 4.1304310694872282e+00 1.0000000000000000e+01 9.1773293263543909e+00 
165 166 2 1.2467813888044947e+00 -1.4992552641535788e+00 1.0000000000000000e+00 6.8265374664646146e+00 1.0000000000000000e+01 9.6252980750748858e+00 
572 573 2 1.2467813888044947e+00 -3.2753031346536172e+00 1.0000000000000000e+00 6.9810356940285780e+00 1.2199999999999999e+01 9.9282358381259588e+00 
385 386 2 1.2467813888044947e+00 -2.9324837729192739e+00 1.0000000000000000e+00 7.6065458653258524e+00 1.0000000000000000e+01 7.5417245024936674e+00 
758 759 2 1.2467813888044947e+00 -1.5843948768169129e+00 1.0000000000000000e+00 7.9084731531020545e+00 1.2199999999999999e+01 7.9862350734740559e+00 
83 84 2 1.2467813888044947e+00 -2.4598964064664166e+00 1.0000000000000000e+00 9.8683826846101379e+00 1.0000000000000000e+01 7.6814134453425407e+00 
186 187 2 1.2467813888044947e+00 -2.9937421306267868e+00 1.0000000000000000e+00 1.1724475478085274e+01 1.0000000000000000e+01 9.3810327165071623e+00 
683 684 2 1.2467813888044947e+00 -1.5973020000747051e+00 1.0000000000000000e+00 1.3296412576517715e+01 1.2199999999999999e+01 7.2495415125160285e+00 
497 498 2 1.2467813888044947e+00 5.5968650210464261e+00 1.0000000000000000e+00 1.6666200922928791e+01 1.2199999999999999e+01 7.9587266301312161e+00 
603 604 2 1.2467813888044947e+00 -9.7286264851152349e-01 1.0000000000000000e+00 1.4660797123200187e+01 1.2199999999999999e+01 9.0545955657737078e+00 
229 230 2 1.2467813888044947e+00 6.9323894177074774e-01 1.0000000000000000e+00 1.5156433691284617e+01 1.0000000000000000e+01 8.7089683646418425e+00 
602 603 2 1.2467813888044947e+00 -2.8395081399912954e+00 1.0000000000000000e+00 1.8707165487462198e+01 1.2199999999999999e+01 7.2394649780219904e+00 
265 266 2 1.2467813888044947e+00 -1.9124753923433957e+00 1.0000000000000000e+00 1.8353576536179293e+01 1.0000000000000000e+01 7.8129878449736783e+00 
907 908 2 1.2467813888044947e+00 3.2240503782964742e+00 1.0000000000000000e+00 2.0660168749099903e+01 1.2199999999999999e+01 8.4024364677466004e+00 
40 41 2 1.2467813888044947e+00 2.2707729181837122e+00 1.0000000000000000e+00 2.1925641778280713e+01 1.0000000000000000e+01 9.4971552231653060e+00 
334 335 2 1.2467813888044947e+00 -4.1410930914057591e+00 1.0000000000000000e+00 2.2148314335196595e+01 1.0000000000000000e+01 7.1300550168071242e+00 
570 571 2 1.2467813888044947e+00 -3.2784155128950587e+00 1.0000000000000000e+00 2.5068527648278671e+01 1.2199999999999999e+01 6.8712876045462501e+00 
245 246 2 1.2467813888044947e+00 -3.8270881745680603e+00 1.0000000000000000e+00 2.4973828838027060e+01 1.0000000000000000e+01 7.9745897087261515e+00 
850 851 2 1.2467814220163247e+00 -2.6881822269402889e-01 1.0000000000000000e+00 2.8329552791840733e+01 1.2199999999999999e+01 7.3927858658630425e+00 
835 836 2 1.2467814220163247e+00 -1.2999824648909317e+00 1.0000000000000000e+00 2.8187664575680753e+01 1.2199999999999999e+01 9.4757781173419371e+00 
814 815 2 1.2467827481694838e+00 -2.1131261350764334e+00 1.0000000000000000e+00 3.0475872225943746e+01 1.2199999999999999e+01 7.1165191318355205e+00 
18 19 2 1.2467813888044947e+00 3.0989082531078416e+00 1.0000000000000000e+00 3.0265252636139824e+01 1.0000000000000000e+01 8.3956246036437339e+00 
777 778 2 1.2467813888044947e+00 -4.1306419669184180e+00 1.0000000000000000e+00 3.2467626340015798e+01 1.2199999999999999e+01 9.1622273811917392e+00 
1464 1465 2 1.2467813888044947e+00 -2.1576293723757627e+00 1.0000000000000000e+00 1.0578731046202057e+00 1.6600000000000001e+01 7.9836124035968457e+00 
1051 1052 2 1.2467813888044947e+00 4.0720495412660931e+00 1.0000000000000000e+00 2.1649803269940828e+00 1.4400000000000000e+01 9.2279597589595070e+00 
1253 1254 2 1.2467813888044947e+00 -3.8170084641719892e+00 1.0000000000000000e+00 2.6278114036845303e-02 1.4400000000000000e+01 8.2643181258758034e+00 
1175 1176 2 1.2467813888044947e+00 -2.8078855139020842e+00 1.0000000000000000e+00 6.1632536427124487e+00 1.4400000000000000e+01 8.0236942987543731e+00 
1786 1787 2 1.2467813888044947e+00 -3.1952693317241039e+00 1.0000000000000000e+00 4.2898618492447183e+00 1.6600000000000001e+01 9.6278387298666779e+00 
1764 1765 2 1.2467813888044947e+00 4.1835567257673087e+00 1.0000000000000000e+00 8.4787862629973763e+00 1.6600000000000001e+01 7.8187108174772950e+00 
1130 1131 2 1.2467813888044947e+00 -3.4370042356529789e+00 1.0000000000000000e+00 8.4069555620317029e+00 1.4400000000000000e+01 8.6156891470792036e+00 
1767 1768 2 1.2467813888044947e+00 -5.6696948970740877e+00 1.0000000000000000e+00 1.1571331756762570e+01 1.6600000000000001e+01 8.8941398839991557e+00 
998 999 2 1.2467813888044947e+00 -1.9128641424679855e+00 1.0000000000000000e+00 1.1128128834799076e+01 1.4400000000000000e+01 7.9875708409536719e+00 
1638 1639 2 1.2467813888044947e+00 6.4265689314627599e+00 1.0000000000000000e+00 1.5599886738736755e+01 1.6600000000000001e+01 8.9345815032579079e+00 
1236 1237 2 1.2467813888044947e+00 -7.5581432095017620e-01 1.0000000000000000e+00 1.6913236765465744e+01 1.4400000000000000e+01 8.9771271689104406e+00 
1078 1079 2 1.2467813888044947e+00 -3.5399526150721918e+00 1.0000000000000000e+00 1.8971827982613721e+01 1.4400000000000000e+01 7.9711521110266714e+00 
1708 1709 2 1.2467813888044947e+00 -3.5403229048508766e+00 1.0000000000000000e+00 1.8673994556899757e+01 1.6600000000000001e+01 8.1779369650178975e+00 
1271 1272 2 1.2467813888044947e+00 -2.9316279325431540e+00 1.0000000000000000e+00 2.2283479602238678e+01 1.4400000000000000e+01 8.1939299913681207e+00 
1555 1556 2 1.2467813888044947e+00 5.3173625839327112e+00 1.0000000000000000e+00 2.3080014372984333e+01 1.6600000000000001e+01 8.0420793392204502e+00 
1743 1744 2 1.2467819749657940e+00 -4.3700624261220700e+00 1.0000000000000000e+00 2.5792497434023108e+01 1.6600000000000001e+01 7.1591863366261581e+00 
1328 1329 2 1.2467813888044947e+00 -2.2248992340186748e+00 1.0000000000000000e+00 2.4671838187553234e+01 1.4400000000000000e+01 7.8206453104930667e+00 
1015 1016 2 1.2467813888044947e+00 4.6494847534947609e-01 1.0000000000000000e+00 2.7222950593179810e+01 1.4400000000000000e+01 9.1710804495701819e+00 
1294 1295 2 1.2467813888044947e+00 -2.0120880756631214e+00 1.0000000000000000e+00 2.8137242993028490e+01 1.4400000000000000e+01 7.0755034330383850e+00 
1734 1735 2 1.2467819749657940e+00 -2.5368310434366919e+00 1.0000000000000000e+00 2.7325978464794680e+01 1.6600000000000001e+01 8.5539907270628817e+00 
1067 1068 2 1.2467813888044947e+00 -2.9888034786451532e+00 1.0000000000000000e+00 2.9352807711642253e+01 1.4400000000000000e+01 9.8883955262687824e+00 
1255 1256 2 1.2467813888044947e+00 -3.0527729166682125e+00 1.0000000000000000e+00 3.1246711763919972e+01 1.4400000000000000e+01 6.9393664825428321e+00 
1476 1477 2 1.2467813888044947e+00 -4.3547058953543631e+00 1.0000000000000000e+00 3.1641283883627715e+01 1.6600000000000001e+01 8.0531118901901824e+00 
991 992 2 1.2467842955190223e+00 3.8507939324082913e-01 1.0000000000000000e+00 3.1750328992176009e+01 1.4400000000000000e+01 9.4276177497106346e+00 
2303 2304 2 1.2467813888044947e+00 5.6243739551666234e+00 1.0000000000000000e+00 3.1726240031461994e-01 1.8800000000000001e+01 8.1184998607732286e+00 
2135 2136 2 1.2467813888044947e+00 -1.3589965858800459e+00 1.0000000000000000e+00 3.3860525880351822e+00 1.8800000000000001e+01 6.9081501659586877e+00 
2214 2215 2 1.2467813888044947e+00 -2.4932754946322877e+00 1.0000000000000000e+00 6.0664991228148493e+00 1.8800000000000001e+01 7.4293059436868436e+00 
2010 2011 2 1.2467813888044947e+00 -2.1675787480718407e+00 1.0000000000000000e+00 8.6351652701909156e+00 1.8800000000000001e+01 7.7922973407968863e+00 
2140 2141 2 1.2467813888044947e+00 -2.5645284082637314e+00 1.0000000000000000e+00 1.0933059808248256e+01 1.8800000000000001e+01 9.9978909338133359e+00 
2006 2007 2 1.2467813888044947e+00 -2.9195105795769534e+00 1.0000000000000000e+00 1.3856222093966695e+01 1.8800000000000001e+01 9.0087477470750326e+00 
1895 1896 2 1.2467813888044947e+00 -2.4538981492480652e+00 1.0000000000000000e+00 1.5968021667363022e+01 1.8800000000000001e+01 9.2887922985063565e+00 
2002 2003 2 1.2467813888044947e+00 -3.5198790218594258e+00 1.0000000000000000e+00 1.8938562416473509e+01 1.8800000000000001e+01 8.4718807028874199e+00 
2175 2176 2 1.2467813888044947e+00 -1.7198941318716483e+00 1.0000000000000000e+00 2.3288623135293900e+01 1.8800000000000001e+01 8.4237125220790414e+00 
1871 1872 2 1.2467813888044947e+00 3.6281697344062485e+00 1.0000000000000000e+00 2.5946710124761236e+01 1.8800000000000001e+01 7.5498760682228028e+00 
2012 2013 2 1.2467813888044947e+00 -4.0080582469075861e+00 1.0000000000000000e+00 2.8900740380389045e+01 1.8800000000000001e+01 9.6603459803569649e+00 
2163 2164 2 1.2467813888044947e+00 -2.4160094685143028e+00 1.0000000000000000e+00 3.3012433837936982e+01 1.8800000000000001e+01 8.7802431767055662e+00 
195 196 2 1.2467813888044947e+00 -1.6955272939672654e+00 1.0000000000000000e+00 1.6933943358645387e+00 1.0000000000000000e+01 1.0943032960429163e+01 
418 419 2 1.2467813888044947e+00 -2.0061848273235943e+00 1.0000000000000000e+00 2.7805416496268132e+00 1.0000000000000000e+01 1.3209629857192342e+01 
606 607 2 1.2467813888044947e+00 -2.8169689237993514e+00 1.0000000000000000e+00 3.1055321323941478e+00 1.2199999999999999e+01 1.1067344224291661e+01 
134 135 2 1.2467813888044947e+00 -7.7959393197685067e-01 1.0000000000000000e+00 6.1186608858165847e+00 1.0000000000000000e+01 1.2212513766401852e+01 
805 806 2 1.2467813888044947e+00 -1.8092216007831510e+00 1.0000000000000000e+00 4.8400996005928425e+00 1.2199999999999999e+01 1.2631387612828801e+01 