LAMMPS data file via write_data, version 30 Jul 2016, timestep = 1000000

2080 atoms
8 atom types

0.0000000000000000e+00 4.0000000000000000e+01 xlo xhi
0.0000000000000000e+00 4.0000000000000000e+01 ylo yhi
0.0000000000000000e+00 1.0000000000000000e+02 zlo zhi

Masses

1 3.896
2 16.08
3 1058.08
4 8.378
5 8.378
6 8.378
7 8.378
8 8.378

Atoms # meso-molecular

1 2 4 2.2559723595316457e+00 -7.5739933293693639e+01 4.2000000000000000e+03 0.0000000000000000e+00 0.0000000000000000e+00 2.5000000000000000e+00 
2 2 4 2.2559723595316457e+00 8.2790787461874515e+01 4.2000000000000000e+03 0.0000000000000000e+00 2.0000000000000000e+00 2.5000000000000000e+00 
21 2 4 2.2559723595316457e+00 -2.0970089422512905e+02 4.2000000000000000e+03 2.0000000000000000e+00 0.0000000000000000e+00 2.5000000000000000e+00 
22 2 4 2.2559723595316457e+00 -5.7451137580188414e+00 4.2000000000000000e+03 2.0000000000000000e+00 2.0000000000000000e+00 2.5000000000000000e+00 
41 2 4 2.2559723595316457e+00 -6.5918241792946290e+01 4.2000000000000000e+03 4.0000000000000000e+00 0.0000000000000000e+00 2.5000000000000000e+00 
42 2 4 2.2559723595316457e+00 1.1369187206131848e+00 4.2000000000000000e+03 4.0000000000000000e+00 2.0000000000000000e+00 2.5000000000000000e+00 
61 2 4 2.2559723595316457e+00 5.3322786478908437e+00 4.2000000000000000e+03 6.0000000000000000e+00 0.0000000000000000e+00 2.5000000000000000e+00 
62 2 4 2.2559723595316457e+00 1.2670415819563261e+00 4.2000000000000000e+03 6.0000000000000000e+00 2.0000000000000000e+00 2.5000000000000000e+00 
81 2 4 2.2559723595316457e+00 -1.5189894695797701e+01 4.2000000000000000e+03 8.0000000000000000e+00 0.0000000000000000e+00 2.5000000000000000e+00 
82 2 4 2.2559723595316457e+00 -1.1798254219146235e+01 4.2000000000000000e+03 8.0000000000000000e+00 2.0000000000000000e+00 2.5000000000000000e+00 
101 2 4 2.2559723595316457e+00 -4.2641930031544092e+01 4.2000000000000000e+03 1.0000000000000000e+01 0.0000000000000000e+00 2.5000000000000000e+00 
102 2 4 2.2559723595316457e+00 -2.2056174702166050e+01 4.2000000000000000e+03 1.0000000000000000e+01 2.0000000000000000e+00 2.5000000000000000e+00 
121 2 4 2.2559723595316457e+00 2.1680259583678609e+01 4.2000000000000000e+03 1.2000000000000000e+01 0.0000000000000000e+00 2.5000000000000000e+00 
122 2 4 2.2559723595316457e+00 4.9653743226984073e+00 4.2000000000000000e+03 1.2000000000000000e+01 2.0000000000000000e+00 2.5000000000000000e+00 
141 2 4 2.2559723595316457e+00 2.0315091963386509e+00 4.2000000000000000e+03 1.4000000000000000e+01 0.0000000000000000e+00 2.5000000000000000e+00 
142 2 4 2.2559723595316457e+00 1.0892590662894190e+00 4.2000000000000000e+03 1.4000000000000000e+01 2.0000000000000000e+00 2.5000000000000000e+00 
161 2 4 2.2559723595316457e+00 9.4551812655032541e-01 4.2000000000000000e+03 1.6000000000000000e+01 0.0000000000000000e+00 2.5000000000000000e+00 
162 2 4 2.2559723595316457e+00 9.9874927363435217e-01 4.2000000000000000e+03 1.6000000000000000e+01 2.0000000000000000e+00 2.5000000000000000e+00 
181 2 4 2.2559723595316457e+00 -9.2659598305077029e-02 4.2000000000000000e+03 1.8000000000000000e+01 0.0000000000000000e+00 2.5000000000000000e+00 
182 2 4 2.2559723595316457e+00 1.1088456705113816e+00 4.2000000000000000e+03 1.8000000000000000e+01 2.0000000000000000e+00 2.5000000000000000e+00 
3 2 4 2.2559723595316457e+00 1.8142518668763768e+02 4.2000000000000000e+03 0.0000000000000000e+00 4.0000000000000000e+00 2.5000000000000000e+00 
4 2 4 2.2559723595316457e+00 3.6310298335711150e+02 4.2000000000000000e+03 0.0000000000000000e+00 6.0000000000000000e+00 2.5000000000000000e+00 
23 2 4 2.2559723595316457e+00 5.3358921439802799e+01 4.2000000000000000e+03 2.0000000000000000e+00 4.0000000000000000e+00 2.5000000000000000e+00 
24 2 4 2.2559723595316457e+00 1.3929322970328377e+02 4.2000000000000000e+03 2.0000000000000000e+00 6.0000000000000000e+00 2.5000000000000000e+00 
43 2 4 2.2559723595316457e+00 2.0254269403455982e+00 4.2000000000000000e+03 4.0000000000000000e+00 4.0000000000000000e+00 2.5000000000000000e+00 
44 2 4 2.2559723595316457e+00 5.0793531616967336e+00 4.2000000000000000e+03 4.0000000000000000e+00 6.0000000000000000e+00 2.5000000000000000e+00 
63 2 4 2.2559723595316457e+00 7.8930062961131675e-01 4.2000000000000000e+03 6.0000000000000000e+00 4.0000000000000000e+00 2.5000000000000000e+00 
64 2 4 2.2559723595316457e+00 9.9018518490984131e-01 4.2000000000000000e+03 6.0000000000000000e+00 6.0000000000000000e+00 2.5000000000000000e+00 
83 2 4 2.2559723595316457e+00 9.8478685433694657e-01 4.2000000000000000e+03 8.0000000000000000e+00 4.0000000000000000e+00 2.5000000000000000e+00 
84 2 4 2.2559723595316457e+00 1.0101358691031905e+00 4.2000000000000000e+03 8.0000000000000000e+00 6.0000000000000000e+00 2.5000000000000000e+00 
103 2 4 2.2559723595316457e+00 9.8809758477179344e-01 4.2000000000000000e+03 1.0000000000000000e+01 4.0000000000000000e+00 2.5000000000000000e+00 
104 2 4 2.2559723595316457e+00 9.9985712336710320e-01 4.2000000000000000e+03 1.0000000000000000e+01 6.0000000000000000e+00 2.5000000000000000e+00 
123 2 4 2.2559723595316457e+00 9.9983467458177877e-01 4.2000000000000000e+03 1.2000000000000000e+01 4.0000000000000000e+00 2.5000000000000000e+00 
124 2 4 2.2559723595316457e+00 1.0184616798673602e+00 4.2000000000000000e+03 1.2000000000000000e+01 6.0000000000000000e+00 2.5000000000000000e+00 
143 2 4 2.2559723595316457e+00 1.0004016771305646e+00 4.2000000000000000e+03 1.4000000000000000e+01 4.0000000000000000e+00 2.5000000000000000e+00 
144 2 4 2.2559723595316457e+00 5.4220753720533059e+00 4.2000000000000000e+03 1.4000000000000000e+01 6.0000000000000000e+00 2.5000000000000000e+00 
163 2 4 2.2559723595316457e+00 1.0204567586981876e+00 4.2000000000000000e+03 1.6000000000000000e+01 4.0000000000000000e+00 2.5000000000000000e+00 
164 2 4 2.2559723595316457e+00 1.6135805261534301e+01 4.2000000000000000e+03 1.6000000000000000e+01 6.0000000000000000e+00 2.5000000000000000e+00 
183 2 4 2.2559723595316457e+00 1.0025621861595297e+00 4.2000000000000000e+03 1.8000000000000000e+01 4.0000000000000000e+00 2.5000000000000000e+00 
184 2 4 2.2559723595316457e+00 4.9956387162322411e+00 4.2000000000000000e+03 1.8000000000000000e+01 6.0000000000000000e+00 2.5000000000000000e+00 
5 2 4 2.2559723595316457e+00 1.4776102577285889e+02 4.2000000000000000e+03 0.0000000000000000e+00 8.0000000000000000e+00 2.5000000000000000e+00 
6 2 4 2.2559723595316457e+00 4.0175193420118589e+00 4.2000000000000000e+03 0.0000000000000000e+00 1.0000000000000000e+01 2.5000000000000000e+00 
25 2 4 2.2559723595316457e+00 5.4719365249085541e+01 4.2000000000000000e+03 2.0000000000000000e+00 8.0000000000000000e+00 2.5000000000000000e+00 
26 2 4 2.2559723595316457e+00 1.1592510060890864e+00 4.2000000000000000e+03 2.0000000000000000e+00 1.0000000000000000e+01 2.5000000000000000e+00 
45 2 4 2.2559723595316457e+00 1.0617878032115105e+00 4.2000000000000000e+03 4.0000000000000000e+00 8.0000000000000000e+00 2.5000000000000000e+00 
46 2 4 2.2559723595316457e+00 9.9997952677048429e-01 4.2000000000000000e+03 4.0000000000000000e+00 1.0000000000000000e+01 2.5000000000000000e+00 
65 2 4 2.2559723595316457e+00 9.7087661825886640e-01 4.2000000000000000e+03 6.0000000000000000e+00 8.0000000000000000e+00 2.5000000000000000e+00 
66 2 4 2.2559723595316457e+00 9.9993246323474705e-01 4.2000000000000000e+03 6.0000000000000000e+00 1.0000000000000000e+01 2.5000000000000000e+00 
85 2 4 2.2559723595316457e+00 1.0001138241467697e+00 4.2000000000000000e+03 8.0000000000000000e+00 8.0000000000000000e+00 2.5000000000000000e+00 
86 2 4 2.2559723595316457e+00 9.9963114784905227e-01 4.2000000000000000e+03 8.0000000000000000e+00 1.0000000000000000e+01 2.5000000000000000e+00 
105 2 4 2.2559723595316457e+00 1.0003578884892543e+00 4.2000000000000000e+03 1.0000000000000000e+01 8.0000000000000000e+00 2.5000000000000000e+00 
106 2 4 2.2559723595316457e+00 1.6726837094731721e+00 4.2000000000000000e+03 1.0000000000000000e+01 1.0000000000000000e+01 2.5000000000000000e+00 
125 2 4 2.2559723595316457e+00 2.6587327741454372e+00 4.2000000000000000e+03 1.2000000000000000e+01 8.0000000000000000e+00 2.5000000000000000e+00 
126 2 4 2.2559723595316457e+00 1.1786141836188200e+01 4.2000000000000000e+03 1.2000000000000000e+01 1.0000000000000000e+01 2.5000000000000000e+00 
145 2 4 2.2559723595316457e+00 -1.9633008893314019e+02 4.2000000000000000e+03 1.4000000000000000e+01 8.0000000000000000e+00 2.5000000000000000e+00 
146 2 4 2.2559723595316457e+00 -1.0866162674442662e+03 4.2000000000000000e+03 1.4000000000000000e+01 1.0000000000000000e+01 2.5000000000000000e+00 
165 2 4 2.2559723595316457e+00 -1.0427255128192164e+03 4.2000000000000000e+03 1.6000000000000000e+01 8.0000000000000000e+00 2.5000000000000000e+00 
166 2 4 2.2559723595316457e+00 -4.1810279947069721e+03 4.2000000000000000e+03 1.6000000000000000e+01 1.0000000000000000e+01 2.5000000000000000e+00 
185 2 4 2.2559723595316457e+00 -1.3493671489660644e+03 4.2000000000000000e+03 1.8000000000000000e+01 8.0000000000000000e+00 2.5000000000000000e+00 
186 2 4 2.2559723595316457e+00 -5.3616630836344866e+03 4.2000000000000000e+03 1.8000000000000000e+01 1.0000000000000000e+01 2.5000000000000000e+00 
7 2 4 2.2559723595316457e+00 7.9165611626233590e-01 4.2000000000000000e+03 0.0000000000000000e+00 1.2000000000000000e+01 2.5000000000000000e+00 
8 2 4 2.2559723595316457e+00 -1.0731531361608614e+01 4.2000000000000000e+03 0.0000000000000000e+00 1.4000000000000000e+01 2.5000000000000000e+00 
27 2 4 2.2559723595316457e+00 1.0012576151760264e+00 4.2000000000000000e+03 2.0000000000000000e+00 1.2000000000000000e+01 2.5000000000000000e+00 
28 2 4 2.2559723595316457e+00 -1.2452098207417237e+00 4.2000000000000000e+03 2.0000000000000000e+00 1.4000000000000000e+01 2.5000000000000000e+00 
47 2 4 2.2559723595316457e+00 1.0011382537267819e+00 4.2000000000000000e+03 4.0000000000000000e+00 1.2000000000000000e+01 2.5000000000000000e+00 
48 2 4 2.2559723595316457e+00 9.8998440109756847e-01 4.2000000000000000e+03 4.0000000000000000e+00 1.4000000000000000e+01 2.5000000000000000e+00 
67 2 4 2.2559723595316457e+00 9.9733039896516384e-01 4.2000000000000000e+03 6.0000000000000000e+00 1.2000000000000000e+01 2.5000000000000000e+00 
68 2 4 2.2559723595316457e+00 1.0007269497591824e+00 4.2000000000000000e+03 6.0000000000000000e+00 1.4000000000000000e+01 2.5000000000000000e+00 
87 2 4 2.2559723595316457e+00 1.9337225654189965e+00 4.2000000000000000e+03 8.0000000000000000e+00 1.2000000000000000e+01 2.5000000000000000e+00 
88 2 4 2.2559723595316457e+00 -1.9302878442065436e+00 4.2000000000000000e+03 8.0000000000000000e+00 1.4000000000000000e+01 2.5000000000000000e+00 
107 2 4 2.2559723595316457e+00 8.4878943214489730e+00 4.2000000000000000e+03 1.0000000000000000e+01 1.2000000000000000e+01 2.5000000000000000e+00 
108 2 4 2.2559723595316457e+00 -1.2724356850755429e+01 4.2000000000000000e+03 1.0000000000000000e+01 1.4000000000000000e+01 2.5000000000000000e+00 
127 2 4 2.2559723595316457e+00 1.7688789639525663e+01 4.2000000000000000e+03 1.2000000000000000e+01 1.2000000000000000e+01 2.5000000000000000e+00 
128 2 4 2.2559723595316457e+00 1.7344525275769886e+01 4.2000000000000000e+03 1.2000000000000000e+01 1.4000000000000000e+01 2.5000000000000000e+00 
147 2 4 2.2559723595316457e+00 -1.3349622053501782e+03 4.2000000000000000e+03 1.4000000000000000e+01 1.2000000000000000e+01 2.5000000000000000e+00 
148 2 4 2.2559723595316457e+00 -1.2774471490180340e+03 4.2000000000000000e+03 1.4000000000000000e+01 1.4000000000000000e+01 2.5000000000000000e+00 
167 2 4 2.2559723595316457e+00 -5.2473180766785845e+03 4.2000000000000000e+03 1.6000000000000000e+01 1.2000000000000000e+01 2.5000000000000000e+00 
168 2 4 2.2559723595316457e+00 -5.0713262987666503e+03 4.2000000000000000e+03 1.6000000000000000e+01 1.4000000000000000e+01 2.5000000000000000e+00 
187 2 4 2.2559723595316457e+00 -6.5963306194669212e+03 4.2000000000000000e+03 1.8000000000000000e+01 1.2000000000000000e+01 2.5000000000000000e+00 
188 2 4 2.2559723595316457e+00 -6.4350103213731745e+03 4.2000000000000000e+03 1.8000000000000000e+01 1.4000000000000000e+01 2.5000000000000000e+00 
9 2 4 2.2559723595316457e+00 -1.3592484384453778e+02 4.2000000000000000e+03 0.0000000000000000e+00 1.6000000000000000e+01 2.5000000000000000e+00 
10 2 4 2.2559723595316457e+00 -3.1076339781798572e+02 4.2000000000000000e+03 0.0000000000000000e+00 1.8000000000000000e+01 2.5000000000000000e+00 
29 2 4 2.2559723595316457e+00 -1.7265057037564045e+01 4.2000000000000000e+03 2.0000000000000000e+00 1.6000000000000000e+01 2.5000000000000000e+00 
30 2 4 2.2559723595316457e+00 -1.6666265512698256e+01 4.2000000000000000e+03 2.0000000000000000e+00 1.8000000000000000e+01 2.5000000000000000e+00 
49 2 4 2.2559723595316457e+00 -6.9997952975812607e+00 4.2000000000000000e+03 4.0000000000000000e+00 1.6000000000000000e+01 2.5000000000000000e+00 
50 2 4 2.2559723595316457e+00 -4.6141616632804130e+01 4.2000000000000000e+03 4.0000000000000000e+00 1.8000000000000000e+01 2.5000000000000000e+00 
69 2 4 2.2559723595316457e+00 -1.7662311855857435e+01 4.2000000000000000e+03 6.0000000000000000e+00 1.6000000000000000e+01 2.5000000000000000e+00 
70 2 4 2.2559723595316457e+00 -7.7869511960942901e+01 4.2000000000000000e+03 6.0000000000000000e+00 1.8000000000000000e+01 2.5000000000000000e+00 
89 2 4 2.2559723595316457e+00 -2.8587387187999351e+01 4.2000000000000000e+03 8.0000000000000000e+00 1.6000000000000000e+01 2.5000000000000000e+00 
90 2 4 2.2559723595316457e+00 -3.3264885571812499e+01 4.2000000000000000e+03 8.0000000000000000e+00 1.8000000000000000e+01 2.5000000000000000e+00 
109 2 4 2.2559723595316457e+00 -7.3594474541104518e+01 4.2000000000000000e+03 1.0000000000000000e+01 1.6000000000000000e+01 2.5000000000000000e+00 
110 2 4 2.2559723595316457e+00 -3.7226780022470017e+01 4.2000000000000000e+03 1.0000000000000000e+01 1.8000000000000000e+01 2.5000000000000000e+00 
129 2 4 2.2559723595316457e+00 -1.1100586303739142e+02 4.2000000000000000e+03 1.2000000000000000e+01 1.6000000000000000e+01 2.5000000000000000e+00 
130 2 4 2.2559723595316457e+00 -1.5825468815604503e+02 4.2000000000000000e+03 1.2000000000000000e+01 1.8000000000000000e+01 2.5000000000000000e+00 
149 2 4 2.2559723595316457e+00 -1.4252314685259714e+03 4.2000000000000000e+03 1.4000000000000000e+01 1.6000000000000000e+01 2.5000000000000000e+00 
150 2 4 2.2559723595316457e+00 -1.5856481605709068e+03 4.2000000000000000e+03 1.4000000000000000e+01 1.8000000000000000e+01 2.5000000000000000e+00 
169 2 4 2.2559723595316457e+00 -5.0167867005602648e+03 4.2000000000000000e+03 1.6000000000000000e+01 1.6000000000000000e+01 2.5000000000000000e+00 
170 2 4 2.2559723595316457e+00 -5.0822265535075985e+03 4.2000000000000000e+03 1.6000000000000000e+01 1.8000000000000000e+01 2.5000000000000000e+00 
189 2 4 2.2559723595316457e+00 -6.3077423707919106e+03 4.2000000000000000e+03 1.8000000000000000e+01 1.6000000000000000e+01 2.5000000000000000e+00 
190 2 4 2.2559723595316457e+00 -6.2666818757727369e+03 4.2000000000000000e+03 1.8000000000000000e+01 1.8000000000000000e+01 2.5000000000000000e+00 
495 97 2 1.0279996969146090e+00 1.3344569025142750e+04 4.2000000000000000e+03 1.4954650001058610e+01 1.7484535699968212e+01 5.7858026208484091e+01 
1553 1155 2 1.0280003537194229e+00 1.1772505446197059e+05 4.2000000000000000e+03 1.4826637111209237e+01 1.8151028264475123e+01 5.8131604765774760e+01 
555 157 2 1.0280011617786888e+00 -2.9108402648485549e+04 4.2000000000000000e+03 1.7589284709881156e+01 1.9081340278672595e+01 5.7578033797109804e+01 
1937 1539 2 1.0280003013084333e+00 4.9510601821540949e+04 4.2000000000000000e+03 1.7915956279786915e+01 1.9292194348129481e+01 5.7883066001421689e+01 
483 85 2 1.0280006045154386e+00 5.8310848980181407e+04 4.2000000000000000e+03 1.7918750933557593e+01 1.8534576628903398e+01 5.7915133088853338e+01 
534 136 2 1.0280004415781978e+00 -8.3856893858466526e+02 4.2000000000000000e+03 1.7973756083014990e+01 1.8637009567538993e+01 5.7957507440101352e+01 
988 590 2 1.0280008714950424e+00 5.2281823328385282e+04 4.2000000000000000e+03 1.4911670940457595e+01 1.6571979302959189e+01 5.9418160484034239e+01 
562 164 2 1.0280008406014958e+00 4.2280467133837919e+03 4.2000000000000000e+03 1.4791737904489242e+01 1.6664751642221113e+01 5.9433403387475380e+01 
843 445 2 1.0279998170011462e+00 -7.4217999380962268e+04 4.2000000000000000e+03 1.4547590813367384e+01 1.6891787029093017e+01 5.8653452588803752e+01 
1751 1353 2 1.0280010586795649e+00 -1.1417926032436373e+04 4.2000000000000000e+03 1.5472817774072663e+01 1.6703995900492444e+01 5.9876714886539929e+01 
1330 932 2 1.0280005568363964e+00 -6.8922383489338856e+04 4.2000000000000000e+03 1.5323981383978563e+01 1.7609125638874300e+01 6.0166425829772258e+01 
1034 636 2 1.0279990426079395e+00 -1.2893299768829702e+05 4.2000000000000000e+03 1.8188358303240342e+01 1.9601666566735013e+01 5.8393860049964410e+01 
1829 1431 2 1.0279900221111282e+00 -1.0004246627484579e+04 4.2000000000000000e+03 1.7994786230168796e+01 1.8625556041664453e+01 6.1462986904014663e+01 
982 584 2 1.0279972757936546e+00 -5.1345454094878558e+04 4.2000000000000000e+03 1.8898263903071747e+01 1.7539103265065407e+01 6.2132431873801217e+01 
535 137 2 1.0280043674703894e+00 -2.5650934508697251e+03 4.2000000000000000e+03 1.8738635819810522e+01 1.8893098390844514e+01 6.5600154091264841e+01 
617 219 2 1.0280002814664668e+00 5.5800504165302664e+04 4.2000000000000000e+03 1.8663004929581000e+01 1.7367502054709142e+01 6.4551212469758823e+01 
1838 1440 2 1.0280003761738259e+00 -2.6949536130190238e+04 4.2000000000000000e+03 1.9819879397450734e+01 1.7284503930105721e+01 6.4844568894300977e+01 
1597 1199 2 1.0280003678090890e+00 2.9351606828924592e+04 4.2000000000000000e+03 1.9825749280003141e+01 1.7283715252566921e+01 6.4841582161455236e+01 
1951 1553 2 1.0280004075081466e+00 7.0510847470105131e+04 4.2000000000000000e+03 1.9832460197510507e+01 1.7303937716335941e+01 6.4855424226319741e+01 
1661 1263 2 1.0280000115152426e+00 9.2094083120156629e+03 4.2000000000000000e+03 1.1384198423641822e+01 2.1244041695701084e+00 7.8936345162198833e+01 
2028 1630 2 1.0279998715785441e+00 7.8613204743180948e+04 4.2000000000000000e+03 1.0792269878135958e+01 2.9522138376224243e+00 7.9147334282931922e+01 
886 488 2 1.0279961509723958e+00 -1.0224271534681811e+05 4.2000000000000000e+03 1.8559965058867299e+01 7.5451792226774508e+00 7.8888324796228119e+01 
1683 1285 2 1.0279975332486520e+00 -7.6149497374904735e+04 4.2000000000000000e+03 1.8732809504627593e+01 9.7958804663054213e+00 7.6965513914640013e+01 
1203 805 2 1.0279993478229947e+00 -4.6394852375277835e+04 4.2000000000000000e+03 1.8936104888106325e+01 1.0264204343129027e+01 7.6487085281459940e+01 
839 441 2 1.0279989706086134e+00 -6.3133717795348610e+04 4.2000000000000000e+03 1.8778864128980345e+01 1.0130187246115561e+01 7.6687663262115535e+01 
2063 1665 2 1.0279995920404210e+00 -8.9366728004119323e+03 4.2000000000000000e+03 1.9087054244748462e+01 1.0386205975619662e+01 7.6337306078472380e+01 
1902 1504 2 1.0279996883218792e+00 1.8831971825553646e+04 4.2000000000000000e+03 1.8703126655024040e+01 1.0310280014065762e+01 7.6672187646487686e+01 
943 545 2 1.0279991058773108e+00 -7.5710590189648647e+04 4.2000000000000000e+03 1.8261727133361909e+01 1.4481966936737933e+01 7.8417869185826760e+01 
739 341 2 1.0280006525371110e+00 5.3249345212744745e+04 4.2000000000000000e+03 1.7431897706844651e+01 1.5508379966064371e+01 7.8825538645724194e+01 
1990 1592 2 1.0279980586564292e+00 6.6893327699118701e+04 4.2000000000000000e+03 1.7706293474859798e+01 1.3784642538851438e+01 7.9110178554356054e+01 
1117 719 2 1.0280037217348219e+00 4.1585521900579821e+04 4.2000000000000000e+03 1.6731972137914013e+01 1.9621837545721199e+01 7.7263759534862558e+01 
506 108 2 1.0280093366419358e+00 1.1250866085132997e+04 4.2000000000000000e+03 1.9892830982266410e+01 1.8801575215399506e+01 7.8527885797337092e+01 
1207 809 2 1.0279997186079128e+00 -2.8411844809702507e+04 4.2000000000000000e+03 9.6358844976000633e+00 1.2907263428566265e+00 8.1635870831071230e+01 
462 64 2 1.0280000043489046e+00 3.0021022352431803e+04 4.2000000000000000e+03 1.0015757988735468e+01 2.5915102132939540e+00 8.1230778937284299e+01 
1378 980 2 1.0279999016883992e+00 -1.1679870326515843e+05 4.2000000000000000e+03 1.0372000775313381e+01 3.0145840557278998e+00 7.9498437609920387e+01 
469 71 2 1.0279996078442115e+00 6.4733687518994273e+04 4.2000000000000000e+03 1.0029970683101903e+01 4.3643137510636848e-01 7.9449777377318028e+01 
730 332 2 1.0279998886605053e+00 -6.3384529638391912e+04 4.2000000000000000e+03 1.0576177209029376e+01 1.5631996121289973e+00 8.3112436283283827e+01 
694 296 2 1.0279992095438970e+00 -5.5258841748734972e+04 4.2000000000000000e+03 1.1786681958760777e+01 3.8777340078006413e+00 7.9654342422281132e+01 
1973 1575 2 1.0280008352981802e+00 9.3614957488324624e+04 4.2000000000000000e+03 1.3241463439623933e+01 7.2426985312393399e-01 8.1314468268206298e+01 
481 83 2 1.0280039756685155e+00 8.9854266162154367e+04 4.2000000000000000e+03 1.4279042874854428e+01 1.2631596511400275e-01 8.2409974250914985e+01 
1197 799 2 1.0279973066973322e+00 6.0975688207614046e+04 4.2000000000000000e+03 1.5729437070016299e+01 3.2245123623066481e+00 8.2301595579369675e+01 
1071 673 2 1.0280002169316014e+00 3.6371531437359110e+04 4.2000000000000000e+03 1.9117719783754321e+01 1.4301063259750353e+00 8.1408289711240741e+01 
1507 1109 2 1.0279913776782654e+00 -7.9813419328194956e+04 4.2000000000000000e+03 1.8124903499445146e+01 3.8122629900160425e+00 8.1912666201142500e+01 
412 14 2 1.0279990689243379e+00 1.0017937487408005e+05 4.2000000000000000e+03 1.7282124711618859e+01 3.4762886648818947e-01 8.0975412225629256e+01 
1874 1476 2 1.0280002121898169e+00 -2.9634637363752652e+04 4.2000000000000000e+03 1.9069004813946822e+01 1.2609854723515441e+00 8.1274564263235547e+01 
912 514 2 1.0280002855296515e+00 1.7178317709277431e+04 4.2000000000000000e+03 1.9369509031053646e+01 1.3520512412616115e+00 8.1551743168539048e+01 
559 161 2 1.0280127847399003e+00 7.5271094879833117e+03 4.2000000000000000e+03 1.7387723521634712e+01 3.5530869352969581e+00 8.3205039655297924e+01 
908 510 2 1.0279989454400567e+00 1.3166591367278798e+05 4.2000000000000000e+03 1.2083165411251809e+01 4.0422086672894046e+00 7.9805354120405454e+01 
1234 836 2 1.0279992383609344e+00 -8.4090245021611830e+04 4.2000000000000000e+03 1.3460586869102654e+01 5.2996455068071375e+00 8.0388282983644714e+01 
960 562 2 1.0279997960818077e+00 4.4892511387795224e+04 4.2000000000000000e+03 1.3597727812550140e+01 5.8424993880822234e+00 8.0518810583920683e+01 
1410 1012 2 1.0280002118403191e+00 1.6311000357651106e+04 4.2000000000000000e+03 1.4450014961632602e+01 7.4525332005986513e+00 8.1437671271614349e+01 
1941 1543 2 1.0280006049809103e+00 3.8969240725265649e+04 4.2000000000000000e+03 1.3166916548611699e+01 5.9931246619166654e+00 8.2366879361280269e+01 
991 593 2 1.0279996389660058e+00 -2.4417921350006556e+04 4.2000000000000000e+03 1.5425103264585726e+01 7.0505705918894703e+00 8.0635201299186392e+01 
1345 947 2 1.0279990841767528e+00 3.3944649646924037e+04 4.2000000000000000e+03 1.2799973070771916e+01 4.7013367206962124e+00 8.2785192183734338e+01 
690 292 2 1.0280014970449618e+00 -5.5675074131362220e+04 4.2000000000000000e+03 1.3848090529225603e+01 7.2468907463226060e+00 8.2635051674295099e+01 
1202 804 2 1.0279992470444308e+00 -4.7614288280863831e+04 4.2000000000000000e+03 1.6171755270203239e+01 4.7320632331142365e+00 8.1153967691807125e+01 
904 506 2 1.0279996248183307e+00 4.9580744295578312e+04 4.2000000000000000e+03 1.7947894442756233e+01 6.4851774563858271e+00 7.9750989720970892e+01 
850 452 2 1.0279996093153860e+00 -7.3675918104983532e+04 4.2000000000000000e+03 1.7956930077280504e+01 6.5051015317953542e+00 7.9736453512776535e+01 
494 96 2 1.0279999579898220e+00 1.6584062087440587e+04 4.2000000000000000e+03 1.9876302022922591e+01 6.8808565528441390e+00 7.9408910515766820e+01 
2080 1682 2 1.0279990692783483e+00 3.3329401471782905e+04 4.2000000000000000e+03 1.9984763358140693e+01 7.2624261137711006e+00 7.9282220294910331e+01 
602 204 2 1.0279974524108424e+00 -7.1998161866231036e+04 4.2000000000000000e+03 1.5568942174639844e+01 8.5858908534575793e+00 8.2097827140348386e+01 
445 47 2 1.0279999206743637e+00 5.7478671035780477e+04 4.2000000000000000e+03 1.5354922510625894e+01 1.1871381148803726e+01 8.2119277386731582e+01 
760 362 2 1.0279993104373431e+00 2.1772726132571050e+04 4.2000000000000000e+03 1.5842483192358880e+01 1.1943424696198990e+01 8.1603972941143880e+01 
1922 1524 2 1.0279995807764808e+00 2.5532177608850146e+04 4.2000000000000000e+03 1.4484711323376471e+01 1.0985264684825617e+01 8.3097282666006876e+01 
1946 1548 2 1.0280041571517093e+00 3.9874909886481379e+04 4.2000000000000000e+03 1.8995371429854234e+01 9.2785705348964793e+00 8.1128314799082887e+01 
1145 747 2 1.0280027800486367e+00 1.2595971057650939e+04 4.2000000000000000e+03 1.8451931226729279e+01 1.1323745044555190e+01 8.0730164055438522e+01 
1668 1270 2 1.0279999322838209e+00 2.7024470239347549e+04 4.2000000000000000e+03 1.8740163559166309e+01 1.1694378763857582e+01 8.0709639809439892e+01 
1641 1243 2 1.0279984602214649e+00 4.7461115471484802e+04 4.2000000000000000e+03 1.7223733198344902e+01 9.3086308043527275e+00 8.1850312651256019e+01 
755 357 2 1.0280002300800324e+00 -5.5607940053630518e+04 4.2000000000000000e+03 1.5233468978018772e+01 1.3695805634653860e+01 8.2886247751964461e+01 
1473 1075 2 1.0279984575888150e+00 7.1547544317064539e+03 4.2000000000000000e+03 1.6193307076383373e+01 1.2112001704049288e+01 8.1208565604521127e+01 
776 378 2 1.0279977938834810e+00 3.2414787359015401e+04 4.2000000000000000e+03 1.7606535777163767e+01 1.3679657501977378e+01 7.9266683761879634e+01 
1745 1347 2 1.0279993475483089e+00 1.1242651741637700e+05 4.2000000000000000e+03 9.4338106254645329e+00 1.8921138707470753e+01 7.9499130472206602e+01 
887 489 2 1.0280003712946642e+00 -1.0055450529892965e+05 4.2000000000000000e+03 8.4109014825299724e+00 1.8954621298752532e+01 7.9781269347887516e+01 
2071 1673 2 1.0280006499092953e+00 8.0845692260403230e+03 4.2000000000000000e+03 8.3727674390649227e+00 1.9061738891553109e+01 8.0100681518530962e+01 
2006 1608 2 1.0280006540087254e+00 1.8658634033714137e+04 4.2000000000000000e+03 8.2959052943412868e+00 1.9098283957704783e+01 7.9721091337901001e+01 
970 572 2 1.0280007482703333e+00 -1.1420791322938129e+05 4.2000000000000000e+03 8.2644504230968323e+00 1.9153934755455900e+01 7.9708460598918876e+01 
1462 1064 2 1.0280008631723843e+00 -7.0967020025405698e+04 4.2000000000000000e+03 8.7070940787226174e+00 1.9599778825336902e+01 8.0702558106788061e+01 
1479 1081 2 1.0279981711032737e+00 -4.8951877197259877e+04 4.2000000000000000e+03 1.5427960197392071e+01 1.9956504936535719e+01 8.2444482218824774e+01 
1765 1367 2 1.0279997880308458e+00 -1.0866873921968250e+04 4.2000000000000000e+03 1.4682499091087740e+01 1.8960070623847116e+01 8.3083765884684141e+01 
578 180 2 1.0279999243085622e+00 -6.5960554679737863e+04 4.2000000000000000e+03 1.4283016619940680e+01 1.8838063206448073e+01 8.3317000996263104e+01 
1965 1567 2 1.0280006952033329e+00 3.8265024826368353e+04 4.2000000000000000e+03 1.6946872656915165e+01 1.6335028879399637e+01 7.9919012241760996e+01 
1694 1296 2 1.0279934281983467e+00 -5.4050301219659734e+04 4.2000000000000000e+03 1.7277893641307326e+01 1.8536466552066489e+01 7.9176949325274407e+01 
1502 1104 2 1.0280008170608503e+00 -9.8507042375088204e+04 4.2000000000000000e+03 1.6960639485191052e+01 1.7158102029871074e+01 8.0209801197454595e+01 
802 404 2 1.0279970724620731e+00 -2.6611896568935361e+04 4.2000000000000000e+03 1.7400758159597530e+01 1.7859053747982809e+01 8.0731746605654635e+01 
1504 1106 2 1.0279973023994087e+00 3.2390897196836540e+04 4.2000000000000000e+03 1.7446648647206381e+01 1.7835683557992386e+01 8.0746264343686192e+01 
832 434 2 1.0279998232454517e+00 3.3566502009433192e+04 4.2000000000000000e+03 2.4982893772599231e+00 1.0842907643440750e-01 8.5588364953061031e+01 
1101 703 2 1.0279997560941714e+00 2.0021613320534860e+04 4.2000000000000000e+03 2.5406702553119769e+00 3.2658452825070289e-01 8.5883917817978116e+01 
1944 1546 2 1.0279997305829800e+00 4.0614235195060472e+04 4.2000000000000000e+03 2.4014374160872309e+00 6.1038667414424186e-01 8.6336064987924587e+01 
636 238 2 1.0279999317151753e+00 4.4339452768622350e+03 4.2000000000000000e+03 6.0438030094316959e+00 2.2242748203041880e+00 8.6426745672866360e+01 
695 297 2 1.0280000346845706e+00 -5.7337913044425986e+04 4.2000000000000000e+03 5.6827810394405711e+00 3.3160678410113893e+00 8.6270659772992545e+01 
677 279 2 1.0279982840443942e+00 -8.0326491576955159e+03 4.2000000000000000e+03 8.0036852525792916e+00 8.4463703839830251e-01 8.5637708216176577e+01 
1068 670 2 1.0279997861965890e+00 1.2192110536294007e+04 4.2000000000000000e+03 8.2711829054036805e+00 1.1803387459849328e+00 8.5306180791574675e+01 
1329 931 2 1.0280007359574566e+00 2.2670150262893989e+04 4.2000000000000000e+03 8.3872724647009989e+00 1.9954459000323121e+00 8.5027698829807932e+01 
1984 1586 2 1.0280005842904594e+00 6.2371960017726175e+04 4.2000000000000000e+03 9.4112655823140923e+00 3.2929350886466264e+00 8.4775521312947276e+01 
1656 1258 2 1.0279989364545465e+00 9.8640916078202899e+03 4.2000000000000000e+03 1.0477699678716251e+01 1.4964728773393638e+00 8.7458597397778433e+01 
785 387 2 1.0280016983687630e+00 2.8291620545268830e+04 4.2000000000000000e+03 1.2904697714177811e+01 2.2154778645453268e+00 8.3910712200927719e+01 
699 301 2 1.0280028622111144e+00 -2.7984965928453548e+04 4.2000000000000000e+03 1.4619836682194178e+01 3.8915643645001610e+00 8.5223515789372541e+01 
1736 1338 2 1.0280026321759270e+00 3.5434954745779905e+04 4.2000000000000000e+03 1.3037232794477655e+01 1.3666057211279545e+00 8.4129294178937755e+01 
1040 642 2 1.0279893070865385e+00 4.9187460843567314e+04 4.2000000000000000e+03 1.4778023912788637e+01 1.3275240999917561e+00 8.4239810166778028e+01 