LAMMPS data file via write_data, version 30 Jul 2016, timestep = 1000000

2080 atoms
8 atom types

0.0000000000000000e+00 4.0000000000000000e+01 xlo xhi
0.0000000000000000e+00 4.0000000000000000e+01 ylo yhi
0.0000000000000000e+00 1.0000000000000000e+02 zlo zhi

Masses

1 3.896
2 4.306
3 20.064
4 8.378
5 8.378
6 8.378
7 8.378
8 8.378

Atoms # meso-molecular

1 2 4 2.2559723595316457e+00 0.0000000000000000e+00 1.0000000000000000e+00 0.0000000000000000e+00 0.0000000000000000e+00 2.5000000000000000e+00 
2 2 4 2.2559723595316457e+00 0.0000000000000000e+00 1.0000000000000000e+00 0.0000000000000000e+00 2.0000000000000000e+00 2.5000000000000000e+00 
3 2 4 2.2559723595316457e+00 0.0000000000000000e+00 1.0000000000000000e+00 0.0000000000000000e+00 4.0000000000000000e+00 2.5000000000000000e+00 
21 2 4 2.2559723595316457e+00 0.0000000000000000e+00 1.0000000000000000e+00 2.0000000000000000e+00 0.0000000000000000e+00 2.5000000000000000e+00 
22 2 4 2.2559723595316457e+00 0.0000000000000000e+00 1.0000000000000000e+00 2.0000000000000000e+00 2.0000000000000000e+00 2.5000000000000000e+00 
23 2 4 2.2559723595316457e+00 0.0000000000000000e+00 1.0000000000000000e+00 2.0000000000000000e+00 4.0000000000000000e+00 2.5000000000000000e+00 
41 2 4 2.2559723595316457e+00 0.0000000000000000e+00 1.0000000000000000e+00 4.0000000000000000e+00 0.0000000000000000e+00 2.5000000000000000e+00 
42 2 4 2.2559723595316457e+00 0.0000000000000000e+00 1.0000000000000000e+00 4.0000000000000000e+00 2.0000000000000000e+00 2.5000000000000000e+00 
43 2 4 2.2559723595316457e+00 0.0000000000000000e+00 1.0000000000000000e+00 4.0000000000000000e+00 4.0000000000000000e+00 2.5000000000000000e+00 
61 2 4 2.2559723595316457e+00 0.0000000000000000e+00 1.0000000000000000e+00 6.0000000000000000e+00 0.0000000000000000e+00 2.5000000000000000e+00 
62 2 4 2.2559723595316457e+00 0.0000000000000000e+00 1.0000000000000000e+00 6.0000000000000000e+00 2.0000000000000000e+00 2.5000000000000000e+00 
63 2 4 2.2559723595316457e+00 0.0000000000000000e+00 1.0000000000000000e+00 6.0000000000000000e+00 4.0000000000000000e+00 2.5000000000000000e+00 
81 2 4 2.2559723595316457e+00 0.0000000000000000e+00 1.0000000000000000e+00 8.0000000000000000e+00 0.0000000000000000e+00 2.5000000000000000e+00 
82 2 4 2.2559723595316457e+00 0.0000000000000000e+00 1.0000000000000000e+00 8.0000000000000000e+00 2.0000000000000000e+00 2.5000000000000000e+00 
83 2 4 2.2559723595316457e+00 0.0000000000000000e+00 1.0000000000000000e+00 8.0000000000000000e+00 4.0000000000000000e+00 2.5000000000000000e+00 
101 2 4 2.2559723595316457e+00 0.0000000000000000e+00 1.0000000000000000e+00 1.0000000000000000e+01 0.0000000000000000e+00 2.5000000000000000e+00 
102 2 4 2.2559723595316457e+00 0.0000000000000000e+00 1.0000000000000000e+00 1.0000000000000000e+01 2.0000000000000000e+00 2.5000000000000000e+00 
103 2 4 2.2559723595316457e+00 0.0000000000000000e+00 1.0000000000000000e+00 1.0000000000000000e+01 4.0000000000000000e+00 2.5000000000000000e+00 
121 2 4 2.2559723595316457e+00 0.0000000000000000e+00 1.0000000000000000e+00 1.2000000000000000e+01 0.0000000000000000e+00 2.5000000000000000e+00 
122 2 4 2.2559723595316457e+00 0.0000000000000000e+00 1.0000000000000000e+00 1.2000000000000000e+01 2.0000000000000000e+00 2.5000000000000000e+00 
123 2 4 2.2559723595316457e+00 0.0000000000000000e+00 1.0000000000000000e+00 1.2000000000000000e+01 4.0000000000000000e+00 2.5000000000000000e+00 
141 2 4 2.2559723595316457e+00 0.0000000000000000e+00 1.0000000000000000e+00 1.4000000000000000e+01 0.0000000000000000e+00 2.5000000000000000e+00 
142 2 4 2.2559723595316457e+00 0.0000000000000000e+00 1.0000000000000000e+00 1.4000000000000000e+01 2.0000000000000000e+00 2.5000000000000000e+00 
143 2 4 2.2559723595316457e+00 0.0000000000000000e+00 1.0000000000000000e+00 1.4000000000000000e+01 4.0000000000000000e+00 2.5000000000000000e+00 
161 2 4 2.2559723595316457e+00 0.0000000000000000e+00 1.0000000000000000e+00 1.6000000000000000e+01 0.0000000000000000e+00 2.5000000000000000e+00 
162 2 4 2.2559723595316457e+00 0.0000000000000000e+00 1.0000000000000000e+00 1.6000000000000000e+01 2.0000000000000000e+00 2.5000000000000000e+00 
163 2 4 2.2559723595316457e+00 0.0000000000000000e+00 1.0000000000000000e+00 1.6000000000000000e+01 4.0000000000000000e+00 2.5000000000000000e+00 
181 2 4 2.2559723595316457e+00 0.0000000000000000e+00 1.0000000000000000e+00 1.8000000000000000e+01 0.0000000000000000e+00 2.5000000000000000e+00 
182 2 4 2.2559723595316457e+00 0.0000000000000000e+00 1.0000000000000000e+00 1.8000000000000000e+01 2.0000000000000000e+00 2.5000000000000000e+00 
183 2 4 2.2559723595316457e+00 0.0000000000000000e+00 1.0000000000000000e+00 1.8000000000000000e+01 4.0000000000000000e+00 2.5000000000000000e+00 
4 2 4 2.2559723595316457e+00 0.0000000000000000e+00 1.0000000000000000e+00 0.0000000000000000e+00 6.0000000000000000e+00 2.5000000000000000e+00 
5 2 4 2.2559723595316457e+00 0.0000000000000000e+00 1.0000000000000000e+00 0.0000000000000000e+00 8.0000000000000000e+00 2.5000000000000000e+00 
24 2 4 2.2559723595316457e+00 0.0000000000000000e+00 1.0000000000000000e+00 2.0000000000000000e+00 6.0000000000000000e+00 2.5000000000000000e+00 
25 2 4 2.2559723595316457e+00 0.0000000000000000e+00 1.0000000000000000e+00 2.0000000000000000e+00 8.0000000000000000e+00 2.5000000000000000e+00 
44 2 4 2.2559723595316457e+00 0.0000000000000000e+00 1.0000000000000000e+00 4.0000000000000000e+00 6.0000000000000000e+00 2.5000000000000000e+00 
45 2 4 2.2559723595316457e+00 0.0000000000000000e+00 1.0000000000000000e+00 4.0000000000000000e+00 8.0000000000000000e+00 2.5000000000000000e+00 
64 2 4 2.2559723595316457e+00 0.0000000000000000e+00 1.0000000000000000e+00 6.0000000000000000e+00 6.0000000000000000e+00 2.5000000000000000e+00 
65 2 4 2.2559723595316457e+00 0.0000000000000000e+00 1.0000000000000000e+00 6.0000000000000000e+00 8.0000000000000000e+00 2.5000000000000000e+00 
84 2 4 2.2559723595316457e+00 1.0921310588381853e-07 1.0000000000000000e+00 8.0000000000000000e+00 6.0000000000000000e+00 2.5000000000000000e+00 
85 2 4 2.2559723595316457e+00 2.1063119288131237e-08 1.0000000000000000e+00 8.0000000000000000e+00 8.0000000000000000e+00 2.5000000000000000e+00 
104 2 4 2.2559723595316457e+00 8.2874470589872595e-08 1.0000000000000000e+00 1.0000000000000000e+01 6.0000000000000000e+00 2.5000000000000000e+00 
105 2 4 2.2559723595316457e+00 2.0024288778682557e-05 1.0000000000000000e+00 1.0000000000000000e+01 8.0000000000000000e+00 2.5000000000000000e+00 
124 2 4 2.2559723595316457e+00 0.0000000000000000e+00 1.0000000000000000e+00 1.2000000000000000e+01 6.0000000000000000e+00 2.5000000000000000e+00 
125 2 4 2.2559723595316457e+00 -1.2793269538964628e+01 1.0000000000000000e+00 1.2000000000000000e+01 8.0000000000000000e+00 2.5000000000000000e+00 
144 2 4 2.2559723595316457e+00 -1.2795704278649065e+01 1.0000000000000000e+00 1.4000000000000000e+01 6.0000000000000000e+00 2.5000000000000000e+00 
145 2 4 2.2559723595316457e+00 -2.4748117593203690e+02 1.0000000000000000e+00 1.4000000000000000e+01 8.0000000000000000e+00 2.5000000000000000e+00 
164 2 4 2.2559723595316457e+00 -6.0354038103929526e+01 1.0000000000000000e+00 1.6000000000000000e+01 6.0000000000000000e+00 2.5000000000000000e+00 
165 2 4 2.2559723595316457e+00 -7.7014699907373938e+02 1.0000000000000000e+00 1.6000000000000000e+01 8.0000000000000000e+00 2.5000000000000000e+00 
184 2 4 2.2559723595316457e+00 -8.7598457850480969e+01 1.0000000000000000e+00 1.8000000000000000e+01 6.0000000000000000e+00 2.5000000000000000e+00 
185 2 4 2.2559723595316457e+00 -1.1187788287030351e+03 1.0000000000000000e+00 1.8000000000000000e+01 8.0000000000000000e+00 2.5000000000000000e+00 
6 2 4 2.2559723595316457e+00 0.0000000000000000e+00 1.0000000000000000e+00 0.0000000000000000e+00 1.0000000000000000e+01 2.5000000000000000e+00 
7 2 4 2.2559723595316457e+00 0.0000000000000000e+00 1.0000000000000000e+00 0.0000000000000000e+00 1.2000000000000000e+01 2.5000000000000000e+00 
8 2 4 2.2559723595316457e+00 0.0000000000000000e+00 1.0000000000000000e+00 0.0000000000000000e+00 1.4000000000000000e+01 2.5000000000000000e+00 
26 2 4 2.2559723595316457e+00 0.0000000000000000e+00 1.0000000000000000e+00 2.0000000000000000e+00 1.0000000000000000e+01 2.5000000000000000e+00 
27 2 4 2.2559723595316457e+00 0.0000000000000000e+00 1.0000000000000000e+00 2.0000000000000000e+00 1.2000000000000000e+01 2.5000000000000000e+00 
28 2 4 2.2559723595316457e+00 0.0000000000000000e+00 1.0000000000000000e+00 2.0000000000000000e+00 1.4000000000000000e+01 2.5000000000000000e+00 
46 2 4 2.2559723595316457e+00 0.0000000000000000e+00 1.0000000000000000e+00 4.0000000000000000e+00 1.0000000000000000e+01 2.5000000000000000e+00 
47 2 4 2.2559723595316457e+00 0.0000000000000000e+00 1.0000000000000000e+00 4.0000000000000000e+00 1.2000000000000000e+01 2.5000000000000000e+00 
48 2 4 2.2559723595316457e+00 0.0000000000000000e+00 1.0000000000000000e+00 4.0000000000000000e+00 1.4000000000000000e+01 2.5000000000000000e+00 
66 2 4 2.2559723595316457e+00 0.0000000000000000e+00 1.0000000000000000e+00 6.0000000000000000e+00 1.0000000000000000e+01 2.5000000000000000e+00 
67 2 4 2.2559723595316457e+00 0.0000000000000000e+00 1.0000000000000000e+00 6.0000000000000000e+00 1.2000000000000000e+01 2.5000000000000000e+00 
68 2 4 2.2559723595316457e+00 2.2024098943118896e-04 1.0000000000000000e+00 6.0000000000000000e+00 1.4000000000000000e+01 2.5000000000000000e+00 
86 2 4 2.2559723595316457e+00 0.0000000000000000e+00 1.0000000000000000e+00 8.0000000000000000e+00 1.0000000000000000e+01 2.5000000000000000e+00 
87 2 4 2.2559723595316457e+00 0.0000000000000000e+00 1.0000000000000000e+00 8.0000000000000000e+00 1.2000000000000000e+01 2.5000000000000000e+00 
88 2 4 2.2559723595316457e+00 -1.8986525669815530e-04 1.0000000000000000e+00 8.0000000000000000e+00 1.4000000000000000e+01 2.5000000000000000e+00 
106 2 4 2.2559723595316457e+00 1.0303008457928323e-07 1.0000000000000000e+00 1.0000000000000000e+01 1.0000000000000000e+01 2.5000000000000000e+00 
107 2 4 2.2559723595316457e+00 0.0000000000000000e+00 1.0000000000000000e+00 1.0000000000000000e+01 1.2000000000000000e+01 2.5000000000000000e+00 
108 2 4 2.2559723595316457e+00 0.0000000000000000e+00 1.0000000000000000e+00 1.0000000000000000e+01 1.4000000000000000e+01 2.5000000000000000e+00 
126 2 4 2.2559723595316457e+00 -6.0267444546357567e+01 1.0000000000000000e+00 1.2000000000000000e+01 1.0000000000000000e+01 2.5000000000000000e+00 
127 2 4 2.2559723595316457e+00 -8.7840260722214339e+01 1.0000000000000000e+00 1.2000000000000000e+01 1.2000000000000000e+01 2.5000000000000000e+00 
128 2 4 2.2559723595316457e+00 -9.3996993824396156e+01 1.0000000000000000e+00 1.2000000000000000e+01 1.4000000000000000e+01 2.5000000000000000e+00 
146 2 4 2.2559723595316457e+00 -7.6890476488976583e+02 1.0000000000000000e+00 1.4000000000000000e+01 1.0000000000000000e+01 2.5000000000000000e+00 
147 2 4 2.2559723595316457e+00 -1.1242671946855830e+03 1.0000000000000000e+00 1.4000000000000000e+01 1.2000000000000000e+01 2.5000000000000000e+00 
148 2 4 2.2559723595316457e+00 -1.2012484187945913e+03 1.0000000000000000e+00 1.4000000000000000e+01 1.4000000000000000e+01 2.5000000000000000e+00 
166 2 4 2.2559723595316457e+00 -2.1876683977286089e+03 1.0000000000000000e+00 1.6000000000000000e+01 1.0000000000000000e+01 2.5000000000000000e+00 
167 2 4 2.2559723595316457e+00 -3.1503164660255002e+03 1.0000000000000000e+00 1.6000000000000000e+01 1.2000000000000000e+01 2.5000000000000000e+00 
168 2 4 2.2559723595316457e+00 -3.3391461788240395e+03 1.0000000000000000e+00 1.6000000000000000e+01 1.4000000000000000e+01 2.5000000000000000e+00 
186 2 4 2.2559723595316457e+00 -3.1346075939123862e+03 1.0000000000000000e+00 1.8000000000000000e+01 1.0000000000000000e+01 2.5000000000000000e+00 
187 2 4 2.2559723595316457e+00 -4.4678068073238474e+03 1.0000000000000000e+00 1.8000000000000000e+01 1.2000000000000000e+01 2.5000000000000000e+00 
188 2 4 2.2559723595316457e+00 -4.6942082347921714e+03 1.0000000000000000e+00 1.8000000000000000e+01 1.4000000000000000e+01 2.5000000000000000e+00 
9 2 4 2.2559723595316457e+00 0.0000000000000000e+00 1.0000000000000000e+00 0.0000000000000000e+00 1.6000000000000000e+01 2.5000000000000000e+00 
10 2 4 2.2559723595316457e+00 0.0000000000000000e+00 1.0000000000000000e+00 0.0000000000000000e+00 1.8000000000000000e+01 2.5000000000000000e+00 
29 2 4 2.2559723595316457e+00 0.0000000000000000e+00 1.0000000000000000e+00 2.0000000000000000e+00 1.6000000000000000e+01 2.5000000000000000e+00 
30 2 4 2.2559723595316457e+00 0.0000000000000000e+00 1.0000000000000000e+00 2.0000000000000000e+00 1.8000000000000000e+01 2.5000000000000000e+00 
49 2 4 2.2559723595316457e+00 0.0000000000000000e+00 1.0000000000000000e+00 4.0000000000000000e+00 1.6000000000000000e+01 2.5000000000000000e+00 
50 2 4 2.2559723595316457e+00 0.0000000000000000e+00 1.0000000000000000e+00 4.0000000000000000e+00 1.8000000000000000e+01 2.5000000000000000e+00 
69 2 4 2.2559723595316457e+00 6.3885797781720963e-05 1.0000000000000000e+00 6.0000000000000000e+00 1.6000000000000000e+01 2.5000000000000000e+00 
70 2 4 2.2559723595316457e+00 0.0000000000000000e+00 1.0000000000000000e+00 6.0000000000000000e+00 1.8000000000000000e+01 2.5000000000000000e+00 
89 2 4 2.2559723595316457e+00 8.1955694507575999e-05 1.0000000000000000e+00 8.0000000000000000e+00 1.6000000000000000e+01 2.5000000000000000e+00 
90 2 4 2.2559723595316457e+00 9.6065877786206375e-05 1.0000000000000000e+00 8.0000000000000000e+00 1.8000000000000000e+01 2.5000000000000000e+00 
109 2 4 2.2559723595316457e+00 -1.2031094326264722e-05 1.0000000000000000e+00 1.0000000000000000e+01 1.6000000000000000e+01 2.5000000000000000e+00 
110 2 4 2.2559723595316457e+00 -5.8869870063698682e-06 1.0000000000000000e+00 1.0000000000000000e+01 1.8000000000000000e+01 2.5000000000000000e+00 
129 2 4 2.2559723595316457e+00 -9.4312874761963272e+01 1.0000000000000000e+00 1.2000000000000000e+01 1.6000000000000000e+01 2.5000000000000000e+00 
130 2 4 2.2559723595316457e+00 -9.4217798818212032e+01 1.0000000000000000e+00 1.2000000000000000e+01 1.8000000000000000e+01 2.5000000000000000e+00 
149 2 4 2.2559723595316457e+00 -1.2073990874233098e+03 1.0000000000000000e+00 1.4000000000000000e+01 1.6000000000000000e+01 2.5000000000000000e+00 
150 2 4 2.2559723595316457e+00 -1.2052568615450316e+03 1.0000000000000000e+00 1.4000000000000000e+01 1.8000000000000000e+01 2.5000000000000000e+00 
169 2 4 2.2559723595316457e+00 -3.3519951389256644e+03 1.0000000000000000e+00 1.6000000000000000e+01 1.6000000000000000e+01 2.5000000000000000e+00 
170 2 4 2.2559723595316519e+00 -3.3464382892825697e+03 1.0000000000000000e+00 1.6000000000000000e+01 1.8000000000000000e+01 2.5000000000000000e+00 
189 2 4 2.2559723595316457e+00 -4.7057861678698819e+03 1.0000000000000000e+00 1.8000000000000000e+01 1.6000000000000000e+01 2.5000000000000000e+00 
190 2 4 2.2559723595316457e+00 -4.6990258541879693e+03 1.0000000000000000e+00 1.8000000000000000e+01 1.8000000000000000e+01 2.5000000000000000e+00 
1521 1123 2 1.0280003241087514e+00 7.3513769483721962e+03 1.0000000000000000e+00 1.3803007181956998e+01 1.2147739266200734e+01 9.0160532230089103e+01 
1326 928 2 1.0280001431311561e+00 -5.9194732053508487e+03 1.0000000000000000e+00 1.3939932970616047e+01 1.2686432717679651e+01 8.9912187899067177e+01 
1800 1402 2 1.0280000615068263e+00 -3.8292374074822774e+03 1.0000000000000000e+00 1.4000271263129509e+01 1.3178651761930054e+01 8.9748622571340022e+01 
928 530 2 1.0280004465251600e+00 2.3944732814738563e+03 1.0000000000000000e+00 1.3233073450827497e+01 1.1827741166927936e+01 9.0441871523666720e+01 
2023 1625 2 1.0280003648463798e+00 -1.0669365039583750e+04 1.0000000000000000e+00 1.3236848223662539e+01 1.2263345928914582e+01 9.0195461048749877e+01 
1916 1518 2 1.0280003163970373e+00 -1.4691790470239635e+04 1.0000000000000000e+00 1.2791098687791003e+01 1.2191214000439247e+01 9.0420882041222129e+01 
1793 1395 2 1.0280002139900091e+00 -5.6559420086941145e+03 1.0000000000000000e+00 1.3405413900098560e+01 1.3468786228485600e+01 8.9642616718942534e+01 
563 165 2 1.0280001692487732e+00 1.7789093319972515e+03 1.0000000000000000e+00 1.3785036710963297e+01 1.3594551509365647e+01 8.9614466323237096e+01 
1321 923 2 1.0280003779338562e+00 -2.5026877803184470e+03 1.0000000000000000e+00 1.3239821597632799e+01 1.4263030605273951e+01 8.9426408332038591e+01 
1805 1407 2 1.0280002506668053e+00 -3.0708952642943077e+03 1.0000000000000000e+00 1.2644726841233528e+01 1.4313502784146353e+01 8.9487008453920097e+01 
641 243 2 1.0280004222270320e+00 -2.9464224548931993e+03 1.0000000000000000e+00 1.3311362508215106e+01 1.4424113057620554e+01 8.9388435273654281e+01 
919 521 2 1.0280001884077663e+00 9.2931398748206466e+03 1.0000000000000000e+00 1.2394407372579884e+01 1.4574775869299401e+01 8.9459800393009488e+01 
1601 1203 2 1.0280003357398007e+00 3.9176671937461501e+03 1.0000000000000000e+00 1.2745314797289829e+01 1.4642181397206329e+01 8.9358077948552008e+01 
1419 1021 2 1.0279999419980845e+00 -3.2479642846620673e+03 1.0000000000000000e+00 1.1912684445747574e+01 1.4702887014848050e+01 8.9601963807126836e+01 
2049 1651 2 1.0280003108783469e+00 -9.0148303847595234e+03 1.0000000000000000e+00 1.3834186503560295e+01 1.4141885809357222e+01 8.9503124001780037e+01 
450 52 2 1.0280003493414231e+00 -5.2412587705470205e+03 1.0000000000000000e+00 1.3790443713630539e+01 1.4229619232534263e+01 8.9479236938306087e+01 
1087 689 2 1.0280001151959270e+00 -6.6770853757943769e+03 1.0000000000000000e+00 1.4181735552538100e+01 1.3910413111400239e+01 8.9616634691976870e+01 
1575 1177 2 1.0280001839805393e+00 -2.6918779921319201e+03 1.0000000000000000e+00 1.4270857564517739e+01 1.4188392431531089e+01 8.9597333542704931e+01 
1659 1261 2 1.0280003534873969e+00 1.3698992345499760e+03 1.0000000000000000e+00 1.8678805792209651e+01 1.0428170089043995e+01 9.0424037937057676e+01 
1658 1260 2 1.0280003717198183e+00 1.3698705336695259e+03 1.0000000000000000e+00 1.9299264603492436e+01 1.0430481955908316e+01 9.0418290942019709e+01 
1348 950 2 1.0279991797678023e+00 -1.6166245505131797e+03 1.0000000000000000e+00 1.5176374145761537e+01 1.3043381817855229e+01 9.0055673583944355e+01 
911 513 2 1.0280008874101285e+00 -5.1491325889949012e+03 1.0000000000000000e+00 1.8453919204253602e+01 1.1939848566354170e+01 9.0186495122017490e+01 
910 512 2 1.0280009135206671e+00 -5.1492366366909509e+03 1.0000000000000000e+00 1.9580066380708594e+01 1.1928682560041567e+01 9.0147203299048414e+01 
1388 990 2 1.0280005609571969e+00 -2.3154997359475583e+03 1.0000000000000000e+00 1.9896267412320370e+01 1.2898751948000955e+01 8.9588955462768794e+01 
1385 987 2 1.0280005926486164e+00 -2.3154478096140574e+03 1.0000000000000000e+00 1.8183858044327707e+01 1.2929369792951821e+01 8.9676657451126360e+01 
1421 1023 2 1.0280007488223455e+00 7.6739207767616080e+01 1.0000000000000000e+00 1.8669599819523267e+01 1.1421762472442552e+01 9.0315879085391614e+01 
1424 1026 2 1.0280007838495888e+00 7.6690847119374212e+01 1.0000000000000000e+00 1.9334428572070376e+01 1.1415130637035166e+01 9.0301702530194575e+01 
2071 1673 2 1.0280004313556936e+00 2.8905245582596867e+03 1.0000000000000000e+00 1.9732815235978329e+01 1.1033576203711078e+01 9.0411449634897252e+01 
2070 1672 2 1.0280003805775395e+00 2.8906051483466013e+03 1.0000000000000000e+00 1.8270257831520336e+01 1.1039804944055032e+01 9.0429896400282828e+01 
638 240 2 1.0280006922695561e+00 1.2636589078260668e+03 1.0000000000000000e+00 1.8793072276186347e+01 1.3909545037990917e+01 8.9064371246313144e+01 
639 241 2 1.0280006783243254e+00 1.2636644493512192e+03 1.0000000000000000e+00 1.9346920143263684e+01 1.3896769943501091e+01 8.9036137098062298e+01 
772 374 2 1.0280003324474558e+00 1.2446761245763479e+02 1.0000000000000000e+00 1.7813144660702736e+01 1.3801475871596118e+01 8.9369920219557798e+01 
470 72 2 1.0280003946760685e+00 -5.7187136215178589e+03 1.0000000000000000e+00 1.9608025137048365e+01 1.0773159485963237e+01 9.0421903137036836e+01 
1003 605 2 1.0279972397489865e+00 6.4273271106091443e+03 1.0000000000000000e+00 1.5827013091960511e+01 1.3617218185631236e+01 9.0116884258921985e+01 
1468 1070 2 1.0280006384416700e+00 5.6194885978642906e+03 1.0000000000000000e+00 1.9114225068474596e+01 1.4678144855250522e+01 8.8775123792388968e+01 
1465 1067 2 1.0280006389974019e+00 5.6194912554493185e+03 1.0000000000000000e+00 1.9086977518602481e+01 1.4678862074503606e+01 8.8776399377262152e+01 
640 242 2 1.0280005817490352e+00 -7.4921315248860483e+03 1.0000000000000000e+00 1.8601345600615574e+01 1.4768698486789889e+01 8.8816032832622810e+01 
1370 972 2 1.0280002878225207e+00 3.1830863212831429e+02 1.0000000000000000e+00 1.7763324974248526e+01 1.4887875514946433e+01 8.9065223503960709e+01 
637 239 2 1.0280005562883876e+00 -7.4921062060851264e+03 1.0000000000000000e+00 1.9627951717308925e+01 1.4750230093906040e+01 8.8769743558895968e+01 
1697 1299 2 1.0280006241735165e+00 1.5001717410467377e+03 1.0000000000000000e+00 1.9164759940764203e+01 1.4805898418343364e+01 8.8737581069695494e+01 
1700 1302 2 1.0280006265302635e+00 1.5001688292931965e+03 1.0000000000000000e+00 1.9048258880131311e+01 1.4808131389614781e+01 8.8743109790826338e+01 
471 73 2 1.0280003564854192e+00 -5.7186559958820344e+03 1.0000000000000000e+00 1.8387043282036487e+01 1.0774482437216340e+01 9.0434156063245297e+01 
1698 1300 2 1.0280002963584409e+00 8.7204541239895370e+03 1.0000000000000000e+00 1.9865134923970892e+01 1.0802135222506283e+01 9.0463566922369822e+01 
1409 1011 2 1.0280001953565663e+00 -1.0762893843977532e+04 1.0000000000000000e+00 7.3346272451913981e+00 1.9450555633833559e+01 8.9860450903899817e+01 
905 507 2 1.0280001941211143e+00 -1.0763014182860896e+04 1.0000000000000000e+00 7.3219911596493761e+00 1.8920752534186907e+01 8.9848250457410799e+01 
960 562 2 1.0280001931408183e+00 2.3363567812035735e+03 1.0000000000000000e+00 7.4279469997656662e+00 1.8333577783344548e+01 8.9752537510553736e+01 
2005 1607 2 1.0280001881110941e+00 -4.9201601492300042e+03 1.0000000000000000e+00 7.4357809408972004e+00 1.8194221140017937e+01 8.9801932404964518e+01 
1674 1276 2 1.0280001883558743e+00 3.0363155305740779e+03 1.0000000000000000e+00 7.4819655004548142e+00 1.8089640305792123e+01 8.9765032728801359e+01 
1004 606 2 1.0280001878066771e+00 2.3290419680064215e+03 1.0000000000000000e+00 7.4873829266163341e+00 1.8067957878760687e+01 8.9766813586630036e+01 
760 362 2 1.0280001819635984e+00 5.2341384674316432e+03 1.0000000000000000e+00 7.6090570342590853e+00 1.7774598983234821e+01 8.9740204405165755e+01 
1706 1308 2 1.0280002002999924e+00 8.6806640548432770e+03 1.0000000000000000e+00 7.5642493424430164e+00 1.8215995888560567e+01 8.9559460791399076e+01 
821 423 2 1.0280001743113876e+00 -4.2516717831555216e+03 1.0000000000000000e+00 7.7451711033751298e+00 1.7538769417133942e+01 8.9714829005263809e+01 
1232 834 2 1.0280001812185817e+00 -5.2951131471658591e+03 1.0000000000000000e+00 7.7503136205547243e+00 1.7621816073238662e+01 8.9645928262668420e+01 
1768 1370 2 1.0280002037783640e+00 5.1643237996665732e+02 1.0000000000000000e+00 7.6375115292132980e+00 1.9808786599012844e+01 8.9373046295346484e+01 
592 194 2 1.0280002071225516e+00 5.1634197419139218e+02 1.0000000000000000e+00 7.6400385494548431e+00 1.8597468361017459e+01 8.9323578254072672e+01 
741 343 2 1.0280001598705470e+00 -2.8276618216679194e+03 1.0000000000000000e+00 7.8883674092505771e+00 1.7302845992493829e+01 8.9729846497254044e+01 
2040 1642 2 1.0280001528576639e+00 -9.5223547805186790e+03 1.0000000000000000e+00 7.9600946619287178e+00 1.7209862546663373e+01 8.9731216215942226e+01 
1991 1593 2 1.0280001368412273e+00 -8.2504529672124663e+03 1.0000000000000000e+00 8.0781952016486169e+00 1.7044929945412363e+01 8.9762950606499544e+01 
1037 639 2 1.0280001800285397e+00 4.1794367236273911e+03 1.0000000000000000e+00 7.9489094399769886e+00 1.8679479140900206e+01 8.9014855867625513e+01 
1541 1143 2 1.0280001719171232e+00 4.1794965664639431e+03 1.0000000000000000e+00 7.9403737971832253e+00 1.9705821259183203e+01 8.9042339196945150e+01 
1522 1124 2 1.0280001437563322e+00 1.2443320221508531e+04 1.0000000000000000e+00 8.2458178157981301e+00 1.7173233949069807e+01 8.9494091787182910e+01 
1334 936 2 1.0280000965380645e+00 -2.1731940568399136e+03 1.0000000000000000e+00 8.4117897093760305e+00 1.6731272344669797e+01 8.9791561656544062e+01 
557 159 2 1.0280000730583130e+00 -5.4292843284788632e+03 1.0000000000000000e+00 8.5564998959419256e+00 1.6595529475855027e+01 8.9835057825120046e+01 
1992 1594 2 1.0280000634325399e+00 -9.7918155556580296e+03 1.0000000000000000e+00 8.6137693563258448e+00 1.6548107025898904e+01 8.9849070419824415e+01 
777 379 2 1.0280000522332478e+00 -2.0109428613962755e+03 1.0000000000000000e+00 8.7378372795477333e+00 1.6662225738098162e+01 8.9629817256783440e+01 
551 153 2 1.0280000102509896e+00 -6.4260670001257176e+03 1.0000000000000000e+00 8.8911676157852426e+00 1.6341216650040440e+01 8.9913823490800510e+01 
970 572 2 1.0279999681885681e+00 1.3183330626794437e+04 1.0000000000000000e+00 9.0693146388465760e+00 1.6197681860387970e+01 8.9988896405101542e+01 
1122 724 2 1.0279999398902211e+00 -3.8746285626072963e+03 1.0000000000000000e+00 9.1768371365715371e+00 1.6108834855517838e+01 9.0043939840465143e+01 
1046 648 2 1.0279999399615753e+00 3.6794818520960885e+03 1.0000000000000000e+00 9.1724526807045255e+00 1.7590323885454698e+01 8.8878548005999278e+01 
433 35 2 1.0279999205385906e+00 -2.8783969273668945e+03 1.0000000000000000e+00 9.2367944752026787e+00 1.6104272394254934e+01 9.0007036969572567e+01 
1832 1434 2 1.0279998699836526e+00 -7.5964330102370122e+03 1.0000000000000000e+00 9.3738474752576124e+00 1.8726999759716264e+01 8.8631736377173283e+01 
656 258 2 1.0279998484776731e+00 -7.5963537719374845e+03 1.0000000000000000e+00 9.4134118450104314e+00 1.9607613784511468e+01 8.8640800840873723e+01 
1532 1134 2 1.0279998590856390e+00 3.5647007343949904e+03 1.0000000000000000e+00 9.4261833385499560e+00 1.5952837347707376e+01 9.0103457142850573e+01 
717 319 2 1.0279997143758068e+00 -1.7412628905678196e+03 1.0000000000000000e+00 9.7684446147478017e+00 1.5648684148290714e+01 9.0352309862543748e+01 
1681 1283 2 1.0279993307055146e+00 -3.8631051818656779e+03 1.0000000000000000e+00 1.0900686379104268e+01 1.5030495293019218e+01 9.0139796487781794e+01 
763 365 2 1.0280004675515182e+00 8.9086289701278984e+03 1.0000000000000000e+00 1.4464510352153612e+01 1.5030984637156914e+01 8.9571360206757404e+01 
1635 1237 2 1.0279992760106345e+00 9.7535781707772112e+03 1.0000000000000000e+00 1.0563564038647856e+01 1.5174673937145355e+01 9.0338564413206285e+01 
1647 1249 2 1.0279993082835366e+00 4.5487615384887667e+03 1.0000000000000000e+00 1.0447509654185598e+01 1.5237666458256683e+01 9.0378371256023016e+01 
1869 1471 2 1.0279994144993068e+00 -4.2257113561181040e+03 1.0000000000000000e+00 1.0325924495390861e+01 1.5405665636624660e+01 9.0222333278072128e+01 
561 163 2 1.0279994772766763e+00 -1.2926141119328464e+04 1.0000000000000000e+00 1.0891294013639016e+01 1.5409972216412742e+01 8.9733731291768038e+01 
608 210 2 1.0279994655753997e+00 -5.7287605677989886e+03 1.0000000000000000e+00 1.0805061611657562e+01 1.5475366195130590e+01 8.9730798087360242e+01 
2033 1635 2 1.0279996822692841e+00 -8.4809412071402494e+03 1.0000000000000000e+00 1.1349259189791725e+01 1.5515448803081760e+01 8.9412230158682192e+01 
446 48 2 1.0280005732619755e+00 -8.5833242566282370e+03 1.0000000000000000e+00 1.3704880456913914e+01 1.6018615250506322e+01 8.9177845209156757e+01 
1936 1538 2 1.0279996025052782e+00 -8.0979733778868795e+03 1.0000000000000000e+00 1.1158730896914358e+01 1.5607548228018940e+01 8.9440123552451425e+01 
1479 1081 2 1.0279997536623426e+00 1.7666842644237520e+04 1.0000000000000000e+00 1.1884507130571587e+01 1.6751683186078765e+01 8.8923476951578380e+01 
1178 780 2 1.0279993778977221e+00 3.4951756799843565e+03 1.0000000000000000e+00 1.2263182660891927e+01 1.9744684742295306e+01 8.8992332269843914e+01 
1346 948 2 1.0279993870301425e+00 3.4950651407688670e+03 1.0000000000000000e+00 1.2206246425202414e+01 1.8869475512950572e+01 8.8961054060321899e+01 
1305 907 2 1.0279995088419949e+00 8.8631187890783838e+02 1.0000000000000000e+00 1.2500100892953821e+01 1.9109040345757883e+01 8.9012549905703636e+01 
1137 739 2 1.0279994948582030e+00 8.8633948539010737e+02 1.0000000000000000e+00 1.2498928580154740e+01 1.9487345269058618e+01 8.9022356285302280e+01 
1894 1496 2 1.0279994898470179e+00 3.7080454093631165e+03 1.0000000000000000e+00 1.2492672386034092e+01 1.9369559424770433e+01 8.9019500797211592e+01 
1096 698 2 1.0279995327524882e+00 -1.1292733217473656e+03 1.0000000000000000e+00 1.2557098288003495e+01 1.9418209978737014e+01 8.9029756845161202e+01 
1264 866 2 1.0279995504878883e+00 -1.1291445075395177e+03 1.0000000000000000e+00 1.2567633858637688e+01 1.9140435265645426e+01 8.9023623754274197e+01 
718 320 2 1.0279998159705339e+00 3.7080070261362957e+03 1.0000000000000000e+00 1.2922375926296272e+01 1.9204081233112607e+01 8.9081966391705151e+01 
1673 1275 2 1.0279998426629089e+00 -3.7826498614079890e+02 1.0000000000000000e+00 1.2957814824533832e+01 1.9330835288674361e+01 8.9091652227752959e+01 
833 435 2 1.0279998886357826e+00 -3.7830832869115284e+02 1.0000000000000000e+00 1.3007837209688766e+01 1.9108141122574335e+01 8.9093054430589902e+01 
1034 636 2 1.0280005290275187e+00 8.4787203954642100e+03 1.0000000000000000e+00 1.3429208273436025e+01 1.5738868036213644e+01 8.9148403343813854e+01 
1954 1556 2 1.0280004275352690e+00 -7.8812586043681267e+03 1.0000000000000000e+00 1.3817640512867181e+01 1.6995282481221135e+01 8.9137908129539881e+01 
976 578 2 1.0280004013490376e+00 6.1579163311363973e+03 1.0000000000000000e+00 1.4149671760366688e+01 1.8938187425259429e+01 8.9392712172254562e+01 
1480 1082 2 1.0280004140978585e+00 6.1576527489822665e+03 1.0000000000000000e+00 1.4167524137549805e+01 1.9033781206690389e+01 8.9405829431602029e+01 