LAMMPS data file via write_data, version 30 Jul 2016, timestep = 600000

2080 atoms
8 atom types

0.0000000000000000e+00 4.0000000000000000e+01 xlo xhi
0.0000000000000000e+00 4.0000000000000000e+01 ylo yhi
0.0000000000000000e+00 1.0000000000000000e+02 zlo zhi

Masses

1 3.896
2 16.08
3 1058.08
4 8.378
5 8.378
6 8.378
7 8.378
8 8.378

Atoms # meso-molecular

1 2 4 2.2559723595316457e+00 1.6066242577398193e+00 4.2000000000000000e+03 0.0000000000000000e+00 0.0000000000000000e+00 2.5000000000000000e+00 
2 2 4 2.2559723595316457e+00 1.3758641471041040e+00 4.2000000000000000e+03 0.0000000000000000e+00 2.0000000000000000e+00 2.5000000000000000e+00 
3 2 4 2.2559723595316457e+00 9.0674989360329605e-01 4.2000000000000000e+03 0.0000000000000000e+00 4.0000000000000000e+00 2.5000000000000000e+00 
21 2 4 2.2559723595316457e+00 1.0892543205173137e+00 4.2000000000000000e+03 2.0000000000000000e+00 0.0000000000000000e+00 2.5000000000000000e+00 
22 2 4 2.2559723595316457e+00 1.0499440262676281e+00 4.2000000000000000e+03 2.0000000000000000e+00 2.0000000000000000e+00 2.5000000000000000e+00 
23 2 4 2.2559723595316457e+00 1.0091089820762882e+00 4.2000000000000000e+03 2.0000000000000000e+00 4.0000000000000000e+00 2.5000000000000000e+00 
41 2 4 2.2559723595316457e+00 8.3531367324186268e-01 4.2000000000000000e+03 4.0000000000000000e+00 0.0000000000000000e+00 2.5000000000000000e+00 
42 2 4 2.2559723595316457e+00 9.7435938463717953e-01 4.2000000000000000e+03 4.0000000000000000e+00 2.0000000000000000e+00 2.5000000000000000e+00 
43 2 4 2.2559723595316457e+00 8.5658530645128483e-01 4.2000000000000000e+03 4.0000000000000000e+00 4.0000000000000000e+00 2.5000000000000000e+00 
61 2 4 2.2559723595316457e+00 9.4263598798832338e-01 4.2000000000000000e+03 6.0000000000000000e+00 0.0000000000000000e+00 2.5000000000000000e+00 
62 2 4 2.2559723595316457e+00 9.4753954560915765e-01 4.2000000000000000e+03 6.0000000000000000e+00 2.0000000000000000e+00 2.5000000000000000e+00 
63 2 4 2.2559723595316457e+00 -2.0366387511000414e-01 4.2000000000000000e+03 6.0000000000000000e+00 4.0000000000000000e+00 2.5000000000000000e+00 
81 2 4 2.2559723595316457e+00 9.1131692343682436e-01 4.2000000000000000e+03 8.0000000000000000e+00 0.0000000000000000e+00 2.5000000000000000e+00 
82 2 4 2.2559723595316457e+00 1.0313632307184908e+00 4.2000000000000000e+03 8.0000000000000000e+00 2.0000000000000000e+00 2.5000000000000000e+00 
83 2 4 2.2559723595316457e+00 9.5488306860667960e-01 4.2000000000000000e+03 8.0000000000000000e+00 4.0000000000000000e+00 2.5000000000000000e+00 
101 2 4 2.2559723595316457e+00 1.1055461073597399e+00 4.2000000000000000e+03 1.0000000000000000e+01 0.0000000000000000e+00 2.5000000000000000e+00 
102 2 4 2.2559723595316457e+00 9.8993208409376776e-01 4.2000000000000000e+03 1.0000000000000000e+01 2.0000000000000000e+00 2.5000000000000000e+00 
103 2 4 2.2559723595316457e+00 8.0799479427591847e-01 4.2000000000000000e+03 1.0000000000000000e+01 4.0000000000000000e+00 2.5000000000000000e+00 
121 2 4 2.2559723595316457e+00 1.0430679010225394e+00 4.2000000000000000e+03 1.2000000000000000e+01 0.0000000000000000e+00 2.5000000000000000e+00 
122 2 4 2.2559723595316457e+00 1.0760358649279613e+00 4.2000000000000000e+03 1.2000000000000000e+01 2.0000000000000000e+00 2.5000000000000000e+00 
123 2 4 2.2559723595316457e+00 8.5284560166641277e-01 4.2000000000000000e+03 1.2000000000000000e+01 4.0000000000000000e+00 2.5000000000000000e+00 
141 2 4 2.2559723595316457e+00 9.8092745361754363e-01 4.2000000000000000e+03 1.4000000000000000e+01 0.0000000000000000e+00 2.5000000000000000e+00 
142 2 4 2.2559723595316457e+00 9.3609348180712937e-01 4.2000000000000000e+03 1.4000000000000000e+01 2.0000000000000000e+00 2.5000000000000000e+00 
143 2 4 2.2559723595316457e+00 1.1629516004772058e+00 4.2000000000000000e+03 1.4000000000000000e+01 4.0000000000000000e+00 2.5000000000000000e+00 
161 2 4 2.2559723595316457e+00 7.7990253443533009e-01 4.2000000000000000e+03 1.6000000000000000e+01 0.0000000000000000e+00 2.5000000000000000e+00 
162 2 4 2.2559723595316457e+00 7.6154395161742117e-01 4.2000000000000000e+03 1.6000000000000000e+01 2.0000000000000000e+00 2.5000000000000000e+00 
163 2 4 2.2559723595316457e+00 7.0723052443982903e-01 4.2000000000000000e+03 1.6000000000000000e+01 4.0000000000000000e+00 2.5000000000000000e+00 
181 2 4 2.2559723595316457e+00 9.3642078344510438e-01 4.2000000000000000e+03 1.8000000000000000e+01 0.0000000000000000e+00 2.5000000000000000e+00 
182 2 4 2.2559723595316457e+00 9.7821465537550878e-01 4.2000000000000000e+03 1.8000000000000000e+01 2.0000000000000000e+00 2.5000000000000000e+00 
183 2 4 2.2559723595316457e+00 9.3014544212875938e-01 4.2000000000000000e+03 1.8000000000000000e+01 4.0000000000000000e+00 2.5000000000000000e+00 
4 2 4 2.2559723595316457e+00 5.9754023097553688e-01 4.2000000000000000e+03 0.0000000000000000e+00 6.0000000000000000e+00 2.5000000000000000e+00 
5 2 4 2.2559723595316457e+00 7.6362062710583323e-01 4.2000000000000000e+03 0.0000000000000000e+00 8.0000000000000000e+00 2.5000000000000000e+00 
24 2 4 2.2559723595316457e+00 1.1467189837801652e+00 4.2000000000000000e+03 2.0000000000000000e+00 6.0000000000000000e+00 2.5000000000000000e+00 
25 2 4 2.2559723595316457e+00 9.6961097765297577e-01 4.2000000000000000e+03 2.0000000000000000e+00 8.0000000000000000e+00 2.5000000000000000e+00 
44 2 4 2.2559723595316457e+00 9.9798683924784337e-01 4.2000000000000000e+03 4.0000000000000000e+00 6.0000000000000000e+00 2.5000000000000000e+00 
45 2 4 2.2559723595316457e+00 9.8250437480781971e-01 4.2000000000000000e+03 4.0000000000000000e+00 8.0000000000000000e+00 2.5000000000000000e+00 
64 2 4 2.2559723595316457e+00 4.8095446633855937e-01 4.2000000000000000e+03 6.0000000000000000e+00 6.0000000000000000e+00 2.5000000000000000e+00 
65 2 4 2.2559723595316457e+00 1.0487066160246550e+00 4.2000000000000000e+03 6.0000000000000000e+00 8.0000000000000000e+00 2.5000000000000000e+00 
84 2 4 2.2559723595316457e+00 9.2845790288663532e-01 4.2000000000000000e+03 8.0000000000000000e+00 6.0000000000000000e+00 2.5000000000000000e+00 
85 2 4 2.2559723595316457e+00 9.4349848930066460e-01 4.2000000000000000e+03 8.0000000000000000e+00 8.0000000000000000e+00 2.5000000000000000e+00 
104 2 4 2.2559723595316457e+00 9.2949101508046583e-01 4.2000000000000000e+03 1.0000000000000000e+01 6.0000000000000000e+00 2.5000000000000000e+00 
105 2 4 2.2559723595316457e+00 8.9714960566963486e-01 4.2000000000000000e+03 1.0000000000000000e+01 8.0000000000000000e+00 2.5000000000000000e+00 
124 2 4 2.2559723595316457e+00 1.0302044280332650e+00 4.2000000000000000e+03 1.2000000000000000e+01 6.0000000000000000e+00 2.5000000000000000e+00 
125 2 4 2.2559723595316457e+00 -8.2076939326724215e+01 4.2000000000000000e+03 1.2000000000000000e+01 8.0000000000000000e+00 2.5000000000000000e+00 
144 2 4 2.2559723595316457e+00 -8.0599190174798522e+01 4.2000000000000000e+03 1.4000000000000000e+01 6.0000000000000000e+00 2.5000000000000000e+00 
145 2 4 2.2559723595316457e+00 -1.4326731548236041e+03 4.2000000000000000e+03 1.4000000000000000e+01 8.0000000000000000e+00 2.5000000000000000e+00 
164 2 4 2.2559723595316457e+00 -3.4405561091677089e+02 4.2000000000000000e+03 1.6000000000000000e+01 6.0000000000000000e+00 2.5000000000000000e+00 
165 2 4 2.2559723595316457e+00 -4.0079114530439620e+03 4.2000000000000000e+03 1.6000000000000000e+01 8.0000000000000000e+00 2.5000000000000000e+00 
184 2 4 2.2559723595316457e+00 -4.4111121540295198e+02 4.2000000000000000e+03 1.8000000000000000e+01 6.0000000000000000e+00 2.5000000000000000e+00 
185 2 4 2.2559723595316457e+00 -5.4723733666603530e+03 4.2000000000000000e+03 1.8000000000000000e+01 8.0000000000000000e+00 2.5000000000000000e+00 
6 2 4 2.2559723595316457e+00 -7.4999918338112437e-01 4.2000000000000000e+03 0.0000000000000000e+00 1.0000000000000000e+01 2.5000000000000000e+00 
7 2 4 2.2559723595316457e+00 6.5078343340580611e+00 4.2000000000000000e+03 0.0000000000000000e+00 1.2000000000000000e+01 2.5000000000000000e+00 
8 2 4 2.2559723595316457e+00 1.1969733705863096e+01 4.2000000000000000e+03 0.0000000000000000e+00 1.4000000000000000e+01 2.5000000000000000e+00 
26 2 4 2.2559723595316457e+00 6.8207548123913275e-01 4.2000000000000000e+03 2.0000000000000000e+00 1.0000000000000000e+01 2.5000000000000000e+00 
27 2 4 2.2559723595316457e+00 4.1768728685775525e+00 4.2000000000000000e+03 2.0000000000000000e+00 1.2000000000000000e+01 2.5000000000000000e+00 
28 2 4 2.2559723595316457e+00 7.2362636332794690e+00 4.2000000000000000e+03 2.0000000000000000e+00 1.4000000000000000e+01 2.5000000000000000e+00 
46 2 4 2.2559723595316457e+00 1.1255675010820867e+00 4.2000000000000000e+03 4.0000000000000000e+00 1.0000000000000000e+01 2.5000000000000000e+00 
47 2 4 2.2559723595316457e+00 9.9004911943423735e-01 4.2000000000000000e+03 4.0000000000000000e+00 1.2000000000000000e+01 2.5000000000000000e+00 
48 2 4 2.2559723595316457e+00 8.5412930422295141e-01 4.2000000000000000e+03 4.0000000000000000e+00 1.4000000000000000e+01 2.5000000000000000e+00 
66 2 4 2.2559723595316457e+00 5.0441022945017144e-01 4.2000000000000000e+03 6.0000000000000000e+00 1.0000000000000000e+01 2.5000000000000000e+00 
67 2 4 2.2559723595316457e+00 4.4068806435415109e-01 4.2000000000000000e+03 6.0000000000000000e+00 1.2000000000000000e+01 2.5000000000000000e+00 
68 2 4 2.2559723595316457e+00 6.2297286642124727e-01 4.2000000000000000e+03 6.0000000000000000e+00 1.4000000000000000e+01 2.5000000000000000e+00 
86 2 4 2.2559723595316457e+00 8.3901960512676532e-01 4.2000000000000000e+03 8.0000000000000000e+00 1.0000000000000000e+01 2.5000000000000000e+00 
87 2 4 2.2559723595316457e+00 7.6270959471930699e-01 4.2000000000000000e+03 8.0000000000000000e+00 1.2000000000000000e+01 2.5000000000000000e+00 
88 2 4 2.2559723595316457e+00 9.0142701223057575e-01 4.2000000000000000e+03 8.0000000000000000e+00 1.4000000000000000e+01 2.5000000000000000e+00 
106 2 4 2.2559723595316457e+00 1.2810123235079138e+00 4.2000000000000000e+03 1.0000000000000000e+01 1.0000000000000000e+01 2.5000000000000000e+00 
107 2 4 2.2559723595316457e+00 2.1324752966387832e+00 4.2000000000000000e+03 1.0000000000000000e+01 1.2000000000000000e+01 2.5000000000000000e+00 
108 2 4 2.2559723595316457e+00 4.3626274017585622e+00 4.2000000000000000e+03 1.0000000000000000e+01 1.4000000000000000e+01 2.5000000000000000e+00 
126 2 4 2.2559723595316457e+00 -3.5100034653656962e+02 4.2000000000000000e+03 1.2000000000000000e+01 1.0000000000000000e+01 2.5000000000000000e+00 
127 2 4 2.2559723595316457e+00 -4.3116264507545065e+02 4.2000000000000000e+03 1.2000000000000000e+01 1.2000000000000000e+01 2.5000000000000000e+00 
128 2 4 2.2559723595316457e+00 -4.1818739775178341e+02 4.2000000000000000e+03 1.2000000000000000e+01 1.4000000000000000e+01 2.5000000000000000e+00 
146 2 4 2.2559723595316457e+00 -4.0280844091178537e+03 4.2000000000000000e+03 1.4000000000000000e+01 1.0000000000000000e+01 2.5000000000000000e+00 
147 2 4 2.2559723595316457e+00 -5.4459658872534237e+03 4.2000000000000000e+03 1.4000000000000000e+01 1.2000000000000000e+01 2.5000000000000000e+00 
148 2 4 2.2559723595316457e+00 -5.5013093524561691e+03 4.2000000000000000e+03 1.4000000000000000e+01 1.4000000000000000e+01 2.5000000000000000e+00 
166 2 4 2.2559723595316457e+00 -1.0670633923530782e+04 4.2000000000000000e+03 1.6000000000000000e+01 1.0000000000000000e+01 2.5000000000000000e+00 
167 2 4 2.2559723595316457e+00 -1.4622934035584087e+04 4.2000000000000000e+03 1.6000000000000000e+01 1.2000000000000000e+01 2.5000000000000000e+00 
168 2 4 2.2559723595316457e+00 -1.4953541312960582e+04 4.2000000000000000e+03 1.6000000000000000e+01 1.4000000000000000e+01 2.5000000000000000e+00 
186 2 4 2.2559723595316457e+00 -1.4724469143818951e+04 4.2000000000000000e+03 1.8000000000000000e+01 1.0000000000000000e+01 2.5000000000000000e+00 
187 2 4 2.2559723595316457e+00 -2.0251809456223877e+04 4.2000000000000000e+03 1.8000000000000000e+01 1.2000000000000000e+01 2.5000000000000000e+00 
188 2 4 2.2559723595316457e+00 -2.0679335331449482e+04 4.2000000000000000e+03 1.8000000000000000e+01 1.4000000000000000e+01 2.5000000000000000e+00 
9 2 4 2.2559723595316457e+00 3.7402181516446014e+00 4.2000000000000000e+03 0.0000000000000000e+00 1.6000000000000000e+01 2.5000000000000000e+00 
10 2 4 2.2559723595316457e+00 1.9544192491708539e+00 4.2000000000000000e+03 0.0000000000000000e+00 1.8000000000000000e+01 2.5000000000000000e+00 
29 2 4 2.2559723595316457e+00 1.5544276520448927e+00 4.2000000000000000e+03 2.0000000000000000e+00 1.6000000000000000e+01 2.5000000000000000e+00 
30 2 4 2.2559723595316457e+00 9.6373517969687961e-01 4.2000000000000000e+03 2.0000000000000000e+00 1.8000000000000000e+01 2.5000000000000000e+00 
49 2 4 2.2559723595316457e+00 1.1792031326797132e+00 4.2000000000000000e+03 4.0000000000000000e+00 1.6000000000000000e+01 2.5000000000000000e+00 
50 2 4 2.2559723595316457e+00 1.0743100197567768e+00 4.2000000000000000e+03 4.0000000000000000e+00 1.8000000000000000e+01 2.5000000000000000e+00 
69 2 4 2.2559723595316457e+00 7.7516538203753704e-01 4.2000000000000000e+03 6.0000000000000000e+00 1.6000000000000000e+01 2.5000000000000000e+00 
70 2 4 2.2559723595316457e+00 3.9825083044038834e-01 4.2000000000000000e+03 6.0000000000000000e+00 1.8000000000000000e+01 2.5000000000000000e+00 
89 2 4 2.2559723595316457e+00 3.0906057312877753e+00 4.2000000000000000e+03 8.0000000000000000e+00 1.6000000000000000e+01 2.5000000000000000e+00 
90 2 4 2.2559723595316457e+00 2.1513357967736823e+01 4.2000000000000000e+03 8.0000000000000000e+00 1.8000000000000000e+01 2.5000000000000000e+00 
109 2 4 2.2559723595316457e+00 8.2642973392800805e+00 4.2000000000000000e+03 1.0000000000000000e+01 1.6000000000000000e+01 2.5000000000000000e+00 
110 2 4 2.2559723595316457e+00 2.9923720889200126e+01 4.2000000000000000e+03 1.0000000000000000e+01 1.8000000000000000e+01 2.5000000000000000e+00 
129 2 4 2.2559723595316457e+00 -4.1031274190450506e+02 4.2000000000000000e+03 1.2000000000000000e+01 1.6000000000000000e+01 2.5000000000000000e+00 
130 2 4 2.2559723595316457e+00 -4.0122248948027789e+02 4.2000000000000000e+03 1.2000000000000000e+01 1.8000000000000000e+01 2.5000000000000000e+00 
149 2 4 2.2559723595316457e+00 -5.4854646764210902e+03 4.2000000000000000e+03 1.4000000000000000e+01 1.6000000000000000e+01 2.5000000000000000e+00 
150 2 4 2.2559723595316457e+00 -5.4795258121288553e+03 4.2000000000000000e+03 1.4000000000000000e+01 1.8000000000000000e+01 2.5000000000000000e+00 
169 2 4 2.2559723595316457e+00 -1.4873938167928274e+04 4.2000000000000000e+03 1.6000000000000000e+01 1.6000000000000000e+01 2.5000000000000000e+00 
170 2 4 2.2559723595316457e+00 -1.4861418446023037e+04 4.2000000000000000e+03 1.6000000000000000e+01 1.8000000000000000e+01 2.5000000000000000e+00 
189 2 4 2.2559723595316457e+00 -2.0555728353199833e+04 4.2000000000000000e+03 1.8000000000000000e+01 1.6000000000000000e+01 2.5000000000000000e+00 
190 2 4 2.2559723595316457e+00 -2.0519329292105394e+04 4.2000000000000000e+03 1.8000000000000000e+01 1.8000000000000000e+01 2.5000000000000000e+00 
512 114 2 1.0279988323470701e+00 1.9588559458208172e+04 4.2000000000000000e+03 4.3088876721626305e-02 6.4721791961368131e+00 5.1094401721704607e+01 
879 481 2 1.0279989765541899e+00 -6.2627531886579163e+04 4.2000000000000000e+03 3.6827772869549186e-01 6.2320015482706665e+00 5.1288095151019952e+01 
897 499 2 1.0279990117079119e+00 4.5861760106880705e+04 4.2000000000000000e+03 3.2658007301597169e-01 6.0917019791078379e+00 5.1306370166580635e+01 
689 291 2 1.0279986897374127e+00 5.9955423333949540e+04 4.2000000000000000e+03 6.2666439235565252e-01 7.1407527142231144e+00 5.1410538090684717e+01 
1554 1156 2 1.0279973283592942e+00 -1.1336107694490043e+05 4.2000000000000000e+03 1.5794497301817876e+00 1.5828469981653948e+00 5.3155422609916798e+01 
860 462 2 1.0279971799264072e+00 -1.7040197163203993e+04 4.2000000000000000e+03 2.3563838771215320e+00 9.8228467083636695e-01 5.3489297595706510e+01 
723 325 2 1.0279975275730338e+00 -7.5779243420769577e+04 4.2000000000000000e+03 2.6726743426884445e+00 1.2574399016840043e+00 5.3663176564276618e+01 
2007 1609 2 1.0279978338494840e+00 5.7536155970653053e+04 4.2000000000000000e+03 2.7265984329314588e+00 1.6046090137954041e+00 5.3685685554127609e+01 
2017 1619 2 1.0279994580797576e+00 2.5920985385033015e+04 4.2000000000000000e+03 2.4933979221034144e+00 3.3363998742546714e+00 5.3726736183161215e+01 
1154 756 2 1.0280001636447236e+00 -4.2175787756621894e+03 4.2000000000000000e+03 2.5013094139077281e+00 3.8543661339633695e+00 5.3725766021143585e+01 
2020 1622 2 1.0279986035275572e+00 2.5982111776426274e+04 4.2000000000000000e+03 3.0999679061339522e+00 2.8630025066200222e+00 5.4313255712105523e+01 
1368 970 2 1.0279971633444278e+00 3.3895789019242795e+04 4.2000000000000000e+03 3.4119431356709788e+00 4.5565146005293627e-01 5.4693888362298075e+01 
1487 1089 2 1.0279974659104387e+00 -1.0458684736056151e+05 4.2000000000000000e+03 3.4638306349578607e+00 2.9051491522090127e+00 5.4985111193996254e+01 
1874 1476 2 1.0279934974609679e+00 -2.7335081890732457e+04 4.2000000000000000e+03 3.8290214594445473e+00 2.8324580004226920e+00 5.5623595262054906e+01 
1050 652 2 1.0279994731247635e+00 -1.1432172412740320e+05 4.2000000000000000e+03 3.0219447302734630e+00 9.2350077541075359e-01 5.6924905069967735e+01 
1735 1337 2 1.0279996581860564e+00 7.0254608944936597e+04 4.2000000000000000e+03 1.8750447695448849e+00 8.0607994631189079e+00 5.2611881310950054e+01 
1705 1307 2 1.0279996602120582e+00 1.2611678275296334e+04 4.2000000000000000e+03 1.5959273446466975e+00 8.5122485291091046e+00 5.2957520464081043e+01 
1770 1372 2 1.0280003518839285e+00 -3.8832285219589110e+04 4.2000000000000000e+03 6.8317433121432236e-02 5.1966741113849428e+00 5.3319860790940226e+01 
1803 1405 2 1.0280010074280466e+00 7.8646598748704040e+04 4.2000000000000000e+03 4.0840721367087172e+00 7.0051209774079100e+00 5.4099071031480918e+01 
1586 1188 2 1.0280006661602827e+00 -3.3714184165250292e+04 4.2000000000000000e+03 4.2241815854740539e+00 7.6553495331457455e+00 5.4164555265436512e+01 
1556 1158 2 1.0280003568684994e+00 4.5168661557080850e+04 4.2000000000000000e+03 4.0477585199137938e+00 8.2987585459716087e+00 5.4172114915507585e+01 
1069 671 2 1.0280000032146828e+00 4.9291837875352183e+04 4.2000000000000000e+03 3.7591483740403118e+00 8.8259047294454724e+00 5.4280722079690428e+01 
1665 1267 2 1.0280007545038137e+00 -2.4576969794849472e+04 4.2000000000000000e+03 4.3392819404443337e+00 7.2049396420337839e+00 5.4324743845578396e+01 
763 365 2 1.0280018913458531e+00 -5.4816940350645906e+04 4.2000000000000000e+03 2.6134706596833834e-01 6.4667076158333483e+00 5.4907707597966599e+01 
1194 796 2 1.0279992232318891e+00 -5.4097128347382772e+04 4.2000000000000000e+03 4.1448121199794441e+00 9.6248635293195957e+00 5.5084026873539450e+01 
1370 972 2 1.0280019114284549e+00 -5.5962693127970255e+04 4.2000000000000000e+03 1.0517763801077979e+00 9.3979999998841066e+00 5.5552009369872529e+01 
1340 942 2 1.0279997099375253e+00 9.0407896907839386e+03 4.2000000000000000e+03 5.6358043841695764e+00 7.2056672687084689e+00 5.5664350331888443e+01 
1322 924 2 1.0279995941526228e+00 -3.5641557258265116e+03 4.2000000000000000e+03 5.8713872510146148e+00 7.3022235460024225e+00 5.5877190883969007e+01 
1466 1068 2 1.0280010708842207e+00 -6.6829866705722176e+04 4.2000000000000000e+03 4.0833008744399180e-01 1.3500950662176507e+01 5.4991093474238305e+01 
1462 1064 2 1.0279988734502714e+00 -8.6942840000395605e+04 4.2000000000000000e+03 4.3400780700999642e+00 1.0186456507207950e+01 5.5549829417797980e+01 
731 333 2 1.0280019078506950e+00 5.8431693975171593e+03 4.2000000000000000e+03 1.0549291685551758e+00 1.4203022993085890e+01 5.5806256587700894e+01 
1504 1106 2 1.0280011071619424e+00 2.3453580535950285e+04 4.2000000000000000e+03 2.6490762534814531e+00 1.3531913055124345e+01 5.6210916494626325e+01 
1233 835 2 1.0280015871378489e+00 1.2942964004017871e+04 4.2000000000000000e+03 2.8151718569115212e+00 1.3759292618777737e+01 5.6478013844842259e+01 
1932 1534 2 1.0280009273613511e+00 6.5391456402545940e+04 4.2000000000000000e+03 3.8277960506759863e+00 1.3293210060524737e+01 5.6522321825109927e+01 
732 334 2 1.0280018542152580e+00 -1.0165293097204161e+04 4.2000000000000000e+03 2.9075324170528716e+00 1.3853114800295574e+01 5.6619463871713812e+01 
963 565 2 1.0280019768526936e+00 -6.7039808204969115e+04 4.2000000000000000e+03 1.9769269028434149e+00 1.1091563243397196e+01 5.6879421941574883e+01 
1221 823 2 1.0279992149277284e+00 1.3263327317730245e+04 4.2000000000000000e+03 5.3267665763023251e+00 1.2136289197013372e+01 5.6746287412725280e+01 
1530 1132 2 1.0280082930839456e+00 -1.1832826941382793e+05 4.2000000000000000e+03 2.1306077359261635e+00 4.4238981321401303e+00 5.7883669060177404e+01 
469 71 2 1.0280039235620235e+00 6.6637286918451820e+04 4.2000000000000000e+03 3.7852517266979313e+00 3.1388805319200586e+00 6.0044770666608365e+01 
727 329 2 1.0280007809109366e+00 -4.2379267183840821e+04 4.2000000000000000e+03 2.6005329271035151e+00 3.1002847733781085e+00 6.0155759090010008e+01 
1020 622 2 1.0279994408622131e+00 3.4609125151314292e+04 4.2000000000000000e+03 2.6104621921643303e+00 3.1424024159712820e+00 6.0171013975832331e+01 
929 531 2 1.0279987665294692e+00 -1.1443852827697847e+04 4.2000000000000000e+03 2.6515397862978491e+00 3.1907572523277801e+00 6.0178669198823826e+01 
614 216 2 1.0279940936045666e+00 1.5135324411339398e+04 4.2000000000000000e+03 3.0190046026148907e+00 3.4104597861456911e+00 6.0245614136970119e+01 
1110 712 2 1.0280001804775918e+00 -6.3725853721334352e+04 4.2000000000000000e+03 6.7286152988282755e+00 1.8011214128110284e+00 5.7442637733679028e+01 
600 202 2 1.0279996966336649e+00 3.0169229289477145e+04 4.2000000000000000e+03 7.0129260218204692e+00 3.4116927447659893e+00 5.7564922042219770e+01 
427 29 2 1.0280007343935664e+00 -9.1644967028877600e+03 4.2000000000000000e+03 7.0655957588457410e+00 2.1233542666361234e+00 5.7606847767549574e+01 
946 548 2 1.0279994257254483e+00 -5.0191142564670743e+04 4.2000000000000000e+03 7.0919838179775683e+00 3.8418452096744686e+00 5.7597468224788855e+01 
1450 1052 2 1.0280004797742519e+00 -5.0621047979491195e+04 4.2000000000000000e+03 7.2021460516279161e+00 3.3098349053950438e-01 5.8105874357707343e+01 
461 63 2 1.0280007838545062e+00 9.5452578512560431e+04 4.2000000000000000e+03 7.3182535869372440e+00 3.9203381796643127e-01 5.8168797648629955e+01 
1044 646 2 1.0280021156349382e+00 2.0635467556584939e+04 4.2000000000000000e+03 7.9252297805075891e+00 1.0600024734493458e+00 5.8413720604525771e+01 
1469 1071 2 1.0279995966054887e+00 6.0153003029034895e+04 4.2000000000000000e+03 8.4315903267975116e+00 3.1854035539029697e+00 5.8742227308125166e+01 
999 601 2 1.0279920577513266e+00 -1.3942285763149621e+05 4.2000000000000000e+03 9.4445690046469153e+00 2.8036188262518085e+00 6.0103980748980973e+01 
1741 1343 2 1.0279965185665685e+00 3.6296677001058924e+04 4.2000000000000000e+03 1.0282430503233545e+01 3.1073911154668821e+00 6.0112670442247946e+01 
1076 678 2 1.0280000522282864e+00 6.7220424390528526e+04 4.2000000000000000e+03 1.0776085003653529e+01 7.1201815180176931e-01 6.0608707906593224e+01 
1272 874 2 1.0280002067702616e+00 3.1235107464638892e+04 4.2000000000000000e+03 1.0694534602118338e+01 5.6844765507729877e-01 6.0624258106912322e+01 
1978 1580 2 1.0279987544737110e+00 1.5733650834974122e+04 4.2000000000000000e+03 1.1867948289064222e+01 3.5081649905025230e+00 6.0620083817633343e+01 
1302 904 2 1.0279990271320480e+00 -6.4891889213437302e+04 4.2000000000000000e+03 1.2161341866364340e+01 3.2943198003745140e+00 6.0866478110973269e+01 
638 240 2 1.0280011663910500e+00 7.5190580898002436e+03 4.2000000000000000e+03 1.1448438633878466e+01 2.8292920846972919e-01 6.1069800892328253e+01 
1973 1575 2 1.0280013310444609e+00 9.5278044501009441e+04 4.2000000000000000e+03 1.1759943102683266e+01 2.6859239285867265e-01 6.1247289568972484e+01 
1031 633 2 1.0279968964832198e+00 -9.1531998851278680e+04 4.2000000000000000e+03 1.0795769225142713e+00 8.6676120725232337e+00 5.7591210818748088e+01 
1435 1037 2 1.0280100459253718e+00 8.6793477930541412e+04 4.2000000000000000e+03 1.1952781375691326e+00 6.0367151953649341e+00 5.7853290440283111e+01 
882 484 2 1.0279696429769618e+00 -4.4526098596520795e+04 4.2000000000000000e+03 1.1630067959221371e+00 7.4012643552488555e+00 5.8433192286390174e+01 
1601 1203 2 1.0279869838280449e+00 4.5478290500829207e+04 4.2000000000000000e+03 1.0180148251205297e+00 7.1583448323435368e+00 5.8541213979507475e+01 
601 203 2 1.0280958235459732e+00 7.0664841945531982e+04 4.2000000000000000e+03 1.6696735154929792e+00 8.7727562598492046e+00 5.9474864585599342e+01 
2077 1679 2 1.0279361360355974e+00 3.0847953463149195e+04 4.2000000000000000e+03 2.4544136344701788e+00 9.0092449324047834e+00 6.0326147366676153e+01 
636 238 2 1.0279935382006606e+00 1.7315747535854585e+04 4.2000000000000000e+03 2.7768880814431629e+00 9.5793362905589063e+00 6.0679424275286230e+01 
1047 649 2 1.0279956484064372e+00 -1.0640138321759156e+05 4.2000000000000000e+03 3.5599211172685870e+00 7.3887870997053149e+00 6.1041668442720514e+01 
2033 1635 2 1.0279852754818901e+00 9.9109160126375849e+04 4.2000000000000000e+03 4.3234905258345879e+00 7.5732009852942301e+00 6.1389665893622102e+01 
1539 1141 2 1.0280092800248348e+00 -5.5409692802729342e+03 4.2000000000000000e+03 4.1244561153390409e+00 7.4302367206688595e+00 6.1892571521498894e+01 
1170 772 2 1.0279986399389760e+00 -3.1395122941702051e+04 4.2000000000000000e+03 7.1041315961735307e+00 7.1663698657388544e+00 5.7214536197053150e+01 
1506 1108 2 1.0279974192048031e+00 -1.2679565879289445e+05 4.2000000000000000e+03 6.5104440361580140e+00 5.1780602250259848e+00 5.7256478790157615e+01 
1455 1057 2 1.0279983454053876e+00 -7.0837032295117024e+04 4.2000000000000000e+03 7.6355446345732947e+00 7.0615505362903974e+00 5.7801536257898718e+01 
518 120 2 1.0279980690274870e+00 4.1103039332790737e+04 4.2000000000000000e+03 7.7352965766322344e+00 7.2907849813613952e+00 5.7999938230876595e+01 
1662 1264 2 1.0279972229288914e+00 -5.7114265822385125e+04 4.2000000000000000e+03 7.7209368100157176e+00 7.9570754078220887e+00 5.8299240194379180e+01 
2058 1660 2 1.0279974497541837e+00 1.4706855154707553e+04 4.2000000000000000e+03 7.8705640147930289e+00 7.6826368201916244e+00 5.8338982300304018e+01 
1096 698 2 1.0279978031719648e+00 -1.5755832780823950e+04 4.2000000000000000e+03 8.6482594617476707e+00 5.5160781583911769e+00 5.9056862750889110e+01 
1107 709 2 1.0279982429511598e+00 4.0569303694476788e+04 4.2000000000000000e+03 1.0444874613551823e+01 7.2134736921186233e+00 6.0354879970348449e+01 
1825 1427 2 1.0279977752742726e+00 1.0242589537859321e+05 4.2000000000000000e+03 1.0280954560797143e+01 7.2924890712368065e+00 6.0354047075677521e+01 
1717 1319 2 1.0279984641510405e+00 -4.6763636042994085e+03 4.2000000000000000e+03 1.0414824531271341e+01 7.2849852391459473e+00 6.0360396364697735e+01 
820 422 2 1.0280001953981992e+00 -6.9520714126398540e+04 4.2000000000000000e+03 1.2497842559535867e+01 7.2324918251312518e+00 6.0775935372128359e+01 
1990 1592 2 1.0280001767052760e+00 6.1239686102758649e+04 4.2000000000000000e+03 1.2337142072229872e+01 7.8558179618288237e+00 6.0883323268192733e+01 
1369 971 2 1.0280001498767835e+00 5.5966785803200284e+04 4.2000000000000000e+03 1.2563509183685518e+01 8.0641915746709909e+00 6.0983516427934489e+01 
805 407 2 1.0280004513388596e+00 -2.3897482328254500e+04 4.2000000000000000e+03 1.3070415734268925e+01 5.4346553882278865e+00 6.1192107449187226e+01 
2071 1673 2 1.0280003949035914e+00 6.3172411262840069e+03 4.2000000000000000e+03 1.3177970503284893e+01 5.5103945030295236e+00 6.1265159159539849e+01 
1349 951 2 1.0279991790431415e+00 3.6706863823443571e+04 4.2000000000000000e+03 1.4016983936172073e+01 9.9375241269129493e+00 6.1601004644343455e+01 
1827 1429 2 1.0280004397464044e+00 -2.1184350020112772e+04 4.2000000000000000e+03 1.5835217996892910e+01 7.4526508322923153e+00 6.1713825390109356e+01 
806 408 2 1.0280006332698008e+00 -8.5167573622254771e+04 4.2000000000000000e+03 1.7083862713126745e+01 8.0749258148854501e+00 6.1709565459507779e+01 
1816 1418 2 1.0279981832974054e+00 3.6384515983617443e+04 4.2000000000000000e+03 1.9607566089367868e+01 7.1626974449509682e+00 6.1748986548626917e+01 
1813 1415 2 1.0279984349631484e+00 3.5961468387246940e+04 4.2000000000000000e+03 1.9528173465407896e+01 7.0335552155542000e+00 6.1750297447396186e+01 
572 174 2 1.0279975072487948e+00 3.1209641398166277e+04 4.2000000000000000e+03 1.9943694257414954e+01 7.1071781613874148e+00 6.1771931560100121e+01 
1068 670 2 1.0280063463099214e+00 4.2509248397279371e+04 4.2000000000000000e+03 1.1467416933108583e+00 1.4982652415561077e+01 5.9249042219285528e+01 
869 471 2 1.0280273302557623e+00 1.4423831281759618e+04 4.2000000000000000e+03 2.1005595244764805e+00 1.2550829456036167e+01 6.1392389471055196e+01 
1789 1391 2 1.0279937512645032e+00 5.3242500684332481e+04 4.2000000000000000e+03 2.8270127927408639e+00 1.2749816868137499e+01 6.1617076262646059e+01 
1574 1176 2 1.0280006388243490e+00 5.3607023787411836e+03 4.2000000000000000e+03 5.5579748611511333e+00 1.3426952505973571e+01 5.7462580193817324e+01 
1826 1428 2 1.0280005187779764e+00 -2.0939608991694542e+04 4.2000000000000000e+03 5.6919219439228543e+00 1.3398908948683705e+01 5.7526407723971587e+01 
1055 657 2 1.0280005099859835e+00 -1.1798454957937123e+05 4.2000000000000000e+03 5.6991343634886418e+00 1.3395088543262640e+01 5.7528463403627320e+01 
1300 902 2 1.0279997581112139e+00 2.7823600943515943e+04 4.2000000000000000e+03 7.0624582510878433e+00 1.1438023161347870e+01 5.7968053862050830e+01 
1853 1455 2 1.0279996043825355e+00 7.2893632909860302e+04 4.2000000000000000e+03 7.1252142110382621e+00 1.1985152495727295e+01 5.8055735310229942e+01 
1353 955 2 1.0280003820241861e+00 1.7098946034165033e+03 4.2000000000000000e+03 7.1025463454492996e+00 1.0244867603886039e+01 5.8185164559189836e+01 