LAMMPS data file via write_data, version 30 Jul 2016, timestep = 1000000

2080 atoms
8 atom types

0.0000000000000000e+00 4.0000000000000000e+01 xlo xhi
0.0000000000000000e+00 4.0000000000000000e+01 ylo yhi
0.0000000000000000e+00 1.0000000000000000e+02 zlo zhi

Masses

1 3.896
2 16.08
3 1058.08
4 8.378
5 8.378
6 8.378
7 8.378
8 8.378

Atoms # meso-molecular

1 2 4 2.2559723595316457e+00 1.6066242577398193e+00 4.2000000000000000e+03 0.0000000000000000e+00 0.0000000000000000e+00 2.5000000000000000e+00 
2 2 4 2.2559723595316457e+00 1.3758641471041040e+00 4.2000000000000000e+03 0.0000000000000000e+00 2.0000000000000000e+00 2.5000000000000000e+00 
3 2 4 2.2559723595316457e+00 9.0674989360329605e-01 4.2000000000000000e+03 0.0000000000000000e+00 4.0000000000000000e+00 2.5000000000000000e+00 
21 2 4 2.2559723595316457e+00 1.0892543205173137e+00 4.2000000000000000e+03 2.0000000000000000e+00 0.0000000000000000e+00 2.5000000000000000e+00 
22 2 4 2.2559723595316457e+00 1.0499440262676281e+00 4.2000000000000000e+03 2.0000000000000000e+00 2.0000000000000000e+00 2.5000000000000000e+00 
23 2 4 2.2559723595316457e+00 1.0091089820762882e+00 4.2000000000000000e+03 2.0000000000000000e+00 4.0000000000000000e+00 2.5000000000000000e+00 
41 2 4 2.2559723595316457e+00 8.3531367324186268e-01 4.2000000000000000e+03 4.0000000000000000e+00 0.0000000000000000e+00 2.5000000000000000e+00 
42 2 4 2.2559723595316457e+00 9.7435938463717953e-01 4.2000000000000000e+03 4.0000000000000000e+00 2.0000000000000000e+00 2.5000000000000000e+00 
43 2 4 2.2559723595316457e+00 8.5658530645128483e-01 4.2000000000000000e+03 4.0000000000000000e+00 4.0000000000000000e+00 2.5000000000000000e+00 
61 2 4 2.2559723595316457e+00 9.4263598798832338e-01 4.2000000000000000e+03 6.0000000000000000e+00 0.0000000000000000e+00 2.5000000000000000e+00 
62 2 4 2.2559723595316457e+00 9.4753954560915765e-01 4.2000000000000000e+03 6.0000000000000000e+00 2.0000000000000000e+00 2.5000000000000000e+00 
63 2 4 2.2559723595316457e+00 -2.0366387511000414e-01 4.2000000000000000e+03 6.0000000000000000e+00 4.0000000000000000e+00 2.5000000000000000e+00 
81 2 4 2.2559723595316457e+00 9.1131692343682436e-01 4.2000000000000000e+03 8.0000000000000000e+00 0.0000000000000000e+00 2.5000000000000000e+00 
82 2 4 2.2559723595316457e+00 1.0313632307184908e+00 4.2000000000000000e+03 8.0000000000000000e+00 2.0000000000000000e+00 2.5000000000000000e+00 
83 2 4 2.2559723595316457e+00 9.5488306860667960e-01 4.2000000000000000e+03 8.0000000000000000e+00 4.0000000000000000e+00 2.5000000000000000e+00 
101 2 4 2.2559723595316457e+00 1.1055461073597399e+00 4.2000000000000000e+03 1.0000000000000000e+01 0.0000000000000000e+00 2.5000000000000000e+00 
102 2 4 2.2559723595316457e+00 9.8993208409376776e-01 4.2000000000000000e+03 1.0000000000000000e+01 2.0000000000000000e+00 2.5000000000000000e+00 
103 2 4 2.2559723595316457e+00 8.0799479427591847e-01 4.2000000000000000e+03 1.0000000000000000e+01 4.0000000000000000e+00 2.5000000000000000e+00 
121 2 4 2.2559723595316457e+00 1.0430679010225394e+00 4.2000000000000000e+03 1.2000000000000000e+01 0.0000000000000000e+00 2.5000000000000000e+00 
122 2 4 2.2559723595316457e+00 1.0760358649279613e+00 4.2000000000000000e+03 1.2000000000000000e+01 2.0000000000000000e+00 2.5000000000000000e+00 
123 2 4 2.2559723595316457e+00 8.5284560166641277e-01 4.2000000000000000e+03 1.2000000000000000e+01 4.0000000000000000e+00 2.5000000000000000e+00 
141 2 4 2.2559723595316457e+00 9.8092745361754363e-01 4.2000000000000000e+03 1.4000000000000000e+01 0.0000000000000000e+00 2.5000000000000000e+00 
142 2 4 2.2559723595316457e+00 9.3609348180712937e-01 4.2000000000000000e+03 1.4000000000000000e+01 2.0000000000000000e+00 2.5000000000000000e+00 
143 2 4 2.2559723595316457e+00 1.1629516004772058e+00 4.2000000000000000e+03 1.4000000000000000e+01 4.0000000000000000e+00 2.5000000000000000e+00 
161 2 4 2.2559723595316457e+00 7.7990253443533009e-01 4.2000000000000000e+03 1.6000000000000000e+01 0.0000000000000000e+00 2.5000000000000000e+00 
162 2 4 2.2559723595316457e+00 7.6154395161742117e-01 4.2000000000000000e+03 1.6000000000000000e+01 2.0000000000000000e+00 2.5000000000000000e+00 
163 2 4 2.2559723595316457e+00 7.0723052443982903e-01 4.2000000000000000e+03 1.6000000000000000e+01 4.0000000000000000e+00 2.5000000000000000e+00 
181 2 4 2.2559723595316457e+00 9.3642078344510438e-01 4.2000000000000000e+03 1.8000000000000000e+01 0.0000000000000000e+00 2.5000000000000000e+00 
182 2 4 2.2559723595316457e+00 9.7821465537550878e-01 4.2000000000000000e+03 1.8000000000000000e+01 2.0000000000000000e+00 2.5000000000000000e+00 
183 2 4 2.2559723595316457e+00 9.3014544212875938e-01 4.2000000000000000e+03 1.8000000000000000e+01 4.0000000000000000e+00 2.5000000000000000e+00 
4 2 4 2.2559723595316457e+00 5.9754023097553688e-01 4.2000000000000000e+03 0.0000000000000000e+00 6.0000000000000000e+00 2.5000000000000000e+00 
5 2 4 2.2559723595316457e+00 7.6362062710583323e-01 4.2000000000000000e+03 0.0000000000000000e+00 8.0000000000000000e+00 2.5000000000000000e+00 
24 2 4 2.2559723595316457e+00 1.1467189837801652e+00 4.2000000000000000e+03 2.0000000000000000e+00 6.0000000000000000e+00 2.5000000000000000e+00 
25 2 4 2.2559723595316457e+00 9.6961097765297577e-01 4.2000000000000000e+03 2.0000000000000000e+00 8.0000000000000000e+00 2.5000000000000000e+00 
44 2 4 2.2559723595316457e+00 9.9798683924784337e-01 4.2000000000000000e+03 4.0000000000000000e+00 6.0000000000000000e+00 2.5000000000000000e+00 
45 2 4 2.2559723595316457e+00 9.8250437480781971e-01 4.2000000000000000e+03 4.0000000000000000e+00 8.0000000000000000e+00 2.5000000000000000e+00 
64 2 4 2.2559723595316457e+00 4.8095446633855937e-01 4.2000000000000000e+03 6.0000000000000000e+00 6.0000000000000000e+00 2.5000000000000000e+00 
65 2 4 2.2559723595316457e+00 1.0487066160246550e+00 4.2000000000000000e+03 6.0000000000000000e+00 8.0000000000000000e+00 2.5000000000000000e+00 
84 2 4 2.2559723595316457e+00 9.2845790288663532e-01 4.2000000000000000e+03 8.0000000000000000e+00 6.0000000000000000e+00 2.5000000000000000e+00 
85 2 4 2.2559723595316457e+00 9.4349848930066460e-01 4.2000000000000000e+03 8.0000000000000000e+00 8.0000000000000000e+00 2.5000000000000000e+00 
104 2 4 2.2559723595316457e+00 9.2949101508046583e-01 4.2000000000000000e+03 1.0000000000000000e+01 6.0000000000000000e+00 2.5000000000000000e+00 
105 2 4 2.2559723595316457e+00 8.9714960566963486e-01 4.2000000000000000e+03 1.0000000000000000e+01 8.0000000000000000e+00 2.5000000000000000e+00 
124 2 4 2.2559723595316457e+00 1.0302044280332650e+00 4.2000000000000000e+03 1.2000000000000000e+01 6.0000000000000000e+00 2.5000000000000000e+00 
125 2 4 2.2559723595316457e+00 -8.2076939326724215e+01 4.2000000000000000e+03 1.2000000000000000e+01 8.0000000000000000e+00 2.5000000000000000e+00 
144 2 4 2.2559723595316457e+00 -8.0599190174798522e+01 4.2000000000000000e+03 1.4000000000000000e+01 6.0000000000000000e+00 2.5000000000000000e+00 
145 2 4 2.2559723595316457e+00 -1.4326731548236041e+03 4.2000000000000000e+03 1.4000000000000000e+01 8.0000000000000000e+00 2.5000000000000000e+00 
164 2 4 2.2559723595316457e+00 -3.4405561091677089e+02 4.2000000000000000e+03 1.6000000000000000e+01 6.0000000000000000e+00 2.5000000000000000e+00 
165 2 4 2.2559723595316457e+00 -4.0079114530439620e+03 4.2000000000000000e+03 1.6000000000000000e+01 8.0000000000000000e+00 2.5000000000000000e+00 
184 2 4 2.2559723595316457e+00 -4.4111121540295198e+02 4.2000000000000000e+03 1.8000000000000000e+01 6.0000000000000000e+00 2.5000000000000000e+00 
185 2 4 2.2559723595316457e+00 -5.4723733666603530e+03 4.2000000000000000e+03 1.8000000000000000e+01 8.0000000000000000e+00 2.5000000000000000e+00 
6 2 4 2.2559723595316457e+00 -7.4999918338112437e-01 4.2000000000000000e+03 0.0000000000000000e+00 1.0000000000000000e+01 2.5000000000000000e+00 
7 2 4 2.2559723595316457e+00 6.5078343340580611e+00 4.2000000000000000e+03 0.0000000000000000e+00 1.2000000000000000e+01 2.5000000000000000e+00 
8 2 4 2.2559723595316457e+00 1.1969733705863096e+01 4.2000000000000000e+03 0.0000000000000000e+00 1.4000000000000000e+01 2.5000000000000000e+00 
26 2 4 2.2559723595316457e+00 6.8207548123913275e-01 4.2000000000000000e+03 2.0000000000000000e+00 1.0000000000000000e+01 2.5000000000000000e+00 
27 2 4 2.2559723595316457e+00 4.1768728685775525e+00 4.2000000000000000e+03 2.0000000000000000e+00 1.2000000000000000e+01 2.5000000000000000e+00 
28 2 4 2.2559723595316457e+00 7.2362636332794690e+00 4.2000000000000000e+03 2.0000000000000000e+00 1.4000000000000000e+01 2.5000000000000000e+00 
46 2 4 2.2559723595316457e+00 1.1255675010820867e+00 4.2000000000000000e+03 4.0000000000000000e+00 1.0000000000000000e+01 2.5000000000000000e+00 
47 2 4 2.2559723595316457e+00 9.9004911943423735e-01 4.2000000000000000e+03 4.0000000000000000e+00 1.2000000000000000e+01 2.5000000000000000e+00 
48 2 4 2.2559723595316457e+00 8.5412930422295141e-01 4.2000000000000000e+03 4.0000000000000000e+00 1.4000000000000000e+01 2.5000000000000000e+00 
66 2 4 2.2559723595316457e+00 5.0441022945017144e-01 4.2000000000000000e+03 6.0000000000000000e+00 1.0000000000000000e+01 2.5000000000000000e+00 
67 2 4 2.2559723595316457e+00 4.4068806435415109e-01 4.2000000000000000e+03 6.0000000000000000e+00 1.2000000000000000e+01 2.5000000000000000e+00 
68 2 4 2.2559723595316457e+00 6.2297286642124727e-01 4.2000000000000000e+03 6.0000000000000000e+00 1.4000000000000000e+01 2.5000000000000000e+00 
86 2 4 2.2559723595316457e+00 8.3901960512676532e-01 4.2000000000000000e+03 8.0000000000000000e+00 1.0000000000000000e+01 2.5000000000000000e+00 
87 2 4 2.2559723595316457e+00 7.6270959471930699e-01 4.2000000000000000e+03 8.0000000000000000e+00 1.2000000000000000e+01 2.5000000000000000e+00 
88 2 4 2.2559723595316457e+00 9.0142701223057575e-01 4.2000000000000000e+03 8.0000000000000000e+00 1.4000000000000000e+01 2.5000000000000000e+00 
106 2 4 2.2559723595316457e+00 1.2810123235079138e+00 4.2000000000000000e+03 1.0000000000000000e+01 1.0000000000000000e+01 2.5000000000000000e+00 
107 2 4 2.2559723595316457e+00 2.1324752966387832e+00 4.2000000000000000e+03 1.0000000000000000e+01 1.2000000000000000e+01 2.5000000000000000e+00 
108 2 4 2.2559723595316457e+00 4.3626274017585622e+00 4.2000000000000000e+03 1.0000000000000000e+01 1.4000000000000000e+01 2.5000000000000000e+00 
126 2 4 2.2559723595316457e+00 -3.5100034653656962e+02 4.2000000000000000e+03 1.2000000000000000e+01 1.0000000000000000e+01 2.5000000000000000e+00 
127 2 4 2.2559723595316457e+00 -4.3116264507545065e+02 4.2000000000000000e+03 1.2000000000000000e+01 1.2000000000000000e+01 2.5000000000000000e+00 
128 2 4 2.2559723595316457e+00 -4.1818739775178341e+02 4.2000000000000000e+03 1.2000000000000000e+01 1.4000000000000000e+01 2.5000000000000000e+00 
146 2 4 2.2559723595316457e+00 -4.0280844091178537e+03 4.2000000000000000e+03 1.4000000000000000e+01 1.0000000000000000e+01 2.5000000000000000e+00 
147 2 4 2.2559723595316457e+00 -5.4459658872534237e+03 4.2000000000000000e+03 1.4000000000000000e+01 1.2000000000000000e+01 2.5000000000000000e+00 
148 2 4 2.2559723595316457e+00 -5.5013093524561691e+03 4.2000000000000000e+03 1.4000000000000000e+01 1.4000000000000000e+01 2.5000000000000000e+00 
166 2 4 2.2559723595316457e+00 -1.0670633923530782e+04 4.2000000000000000e+03 1.6000000000000000e+01 1.0000000000000000e+01 2.5000000000000000e+00 
167 2 4 2.2559723595316457e+00 -1.4622934035584087e+04 4.2000000000000000e+03 1.6000000000000000e+01 1.2000000000000000e+01 2.5000000000000000e+00 
168 2 4 2.2559723595316457e+00 -1.4953541312960582e+04 4.2000000000000000e+03 1.6000000000000000e+01 1.4000000000000000e+01 2.5000000000000000e+00 
186 2 4 2.2559723595316457e+00 -1.4724469143818951e+04 4.2000000000000000e+03 1.8000000000000000e+01 1.0000000000000000e+01 2.5000000000000000e+00 
187 2 4 2.2559723595316457e+00 -2.0251809456223877e+04 4.2000000000000000e+03 1.8000000000000000e+01 1.2000000000000000e+01 2.5000000000000000e+00 
188 2 4 2.2559723595316457e+00 -2.0679335331449482e+04 4.2000000000000000e+03 1.8000000000000000e+01 1.4000000000000000e+01 2.5000000000000000e+00 
9 2 4 2.2559723595316457e+00 3.7402181516446014e+00 4.2000000000000000e+03 0.0000000000000000e+00 1.6000000000000000e+01 2.5000000000000000e+00 
10 2 4 2.2559723595316457e+00 1.9544192491708539e+00 4.2000000000000000e+03 0.0000000000000000e+00 1.8000000000000000e+01 2.5000000000000000e+00 
29 2 4 2.2559723595316457e+00 1.5544276520448927e+00 4.2000000000000000e+03 2.0000000000000000e+00 1.6000000000000000e+01 2.5000000000000000e+00 
30 2 4 2.2559723595316457e+00 9.6373517969687961e-01 4.2000000000000000e+03 2.0000000000000000e+00 1.8000000000000000e+01 2.5000000000000000e+00 
49 2 4 2.2559723595316457e+00 1.1792031326797132e+00 4.2000000000000000e+03 4.0000000000000000e+00 1.6000000000000000e+01 2.5000000000000000e+00 
50 2 4 2.2559723595316457e+00 1.0743100197567768e+00 4.2000000000000000e+03 4.0000000000000000e+00 1.8000000000000000e+01 2.5000000000000000e+00 
69 2 4 2.2559723595316457e+00 7.7516538203753704e-01 4.2000000000000000e+03 6.0000000000000000e+00 1.6000000000000000e+01 2.5000000000000000e+00 
70 2 4 2.2559723595316457e+00 3.9825083044038834e-01 4.2000000000000000e+03 6.0000000000000000e+00 1.8000000000000000e+01 2.5000000000000000e+00 
89 2 4 2.2559723595316457e+00 3.0906057312877753e+00 4.2000000000000000e+03 8.0000000000000000e+00 1.6000000000000000e+01 2.5000000000000000e+00 
90 2 4 2.2559723595316457e+00 2.1513357967736823e+01 4.2000000000000000e+03 8.0000000000000000e+00 1.8000000000000000e+01 2.5000000000000000e+00 
109 2 4 2.2559723595316457e+00 8.2642973392800805e+00 4.2000000000000000e+03 1.0000000000000000e+01 1.6000000000000000e+01 2.5000000000000000e+00 
110 2 4 2.2559723595316457e+00 2.9923720889200126e+01 4.2000000000000000e+03 1.0000000000000000e+01 1.8000000000000000e+01 2.5000000000000000e+00 
129 2 4 2.2559723595316457e+00 -4.1031274190450506e+02 4.2000000000000000e+03 1.2000000000000000e+01 1.6000000000000000e+01 2.5000000000000000e+00 
130 2 4 2.2559723595316457e+00 -4.0122248948027789e+02 4.2000000000000000e+03 1.2000000000000000e+01 1.8000000000000000e+01 2.5000000000000000e+00 
149 2 4 2.2559723595316457e+00 -5.4854646764210902e+03 4.2000000000000000e+03 1.4000000000000000e+01 1.6000000000000000e+01 2.5000000000000000e+00 
150 2 4 2.2559723595316457e+00 -5.4795258121288553e+03 4.2000000000000000e+03 1.4000000000000000e+01 1.8000000000000000e+01 2.5000000000000000e+00 
169 2 4 2.2559723595316457e+00 -1.4873938167928274e+04 4.2000000000000000e+03 1.6000000000000000e+01 1.6000000000000000e+01 2.5000000000000000e+00 
170 2 4 2.2559723595316457e+00 -1.4861418446023037e+04 4.2000000000000000e+03 1.6000000000000000e+01 1.8000000000000000e+01 2.5000000000000000e+00 
189 2 4 2.2559723595316457e+00 -2.0555728353199833e+04 4.2000000000000000e+03 1.8000000000000000e+01 1.6000000000000000e+01 2.5000000000000000e+00 
190 2 4 2.2559723595316457e+00 -2.0519329292105394e+04 4.2000000000000000e+03 1.8000000000000000e+01 1.8000000000000000e+01 2.5000000000000000e+00 
1554 1156 2 1.0279999924558463e+00 -1.1336107643890490e+05 4.2000000000000000e+03 1.4239817110280630e+00 1.6702856790374694e+00 3.1547585155406612e+01 
860 462 2 1.0280000176867310e+00 -1.7040196628862126e+04 4.2000000000000000e+03 2.1991250622820715e+00 1.0726165573996669e+00 3.1882700901014690e+01 
723 325 2 1.0280000193085252e+00 -7.5779242787013587e+04 4.2000000000000000e+03 2.5257939988568756e+00 1.3461378789076632e+00 3.2053457329569383e+01 
2007 1609 2 1.0280000117456483e+00 5.7536156663362977e+04 4.2000000000000000e+03 2.5876296003048913e+00 1.6900222367769635e+00 3.2072683601634566e+01 
1154 756 2 1.0280000646213827e+00 -4.2175782383593632e+03 4.2000000000000000e+03 2.4137243713431640e+00 3.9339896382354569e+00 3.2077654923342990e+01 
2017 1619 2 1.0280000324246286e+00 2.5920986086650784e+04 4.2000000000000000e+03 2.3929696679630901e+00 3.4113319087906957e+00 3.2084308520864347e+01 
2020 1622 2 1.0279999697071367e+00 2.5982112585493578e+04 4.2000000000000000e+03 2.9872081330628490e+00 2.9338817785921600e+00 3.2689713707101703e+01 
1368 970 2 1.0280000445943807e+00 3.3895789749443386e+04 4.2000000000000000e+03 3.2488254920594737e+00 5.6213956698141465e-01 3.3088778431563426e+01 
879 481 2 1.0279999484542541e+00 -6.2627531493501425e+04 4.2000000000000000e+03 2.8296586588350642e-01 6.3219759854384865e+00 2.9629843900500422e+01 
897 499 2 1.0279999490662333e+00 4.5861760508878811e+04 4.2000000000000000e+03 2.4000361964768538e-01 6.1849295957430543e+00 2.9647622673906834e+01 
689 291 2 1.0279999396982569e+00 5.9955423742005740e+04 4.2000000000000000e+03 5.5275412636409893e-01 7.2082361152650067e+00 2.9753067055788151e+01 
1735 1337 2 1.0279999476990727e+00 7.0254609112502643e+04 4.2000000000000000e+03 1.8383401374305592e+00 8.1152349259691352e+00 3.0986638430293812e+01 
1705 1307 2 1.0279999691272730e+00 1.2611678087031547e+04 4.2000000000000000e+03 1.5775212160499237e+00 8.5655434013678136e+00 3.1322571326158354e+01 
1803 1405 2 1.0279999769571764e+00 7.8646597993562435e+04 4.2000000000000000e+03 4.0344332186216754e+00 7.0752169982245192e+00 3.2477504298351370e+01 
1586 1188 2 1.0279999738914243e+00 -3.3714185132146064e+04 4.2000000000000000e+03 4.1813806867895140e+00 7.7149359495245937e+00 3.2541392932392348e+01 
1556 1158 2 1.0279999663591810e+00 4.5168660290723317e+04 4.2000000000000000e+03 4.0165174660429788e+00 8.3491182156904724e+00 3.2545261081382932e+01 
1069 671 2 1.0279999557475694e+00 4.9291836133795397e+04 4.2000000000000000e+03 3.7438742586590172e+00 8.8688268522217673e+00 3.2647471765906793e+01 
1665 1267 2 1.0279999732044953e+00 -2.4576970690898772e+04 4.2000000000000000e+03 4.2906712171706065e+00 7.2704781940659950e+00 3.2702077771165413e+01 
763 365 2 1.0280001570947603e+00 -5.4816943608698937e+04 4.2000000000000000e+03 1.9087263762640130e-01 6.5203495643042606e+00 3.3247579385031301e+01 
1466 1068 2 1.0279999869581524e+00 -6.6829866387468923e+04 4.2000000000000000e+03 4.8961528858122366e-01 1.3575747371808220e+01 3.3328647826485707e+01 
1487 1089 2 1.0279998732863951e+00 -1.0458684659201436e+05 4.2000000000000000e+03 3.3340796692232719e+00 2.9752865334824961e+00 3.3367459058303034e+01 
1874 1476 2 1.0279995551528018e+00 -2.7335080745593721e+04 4.2000000000000000e+03 3.6589653329748391e+00 2.8958581344381171e+00 3.4016914615665563e+01 
1050 652 2 1.0279999741707782e+00 -1.1432172356295149e+05 4.2000000000000000e+03 2.8541953777666120e+00 1.0261641995375053e+00 3.5310381422084497e+01 
1530 1132 2 1.0280015627802908e+00 -1.1832826840676391e+05 4.2000000000000000e+03 2.0422638266482140e+00 4.4985481456191909e+00 3.6215075080612152e+01 
1110 712 2 1.0279999655608503e+00 -6.3725852691106746e+04 4.2000000000000000e+03 6.5742713905637551e+00 1.9085976431717024e+00 3.5896356257250574e+01 
600 202 2 1.0279998906941437e+00 3.0169230519768200e+04 4.2000000000000000e+03 6.8962734050763572e+00 3.4973152628935709e+00 3.6002353040677967e+01 
946 548 2 1.0279998850292016e+00 -5.0191141417731218e+04 4.2000000000000000e+03 6.9862000581852417e+00 3.9230929832040062e+00 3.6029905986086249e+01 
427 29 2 1.0279999841704062e+00 -9.1644956366746828e+03 4.2000000000000000e+03 6.9199454150764961e+00 2.2251827758216591e+00 3.6054281734810374e+01 
1450 1052 2 1.0279999878805410e+00 -5.0621047276809950e+04 4.2000000000000000e+03 7.0204786999235029e+00 4.4165988371521470e-01 3.6590121320134521e+01 
461 63 2 1.0279999964815720e+00 9.5452579213266377e+04 4.2000000000000000e+03 7.1384417580948796e+00 5.0122987491766280e-01 3.6651861150805189e+01 
1044 646 2 1.0280000568176937e+00 2.0635468333445944e+04 4.2000000000000000e+03 7.7683429371734647e+00 1.1621478596728840e+00 3.6885107748743955e+01 
1469 1071 2 1.0280000847345414e+00 6.0153005724690716e+04 4.2000000000000000e+03 8.3258656098006618e+00 3.2606468112053602e+00 3.7166529985954902e+01 
1194 796 2 1.0279999443321206e+00 -5.4097130983683775e+04 4.2000000000000000e+03 4.1482049876550482e+00 9.6671174452623454e+00 3.3459991552651040e+01 
1370 972 2 1.0280001900189628e+00 -5.5962699627961490e+04 4.2000000000000000e+03 1.0445170816289064e+00 9.4877847521479808e+00 3.3884006839404989e+01 
1031 633 2 1.0280001998738473e+00 -9.1532004530977618e+04 4.2000000000000000e+03 1.0578777879835743e+00 8.7200991488030031e+00 3.5925909485442837e+01 
1435 1037 2 1.0279997014187483e+00 8.6793477931402464e+04 4.2000000000000000e+03 1.1155704233701262e+00 6.1393498285389398e+00 3.6210582906059578e+01 
882 484 2 1.0279974510008092e+00 -4.4526096818543294e+04 4.2000000000000000e+03 1.1012523539090897e+00 7.4450778256903130e+00 3.6700023393006454e+01 
1601 1203 2 1.0279993053017837e+00 4.5478293348278443e+04 4.2000000000000000e+03 9.6952355547209779e-01 7.2363330614850616e+00 3.6839773622284142e+01 
601 203 2 1.0280075829236937e+00 7.0664845517597554e+04 4.2000000000000000e+03 1.6438152995341930e+00 8.8114508449211097e+00 3.7937299285827891e+01 
1340 942 2 1.0279999960673885e+00 9.0407890512723498e+03 4.2000000000000000e+03 5.5835395357527515e+00 7.2658816680653215e+00 3.4058134410624547e+01 
1322 924 2 1.0280000109913316e+00 -3.5641562829259424e+03 4.2000000000000000e+03 5.8198456617881353e+00 7.3606892226475331e+00 3.4273432445675397e+01 
1170 772 2 1.0280000355782524e+00 -3.1395122998174731e+04 4.2000000000000000e+03 7.0553499817695453e+00 7.2324861101609619e+00 3.5624821239143195e+01 
1506 1108 2 1.0279997888486929e+00 -1.2679565811866343e+05 4.2000000000000000e+03 6.4224350910116881e+00 5.2637530315056038e+00 3.5685725155997808e+01 
1455 1057 2 1.0280000109870995e+00 -7.0837032233135047e+04 4.2000000000000000e+03 7.5881293646333043e+00 7.1278671661176922e+00 3.6221408503998482e+01 
518 120 2 1.0279999933677393e+00 4.1103039345220059e+04 4.2000000000000000e+03 7.6882230385763810e+00 7.3549796512727488e+00 3.6421847356057718e+01 
1662 1264 2 1.0279999256517982e+00 -5.7114265939838828e+04 4.2000000000000000e+03 7.6784557516536145e+00 8.0118782582351056e+00 3.6721981046144769e+01 
2058 1660 2 1.0279999325929003e+00 1.4706855072398952e+04 4.2000000000000000e+03 7.8224252754244983e+00 7.7405234220779064e+00 3.6762369716405686e+01 
1096 698 2 1.0280000077944682e+00 -1.5755830397276981e+04 4.2000000000000000e+03 8.5814160520996499e+00 5.5797586639852472e+00 3.7466628019046873e+01 
1462 1064 2 1.0279999350702167e+00 -8.6942842887328647e+04 4.2000000000000000e+03 4.3523341359663679e+00 1.0229336351002734e+01 3.3936771076399225e+01 
731 333 2 1.0279999576695189e+00 5.8431699470668491e+03 4.2000000000000000e+03 1.1471163428983935e+00 1.4261407313125938e+01 3.4132189580839935e+01 
1504 1106 2 1.0279999342812531e+00 2.3453580107308255e+04 4.2000000000000000e+03 2.7334041249132377e+00 1.3598918834887343e+01 3.4569688434616175e+01 
1233 835 2 1.0279999548214591e+00 1.2942963706785456e+04 4.2000000000000000e+03 2.9000162574156096e+00 1.3820078912883705e+01 3.4830548370547035e+01 
1932 1534 2 1.0279999708523260e+00 6.5391455473809008e+04 4.2000000000000000e+03 3.8929141981244721e+00 1.3355326700229288e+01 3.4895890809965486e+01 
732 334 2 1.0279999673069711e+00 -1.0165293353995165e+04 4.2000000000000000e+03 2.9920138685151181e+00 1.3912579927273685e+01 3.4969229916790326e+01 
963 565 2 1.0279997841500355e+00 -6.7039814466074313e+04 4.2000000000000000e+03 2.0283964058665926e+00 1.1172373517756741e+01 3.5223952036742716e+01 
1221 823 2 1.0279999668707311e+00 1.3263325827526169e+04 4.2000000000000000e+03 5.3664764696869547e+00 1.2194703120480632e+01 3.5152494709335429e+01 
1574 1176 2 1.0280000083124596e+00 5.3607019576933371e+03 4.2000000000000000e+03 5.6070470700691297e+00 1.3465039976744155e+01 3.5870535071871110e+01 
1826 1428 2 1.0280000037488317e+00 -2.0939609376882625e+04 4.2000000000000000e+03 5.7396215136805084e+00 1.3435866788545338e+01 3.5938730231454805e+01 
1055 657 2 1.0280000034749339e+00 -1.1798454996399429e+05 4.2000000000000000e+03 5.7467444483871724e+00 1.3432027157458027e+01 3.5941008677565250e+01 
1300 902 2 1.0280000288256530e+00 2.7823600373042806e+04 4.2000000000000000e+03 7.1071512889645261e+00 1.1486764059228934e+01 3.6395226485107855e+01 
1853 1455 2 1.0279999989698008e+00 7.2893632455441752e+04 4.2000000000000000e+03 7.1724761812984621e+00 1.2031211477643652e+01 3.6492393759750755e+01 
1353 955 2 1.0280000918834364e+00 1.7098939940020543e+03 4.2000000000000000e+03 7.1381115621461664e+00 1.0293662034080409e+01 3.6595783106561896e+01 
1512 1114 2 1.0279998406091202e+00 -2.9291959028462011e+03 4.2000000000000000e+03 7.0763049869706141e+00 1.3628748729719410e+01 3.6962066866822958e+01 
1036 638 2 1.0280000163301244e+00 5.7444135819859344e+04 4.2000000000000000e+03 1.7412138520141930e+01 1.4444683156385338e+01 3.7779781249198805e+01 
1068 670 2 1.0280000074045745e+00 4.2509249018758506e+04 4.2000000000000000e+03 1.2303432964673660e+00 1.5091172462612896e+01 3.7551761816595409e+01 
1593 1195 2 1.0280000213344014e+00 -9.1691948505651089e+03 4.2000000000000000e+03 8.3889055008551505e+00 1.7975030264014404e+01 3.7576102484684156e+01 
2032 1634 2 1.0279999570835654e+00 2.4413370168712070e+04 4.2000000000000000e+03 7.6782226522684205e+00 1.7892033126876356e+01 3.7642607312457756e+01 
1418 1020 2 1.0280000392012463e+00 -4.5887956238944302e+04 4.2000000000000000e+03 8.9895952881171706e+00 1.7502816518899806e+01 3.7716319527785615e+01 
1008 610 2 1.0279999674940303e+00 -2.6603313754579349e+03 4.2000000000000000e+03 8.3756156123211802e+00 1.7519002370158809e+01 3.7750479259834790e+01 
2065 1667 2 1.0280000284900424e+00 3.3986234997879874e+04 4.2000000000000000e+03 5.9727520163824321e+00 1.8092774884356981e+01 3.7805552258251062e+01 
736 338 2 1.0280000974479433e+00 4.6890548219867953e+04 4.2000000000000000e+03 5.2835937388282241e+00 1.8523566239777860e+01 3.7878943131121019e+01 
1619 1221 2 1.0280000200213049e+00 -5.7634770456035323e+04 4.2000000000000000e+03 9.7551577624028365e+00 1.6925979046485487e+01 3.8042379332145551e+01 
890 492 2 1.0280000326218399e+00 -3.6961833732006111e+04 4.2000000000000000e+03 1.3457803098850290e+01 1.9494249997566872e+01 3.6230113987193263e+01 
1301 903 2 1.0279999554453216e+00 2.6860687953618144e+04 4.2000000000000000e+03 1.2928751146427825e+01 1.8038241720929918e+01 3.6702867338544145e+01 
1787 1389 2 1.0280001389677285e+00 -5.0588805971709029e+04 4.2000000000000000e+03 1.0077820733924247e+01 1.9402434418408451e+01 3.6849613174734834e+01 
864 466 2 1.0279998657260940e+00 6.2974789912672813e+03 4.2000000000000000e+03 1.4925327704580759e+01 1.7274463076867288e+01 3.7193434614757791e+01 
690 292 2 1.0280000312397737e+00 -1.5315732682748134e+04 4.2000000000000000e+03 1.8435832406285783e+01 1.6210209304718227e+01 3.7023546484351961e+01 
1758 1360 2 1.0280000331327210e+00 -5.4763694969403266e+04 4.2000000000000000e+03 1.9091287440686727e+01 1.5998403564026237e+01 3.7141750314313498e+01 
2029 1631 2 1.0280000275187677e+00 2.4681000864435366e+04 4.2000000000000000e+03 1.9163873068682115e+01 1.6609910454814617e+01 3.7149616243715599e+01 
479 81 2 1.0280000330454360e+00 6.2508988899002827e+04 4.2000000000000000e+03 1.7966883714361586e+01 1.5371638178782039e+01 3.7179623253226012e+01 
691 293 2 1.0279999667958495e+00 -1.5159091208092714e+04 4.2000000000000000e+03 1.7216926575004297e+01 1.8049726145492272e+01 3.7195084242831420e+01 
827 429 2 1.0279999966323099e+00 -4.4020523278990790e+04 4.2000000000000000e+03 1.5889623863548309e+01 1.5906503519872508e+01 3.7404392350584665e+01 
2067 1669 2 1.0280000180678808e+00 1.8905473627490999e+04 4.2000000000000000e+03 1.8865309252043151e+01 1.8000570991650854e+01 3.7495224158492164e+01 
1125 727 2 1.0279999774180282e+00 -6.9902311422167613e+03 4.2000000000000000e+03 1.5116170662609106e+01 1.5669550459582643e+01 3.7931479318563781e+01 
469 71 2 1.0280013219700936e+00 6.6637290309345757e+04 4.2000000000000000e+03 3.6269563262986710e+00 3.2411330880854918e+00 3.8493195525631137e+01 
727 329 2 1.0279996892582270e+00 -4.2379265515325809e+04 4.2000000000000000e+03 2.4595576322554606e+00 3.2054787211593041e+00 3.8579608319187926e+01 
1020 622 2 1.0279996787409826e+00 3.4609126931026709e+04 4.2000000000000000e+03 2.4713720446795393e+00 3.2459955494061346e+00 3.8591566625695009e+01 
929 531 2 1.0279996769361808e+00 -1.1443850895613745e+04 4.2000000000000000e+03 2.5125025796369176e+00 3.2924063633647553e+00 3.8597572574225453e+01 
614 216 2 1.0279994341666796e+00 1.5135327332988858e+04 4.2000000000000000e+03 2.8659628116302422e+00 3.5008314394408262e+00 3.8651549533957656e+01 
625 227 2 1.0280006550503549e+00 1.0718713785614818e+05 4.2000000000000000e+03 1.4206079150203936e+00 1.6314182480266568e+00 4.0361853329205033e+01 
870 472 2 1.0279976197594418e+00 -4.3207823214406861e+04 4.2000000000000000e+03 4.2516406892412428e+00 3.4833734266393779e+00 4.0642758561431066e+01 
1534 1136 2 1.0279983779444621e+00 -9.1937622383076930e+04 4.2000000000000000e+03 6.8747214480869168e-01 6.0218315956031637e-02 4.1658400621144963e+01 
999 601 2 1.0279999156163209e+00 -1.3942284270279968e+05 4.2000000000000000e+03 9.3223944653465018e+00 2.8563174274054410e+00 3.8557238012308211e+01 
937 539 2 1.0280009556617613e+00 6.8408850356153314e+04 4.2000000000000000e+03 5.1165458041075977e+00 2.8154235250688235e+00 4.1101943480381678e+01 
720 322 2 1.0280006475180650e+00 2.6815493974883400e+04 4.2000000000000000e+03 5.4053164465402102e+00 3.8207987378140018e+00 4.1604511332207551e+01 
1799 1401 2 1.0279997574955884e+00 7.7630529627734941e+04 4.2000000000000000e+03 6.4962951315019906e+00 3.4916919261805063e-01 4.1848423747645171e+01 
1814 1416 2 1.0280001938056815e+00 7.8089427212014534e+03 4.2000000000000000e+03 7.5276452217308991e+00 2.3884932949292388e+00 4.2404988216836344e+01 
1741 1343 2 1.0279998677578577e+00 3.6296687484888665e+04 4.2000000000000000e+03 1.0144296715645408e+01 3.1539413599083121e+00 3.8581858428851440e+01 
1978 1580 2 1.0279999858610864e+00 1.5733655230093493e+04 4.2000000000000000e+03 1.1721454120703076e+01 3.5372792701829696e+00 3.9097286296302869e+01 