LAMMPS data file via write_data, version 30 Jul 2016, timestep = 50400000

180 atoms
2 atom types

0.0000000000000000e+00 2.0000000000000000e+01 xlo xhi
0.0000000000000000e+00 2.0000000000000000e+01 ylo yhi
0.0000000000000000e+00 2.0000000000000000e+01 zlo zhi

Masses

1 3.896
2 4.31

Atoms # meso-molecular

47 1 2 1.0279822118582937e+00 -3.3455189770010458e+02 1.0000000000000000e+00 4.0720259332344932e-01 5.7592036118944421e+00 3.3025666479200950e+00 
76 1 2 1.0279822118582931e+00 -2.6632878644400790e+02 1.0000000000000000e+00 4.0720259332345726e-01 5.7592036118944421e+00 3.3025666479200901e+00 
77 1 2 1.0279822118582933e+00 -3.1887953748911883e+02 1.0000000000000000e+00 4.0720259332345321e-01 5.7592036118944456e+00 3.3025666479200857e+00 
83 1 2 1.0279822118582937e+00 -3.1919443990368273e+02 1.0000000000000000e+00 4.0720259332347197e-01 5.7592036118944252e+00 3.3025666479200964e+00 
41 1 2 1.0279822118582933e+00 -3.5212885072315157e+02 1.0000000000000000e+00 4.0720259332345238e-01 5.7592036118944421e+00 3.3025666479200946e+00 
40 1 2 1.0279822118582931e+00 -3.3787744897701413e+02 1.0000000000000000e+00 4.0720259332345732e-01 5.7592036118944403e+00 3.3025666479200910e+00 
84 1 2 1.0279822118582937e+00 -2.8622908727213030e+02 1.0000000000000000e+00 4.0720259332344672e-01 5.7592036118944447e+00 3.3025666479200879e+00 
119 1 2 1.0279822118583750e+00 -4.1201713604345821e+02 1.0000000000000000e+00 4.0720257633866963e-01 5.7592036235361848e+00 3.3025666452598750e+00 
107 1 2 1.0279822118897954e+00 -4.0813280667016096e+02 1.0000000000000000e+00 4.0719626699048084e-01 5.7592079486145309e+00 3.3025656541850492e+00 
148 1 2 1.0279997357812267e+00 -4.9940959820586141e+02 1.0000000000000000e+00 4.9531711265203571e+00 7.5978315637072642e+00 7.0098824838988993e-01 
152 1 2 1.0279997402163596e+00 -3.5466374443813913e+02 1.0000000000000000e+00 4.9577053891885035e+00 7.5997818164383721e+00 6.9616460798979052e-01 
123 1 2 1.0279997449991816e+00 -3.4579093021102449e+02 1.0000000000000000e+00 4.9626937383310645e+00 7.6020370923709510e+00 6.9083316678582740e-01 
158 1 2 1.0279997449991827e+00 -3.2996320861953370e+02 1.0000000000000000e+00 4.9626937383280154e+00 7.6020370923695175e+00 6.9083316678910767e-01 
159 1 2 1.0279997449991873e+00 -3.9335238982168062e+02 1.0000000000000000e+00 4.9626937383279834e+00 7.6020370923695397e+00 6.9083316678913897e-01 
122 1 2 1.0279997449991887e+00 -3.6122144720116194e+02 1.0000000000000000e+00 4.9626937381590901e+00 7.6020370922921554e+00 6.9083316696964392e-01 
128 1 2 1.0279997449991876e+00 -3.0201250759276246e+02 1.0000000000000000e+00 4.9626937381538117e+00 7.6020370922896916e+00 6.9083316697530450e-01 
146 1 2 1.0279997451130900e+00 -4.0817666208535007e+02 1.0000000000000000e+00 4.9628134198602440e+00 7.6020924233757112e+00 6.9070503347068002e-01 
153 1 2 1.0279999384288474e+00 -4.4045923158574470e+02 1.0000000000000000e+00 4.4830041561955589e+00 7.3825487341863871e+00 1.3638206526877656e+00 
125 1 2 1.0279950856920907e+00 -3.9812741863948514e+02 1.0000000000000000e+00 2.5420646669154712e+00 8.5656567071981282e+00 3.3990036080027597e+00 
131 1 2 1.0279950855322730e+00 -3.0805618833869949e+02 1.0000000000000000e+00 2.5420619266818010e+00 8.5656457224094336e+00 3.3990035460897903e+00 
94 1 2 1.0279950841353100e+00 -3.4406181811539903e+02 1.0000000000000000e+00 2.5420381388424915e+00 8.5655495074566765e+00 3.3990019013216513e+00 
138 1 2 1.0279950854417177e+00 -2.5896627285572157e+02 1.0000000000000000e+00 2.5420603636666259e+00 8.5656395105688325e+00 3.3990035821883069e+00 
137 1 2 1.0279950854342850e+00 -2.7642816017761066e+02 1.0000000000000000e+00 2.5420602397259500e+00 8.5656389941078590e+00 3.3990035534831016e+00 
132 1 2 1.0279950854931030e+00 -2.9453233702304823e+02 1.0000000000000000e+00 2.5420612332772023e+00 8.5656430547166327e+00 3.3990036785158400e+00 
102 1 2 1.0279950854653757e+00 -2.5588304874858520e+02 1.0000000000000000e+00 2.5420607666169954e+00 8.5656411407797304e+00 3.3990036109049271e+00 
95 1 2 1.0279950856375371e+00 -3.3451058273320012e+02 1.0000000000000000e+00 2.5420637313644696e+00 8.5656529571022659e+00 3.3990035871325901e+00 
96 1 2 1.0279950855094495e+00 -3.0259585468907039e+02 1.0000000000000000e+00 2.5420615143148790e+00 8.5656441780860639e+00 3.3990036805570569e+00 
64 1 2 1.0280024132256307e+00 -5.2178830714163814e+02 1.0000000000000000e+00 4.3879156773793175e+00 9.2135404227629358e+00 4.3863927540422134e+00 
100 1 2 1.0280024132256307e+00 -3.3863289098604298e+02 1.0000000000000000e+00 4.3879156773793175e+00 9.2135404227629358e+00 4.3863927540422134e+00 
106 1 2 1.0280024132256307e+00 -4.0735365871200781e+02 1.0000000000000000e+00 4.3879156773793175e+00 9.2135404227629358e+00 4.3863927540422134e+00 
70 1 2 1.0280024132256307e+00 -5.0375518397626263e+02 1.0000000000000000e+00 4.3879156773793175e+00 9.2135404227629358e+00 4.3863927540422134e+00 
35 1 2 1.0280024132256307e+00 -5.1588557391565985e+02 1.0000000000000000e+00 4.3879156773793175e+00 9.2135404227629358e+00 4.3863927540422134e+00 
28 1 2 1.0280024132256307e+00 -4.5683702587606354e+02 1.0000000000000000e+00 4.3879156773793175e+00 9.2135404227629358e+00 4.3863927540422134e+00 
34 1 2 1.0280024132256307e+00 -5.2349077239853750e+02 1.0000000000000000e+00 4.3879156773793175e+00 9.2135404227629358e+00 4.3863927540422134e+00 
27 1 2 1.0280024132256307e+00 -3.6773054662498396e+02 1.0000000000000000e+00 4.3879156773793175e+00 9.2135404227629358e+00 4.3863927540422134e+00 
147 1 2 1.0280009235694845e+00 -4.3203452449259191e+02 1.0000000000000000e+00 5.7376958039774486e+00 7.1876558345218804e+00 3.5709447303738293e+00 
124 1 2 1.0280009179462004e+00 -4.9151182697986280e+02 1.0000000000000000e+00 5.7391641777913351e+00 7.1880274677434555e+00 3.5708915578428941e+00 
16 1 2 1.0280009158354126e+00 -3.3795219418952848e+02 1.0000000000000000e+00 5.7397188089673907e+00 7.1882285898408957e+00 3.5709235917153306e+00 
117 1 2 1.0280008781194869e+00 -4.0744883057409720e+02 1.0000000000000000e+00 5.7496452988866249e+00 7.1924008580979146e+00 3.5719432138914060e+00 
118 1 2 1.0280008712357422e+00 -4.7029753840866391e+02 1.0000000000000000e+00 5.7514505961303879e+00 7.1930895695458004e+00 3.5720590695036831e+00 
160 1 2 1.0280008668696350e+00 -4.2852999087033942e+02 1.0000000000000000e+00 5.7526064798156886e+00 7.1937740710006794e+00 3.5723389878280170e+00 
42 1 2 1.0279999319959587e+00 -5.6833388199194064e+02 1.0000000000000000e+00 7.4380274077279358e+00 7.1032061530470987e+00 1.9583820345287959e+00 
37 1 2 1.0279999321252404e+00 -4.4735306585621674e+02 1.0000000000000000e+00 7.4379979733682990e+00 7.1031566796092376e+00 1.9583156226358365e+00 
43 1 2 1.0279999322245157e+00 -5.7800364281204645e+02 1.0000000000000000e+00 7.4379752764686806e+00 7.1031185646441797e+00 1.9582646554408998e+00 
12 1 2 1.0279999323178932e+00 -4.8988085324731219e+02 1.0000000000000000e+00 7.4379539258242788e+00 7.1030827230047651e+00 1.9582167734079685e+00 
48 1 2 1.0279999323226809e+00 -4.3532859018917395e+02 1.0000000000000000e+00 7.4379528444827407e+00 7.1030809078526591e+00 1.9582143480200824e+00 
8 1 2 1.0279999323684188e+00 -5.0284360840957169e+02 1.0000000000000000e+00 7.4379423781589811e+00 7.1030633365271596e+00 1.9581908440300317e+00 
2 1 2 1.0279999287250072e+00 -5.1933929137536438e+02 1.0000000000000000e+00 7.4386670948063198e+00 7.1043235309338391e+00 1.9601749606468371e+00 
173 1 2 1.0279983631313945e+00 -3.8985892258493720e+02 1.0000000000000000e+00 6.8434369817238450e+00 9.9199717892803712e+00 9.6573306880052445e-01 
172 1 2 1.0279983631313518e+00 -4.8934333868545406e+02 1.0000000000000000e+00 6.8434369158011599e+00 9.9199718077912085e+00 9.6573305726205216e-01 
130 1 2 1.0279983631302927e+00 -4.2656478446247849e+02 1.0000000000000000e+00 6.8434361051951083e+00 9.9199720121437132e+00 9.6573282139875416e-01 
167 1 2 1.0279983631303005e+00 -3.5013172631598593e+02 1.0000000000000000e+00 6.8434361051931072e+00 9.9199720121443207e+00 9.6573282139870731e-01 
165 1 2 1.0279983631302976e+00 -5.6138666068098314e+02 1.0000000000000000e+00 6.8434361052057042e+00 9.9199720121408941e+00 9.6573282140132621e-01 
129 1 2 1.0279983631302942e+00 -3.9342239664775906e+02 1.0000000000000000e+00 6.8434361051937893e+00 9.9199720121445161e+00 9.6573282140029582e-01 
166 1 2 1.0279983631306033e+00 -3.8788507249930882e+02 1.0000000000000000e+00 6.8434363923853168e+00 9.9199719439921434e+00 9.6573292212536255e-01 
177 1 2 1.0279983631309821e+00 -2.5547809671505343e+02 1.0000000000000000e+00 6.8434366336901373e+00 9.9199718751501607e+00 9.6573295998247055e-01 
171 1 2 1.0279983631303005e+00 -3.6993504282697478e+02 1.0000000000000000e+00 6.8434361051938151e+00 9.9199720121445001e+00 9.6573282140036398e-01 
136 1 2 1.0279983631302909e+00 -5.1032000571540726e+02 1.0000000000000000e+00 6.8434361051932351e+00 9.9199720121446546e+00 9.6573282140008310e-01 
178 1 2 1.0279983631302965e+00 -2.5705530407140799e+02 1.0000000000000000e+00 6.8434361051984229e+00 9.9199720121432886e+00 9.6573282140143168e-01 
7 1 2 1.0279995927371386e+00 -5.9949847814225700e+02 1.0000000000000000e+00 7.4679143406238460e+00 7.2032330798485340e+00 2.1601515256066701e+00 
145 1 2 1.0280003287694863e+00 -5.2916192843213730e+02 1.0000000000000000e+00 1.3089307095818077e+01 5.2936164883696799e+00 1.2906223484486956e+01 
79 1 2 1.0280003287694839e+00 -4.2162080554395607e+02 1.0000000000000000e+00 1.3089307095818207e+01 5.2936164883696852e+00 1.2906223484486780e+01 
109 1 2 1.0280003287694857e+00 -4.2053207997893043e+02 1.0000000000000000e+00 1.3089307095818084e+01 5.2936164883696817e+00 1.2906223484486940e+01 
115 1 2 1.0280003287694863e+00 -4.4421674645190143e+02 1.0000000000000000e+00 1.3089307095818146e+01 5.2936164883697074e+00 1.2906223484486887e+01 
120 1 2 1.0280003287694828e+00 -5.2997851971994555e+02 1.0000000000000000e+00 1.3089307095818112e+01 5.2936164883696621e+00 1.2906223484486878e+01 
73 1 2 1.0280003287694854e+00 -3.4408309287375334e+02 1.0000000000000000e+00 1.3089307095818153e+01 5.2936164883697634e+00 1.2906223484486912e+01 
151 1 2 1.0280003287694848e+00 -5.0677172090851627e+02 1.0000000000000000e+00 1.3089307095818118e+01 5.2936164883698149e+00 1.2906223484486992e+01 
98 1 2 1.0280003276949072e+00 -3.3366245145652459e+02 1.0000000000000000e+00 1.3131722586923232e+01 5.3362226335359679e+00 1.2883584914088678e+01 
3 1 2 1.0279997027096726e+00 -4.4000753715817126e+02 1.0000000000000000e+00 1.3326349948167413e+01 3.9738240556982536e+00 1.4651570233712462e+01 
69 1 2 1.0279997027096726e+00 -3.9270635647901560e+02 1.0000000000000000e+00 1.3326349948167413e+01 3.9738240556982536e+00 1.4651570233712462e+01 
68 1 2 1.0279997027096726e+00 -3.3941304899356328e+02 1.0000000000000000e+00 1.3326349948167413e+01 3.9738240556982536e+00 1.4651570233712462e+01 
63 1 2 1.0279997027096726e+00 -2.8850655515035589e+02 1.0000000000000000e+00 1.3326349948167413e+01 3.9738240556982536e+00 1.4651570233712462e+01 
32 1 2 1.0279997027096726e+00 -2.6964117220968734e+02 1.0000000000000000e+00 1.3326349948167413e+01 3.9738240556982536e+00 1.4651570233712462e+01 
33 1 2 1.0279997027096726e+00 -4.1828523734782863e+02 1.0000000000000000e+00 1.3326349948167413e+01 3.9738240556982536e+00 1.4651570233712462e+01 
62 1 2 1.0279997027096726e+00 -2.9683027073283449e+02 1.0000000000000000e+00 1.3326349948167413e+01 3.9738240556982536e+00 1.4651570233712462e+01 
89 1 2 1.0279978361581701e+00 -3.2097811118997731e+02 1.0000000000000000e+00 1.2547797623452549e+01 1.7393885222757000e+01 1.8334325259243570e+01 
17 1 2 1.0279979925726044e+00 -3.2636799540279486e+02 1.0000000000000000e+00 1.2515542529762708e+01 1.7400398249412351e+01 1.8374375131809991e+01 
18 1 2 1.0279980110480218e+00 -4.0028450584197520e+02 1.0000000000000000e+00 1.2512782106979737e+01 1.7401051883193436e+01 1.8377277025063666e+01 
53 1 2 1.0279979912895809e+00 -3.5052633484906869e+02 1.0000000000000000e+00 1.2515739303140220e+01 1.7400362249195684e+01 1.8374164897676657e+01 
54 1 2 1.0279980011148364e+00 -3.8436991069555870e+02 1.0000000000000000e+00 1.2514256386906855e+01 1.7400700471951076e+01 1.8375735733030890e+01 
90 1 2 1.0279979994379975e+00 -4.5322953614654489e+02 1.0000000000000000e+00 1.2514507062873648e+01 1.7400639315505160e+01 1.8375471867902455e+01 
23 1 2 1.0279979935374859e+00 -3.1755410462185625e+02 1.0000000000000000e+00 1.2515395776365231e+01 1.7400429743898936e+01 1.8374531351417545e+01 
60 1 2 1.0279979930266177e+00 -3.9964850966122083e+02 1.0000000000000000e+00 1.2515473385945521e+01 1.7400412798630875e+01 1.8374448781385340e+01 
88 1 2 1.0279988264159383e+00 -2.8175938823481965e+02 1.0000000000000000e+00 1.2612780087420077e+01 1.7563458850852498e+01 1.8046909300795697e+01 
13 1 2 1.0280010756665707e+00 -4.2290253424818695e+02 1.0000000000000000e+00 1.0755051949917455e+01 1.8531335114783637e+01 1.6968289137974825e+01 
61 1 2 1.0280010756665292e+00 -4.5490380400548628e+02 1.0000000000000000e+00 1.0755051943457534e+01 1.8531335112297182e+01 1.6968289144368132e+01 
49 1 2 1.0280010756665940e+00 -4.9443623275142971e+02 1.0000000000000000e+00 1.0755051948547289e+01 1.8531335114097292e+01 1.6968289139201374e+01 
55 1 2 1.0280010756665545e+00 -4.2408920587779488e+02 1.0000000000000000e+00 1.0755051952628696e+01 1.8531335116006826e+01 1.6968289135437878e+01 
20 1 2 1.0280010756666256e+00 -5.2928097639071041e+02 1.0000000000000000e+00 1.0755051947593058e+01 1.8531335113741392e+01 1.6968289140155367e+01 
26 1 2 1.0280010756666011e+00 -3.9975635551008349e+02 1.0000000000000000e+00 1.0755051955851357e+01 1.8531335117036498e+01 1.6968289132076642e+01 
19 1 2 1.0280010756665432e+00 -4.7582064001056375e+02 1.0000000000000000e+00 1.0755051951344830e+01 1.8531335115395407e+01 1.6968289136612775e+01 
14 1 2 1.0280010756665945e+00 -3.8245658636672903e+02 1.0000000000000000e+00 1.0755051950536004e+01 1.8531335115041507e+01 1.6968289137378967e+01 
163 1 2 1.0280010769161343e+00 -3.1288057565812443e+02 1.0000000000000000e+00 1.0754920488325133e+01 1.8531146594622321e+01 1.6968306762256400e+01 
164 1 2 1.0280010769161338e+00 -3.6707970350457055e+02 1.0000000000000000e+00 1.0754920488325128e+01 1.8531146594622431e+01 1.6968306762256493e+01 
157 1 2 1.0280010769161343e+00 -3.8690070837701143e+02 1.0000000000000000e+00 1.0754920488325133e+01 1.8531146594622321e+01 1.6968306762256400e+01 
111 1 2 1.0280130121963951e+00 -3.5066978520175718e+02 1.0000000000000000e+00 1.9173008878208066e+01 3.9699765344178890e+00 3.0384071693376336e+00 
75 1 2 1.0280130121963953e+00 -4.6928454494730153e+02 1.0000000000000000e+00 1.9173008878206165e+01 3.9699765344202973e+00 3.0384071693302133e+00 
81 1 2 1.0280130121963953e+00 -4.7412431181747064e+02 1.0000000000000000e+00 1.9173008878206165e+01 3.9699765344202973e+00 3.0384071693302133e+00 
38 1 2 1.0280130121963953e+00 -3.0874986615330971e+02 1.0000000000000000e+00 1.9173008878206165e+01 3.9699765344202973e+00 3.0384071693302133e+00 
110 1 2 1.0280130121963982e+00 -4.3995470277652805e+02 1.0000000000000000e+00 1.9173008878205842e+01 3.9699765344185041e+00 3.0384071693439529e+00 
44 1 2 1.0280130121963953e+00 -4.3196894914968033e+02 1.0000000000000000e+00 1.9173008878206165e+01 3.9699765344202973e+00 3.0384071693302133e+00 
116 1 2 1.0280130121963953e+00 -3.8378360002169779e+02 1.0000000000000000e+00 1.9173008878206165e+01 3.9699765344202973e+00 3.0384071693302133e+00 
74 1 2 1.0280130121963973e+00 -4.2162317801268006e+02 1.0000000000000000e+00 1.9173008878204882e+01 3.9699765344202942e+00 3.0384071693362875e+00 
80 1 2 1.0280130121963973e+00 -3.9180623583752720e+02 1.0000000000000000e+00 1.9173008878204882e+01 3.9699765344202942e+00 3.0384071693362875e+00 
39 1 2 1.0280130121963951e+00 -3.4823339695950796e+02 1.0000000000000000e+00 1.9173008878210766e+01 3.9699765344146560e+00 3.0384071693469092e+00 
114 1 2 1.0280002836109565e+00 -3.8207926627222793e+02 1.0000000000000000e+00 1.6303021617501251e+01 5.5639613735842701e+00 1.0892595634630228e+01 
56 1 2 1.0280002836832873e+00 -3.1726691914149660e+02 1.0000000000000000e+00 1.6304236679780011e+01 5.5669291045789064e+00 1.0890899823426002e+01 
50 1 2 1.0280002836834270e+00 -3.2376303752906284e+02 1.0000000000000000e+00 1.6304233955673613e+01 5.5669286195337149e+00 1.0890899293996492e+01 
57 1 2 1.0280002836840854e+00 -3.4867400209015517e+02 1.0000000000000000e+00 1.6304220218345943e+01 5.5669261679188109e+00 1.0890896628246013e+01 
93 1 2 1.0280002836855311e+00 -3.2584921190817255e+02 1.0000000000000000e+00 1.6304191058569664e+01 5.5669209083634481e+00 1.0890891009618212e+01 
51 1 2 1.0280002836864852e+00 -3.4414908278038939e+02 1.0000000000000000e+00 1.6304170595325107e+01 5.5669171865178058e+00 1.0890887089098282e+01 
87 1 2 1.0280002836865665e+00 -3.2069860326897418e+02 1.0000000000000000e+00 1.6304168481463115e+01 5.5669168000619038e+00 1.0890886685534896e+01 
86 1 2 1.0280002836909914e+00 -3.0451215110412005e+02 1.0000000000000000e+00 1.6304074531223829e+01 5.5668992140164466e+00 1.0890869043166283e+01 
139 1 2 1.0280002891281881e+00 -3.5713835795609253e+02 1.0000000000000000e+00 1.3418318640104575e+01 5.5923641904149699e+00 1.2804188865338633e+01 
141 1 2 1.0280002897441038e+00 -3.4000769167042046e+02 1.0000000000000000e+00 1.3411041280811311e+01 5.5883519524754623e+00 1.2807525545419773e+01 
91 1 2 1.0279997269725141e+00 -3.1762030994189860e+02 1.0000000000000000e+00 1.6401074035251725e+01 6.4434940645899834e+00 1.1761694659755440e+01 
127 1 2 1.0279997269725154e+00 -3.2488640097418971e+02 1.0000000000000000e+00 1.6401074035250517e+01 6.4434940645881564e+00 1.1761694659760561e+01 
92 1 2 1.0279997269721899e+00 -3.3415256669010301e+02 1.0000000000000000e+00 1.6401074524268083e+01 6.4434940535288474e+00 1.1761694096611423e+01 
85 1 2 1.0279997269725161e+00 -3.5416440799408809e+02 1.0000000000000000e+00 1.6401074035251845e+01 6.4434940645895997e+00 1.1761694659756055e+01 
97 1 2 1.0279997269725134e+00 -2.6898301204510159e+02 1.0000000000000000e+00 1.6401074035250812e+01 6.4434940645885579e+00 1.1761694659759417e+01 
121 1 2 1.0279997269725141e+00 -3.4336896333670160e+02 1.0000000000000000e+00 1.6401074035253000e+01 6.4434940645886769e+00 1.1761694659756555e+01 
25 1 2 1.0279997269724783e+00 -4.8221658181767231e+02 1.0000000000000000e+00 1.6401074079905712e+01 6.4434940602622461e+00 1.1761694615025375e+01 
52 1 2 1.0280003184221773e+00 -3.3677968207840757e+02 1.0000000000000000e+00 1.5690195847362617e+01 4.1681380790984788e+00 1.5185232131987320e+01 
4 1 2 1.0280003174703709e+00 -4.7784039998104851e+02 1.0000000000000000e+00 1.5690318278171288e+01 4.1681514315857617e+00 1.5185765337211430e+01 
10 1 2 1.0280003174703705e+00 -4.3676509235820623e+02 1.0000000000000000e+00 1.5690318277415576e+01 4.1681514308087237e+00 1.5185765331063427e+01 
11 1 2 1.0280003174703707e+00 -4.7297869378545300e+02 1.0000000000000000e+00 1.5690318278193763e+01 4.1681514316094335e+00 1.5185765337396575e+01 
82 1 2 1.0280003174698285e+00 -3.1774174547356586e+02 1.0000000000000000e+00 1.5690318315626026e+01 4.1681514709207033e+00 1.5185765645289232e+01 
46 1 2 1.0280003174703483e+00 -3.4431110885263212e+02 1.0000000000000000e+00 1.5690318282396492e+01 4.1681514359802652e+00 1.5185765371790152e+01 
9 1 2 1.0280003174703800e+00 -3.5658900451020861e+02 1.0000000000000000e+00 1.5690318275741422e+01 4.1681514290739274e+00 1.5185765317388759e+01 
45 1 2 1.0280003174703691e+00 -3.5057974864206096e+02 1.0000000000000000e+00 1.5690318276294290e+01 4.1681514296461888e+00 1.5185765321901863e+01 
112 1 2 1.0279998790863680e+00 -2.9055655409043061e+02 1.0000000000000000e+00 1.6342979708794068e+01 2.0037919543937348e+00 1.6764211718829703e+01 
24 1 2 1.0279998839253359e+00 -3.8580182701120822e+02 1.0000000000000000e+00 1.6338416855459482e+01 2.0053133771235006e+00 1.6768977072448823e+01 
30 1 2 1.0279998839240996e+00 -4.1060685236191517e+02 1.0000000000000000e+00 1.6338418258975903e+01 2.0053130375851267e+00 1.6768975859254684e+01 
71 1 2 1.0279998839228637e+00 -4.1363732294504842e+02 1.0000000000000000e+00 1.6338419614838784e+01 2.0053127108226336e+00 1.6768974689449387e+01 
65 1 2 1.0279998839235334e+00 -4.1805737941100682e+02 1.0000000000000000e+00 1.6338418824206276e+01 2.0053128905626609e+00 1.6768975352463670e+01 
29 1 2 1.0279998839230029e+00 -3.9505702840964381e+02 1.0000000000000000e+00 1.6338419426611768e+01 2.0053127573631522e+00 1.6768974853933603e+01 
59 1 2 1.0279998839615703e+00 -4.1759384579272051e+02 1.0000000000000000e+00 1.6338378801601717e+01 2.0053236041167430e+00 1.6769011768716823e+01 
22 1 2 1.0279998839779181e+00 -3.1700294355144348e+02 1.0000000000000000e+00 1.6338364468836073e+01 2.0053291692680855e+00 1.6769027867011729e+01 
101 1 2 1.0279999208447532e+00 -4.1434362899011063e+02 1.0000000000000000e+00 1.6303207517048705e+01 2.0190906557268549e+00 1.6803985058590829e+01 
154 1 2 1.0280000727472036e+00 -5.2697693479586542e+02 1.0000000000000000e+00 1.6536102094650186e+01 2.3534507896107337e+00 1.6957226692358077e+01 
15 1 2 1.0280000736830910e+00 -4.2062277115607532e+02 1.0000000000000000e+00 1.6535574454932714e+01 2.3549053655989005e+00 1.6958076502964030e+01 
103 1 2 1.0280000749346312e+00 -3.7937291854576824e+02 1.0000000000000000e+00 1.6534844315210275e+01 2.3568365425470299e+00 1.6959214879725472e+01 
176 1 2 1.0279989688143734e+00 -4.5737461011555541e+02 1.0000000000000000e+00 1.7706973998001466e+01 1.2147287462987173e+01 2.4660306888578507e+00 
140 1 2 1.0279989554024536e+00 -3.3080211638092737e+02 1.0000000000000000e+00 1.7899486545537389e+01 1.2174902579913907e+01 2.6653732754826231e+00 
78 1 2 1.0279990991252927e+00 -3.9802651776156927e+02 1.0000000000000000e+00 1.6139560430108553e+01 1.3408914126567730e+01 9.1161888952461423e-01 
143 1 2 1.0279990991215040e+00 -4.5482022343089483e+02 1.0000000000000000e+00 1.6139556825379245e+01 1.3408915453851204e+01 9.1161659879355406e-01 
142 1 2 1.0279990991218428e+00 -4.7814811747859687e+02 1.0000000000000000e+00 1.6139557062487743e+01 1.3408915406142809e+01 9.1161672692475215e-01 
180 1 2 1.0279990991199712e+00 -3.7254039851857749e+02 1.0000000000000000e+00 1.6139555821215243e+01 1.3408915638452314e+01 9.1161606608621781e-01 
113 1 2 1.0279990991210899e+00 -3.5935913447440163e+02 1.0000000000000000e+00 1.6139556563603708e+01 1.3408915502240539e+01 9.1161645977069250e-01 
179 1 2 1.0279990991202528e+00 -4.7166095477684246e+02 1.0000000000000000e+00 1.6139556009956440e+01 1.3408915604879034e+01 9.1161616557299108e-01 
144 1 2 1.0279990991197363e+00 -4.2024086997683526e+02 1.0000000000000000e+00 1.6139555667799097e+01 1.3408915666574680e+01 9.1161598474532191e-01 
174 1 2 1.0279990991043140e+00 -4.1969266332491139e+02 1.0000000000000000e+00 1.6139539672232921e+01 1.3408922022689413e+01 9.1160555421248346e-01 
150 1 2 1.0279990990971379e+00 -3.6509811900176345e+02 1.0000000000000000e+00 1.6139530594089795e+01 1.3408926234438889e+01 9.1159929023683695e-01 
72 1 2 1.0280024082461938e+00 -4.6883652380760662e+02 1.0000000000000000e+00 1.4354625653205458e+01 1.4345880812715677e+01 1.5755766578427902e-01 
169 1 2 1.0279992116890775e+00 -4.0080633003358889e+02 1.0000000000000000e+00 1.8251920093406444e+01 1.2459266567490998e+01 3.3732547562999349e+00 
135 1 2 1.0279992228563279e+00 -2.7493018367451867e+02 1.0000000000000000e+00 1.8223604439206255e+01 1.2474105102353935e+01 3.5333516758630430e+00 
104 1 2 1.0279992208844748e+00 -3.6252752408198813e+02 1.0000000000000000e+00 1.8219077033296472e+01 1.2473468890769855e+01 3.5468470539017627e+00 
175 1 2 1.0279992206147963e+00 -4.4346053312015783e+02 1.0000000000000000e+00 1.8218630584537834e+01 1.2473365077505415e+01 3.5480816442325125e+00 
133 1 2 1.0279992201639039e+00 -3.2478373768449700e+02 1.0000000000000000e+00 1.8217779643313612e+01 1.2473194367566876e+01 3.5504577139236373e+00 
170 1 2 1.0279992198415486e+00 -4.1423211441247309e+02 1.0000000000000000e+00 1.8217154136656863e+01 1.2473071290590774e+01 3.5521941750204702e+00 
99 1 2 1.0279992197925234e+00 -2.6208258140910885e+02 1.0000000000000000e+00 1.8217075687894368e+01 1.2473051719680406e+01 3.5524052487305320e+00 
105 1 2 1.0279992197453831e+00 -3.1126767395072460e+02 1.0000000000000000e+00 1.8216985518908491e+01 1.2473033599248225e+01 3.5526538877083351e+00 
149 1 2 1.0280010907972850e+00 -5.0686237577257788e+02 1.0000000000000000e+00 1.6398485714334722e+01 1.3530664749868855e+01 3.8808742205756017e+00 
161 1 2 1.0280010907972850e+00 -3.6638828120071776e+02 1.0000000000000000e+00 1.6398485714335848e+01 1.3530664749869377e+01 3.8808742205762501e+00 
155 1 2 1.0280010907972867e+00 -4.2478763521903608e+02 1.0000000000000000e+00 1.6398485714334807e+01 1.3530664749868439e+01 3.8808742205759255e+00 
126 1 2 1.0280010907972847e+00 -4.4556186164322884e+02 1.0000000000000000e+00 1.6398485714336093e+01 1.3530664749869580e+01 3.8808742205763380e+00 
168 1 2 1.0280010907972799e+00 -4.1056896643617040e+02 1.0000000000000000e+00 1.6398485714335095e+01 1.3530664749868802e+01 3.8808742205759779e+00 
156 1 2 1.0280010907972821e+00 -5.4548711818134780e+02 1.0000000000000000e+00 1.6398485714335894e+01 1.3530664749869036e+01 3.8808742205765143e+00 
162 1 2 1.0280010907972794e+00 -3.6891452254990037e+02 1.0000000000000000e+00 1.6398485714335614e+01 1.3530664749869549e+01 3.8808742205759641e+00 
134 1 2 1.0280010907323991e+00 -3.7828598475397604e+02 1.0000000000000000e+00 1.6398455376791684e+01 1.3530630365079876e+01 3.8808693198986459e+00 
58 1 2 1.0279996604890627e+00 -3.5409993939150428e+02 1.0000000000000000e+00 1.4106811631610306e+01 1.5021728737422176e+01 1.9668725723336184e+01 
36 1 2 1.0279966635993747e+00 -5.7296518772779996e+02 1.0000000000000000e+00 1.4137527849443265e+01 1.5100324390848149e+01 1.9611407633628719e+01 
6 1 2 1.0279966635388047e+00 -4.0459476500725799e+02 1.0000000000000000e+00 1.4137527415558834e+01 1.5100326138893562e+01 1.9611408747206088e+01 
5 1 2 1.0279966635370021e+00 -3.9006497168947038e+02 1.0000000000000000e+00 1.4137527402688411e+01 1.5100326190774673e+01 1.9611408780247473e+01 
67 1 2 1.0279966639385216e+00 -4.0036960358442678e+02 1.0000000000000000e+00 1.4137530268672231e+01 1.5100314606996907e+01 1.9611401414148727e+01 
1 1 2 1.0279966638719342e+00 -5.0085411509205119e+02 1.0000000000000000e+00 1.4137529795399386e+01 1.5100316527368419e+01 1.9611402632679301e+01 
31 1 2 1.0279966639388494e+00 -3.4508872108956677e+02 1.0000000000000000e+00 1.4137530271158129e+01 1.5100314596885518e+01 1.9611401407740342e+01 
66 1 2 1.0279984780291715e+00 -4.2915591322874155e+02 1.0000000000000000e+00 1.4116184480464426e+01 1.5056284909832041e+01 1.9640593060005664e+01 
21 1 2 1.0279996252295716e+00 -3.6352869319357137e+02 1.0000000000000000e+00 1.4107042965066993e+01 1.5022897484355168e+01 1.9667706983241612e+01 
108 1 2 1.0279996359612811e+00 -4.0980201669453675e+02 1.0000000000000000e+00 1.4106970638451557e+01 1.5022545180568219e+01 1.9668020211529054e+01 

Velocities

47 -1.2841835977885562e-02 -2.6394172701217113e-02 -1.5460614219432664e-02
76 -1.2841835977889184e-02 -2.6394172701222175e-02 -1.5460614219433743e-02
77 -1.2841835977888389e-02 -2.6394172701221397e-02 -1.5460614219433379e-02
83 -1.2841835977879268e-02 -2.6394172701206784e-02 -1.5460614219430235e-02
41 -1.2841835977877275e-02 -2.6394172701202864e-02 -1.5460614219429564e-02
40 -1.2841835977887182e-02 -2.6394172701219281e-02 -1.5460614219433134e-02
84 -1.2841835977882802e-02 -2.6394172701212772e-02 -1.5460614219431668e-02
119 -1.2841835615201257e-02 -2.6394172915994149e-02 -1.5460614149989473e-02
107 -1.2841700859824020e-02 -2.6394252660114373e-02 -1.5460588284594998e-02
148 -2.0967516425848636e-02 -2.5635608777075758e-03 -2.4957297484661276e-02
152 -2.0962973204971092e-02 -2.5561900100970541e-03 -2.4959765550336650e-02
123 -2.0957967344146605e-02 -2.5481292697286579e-03 -2.4962426370971649e-02
158 -2.0957967344150220e-02 -2.5481292697335008e-03 -2.4962426370969390e-02
159 -2.0957967344150275e-02 -2.5481292697337975e-03 -2.4962426370970042e-02
122 -2.0957967344351094e-02 -2.5481292700262250e-03 -2.4962426370924235e-02
128 -2.0957967344340092e-02 -2.5481292700239404e-03 -2.4962426370898853e-02
146 -2.0957847253366316e-02 -2.5479365123276792e-03 -2.4962489683335091e-02
153 -2.1996739048756490e-02 -3.9845970712815912e-03 -2.4698818186652004e-02
125 -2.4714574809709899e-02 -1.7118207862605869e-02 -2.2883726073862933e-02
131 -2.4714534722881681e-02 -1.7118212378385851e-02 -2.2883716784920131e-02
94 -2.4714184697133414e-02 -1.7118250681617979e-02 -2.2883631139610897e-02
138 -2.4714511982918182e-02 -1.7118215008078766e-02 -2.2883711808750599e-02
137 -2.4714510124050099e-02 -1.7118215192413355e-02 -2.2883711271706637e-02
132 -2.4714524841072991e-02 -1.7118213633849088e-02 -2.2883715102793450e-02
102 -2.4714517912821820e-02 -1.7118214359170752e-02 -2.2883713263260396e-02
95 -2.4714561123954221e-02 -1.7118209404821103e-02 -2.2883722903691287e-02
96 -2.4714528944733784e-02 -1.7118213167577726e-02 -2.2883716036014280e-02
64 -2.5562483339599915e-02 -1.0360789657433509e-02 -2.3808985463677382e-02
100 -2.5562483339599915e-02 -1.0360789657433509e-02 -2.3808985463677382e-02
106 -2.5562483339599915e-02 -1.0360789657433509e-02 -2.3808985463677382e-02
70 -2.5562483339599915e-02 -1.0360789657433509e-02 -2.3808985463677382e-02
35 -2.5562483339599915e-02 -1.0360789657433509e-02 -2.3808985463677382e-02
28 -2.5562483339599915e-02 -1.0360789657433509e-02 -2.3808985463677382e-02
34 -2.5562483339599915e-02 -1.0360789657433509e-02 -2.3808985463677382e-02
27 -2.5562483339599915e-02 -1.0360789657433509e-02 -2.3808985463677382e-02
147 -2.2202544931464768e-02 -5.3978962735609969e-03 -2.4737489086030278e-02
124 -2.2200735241637765e-02 -5.3941708221873384e-03 -2.4739547597657802e-02
16 -2.2200091846935981e-02 -5.3928408963894942e-03 -2.4740283514931596e-02
117 -2.2189039835659900e-02 -5.3697705144297361e-03 -2.4753155535748791e-02
118 -2.2187003761288241e-02 -5.3654888743035895e-03 -2.4755563030969367e-02
160 -2.2185860275544315e-02 -5.3630513048274122e-03 -2.4756946706846458e-02