LAMMPS data file via write_data, version 30 Jul 2016, timestep = 50400000

180 atoms
2 atom types

0.0000000000000000e+00 2.0000000000000000e+01 xlo xhi
0.0000000000000000e+00 2.0000000000000000e+01 ylo yhi
0.0000000000000000e+00 2.0000000000000000e+01 zlo zhi

Masses

1 3.896
2 4.31

Atoms # meso-molecular

41 1 2 1.0280000000170082e+00 -2.4572561166956777e+02 1.0000000000000000e+00 2.5636857096410659e+00 1.5909440704070979e+01 2.6150616275606492e-01 
178 1 2 1.0279999999794442e+00 -1.8316107263469655e+02 1.0000000000000000e+00 2.5457509596999556e-01 1.5976920477479416e+01 1.6273585282981453e+00 
6 1 2 1.0279999999979852e+00 -2.2184361426696958e+02 1.0000000000000000e+00 3.3101561184392057e+00 1.6486492084054962e+01 1.4501972316747282e+00 
12 1 2 1.0279999999979847e+00 -2.7720112085603580e+02 1.0000000000000000e+00 3.3101561184326442e+00 1.6486492084046994e+01 1.4501972316794971e+00 
11 1 2 1.0279999999979850e+00 -2.4054892619349602e+02 1.0000000000000000e+00 3.3101561184347537e+00 1.6486492084049090e+01 1.4501972316779452e+00 
90 1 2 1.0279999999979852e+00 -1.9978764904416192e+02 1.0000000000000000e+00 3.3101561184313759e+00 1.6486492084045075e+01 1.4501972316804028e+00 
78 1 2 1.0279999999806158e+00 -1.5786008255976844e+02 1.0000000000000000e+00 2.9776093726437397e-01 1.6011460603353839e+01 1.7022837675926517e+00 
42 1 2 1.0279999999806038e+00 -1.6322242001070592e+02 1.0000000000000000e+00 2.9654560797462204e-01 1.6010214310411193e+01 1.7017862519979727e+00 
2 1 2 1.0280000000249765e+00 -2.3722784347527119e+02 1.0000000000000000e+00 1.8425962971550482e+00 1.8598212099500593e+01 2.4562506108372069e+00 
86 1 2 1.0280000000249785e+00 -2.3165705360211047e+02 1.0000000000000000e+00 1.8425963325592178e+00 1.8598212205219482e+01 2.4562505144051330e+00 
8 1 2 1.0280000000249780e+00 -2.2214428363115300e+02 1.0000000000000000e+00 1.8425962978185473e+00 1.8598212101488478e+01 2.4562506090260330e+00 
38 1 2 1.0280000000249765e+00 -2.3526051078870097e+02 1.0000000000000000e+00 1.8425962969896064e+00 1.8598212099008045e+01 2.4562506112869507e+00 
37 1 2 1.0279999999791729e+00 -2.2691155357353026e+02 1.0000000000000000e+00 8.0532703779834913e-01 1.8645021935557843e+01 1.8226578042085959e+00 
1 1 2 1.0279999999791731e+00 -2.3445200811283269e+02 1.0000000000000000e+00 8.0532703780582660e-01 1.8645021935566248e+01 1.8226578042075139e+00 
50 1 2 1.0279999999791725e+00 -1.6795375911839122e+02 1.0000000000000000e+00 8.0532703846252651e-01 1.8645021936292643e+01 1.8226578040973238e+00 
49 1 2 1.0279999999791729e+00 -1.7107490676806174e+02 1.0000000000000000e+00 8.0532703846150244e-01 1.8645021936291794e+01 1.8226578040978643e+00 
52 1 2 1.0280000000093474e+00 -1.6619186128742950e+02 1.0000000000000000e+00 4.3243881030278759e+00 1.5836067030771552e+01 5.5517427908416561e+00 
35 1 2 1.0280000000093474e+00 -2.2717903689246026e+02 1.0000000000000000e+00 4.3243881030289524e+00 1.5836067030771517e+01 5.5517427908419448e+00 
102 1 2 1.0280000000093474e+00 -2.3892056788694020e+02 1.0000000000000000e+00 4.3243881030278759e+00 1.5836067030771552e+01 5.5517427908416561e+00 
95 1 2 1.0280000000093474e+00 -1.9918803585194433e+02 1.0000000000000000e+00 4.3243881030278759e+00 1.5836067030771552e+01 5.5517427908416561e+00 
10 1 2 1.0280000000093474e+00 -1.8944840773213136e+02 1.0000000000000000e+00 4.3243881030306826e+00 1.5836067030773357e+01 5.5517427908409323e+00 
77 1 2 1.0280000000093474e+00 -1.7040370824810236e+02 1.0000000000000000e+00 4.3243881030296212e+00 1.5836067030771080e+01 5.5517427908424484e+00 
24 1 2 1.0280000000093474e+00 -2.1562407351228410e+02 1.0000000000000000e+00 4.3243881030278759e+00 1.5836067030771552e+01 5.5517427908416561e+00 
15 1 2 1.0280000000093477e+00 -2.7650380989211243e+02 1.0000000000000000e+00 3.7097452279175842e+00 1.7806769527794660e+01 8.0833147366058586e+00 
20 1 2 1.0280000000093477e+00 -2.2071807973656340e+02 1.0000000000000000e+00 3.7097452279176060e+00 1.7806769527794671e+01 8.0833147366058569e+00 
21 1 2 1.0280000000093477e+00 -2.3926418375491210e+02 1.0000000000000000e+00 3.7097452279175815e+00 1.7806769527794668e+01 8.0833147366058533e+00 
56 1 2 1.0280000000093477e+00 -1.6862544534876841e+02 1.0000000000000000e+00 3.7097452279176060e+00 1.7806769527794650e+01 8.0833147366058729e+00 
13 1 2 1.0280000000093477e+00 -2.3314736477790632e+02 1.0000000000000000e+00 3.7097452279176064e+00 1.7806769527794671e+01 8.0833147366058569e+00 
19 1 2 1.0280000000093477e+00 -2.4696084825783180e+02 1.0000000000000000e+00 3.7097452279175842e+00 1.7806769527794660e+01 8.0833147366058586e+00 
14 1 2 1.0280000000093477e+00 -2.6382982885841528e+02 1.0000000000000000e+00 3.7097452279176277e+00 1.7806769527794657e+01 8.0833147366058729e+00 
32 1 2 1.0280000000178300e+00 -2.1301927014711811e+02 1.0000000000000000e+00 3.0410214079947018e+00 1.6146169783117784e+01 1.9985286188753836e+01 
31 1 2 1.0280000000178289e+00 -1.7100912267293290e+02 1.0000000000000000e+00 3.0410214064473111e+00 1.6146169782908665e+01 1.9985286188736172e+01 
25 1 2 1.0280000000178298e+00 -2.1716120514873361e+02 1.0000000000000000e+00 3.0410214082426275e+00 1.6146169783150825e+01 1.9985286188756739e+01 
26 1 2 1.0280000000178293e+00 -2.1062443950101616e+02 1.0000000000000000e+00 3.0410214097484110e+00 1.6146169783356061e+01 1.9985286188773649e+01 
115 1 2 1.0280035143756356e+00 -2.9772666469382455e+02 1.0000000000000000e+00 1.0424576502501738e+01 3.8554432523840949e-02 4.2786102748258464e-01 
158 1 2 1.0280035143756359e+00 -2.1526016630016741e+02 1.0000000000000000e+00 1.0424576502501626e+01 3.8554432523824886e-02 4.2786102748259847e-01 
5 1 2 1.0280035143756359e+00 -2.4952783554050151e+02 1.0000000000000000e+00 1.0424576502501624e+01 3.8554432523835551e-02 4.2786102748260835e-01 
152 1 2 1.0280035143756359e+00 -2.2355341746919939e+02 1.0000000000000000e+00 1.0424576502501626e+01 3.8554432523824886e-02 4.2786102748259847e-01 
151 1 2 1.0280035143756359e+00 -3.0529066680600971e+02 1.0000000000000000e+00 1.0424576502501626e+01 3.8554432523824886e-02 4.2786102748259847e-01 
104 1 2 1.0280035143756359e+00 -1.9415960119987329e+02 1.0000000000000000e+00 1.0424576502501626e+01 3.8554432523824886e-02 4.2786102748259847e-01 
146 1 2 1.0280035143756359e+00 -2.3890291579819751e+02 1.0000000000000000e+00 1.0424576502501624e+01 3.8554432523835551e-02 4.2786102748260835e-01 
139 1 2 1.0280000000235949e+00 -2.3520517162059386e+02 1.0000000000000000e+00 7.4308422512122654e+00 9.2564932026300983e+00 2.8690370109699455e+00 
175 1 2 1.0280000000235949e+00 -2.3074118083822304e+02 1.0000000000000000e+00 7.4308422512122654e+00 9.2564932026300983e+00 2.8690370109699455e+00 
121 1 2 1.0280000000235949e+00 -2.2710214831002190e+02 1.0000000000000000e+00 7.4308422512122654e+00 9.2564932026300983e+00 2.8690370109699455e+00 
157 1 2 1.0280000000235949e+00 -2.1054519430181600e+02 1.0000000000000000e+00 7.4308422512122654e+00 9.2564932026300983e+00 2.8690370109699455e+00 
145 1 2 1.0280000000235949e+00 -2.9176513155111746e+02 1.0000000000000000e+00 7.4308422512115468e+00 9.2564932026314164e+00 2.8690370109701844e+00 
109 1 2 1.0280000000235949e+00 -2.8226560707746557e+02 1.0000000000000000e+00 7.4308422511859478e+00 9.2564932026789570e+00 2.8690370109810184e+00 
110 1 2 1.0280000000235949e+00 -2.9791654966906560e+02 1.0000000000000000e+00 7.4308422511801941e+00 9.2564932026910842e+00 2.8690370109886159e+00 
3 1 2 1.0279992832937783e+00 -2.3147224896098629e+02 1.0000000000000000e+00 9.9081876036520455e+00 3.0533651957620467e-01 5.3981199419800063e+00 
34 1 2 1.0279992832937781e+00 -2.6553910877685729e+02 1.0000000000000000e+00 9.9081876036392202e+00 3.0533651955545754e-01 5.3981199419768275e+00 
4 1 2 1.0279992832937781e+00 -2.5117630388733491e+02 1.0000000000000000e+00 9.9081876036485745e+00 3.0533651957285091e-01 5.3981199419780301e+00 
33 1 2 1.0279992832937785e+00 -2.5888606079491041e+02 1.0000000000000000e+00 9.9081876036789698e+00 3.0533651962057973e-01 5.3981199419862760e+00 
23 1 2 1.0280012326677126e+00 -1.8791107600673382e+02 1.0000000000000000e+00 1.0211052182997166e+01 4.5855084940013341e-01 4.0336875942612958e+00 
22 1 2 1.0280012326677490e+00 -1.4949523218242695e+02 1.0000000000000000e+00 1.0211052249375401e+01 4.5855086234156894e-01 4.0336875827592129e+00 
39 1 2 1.0280012326677117e+00 -2.3649931508699194e+02 1.0000000000000000e+00 1.0211052188626217e+01 4.5855085057693168e-01 4.0336875933646832e+00 
28 1 2 1.0280012326677506e+00 -1.8086530628254081e+02 1.0000000000000000e+00 1.0211052248324885e+01 4.5855086213913782e-01 4.0336875829436218e+00 
100 1 2 1.0280132318132198e+00 -2.3745591593478647e+02 1.0000000000000000e+00 1.3297717294592047e+01 4.9848072897239453e+00 3.4477996538403350e+00 
107 1 2 1.0280132318132198e+00 -2.0233859680094238e+02 1.0000000000000000e+00 1.3297717294592051e+01 4.9848072897241487e+00 3.4477996538403368e+00 
106 1 2 1.0280132318132198e+00 -1.8077215228411083e+02 1.0000000000000000e+00 1.3297717294592047e+01 4.9848072897239453e+00 3.4477996538403350e+00 
65 1 2 1.0280132318132196e+00 -1.0927376055551655e+02 1.0000000000000000e+00 1.3297717294591598e+01 4.9848072897240989e+00 3.4477996538403919e+00 
64 1 2 1.0280132318132198e+00 -3.0553233787725367e+02 1.0000000000000000e+00 1.3297717294592051e+01 4.9848072897241487e+00 3.4477996538403368e+00 
70 1 2 1.0280132318132198e+00 -2.9051492798031080e+02 1.0000000000000000e+00 1.3297717294592047e+01 4.9848072897239453e+00 3.4477996538403350e+00 
71 1 2 1.0280132318132198e+00 -2.2068361701147114e+02 1.0000000000000000e+00 1.3297717294592047e+01 4.9848072897239453e+00 3.4477996538403350e+00 
111 1 2 1.0279999998887688e+00 -2.6547395566447835e+02 1.0000000000000000e+00 1.0934615586386441e+01 1.0820905354151573e+00 1.5282460440040568e+01 
59 1 2 1.0279999998887686e+00 -2.4605399024865827e+02 1.0000000000000000e+00 1.0934615586386057e+01 1.0820905354147057e+00 1.5282460440040747e+01 
69 1 2 1.0279999998887688e+00 -2.1041259150700591e+02 1.0000000000000000e+00 1.0934615586386085e+01 1.0820905354147008e+00 1.5282460440040753e+01 
166 1 2 1.0279999998900096e+00 -2.5093910568164557e+02 1.0000000000000000e+00 1.0932230389833759e+01 1.0813452305705296e+00 1.5282586883577538e+01 
173 1 2 1.0279999998908611e+00 -2.5208542286667489e+02 1.0000000000000000e+00 1.0931051299095168e+01 1.0829211806978252e+00 1.5281727680882740e+01 
88 1 2 1.0279999998909630e+00 -2.0458868795423660e+02 1.0000000000000000e+00 1.0930789392331501e+01 1.0826323210101549e+00 1.5281835650580438e+01 
45 1 2 1.0279999998909630e+00 -2.0221321026760413e+02 1.0000000000000000e+00 1.0930789392331549e+01 1.0826323210101789e+00 1.5281835650580433e+01 
81 1 2 1.0280000000235956e+00 -2.5323164791054285e+02 1.0000000000000000e+00 1.0235324397625499e+01 1.0869426420863126e+01 2.4177754075413231e+00 
9 1 2 1.0280000000235956e+00 -1.7594408581659047e+02 1.0000000000000000e+00 1.0235324397625506e+01 1.0869426420863119e+01 2.4177754075413462e+00 
142 1 2 1.0280000000235956e+00 -1.8022301673767936e+02 1.0000000000000000e+00 1.0235324397625499e+01 1.0869426420863126e+01 2.4177754075413231e+00 
75 1 2 1.0280000000235956e+00 -2.4210047011621560e+02 1.0000000000000000e+00 1.0235324397625499e+01 1.0869426420863126e+01 2.4177754075413231e+00 
53 1 2 1.0280000000235956e+00 -2.1556727423286878e+02 1.0000000000000000e+00 1.0235324397625499e+01 1.0869426420863126e+01 2.4177754075413231e+00 
141 1 2 1.0280000000235956e+00 -1.6615743498989838e+02 1.0000000000000000e+00 1.0235324397625499e+01 1.0869426420863126e+01 2.4177754075413231e+00 
60 1 2 1.0280000000235956e+00 -2.6270078493928492e+02 1.0000000000000000e+00 1.0235324397625503e+01 1.0869426420863123e+01 2.4177754075413378e+00 
154 1 2 1.0279988151170556e+00 -2.3488468754230274e+02 1.0000000000000000e+00 1.2319982067426091e+01 1.6513107748309519e+01 7.9151719566223699e-01 
153 1 2 1.0279988151170179e+00 -1.3855162256831267e+02 1.0000000000000000e+00 1.2319982060387872e+01 1.6513107734546363e+01 7.9151720380637569e-01 
147 1 2 1.0279988151170167e+00 -2.4415412203060131e+02 1.0000000000000000e+00 1.2319982061365792e+01 1.6513107736439775e+01 7.9151720268429870e-01 
112 1 2 1.0279988151170767e+00 -2.6100862801247609e+02 1.0000000000000000e+00 1.2319982130964764e+01 1.6513107709039911e+01 7.9151720455157759e-01 
159 1 2 1.0279988151170141e+00 -1.3408185007966262e+02 1.0000000000000000e+00 1.2319982060715720e+01 1.6513107735177186e+01 7.9151720343217513e-01 
137 1 2 1.0279981887173320e+00 -2.7050553003522725e+02 1.0000000000000000e+00 1.0911661246116733e+01 1.8065556055679895e+01 2.9986410438951756e+00 
131 1 2 1.0279981902630551e+00 -2.4271410128822288e+02 1.0000000000000000e+00 1.0911543303956726e+01 1.8065878208891963e+01 2.9988051702485548e+00 
54 1 2 1.0279982263259924e+00 -2.4071249130521608e+02 1.0000000000000000e+00 1.0908792608955437e+01 1.8073396345142132e+01 3.0045123452017442e+00 
16 1 2 1.0279982544172099e+00 -2.1993126888002035e+02 1.0000000000000000e+00 1.0906815962048178e+01 1.8078467402167387e+01 2.9895343370445389e+00 
167 1 2 1.0279980343891337e+00 -2.5017248619737882e+02 1.0000000000000000e+00 1.0929385950930786e+01 1.7997648190618534e+01 2.8270958233366681e+00 
82 1 2 1.0279997437710480e+00 -2.1031680271935119e+02 1.0000000000000000e+00 1.1586265506844519e+01 1.7148557525488538e+01 1.1318433182731489e+00 
127 1 2 1.0280002889782294e+00 -1.8805782672094253e+02 1.0000000000000000e+00 1.1985811167736866e+01 1.8867010452842081e+01 5.9906635977230049e+00 
163 1 2 1.0280002889781623e+00 -1.8164835640107881e+02 1.0000000000000000e+00 1.1985811199184315e+01 1.8867010392717152e+01 5.9906635528205046e+00 
164 1 2 1.0280002889781656e+00 -1.8531571866315133e+02 1.0000000000000000e+00 1.1985811194823858e+01 1.8867010394176930e+01 5.9906635558292107e+00 
128 1 2 1.0280002889781368e+00 -1.5415024517470786e+02 1.0000000000000000e+00 1.1985811210822359e+01 1.8867010368687172e+01 5.9906635353707225e+00 
94 1 2 1.0280002878677910e+00 -3.1606327244045406e+02 1.0000000000000000e+00 1.1986796562635352e+01 1.8865638705012724e+01 5.9894931997427925e+00 
148 1 2 1.0279987998874616e+00 -2.4182772481885402e+02 1.0000000000000000e+00 1.1423507964926712e+01 1.7977044652999670e+01 4.1532161054451588e+00 
46 1 2 1.0280002877304717e+00 -2.1275752346276553e+02 1.0000000000000000e+00 1.1986948211029061e+01 1.8865472129377572e+01 5.9893335340183000e+00 
122 1 2 1.0280000003238130e+00 -1.7613363465985992e+02 1.0000000000000000e+00 9.5030609158675805e+00 1.9875225388715680e+01 1.2450690049794636e+01 
116 1 2 1.0280000003238132e+00 -2.6021378857944433e+02 1.0000000000000000e+00 9.5030609158675752e+00 1.9875225388715680e+01 1.2450690049794641e+01 
80 1 2 1.0280000003238126e+00 -2.5491474975171946e+02 1.0000000000000000e+00 9.5030609158675912e+00 1.9875225388715702e+01 1.2450690049794611e+01 
87 1 2 1.0280000003238130e+00 -1.7808350938192314e+02 1.0000000000000000e+00 9.5030609158675805e+00 1.9875225388715680e+01 1.2450690049794636e+01 
123 1 2 1.0280000003238130e+00 -1.8970467824235442e+02 1.0000000000000000e+00 9.5030609158675805e+00 1.9875225388715680e+01 1.2450690049794636e+01 
162 1 2 1.0280000003238126e+00 -1.6169217178215337e+02 1.0000000000000000e+00 9.5030609158675912e+00 1.9875225388715702e+01 1.2450690049794611e+01 
156 1 2 1.0280000003238130e+00 -1.3896293515259816e+02 1.0000000000000000e+00 9.5030609158675805e+00 1.9875225388715680e+01 1.2450690049794636e+01 
133 1 2 1.0279999997674805e+00 -2.3313698809827582e+02 1.0000000000000000e+00 1.2877234189076383e+01 1.9808072460325874e+01 1.2809692524197342e+01 
61 1 2 1.0279999997674805e+00 -1.4868048450476113e+02 1.0000000000000000e+00 1.2877234189076383e+01 1.9808072460325874e+01 1.2809692524197342e+01 
165 1 2 1.0279999997674805e+00 -2.3903106338836869e+02 1.0000000000000000e+00 1.2877234189076370e+01 1.9808072460325885e+01 1.2809692524197299e+01 
55 1 2 1.0279999997674805e+00 -1.4156272178759355e+02 1.0000000000000000e+00 1.2877234189076383e+01 1.9808072460325874e+01 1.2809692524197342e+01 
97 1 2 1.0279999997674805e+00 -2.2025147990153215e+02 1.0000000000000000e+00 1.2877234189076383e+01 1.9808072460325874e+01 1.2809692524197342e+01 
135 1 2 1.0279999997674805e+00 -2.3017503616515899e+02 1.0000000000000000e+00 1.2877234189076370e+01 1.9808072460325885e+01 1.2809692524197299e+01 
91 1 2 1.0279999997674805e+00 -2.4070593511716231e+02 1.0000000000000000e+00 1.2877234189076358e+01 1.9808072460325864e+01 1.2809692524197281e+01 
172 1 2 1.0279976000309268e+00 -2.0242142723387596e+02 1.0000000000000000e+00 1.6078558080103939e+01 4.2013206444222229e-01 4.0217501416134276e+00 
7 1 2 1.0279976000309263e+00 -2.1661518044444560e+02 1.0000000000000000e+00 1.6078558080103836e+01 4.2013206444312262e-01 4.0217501416100552e+00 
44 1 2 1.0279976000309263e+00 -1.8125832100685400e+02 1.0000000000000000e+00 1.6078558080103708e+01 4.2013206444411078e-01 4.0217501416063204e+00 
43 1 2 1.0279976000309261e+00 -1.9128528414217712e+02 1.0000000000000000e+00 1.6078558080103825e+01 4.2013206444274459e-01 4.0217501416113208e+00 
113 1 2 1.0280014525223846e+00 -1.8724109045053879e+02 1.0000000000000000e+00 1.5951111609577818e+01 1.9219010097407820e+00 4.1484087204269606e+00 
79 1 2 1.0280022439293948e+00 -2.1780859641845555e+02 1.0000000000000000e+00 1.5504134434314931e+01 1.9451128570941367e+00 4.2061454964391833e+00 
126 1 2 1.0280022439283079e+00 -1.8712294720307247e+02 1.0000000000000000e+00 1.5504135417183200e+01 1.9451130642469379e+00 4.2061454587933040e+00 
150 1 2 1.0280022439293945e+00 -1.9251273374669353e+02 1.0000000000000000e+00 1.5504134437555319e+01 1.9451128577794228e+00 4.2061454962976583e+00 
85 1 2 1.0280022439293937e+00 -2.2691224768322493e+02 1.0000000000000000e+00 1.5504134437067847e+01 1.9451128576743091e+00 4.2061454963340186e+00 
93 1 2 1.0280000243045171e+00 -1.9850751149456951e+02 1.0000000000000000e+00 1.7852018727677130e+01 9.8168919195131055e-01 6.5736448645696042e+00 
96 1 2 1.0280000243045386e+00 -2.1295318295480695e+02 1.0000000000000000e+00 1.7852018680108809e+01 9.8168912004202968e-01 6.5736448511532286e+00 
101 1 2 1.0280000243045107e+00 -2.1206230088960083e+02 1.0000000000000000e+00 1.7852018754230041e+01 9.8168923351784121e-01 6.5736448719230269e+00 
92 1 2 1.0280000243045166e+00 -1.9569161502702377e+02 1.0000000000000000e+00 1.7852018727923305e+01 9.8168919327246129e-01 6.5736448645487471e+00 
119 1 2 1.0279999064692313e+00 -1.4770396070782266e+02 1.0000000000000000e+00 1.7305333736811697e+01 6.9413590789481217e-01 6.8764656584950279e+00 
179 1 2 1.0279999022702144e+00 -1.2358465558172372e+02 1.0000000000000000e+00 1.7675537290499257e+01 1.4771092743425795e+00 8.2952627738676110e+00 
143 1 2 1.0279999022702140e+00 -1.9747645194485523e+02 1.0000000000000000e+00 1.7675537290498006e+01 1.4771092743431387e+00 8.2952627738673801e+00 
108 1 2 1.0279999022702129e+00 -1.9376098421042053e+02 1.0000000000000000e+00 1.7675537290487554e+01 1.4771092743458483e+00 8.2952627738661047e+00 
144 1 2 1.0279999022702160e+00 -1.7756124851097962e+02 1.0000000000000000e+00 1.7675537290486972e+01 1.4771092743459640e+00 8.2952627738660354e+00 
40 1 2 1.0279999024246360e+00 -2.4417455266319109e+02 1.0000000000000000e+00 1.7675842425362557e+01 1.4725948862654199e+00 8.2967805808978774e+00 
120 1 2 1.0279866023581339e+00 -1.6813456749613565e+02 1.0000000000000000e+00 1.3676148880917182e+01 4.9685568800132724e+00 6.6925283842141763e+00 
130 1 2 1.0279866023581341e+00 -2.1339394638180883e+02 1.0000000000000000e+00 1.3676148880917184e+01 4.9685568800132707e+00 6.6925283842141754e+00 
124 1 2 1.0279866023581339e+00 -1.9011847518226298e+02 1.0000000000000000e+00 1.3676148880917181e+01 4.9685568800132724e+00 6.6925283842141763e+00 
114 1 2 1.0279866023581341e+00 -2.0218377151424758e+02 1.0000000000000000e+00 1.3676148880917184e+01 4.9685568800132707e+00 6.6925283842141754e+00 
136 1 2 1.0279866023581339e+00 -1.9580580339432962e+02 1.0000000000000000e+00 1.3676148880917181e+01 4.9685568800132724e+00 6.6925283842141763e+00 
149 1 2 1.0279866023581339e+00 -1.7521888613781621e+02 1.0000000000000000e+00 1.3676148880917181e+01 4.9685568800132724e+00 6.6925283842141763e+00 
129 1 2 1.0279866023581339e+00 -3.0331077892980574e+02 1.0000000000000000e+00 1.3676148880917188e+01 4.9685568800132707e+00 6.6925283842141754e+00 
47 1 2 1.0278634785955381e+00 -1.6719267491012548e+02 1.0000000000000000e+00 1.3735630035323776e+01 1.2722575288884366e+01 3.2352018766061348e+00 
74 1 2 1.0278634785955381e+00 -1.2607033223172698e+02 1.0000000000000000e+00 1.3735630035323780e+01 1.2722575288884375e+01 3.2352018766061277e+00 
103 1 2 1.0278634785955381e+00 -2.3757115441708618e+02 1.0000000000000000e+00 1.3735630035323780e+01 1.2722575288884375e+01 3.2352018766061277e+00 
67 1 2 1.0278634785955381e+00 -2.4786403300311437e+02 1.0000000000000000e+00 1.3735630035323776e+01 1.2722575288884373e+01 3.2352018766061277e+00 
134 1 2 1.0278634785955381e+00 -2.1404677147199112e+02 1.0000000000000000e+00 1.3735630035323776e+01 1.2722575288884373e+01 3.2352018766061277e+00 
180 1 2 1.0278634785955381e+00 -2.0422051176720589e+02 1.0000000000000000e+00 1.3735630035323780e+01 1.2722575288884375e+01 3.2352018766061277e+00 
73 1 2 1.0278634785955381e+00 -1.2648778138394721e+02 1.0000000000000000e+00 1.3735630035323773e+01 1.2722575288884372e+01 3.2352018766061317e+00 
48 1 2 1.0280000000083402e+00 -1.6119040488943835e+02 1.0000000000000000e+00 1.9093854871274822e+01 1.5839616775874724e+01 1.7645668355925741e+00 
27 1 2 1.0280000000189129e+00 -2.0419359086860982e+02 1.0000000000000000e+00 1.9071563105850000e+01 1.5925423812487528e+01 1.8044231158616071e+00 
57 1 2 1.0280000000192877e+00 -1.5178055311538438e+02 1.0000000000000000e+00 1.9071093424244765e+01 1.5928429500767830e+01 1.8052392761452365e+00 
63 1 2 1.0280000000193046e+00 -1.8106956967081095e+02 1.0000000000000000e+00 1.9071033332714659e+01 1.5928825816965290e+01 1.8053496406755731e+00 
68 1 2 1.0280000000209883e+00 -1.9699750841384204e+02 1.0000000000000000e+00 1.9069934722193238e+01 1.5940961573863197e+01 1.8135307303221186e+00 
125 1 2 1.0280036649932429e+00 -1.9524166003824740e+02 1.0000000000000000e+00 1.3459186108341301e+01 1.7089743363517432e+01 2.6071538797726190e+00 
132 1 2 1.0280036649932440e+00 -1.8211155887558266e+02 1.0000000000000000e+00 1.3459186108341587e+01 1.7089743363517712e+01 2.6071538797722278e+00 
89 1 2 1.0280036649932429e+00 -1.9782316862936693e+02 1.0000000000000000e+00 1.3459186108340294e+01 1.7089743363516888e+01 2.6071538797742693e+00 
17 1 2 1.0280036649923923e+00 -2.0139167954499175e+02 1.0000000000000000e+00 1.3459186125576986e+01 1.7089743399785295e+01 2.6071538700467696e+00 
84 1 2 1.0280036649932440e+00 -2.2507046729989270e+02 1.0000000000000000e+00 1.3459186108340770e+01 1.7089743363517009e+01 2.6071538797733886e+00 
58 1 2 1.0281339488344261e+00 -2.3035921237671178e+02 1.0000000000000000e+00 1.4497087482193656e+01 1.4976648733527187e+01 5.4766869275115919e+00 
118 1 2 1.0281339488344261e+00 -2.2088285287252907e+02 1.0000000000000000e+00 1.4497087482193656e+01 1.4976648733527187e+01 5.4766869275115919e+00 
160 1 2 1.0281339488344261e+00 -2.9519659521574278e+02 1.0000000000000000e+00 1.4497087482193656e+01 1.4976648733527187e+01 5.4766869275115919e+00 
51 1 2 1.0281339488344261e+00 -2.6145420734280577e+02 1.0000000000000000e+00 1.4497087482193656e+01 1.4976648733527187e+01 5.4766869275115919e+00 
155 1 2 1.0281339488344261e+00 -3.1618562403185916e+02 1.0000000000000000e+00 1.4497087482193656e+01 1.4976648733527187e+01 5.4766869275115919e+00 
161 1 2 1.0281339488344261e+00 -2.6810794630475209e+02 1.0000000000000000e+00 1.4497087482193656e+01 1.4976648733527187e+01 5.4766869275115919e+00 
117 1 2 1.0281339488344261e+00 -1.5058207532206606e+02 1.0000000000000000e+00 1.4497087482193656e+01 1.4976648733527187e+01 5.4766869275115919e+00 
30 1 2 1.0280040675971682e+00 -2.0389150382788071e+02 1.0000000000000000e+00 1.9213812844772946e+01 1.4533555655563802e+01 6.6324312383383912e+00 
98 1 2 1.0280040694994530e+00 -1.9116300197992399e+02 1.0000000000000000e+00 1.9210579919436963e+01 1.4532258334886921e+01 6.6328578203224469e+00 
62 1 2 1.0280040694994534e+00 -1.8705283519431734e+02 1.0000000000000000e+00 1.9210579919436867e+01 1.4532258334886993e+01 6.6328578203223483e+00 
171 1 2 1.0280040694994534e+00 -1.8717505946178878e+02 1.0000000000000000e+00 1.9210579919436853e+01 1.4532258334886951e+01 6.6328578203223874e+00 
99 1 2 1.0280008111873875e+00 -2.5286462462879845e+02 1.0000000000000000e+00 1.3618128851419160e+01 1.9798183577541767e+01 3.4536553502998317e+00 
176 1 2 1.0279993893866490e+00 -2.3038584215776584e+02 1.0000000000000000e+00 1.3381520657021662e+01 1.9870146006244866e+01 3.5435602527144368e+00 
140 1 2 1.0279993893866495e+00 -2.5576378811952367e+02 1.0000000000000000e+00 1.3381520657021678e+01 1.9870146006244926e+01 3.5435602527145242e+00 
169 1 2 1.0279993893866488e+00 -2.5779711006640258e+02 1.0000000000000000e+00 1.3381520657021754e+01 1.9870146006244966e+01 3.5435602527145633e+00 
170 1 2 1.0279993893866490e+00 -2.6980305587214883e+02 1.0000000000000000e+00 1.3381520657021690e+01 1.9870146006244955e+01 3.5435602527145611e+00 
177 1 2 1.0279993893866488e+00 -2.2118720729956888e+02 1.0000000000000000e+00 1.3381520657021801e+01 1.9870146006244944e+01 3.5435602527145242e+00 
168 1 2 1.0280002245002862e+00 -2.0095823163146579e+02 1.0000000000000000e+00 1.8026456997140542e+01 1.7994968927003917e+01 5.1115222498562192e+00 
83 1 2 1.0280001187538756e+00 -1.8250110883718753e+02 1.0000000000000000e+00 1.8013897652764463e+01 1.7998874841121573e+01 5.0929042517246330e+00 
76 1 2 1.0280001184159366e+00 -1.6894620475371278e+02 1.0000000000000000e+00 1.8013871363949441e+01 1.7998896276841045e+01 5.0928387314955161e+00 
174 1 2 1.0280003130776099e+00 -2.4955145471046990e+02 1.0000000000000000e+00 1.8041830869231106e+01 1.7996156637666086e+01 5.1236570223224769e+00 
18 1 2 1.0280005431974766e+00 -2.8543228524937530e+02 1.0000000000000000e+00 1.8082768056651705e+01 1.8014969162943594e+01 5.1384654159874312e+00 
105 1 2 1.0280005727072996e+00 -1.6913092709760167e+02 1.0000000000000000e+00 1.8088444044304222e+01 1.8019462337484356e+01 5.1367956859188899e+00 
138 1 2 1.0280006089020113e+00 -2.7833417799866845e+02 1.0000000000000000e+00 1.8100365323797927e+01 1.8032599106158109e+01 5.1222475806363095e+00 
72 1 2 1.0279959487401860e+00 -2.3244575702524745e+02 1.0000000000000000e+00 1.9037872590102417e+01 1.5228804657317042e+01 7.3333573724508208e+00 
66 1 2 1.0279959957815643e+00 -1.9482357454728685e+02 1.0000000000000000e+00 1.8996509841964048e+01 1.5195509290872627e+01 7.3508559990354874e+00 
36 1 2 1.0279959238864911e+00 -1.8695041888163104e+02 1.0000000000000000e+00 1.8986731980332635e+01 1.5252227677562646e+01 7.2949348307032311e+00 
29 1 2 1.0279959759012134e+00 -2.1957409998274605e+02 1.0000000000000000e+00 1.9071011753880349e+01 1.5258810609267073e+01 7.3087320967938352e+00 

Velocities

41 3.3088767606868996e-01 -1.8010805985168943e-01 -2.0150734971033459e-02
178 3.3088766215249443e-01 -1.8010807353568847e-01 -2.0150769500461959e-02
6 3.3088767637195254e-01 -1.8010806012335040e-01 -2.0150733383644547e-02
12 3.3088767637195204e-01 -1.8010806012334962e-01 -2.0150733383655552e-02
11 3.3088767637195393e-01 -1.8010806012335021e-01 -2.0150733383646587e-02
90 3.3088767637195221e-01 -1.8010806012335012e-01 -2.0150733383647840e-02
78 3.3088766204908626e-01 -1.8010807359914807e-01 -2.0150769448402328e-02
42 3.3088766205215980e-01 -1.8010807360070816e-01 -2.0150769460304353e-02
2 3.3088765518257157e-01 -1.8010807558537428e-01 -2.0150750014913989e-02
86 3.3088765518258528e-01 -1.8010807558536610e-01 -2.0150750014897828e-02
8 3.3088765518258295e-01 -1.8010807558536959e-01 -2.0150750014900416e-02
38 3.3088765518257218e-01 -1.8010807558537564e-01 -2.0150750014914971e-02
37 3.3088765387723190e-01 -1.8010807957955341e-01 -2.0150754522653122e-02
1 3.3088765387723862e-01 -1.8010807957955921e-01 -2.0150754522649729e-02
50 3.3088765387724589e-01 -1.8010807957956185e-01 -2.0150754522646891e-02
49 3.3088765387724095e-01 -1.8010807957956174e-01 -2.0150754522648844e-02
52 3.3763830530815298e-01 -1.8264377757420527e-01 -3.4675563358020536e-02
35 3.3763830530815286e-01 -1.8264377757420511e-01 -3.4675563358020391e-02
102 3.3763830530815298e-01 -1.8264377757420527e-01 -3.4675563358020536e-02
95 3.3763830530815298e-01 -1.8264377757420527e-01 -3.4675563358020536e-02
10 3.3763830530815286e-01 -1.8264377757420505e-01 -3.4675563358020300e-02
77 3.3763830530815303e-01 -1.8264377757420491e-01 -3.4675563358020273e-02
24 3.3763830530815298e-01 -1.8264377757420527e-01 -3.4675563358020536e-02
15 3.3763830988353694e-01 -1.8264377257819558e-01 -3.4675565679649828e-02
20 3.3763830988353716e-01 -1.8264377257819611e-01 -3.4675565679650439e-02
21 3.3763830988353699e-01 -1.8264377257819597e-01 -3.4675565679650237e-02
56 3.3763830988353705e-01 -1.8264377257819589e-01 -3.4675565679650105e-02
13 3.3763830988353710e-01 -1.8264377257819611e-01 -3.4675565679650397e-02
19 3.3763830988353694e-01 -1.8264377257819558e-01 -3.4675565679649828e-02
14 3.3763830988353699e-01 -1.8264377257819597e-01 -3.4675565679650272e-02
32 3.3088767953665055e-01 -1.8010805760500873e-01 -2.0150734544217220e-02
31 3.3088767953664966e-01 -1.8010805760500770e-01 -2.0150734544208231e-02
25 3.3088767953665021e-01 -1.8010805760500845e-01 -2.0150734544217820e-02
26 3.3088767953664927e-01 -1.8010805760500792e-01 -2.0150734544211027e-02
115 3.2618204542126844e-01 -1.8725814070405550e-01 -2.0823366831838167e-02
158 3.2618204542126794e-01 -1.8725814070405580e-01 -2.0823366831838341e-02
5 3.2618204542126811e-01 -1.8725814070405569e-01 -2.0823366831838469e-02
152 3.2618204542126794e-01 -1.8725814070405580e-01 -2.0823366831838341e-02
151 3.2618204542126794e-01 -1.8725814070405580e-01 -2.0823366831838341e-02
104 3.2618204542126794e-01 -1.8725814070405580e-01 -2.0823366831838341e-02
146 3.2618204542126811e-01 -1.8725814070405569e-01 -2.0823366831838469e-02
139 3.4229355825018049e-01 -1.8220816186233063e-01 -2.6378361500674938e-02