LAMMPS data file via write_data, version 30 Jul 2016, timestep = 50000000

180 atoms
2 atom types

0.0000000000000000e+00 2.0000000000000000e+01 xlo xhi
0.0000000000000000e+00 2.0000000000000000e+01 ylo yhi
0.0000000000000000e+00 2.0000000000000000e+01 zlo zhi

Masses

1 3.896
2 4.31

Atoms # meso-molecular

48 1 2 1.0280000000588740e+00 -1.6119040488943835e+02 1.0000000000000000e+00 5.8583695882291913e+00 3.0439288871947880e+00 2.5705976948044582e+00 
27 1 2 1.0280000001086251e+00 -2.0419359086860982e+02 1.0000000000000000e+00 5.8360778958450013e+00 3.1297359072761588e+00 2.6104539490059548e+00 
57 1 2 1.0280000001100329e+00 -1.5178055311538438e+02 1.0000000000000000e+00 5.8356082163660563e+00 3.1327415943387726e+00 2.6112701084182093e+00 
63 1 2 1.0280000001102214e+00 -1.8106956967081095e+02 1.0000000000000000e+00 5.8355481251161558e+00 3.1331379103772372e+00 2.6113804728309149e+00 
68 1 2 1.0280000001177709e+00 -1.9699750841384204e+02 1.0000000000000000e+00 5.8344495252536097e+00 3.1452736625754905e+00 2.6195615556245766e+00 
118 1 2 1.0280218410983828e+00 -2.2088286910162068e+02 1.0000000000000000e+00 1.3688412630474700e+00 2.5434098967661312e+00 6.5323757688707671e+00 
58 1 2 1.0280218410983828e+00 -2.3035922860580339e+02 1.0000000000000000e+00 1.3688412630474700e+00 2.5434098967661312e+00 6.5323757688707671e+00 
117 1 2 1.0280218410983828e+00 -1.5058209155115767e+02 1.0000000000000000e+00 1.3688412630474700e+00 2.5434098967661312e+00 6.5323757688707671e+00 
161 1 2 1.0280218410983828e+00 -2.6810796253390527e+02 1.0000000000000000e+00 1.3688412630474700e+00 2.5434098967661312e+00 6.5323757688707671e+00 
155 1 2 1.0280218410983828e+00 -3.1618564026101234e+02 1.0000000000000000e+00 1.3688412630474700e+00 2.5434098967661312e+00 6.5323757688707671e+00 
51 1 2 1.0280218410983828e+00 -2.6145422357195895e+02 1.0000000000000000e+00 1.3688412630474700e+00 2.5434098967661312e+00 6.5323757688707671e+00 
160 1 2 1.0280218410983828e+00 -2.9519661144489595e+02 1.0000000000000000e+00 1.3688412630474700e+00 2.5434098967661312e+00 6.5323757688707671e+00 
74 1 2 1.0279780085466401e+00 -1.2607033327594921e+02 1.0000000000000000e+00 6.1167679133366348e-01 2.6997622615610495e-01 4.3118224172159332e+00 
103 1 2 1.0279780085466401e+00 -2.3757115546168546e+02 1.0000000000000000e+00 6.1167679133366348e-01 2.6997622615610495e-01 4.3118224172159332e+00 
67 1 2 1.0279780085466401e+00 -2.4786403404771366e+02 1.0000000000000000e+00 6.1167679133366015e-01 2.6997622615610117e-01 4.3118224172159376e+00 
134 1 2 1.0279780085466401e+00 -2.1404677251659041e+02 1.0000000000000000e+00 6.1167679133366015e-01 2.6997622615610117e-01 4.3118224172159376e+00 
180 1 2 1.0279780085466401e+00 -2.0422051281180518e+02 1.0000000000000000e+00 6.1167679133366348e-01 2.6997622615610495e-01 4.3118224172159332e+00 
73 1 2 1.0279780085466401e+00 -1.2648778242816944e+02 1.0000000000000000e+00 6.1167679133364594e-01 2.6997622615610167e-01 4.3118224172159421e+00 
47 1 2 1.0279780085466401e+00 -1.6719267595472476e+02 1.0000000000000000e+00 6.1167679133365993e-01 2.6997622615609151e-01 4.3118224172159483e+00 
125 1 2 1.0280005439744140e+00 -1.9524168360051706e+02 1.0000000000000000e+00 4.0332932284376216e-01 4.5777787978572189e+00 3.4471777636814367e+00 
132 1 2 1.0280005439744124e+00 -1.8211158243785232e+02 1.0000000000000000e+00 4.0332932284406475e-01 4.5777787978574969e+00 3.4471777636810375e+00 
89 1 2 1.0280005439744133e+00 -1.9782319219163659e+02 1.0000000000000000e+00 4.0332932284272677e-01 4.5777787978566868e+00 3.4471777636830940e+00 
17 1 2 1.0280005439743038e+00 -2.0139170310725692e+02 1.0000000000000000e+00 4.0332934064320658e-01 4.5777788336592540e+00 3.4471777534902377e+00 
84 1 2 1.0280005439744131e+00 -2.2507049086216236e+02 1.0000000000000000e+00 4.0332932284322442e-01 4.5777787978568201e+00 3.4471777636822103e+00 
168 1 2 1.0280007202859962e+00 -2.0095823345420442e+02 1.0000000000000000e+00 4.9533318269583466e+00 5.4852961965362299e+00 5.9133157627173709e+00 
83 1 2 1.0280008592110108e+00 -1.8250111049439730e+02 1.0000000000000000e+00 4.9409227597677630e+00 5.4891830717059502e+00 5.8948379228017309e+00 
76 1 2 1.0280008595363856e+00 -1.6894620641054988e+02 1.0000000000000000e+00 4.9408968928906063e+00 5.4892043566214417e+00 5.8947728815261957e+00 
174 1 2 1.0280005583483660e+00 -2.4955145663925290e+02 1.0000000000000000e+00 4.9685731411135370e+00 5.4864600666015866e+00 5.9253586190218064e+00 
18 1 2 1.0280001535799361e+00 -2.8543228721571700e+02 1.0000000000000000e+00 5.0092951781956749e+00 5.5051367873115549e+00 5.9400723626879408e+00 
138 1 2 1.0280001262685545e+00 -2.7833417975747733e+02 1.0000000000000000e+00 5.0268819432318983e+00 5.5226883946056295e+00 5.9239673326822686e+00 
105 1 2 1.0280001220024519e+00 -1.6913092902434821e+02 1.0000000000000000e+00 5.0149578772440355e+00 5.5096081677990334e+00 5.9384157281026004e+00 
172 1 2 1.0279984774864188e+00 -2.0242142825885529e+02 1.0000000000000000e+00 3.0199313613845620e+00 7.9214881042710248e+00 4.8248350283562402e+00 
7 1 2 1.0279984774864184e+00 -2.1661518146942493e+02 1.0000000000000000e+00 3.0199313613844643e+00 7.9214881042719654e+00 4.8248350283528278e+00 
44 1 2 1.0279984774864195e+00 -1.8125832203183333e+02 1.0000000000000000e+00 3.0199313613843142e+00 7.9214881042729761e+00 4.8248350283490611e+00 
43 1 2 1.0279984774864184e+00 -1.9128528516715645e+02 1.0000000000000000e+00 3.0199313613844527e+00 7.9214881042715737e+00 4.8248350283541130e+00 
113 1 2 1.0280011444903219e+00 -1.8724109076124131e+02 1.0000000000000000e+00 2.8845863984241915e+00 9.4247397187520576e+00 4.9529049210945200e+00 
79 1 2 1.0280013925739042e+00 -2.1780859795588336e+02 1.0000000000000000e+00 2.4423731255268648e+00 9.4463251739051728e+00 5.0094479568706696e+00 
126 1 2 1.0280013925741074e+00 -1.8712294874049527e+02 1.0000000000000000e+00 2.4423740955788142e+00 9.4463253780345617e+00 5.0094479215812324e+00 
150 1 2 1.0280013925738942e+00 -1.9251273528412133e+02 1.0000000000000000e+00 2.4423731287244990e+00 9.4463251745803802e+00 5.0094479567371488e+00 
85 1 2 1.0280013925738982e+00 -2.2691224922065274e+02 1.0000000000000000e+00 2.4423731282435455e+00 9.4463251744768311e+00 5.0094479567721395e+00 
99 1 2 1.0279988735199508e+00 -2.5286462653412130e+02 1.0000000000000000e+00 5.5852434655824279e-01 7.2943616868148133e+00 4.2696683743761055e+00 
177 1 2 1.0279998010719194e+00 -2.2118720899668131e+02 1.0000000000000000e+00 3.2191982968603783e-01 7.3669673258944766e+00 4.3606673663888778e+00 
170 1 2 1.0279998010719196e+00 -2.6980305756873975e+02 1.0000000000000000e+00 3.2191982968592758e-01 7.3669673258944890e+00 4.3606673663889159e+00 
169 1 2 1.0279998010719191e+00 -2.5779711176299350e+02 1.0000000000000000e+00 3.2191982968598798e-01 7.3669673258944970e+00 4.3606673663889142e+00 
140 1 2 1.0279998010719194e+00 -2.5576378981663609e+02 1.0000000000000000e+00 3.2191982968591343e-01 7.3669673258944579e+00 4.3606673663888733e+00 
176 1 2 1.0279998010719191e+00 -2.3038584385487826e+02 1.0000000000000000e+00 3.2191982968589916e-01 7.3669673258944002e+00 4.3606673663887898e+00 
98 1 2 1.0280023486699212e+00 -1.9116300204091115e+02 1.0000000000000000e+00 6.0152092496949638e+00 1.9706831558986937e+00 7.4100624758268943e+00 
62 1 2 1.0280023486699212e+00 -1.8705283525530450e+02 1.0000000000000000e+00 6.0152092496948564e+00 1.9706831558987548e+00 7.4100624758268028e+00 
171 1 2 1.0280023486699215e+00 -1.8717505952277594e+02 1.0000000000000000e+00 6.0152092496948448e+00 1.9706831558987274e+00 7.4100624758268303e+00 
30 1 2 1.0280023467085511e+00 -2.0389150389234379e+02 1.0000000000000000e+00 6.0183605984624995e+00 1.9719443698097086e+00 7.4096436257637803e+00 
66 1 2 1.0279977026322542e+00 -1.9482357668117368e+02 1.0000000000000000e+00 5.8016813359628543e+00 2.6327822701395460e+00 8.1291149173223030e+00 
72 1 2 1.0279976824461972e+00 -2.3244575955461710e+02 1.0000000000000000e+00 5.8442349959592184e+00 2.6669703440562120e+00 8.1113059603331177e+00 
36 1 2 1.0279976834242321e+00 -1.8695042235318968e+02 1.0000000000000000e+00 5.7921485658137364e+00 2.6910162359943119e+00 8.0720839601113354e+00 
29 1 2 1.0279977104968547e+00 -2.1957410299517531e+02 1.0000000000000000e+00 5.8784069733151751e+00 2.6976968275426110e+00 8.0860919289225066e+00 
144 1 2 1.0280001869787350e+00 -1.7756124851339567e+02 1.0000000000000000e+00 4.6118059652541632e+00 8.9692103971392374e+00 9.0976740095808992e+00 
108 1 2 1.0280001869787330e+00 -1.9376098421283658e+02 1.0000000000000000e+00 4.6118059652547405e+00 8.9692103971391255e+00 9.0976740095809632e+00 
179 1 2 1.0280001869787330e+00 -1.2358465558635008e+02 1.0000000000000000e+00 4.6118059652664334e+00 8.9692103971358605e+00 9.0976740095824731e+00 
93 1 2 1.0279996282405985e+00 -1.9850751179886007e+02 1.0000000000000000e+00 4.7888432656672810e+00 8.4746713320267606e+00 7.3757485859834260e+00 
96 1 2 1.0279996282404475e+00 -2.1295318325909761e+02 1.0000000000000000e+00 4.7888432180833442e+00 8.4746712599981731e+00 7.3757485724915428e+00 
101 1 2 1.0279996282406769e+00 -2.1206230119389127e+02 1.0000000000000000e+00 4.7888432922296449e+00 8.4746713736642594e+00 7.3757485933778968e+00 
92 1 2 1.0279996282406003e+00 -1.9569161533131432e+02 1.0000000000000000e+00 4.7888432659137781e+00 8.4746713333512407e+00 7.3757485859621754e+00 
119 1 2 1.0279997842479065e+00 -1.4770396098636016e+02 1.0000000000000000e+00 4.2411512676148195e+00 8.1865822643019044e+00 7.6792929363924722e+00 
40 1 2 1.0280001882531669e+00 -2.4417455266552847e+02 1.0000000000000000e+00 4.6121109621546879e+00 8.9646979876589441e+00 9.0991890671223210e+00 
143 1 2 1.0280001869787343e+00 -1.9747645194727127e+02 1.0000000000000000e+00 4.6118059652651882e+00 8.9692103971364254e+00 9.0976740095822350e+00 
71 1 2 1.0280098275795977e+00 -2.2068361815318212e+02 1.0000000000000000e+00 3.2464042642630020e-01 1.2523966330647111e+01 4.1036085391270039e+00 
100 1 2 1.0280098275795977e+00 -2.3745591707649746e+02 1.0000000000000000e+00 3.2464042642630020e-01 1.2523966330647111e+01 4.1036085391270039e+00 
107 1 2 1.0280098275795977e+00 -2.0233859794265337e+02 1.0000000000000000e+00 3.2464042642630353e-01 1.2523966330647292e+01 4.1036085391270047e+00 
106 1 2 1.0280098275795977e+00 -1.8077215342582181e+02 1.0000000000000000e+00 3.2464042642630020e-01 1.2523966330647111e+01 4.1036085391270039e+00 
64 1 2 1.0280098275795977e+00 -3.0553233901793999e+02 1.0000000000000000e+00 3.2464042642630353e-01 1.2523966330647292e+01 4.1036085391270047e+00 
65 1 2 1.0280098275795977e+00 -1.0927376169897926e+02 1.0000000000000000e+00 3.2464042642590102e-01 1.2523966330647246e+01 4.1036085391270518e+00 
70 1 2 1.0280098275795977e+00 -2.9051492912099712e+02 1.0000000000000000e+00 3.2464042642630020e-01 1.2523966330647111e+01 4.1036085391270039e+00 
129 1 2 1.0279900321473907e+00 -3.0331077933176414e+02 1.0000000000000000e+00 6.9390358429967480e-01 1.2527962834683226e+01 7.3493753290140367e+00 
136 1 2 1.0279900321473905e+00 -1.9580580379602731e+02 1.0000000000000000e+00 6.9390358429967125e-01 1.2527962834683230e+01 7.3493753290140376e+00 
114 1 2 1.0279900321473907e+00 -2.0218377191594527e+02 1.0000000000000000e+00 6.9390358429967480e-01 1.2527962834683226e+01 7.3493753290140367e+00 
120 1 2 1.0279900321473905e+00 -1.6813456789783334e+02 1.0000000000000000e+00 6.9390358429967147e-01 1.2527962834683226e+01 7.3493753290140376e+00 
149 1 2 1.0279900321473905e+00 -1.7521888653951390e+02 1.0000000000000000e+00 6.9390358429967125e-01 1.2527962834683230e+01 7.3493753290140376e+00 
130 1 2 1.0279900321473907e+00 -2.1339394678350652e+02 1.0000000000000000e+00 6.9390358429967480e-01 1.2527962834683226e+01 7.3493753290140367e+00 
124 1 2 1.0279900321473905e+00 -1.9011847558396067e+02 1.0000000000000000e+00 6.9390358429967125e-01 1.2527962834683230e+01 7.3493753290140376e+00 
41 1 2 1.0280000000634342e+00 -2.4572561166956777e+02 1.0000000000000000e+00 9.3281991188314155e+00 3.1137509797355136e+00 1.0675334679133448e+00 
178 1 2 1.0279999998783551e+00 -1.8316107263469655e+02 1.0000000000000000e+00 7.0190897329466626e+00 3.1812321836878912e+00 2.4333887763494304e+00 
78 1 2 1.0279999998886948e+00 -1.5786008255976844e+02 1.0000000000000000e+00 7.0622755860418955e+00 3.2157723177714894e+00 2.5083140192073321e+00 
42 1 2 1.0279999998886105e+00 -1.6322242001070592e+02 1.0000000000000000e+00 7.0610602564520777e+00 3.2145260248595302e+00 2.5078165045661840e+00 
32 1 2 1.0280000000650609e+00 -2.1301927014711811e+02 1.0000000000000000e+00 9.8055345104563187e+00 3.3504798522776027e+00 7.9131345777991724e-01 
31 1 2 1.0280000000650606e+00 -1.7100912267293290e+02 1.0000000000000000e+00 9.8055345089089201e+00 3.3504798520684860e+00 7.9131345776225648e-01 
25 1 2 1.0280000000650609e+00 -2.1716120514873361e+02 1.0000000000000000e+00 9.8055345107042395e+00 3.3504798523106483e+00 7.9131345778281903e-01 
26 1 2 1.0280000000650604e+00 -2.1062443950101616e+02 1.0000000000000000e+00 9.8055345122100217e+00 3.3504798525158872e+00 7.9131345779973161e-01 
86 1 2 1.0280000001145355e+00 -2.3165705360211047e+02 1.0000000000000000e+00 8.6071118017106514e+00 5.8025240458180551e+00 3.2622791354464580e+00 
8 1 2 1.0280000001145360e+00 -2.2214428363115300e+02 1.0000000000000000e+00 8.6071117669699788e+00 5.8025239420870971e+00 3.2622792300673269e+00 
38 1 2 1.0280000001145364e+00 -2.3526051078870097e+02 1.0000000000000000e+00 8.6071117661410295e+00 5.8025239396066626e+00 3.2622792323282437e+00 
2 1 2 1.0280000001145364e+00 -2.3722784347527119e+02 1.0000000000000000e+00 8.6071117663064687e+00 5.8025239400992170e+00 3.2622792318784990e+00 
37 1 2 1.0279999999158687e+00 -2.2691155357353026e+02 1.0000000000000000e+00 7.5698426336527556e+00 5.8493341577854752e+00 2.6286868329162081e+00 
1 1 2 1.0279999999158687e+00 -2.3445200811283269e+02 1.0000000000000000e+00 7.5698426336602109e+00 5.8493341577938729e+00 2.6286868329151512e+00 
50 1 2 1.0279999999158687e+00 -1.6795375911839122e+02 1.0000000000000000e+00 7.5698426343169078e+00 5.8493341585202536e+00 2.6286868328049517e+00 
49 1 2 1.0279999999158678e+00 -1.7107490676806174e+02 1.0000000000000000e+00 7.5698426343158900e+00 5.8493341585194267e+00 2.6286868328055006e+00 
6 1 2 1.0280000000051188e+00 -2.2184361426696958e+02 1.0000000000000000e+00 1.0074669511493259e+01 3.6908024138076621e+00 2.2562243944558786e+00 
12 1 2 1.0280000000051188e+00 -2.7720112085603580e+02 1.0000000000000000e+00 1.0074669511486634e+01 3.6908024137996911e+00 2.2562243944606957e+00 
11 1 2 1.0280000000051190e+00 -2.4054892619349602e+02 1.0000000000000000e+00 1.0074669511488811e+01 3.6908024138017863e+00 2.2562243944590907e+00 
90 1 2 1.0280000000051195e+00 -1.9978764904416192e+02 1.0000000000000000e+00 1.0074669511485398e+01 3.6908024137977673e+00 2.2562243944615741e+00 
24 1 2 1.0279999999704539e+00 -2.1562407351228410e+02 1.0000000000000000e+00 1.0818877460039177e+01 3.1418065865065938e+00 6.9387630682723120e+00 
77 1 2 1.0279999999704539e+00 -1.7040370824810236e+02 1.0000000000000000e+00 1.0818877460040921e+01 3.1418065865061191e+00 6.9387630682731043e+00 
10 1 2 1.0279999999704539e+00 -1.8944840773213136e+02 1.0000000000000000e+00 1.0818877460041982e+01 3.1418065865083959e+00 6.9387630682715900e+00 
95 1 2 1.0279999999704539e+00 -1.9918803585194433e+02 1.0000000000000000e+00 1.0818877460039177e+01 3.1418065865065938e+00 6.9387630682723120e+00 
102 1 2 1.0279999999704539e+00 -2.3892056788694020e+02 1.0000000000000000e+00 1.0818877460039177e+01 3.1418065865065938e+00 6.9387630682723120e+00 
35 1 2 1.0279999999704539e+00 -2.2717903689246026e+02 1.0000000000000000e+00 1.0818877460040254e+01 3.1418065865065574e+00 6.9387630682726016e+00 
52 1 2 1.0279999999704539e+00 -1.6619186128742950e+02 1.0000000000000000e+00 1.0818877460039177e+01 3.1418065865065938e+00 6.9387630682723120e+00 
21 1 2 1.0279999999704545e+00 -2.3926418375491210e+02 1.0000000000000000e+00 1.0204234240913479e+01 5.1125087295879270e+00 9.4703352068572642e+00 
56 1 2 1.0279999999704543e+00 -1.6862544534876841e+02 1.0000000000000000e+00 1.0204234240913500e+01 5.1125087295879119e+00 9.4703352068572819e+00 
15 1 2 1.0279999999704548e+00 -2.7650380989211243e+02 1.0000000000000000e+00 1.0204234240913483e+01 5.1125087295879208e+00 9.4703352068572695e+00 
13 1 2 1.0279999999704548e+00 -2.3314736477790632e+02 1.0000000000000000e+00 1.0204234240913504e+01 5.1125087295879297e+00 9.4703352068572677e+00 
19 1 2 1.0279999999704548e+00 -2.4696084825783180e+02 1.0000000000000000e+00 1.0204234240913483e+01 5.1125087295879208e+00 9.4703352068572695e+00 
14 1 2 1.0279999999704545e+00 -2.6382982885841528e+02 1.0000000000000000e+00 1.0204234240913525e+01 5.1125087295879164e+00 9.4703352068572837e+00 
20 1 2 1.0279999999704548e+00 -2.2071807973656340e+02 1.0000000000000000e+00 1.0204234240913504e+01 5.1125087295879297e+00 9.4703352068572677e+00 
82 1 2 1.0279998621706192e+00 -2.1031680409628629e+02 1.0000000000000000e+00 1.8537585000141430e+01 4.6420383135460694e+00 1.9632078193119971e+00 
154 1 2 1.0279996939658487e+00 -2.3488468836128996e+02 1.0000000000000000e+00 1.9273282005805832e+01 4.0044752526527496e+00 1.6251805330328417e+00 
159 1 2 1.0279996939658438e+00 -1.3408185089864983e+02 1.0000000000000000e+00 1.9273281999055371e+01 4.0044752394261875e+00 1.6251805408036295e+00 
112 1 2 1.0279996939658433e+00 -2.6100862883357610e+02 1.0000000000000000e+00 1.9273282069666642e+01 4.0044752132359394e+00 1.6251805421974308e+00 
147 1 2 1.0279996939658465e+00 -2.4415412284958853e+02 1.0000000000000000e+00 1.9273281999709354e+01 4.0044752406975750e+00 1.6251805400558288e+00 
153 1 2 1.0279996939658449e+00 -1.3855162338729988e+02 1.0000000000000000e+00 1.9273281998725501e+01 4.0044752387907465e+00 1.6251805411778901e+00 
115 1 2 1.0279998743565131e+00 -2.9772666473929928e+02 1.0000000000000000e+00 1.7378224277086066e+01 7.5329145040492254e+00 1.2542203328133674e+00 
158 1 2 1.0279998743565131e+00 -2.1526016636837952e+02 1.0000000000000000e+00 1.7378224277085963e+01 7.5329145040492111e+00 1.2542203328133796e+00 
5 1 2 1.0279998743565129e+00 -2.4952783560871362e+02 1.0000000000000000e+00 1.7378224277085959e+01 7.5329145040492245e+00 1.2542203328133914e+00 
152 1 2 1.0279998743565131e+00 -2.2355341753741149e+02 1.0000000000000000e+00 1.7378224277085963e+01 7.5329145040492111e+00 1.2542203328133796e+00 
151 1 2 1.0279998743565131e+00 -3.0529066685148445e+02 1.0000000000000000e+00 1.7378224277085963e+01 7.5329145040492111e+00 1.2542203328133796e+00 
104 1 2 1.0279998743565131e+00 -1.9415960126808540e+02 1.0000000000000000e+00 1.7378224277085963e+01 7.5329145040492111e+00 1.2542203328133796e+00 
146 1 2 1.0279998743565129e+00 -2.3890291586640961e+02 1.0000000000000000e+00 1.7378224277085959e+01 7.5329145040492245e+00 1.2542203328133914e+00 
137 1 2 1.0279997358146142e+00 -2.7050553104146854e+02 1.0000000000000000e+00 1.7856815120414314e+01 5.5587374729011092e+00 3.8254369993526920e+00 
131 1 2 1.0279997357381505e+00 -2.4271410229569932e+02 1.0000000000000000e+00 1.7856697131888552e+01 5.5590627419555192e+00 3.8256006315367066e+00 
54 1 2 1.0279997340041422e+00 -2.4071249230459830e+02 1.0000000000000000e+00 1.7853944429421031e+01 5.5666501583147525e+00 3.8313061182130004e+00 
16 1 2 1.0279997328829642e+00 -2.1993126989132890e+02 1.0000000000000000e+00 1.7851979831829162e+01 5.5718013582303794e+00 3.8162287799857495e+00 
167 1 2 1.0279997709308706e+00 -2.5017248737573186e+02 1.0000000000000000e+00 1.7874736998749889e+01 5.4905363551557338e+00 3.6533110623934952e+00 
148 1 2 1.0279998666183436e+00 -2.4182772529621568e+02 1.0000000000000000e+00 1.8370987765414419e+01 5.4692835509553293e+00 4.9821273581715300e+00 
3 1 2 1.0279996361535781e+00 -2.3147224897485782e+02 1.0000000000000000e+00 1.6852995495388800e+01 7.8039198442086803e+00 6.2243525244167053e+00 
34 1 2 1.0279996361535795e+00 -2.6553910879083088e+02 1.0000000000000000e+00 1.6852995495375929e+01 7.8039198441878463e+00 6.2243525244135141e+00 
4 1 2 1.0279996361535786e+00 -2.5117630390120644e+02 1.0000000000000000e+00 1.6852995495385326e+01 7.8039198442053124e+00 6.2243525244147264e+00 
33 1 2 1.0279996361535786e+00 -2.5888606080888400e+02 1.0000000000000000e+00 1.6852995495415833e+01 7.8039198442532323e+00 6.2243525244230007e+00 
22 1 2 1.0280002330328297e+00 -1.4949523225800112e+02 1.0000000000000000e+00 1.7157396676846023e+01 7.9552863379621721e+00 4.8604064457155749e+00 
28 1 2 1.0280002330328344e+00 -1.8086530635811499e+02 1.0000000000000000e+00 1.7157396675800907e+01 7.9552863377606586e+00 4.8604064459006109e+00 
23 1 2 1.0280002330328755e+00 -1.8791107608230800e+02 1.0000000000000000e+00 1.7157396610812579e+01 7.9552863250800874e+00 4.8604064572574623e+00 
39 1 2 1.0280002330328746e+00 -2.3649931516256612e+02 1.0000000000000000e+00 1.7157396616412285e+01 7.9552863262517546e+00 4.8604064563570866e+00 
127 1 2 1.0280002409138778e+00 -1.8805782687949264e+02 1.0000000000000000e+00 1.8930347091651605e+01 6.3649223211145598e+00 6.8151049328924902e+00 
128 1 2 1.0280002409139968e+00 -1.5415024533325797e+02 1.0000000000000000e+00 1.8930347134560982e+01 6.3649222372282415e+00 6.8151048706526884e+00 
164 1 2 1.0280002409139501e+00 -1.8531571882170144e+02 1.0000000000000000e+00 1.8930347118629207e+01 6.3649222626333914e+00 6.8151048910816217e+00 
163 1 2 1.0280002409139641e+00 -1.8164835655962892e+02 1.0000000000000000e+00 1.8930347122969959e+01 6.3649222611819294e+00 6.8151048880693175e+00 
46 1 2 1.0280002436146067e+00 -2.1275752362167870e+02 1.0000000000000000e+00 1.8931479303705302e+01 6.3633892709843094e+00 6.8137764228781874e+00 
94 1 2 1.0280002432658508e+00 -3.1606327259647674e+02 1.0000000000000000e+00 1.8931328310188487e+01 6.3635552457972180e+00 6.8139359609162193e+00 
122 1 2 1.0279999995124693e+00 -1.7613363465985992e+02 1.0000000000000000e+00 1.6463730139215858e+01 7.2996066677220828e+00 1.3091163423930386e+01 
116 1 2 1.0279999995124693e+00 -2.6021378857944433e+02 1.0000000000000000e+00 1.6463730139215855e+01 7.2996066677220872e+00 1.3091163423930388e+01 
80 1 2 1.0279999995124705e+00 -2.5491474975171946e+02 1.0000000000000000e+00 1.6463730139215873e+01 7.2996066677221050e+00 1.3091163423930361e+01 
87 1 2 1.0279999995124693e+00 -1.7808350938192314e+02 1.0000000000000000e+00 1.6463730139215858e+01 7.2996066677220828e+00 1.3091163423930386e+01 
123 1 2 1.0279999995124693e+00 -1.8970467824235442e+02 1.0000000000000000e+00 1.6463730139215858e+01 7.2996066677220828e+00 1.3091163423930386e+01 
162 1 2 1.0279999995124705e+00 -1.6169217178215337e+02 1.0000000000000000e+00 1.6463730139215873e+01 7.2996066677221050e+00 1.3091163423930361e+01 
156 1 2 1.0279999995124693e+00 -1.3896293515259816e+02 1.0000000000000000e+00 1.6463730139215858e+01 7.2996066677220828e+00 1.3091163423930386e+01 
166 1 2 1.0280000002290834e+00 -2.5093910568164557e+02 1.0000000000000000e+00 1.7892899868720789e+01 8.5057264324137218e+00 1.5923060176290015e+01 
59 1 2 1.0280000002344751e+00 -2.4605399024865827e+02 1.0000000000000000e+00 1.7895285065220051e+01 8.5064717370949978e+00 1.5922933732550302e+01 
69 1 2 1.0280000002344751e+00 -2.1041259150700591e+02 1.0000000000000000e+00 1.7895285065220079e+01 8.5064717370949960e+00 1.5922933732550305e+01 
111 1 2 1.0280000002344751e+00 -2.6547395566447835e+02 1.0000000000000000e+00 1.7895285065220435e+01 8.5064717370954490e+00 1.5922933732550122e+01 
45 1 2 1.0280000002256073e+00 -2.0221321026760413e+02 1.0000000000000000e+00 1.7891458871258163e+01 8.5070135228500874e+00 1.5922308943341454e+01 
88 1 2 1.0280000002256073e+00 -2.0458868795423660e+02 1.0000000000000000e+00 1.7891458871258113e+01 8.5070135228500661e+00 1.5922308943341461e+01 
173 1 2 1.0280000002262233e+00 -2.5208542286667489e+02 1.0000000000000000e+00 1.7891720778020325e+01 8.5073023825078984e+00 1.5922200973612041e+01 
133 1 2 1.0280000002187935e+00 -2.3313698809827582e+02 1.0000000000000000e+00 1.9837903416790095e+01 7.2324532607538190e+00 1.3450165855169734e+01 
91 1 2 1.0280000002187939e+00 -2.4070593511716231e+02 1.0000000000000000e+00 1.9837903416790066e+01 7.2324532607538128e+00 1.3450165855169676e+01 
135 1 2 1.0280000002187939e+00 -2.3017503616515899e+02 1.0000000000000000e+00 1.9837903416790077e+01 7.2324532607538323e+00 1.3450165855169695e+01 
97 1 2 1.0280000002187935e+00 -2.2025147990153215e+02 1.0000000000000000e+00 1.9837903416790095e+01 7.2324532607538190e+00 1.3450165855169734e+01 
55 1 2 1.0280000002187935e+00 -1.4156272178759355e+02 1.0000000000000000e+00 1.9837903416790095e+01 7.2324532607538190e+00 1.3450165855169734e+01 
165 1 2 1.0280000002187939e+00 -2.3903106338836869e+02 1.0000000000000000e+00 1.9837903416790077e+01 7.2324532607538323e+00 1.3450165855169695e+01 
61 1 2 1.0280000002187935e+00 -1.4868048450476113e+02 1.0000000000000000e+00 1.9837903416790095e+01 7.2324532607538190e+00 1.3450165855169734e+01 
175 1 2 1.0279999999949194e+00 -2.3074118083822304e+02 1.0000000000000000e+00 1.3739121705837896e+01 1.6544808080232830e+01 3.9241697921765955e+00 
121 1 2 1.0279999999949194e+00 -2.2710214831002190e+02 1.0000000000000000e+00 1.3739121705837896e+01 1.6544808080232830e+01 3.9241697921765955e+00 
157 1 2 1.0279999999949194e+00 -2.1054519430181600e+02 1.0000000000000000e+00 1.3739121705837896e+01 1.6544808080232830e+01 3.9241697921765955e+00 
145 1 2 1.0279999999949194e+00 -2.9176513155111746e+02 1.0000000000000000e+00 1.3739121705837178e+01 1.6544808080234144e+01 3.9241697921768344e+00 
109 1 2 1.0279999999949194e+00 -2.8226560707746557e+02 1.0000000000000000e+00 1.3739121705811579e+01 1.6544808080281687e+01 3.9241697921876684e+00 
110 1 2 1.0279999999949194e+00 -2.9791654966906560e+02 1.0000000000000000e+00 1.3739121705805825e+01 1.6544808080293816e+01 3.9241697921952658e+00 
139 1 2 1.0279999999949194e+00 -2.3520517162059386e+02 1.0000000000000000e+00 1.3739121705837896e+01 1.6544808080232830e+01 3.9241697921765955e+00 
81 1 2 1.0279999999949196e+00 -2.5323164791054285e+02 1.0000000000000000e+00 1.6543603852589996e+01 1.8157741298879682e+01 3.4729081889475100e+00 
9 1 2 1.0279999999949196e+00 -1.7594408581659047e+02 1.0000000000000000e+00 1.6543603852590000e+01 1.8157741298879678e+01 3.4729081889475335e+00 
142 1 2 1.0279999999949196e+00 -1.8022301673767936e+02 1.0000000000000000e+00 1.6543603852589996e+01 1.8157741298879682e+01 3.4729081889475100e+00 
75 1 2 1.0279999999949196e+00 -2.4210047011621560e+02 1.0000000000000000e+00 1.6543603852589996e+01 1.8157741298879682e+01 3.4729081889475100e+00 
53 1 2 1.0279999999949196e+00 -2.1556727423286878e+02 1.0000000000000000e+00 1.6543603852589996e+01 1.8157741298879682e+01 3.4729081889475100e+00 
141 1 2 1.0279999999949196e+00 -1.6615743498989838e+02 1.0000000000000000e+00 1.6543603852589996e+01 1.8157741298879682e+01 3.4729081889475100e+00 
60 1 2 1.0279999999949199e+00 -2.6270078493928492e+02 1.0000000000000000e+00 1.6543603852589996e+01 1.8157741298879682e+01 3.4729081889475246e+00 

Velocities

48 3.3088673562512705e-01 -1.8010760997420538e-01 -2.0150788867252627e-02
27 3.3088673193306306e-01 -1.8010760898698364e-01 -2.0150787524089560e-02
57 3.3088673182501466e-01 -1.8010760892127881e-01 -2.0150787480600875e-02
63 3.3088673181080480e-01 -1.8010760891251260e-01 -2.0150787474741003e-02
68 3.3088673128642154e-01 -1.8010760865423381e-01 -2.0150787125899513e-02
118 3.2805424717847842e-01 -1.8872176746044159e-01 -2.7011244525786592e-02
58 3.2805424717847842e-01 -1.8872176746044159e-01 -2.7011244525786592e-02
117 3.2805424717847842e-01 -1.8872176746044159e-01 -2.7011244525786592e-02
161 3.2805424717847842e-01 -1.8872176746044159e-01 -2.7011244525786592e-02
155 3.2805424717847842e-01 -1.8872176746044159e-01 -2.7011244525786592e-02
51 3.2805424717847842e-01 -1.8872176746044159e-01 -2.7011244525786592e-02
160 3.2805424717847842e-01 -1.8872176746044159e-01 -2.7011244525786592e-02
74 3.2805669560282852e-01 -1.8869542133237555e-01 -2.7084922018638227e-02
103 3.2805669560282852e-01 -1.8869542133237555e-01 -2.7084922018638227e-02
67 3.2805669560282857e-01 -1.8869542133237560e-01 -2.7084922018638193e-02
134 3.2805669560282857e-01 -1.8869542133237560e-01 -2.7084922018638193e-02
180 3.2805669560282852e-01 -1.8869542133237555e-01 -2.7084922018638227e-02
73 3.2805669560282869e-01 -1.8869542133237568e-01 -2.7084922018638269e-02
47 3.2805669560282852e-01 -1.8869542133237555e-01 -2.7084922018638359e-02
125 3.2635876941342656e-01 -1.8738066037664439e-01 -2.0643496005970489e-02
132 3.2635876941343678e-01 -1.8738066037664847e-01 -2.0643496005965507e-02
89 3.2635876941343528e-01 -1.8738066037664730e-01 -2.0643496005966558e-02
17 3.2635876940909675e-01 -1.8738066037199705e-01 -2.0643496002416314e-02
84 3.2635876941344044e-01 -1.8738066037664974e-01 -2.0643496005964216e-02
168 3.2687188944986567e-01 -1.8726891749347802e-01 -2.0050172497503765e-02
83 3.2686769892397693e-01 -1.8727131414171935e-01 -2.0055540616797436e-02
76 3.2686768725138438e-01 -1.8727131757609181e-01 -2.0055559861094877e-02
174 3.2687521134573033e-01 -1.8726531111592096e-01 -2.0046983554477787e-02
18 3.2687742074834786e-01 -1.8725569749689291e-01 -2.0044059936477832e-02
138 3.2687647264763758e-01 -1.8725385697024979e-01 -2.0046046158360704e-02
105 3.2687714343057400e-01 -1.8725482404432273e-01 -2.0044266578693751e-02
172 3.2652383604184432e-01 -1.8761947519986077e-01 -2.0012101996834081e-02
7 3.2652383604184404e-01 -1.8761947519986033e-01 -2.0012101996832739e-02
44 3.2652383604185997e-01 -1.8761947519988068e-01 -2.0012101996840066e-02
43 3.2652383604184476e-01 -1.8761947519986158e-01 -2.0012101996833363e-02
113 3.2670943529874913e-01 -1.8764956968907251e-01 -2.0031691206198791e-02
79 3.2659804546413562e-01 -1.8763072125307709e-01 -2.0008050135651531e-02
126 3.2659804573870665e-01 -1.8763072114178980e-01 -2.0008050172505922e-02
150 3.2659804546507015e-01 -1.8763072125285446e-01 -2.0008050135795097e-02
85 3.2659804546491472e-01 -1.8763072125283245e-01 -2.0008050135762716e-02
99 3.2650234311247078e-01 -1.8755404973487955e-01 -2.0330710690451916e-02
177 3.2651448633891000e-01 -1.8754502856242575e-01 -2.0386751182159074e-02