LAMMPS (30 Jul 2016)
atom_style         meso-molecular
dimension          3
newton             on
units              micro

read_data          33_fell.data
  orthogonal box = (86.4849 86.4849 249.455) to (113.515 113.515 340.545)
  1 by 2 by 6 MPI processor grid
  reading atoms ...
  9163 atoms
  reading velocities ...
  9163 velocities


variable           h         equal 2.0
variable           h_act     equal 3.0
variable 		   h_mix	 equal (${h}+${h_act})/2.0
variable 		   h_mix	 equal (2+${h_act})/2.0
variable 		   h_mix	 equal (2+3)/2.0
variable           c     equal 100.0             # soundspeed for Tait's EOS
variable           dt    equal 0.0001
variable		   visc  equal 2357.8			 # viscosity in g/m*s (avg visc should be 2.3578 kg/m*s)

group              cbd type 1
1086 atoms in group cbd
group			   active type 2
1568 atoms in group active
group			   solvent type 3
6313 atoms in group solvent
group  			   cbd_solvent type 1 3
7399 atoms in group cbd_solvent
group      		   cbd_active type 1 2
2654 atoms in group cbd_active

group              slurry type 1 2 3
8967 atoms in group slurry
group              bc type 4
0 atoms in group bc

pair_style         hybrid/overlay sph/rhosum 1 sph/taitwater/morris
pair_coeff         * * sph/taitwater/morris 0.93 ${c} ${visc} ${h}
pair_coeff         * * sph/taitwater/morris 0.93 100 ${visc} ${h}
pair_coeff         * * sph/taitwater/morris 0.93 100 2357.8 ${h}
pair_coeff         * * sph/taitwater/morris 0.93 100 2357.8 2
pair_coeff         * * sph/rhosum ${h}
pair_coeff         * * sph/rhosum 2



timestep    ${dt}
timestep    0.0001

# time-integrate position, velocities, internal energy and density of cbd particles
fix                integrate_slurry_fix slurry meso
# time-integrate only internal energy and density of boundary particles
fix                integrate_bc_fix bc meso/stationary

dump               dump_id all custom 10000 long_dried_33.lammpstrj id type mol xs ys zs
dump_modify        dump_id first yes
dump_modify 	   dump_id sort 3

#compute thermo_temp slurry temp
#thermo_modify temp slurry
uncompute thermo_temp
compute thermo_temp slurry temp
thermo             1000
thermo_style       custom step time temp press density lx ly lz
thermo_modify      norm no

neigh_modify       every 5 delay 0 check no
variable           skin equal 0.3*${h}
variable           skin equal 0.3*2
neighbor           ${skin} bin # set Verlet list skin distance
neighbor           0.6 bin 
#change_box all boundary p p f
fix make_rigid active rigid molecule
49 rigid bodies with 1568 atoms

run 30000
WARNING: One or more atoms are time integrated more than once (../modify.cpp:271)
Neighbor list info ...
  2 neighbor list requests
  update every 5 steps, delay 0 steps, check no
  max neighbors/atom: 2000, page size: 100000
  master list distance cutoff = 2.6
  ghost atom cutoff = 2.6
  binsize = 1.3 -> bins = 21 21 71
Memory usage per processor = 5.60667 Mbytes
Step Time Temp Press Density Lx Ly Lz 
       0            0    9107.4677    3.8989423   0.51215969    27.030268    27.030268    91.090804 
    1000          0.1    13572.629    4.0304211   0.51215969    27.030268    27.030268    91.090804 
    2000          0.2    35453.304    4.0431132   0.51215969    27.030268    27.030268    91.090804 
    3000          0.3    74927.087    4.0525931   0.51215969    27.030268    27.030268    91.090804 
    4000          0.4    131685.57    4.0612281   0.51215969    27.030268    27.030268    91.090804 
    5000          0.5    204837.93    4.0695348   0.51215969    27.030268    27.030268    91.090804 
    6000          0.6    293414.37    4.0777115   0.51215969    27.030268    27.030268    91.090804 
    7000          0.7    396458.22    4.0839017   0.51215969    27.030268    27.030268    91.090804 
    8000          0.8    513065.89    4.0858804   0.51215969    27.030268    27.030268    91.090804 
    9000          0.9    642343.69    4.0843775   0.51215969    27.030268    27.030268    91.090804 
   10000            1    783496.11    4.0812825   0.51215969    27.030268    27.030268    91.090804 
   11000          1.1       935597    4.0773941   0.51215969    27.030268    27.030268    91.090804 
   12000          1.2      1097816     4.072328   0.51215969    27.030268    27.030268    91.090804 
   13000          1.3    1269336.4    4.0647384   0.51215969    27.030268    27.030268    91.090804 
   14000          1.4    1449305.7    4.0557234   0.51215969    27.030268    27.030268    91.090804 
   15000          1.5      1636941    4.0475954   0.51215969    27.030268    27.030268    91.090804 
   16000          1.6    1831408.2    4.0414422   0.51215969    27.030268    27.030268    91.090804 
   17000          1.7    2031980.4    4.0352835   0.51215969    27.030268    27.030268    91.090804 
   18000          1.8    2237784.1    4.0258371   0.51215969    27.030268    27.030268    91.090804 
   19000          1.9    2448096.2    4.0136285   0.51215969    27.030268    27.030268    91.090804 
   20000            2      2662079    4.0016339   0.51215969    27.030268    27.030268    91.090804 
   21000          2.1    2878732.9    3.9810612   0.51215969    27.030268    27.030268    91.090804 
   22000          2.2    3096975.6    3.9625996   0.51215969    27.030268    27.030268    91.090804 
   23000          2.3    3316432.8    3.9524445   0.51215969    27.030268    27.030268    91.090804 
   24000          2.4      3536171    3.9374251   0.51215969    27.030268    27.030268    91.090804 
   25000          2.5      3755320    3.9209268   0.51215969    27.030268    27.030268    91.090804 
   26000          2.6    3973324.9    3.9052536   0.51215969    27.030268    27.030268    91.090804 
   27000          2.7    4189248.5    3.8891326   0.51215969    27.030268    27.030268    91.090804 
   28000          2.8    4402728.5    3.8681086   0.51215969    27.030268    27.030268    91.090804 
   29000          2.9    4612943.9    3.8358333   0.51215969    27.030268    27.030268    91.090804 
   30000            3    4819502.3     3.816794   0.51215969    27.030268    27.030268    91.090804 
Loop time of 21.9511 on 12 procs for 30000 steps with 9163 atoms

Performance: 11808055.112 ns/day, 0.000 hours/ns, 1366.673 timesteps/s
99.9% CPU use with 12 MPI tasks x no OpenMP threads

MPI task timing breakdown:
Section |  min time  |  avg time  |  max time  |%varavg| %total
---------------------------------------------------------------
Pair    | 9.0124     | 9.5407     | 10.783     |  18.5 | 43.46
Neigh   | 4.5196     | 6.7286     | 7.7786     |  44.0 | 30.65
Comm    | 2.6848     | 3.701      | 4.7622     |  34.2 | 16.86
Output  | 0.018299   | 0.018363   | 0.018519   |   0.0 |  0.08
Modify  | 1.5518     | 1.7988     | 2.1805     |  12.4 |  8.19
Other   |            | 0.1637     |            |       |  0.75

Nlocal:    763.583 ave 857 max 541 min
Histogram: 2 0 0 0 1 1 0 0 2 6
Nghost:    896.417 ave 1050 max 639 min
Histogram: 4 0 0 0 0 0 0 0 4 4
Neighs:    4158.83 ave 4883 max 2984 min
Histogram: 2 0 1 1 0 0 0 1 5 2
FullNghs:  8317.67 ave 9750 max 5666 min
Histogram: 2 0 0 1 1 0 0 0 6 2

Total # of neighbors = 99812
Ave neighs/atom = 10.8929
Neighbor list builds = 6000
Dangerous builds not checked
variable g equal 9.8/100


fix add_gravity slurry gravity ${g} vector 0 0 -1
fix add_gravity slurry gravity 0.098 vector 0 0 -1
run 100000
WARNING: One or more atoms are time integrated more than once (../modify.cpp:271)
Memory usage per processor = 5.60667 Mbytes
Step Time Temp Press Density Lx Ly Lz 
   30000            3    4819502.3    3.8281065   0.51215969    27.030268    27.030268    91.090804 
   31000          3.1    4617041.1    4.6567492   0.51215969    27.030268    27.030268    91.090804 
   32000          3.2    4415439.7     4.630147   0.51215969    27.030268    27.030268    91.090804 
   33000          3.3    4215514.7    4.5984757   0.51215969    27.030268    27.030268    91.090804 
   34000          3.4    4016364.5    4.5548036   0.51215969    27.030268    27.030268    91.090804 
   35000          3.5    3818491.1    4.5170442   0.51215969    27.030268    27.030268    91.090804 
   36000          3.6    3621719.9    4.4880412   0.51215969    27.030268    27.030268    91.090804 
   37000          3.7    3426892.1    4.4572563   0.51215969    27.030268    27.030268    91.090804 
   38000          3.8    3234490.1     4.431564   0.51215969    27.030268    27.030268    91.090804 
   39000          3.9    3045506.8    4.4245776   0.51215969    27.030268    27.030268    91.090804 
   40000            4    2859953.9    4.4113895   0.51215969    27.030268    27.030268    91.090804 
   41000          4.1      2678428    4.3838759   0.51215969    27.030268    27.030268    91.090804 
   42000          4.2    2501825.9    4.3592203   0.51215969    27.030268    27.030268    91.090804 
   43000          4.3    2330665.9    4.3388828   0.51215969    27.030268    27.030268    91.090804 
   44000          4.4    2164957.1    4.3304299   0.51215969    27.030268    27.030268    91.090804 
   45000          4.5    2004981.6    4.3128105   0.51215969    27.030268    27.030268    91.090804 
   46000          4.6    1850582.1    4.2784223   0.51215969    27.030268    27.030268    91.090804 
   47000          4.7    1702278.7    4.2570118   0.51215969    27.030268    27.030268    91.090804 
   48000          4.8    1560983.9    4.2611571   0.51215969    27.030268    27.030268    91.090804 
   49000          4.9    1427413.7    4.2627858   0.51215969    27.030268    27.030268    91.090804 
   50000            5    1301764.6    4.2546922   0.51215969    27.030268    27.030268    91.090804 
   51000          5.1    1184004.3    4.2416676   0.51215969    27.030268    27.030268    91.090804 
   52000          5.2    1074176.2    4.2318756   0.51215969    27.030268    27.030268    91.090804 
   53000          5.3    972719.08    4.2252904   0.51215969    27.030268    27.030268    91.090804 
   54000          5.4    879595.57    4.2179951   0.51215969    27.030268    27.030268    91.090804 
   55000          5.5    794800.94    4.2125115   0.51215969    27.030268    27.030268    91.090804 
   56000          5.6    718515.67    4.2127897   0.51215969    27.030268    27.030268    91.090804 
   57000          5.7    650402.64    4.2095625   0.51215969    27.030268    27.030268    91.090804 
   58000          5.8    590688.78    4.2015854   0.51215969    27.030268    27.030268    91.090804 
   59000          5.9    538758.55    4.1934082   0.51215969    27.030268    27.030268    91.090804 
   60000            6     494771.3    4.1819703   0.51215969    27.030268    27.030268    91.090804 
   61000          6.1    458881.91    4.1782151   0.51215969    27.030268    27.030268    91.090804 
   62000          6.2    431045.13    4.1777422   0.51215969    27.030268    27.030268    91.090804 
   63000          6.3    411106.98    4.1742819   0.51215969    27.030268    27.030268    91.090804 
   64000          6.4    398599.63    4.1786467   0.51215969    27.030268    27.030268    91.090804 
   65000          6.5    392594.92    4.1718341   0.51215969    27.030268    27.030268    91.090804 
   66000          6.6    394011.75    4.1683507   0.51215969    27.030268    27.030268    91.090804 
   67000          6.7    402412.82    4.1707774   0.51215969    27.030268    27.030268    91.090804 
   68000          6.8    416824.84    4.1634316   0.51215969    27.030268    27.030268    91.090804 
   69000          6.9    437358.36    4.1587287   0.51215969    27.030268    27.030268    91.090804 
   70000            7    463857.11    4.1691229   0.51215969    27.030268    27.030268    91.090804 
   71000          7.1    495888.05    4.1771899   0.51215969    27.030268    27.030268    91.090804 
   72000          7.2    533676.19    4.1774738   0.51215969    27.030268    27.030268    91.090804 
   73000          7.3    576746.95    4.1785829   0.51215969    27.030268    27.030268    91.090804 
   74000          7.4    624000.17    4.1839405   0.51215969    27.030268    27.030268    91.090804 
   75000          7.5    676074.75    4.1887669   0.51215969    27.030268    27.030268    91.090804 
   76000          7.6    732288.22    4.1913218   0.51215969    27.030268    27.030268    91.090804 
   77000          7.7    791970.01    4.1945138   0.51215969    27.030268    27.030268    91.090804 
   78000          7.8    854901.85    4.1996298   0.51215969    27.030268    27.030268    91.090804 
   79000          7.9    921279.11     4.207246   0.51215969    27.030268    27.030268    91.090804 
   80000            8    990201.55    4.2149873   0.51215969    27.030268    27.030268    91.090804 
   81000          8.1    1061123.9    4.2200577   0.51215969    27.030268    27.030268    91.090804 
   82000          8.2    1134616.1    4.2234409   0.51215969    27.030268    27.030268    91.090804 
   83000          8.3    1210315.7    4.2275126   0.51215969    27.030268    27.030268    91.090804 
   84000          8.4    1287040.6     4.231999   0.51215969    27.030268    27.030268    91.090804 
   85000          8.5    1365271.3      4.23795   0.51215969    27.030268    27.030268    91.090804 
   86000          8.6    1444890.7    4.2467621   0.51215969    27.030268    27.030268    91.090804 
   87000          8.7    1525524.1    4.2528146   0.51215969    27.030268    27.030268    91.090804 
   88000          8.8    1607300.7    4.2546627   0.51215969    27.030268    27.030268    91.090804 
   89000          8.9    1689637.5    4.2559315   0.51215969    27.030268    27.030268    91.090804 
   90000            9    1771727.6    4.2612733   0.51215969    27.030268    27.030268    91.090804 
   91000          9.1    1852815.4    4.2648958   0.51215969    27.030268    27.030268    91.090804 
   92000          9.2    1933482.1    4.2649594   0.51215969    27.030268    27.030268    91.090804 
   93000          9.3    2013943.2    4.2728308   0.51215969    27.030268    27.030268    91.090804 
   94000          9.4      2093738    4.2857753   0.51215969    27.030268    27.030268    91.090804 
   95000          9.5    2173410.1      4.29989   0.51215969    27.030268    27.030268    91.090804 
   96000          9.6    2252717.6    4.3212084   0.51215969    27.030268    27.030268    91.090804 
   97000          9.7    2331520.1    4.3401607   0.51215969    27.030268    27.030268    91.090804 
   98000          9.8    2410018.9    4.3426772   0.51215969    27.030268    27.030268    91.090804 
   99000          9.9    2488290.1    4.3475839   0.51215969    27.030268    27.030268    91.090804 
  100000           10    2565416.4    4.3656205   0.51215969    27.030268    27.030268    91.090804 
  101000         10.1    2640899.7     4.396385   0.51215969    27.030268    27.030268    91.090804 
  102000         10.2    2714830.5    4.4204436   0.51215969    27.030268    27.030268    91.090804 
  103000         10.3    2787567.8    4.4261196   0.51215969    27.030268    27.030268    91.090804 
  104000         10.4    2858669.6    4.4346668   0.51215969    27.030268    27.030268    91.090804 
  105000         10.5    2928319.9    4.4483093   0.51215969    27.030268    27.030268    91.090804 
  106000         10.6    2995151.3    4.4664988   0.51215969    27.030268    27.030268    91.090804 
  107000         10.7    3059244.2    4.5040942   0.51215969    27.030268    27.030268    91.090804 
  108000         10.8    3120700.7    4.5254612   0.51215969    27.030268    27.030268    91.090804 
  109000         10.9      3180145    4.5228003   0.51215969    27.030268    27.030268    91.090804 
  110000           11    3236366.2     4.522127   0.51215969    27.030268    27.030268    91.090804 
  111000         11.1    3289569.1     4.525319   0.51215969    27.030268    27.030268    91.090804 
  112000         11.2    3338475.6    4.5379069   0.51215969    27.030268    27.030268    91.090804 
  113000         11.3    3384493.8    4.5556449   0.51215969    27.030268    27.030268    91.090804 
  114000         11.4      3426794     4.587025   0.51215969    27.030268    27.030268    91.090804 
  115000         11.5    3464455.4    4.6214523   0.51215969    27.030268    27.030268    91.090804 
  116000         11.6    3497395.3    4.6446598   0.51215969    27.030268    27.030268    91.090804 
  117000         11.7    3527116.2    4.6605781   0.51215969    27.030268    27.030268    91.090804 
  118000         11.8    3551242.8    4.6851244   0.51215969    27.030268    27.030268    91.090804 
  119000         11.9    3569170.7    4.7193816   0.51215969    27.030268    27.030268    91.090804 
  120000           12    3579817.6    4.7441736   0.51215969    27.030268    27.030268    91.090804 
  121000         12.1    3587028.5     4.726735   0.51215969    27.030268    27.030268    91.090804 
  122000         12.2    3587664.3    4.7523191   0.51215969    27.030268    27.030268    91.090804 
  123000         12.3    3581618.9    4.7834372   0.51215969    27.030268    27.030268    91.090804 
  124000         12.4    3569656.7    4.8092724   0.51215969    27.030268    27.030268    91.090804 
  125000         12.5    3551197.7    4.8345071   0.51215969    27.030268    27.030268    91.090804 
  126000         12.6    3528101.5    4.8639773   0.51215969    27.030268    27.030268    91.090804 
  127000         12.7    3499302.1    4.8908519   0.51215969    27.030268    27.030268    91.090804 
  128000         12.8    3464231.7    4.8990714   0.51215969    27.030268    27.030268    91.090804 
  129000         12.9    3421982.7    4.9049074   0.51215969    27.030268    27.030268    91.090804 
  130000           13    3373625.4    4.9109021   0.51215969    27.030268    27.030268    91.090804 
Loop time of 111.147 on 12 procs for 100000 steps with 9163 atoms

Performance: 7773519.186 ns/day, 0.000 hours/ns, 899.713 timesteps/s
97.1% CPU use with 12 MPI tasks x no OpenMP threads

MPI task timing breakdown:
Section |  min time  |  avg time  |  max time  |%varavg| %total
---------------------------------------------------------------
Pair    | 27.748     | 30.869     | 35.695     |  43.8 | 27.77
Neigh   | 14.943     | 22.326     | 25.798     |  76.8 | 20.09
Comm    | 8.9569     | 12.794     | 16.867     |  71.0 | 11.51
Output  | 38.075     | 38.075     | 38.075     |   0.0 | 34.26
Modify  | 5.6218     | 6.535      | 8.1879     |  28.1 |  5.88
Other   |            | 0.5476     |            |       |  0.49

Nlocal:    763.583 ave 869 max 545 min
Histogram: 2 0 0 2 0 0 0 0 4 4
Nghost:    900.167 ave 1060 max 647 min
Histogram: 3 1 0 0 0 0 0 0 5 3
Neighs:    4159.92 ave 4987 max 3031 min
Histogram: 3 1 0 0 0 0 0 3 3 2
FullNghs:  8319.83 ave 9966 max 5748 min
Histogram: 2 1 1 0 0 0 0 3 2 3

Total # of neighbors = 99838
Ave neighs/atom = 10.8958
Neighbor list builds = 20000
Dangerous builds not checked


#fix add_gravity1 slurry gravity ${g} vector 0 0 -1  # Acceleration is micrometers/(microseconds)^2


variable slurry_height equal bound(active,zmax)

print ${slurry_height}
print 338.538012874869
338.538012874869

region evap_region_upper block 0 EDGE 0 EDGE ${slurry_height} EDGE
region evap_region_upper block 0 EDGE 0 EDGE 338.538012874869 EDGE
region evap_region_lower block 0 EDGE 0 EDGE 0 ${slurry_height}
region evap_region_lower block 0 EDGE 0 EDGE 0 338.538012874869

fix evap_upper solvent evaporate 1000 10 evap_region_upper 139
fix evap_lower solvent evaporate 10000 2 evap_region_lower 138

#fix heat_solvent solvent langevin 100000000 100000000 10 234

run 3000000
WARNING: Fix evaporate may delete atom with non-zero molecule ID (../fix_evaporate.cpp:151)
WARNING: Fix evaporate may delete atom with non-zero molecule ID (../fix_evaporate.cpp:151)
WARNING: One or more atoms are time integrated more than once (../modify.cpp:271)
Memory usage per processor = 5.60667 Mbytes
Step Time Temp Press Density Lx Ly Lz 
  130000           13    3373625.4    3.9094869   0.51215969    27.030268    27.030268    91.090804 
  131000         13.1    3303612.5    4.9243559   0.51160074    27.030268    27.030268    91.090804 
  132000         13.2    3230585.9    4.9502692    0.5110418    27.030268    27.030268    91.090804 
  133000         13.3    3152397.8    5.0000959   0.51076233    27.030268    27.030268    91.090804 
  134000         13.4    3079004.4    5.0300459   0.51076233    27.030268    27.030268    91.090804 
  135000         13.5    3000408.9    5.0674011   0.51076233    27.030268    27.030268    91.090804 
  136000         13.6    2916077.8    5.1293847   0.51076233    27.030268    27.030268    91.090804 
  137000         13.7    2826138.5    5.1627048   0.51076233    27.030268    27.030268    91.090804 
  138000         13.8    2735123.1    5.1641476   0.51076233    27.030268    27.030268    91.090804 
  139000         13.9    2637911.9    5.2091388   0.51076233    27.030268    27.030268    91.090804 
  140000           14    2539174.4     5.218203   0.51065054    27.030268    27.030268    91.090804 
  141000         14.1    2439870.1    5.2329599   0.51065054    27.030268    27.030268    91.090804 
  142000         14.2    2336233.4    5.2272424   0.51065054    27.030268    27.030268    91.090804 
  143000         14.3      2229229    5.2145726   0.51065054    27.030268    27.030268    91.090804 
  144000         14.4    2123064.9    5.2388655   0.51065054    27.030268    27.030268    91.090804 
  145000         14.5    2016044.2    5.2894002   0.51065054    27.030268    27.030268    91.090804 
  146000         14.6    1907262.6    5.2980671   0.51065054    27.030268    27.030268    91.090804 
  147000         14.7    1800990.2    5.3136879   0.51065054    27.030268    27.030268    91.090804 
  148000         14.8    1689939.8    5.3453942   0.51065054    27.030268    27.030268    91.090804 
  149000         14.9      1580969    5.3556673   0.51065054    27.030268    27.030268    91.090804 
  150000           15    1469325.2    5.3679426   0.51053875    27.030268    27.030268    91.090804 
  151000         15.1    1359732.5    5.4271402   0.51053875    27.030268    27.030268    91.090804 
  152000         15.2    1249038.7    5.4574799   0.51053875    27.030268    27.030268    91.090804 
  153000         15.3    1140553.9    5.4529866   0.51053875    27.030268    27.030268    91.090804 
  154000         15.4    1039705.9    5.4167335   0.51053875    27.030268    27.030268    91.090804 
  155000         15.5    943341.15    5.3993338   0.51053875    27.030268    27.030268    91.090804 
  156000         15.6    846519.53    5.4058464   0.51053875    27.030268    27.030268    91.090804 
  157000         15.7    754531.43    5.4244441   0.51053875    27.030268    27.030268    91.090804 
  158000         15.8       669974    5.4337473   0.51053875    27.030268    27.030268    91.090804 
  159000         15.9    591941.96    5.4224243   0.51053875    27.030268    27.030268    91.090804 
  160000           16    521203.43    5.4020959   0.51042696    27.030268    27.030268    91.090804 
  161000         16.1    459352.84    5.3975466   0.51042696    27.030268    27.030268    91.090804 
  162000         16.2    400019.87    5.4171148   0.51042696    27.030268    27.030268    91.090804 
  163000         16.3     344921.8     5.443384   0.51042696    27.030268    27.030268    91.090804 
  164000         16.4    293579.96    5.4461942   0.51042696    27.030268    27.030268    91.090804 
  165000         16.5    250014.77    5.4233131   0.51042696    27.030268    27.030268    91.090804 
  166000         16.6    211330.61    5.3991782   0.51042696    27.030268    27.030268    91.090804 
  167000         16.7    177025.57    5.3954217   0.51042696    27.030268    27.030268    91.090804 
  168000         16.8    151342.61    5.3892159   0.51042696    27.030268    27.030268    91.090804 
  169000         16.9    131880.64      5.38462   0.51042696    27.030268    27.030268    91.090804 
  170000           17    115854.38    5.3925037   0.51031517    27.030268    27.030268    91.090804 
  171000         17.1    107876.64    5.4014782   0.51031517    27.030268    27.030268    91.090804 
  172000         17.2    104508.54    5.3931273   0.51031517    27.030268    27.030268    91.090804 
  173000         17.3    106174.03    5.3787188   0.51031517    27.030268    27.030268    91.090804 
  174000         17.4     113223.9    5.3730143   0.51031517    27.030268    27.030268    91.090804 
  175000         17.5    125681.36    5.3726433   0.51031517    27.030268    27.030268    91.090804 
  176000         17.6    142723.37    5.3690195   0.51031517    27.030268    27.030268    91.090804 
  177000         17.7    164730.37    5.3672396   0.51031517    27.030268    27.030268    91.090804 
  178000         17.8    190797.54    5.3673066   0.51031517    27.030268    27.030268    91.090804 
  179000         17.9    221011.12    5.3651508   0.51031517    27.030268    27.030268    91.090804 
  180000           18    255790.79    5.3559106   0.51020338    27.030268    27.030268    91.090804 
  181000         18.1    293218.28    5.3495272   0.51020338    27.030268    27.030268    91.090804 
  182000         18.2    332206.41    5.3559637   0.51020338    27.030268    27.030268    91.090804 
  183000         18.3    375409.51    5.3290656   0.51020338    27.030268    27.030268    91.090804 
  184000         18.4    421195.34    5.3010037   0.51020338    27.030268    27.030268    91.090804 
  185000         18.5     468705.9    5.2924865   0.51020338    27.030268    27.030268    91.090804 
  186000         18.6    518637.09    5.2891746   0.51020338    27.030268    27.030268    91.090804 
  187000         18.7    569585.22    5.2880489   0.51020338    27.030268    27.030268    91.090804 
  188000         18.8     621389.6    5.2879283   0.51020338    27.030268    27.030268    91.090804 
  189000         18.9    672724.27    5.2819914   0.51020338    27.030268    27.030268    91.090804 
  190000           19    723578.81    5.2674554    0.5100916    27.030268    27.030268    91.090804 
  191000         19.1    777468.32    5.2465706    0.5100916    27.030268    27.030268    91.090804 
  192000         19.2    830681.16    5.2235545    0.5100916    27.030268    27.030268    91.090804 
  193000         19.3    881803.69    5.2058053    0.5100916    27.030268    27.030268    91.090804 
  194000         19.4    931036.12    5.1995098    0.5100916    27.030268    27.030268    91.090804 
  195000         19.5    979458.93     5.196453    0.5100916    27.030268    27.030268    91.090804 
  196000         19.6    1026535.6    5.1780239    0.5100916    27.030268    27.030268    91.090804 
  197000         19.7    1071422.2    5.1616032    0.5100916    27.030268    27.030268    91.090804 
  198000         19.8    1114133.5     5.154945    0.5100916    27.030268    27.030268    91.090804 
  199000         19.9    1154907.5    5.1442249    0.5100916    27.030268    27.030268    91.090804 
  200000           20    1192592.5    5.1302917   0.50997981    27.030268    27.030268    91.090804 
  201000         20.1    1229100.8    5.1186271   0.50997981    27.030268    27.030268    91.090804 
  202000         20.2    1260975.7    5.1165261   0.50997981    27.030268    27.030268    91.090804 
  203000         20.3    1289467.4    5.1092615   0.50997981    27.030268    27.030268    91.090804 
  204000         20.4    1315700.8    5.0917107   0.50997981    27.030268    27.030268    91.090804 
  205000         20.5    1338435.7    5.0673964   0.50997981    27.030268    27.030268    91.090804 
  206000         20.6    1358019.5    5.0408261   0.50997981    27.030268    27.030268    91.090804 
  207000         20.7      1374815    5.0281131   0.50997981    27.030268    27.030268    91.090804 
  208000         20.8    1388063.5      5.02539   0.50997981    27.030268    27.030268    91.090804 
  209000         20.9      1398071    5.0199769   0.50997981    27.030268    27.030268    91.090804 
  210000           21    1404604.3    5.0000807   0.50986802    27.030268    27.030268    91.090804 
  211000         21.1    1408242.3     4.982656   0.50986802    27.030268    27.030268    91.090804 
  212000         21.2    1408156.3    4.9664219   0.50986802    27.030268    27.030268    91.090804 
  213000         21.3    1405543.1    4.9529456   0.50986802    27.030268    27.030268    91.090804 
  214000         21.4    1399772.1      4.94267   0.50986802    27.030268    27.030268    91.090804 
  215000         21.5    1391208.9    4.9272647   0.50986802    27.030268    27.030268    91.090804 
  216000         21.6    1379757.1    4.9137845   0.50986802    27.030268    27.030268    91.090804 
  217000         21.7    1364961.5    4.8949926   0.50986802    27.030268    27.030268    91.090804 
  218000         21.8    1347687.8    4.8713631   0.50986802    27.030268    27.030268    91.090804 
  219000         21.9    1327677.7    4.8557641   0.50986802    27.030268    27.030268    91.090804 
  220000           22    1305912.1    4.8313051   0.50975623    27.030268    27.030268    91.090804 
  221000         22.1    1282425.4    4.8411865   0.50975623    27.030268    27.030268    91.090804 
  222000         22.2    1255293.4    4.8487168   0.50975623    27.030268    27.030268    91.090804 
  223000         22.3    1226259.4    4.8302854   0.50975623    27.030268    27.030268    91.090804 
  224000         22.4    1196096.8    4.7977792   0.50975623    27.030268    27.030268    91.090804 
  225000         22.5    1164244.7    4.7696053   0.50975623    27.030268    27.030268    91.090804 
  226000         22.6    1130886.1    4.7598452   0.50975623    27.030268    27.030268    91.090804 
  227000         22.7    1096226.4    4.7582329   0.50975623    27.030268    27.030268    91.090804 
  228000         22.8    1060809.3    4.7539083   0.50975623    27.030268    27.030268    91.090804 
  229000         22.9    1024689.2    4.7503803   0.50975623    27.030268    27.030268    91.090804 
  230000           23    987504.19    4.7291009   0.50964444    27.030268    27.030268    91.090804 
  231000         23.1    950768.37    4.7342744   0.50964444    27.030268    27.030268    91.090804 
  232000         23.2    912894.38    4.7337328   0.50964444    27.030268    27.030268    91.090804 
  233000         23.3    874911.46    4.7184496   0.50964444    27.030268    27.030268    91.090804 
  234000         23.4    836479.64    4.7046877   0.50964444    27.030268    27.030268    91.090804 
  235000         23.5    798098.61    4.6946698   0.50964444    27.030268    27.030268    91.090804 
  236000         23.6    759514.83    4.6892704   0.50964444    27.030268    27.030268    91.090804 
  237000         23.7     720651.4    4.6819734   0.50964444    27.030268    27.030268    91.090804 
  238000         23.8    682311.14    4.6655366   0.50964444    27.030268    27.030268    91.090804 
  239000         23.9     643971.1    4.6551449   0.50964444    27.030268    27.030268    91.090804 
  240000           24    606144.63    4.6433253   0.50953265    27.030268    27.030268    91.090804 
  241000         24.1    569609.25    4.6339016   0.50953265    27.030268    27.030268    91.090804 
  242000         24.2    533189.27    4.6372703   0.50953265    27.030268    27.030268    91.090804 
  243000         24.3    497944.98    4.6340771   0.50953265    27.030268    27.030268    91.090804 
  244000         24.4    462965.85    4.6264907   0.50953265    27.030268    27.030268    91.090804 
  245000         24.5     428640.2    4.6178675   0.50953265    27.030268    27.030268    91.090804 
  246000         24.6    395519.43    4.6076492   0.50947676    27.030268    27.030268    91.090804 
  247000         24.7    363742.86    4.6018417   0.50947676    27.030268    27.030268    91.090804 
  248000         24.8    332813.03    4.6002563   0.50947676    27.030268    27.030268    91.090804 
  249000         24.9    303552.43    4.5992225   0.50947676    27.030268    27.030268    91.090804 
  250000           25    275361.37    4.5959276   0.50936497    27.030268    27.030268    91.090804 
  251000         25.1    249508.93    4.5908468   0.50936497    27.030268    27.030268    91.090804 
  252000         25.2    224343.33    4.5747638   0.50936497    27.030268    27.030268    91.090804 
  253000         25.3    200192.88    4.5647565   0.50936497    27.030268    27.030268    91.090804 
  254000         25.4    177705.36    4.5622934   0.50936497    27.030268    27.030268    91.090804 
  255000         25.5     156758.7    4.5610095   0.50936497    27.030268    27.030268    91.090804 
  256000         25.6    137213.67    4.5596882   0.50936497    27.030268    27.030268    91.090804 
  257000         25.7    119236.79    4.5569076   0.50936497    27.030268    27.030268    91.090804 
  258000         25.8    102843.29    4.5512126   0.50936497    27.030268    27.030268    91.090804 
  259000         25.9    88428.549    4.5440146   0.50936497    27.030268    27.030268    91.090804 
  260000           26    75279.547    4.5342546   0.50925318    27.030268    27.030268    91.090804 
  261000         26.1    64243.828    4.5291132   0.50925318    27.030268    27.030268    91.090804 
  262000         26.2     54739.56    4.5295175   0.50925318    27.030268    27.030268    91.090804 
  263000         26.3    46968.062    4.5303532   0.50925318    27.030268    27.030268    91.090804 
  264000         26.4    40860.132    4.5296618   0.50925318    27.030268    27.030268    91.090804 
  265000         26.5    36367.085    4.5279158   0.50925318    27.030268    27.030268    91.090804 
  266000         26.6    33302.752    4.5295846   0.50925318    27.030268    27.030268    91.090804 
  267000         26.7    31721.939    4.5330797   0.50925318    27.030268    27.030268    91.090804 
  268000         26.8    32264.168    4.5330252   0.50925318    27.030268    27.030268    91.090804 
  269000         26.9    34215.777    4.5291259   0.50925318    27.030268    27.030268    91.090804 
  270000           27    38051.501    4.5241498   0.50914139    27.030268    27.030268    91.090804 
  271000         27.1    44418.962    4.5214473   0.50914139    27.030268    27.030268    91.090804 
  272000         27.2    51745.986    4.5195831   0.50914139    27.030268    27.030268    91.090804 
  273000         27.3    60290.345      4.51903   0.50914139    27.030268    27.030268    91.090804 
  274000         27.4    70235.872    4.5212286   0.50914139    27.030268    27.030268    91.090804 
  275000         27.5    81414.942     4.525447   0.50914139    27.030268    27.030268    91.090804 
  276000         27.6    93945.691    4.5294919   0.50914139    27.030268    27.030268    91.090804 
  277000         27.7     108007.8    4.5314792   0.50914139    27.030268    27.030268    91.090804 
  278000         27.8    123243.56    4.5331096   0.50914139    27.030268    27.030268    91.090804 
  279000         27.9    140032.35    4.5356292   0.50914139    27.030268    27.030268    91.090804 
  280000           28    158074.17    4.5400642    0.5090296    27.030268    27.030268    91.090804 
  281000         28.1    177831.67    4.5455715    0.5090296    27.030268    27.030268    91.090804 
  282000         28.2    198449.38    4.5476648    0.5090296    27.030268    27.030268    91.090804 
  283000         28.3    219750.69    4.5478857    0.5090296    27.030268    27.030268    91.090804 
  284000         28.4     241850.9     4.549055    0.5090296    27.030268    27.030268    91.090804 
  285000         28.5    264663.46    4.5531155    0.5090296    27.030268    27.030268    91.090804 
  286000         28.6     288171.8    4.5579951    0.5090296    27.030268    27.030268    91.090804 
  287000         28.7    312439.53    4.5590594    0.5090296    27.030268    27.030268    91.090804 
  288000         28.8    337642.34    4.5588034    0.5090296    27.030268    27.030268    91.090804 
  289000         28.9    363162.18    4.5625422    0.5090296    27.030268    27.030268    91.090804 
  290000           29     388760.2    4.5722137   0.50891782    27.030268    27.030268    91.090804 
  291000         29.1    415810.15    4.5797491   0.50891782    27.030268    27.030268    91.090804 
  292000         29.2    442447.21    4.5950393   0.50891782    27.030268    27.030268    91.090804 
  293000         29.3     469009.1    4.6051423   0.50891782    27.030268    27.030268    91.090804 
  294000         29.4     495407.5    4.6095253   0.50891782    27.030268    27.030268    91.090804 
  295000         29.5    521703.47    4.6130256   0.50891782    27.030268    27.030268    91.090804 
  296000         29.6    548145.07    4.6195575   0.50891782    27.030268    27.030268    91.090804 
  297000         29.7    574398.35    4.6277707   0.50891782    27.030268    27.030268    91.090804 
  298000         29.8    599974.39    4.6358213   0.50891782    27.030268    27.030268    91.090804 
  299000         29.9    625269.42      4.64558   0.50891782    27.030268    27.030268    91.090804 
  300000           30    650077.94    4.6628581   0.50880603    27.030268    27.030268    91.090804 
  301000         30.1    677478.19    4.6647437   0.50880603    27.030268    27.030268    91.090804 
  302000         30.2    701902.74    4.6685017   0.50880603    27.030268    27.030268    91.090804 
  303000         30.3    724530.82    4.6792557   0.50880603    27.030268    27.030268    91.090804 
  304000         30.4    746218.42    4.6889247   0.50880603    27.030268    27.030268    91.090804 
  305000         30.5    767047.08    4.6948541   0.50880603    27.030268    27.030268    91.090804 
  306000         30.6    786560.39    4.7025878   0.50880603    27.030268    27.030268    91.090804 
  307000         30.7    804739.18    4.7114975   0.50880603    27.030268    27.030268    91.090804 
  308000         30.8    821682.69    4.7197783   0.50880603    27.030268    27.030268    91.090804 
  309000         30.9    837734.41    4.7302054   0.50880603    27.030268    27.030268    91.090804 
  310000           31    852216.73    4.7684979   0.50869424    27.030268    27.030268    91.090804 
  311000         31.1    868197.55    4.7658838   0.50869424    27.030268    27.030268    91.090804 
  312000         31.2     881560.3    4.7420816   0.50869424    27.030268    27.030268    91.090804 
  313000         31.3     892623.8    4.7406893   0.50869424    27.030268    27.030268    91.090804 
  314000         31.4    901912.07    4.7578875   0.50869424    27.030268    27.030268    91.090804 
  315000         31.5    909338.04     4.781334   0.50869424    27.030268    27.030268    91.090804 
  316000         31.6     915579.6    4.7990371   0.50869424    27.030268    27.030268    91.090804 
  317000         31.7    920466.07    4.8102709   0.50869424    27.030268    27.030268    91.090804 
  318000         31.8    923763.14    4.8193094   0.50869424    27.030268    27.030268    91.090804 
  319000         31.9    925320.68    4.8296187   0.50869424    27.030268    27.030268    91.090804 
  320000           32     924842.1    4.8437582   0.50858245    27.030268    27.030268    91.090804 
  321000         32.1    924737.35    4.8506388   0.50858245    27.030268    27.030268    91.090804 
  322000         32.2    922208.23    4.8563439   0.50858245    27.030268    27.030268    91.090804 
  323000         32.3    917753.99    4.8630602   0.50858245    27.030268    27.030268    91.090804 
  324000         32.4    911754.42    4.8655449   0.50858245    27.030268    27.030268    91.090804 
  325000         32.5    904336.53     4.871516   0.50858245    27.030268    27.030268    91.090804 
  326000         32.6    895032.02    4.8882512   0.50858245    27.030268    27.030268    91.090804 
  327000         32.7    884418.79    4.9034923   0.50858245    27.030268    27.030268    91.090804 
  328000         32.8    872419.27    4.9124403   0.50858245    27.030268    27.030268    91.090804 
  329000         32.9    858711.12    4.9164074   0.50858245    27.030268    27.030268    91.090804 
  330000           33    843387.82    4.9177129   0.50847066    27.030268    27.030268    91.090804 
  331000         33.1    828582.19    4.9204589   0.50847066    27.030268    27.030268    91.090804 
  332000         33.2    811624.24    4.9337523   0.50847066    27.030268    27.030268    91.090804 
  333000         33.3    792990.69    4.9425173   0.50847066    27.030268    27.030268    91.090804 
  334000         33.4    773230.25    4.9512957   0.50847066    27.030268    27.030268    91.090804 
  335000         33.5     752142.5    4.9597483   0.50847066    27.030268    27.030268    91.090804 
  336000         33.6     730116.6    4.9660776   0.50847066    27.030268    27.030268    91.090804 
  337000         33.7    707011.68    4.9765061   0.50847066    27.030268    27.030268    91.090804 
  338000         33.8    682496.25    4.9850954   0.50847066    27.030268    27.030268    91.090804 
  339000         33.9    657789.72    4.9805385   0.50847066    27.030268    27.030268    91.090804 
  340000           34    632717.16    5.0011295   0.50835887    27.030268    27.030268    91.090804 
  341000         34.1    612623.01    5.0059208   0.50835887    27.030268    27.030268    91.090804 
  342000         34.2     584982.4     4.999768   0.50835887    27.030268    27.030268    91.090804 
  343000         34.3    556789.39     4.994896   0.50835887    27.030268    27.030268    91.090804 
  344000         34.4    528897.84    5.0027248   0.50835887    27.030268    27.030268    91.090804 
  345000         34.5     500940.9    5.0185288   0.50835887    27.030268    27.030268    91.090804 
  346000         34.6    473261.28    5.0293107   0.50835887    27.030268    27.030268    91.090804 
  347000         34.7    445785.13    5.0355069   0.50835887    27.030268    27.030268    91.090804 
  348000         34.8    418936.91    5.0424071   0.50835887    27.030268    27.030268    91.090804 
  349000         34.9    392087.43    5.0499846   0.50835887    27.030268    27.030268    91.090804 
  350000           35    365559.74    5.0548862   0.50824708    27.030268    27.030268    91.090804 
  351000         35.1    339738.64    5.0548894   0.50824708    27.030268    27.030268    91.090804 
  352000         35.2    314534.96    5.0555896   0.50824708    27.030268    27.030268    91.090804 
  353000         35.3    289709.79    5.0592033   0.50824708    27.030268    27.030268    91.090804 
  354000         35.4    265242.54    5.0731036   0.50824708    27.030268    27.030268    91.090804 
  355000         35.5    241792.25    5.0815588   0.50824708    27.030268    27.030268    91.090804 
  356000         35.6    219268.76     5.081573   0.50824708    27.030268    27.030268    91.090804 
  357000         35.7    197651.93    5.0841587   0.50824708    27.030268    27.030268    91.090804 
  358000         35.8    177357.24    5.0899245   0.50824708    27.030268    27.030268    91.090804 
  359000         35.9    158368.31    5.0952341   0.50824708    27.030268    27.030268    91.090804 
  360000           36    140449.81    5.0926454   0.50813529    27.030268    27.030268    91.090804 
  361000         36.1    124365.14    5.1029334   0.50813529    27.030268    27.030268    91.090804 
  362000         36.2     109013.4    5.1049134   0.50813529    27.030268    27.030268    91.090804 
  363000         36.3    94859.153    5.1038876   0.50813529    27.030268    27.030268    91.090804 
  364000         36.4    81956.234    5.1082911   0.50813529    27.030268    27.030268    91.090804 
  365000         36.5    70408.848    5.1136113   0.50813529    27.030268    27.030268    91.090804 
  366000         36.6     60251.57    5.1150864   0.50813529    27.030268    27.030268    91.090804 
  367000         36.7    51523.776    5.1138808   0.50813529    27.030268    27.030268    91.090804 
  368000         36.8    43980.662    5.1150353   0.50813529    27.030268    27.030268    91.090804 
  369000         36.9    37150.962    5.1238282   0.50813529    27.030268    27.030268    91.090804 
  370000           37    32512.426     5.120799   0.50802351    27.030268    27.030268    91.090804 
  371000         37.1    30110.298    5.1176634   0.50802351    27.030268    27.030268    91.090804 
  372000         37.2    27921.718     5.119955   0.50802351    27.030268    27.030268    91.090804 
  373000         37.3     27055.23    5.1208022   0.50802351    27.030268    27.030268    91.090804 
  374000         37.4     27236.69    5.1198548   0.50802351    27.030268    27.030268    91.090804 
  375000         37.5    28543.837    5.1171551   0.50802351    27.030268    27.030268    91.090804 
  376000         37.6    31148.974     5.114546   0.50802351    27.030268    27.030268    91.090804 
  377000         37.7     34980.36    5.1148319   0.50802351    27.030268    27.030268    91.090804 
  378000         37.8    40079.509    5.1172554   0.50802351    27.030268    27.030268    91.090804 
  379000         37.9    46362.511    5.1190938   0.50802351    27.030268    27.030268    91.090804 
  380000           38    53487.548    5.1190876   0.50791172    27.030268    27.030268    91.090804 
  381000         38.1    62377.633    5.1061672   0.50791172    27.030268    27.030268    91.090804 
  382000         38.2    71378.142    5.1016565   0.50791172    27.030268    27.030268    91.090804 
  383000         38.3    80864.656    5.0958718   0.50791172    27.030268    27.030268    91.090804 
  384000         38.4    91034.082    5.0875285   0.50791172    27.030268    27.030268    91.090804 
  385000         38.5    101636.76    5.0817222   0.50791172    27.030268    27.030268    91.090804 
  386000         38.6    112868.25    5.0785051   0.50791172    27.030268    27.030268    91.090804 
  387000         38.7    124504.44    5.0737213   0.50791172    27.030268    27.030268    91.090804 
  388000         38.8    136621.32    5.0679178   0.50791172    27.030268    27.030268    91.090804 
  389000         38.9     148935.4    5.0631009   0.50791172    27.030268    27.030268    91.090804 
  390000           39    161373.65    5.0587959   0.50779993    27.030268    27.030268    91.090804 
  391000         39.1    175181.66    5.0565766   0.50779993    27.030268    27.030268    91.090804 
  392000         39.2    188375.77    5.0518131   0.50779993    27.030268    27.030268    91.090804 
  393000         39.3    201234.16    5.0398611   0.50779993    27.030268    27.030268    91.090804 
  394000         39.4    213974.61    5.0287998   0.50779993    27.030268    27.030268    91.090804 
  395000         39.5    226594.04     5.021694   0.50779993    27.030268    27.030268    91.090804 
  396000         39.6     239054.3    5.0158488   0.50779993    27.030268    27.030268    91.090804 
  397000         39.7    251184.49    5.0091226   0.50779993    27.030268    27.030268    91.090804 
  398000         39.8    262978.69    5.0021347   0.50779993    27.030268    27.030268    91.090804 
  399000         39.9       274131    4.9954168   0.50779993    27.030268    27.030268    91.090804 
  400000           40       284858    4.9887182   0.50768814    27.030268    27.030268    91.090804 
  401000         40.1    295599.21    4.9880789   0.50768814    27.030268    27.030268    91.090804 
  402000         40.2    305515.67    4.9793108   0.50768814    27.030268    27.030268    91.090804 
  403000         40.3    315084.85    4.9665797   0.50768814    27.030268    27.030268    91.090804 
  404000         40.4     323540.9    4.9588358   0.50768814    27.030268    27.030268    91.090804 
  405000         40.5    331359.24    4.9524213   0.50768814    27.030268    27.030268    91.090804 
  406000         40.6    338406.25    4.9424366   0.50768814    27.030268    27.030268    91.090804 
  407000         40.7    344529.56    4.9321536   0.50768814    27.030268    27.030268    91.090804 
  408000         40.8    349751.94    4.9234871   0.50768814    27.030268    27.030268    91.090804 
  409000         40.9    354136.63    4.9134882   0.50768814    27.030268    27.030268    91.090804 
  410000           41    357733.06    4.9011102   0.50757635    27.030268    27.030268    91.090804 
  411000         41.1    360985.59    4.8920228   0.50757635    27.030268    27.030268    91.090804 
  412000         41.2    363305.74    4.8882677   0.50757635    27.030268    27.030268    91.090804 
  413000         41.3    364799.38    4.8861001   0.50757635    27.030268    27.030268    91.090804 
  414000         41.4    365386.83    4.8822627   0.50757635    27.030268    27.030268    91.090804 
  415000         41.5    365406.36    4.8781941   0.50757635    27.030268    27.030268    91.090804 
  416000         41.6    364764.48    4.8732512   0.50757635    27.030268    27.030268    91.090804 
  417000         41.7    363298.26    4.8655737   0.50757635    27.030268    27.030268    91.090804 
  418000         41.8    361075.34    4.8565012   0.50757635    27.030268    27.030268    91.090804 
  419000         41.9    358141.86    4.8488267   0.50757635    27.030268    27.030268    91.090804 
  420000           42    354559.87    4.8410214   0.50746456    27.030268    27.030268    91.090804 
  421000         42.1     352145.5    4.8316118   0.50746456    27.030268    27.030268    91.090804 
  422000         42.2    347574.46    4.8276139   0.50746456    27.030268    27.030268    91.090804 
  423000         42.3    341700.23    4.8234362   0.50746456    27.030268    27.030268    91.090804 
  424000         42.4    335219.27    4.8167605   0.50746456    27.030268    27.030268    91.090804 
  425000         42.5    327945.69    4.8120969   0.50746456    27.030268    27.030268    91.090804 
  426000         42.6    320353.58    4.8084222   0.50746456    27.030268    27.030268    91.090804 
  427000         42.7    312412.57    4.8022533   0.50746456    27.030268    27.030268    91.090804 
  428000         42.8    304004.83    4.7954438   0.50746456    27.030268    27.030268    91.090804 
  429000         42.9    295266.84    4.7912449   0.50746456    27.030268    27.030268    91.090804 
  430000           43     286104.6     4.786431   0.50735277    27.030268    27.030268    91.090804 
  431000         43.1    276852.63    4.7788859   0.50735277    27.030268    27.030268    91.090804 
  432000         43.2    267212.79    4.7716004   0.50735277    27.030268    27.030268    91.090804 
  433000         43.3    257231.57    4.7667972   0.50735277    27.030268    27.030268    91.090804 
  434000         43.4    247119.55    4.7632491   0.50735277    27.030268    27.030268    91.090804 
  435000         43.5    236807.99    4.7572423   0.50735277    27.030268    27.030268    91.090804 
  436000         43.6    226423.51    4.7492528   0.50735277    27.030268    27.030268    91.090804 
  437000         43.7       216008    4.7418879   0.50735277    27.030268    27.030268    91.090804 
  438000         43.8    205608.77    4.7366074   0.50735277    27.030268    27.030268    91.090804 
  439000         43.9    195127.33    4.7340667   0.50735277    27.030268    27.030268    91.090804 
  440000           44    184576.36    4.7298783   0.50724099    27.030268    27.030268    91.090804 
  441000         44.1     175777.5    4.7289391   0.50724099    27.030268    27.030268    91.090804 
  442000         44.2    165933.33    4.7231487   0.50724099    27.030268    27.030268    91.090804 
  443000         44.3    155802.56    4.7193891   0.50724099    27.030268    27.030268    91.090804 
  444000         44.4     145683.1    4.7169438   0.50724099    27.030268    27.030268    91.090804 
  445000         44.5    135721.56    4.7123644   0.50724099    27.030268    27.030268    91.090804 
  446000         44.6    126017.57    4.7062834   0.50724099    27.030268    27.030268    91.090804 
  447000         44.7    116541.63     4.697128   0.50724099    27.030268    27.030268    91.090804 
  448000         44.8    107414.41    4.6871673   0.50724099    27.030268    27.030268    91.090804 
  449000         44.9    98720.161     4.682645   0.50724099    27.030268    27.030268    91.090804 
  450000           45    90232.206    4.6814867    0.5071292    27.030268    27.030268    91.090804 
  451000         45.1    83001.329    4.6778727    0.5071292    27.030268    27.030268    91.090804 
  452000         45.2    75036.853    4.6749181    0.5071292    27.030268    27.030268    91.090804 
  453000         45.3    67578.693    4.6752869    0.5071292    27.030268    27.030268    91.090804 
  454000         45.4    59642.289    4.6881357    0.5071292    27.030268    27.030268    91.090804 
  455000         45.5    52669.363    4.6788901    0.5071292    27.030268    27.030268    91.090804 
  456000         45.6    47100.956    4.6655275    0.5071292    27.030268    27.030268    91.090804 
  457000         45.7    42039.302    4.6631543    0.5071292    27.030268    27.030268    91.090804 
  458000         45.8    37458.786    4.6634563    0.5071292    27.030268    27.030268    91.090804 
  459000         45.9     33263.53     4.661625    0.5071292    27.030268    27.030268    91.090804 
  460000           46    29519.149    4.6564781   0.50701741    27.030268    27.030268    91.090804 
  461000         46.1    27709.447     4.656292   0.50701741    27.030268    27.030268    91.090804 
  462000         46.2     25214.14    4.6533026   0.50701741    27.030268    27.030268    91.090804 
  463000         46.3    22989.804    4.6515576   0.50701741    27.030268    27.030268    91.090804 
  464000         46.4     21332.53    4.6512751   0.50701741    27.030268    27.030268    91.090804 
  465000         46.5    20274.038    4.6521234   0.50701741    27.030268    27.030268    91.090804 
  466000         46.6    19561.257    4.6548684   0.50701741    27.030268    27.030268    91.090804 
  467000         46.7    19538.266    4.6521531   0.50701741    27.030268    27.030268    91.090804 
  468000         46.8    20549.076    4.6439731   0.50701741    27.030268    27.030268    91.090804 
  469000         46.9    21759.581    4.6432276   0.50701741    27.030268    27.030268    91.090804 
  470000           47    23087.051    4.6454103   0.50690562    27.030268    27.030268    91.090804 
  471000         47.1     27621.23    4.6488865   0.50690562    27.030268    27.030268    91.090804 
  472000         47.2    30511.828    4.6585615   0.50690562    27.030268    27.030268    91.090804 
  473000         47.3    33439.643    4.6609798   0.50690562    27.030268    27.030268    91.090804 
  474000         47.4    37433.079    4.6568435   0.50690562    27.030268    27.030268    91.090804 
  475000         47.5    41712.557    4.6538118   0.50690562    27.030268    27.030268    91.090804 
  476000         47.6    46523.802    4.6558111   0.50690562    27.030268    27.030268    91.090804 
  477000         47.7    51494.182     4.656072   0.50690562    27.030268    27.030268    91.090804 
  478000         47.8    57113.234    4.6514599   0.50690562    27.030268    27.030268    91.090804 
  479000         47.9     63140.33     4.651798   0.50690562    27.030268    27.030268    91.090804 
  480000           48    69852.768    4.6555631   0.50679383    27.030268    27.030268    91.090804 
  481000         48.1    78859.986    4.6596495   0.50679383    27.030268    27.030268    91.090804 
  482000         48.2    86691.402    4.6608817   0.50679383    27.030268    27.030268    91.090804 
  483000         48.3    94191.493    4.6588025   0.50679383    27.030268    27.030268    91.090804 
  484000         48.4    101557.41    4.6573132   0.50679383    27.030268    27.030268    91.090804 
  485000         48.5    109533.91    4.6590952   0.50679383    27.030268    27.030268    91.090804 
  486000         48.6    117719.37     4.662218   0.50679383    27.030268    27.030268    91.090804 
  487000         48.7       126079    4.6659763   0.50679383    27.030268    27.030268    91.090804 
  488000         48.8    134774.15    4.6720792   0.50679383    27.030268    27.030268    91.090804 
  489000         48.9    143448.14    4.6814757   0.50679383    27.030268    27.030268    91.090804 
  490000           49    152295.68    4.6797462   0.50668204    27.030268    27.030268    91.090804 
  491000         49.1    163223.89    4.6694626   0.50668204    27.030268    27.030268    91.090804 
  492000         49.2    172733.39    4.6748463   0.50668204    27.030268    27.030268    91.090804 
  493000         49.3    181734.29    4.6820138   0.50668204    27.030268    27.030268    91.090804 
  494000         49.4    190648.75    4.6873212   0.50668204    27.030268    27.030268    91.090804 
  495000         49.5    199378.38    4.6926404   0.50668204    27.030268    27.030268    91.090804 
  496000         49.6    208089.11    4.6989438   0.50668204    27.030268    27.030268    91.090804 
  497000         49.7    216735.05    4.7045997   0.50668204    27.030268    27.030268    91.090804 
  498000         49.8    225366.44    4.7068723   0.50668204    27.030268    27.030268    91.090804 
  499000         49.9    233836.62    4.7083995   0.50668204    27.030268    27.030268    91.090804 
  500000           50    242090.55    4.7083507   0.50657025    27.030268    27.030268    91.090804 
  501000         50.1     251327.5    4.7071059   0.50657025    27.030268    27.030268    91.090804 
  502000         50.2     258902.5    4.7111223   0.50657025    27.030268    27.030268    91.090804 
  503000         50.3    266219.88    4.7170141   0.50657025    27.030268    27.030268    91.090804 
  504000         50.4    273246.97    4.7239652   0.50657025    27.030268    27.030268    91.090804 
  505000         50.5    279946.73    4.7305185   0.50657025    27.030268    27.030268    91.090804 
  506000         50.6    286267.09    4.7366688   0.50657025    27.030268    27.030268    91.090804 
  507000         50.7    292167.47    4.7426951   0.50657025    27.030268    27.030268    91.090804 
  508000         50.8    297657.18    4.7487076   0.50657025    27.030268    27.030268    91.090804 
  509000         50.9    302742.88    4.7538777   0.50657025    27.030268    27.030268    91.090804 
  510000           51    307346.29    4.7610245   0.50645847    27.030268    27.030268    91.090804 
  511000         51.1    312266.62    4.7586617   0.50645847    27.030268    27.030268    91.090804 
  512000         51.2    315814.67     4.764382   0.50645847    27.030268    27.030268    91.090804 
  513000         51.3    318699.97    4.7708173   0.50645847    27.030268    27.030268    91.090804 
  514000         51.4    321165.46    4.7757549   0.50645847    27.030268    27.030268    91.090804 
  515000         51.5    323170.98    4.7809984   0.50645847    27.030268    27.030268    91.090804 
  516000         51.6    324650.76    4.7884839   0.50645847    27.030268    27.030268    91.090804 
  517000         51.7    325492.11    4.8005743   0.50645847    27.030268    27.030268    91.090804 
  518000         51.8    325667.77    4.8123459   0.50645847    27.030268    27.030268    91.090804 
  519000         51.9     325242.6    4.8145301   0.50645847    27.030268    27.030268    91.090804 
  520000           52    324347.91    4.8030352   0.50634668    27.030268    27.030268    91.090804 
  521000         52.1    323502.65    4.8037135   0.50634668    27.030268    27.030268    91.090804 
  522000         52.2    321968.23      4.81867   0.50634668    27.030268    27.030268    91.090804 
  523000         52.3     319822.3    4.8306306   0.50634668    27.030268    27.030268    91.090804 
  524000         52.4       317044     4.835956   0.50634668    27.030268    27.030268    91.090804 
  525000         52.5     313611.6     4.835521   0.50634668    27.030268    27.030268    91.090804 
  526000         52.6    309648.82    4.8338074   0.50634668    27.030268    27.030268    91.090804 
  527000         52.7    305134.47    4.8373674   0.50634668    27.030268    27.030268    91.090804 
  528000         52.8    300172.53    4.8458331   0.50634668    27.030268    27.030268    91.090804 
  529000         52.9    294809.38    4.8520453   0.50634668    27.030268    27.030268    91.090804 
  530000           53    289072.24    4.8559343   0.50623489    27.030268    27.030268    91.090804 
  531000         53.1    285515.38    4.8576094   0.50623489    27.030268    27.030268    91.090804 
  532000         53.2    278658.47    4.8622606   0.50623489    27.030268    27.030268    91.090804 
  533000         53.3    271294.61    4.8691237   0.50623489    27.030268    27.030268    91.090804 
  534000         53.4    263737.42     4.873436   0.50623489    27.030268    27.030268    91.090804 
  535000         53.5    256062.16     4.877761   0.50623489    27.030268    27.030268    91.090804 
  536000         53.6     248176.1     4.884008   0.50623489    27.030268    27.030268    91.090804 
  537000         53.7     240051.2    4.8895444   0.50623489    27.030268    27.030268    91.090804 
  538000         53.8    231857.36    4.8930989   0.50623489    27.030268    27.030268    91.090804 
  539000         53.9    223436.57    4.8969096   0.50623489    27.030268    27.030268    91.090804 
  540000           54    214685.94    4.9011445    0.5061231    27.030268    27.030268    91.090804 
  541000         54.1    206831.26    4.9089289    0.5061231    27.030268    27.030268    91.090804 
  542000         54.2    198088.02    4.9074434    0.5061231    27.030268    27.030268    91.090804 
  543000         54.3    188987.93    4.9078159    0.5061231    27.030268    27.030268    91.090804 
  544000         54.4    180051.84    4.9127112    0.5061231    27.030268    27.030268    91.090804 
  545000         54.5    171077.98    4.9204827    0.5061231    27.030268    27.030268    91.090804 
  546000         54.6    162088.74    4.9245335    0.5061231    27.030268    27.030268    91.090804 
  547000         54.7    153221.57    4.9239891    0.5061231    27.030268    27.030268    91.090804 
  548000         54.8    144507.85    4.9239762    0.5061231    27.030268    27.030268    91.090804 
  549000         54.9    135908.25    4.9267704    0.5061231    27.030268    27.030268    91.090804 
  550000           55    127371.25    4.9289141   0.50601131    27.030268    27.030268    91.090804 
  551000         55.1    121329.38    4.9399769   0.50601131    27.030268    27.030268    91.090804 
  552000         55.2    112886.68    4.9416864   0.50601131    27.030268    27.030268    91.090804 
  553000         55.3    104539.35    4.9426559   0.50601131    27.030268    27.030268    91.090804 
  554000         55.4    96781.942    4.9458858   0.50601131    27.030268    27.030268    91.090804 
  555000         55.5    89464.698    4.9506757   0.50601131    27.030268    27.030268    91.090804 
  556000         55.6    82300.564     4.955166   0.50601131    27.030268    27.030268    91.090804 
  557000         55.7     75678.29    4.9570688   0.50601131    27.030268    27.030268    91.090804 
  558000         55.8    69377.225    4.9559678   0.50601131    27.030268    27.030268    91.090804 
  559000         55.9    63465.445    4.9533808   0.50601131    27.030268    27.030268    91.090804 
  560000           56    57933.722    4.9572062   0.50589952    27.030268    27.030268    91.090804 
  561000         56.1    53767.753    4.9520924   0.50589952    27.030268    27.030268    91.090804 
  562000         56.2    49291.417    4.9471112   0.50589952    27.030268    27.030268    91.090804 
  563000         56.3    44882.317    4.9494562   0.50589952    27.030268    27.030268    91.090804 
  564000         56.4    40648.205    4.9537472   0.50589952    27.030268    27.030268    91.090804 
  565000         56.5    36420.803    4.9570356   0.50589952    27.030268    27.030268    91.090804 
  566000         56.6    32574.068    4.9579401   0.50589952    27.030268    27.030268    91.090804 
  567000         56.7    29203.225     4.956878   0.50589952    27.030268    27.030268    91.090804 
  568000         56.8    26464.065     4.956125   0.50589952    27.030268    27.030268    91.090804 
  569000         56.9    24239.774    4.9578573   0.50589952    27.030268    27.030268    91.090804 
  570000           57    22290.171    4.9608153   0.50578773    27.030268    27.030268    91.090804 
  571000         57.1    23169.835    4.9567817   0.50578773    27.030268    27.030268    91.090804 
  572000         57.2    21929.173    4.9517942   0.50578773    27.030268    27.030268    91.090804 
  573000         57.3    20175.258    4.9538957   0.50578773    27.030268    27.030268    91.090804 
  574000         57.4    19192.756    4.9579963   0.50578773    27.030268    27.030268    91.090804 
  575000         57.5    19237.832    4.9590629   0.50578773    27.030268    27.030268    91.090804 
  576000         57.6    19364.441     4.957852   0.50578773    27.030268    27.030268    91.090804 
  577000         57.7    19807.001    4.9554417   0.50578773    27.030268    27.030268    91.090804 
  578000         57.8    20421.883    4.9536417   0.50578773    27.030268    27.030268    91.090804 
  579000         57.9    21397.823    4.9532475   0.50578773    27.030268    27.030268    91.090804 
  580000           58    22493.015    4.9509134   0.50567594    27.030268    27.030268    91.090804 
  581000         58.1    24430.322    4.9498021   0.50567594    27.030268    27.030268    91.090804 
  582000         58.2    26302.127     4.948613   0.50567594    27.030268    27.030268    91.090804 
  583000         58.3    28232.455    4.9477769   0.50567594    27.030268    27.030268    91.090804 
  584000         58.4    30376.624    4.9459502   0.50567594    27.030268    27.030268    91.090804 
  585000         58.5    32680.741    4.9419498   0.50567594    27.030268    27.030268    91.090804 
  586000         58.6    35152.199    4.9381733   0.50567594    27.030268    27.030268    91.090804 
  587000         58.7    37659.836    4.9357429   0.50567594    27.030268    27.030268    91.090804 
  588000         58.8    40236.197     4.934066   0.50567594    27.030268    27.030268    91.090804 
  589000         58.9    43015.644    4.9322399   0.50567594    27.030268    27.030268    91.090804 
  590000           59    45857.077    4.9297667   0.50556416    27.030268    27.030268    91.090804 
  591000         59.1    49931.868     4.927011   0.50556416    27.030268    27.030268    91.090804 
  592000         59.2    53070.858    4.9255003   0.50556416    27.030268    27.030268    91.090804 
  593000         59.3    56113.417    4.9218678   0.50556416    27.030268    27.030268    91.090804 
  594000         59.4    59148.894     4.917304   0.50556416    27.030268    27.030268    91.090804 
  595000         59.5    62010.762    4.9137305   0.50556416    27.030268    27.030268    91.090804 
  596000         59.6    64686.388    4.9109204   0.50556416    27.030268    27.030268    91.090804 
  597000         59.7    67235.946     4.907709   0.50556416    27.030268    27.030268    91.090804 
  598000         59.8    69672.601    4.9036508   0.50556416    27.030268    27.030268    91.090804 
  599000         59.9    72121.978    4.8996301   0.50556416    27.030268    27.030268    91.090804 
  600000           60    74428.099    4.8954078   0.50545237    27.030268    27.030268    91.090804 
  601000         60.1      76682.1    4.8920809   0.50545237    27.030268    27.030268    91.090804 
  602000         60.2    78919.351    4.8879776   0.50545237    27.030268    27.030268    91.090804 
  603000         60.3    80954.125    4.8847543   0.50545237    27.030268    27.030268    91.090804 
  604000         60.4    82991.182    4.8823731   0.50545237    27.030268    27.030268    91.090804 
  605000         60.5    84894.766    4.8790998   0.50545237    27.030268    27.030268    91.090804 
  606000         60.6    86519.627    4.8755635   0.50545237    27.030268    27.030268    91.090804 
  607000         60.7    87885.067    4.8727374   0.50545237    27.030268    27.030268    91.090804 
  608000         60.8    89104.979    4.8699882   0.50545237    27.030268    27.030268    91.090804 
  609000         60.9     90029.32    4.8668859   0.50545237    27.030268    27.030268    91.090804 
  610000           61    90719.872    4.8808633   0.50534058    27.030268    27.030268    91.090804 
  611000         61.1    96937.121    4.8535406   0.50534058    27.030268    27.030268    91.090804 
  612000         61.2    97954.309     4.840364   0.50534058    27.030268    27.030268    91.090804 
  613000         61.3    97276.876    4.8419362   0.50534058    27.030268    27.030268    91.090804 
  614000         61.4    96368.955    4.8472878   0.50534058    27.030268    27.030268    91.090804 
  615000         61.5    95660.119    4.8458564   0.50534058    27.030268    27.030268    91.090804 
  616000         61.6     94535.65    4.8391208   0.50534058    27.030268    27.030268    91.090804 
  617000         61.7    92733.765    4.8332531   0.50534058    27.030268    27.030268    91.090804 
  618000         61.8    91206.631    4.8295977   0.50534058    27.030268    27.030268    91.090804 
  619000         61.9    89719.778    4.8254559   0.50534058    27.030268    27.030268    91.090804 
  620000           62    88290.054    4.8215447   0.50522879    27.030268    27.030268    91.090804 
  621000         62.1    86885.015    4.8177704   0.50522879    27.030268    27.030268    91.090804 
  622000         62.2    85071.103    4.8138027   0.50522879    27.030268    27.030268    91.090804 
  623000         62.3    83087.899    4.8103127   0.50522879    27.030268    27.030268    91.090804 
  624000         62.4    81019.707    4.8069579   0.50522879    27.030268    27.030268    91.090804 
  625000         62.5    78857.039    4.8037096   0.50522879    27.030268    27.030268    91.090804 
  626000         62.6    76621.752     4.801041   0.50522879    27.030268    27.030268    91.090804 
  627000         62.7     74186.46    4.7990391   0.50522879    27.030268    27.030268    91.090804 
  628000         62.8    71609.518    4.7971682   0.50522879    27.030268    27.030268    91.090804 
  629000         62.9    69078.815     4.795229   0.50522879    27.030268    27.030268    91.090804 
  630000           63    66529.367    4.7928287     0.505117    27.030268    27.030268    91.090804 
  631000         63.1    63984.946    4.7897116     0.505117    27.030268    27.030268    91.090804 
  632000         63.2     61184.42    4.7846231     0.505117    27.030268    27.030268    91.090804 
  633000         63.3    58417.303    4.7780746     0.505117    27.030268    27.030268    91.090804 
  634000         63.4    55700.541    4.7730621     0.505117    27.030268    27.030268    91.090804 
  635000         63.5    52933.431     4.770337     0.505117    27.030268    27.030268    91.090804 
  636000         63.6    50166.625     4.768287     0.505117    27.030268    27.030268    91.090804 
  637000         63.7    47443.621    4.7663164     0.505117    27.030268    27.030268    91.090804 
  638000         63.8    44792.641     4.765068     0.505117    27.030268    27.030268    91.090804 
  639000         63.9    42227.207    4.7644718     0.505117    27.030268    27.030268    91.090804 
  640000           64    39701.824    4.7620914   0.50500521    27.030268    27.030268    91.090804 
  641000         64.1    39454.638    4.7598337   0.50500521    27.030268    27.030268    91.090804 
  642000         64.2    37216.408    4.7553297   0.50500521    27.030268    27.030268    91.090804 
  643000         64.3    34316.249    4.7504946   0.50500521    27.030268    27.030268    91.090804 
  644000         64.4    31626.084    4.7473212   0.50500521    27.030268    27.030268    91.090804 
  645000         64.5    29197.207    4.7443684   0.50500521    27.030268    27.030268    91.090804 
  646000         64.6    26954.626    4.7407128   0.50500521    27.030268    27.030268    91.090804 
  647000         64.7     24882.66    4.7387772   0.50500521    27.030268    27.030268    91.090804 
  648000         64.8     23011.54    4.7388978   0.50500521    27.030268    27.030268    91.090804 
  649000         64.9    21310.321    4.7391093   0.50500521    27.030268    27.030268    91.090804 
  650000           65    19654.783    4.7261261   0.50489342    27.030268    27.030268    91.090804 
  651000         65.1    20507.576    4.7296823   0.50489342    27.030268    27.030268    91.090804 
  652000         65.2    18860.081    4.7336909   0.50489342    27.030268    27.030268    91.090804 
  653000         65.3    17235.995    4.7400218   0.50489342    27.030268    27.030268    91.090804 
  654000         65.4    15781.269    4.7405964   0.50489342    27.030268    27.030268    91.090804 
  655000         65.5    14475.613    4.7348452   0.50489342    27.030268    27.030268    91.090804 
  656000         65.6     13441.94    4.7296256   0.50489342    27.030268    27.030268    91.090804 
  657000         65.7    12675.177    4.7278586   0.50489342    27.030268    27.030268    91.090804 
  658000         65.8    12204.561    4.7272859   0.50489342    27.030268    27.030268    91.090804 
  659000         65.9    11981.953    4.7260352   0.50489342    27.030268    27.030268    91.090804 
  660000           66    12012.377    4.7249912   0.50478164    27.030268    27.030268    91.090804 
  661000         66.1    14343.148    4.7235262   0.50478164    27.030268    27.030268    91.090804 
  662000         66.2    15301.491    4.7208519   0.50478164    27.030268    27.030268    91.090804 
  663000         66.3    15947.607    4.7200951   0.50478164    27.030268    27.030268    91.090804 
  664000         66.4     16674.73    4.7220197   0.50478164    27.030268    27.030268    91.090804 
  665000         66.5    17596.276    4.7233154   0.50478164    27.030268    27.030268    91.090804 
  666000         66.6    18662.739    4.7224731   0.50478164    27.030268    27.030268    91.090804 
  667000         66.7    19793.781    4.7204559   0.50478164    27.030268    27.030268    91.090804 
  668000         66.8     21141.62    4.7193779   0.50478164    27.030268    27.030268    91.090804 
  669000         66.9    22696.244    4.7183397   0.50478164    27.030268    27.030268    91.090804 
  670000           67    24470.403    4.7163855   0.50466985    27.030268    27.030268    91.090804 
  671000         67.1    26926.013    4.7134979   0.50466985    27.030268    27.030268    91.090804 
  672000         67.2     29227.86     4.716985   0.50466985    27.030268    27.030268    91.090804 
  673000         67.3    31495.768    4.7198518   0.50466985    27.030268    27.030268    91.090804 
  674000         67.4    33791.303    4.7208786   0.50466985    27.030268    27.030268    91.090804 
  675000         67.5    36319.762    4.7228662   0.50466985    27.030268    27.030268    91.090804 
  676000         67.6     38990.13     4.725748   0.50466985    27.030268    27.030268    91.090804 
  677000         67.7    41781.552    4.7281095   0.50466985    27.030268    27.030268    91.090804 
  678000         67.8    44666.654     4.729575   0.50466985    27.030268    27.030268    91.090804 
  679000         67.9    47602.123    4.7299346   0.50466985    27.030268    27.030268    91.090804 
  680000           68    50576.373    4.7342931   0.50455806    27.030268    27.030268    91.090804 
  681000         68.1    54478.035    4.7298406   0.50455806    27.030268    27.030268    91.090804 
  682000         68.2    57860.044    4.7240506   0.50455806    27.030268    27.030268    91.090804 
  683000         68.3    60975.818    4.7273503   0.50455806    27.030268    27.030268    91.090804 
  684000         68.4    63981.621     4.733814   0.50455806    27.030268    27.030268    91.090804 
  685000         68.5    66799.872    4.7374609   0.50455806    27.030268    27.030268    91.090804 
  686000         68.6    69735.353    4.7390622   0.50455806    27.030268    27.030268    91.090804 
  687000         68.7    72815.843    4.7404597   0.50455806    27.030268    27.030268    91.090804 
  688000         68.8    75724.068    4.7417355   0.50455806    27.030268    27.030268    91.090804 
  689000         68.9    78715.181    4.7426714   0.50455806    27.030268    27.030268    91.090804 
  690000           69    81761.839    4.7427877   0.50444627    27.030268    27.030268    91.090804 
  691000         69.1    85072.835    4.7455674   0.50444627    27.030268    27.030268    91.090804 
  692000         69.2    88200.921     4.749561   0.50444627    27.030268    27.030268    91.090804 
  693000         69.3     91136.24     4.752682   0.50444627    27.030268    27.030268    91.090804 
  694000         69.4    93927.458    4.7552252   0.50444627    27.030268    27.030268    91.090804 
  695000         69.5    96633.572     4.757174   0.50444627    27.030268    27.030268    91.090804 
  696000         69.6    99276.803     4.759032   0.50444627    27.030268    27.030268    91.090804 
  697000         69.7    101829.07    4.7615819   0.50444627    27.030268    27.030268    91.090804 
  698000         69.8    104249.83     4.764586   0.50444627    27.030268    27.030268    91.090804 
  699000         69.9    106547.26    4.7675664   0.50444627    27.030268    27.030268    91.090804 
  700000           70    108693.84    4.7704167   0.50433448    27.030268    27.030268    91.090804 
  701000         70.1    110745.47    4.7735039   0.50433448    27.030268    27.030268    91.090804 
  702000         70.2     112625.2    4.7773323   0.50433448    27.030268    27.030268    91.090804 
  703000         70.3    114231.19     4.780768   0.50433448    27.030268    27.030268    91.090804 
  704000         70.4    115513.44    4.7842861   0.50433448    27.030268    27.030268    91.090804 
  705000         70.5    116803.62    4.7881877   0.50433448    27.030268    27.030268    91.090804 
  706000         70.6    118010.42    4.7909555   0.50433448    27.030268    27.030268    91.090804 
  707000         70.7    119128.62    4.7923786   0.50433448    27.030268    27.030268    91.090804 
  708000         70.8    120068.95    4.7939558   0.50433448    27.030268    27.030268    91.090804 
  709000         70.9    120816.73     4.796799   0.50433448    27.030268    27.030268    91.090804 
  710000           71     121312.9    4.7996135   0.50422269    27.030268    27.030268    91.090804 
  711000         71.1    124051.96    4.8059568   0.50422269    27.030268    27.030268    91.090804 
  712000         71.2    124493.46    4.8034814   0.50422269    27.030268    27.030268    91.090804 
  713000         71.3    124126.13    4.8055931   0.50422269    27.030268    27.030268    91.090804 
  714000         71.4    123536.44    4.8103378   0.50422269    27.030268    27.030268    91.090804 
  715000         71.5    122931.66     4.814058   0.50422269    27.030268    27.030268    91.090804 
  716000         71.6    122231.41    4.8160737   0.50422269    27.030268    27.030268    91.090804 
  717000         71.7     121430.2    4.8164691   0.50422269    27.030268    27.030268    91.090804 
  718000         71.8    120525.27    4.8166496   0.50422269    27.030268    27.030268    91.090804 
  719000         71.9    119494.09    4.8186449   0.50422269    27.030268    27.030268    91.090804 
  720000           72    118297.06    4.8215034    0.5041109    27.030268    27.030268    91.090804 
  721000         72.1    119152.84    4.8245877    0.5041109    27.030268    27.030268    91.090804 
  722000         72.2    117273.19    4.8265359    0.5041109    27.030268    27.030268    91.090804 
  723000         72.3     115216.7    4.8341459    0.5041109    27.030268    27.030268    91.090804 
  724000         72.4    113007.23    4.8381473    0.5041109    27.030268    27.030268    91.090804 
[...]
35944000       3594.4    1964.7322    3.1389891   0.15929882    27.030268    27.030268    91.090804 
35945000       3594.5    1896.5867    3.1408707   0.15929882    27.030268    27.030268    91.090804 
35946000       3594.6    1934.7316    3.1389511   0.15929882    27.030268    27.030268    91.090804 
35947000       3594.7    1968.1627     3.137154   0.15929882    27.030268    27.030268    91.090804 
35948000       3594.8    2004.9564    3.1368088   0.15929882    27.030268    27.030268    91.090804 
35949000       3594.9    2019.2666    3.1368546   0.15929882    27.030268    27.030268    91.090804 
35950000         3595    2056.6543    3.1366609   0.15929882    27.030268    27.030268    91.090804 
35951000       3595.1    2075.0924    3.1363553   0.15929882    27.030268    27.030268    91.090804 
35952000       3595.2    2099.3062    3.1358773   0.15929882    27.030268    27.030268    91.090804 
35953000       3595.3    2122.3055    3.1351988   0.15929882    27.030268    27.030268    91.090804 
35954000       3595.4    2163.6729    3.1347181   0.15929882    27.030268    27.030268    91.090804 
35955000       3595.5    2205.1343    3.1347311   0.15929882    27.030268    27.030268    91.090804 
35956000       3595.6    2249.6488    3.1351245   0.15929882    27.030268    27.030268    91.090804 
35957000       3595.7    2295.5962    3.1355596   0.15929882    27.030268    27.030268    91.090804 
35958000       3595.8    2339.7131    3.1357307   0.15929882    27.030268    27.030268    91.090804 
35959000       3595.9     2388.538    3.1356978   0.15929882    27.030268    27.030268    91.090804 
35960000         3596    2433.0047    3.1359401   0.15929882    27.030268    27.030268    91.090804 
35961000       3596.1     2478.298    3.1367286   0.15929882    27.030268    27.030268    91.090804 
35962000       3596.2     2524.511    3.1376677   0.15929882    27.030268    27.030268    91.090804 
35963000       3596.3    2582.1788     3.138261   0.15929882    27.030268    27.030268    91.090804 
35964000       3596.4    2633.6148    3.1385651   0.15929882    27.030268    27.030268    91.090804 
35965000       3596.5    2681.6131    3.1387593   0.15929882    27.030268    27.030268    91.090804 
35966000       3596.6    2727.9341    3.1387137   0.15929882    27.030268    27.030268    91.090804 
35967000       3596.7    2749.8834    3.1382649   0.15929882    27.030268    27.030268    91.090804 
35968000       3596.8     2770.923    3.1375997   0.15929882    27.030268    27.030268    91.090804 
35969000       3596.9     2800.007    3.1370158   0.15929882    27.030268    27.030268    91.090804 
35970000         3597    2839.9934    3.1365828   0.15929882    27.030268    27.030268    91.090804 
35971000       3597.1    2887.5091    3.1364169   0.15929882    27.030268    27.030268    91.090804 
35972000       3597.2    2940.7668    3.1366337   0.15929882    27.030268    27.030268    91.090804 
35973000       3597.3    3001.4087    3.1371217   0.15929882    27.030268    27.030268    91.090804 
35974000       3597.4    3057.0875    3.1378044   0.15929882    27.030268    27.030268    91.090804 
35975000       3597.5    3082.3324    3.1385068   0.15929882    27.030268    27.030268    91.090804 
35976000       3597.6    3111.3436    3.1386368   0.15929882    27.030268    27.030268    91.090804 
35977000       3597.7    3179.4002    3.1381901   0.15929882    27.030268    27.030268    91.090804 
35978000       3597.8    3264.8137    3.1377589   0.15929882    27.030268    27.030268    91.090804 
35979000       3597.9     3345.948    3.1375699   0.15929882    27.030268    27.030268    91.090804 
35980000         3598    3430.4639    3.1375299   0.15929882    27.030268    27.030268    91.090804 
35981000       3598.1    3528.5308    3.1378411   0.15929882    27.030268    27.030268    91.090804 
35982000       3598.2    3635.6305    3.1385475   0.15929882    27.030268    27.030268    91.090804 
35983000       3598.3    3702.3291    3.1392793   0.15929882    27.030268    27.030268    91.090804 
35984000       3598.4    3229.8703    3.1425427   0.15929882    27.030268    27.030268    91.090804 
35985000       3598.5    2953.2903    3.1476159   0.15929882    27.030268    27.030268    91.090804 
35986000       3598.6    3009.2809    3.1431662   0.15929882    27.030268    27.030268    91.090804 
35987000       3598.7    3136.6442    3.1364694   0.15929882    27.030268    27.030268    91.090804 
35988000       3598.8    3034.8592    3.1352245   0.15929882    27.030268    27.030268    91.090804 
35989000       3598.9    2929.7956    3.1370858   0.15929882    27.030268    27.030268    91.090804 
35990000         3599    2813.4053    3.1387427   0.15929882    27.030268    27.030268    91.090804 
35991000       3599.1    2739.9407    3.1394509   0.15929882    27.030268    27.030268    91.090804 
35992000       3599.2    2665.3637    3.1397502   0.15929882    27.030268    27.030268    91.090804 
35993000       3599.3    2649.4958    3.1391398   0.15929882    27.030268    27.030268    91.090804 
35994000       3599.4    2652.1374    3.1372819   0.15929882    27.030268    27.030268    91.090804 
35995000       3599.5    2659.8773    3.1357149   0.15929882    27.030268    27.030268    91.090804 
35996000       3599.6    2620.0467    3.1362474   0.15929882    27.030268    27.030268    91.090804 
35997000       3599.7    2520.6821    3.1373172   0.15929882    27.030268    27.030268    91.090804 
35998000       3599.8     2509.756    3.1371155   0.15929882    27.030268    27.030268    91.090804 
35999000       3599.9    2561.2733    3.1360175   0.15929882    27.030268    27.030268    91.090804 
36000000         3600    2612.1429    3.1348918   0.15929882    27.030268    27.030268    91.090804 
36001000       3600.1    2667.8383    3.1342992   0.15929882    27.030268    27.030268    91.090804 
36002000       3600.2    2679.8294    3.1347388   0.15929882    27.030268    27.030268    91.090804 
36003000       3600.3    2568.3384    3.1372264   0.15929882    27.030268    27.030268    91.090804 
36004000       3600.4     2483.449    3.1418372   0.15929882    27.030268    27.030268    91.090804 
36005000       3600.5    2396.9496    3.1424578   0.15929882    27.030268    27.030268    91.090804 
36006000       3600.6    2442.9369    3.1372491   0.15929882    27.030268    27.030268    91.090804 
36007000       3600.7    2499.9342      3.13271   0.15929882    27.030268    27.030268    91.090804 
36008000       3600.8    2510.7751     3.131816   0.15929882    27.030268    27.030268    91.090804 
36009000       3600.9     2510.145     3.133041   0.15929882    27.030268    27.030268    91.090804 
36010000         3601    2480.8672    3.1352594   0.15929882    27.030268    27.030268    91.090804 
36011000       3601.1    2379.7959    3.1385074   0.15929882    27.030268    27.030268    91.090804 
36012000       3601.2     2271.095    3.1420043   0.15929882    27.030268    27.030268    91.090804 
36013000       3601.3    2157.8919    3.1422542   0.15929882    27.030268    27.030268    91.090804 
36014000       3601.4    2156.2032    3.1389187   0.15929882    27.030268    27.030268    91.090804 
36015000       3601.5    2182.4351    3.1363539   0.15929882    27.030268    27.030268    91.090804 
36016000       3601.6    2184.4173    3.1368887   0.15929882    27.030268    27.030268    91.090804 
36017000       3601.7    2141.6701    3.1390491   0.15929882    27.030268    27.030268    91.090804 
36018000       3601.8    2111.7943    3.1394514   0.15929882    27.030268    27.030268    91.090804 
36019000       3601.9    2089.8798    3.1374335   0.15929882    27.030268    27.030268    91.090804 
36020000         3602    2102.2341    3.1354173   0.15929882    27.030268    27.030268    91.090804 
36021000       3602.1    2115.1482    3.1352553   0.15929882    27.030268    27.030268    91.090804 
36022000       3602.2    2124.4788    3.1364315   0.15929882    27.030268    27.030268    91.090804 
36023000       3602.3    2128.4452    3.1379341   0.15929882    27.030268    27.030268    91.090804 
36024000       3602.4    2133.3909    3.1389538   0.15929882    27.030268    27.030268    91.090804 
36025000       3602.5    2166.6959    3.1388683   0.15929882    27.030268    27.030268    91.090804 
36026000       3602.6    2193.7182    3.1377116   0.15929882    27.030268    27.030268    91.090804 
36027000       3602.7     2205.809     3.136222   0.15929882    27.030268    27.030268    91.090804 
36028000       3602.8    2207.6359    3.1356879   0.15929882    27.030268    27.030268    91.090804 
36029000       3602.9    2195.5073    3.1369429   0.15929882    27.030268    27.030268    91.090804 
36030000         3603    2191.7121    3.1391644   0.15929882    27.030268    27.030268    91.090804 
36031000       3603.1    2204.4396    3.1411273   0.15929882    27.030268    27.030268    91.090804 
36032000       3603.2    2216.8913    3.1421196   0.15929882    27.030268    27.030268    91.090804 
36033000       3603.3    2208.8344    3.1418431   0.15929882    27.030268    27.030268    91.090804 
36034000       3603.4      2210.95    3.1405979   0.15929882    27.030268    27.030268    91.090804 
36035000       3603.5     2230.258    3.1393229   0.15929882    27.030268    27.030268    91.090804 
36036000       3603.6    2252.7509    3.1390955   0.15929882    27.030268    27.030268    91.090804 
36037000       3603.7    2295.6351    3.1399337   0.15929882    27.030268    27.030268    91.090804 
36038000       3603.8    2339.9882    3.1406474   0.15929882    27.030268    27.030268    91.090804 
36039000       3603.9    2367.8653    3.1405718   0.15929882    27.030268    27.030268    91.090804 
36040000         3604    2382.3101    3.1403308   0.15929882    27.030268    27.030268    91.090804 
36041000       3604.1    2400.2984     3.140933   0.15929882    27.030268    27.030268    91.090804 
36042000       3604.2    2405.1177     3.142743   0.15929882    27.030268    27.030268    91.090804 
36043000       3604.3    2389.0367    3.1435292   0.15929882    27.030268    27.030268    91.090804 
36044000       3604.4    2407.7048    3.1419856   0.15929882    27.030268    27.030268    91.090804 
36045000       3604.5    2406.1337    3.1399373   0.15929882    27.030268    27.030268    91.090804 
36046000       3604.6    2257.4069    3.1393817   0.15929882    27.030268    27.030268    91.090804 
36047000       3604.7    2136.2461    3.1406684   0.15929882    27.030268    27.030268    91.090804 
36048000       3604.8     2164.192    3.1439779   0.15929882    27.030268    27.030268    91.090804 
36049000       3604.9    2052.7281    3.1464585   0.15929882    27.030268    27.030268    91.090804 
36050000         3605    2055.5924    3.1447362   0.15929882    27.030268    27.030268    91.090804 
36051000       3605.1    2065.4365     3.141648   0.15929882    27.030268    27.030268    91.090804 
36052000       3605.2    2064.4315    3.1405101   0.15929882    27.030268    27.030268    91.090804 
36053000       3605.3    2056.4555    3.1409327   0.15929882    27.030268    27.030268    91.090804 
36054000       3605.4    2031.0021    3.1408988   0.15929882    27.030268    27.030268    91.090804 
36055000       3605.5    2019.2988    3.1402093   0.15929882    27.030268    27.030268    91.090804 
36056000       3605.6      2002.33    3.1397209   0.15929882    27.030268    27.030268    91.090804 
36057000       3605.7    1997.3835    3.1400082   0.15929882    27.030268    27.030268    91.090804 
36058000       3605.8    2006.9306    3.1408797   0.15929882    27.030268    27.030268    91.090804 
36059000       3605.9    2020.6059    3.1418723   0.15929882    27.030268    27.030268    91.090804 
36060000         3606    2028.0398    3.1426658   0.15929882    27.030268    27.030268    91.090804 
36061000       3606.1    2023.3956    3.1429721   0.15929882    27.030268    27.030268    91.090804 
36062000       3606.2     2025.136    3.1426374   0.15929882    27.030268    27.030268    91.090804 
36063000       3606.3     2038.948    3.1418397   0.15929882    27.030268    27.030268    91.090804 
36064000       3606.4    2050.3389    3.1410788   0.15929882    27.030268    27.030268    91.090804 
36065000       3606.5    2054.5294    3.1408506   0.15929882    27.030268    27.030268    91.090804 
36066000       3606.6    2047.9093    3.1412695   0.15929882    27.030268    27.030268    91.090804 
36067000       3606.7    2038.2688    3.1417491   0.15929882    27.030268    27.030268    91.090804 
36068000       3606.8    2041.7882    3.1417083   0.15929882    27.030268    27.030268    91.090804 
36069000       3606.9    2058.8528    3.1411629   0.15929882    27.030268    27.030268    91.090804 
36070000         3607    2071.0543    3.1405855   0.15929882    27.030268    27.030268    91.090804 
36071000       3607.1    2081.3506    3.1403362   0.15929882    27.030268    27.030268    91.090804 
36072000       3607.2    2084.4821    3.1404059   0.15929882    27.030268    27.030268    91.090804 
36073000       3607.3    2027.5887    3.1404875   0.15929882    27.030268    27.030268    91.090804 
36074000       3607.4    2020.4707    3.1401765   0.15929882    27.030268    27.030268    91.090804 
36075000       3607.5    1993.2732    3.1394033   0.15929882    27.030268    27.030268    91.090804 
36076000       3607.6    1963.7155    3.1389693   0.15929882    27.030268    27.030268    91.090804 
36077000       3607.7     1936.898    3.1400897   0.15929882    27.030268    27.030268    91.090804 
36078000       3607.8    1907.7997    3.1418242   0.15929882    27.030268    27.030268    91.090804 
36079000       3607.9    1910.7313    3.1421996   0.15929882    27.030268    27.030268    91.090804 
36080000         3608    1925.5358    3.1411551   0.15929882    27.030268    27.030268    91.090804 
36081000       3608.1    1919.0757    3.1396247   0.15929882    27.030268    27.030268    91.090804 
36082000       3608.2    1897.5835    3.1381011   0.15929882    27.030268    27.030268    91.090804 
36083000       3608.3    1862.1189    3.1371418   0.15929882    27.030268    27.030268    91.090804 
36084000       3608.4     1839.765    3.1376478   0.15929882    27.030268    27.030268    91.090804 
36085000       3608.5    1797.9887     3.139266   0.15929882    27.030268    27.030268    91.090804 
36086000       3608.6    1784.6143    3.1400142   0.15929882    27.030268    27.030268    91.090804 
36087000       3608.7    1786.4001    3.1395763   0.15929882    27.030268    27.030268    91.090804 
36088000       3608.8      1766.44    3.1393458   0.15929882    27.030268    27.030268    91.090804 
36089000       3608.9    1755.8545    3.1397125   0.15929882    27.030268    27.030268    91.090804 
36090000         3609    1751.7149     3.139946   0.15929882    27.030268    27.030268    91.090804 
36091000       3609.1    1755.1827    3.1395095   0.15929882    27.030268    27.030268    91.090804 
36092000       3609.2    1767.0462    3.1385067   0.15929882    27.030268    27.030268    91.090804 
36093000       3609.3    1785.7432    3.1373796   0.15929882    27.030268    27.030268    91.090804 
36094000       3609.4    1798.0221    3.1366672   0.15929882    27.030268    27.030268    91.090804 
36095000       3609.5    1800.2521    3.1365355   0.15929882    27.030268    27.030268    91.090804 
36096000       3609.6    1806.4505    3.1369518   0.15929882    27.030268    27.030268    91.090804 
36097000       3609.7    1816.5627    3.1378434   0.15929882    27.030268    27.030268    91.090804 
36098000       3609.8    1827.0759    3.1389061   0.15929882    27.030268    27.030268    91.090804 
36099000       3609.9    1844.5066    3.1396284   0.15929882    27.030268    27.030268    91.090804 
36100000         3610    1866.1268     3.139835   0.15929882    27.030268    27.030268    91.090804 
36101000       3610.1    1886.1229    3.1397548   0.15929882    27.030268    27.030268    91.090804 
36102000       3610.2    1909.3497    3.1396273   0.15929882    27.030268    27.030268    91.090804 
36103000       3610.3    1941.3847    3.1395473   0.15929882    27.030268    27.030268    91.090804 
36104000       3610.4    1978.8335    3.1395191   0.15929882    27.030268    27.030268    91.090804 
36105000       3610.5     2016.134    3.1395062   0.15929882    27.030268    27.030268    91.090804 
36106000       3610.6    2056.2788     3.139485   0.15929882    27.030268    27.030268    91.090804 
36107000       3610.7    2105.8506    3.1394809   0.15929882    27.030268    27.030268    91.090804 
36108000       3610.8    2164.2985    3.1395533   0.15929882    27.030268    27.030268    91.090804 
36109000       3610.9     2230.359    3.1397042   0.15929882    27.030268    27.030268    91.090804 
36110000         3611    2305.1736    3.1398697   0.15929882    27.030268    27.030268    91.090804 
36111000       3611.1    2386.5076    3.1400103   0.15929882    27.030268    27.030268    91.090804 
36112000       3611.2    2462.5273    3.1401261   0.15929882    27.030268    27.030268    91.090804 
36113000       3611.3    2435.3118    3.1403222   0.15929882    27.030268    27.030268    91.090804 
36114000       3611.4     2379.758    3.1430468   0.15929882    27.030268    27.030268    91.090804 
36115000       3611.5    1986.3035    3.1486666   0.15929882    27.030268    27.030268    91.090804 
36116000       3611.6    2085.6075    3.1453878   0.15929882    27.030268    27.030268    91.090804 
36117000       3611.7    1914.3879    3.1413643   0.15929882    27.030268    27.030268    91.090804 
36118000       3611.8    1951.5867    3.1413695   0.15929882    27.030268    27.030268    91.090804 
36119000       3611.9    1984.6699    3.1432185   0.15929882    27.030268    27.030268    91.090804 
36120000         3612    1922.1645    3.1436241   0.15929882    27.030268    27.030268    91.090804 
36121000       3612.1    1924.7292    3.1422537   0.15929882    27.030268    27.030268    91.090804 
36122000       3612.2    1912.1478    3.1414926   0.15929882    27.030268    27.030268    91.090804 
36123000       3612.3     1869.938    3.1419969   0.15929882    27.030268    27.030268    91.090804 
36124000       3612.4    1840.9481    3.1416601   0.15929882    27.030268    27.030268    91.090804 
36125000       3612.5    1824.1352    3.1395219   0.15929882    27.030268    27.030268    91.090804 
36126000       3612.6    1796.2558    3.1377829   0.15929882    27.030268    27.030268    91.090804 
36127000       3612.7    1784.0519    3.1376136   0.15929882    27.030268    27.030268    91.090804 
36128000       3612.8    1764.0066    3.1382458   0.15929882    27.030268    27.030268    91.090804 
36129000       3612.9    1756.0109    3.1389639   0.15929882    27.030268    27.030268    91.090804 
36130000         3613    1777.2691    3.1396734   0.15929882    27.030268    27.030268    91.090804 
Loop time of 62377.8 on 12 procs for 30000000 steps with 2850 atoms

Performance: 4155323.813 ns/day, 0.000 hours/ns, 480.940 timesteps/s
93.9% CPU use with 12 MPI tasks x no OpenMP threads

MPI task timing breakdown:
Section |  min time  |  avg time  |  max time  |%varavg| %total
---------------------------------------------------------------
Pair    | 3754.2     | 12358      | 17216      |3825.9 | 19.81
Neigh   | 64.884     | 3367.9     | 6486       |3789.7 |  5.40
Comm    | 13982      | 24580      | 33262      |3153.6 | 39.40
Output  | 81.601     | 85.019     | 87.579     |  21.3 |  0.14
Modify  | 9876.8     | 21895      | 44482      |7125.1 | 35.10
Other   |            | 91.49      |            |       |  0.15

Nlocal:    237.5 ave 706 max 0 min
Histogram: 6 0 0 2 0 0 1 1 0 2
Nghost:    283.333 ave 831 max 0 min
Histogram: 6 0 0 1 1 0 2 0 0 2
Neighs:    956.5 ave 2989 max 0 min
Histogram: 6 1 1 0 0 0 0 2 0 2
FullNghs:  1913 ave 5940 max 0 min
Histogram: 6 0 2 0 0 0 0 2 0 2

Total # of neighbors = 22956
Ave neighs/atom = 8.05474
Neighbor list builds = 6000000
Dangerous builds not checked
