LAMMPS data file via write_data, version 30 Jul 2016, timestep = 50400000

1520 atoms
8 atom types

0.0000000000000000e+00 4.0000000000000000e+01 xlo xhi
0.0000000000000000e+00 4.0000000000000000e+01 ylo yhi
0.0000000000000000e+00 1.0000000000000000e+02 zlo zhi

Masses

1 3.896
2 5.36
3 20.064
4 8.378
5 8.378
6 8.378
7 8.378
8 8.378

Atoms # meso-molecular

465 466 2 1.0280000113498329e+00 -2.3828550093265866e+02 1.0000000000000000e+00 1.7033073077258628e+01 4.4214828868050464e+00 7.3248088328678209e+00 
331 332 2 1.0279999984893096e+00 -1.1665494438381718e+03 1.0000000000000000e+00 1.8020049219655508e+01 5.0062754063482640e+00 6.4139904816378541e+00 
1091 1092 2 1.0280000047870950e+00 -1.1665414840858700e+03 1.0000000000000000e+00 1.7932544886425468e+01 4.5908999924252081e+00 7.1801554233385740e+00 
330 331 2 1.0280000089474948e+00 -1.1669125734334450e+03 1.0000000000000000e+00 1.7337297553880308e+01 4.3556215058355772e+00 7.2603754005877068e+00 
1090 1091 2 1.0280000104353295e+00 -1.1667419130458347e+03 1.0000000000000000e+00 1.7347239660880248e+01 4.3623098588419271e+00 7.3589241006953934e+00 
1085 1086 2 1.0280000114792482e+00 -5.3011161441499223e+02 1.0000000000000000e+00 1.6123406114534824e+01 6.0397685046078342e+00 8.0649171526996479e+00 
468 469 2 1.0279999531912318e+00 -2.3969324004116567e+02 1.0000000000000000e+00 1.7994237229503419e+01 7.7986866840245579e+00 6.0560200906773369e+00 
921 922 2 1.0279999913551632e+00 -2.3863733178338239e+02 1.0000000000000000e+00 1.7722628286158169e+01 5.9421401880739682e+00 6.0849447116309889e+00 
1023 1024 2 1.0279999774049726e+00 4.5188738181657209e+03 1.0000000000000000e+00 1.7828998457829506e+01 6.3877068533107533e+00 6.1535244673690359e+00 
924 925 2 1.0279999667769617e+00 -2.3970888406980239e+02 1.0000000000000000e+00 1.7832203627045079e+01 6.6278173360664088e+00 6.1724223495809936e+00 
56 57 2 1.0280000153746347e+00 -3.2173041451696809e+03 1.0000000000000000e+00 1.7199438746304970e+01 7.9904544224963132e+00 7.4212175084348182e+00 
615 616 2 1.0279999779381044e+00 -2.5335487427507505e+03 1.0000000000000000e+00 1.8451337223771912e+01 9.5505150216713641e+00 5.8615095048920542e+00 
413 414 2 1.0279999692300581e+00 -2.1355890967547343e+03 1.0000000000000000e+00 1.8237017788911466e+01 8.9828571848804071e+00 5.8695109178653437e+00 
614 615 2 1.0279999895518230e+00 -2.5373144250806727e+03 1.0000000000000000e+00 1.8509008270804987e+01 1.0852154456791903e+01 5.9068822966464989e+00 
774 775 2 1.0279999885913689e+00 6.3989880571662316e+03 1.0000000000000000e+00 1.8577263399764671e+01 1.1288819612000223e+01 5.9329603393011370e+00 
123 124 2 1.0279999945357270e+00 3.8823421275428831e+02 1.0000000000000000e+00 1.8520113337408031e+01 1.0968502686187811e+01 5.9292847525662307e+00 
337 338 2 1.0280000291557461e+00 3.0617062938709528e+03 1.0000000000000000e+00 1.7329443972505629e+01 8.9228791530921026e+00 7.1456307334215117e+00 
954 955 2 1.0280000284950193e+00 4.4643343721002029e+03 1.0000000000000000e+00 1.7331146856000998e+01 8.8766896666927089e+00 7.1700126485805473e+00 
340 341 2 1.0280000315843889e+00 3.0680484370498352e+03 1.0000000000000000e+00 1.7500679019494527e+01 9.0254505532474667e+00 7.2067660961286322e+00 
775 776 2 1.0279999702232661e+00 6.3983800643174591e+03 1.0000000000000000e+00 1.8605776377051576e+01 1.1474990064104782e+01 5.8655960877023281e+00 
798 799 2 1.0279999937111850e+00 1.4436065741636664e+03 1.0000000000000000e+00 1.8839819538272888e+01 1.3425988352734596e+01 6.0575440849452384e+00 
1022 1023 2 1.0279999871737378e+00 4.5111456080921025e+03 1.0000000000000000e+00 1.8839872586620864e+01 1.3428958992529694e+01 6.0677843162395426e+00 
799 800 2 1.0279999867091103e+00 1.4401866546055091e+03 1.0000000000000000e+00 1.8839845150832218e+01 1.3429128242409519e+01 6.0684912054652873e+00 
122 123 2 1.0279999863920406e+00 4.0000704458090786e+02 1.0000000000000000e+00 1.8839822801410470e+01 1.3429241121959347e+01 6.0689733433811837e+00 
647 648 2 1.0279999389843675e+00 1.4346381409611886e+03 1.0000000000000000e+00 1.8993500070149832e+01 1.4760966487903191e+01 6.2569410147904510e+00 
955 956 2 1.0280000043801301e+00 4.4730614682874593e+03 1.0000000000000000e+00 1.9194013336315951e+01 1.6582220969953532e+01 6.4646167100993717e+00 
498 499 2 1.0280000044170712e+00 4.4629589156355887e+03 1.0000000000000000e+00 1.9193755215993221e+01 1.6582180447780974e+01 6.4646924509420938e+00 
622 623 2 1.0280000044192941e+00 6.3980959698180814e+03 1.0000000000000000e+00 1.9193736481648120e+01 1.6582178091528871e+01 6.4646981178858853e+00 
623 624 2 1.0279999039371901e+00 6.3953179253007611e+03 1.0000000000000000e+00 1.9195604216726945e+01 1.6801151685085191e+01 6.4752534821826684e+00 
646 647 2 1.0280000275950512e+00 1.4378178405414928e+03 1.0000000000000000e+00 1.9183435741142379e+01 1.5658288280823697e+01 6.5666096163097158e+00 
767 768 2 1.0279999419406105e+00 -2.5327919936618887e+03 1.0000000000000000e+00 1.9486487932110705e+01 1.9112333279557888e+01 6.7924108073312777e+00 
766 767 2 1.0279999859221411e+00 -2.5361035893970197e+03 1.0000000000000000e+00 1.9487557281967725e+01 1.9121604065650398e+01 6.8108255646905107e+00 
499 500 2 1.0280000124324278e+00 4.4745369392123594e+03 1.0000000000000000e+00 1.9489086705044276e+01 1.9137302238348742e+01 6.8253897263637313e+00 
441 442 2 1.0280000224880366e+00 -3.3167436074546720e+02 1.0000000000000000e+00 1.9493536903938868e+01 1.9149916894292488e+01 6.8345707311949511e+00 
6 7 2 1.0279999825108852e+00 -4.0909504329447504e+03 1.0000000000000000e+00 1.6063145731759743e+01 4.8719051911775200e+00 9.9462152867277389e+00 
1394 1395 2 1.0280000184364575e+00 4.0526336517953973e+03 1.0000000000000000e+00 1.4732142095926106e+01 5.1782786322400556e+00 1.0919970268849656e+01 
160 161 2 1.0279999819686116e+00 2.7719603370070936e+03 1.0000000000000000e+00 1.5577679521756002e+01 4.2056285315603645e+00 1.1063347395833455e+01 
771 772 2 1.0279999871393102e+00 -1.4341346099566736e+03 1.0000000000000000e+00 1.5693089293439288e+01 4.7181150241898786e+00 1.1065390897928236e+01 
995 996 2 1.0279999932792989e+00 4.7614605587416063e+03 1.0000000000000000e+00 1.3223849466574508e+01 8.3396746303706468e+00 9.7240413894391544e+00 
368 369 2 1.0279999964132513e+00 -1.0568179923892643e+04 1.0000000000000000e+00 1.3512560776411139e+01 6.8620169163025437e+00 1.0792761889970807e+01 
624 625 2 1.0280000083162784e+00 -4.6254652558278276e+03 1.0000000000000000e+00 1.6582178206005551e+01 6.4926600196851076e+00 8.5518922819311349e+00 
1138 1139 2 1.0280000086885617e+00 1.9164388512116800e+03 1.0000000000000000e+00 1.6349798915445820e+01 6.2864037418133680e+00 8.9923433109316644e+00 
1139 1140 2 1.0280000263529478e+00 1.9220611088778853e+03 1.0000000000000000e+00 1.5703107944772436e+01 6.0332674494326257e+00 9.2568905918420779e+00 
621 622 2 1.0279999951972925e+00 -4.6217908134394229e+03 1.0000000000000000e+00 1.6609463013349334e+01 5.7864867720760262e+00 9.4249129218321315e+00 
792 793 2 1.0280000145946160e+00 -3.2903780011878935e+03 1.0000000000000000e+00 1.4396323128290787e+01 8.2151659115462348e+00 1.0550493528131684e+01 
100 101 2 1.0280000006091630e+00 -3.2334046124261686e+03 1.0000000000000000e+00 1.3716846587002324e+01 1.0460471944782006e+01 8.4693446440188680e+00 
1403 1404 2 1.0280000005815120e+00 3.4788336529384123e+03 1.0000000000000000e+00 1.3951198928884951e+01 1.1355286845991039e+01 8.7332337658090093e+00 
53 54 2 1.0280000002063736e+00 -3.2328619973567193e+03 1.0000000000000000e+00 1.3904044269412974e+01 9.2098126310246364e+00 8.8573902202218324e+00 
124 125 2 1.0280000006757066e+00 -2.7032573289888051e+03 1.0000000000000000e+00 1.3014794618269908e+01 1.0720859164266349e+01 8.9940635879776156e+00 
305 306 2 1.0279999971175215e+00 7.6102935955928224e+03 1.0000000000000000e+00 1.3207353223781109e+01 9.0198454939839756e+00 9.1429962381138647e+00 
789 790 2 1.0279999978594014e+00 -3.2899684680717874e+03 1.0000000000000000e+00 1.3537471240672955e+01 8.6238932593575885e+00 9.2308951632037353e+00 
846 847 2 1.0280000010880164e+00 -1.6982410200724548e+03 1.0000000000000000e+00 1.4771864236258660e+01 1.0317708377805992e+01 1.0310602404454372e+01 
192 193 2 1.0280000004367102e+00 7.1738177249423989e+03 1.0000000000000000e+00 1.3991839308506943e+01 1.1659999367996486e+01 8.9957556182071343e+00 
883 884 2 1.0280000002550032e+00 5.7261633898931086e+02 1.0000000000000000e+00 1.4009923815061711e+01 1.1913130741085627e+01 9.4086605234648371e+00 
189 190 2 1.0279999995639373e+00 7.1825117536537637e+03 1.0000000000000000e+00 1.3808029309442945e+01 1.1766903028961863e+01 1.0799694217229925e+01 
695 696 2 1.0279999991669129e+00 -1.7084912150745035e+03 1.0000000000000000e+00 1.3934594810885320e+01 1.1613187380675658e+01 1.1062402733808369e+01 
548 549 2 1.0279999991254880e+00 -7.9455826798158450e+03 1.0000000000000000e+00 1.3928031890625578e+01 1.1592359247159026e+01 1.1088290711728430e+01 
810 811 2 1.0279999962850199e+00 -2.0129177951734550e+03 1.0000000000000000e+00 1.2047236343216545e+01 2.5422254202256576e+00 1.2287276368254689e+01 
20 21 2 1.0279999952403556e+00 -3.2074644311692873e+03 1.0000000000000000e+00 1.2078049251394157e+01 2.1920282100091200e+00 1.2615342156862223e+01 
207 208 2 1.0279999948402794e+00 2.7724358906652815e+03 1.0000000000000000e+00 1.2243557132288711e+01 1.3799970444834832e-02 1.2689233808719223e+01 
1442 1443 2 1.0279999911655642e+00 7.3890235691878433e+02 1.0000000000000000e+00 1.2420883952494913e+01 6.8943211799055804e-01 1.2889485480595358e+01 
777 778 2 1.0279999994582976e+00 -7.9540476304301183e+03 1.0000000000000000e+00 1.1866652842642019e+01 2.8035983224522933e+00 1.2972040055203351e+01 
1450 1451 2 1.0280000118981161e+00 1.4264666437136725e+03 1.0000000000000000e+00 1.3958776156056633e+01 5.0582742870996444e-01 1.3632252830315659e+01 
204 205 2 1.0280000040023691e+00 4.2594168910410644e+03 1.0000000000000000e+00 1.2993439270957692e+01 2.8239993762566105e+00 1.3680848377420219e+01 
206 207 2 1.0279999926568275e+00 2.7732846369954977e+03 1.0000000000000000e+00 1.4674945764721180e+01 4.0191697097387397e-01 1.2238562337132180e+01 
17 18 2 1.0279999887596523e+00 -3.2089898000644239e+03 1.0000000000000000e+00 1.4810899543966697e+01 2.2781306424923011e+00 1.2292941244615090e+01 
780 781 2 1.0279999937159154e+00 -7.9547883887472808e+03 1.0000000000000000e+00 1.4967295244810868e+01 2.6670481931020431e+00 1.2336336407510801e+01 
1443 1444 2 1.0279999883671220e+00 7.4038407316155156e+02 1.0000000000000000e+00 1.4595823842071585e+01 9.4039157158665798e-01 1.2371620649353407e+01 
7 8 2 1.0279999962474176e+00 -4.0981203571595379e+03 1.0000000000000000e+00 1.2313057920930369e+01 3.4005167082457723e+00 1.1829215827382285e+01 
157 158 2 1.0279999931403156e+00 2.7715064606610035e+03 1.0000000000000000e+00 1.2046331562861614e+01 4.5344715612255806e+00 1.2018610991414395e+01 
770 771 2 1.0279999920869241e+00 -1.4350346057309903e+03 1.0000000000000000e+00 1.2127108273740763e+01 5.0380089891793993e+00 1.2094133927301181e+01 
1078 1079 2 1.0280000018800157e+00 -4.7724899472384204e+03 1.0000000000000000e+00 1.2008079077337293e+01 4.2960184037809617e+00 1.3013603478745154e+01 
1088 1089 2 1.0280000105834621e+00 -5.2972926017576935e+02 1.0000000000000000e+00 1.4118035367139838e+01 2.9117565839064095e+00 1.3451344221006874e+01 
1392 1393 2 1.0280000285693529e+00 -1.0540848652338009e+03 1.0000000000000000e+00 1.4631635910004562e+01 5.1392497536661024e+00 1.1175736085710103e+01 
811 812 2 1.0279999906378505e+00 -2.0100072121937212e+03 1.0000000000000000e+00 1.5190731901417665e+01 3.5210295635378395e+00 1.1471096649470299e+01 
1079 1080 2 1.0280000092056503e+00 -4.7725885132039293e+03 1.0000000000000000e+00 1.4789585983957798e+01 3.3286189405606383e+00 1.2709663511429815e+01 
365 366 2 1.0279999867085374e+00 -1.0566277031489364e+04 1.0000000000000000e+00 1.2850115347375210e+01 7.5690623899171019e+00 1.1561115181905397e+01 
1395 1396 2 1.0279999898371368e+00 4.0456118328754401e+03 1.0000000000000000e+00 1.2388266239459879e+01 5.9686046766879697e+00 1.1839369993339877e+01 
1389 1390 2 1.0279999895892959e+00 -1.0611257453724838e+03 1.0000000000000000e+00 1.2407021098639653e+01 6.1384710576800625e+00 1.1853736741450215e+01 
308 309 2 1.0280000040120525e+00 7.6141359512936269e+03 1.0000000000000000e+00 1.3831617267058263e+01 7.9896937644131860e+00 1.2603405942082476e+01 
611 612 2 1.0280000127378588e+00 -4.7618009315277795e+03 1.0000000000000000e+00 1.3728921161419558e+01 6.7280408511927945e+00 1.3084584348356957e+01 
610 611 2 1.0280000248141874e+00 -4.7554938489527049e+03 1.0000000000000000e+00 1.3406449819676988e+01 6.4611998651665807e+00 1.3676437900544453e+01 
994 995 2 1.0280000056554119e+00 4.7612371764016998e+03 1.0000000000000000e+00 1.4293097399665266e+01 8.0971743205856033e+00 1.1263288191166222e+01 
1174 1175 2 1.0280000007652768e+00 -5.4329392478668506e+03 1.0000000000000000e+00 1.3574522118030613e+01 9.1360440527253122e+00 1.1679590310428187e+01 
1358 1359 2 1.0280000012383375e+00 9.2910304121564295e+03 1.0000000000000000e+00 1.4156154461817357e+01 1.0543635436205141e+01 1.1770810852672211e+01 
259 260 2 1.0280000006137486e+00 -3.1467339216103674e+03 1.0000000000000000e+00 1.3882804223056695e+01 1.0613487775410933e+01 1.3126018367954599e+01 
694 695 2 1.0280000004967516e+00 -1.7117629752048247e+03 1.0000000000000000e+00 1.3862931218076842e+01 1.0730104785424627e+01 1.3390420980278531e+01 
832 833 2 1.0279999998556197e+00 9.4260513281902149e+02 1.0000000000000000e+00 7.8760501034198445e+00 1.9473610193354401e-01 1.4625734094282613e+01 
479 480 2 1.0279999998841256e+00 4.3880515713475052e+03 1.0000000000000000e+00 7.8655105212658851e+00 1.6514297676799361e-01 1.4641352850642935e+01 
353 354 2 1.0279999999198133e+00 -8.9337832879636044e+03 1.0000000000000000e+00 7.8933027093877861e+00 2.6018696838199495e-01 1.4656235039989991e+01 
405 406 2 1.0279999999359455e+00 -8.9008570681711099e+03 1.0000000000000000e+00 7.8992004893613199e+00 2.7975259313429335e-01 1.4665372965683053e+01 
962 963 2 1.0279999994359543e+00 5.7480595214953464e+03 1.0000000000000000e+00 9.2305334909540910e+00 1.3355170083259480e+00 1.5424842056290423e+01 
394 395 2 1.0279999993806122e+00 -1.4748385442230242e+03 1.0000000000000000e+00 9.4509814095802351e+00 1.4417280525900713e+00 1.5550362454211594e+01 
135 136 2 1.0279999994384001e+00 1.9705387884280822e+03 1.0000000000000000e+00 1.0069035657045113e+01 1.9793181929363588e+00 1.5915524748613866e+01 
136 137 2 1.0280000010499817e+00 -3.2275515937409591e+03 1.0000000000000000e+00 1.0361116757281900e+01 1.7234838656651741e+00 1.6664302156005984e+01 
177 178 2 1.0280000010169654e+00 3.6712926291288040e+03 1.0000000000000000e+00 1.2642894081369473e+01 1.4946006025475070e-01 1.6542501847889476e+01 
439 440 2 1.0280000009808070e+00 1.5709484798185877e+03 1.0000000000000000e+00 1.1677033391410923e+01 1.0011787727339279e+00 1.6659622574712674e+01 
963 964 2 1.0279999984403188e+00 5.7476433944076334e+03 1.0000000000000000e+00 1.6937229643500849e+01 9.8461597006757906e-01 1.5558529045215245e+01 
395 396 2 1.0279999976408563e+00 -1.4752086447911311e+03 1.0000000000000000e+00 1.6652811064317799e+01 1.0746607794465088e+00 1.5683705639755711e+01 
134 135 2 1.0279999971362159e+00 1.9704412260877059e+03 1.0000000000000000e+00 1.5952906290384094e+01 1.4278090554304548e+00 1.5995123270936196e+01 
1463 1464 2 1.0279999972424412e+00 5.1289019547538719e+03 1.0000000000000000e+00 1.5197429066454813e+01 2.4809132414547785e+00 1.6244767580667567e+01 
438 439 2 1.0279999988020014e+00 1.5709364587051332e+03 1.0000000000000000e+00 1.4469032932387758e+01 5.4880096382430710e-01 1.6284583805129078e+01 
829 830 2 1.0279999994117808e+00 9.4220230799303476e+02 1.0000000000000000e+00 1.8443491999452885e+01 1.7142368277595296e-01 1.4991965129265965e+01 
356 357 2 1.0279999994819788e+00 -8.9338606007299604e+03 1.0000000000000000e+00 1.8424299764944323e+01 1.9382594312389026e-01 1.4998927299307407e+01 
408 409 2 1.0279999995154381e+00 -8.9010935206897193e+03 1.0000000000000000e+00 1.8415536154730994e+01 2.0367988020119610e-01 1.5002868699320802e+01 
478 479 2 1.0279999996244431e+00 4.3884494385469325e+03 1.0000000000000000e+00 1.8465423464753854e+01 1.0033239790154083e-01 1.5066059177622082e+01 
366 367 2 1.0280000004307859e+00 -1.4395777293887190e+03 1.0000000000000000e+00 1.1378208333954968e+01 4.4411498286997384e+00 1.6208702492937562e+01 
1462 1463 2 1.0279999975467400e+00 5.1291792071619066e+03 1.0000000000000000e+00 1.0575382042967339e+01 3.0311364317615972e+00 1.6487134698309536e+01 
45 46 2 1.0279999976194774e+00 -2.0788446926543352e+03 1.0000000000000000e+00 1.0664816856672216e+01 3.2421746108442351e+00 1.6507915524634633e+01 
102 103 2 1.0280000006185177e+00 1.9317690288539966e+03 1.0000000000000000e+00 1.4066931674635986e+01 4.8092962033299500e+00 1.4967371772180204e+01 
103 104 2 1.0280000057409362e+00 1.9379586738267762e+03 1.0000000000000000e+00 1.2648359963494809e+01 4.0924881257210544e+00 1.5344181844797330e+01 
1426 1427 2 1.0279999986261439e+00 5.1497603546393075e+03 1.0000000000000000e+00 1.2159051833677752e+01 5.1300791121346805e+00 1.6176221365755783e+01 
105 106 2 1.0279999990420086e+00 -2.0593180265659607e+03 1.0000000000000000e+00 1.2135041356440203e+01 5.1172009690049567e+00 1.6225922010159966e+01 
367 368 2 1.0280000019312103e+00 -1.4400759521007080e+03 1.0000000000000000e+00 1.4692383890881093e+01 4.3500011170818453e+00 1.5435980394711162e+01 
48 49 2 1.0279999972658318e+00 -2.0790362528492078e+03 1.0000000000000000e+00 1.5070925608510516e+01 2.9928654092557569e+00 1.6135285711807501e+01 
18 19 2 1.0279999991759021e+00 1.9808756392769424e+03 1.0000000000000000e+00 1.4896377400687506e+01 4.1834536052274194e+00 1.6206508536201095e+01 
1427 1428 2 1.0279999983999717e+00 5.1486761307422503e+03 1.0000000000000000e+00 1.4379080347362247e+01 4.5243551734185763e+00 1.6559311738274261e+01 
108 109 2 1.0279999985753374e+00 -2.0604454170673048e+03 1.0000000000000000e+00 1.4371050803381470e+01 4.5025638039402898e+00 1.6580296602145143e+01 
566 567 2 1.0279999870570338e+00 4.5408314537927818e+03 1.0000000000000000e+00 1.3144345388280350e+01 6.1716109755673463e+00 1.4533588039758087e+01 
881 882 2 1.0279999920443939e+00 -3.2710064106143609e+03 1.0000000000000000e+00 1.3116165928585151e+01 7.5627541089610801e+00 1.4567564212190415e+01 
1519 1520 2 1.0280000009442867e+00 -6.4958197667989107e+03 1.0000000000000000e+00 1.3127220452864117e+01 7.5101179617633758e+00 1.4972489924184728e+01 
32 33 2 1.0280000086344212e+00 -2.7449094478948482e+03 1.0000000000000000e+00 1.3011539670333468e+01 7.7523387412416040e+00 1.5837765399864251e+01 
121 122 2 1.0280000008746764e+00 -2.7047739789784064e+03 1.0000000000000000e+00 1.3855323513209537e+01 7.5622553863564050e+00 1.6539828544059741e+01 
601 602 2 1.0279999978257752e+00 6.8564057509402537e+03 1.0000000000000000e+00 1.2979469762229877e+01 9.4695479676626082e+00 1.4315656968778283e+01 
729 730 2 1.0280000013220867e+00 -3.2624611451450137e+03 1.0000000000000000e+00 1.3561199370303020e+01 1.0875748421278997e+01 1.4789896015343540e+01 
412 413 2 1.0280000015280277e+00 4.5251571967103018e+03 1.0000000000000000e+00 1.3829525099047446e+01 1.0780570846649427e+01 1.5135485977960800e+01 
151 152 2 1.0280000007728702e+00 -6.4870935697554587e+03 1.0000000000000000e+00 1.3471623754153116e+01 1.0438043504162334e+01 1.5532514591342654e+01 
1468 1469 2 1.0279999995267666e+00 -3.2058786265071517e+03 1.0000000000000000e+00 1.3716468375692612e+01 1.0029390834155770e+01 1.6224524020924768e+01 
604 605 2 1.0279999997846727e+00 6.8584488025432329e+03 1.0000000000000000e+00 1.4538284611393786e+01 9.5858088569766604e+00 1.4191675000200512e+01 
1511 1512 2 1.0279999990621471e+00 3.0723941553727745e+03 1.0000000000000000e+00 1.4529757703713116e+01 9.4805288112873392e+00 1.4490881368825532e+01 
587 588 2 1.0279999995302376e+00 4.3776868531521422e+03 1.0000000000000000e+00 1.0958030276973092e+01 6.1538446941887959e-01 1.6836260990938708e+01 
50 51 2 1.0280000055188871e+00 1.9827086257778637e+03 1.0000000000000000e+00 1.3936061825179092e+01 2.3993436919840914e+00 1.7954076600394320e+01 
180 181 2 1.0280000092600350e+00 3.6755365389593844e+03 1.0000000000000000e+00 1.3119476009052702e+01 9.5980726490265000e-01 1.8402234370358936e+01 
1108 1109 2 1.0280000023901150e+00 -2.1503158728437211e+03 1.0000000000000000e+00 1.3115374322479115e+01 1.0447807610236766e+00 1.8925874975142023e+01 
586 587 2 1.0279999964056854e+00 4.3779819601931695e+03 1.0000000000000000e+00 1.4857427225634504e+01 4.3759031041750746e-01 1.6684823781411627e+01 
133 134 2 1.0280000050843014e+00 -3.2272863435044669e+03 1.0000000000000000e+00 1.5180988395655747e+01 9.7198472813534564e-01 1.6910817674640661e+01 
903 904 2 1.0280000001945759e+00 -1.4995387829683291e+03 1.0000000000000000e+00 1.4529283834353228e+01 2.1562409327251122e+00 1.8935847246360531e+01 
19 20 2 1.0280000013555475e+00 1.9816205482447376e+03 1.0000000000000000e+00 1.1051929054357899e+01 4.2691567339121317e+00 1.6776530335157950e+01 
51 52 2 1.0279999992222413e+00 1.9729201372377815e+03 1.0000000000000000e+00 1.2279491708606038e+01 3.3046881626407947e+00 1.7871531393551752e+01 
1202 1203 2 1.0280000068383803e+00 -4.7833834635795174e+03 1.0000000000000000e+00 1.1844952848557478e+01 4.6940963939768974e+00 1.8713578804582696e+01 
983 984 2 1.0280000004028504e+00 4.7673611725256378e+03 1.0000000000000000e+00 1.2212774570096290e+01 4.9216524956593650e+00 1.9065744450472799e+01 
393 394 2 1.0280000005790915e+00 -1.0584909345909313e+04 1.0000000000000000e+00 1.1679456494393341e+01 4.5429738979127761e+00 1.9270056750945070e+01 
453 454 2 1.0279999959285990e+00 7.6444001357518555e+03 1.0000000000000000e+00 1.2091262683557789e+01 5.0232121471700930e+00 1.9342286290102361e+01 
1312 1313 2 1.0280000020582476e+00 1.5803218791071508e+03 1.0000000000000000e+00 1.2544629271893603e+01 7.8774086622647683e+00 1.7524836315425279e+01 
639 640 2 1.0279999999136888e+00 5.7676501744743462e+02 1.0000000000000000e+00 1.4119733723761179e+01 7.9720320008966921e+00 1.8215725903832272e+01 
1073 1074 2 1.0280000017123567e+00 -2.6879829963712982e+03 1.0000000000000000e+00 1.2304822400381704e+01 8.3965718013199471e+00 1.8666055388014566e+01 
156 157 2 1.0279999996394988e+00 1.6854488718479226e+02 1.0000000000000000e+00 1.4465484196846107e+01 8.1934098952159324e+00 1.7244470810106925e+01 
732 733 2 1.0279999986863626e+00 -3.2612702844515147e+03 1.0000000000000000e+00 1.3703393578006539e+01 9.5188240350259541e+00 1.7849252118665582e+01 
1205 1206 2 1.0280000008598684e+00 -2.7044099028229148e+03 1.0000000000000000e+00 1.2378459960339109e+01 8.6022446156957937e+00 1.7964095574286986e+01 
150 151 2 1.0279999988277995e+00 -6.4847628929355269e+03 1.0000000000000000e+00 1.3686653217505844e+01 9.4328457197076592e+00 1.8040623194333779e+01 
606 607 2 1.0279999989736122e+00 3.5152435315145658e+03 1.0000000000000000e+00 1.4493636044535398e+01 8.6014258599072129e+00 1.7728470392177886e+01 
300 301 2 1.0279999977091487e+00 2.7453900171819901e+03 1.0000000000000000e+00 1.3909326357435718e+01 1.2993095108173316e+00 1.9572729836819988e+01 
1497 1498 2 1.0279999984043011e+00 -1.0485614925803900e+03 1.0000000000000000e+00 1.1557861365897260e+01 2.8160380821346003e+00 1.9841681852170666e+01 
1495 1496 2 1.0279999983446950e+00 4.0132884614516852e+03 1.0000000000000000e+00 1.1576906788772751e+01 2.7173383720282525e+00 1.9851882642024016e+01 
902 903 2 1.0279999983684671e+00 -1.4982225704262873e+03 1.0000000000000000e+00 1.1613460514796813e+01 2.5421131101530841e+00 1.9890149737041160e+01 
297 298 2 1.0279999993739919e+00 2.7469781737965382e+03 1.0000000000000000e+00 1.1633861946699525e+01 1.6250852063913437e+00 2.0550243588721930e+01 
1061 1062 2 1.0280000014403878e+00 5.7113377848217715e+03 1.0000000000000000e+00 1.1692005021287038e+01 6.5563979966486330e-02 2.0969319396638191e+01 
147 148 2 1.0280000002690945e+00 -4.0789297511877330e+03 1.0000000000000000e+00 1.1741361946996635e+01 1.3062399040821917e+00 2.1874453508748584e+01 
146 147 2 1.0280000008911490e+00 -4.0772481648882758e+03 1.0000000000000000e+00 1.3339512075044171e+01 7.4645351673084093e-01 2.1970144274736171e+01 
896 897 2 1.0279999994524545e+00 -7.9664965462276214e+03 1.0000000000000000e+00 1.3163198742136293e+01 1.5379835695455010e-01 2.2176261165527684e+01 
1494 1495 2 1.0279999994990072e+00 4.0120311132254137e+03 1.0000000000000000e+00 1.4617723448708940e+01 2.4847021745269378e+00 1.9513564166785436e+01 
1500 1501 2 1.0280000002379142e+00 -1.0501777952613670e+03 1.0000000000000000e+00 1.4612495298291192e+01 2.6980961831800578e+00 2.0024744376264874e+01 
982 983 2 1.0279999992706128e+00 4.7687376369395333e+03 1.0000000000000000e+00 1.4280571107458636e+01 4.4457987772897534e+00 2.0656949933524828e+01 
456 457 2 1.0279999995293876e+00 7.6451249467440011e+03 1.0000000000000000e+00 1.4251373473496733e+01 4.3868069848783460e+00 2.0879220993389346e+01 
1376 1377 2 1.0280000051259441e+00 -4.0158899937547449e+02 1.0000000000000000e+00 1.2819301159699693e+01 4.5210494477176937e+00 2.1697474766572011e+01 
888 889 2 1.0280000018561939e+00 -3.1030982059204443e+03 1.0000000000000000e+00 1.3028031035519282e+01 3.0410250184775069e+00 2.2027995578933329e+01 
1203 1204 2 1.0280000004636127e+00 -4.7833947434925431e+03 1.0000000000000000e+00 1.4400803238137048e+01 4.1785838453705839e+00 1.9952058968833363e+01 
396 397 2 1.0280000004127232e+00 -1.0585286291519005e+04 1.0000000000000000e+00 1.4483370661625521e+01 4.1701380097620628e+00 2.0438469228770199e+01 
927 928 2 1.0280000015043358e+00 -4.9580857991750618e+03 1.0000000000000000e+00 1.2115924549405499e+01 7.8264593482453204e+00 1.9689204350235880e+01 
1492 1493 2 1.0280000019196358e+00 -2.6971017195124041e+03 1.0000000000000000e+00 1.2714524912426079e+01 7.7277948651392387e+00 2.0321022692714298e+01 
882 883 2 1.0280000008991201e+00 5.9705181395481736e+02 1.0000000000000000e+00 1.2180376760293900e+01 7.5873931184962951e+00 2.0325211593668833e+01 
458 459 2 1.0279999986854709e+00 3.5307473428010835e+03 1.0000000000000000e+00 1.2848249810447834e+01 7.0666938579271044e+00 2.0751341337163979e+01 
830 831 2 1.0279999998008287e+00 1.2762529829569457e+03 1.0000000000000000e+00 1.2381941916061562e+01 6.8924595170377847e+00 2.0934531451933783e+01 
326 327 2 1.0279999968607059e+00 -4.5522770112475534e+01 1.0000000000000000e+00 1.2731670397842846e+01 6.4054330774819581e+00 2.1193989108914138e+01 
893 894 2 1.0280000005727787e+00 -7.9669297499467302e+03 1.0000000000000000e+00 1.2010990126802847e+01 6.9212386944047888e-01 2.2257174790308540e+01 
874 875 2 1.0280000049848332e+00 1.4656367778640779e+03 1.0000000000000000e+00 1.2721389387783729e+01 2.7352577193163592e+00 2.2320075413810823e+01 
885 886 2 1.0280000065298609e+00 -3.1071329268455902e+03 1.0000000000000000e+00 1.2763798845407768e+01 2.3599465124625074e+00 2.3909424275601530e+01 
875 876 2 1.0280000031308640e+00 1.4694131232450979e+03 1.0000000000000000e+00 1.2911640083268585e+01 2.3540383961455946e+00 2.4741645033442886e+01 
758 759 2 1.0280000030545737e+00 -4.7910306646062909e+03 1.0000000000000000e+00 1.2765319486591070e+01 2.3543903744148134e+00 2.4751733870615425e+01 
759 760 2 1.0280000025537346e+00 -4.7893789154250662e+03 1.0000000000000000e+00 1.3039935650720688e+01 2.3868280882091168e+00 2.4861862468940966e+01 
1011 1012 2 1.0279999920953300e+00 8.8817554149164498e+03 1.0000000000000000e+00 1.3146527789811767e+01 3.6529879774305507e+00 2.3012361942799156e+01 
721 722 2 1.0279999974044935e+00 -4.3494601714570417e+03 1.0000000000000000e+00 1.2035707933121568e+01 4.5651440218108519e+00 2.4767461941205656e+01 
143 144 2 1.0279999977061332e+00 3.0691892734472822e+03 1.0000000000000000e+00 1.2331882236830875e+01 5.0595212791494859e+00 2.4950218488863449e+01 
1465 1466 2 1.0280000037788390e+00 -3.2144242064311138e+03 1.0000000000000000e+00 1.2709959377608778e+01 5.8331810857088096e+00 2.3213908985458946e+01 
1062 1063 2 1.0280000032609162e+00 3.5119917709852807e+03 1.0000000000000000e+00 1.2970521871112689e+01 5.7692033464462114e+00 2.3231822213675507e+01 
1400 1401 2 1.0280000020922120e+00 -2.7445631290093229e+03 1.0000000000000000e+00 1.2657411647775286e+01 5.9160632202492476e+00 2.3866700689422924e+01 
1489 1490 2 1.0280000013373227e+00 -2.6991424285330258e+03 1.0000000000000000e+00 1.2940384434398805e+01 5.7791736306404689e+00 2.4142556460008514e+01 
1510 1511 2 1.0280000042442436e+00 3.0714160491980483e+03 1.0000000000000000e+00 1.3199353760134017e+01 2.7403208549621647e+00 2.6524749171438849e+01 
414 415 2 1.0279999976631709e+00 -5.4283713128021373e+03 1.0000000000000000e+00 1.2564819071957986e+01 5.0516977831690246e+00 2.5057583721631637e+01 
311 312 2 1.0280000014000061e+00 4.3948438007742589e+03 1.0000000000000000e+00 1.3210873636040708e+01 3.2126054228129499e+00 2.6407397791420220e+01 
1397 1398 2 1.0279999983847083e+00 -2.7443574206940389e+03 1.0000000000000000e+00 1.2581408529245310e+01 3.6467446815927480e+00 2.6477431155931903e+01 
258 259 2 1.0279999998101157e+00 -3.1522901244411514e+03 1.0000000000000000e+00 1.1870921767098782e+01 3.0046880959246187e+00 2.7606527368507592e+01 
884 885 2 1.0280000000453917e+00 -3.2690412468826798e+03 1.0000000000000000e+00 1.2749782328028088e+01 1.7475851326866061e+00 2.7918097381795608e+01 
450 451 2 1.0279999987087616e+00 4.3880958332479540e+03 1.0000000000000000e+00 1.1459000546472211e+01 1.6738634682520286e+00 2.8488197851788673e+01 
724 725 2 1.0279999990741169e+00 -4.3752017285838174e+03 1.0000000000000000e+00 1.1435303718388637e+01 2.0856938099719562e+00 2.8535579422030640e+01 
554 555 2 1.0280000011193760e+00 8.9465749493949988e+03 1.0000000000000000e+00 1.2376128753263037e+01 2.3875065676384550e+00 2.9192491927967179e+01 
476 477 2 1.0280000011333423e+00 4.1079029342173823e+02 1.0000000000000000e+00 1.2353666727121636e+01 2.2448258874981653e+00 2.9316365794185160e+01 