LAMMPS data file via write_data, version 30 Jul 2016, timestep = 50000000

1520 atoms
8 atom types

0.0000000000000000e+00 4.0000000000000000e+01 xlo xhi
0.0000000000000000e+00 4.0000000000000000e+01 ylo yhi
0.0000000000000000e+00 1.0000000000000000e+02 zlo zhi

Masses

1 3.896
2 5.36
3 20.064
4 8.378
5 8.378
6 8.378
7 8.378
8 8.378

Atoms # meso-molecular

468 469 2 1.0279999514870917e+00 -2.3969324170538886e+02 1.0000000000000000e+00 1.7991041144178290e+01 7.8089482288006122e+00 8.0688197419035799e+00 
921 922 2 1.0279999908592274e+00 -2.3863733308114365e+02 1.0000000000000000e+00 1.7718367235592062e+01 5.9518546972410693e+00 8.1027730846699253e+00 
1023 1024 2 1.0279999763141310e+00 4.5188738167105294e+03 1.0000000000000000e+00 1.7825219489484425e+01 6.3978784182302686e+00 8.1701723283244210e+00 
924 925 2 1.0279999652729341e+00 -2.3970888548403400e+02 1.0000000000000000e+00 1.7828588054140795e+01 6.6383623606037627e+00 8.1883463893681814e+00 
615 616 2 1.0279999770381147e+00 -2.5335487449335378e+03 1.0000000000000000e+00 1.8447777492079727e+01 9.5585181821947920e+00 7.8714774867083737e+00 
413 414 2 1.0279999680038716e+00 -2.1355890989375216e+03 1.0000000000000000e+00 1.8233297989534908e+01 8.9914820654119136e+00 7.8801927585537364e+00 
614 615 2 1.0279999887927156e+00 -2.5373144272634599e+03 1.0000000000000000e+00 1.8504844643177300e+01 1.0859146719059956e+01 7.9137264720354592e+00 
774 775 2 1.0279999880054518e+00 6.3989880549834443e+03 1.0000000000000000e+00 1.8573277313073774e+01 1.1295913120552441e+01 7.9385924805545951e+00 
123 124 2 1.0279999939565121e+00 3.8823421062035533e+02 1.0000000000000000e+00 1.8515941883024240e+01 1.0975514662327242e+01 7.9359195807403058e+00 
775 776 2 1.0279999691736112e+00 6.3983800621346718e+03 1.0000000000000000e+00 1.8601962324721814e+01 1.1482247306676932e+01 7.8701801119046264e+00 
798 799 2 1.0279999933682589e+00 1.4436065723649594e+03 1.0000000000000000e+00 1.8836508581295991e+01 1.3433548626792897e+01 8.0566050155728330e+00 
1022 1023 2 1.0279999865186018e+00 4.5111456064874292e+03 1.0000000000000000e+00 1.8836565285297230e+01 1.3436548519686847e+01 8.0668471416286511e+00 
799 800 2 1.0279999860316642e+00 1.4401866528048226e+03 1.0000000000000000e+00 1.8836537983086284e+01 1.3436719810525501e+01 8.0675548288030523e+00 
122 123 2 1.0279999856993658e+00 4.0000704280109932e+02 1.0000000000000000e+00 1.8836515708913232e+01 1.3436834080472293e+01 8.0680375636160520e+00 
647 648 2 1.0279999361142940e+00 1.4346381388540651e+03 1.0000000000000000e+00 1.8990620202245722e+01 1.4769094200792487e+01 8.2517204839105514e+00 
465 466 2 1.0280000120412454e+00 -2.3828550199997866e+02 1.0000000000000000e+00 1.7029581382011365e+01 4.4351609084384434e+00 9.3455883459310165e+00 
331 332 2 1.0279999983290828e+00 -1.1665494448770437e+03 1.0000000000000000e+00 1.8015889802139363e+01 5.0163700360346786e+00 8.4339221996710236e+00 
1091 1092 2 1.0280000050311191e+00 -1.1665414849953647e+03 1.0000000000000000e+00 1.7927875654368538e+01 4.6028707117213843e+00 9.2006977320413288e+00 
330 331 2 1.0280000094845807e+00 -1.1669125743429397e+03 1.0000000000000000e+00 1.7333229015694183e+01 4.3688693398405540e+00 9.2810800948634782e+00 
1090 1091 2 1.0280000110630132e+00 -1.1667419139857632e+03 1.0000000000000000e+00 1.7343156495265454e+01 4.3757660132289216e+00 9.3794997908094988e+00 
1085 1086 2 1.0280000121322594e+00 -5.3011161623779492e+02 1.0000000000000000e+00 1.6121368689528246e+01 6.0547169610690110e+00 1.0086209447972838e+01 
624 625 2 1.0280000083092256e+00 -4.6254652580106149e+03 1.0000000000000000e+00 1.6579196145601614e+01 6.5077283460678386e+00 1.0572127082443824e+01 
1138 1139 2 1.0280000088290799e+00 1.9164388490340664e+03 1.0000000000000000e+00 1.6347342400990943e+01 6.3028717793017641e+00 1.1013161753106486e+01 
56 57 2 1.0280000156601263e+00 -3.2173041466248724e+03 1.0000000000000000e+00 1.7195348415716882e+01 8.0023240100011339e+00 9.4371032128618531e+00 
100 101 2 1.0280000006338945e+00 -3.2334046124261686e+03 1.0000000000000000e+00 1.3719014777843094e+01 1.0483900908439081e+01 1.0497655034394960e+01 
1403 1404 2 1.0280000006089873e+00 3.4788336529384123e+03 1.0000000000000000e+00 1.3953316029243597e+01 1.1378654061959249e+01 1.0761587394452654e+01 
53 54 2 1.0280000002076419e+00 -3.2328619973567193e+03 1.0000000000000000e+00 1.3906285470648699e+01 9.2330771170050756e+00 1.0885555840955204e+01 
124 125 2 1.0280000006989969e+00 -2.7032573289888051e+03 1.0000000000000000e+00 1.3017001770620643e+01 1.0744288262789183e+01 1.1022349886828172e+01 
337 338 2 1.0280000303521835e+00 3.0617062927795591e+03 1.0000000000000000e+00 1.7325813497101862e+01 8.9318539176636307e+00 9.1589097352273807e+00 
954 955 2 1.0280000296539709e+00 4.4643343706450114e+03 1.0000000000000000e+00 1.7327457915033985e+01 8.8858623696776249e+00 9.1833300260834996e+00 
340 341 2 1.0280000328859205e+00 3.0680484359584416e+03 1.0000000000000000e+00 1.7496358796483218e+01 9.0339691688826740e+00 9.2193013350512398e+00 
192 193 2 1.0280000004596130e+00 7.1738177249423989e+03 1.0000000000000000e+00 1.3993945116832874e+01 1.1683343963565449e+01 1.1024095757592114e+01 
955 956 2 1.0280000042141679e+00 4.4730614663197684e+03 1.0000000000000000e+00 1.9191756884334776e+01 1.6590807018334164e+01 8.4538359626258384e+00 
498 499 2 1.0280000042526971e+00 4.4629589136679106e+03 1.0000000000000000e+00 1.9191498437998568e+01 1.6590766417624003e+01 8.4539120608763039e+00 
622 623 2 1.0280000042550057e+00 6.3980959678504050e+03 1.0000000000000000e+00 1.9191479679818620e+01 1.6590764056872544e+01 8.4539177511028090e+00 
623 624 2 1.0279998999970061e+00 6.3953179231179738e+03 1.0000000000000000e+00 1.9193098936739720e+01 1.6810694586712248e+01 8.4634952176080027e+00 
646 647 2 1.0280000291019187e+00 1.4378178387225034e+03 1.0000000000000000e+00 1.9180858350900277e+01 1.5667023453051328e+01 8.5582945254645306e+00 
767 768 2 1.0279999385522576e+00 -2.5327919957247777e+03 1.0000000000000000e+00 1.9485103402820087e+01 1.9121725340405835e+01 8.7731675601478649e+00 
766 767 2 1.0279999855064967e+00 -2.5361035914413505e+03 1.0000000000000000e+00 1.9486199185376083e+01 1.9131152129364146e+01 8.7916422037888360e+00 
499 500 2 1.0280000133779041e+00 4.4745369370295721e+03 1.0000000000000000e+00 1.9487745771845461e+01 1.9146935788785804e+01 8.8061257046685277e+00 
441 442 2 1.0280000239041369e+00 -3.3167436274517127e+02 1.0000000000000000e+00 1.9492200048978340e+01 1.9159574135736630e+01 8.8152324482951929e+00 
7 8 2 1.0279999961082877e+00 -4.0981203571595379e+03 1.0000000000000000e+00 1.2313911074623253e+01 3.4249702404031805e+00 1.3857555809497594e+01 
6 7 2 1.0279999816084613e+00 -4.0909504351082996e+03 1.0000000000000000e+00 1.6062061206970942e+01 4.8919610607912158e+00 1.1969050563932694e+01 
1394 1395 2 1.0280000198766157e+00 4.0526336503402058e+03 1.0000000000000000e+00 1.4732112043304552e+01 5.2013414605237775e+00 1.2945993584491886e+01 
160 161 2 1.0279999807777527e+00 2.7719603359484022e+03 1.0000000000000000e+00 1.5577400622538631e+01 4.2286046282768170e+00 1.3089134351074168e+01 
771 772 2 1.0279999863689036e+00 -1.4341346111859496e+03 1.0000000000000000e+00 1.5692529159519852e+01 4.7412968289791646e+00 1.3091044391173407e+01 
1392 1393 2 1.0280000298868106e+00 -1.0540848663251945e+03 1.0000000000000000e+00 1.4631728409912251e+01 5.1624833804708672e+00 1.3201899590168095e+01 
811 812 2 1.0279999900790122e+00 -2.0100072127394180e+03 1.0000000000000000e+00 1.5190529552831446e+01 3.5449167035984348e+00 1.3498069851244651e+01 
995 996 2 1.0279999930633494e+00 4.7614605587416063e+03 1.0000000000000000e+00 1.3225815848640581e+01 8.3627190486325897e+00 1.1751808775165703e+01 
368 369 2 1.0279999964649857e+00 -1.0568179923892643e+04 1.0000000000000000e+00 1.3514884495592705e+01 6.8851131059286663e+00 1.2820088242533011e+01 
365 366 2 1.0279999861080489e+00 -1.0566277031489364e+04 1.0000000000000000e+00 1.2851539095891718e+01 7.5932498496005367e+00 1.3589202416357111e+01 
1395 1396 2 1.0279999893165745e+00 4.0456118328754401e+03 1.0000000000000000e+00 1.2389675046321130e+01 5.9928595374199052e+00 1.3867236031136548e+01 
1389 1390 2 1.0279999890618394e+00 -1.0611257453724838e+03 1.0000000000000000e+00 1.2408427142748181e+01 6.1627816451661266e+00 1.3881646176616941e+01 
1139 1140 2 1.0280000276062182e+00 1.9220611063301824e+03 1.0000000000000000e+00 1.5702476244119865e+01 6.0511231840949966e+00 1.1279271465167806e+01 
621 622 2 1.0279999949965319e+00 -4.6217908156222102e+03 1.0000000000000000e+00 1.6607323004058973e+01 5.8045797796295009e+00 1.1446293595363505e+01 
792 793 2 1.0280000151084940e+00 -3.2903780019154892e+03 1.0000000000000000e+00 1.4397526754580667e+01 8.2381520904806589e+00 1.2578317906920505e+01 
994 995 2 1.0280000058018834e+00 4.7612371764016998e+03 1.0000000000000000e+00 1.4294850604502642e+01 8.1203551337709960e+00 1.3291084107873539e+01 
305 306 2 1.0279999970241902e+00 7.6102935955928224e+03 1.0000000000000000e+00 1.3209410953734773e+01 9.0431026786491895e+00 1.1170957467536464e+01 
789 790 2 1.0279999978295160e+00 -3.2899684680717874e+03 1.0000000000000000e+00 1.3539720317126278e+01 8.6469890461530277e+00 1.1258829000236032e+01 
1174 1175 2 1.0280000008594723e+00 -5.4329392478668506e+03 1.0000000000000000e+00 1.3576707084870774e+01 9.1595144796650647e+00 1.3707723505981242e+01 
1358 1359 2 1.0280000012996098e+00 9.2910304121564295e+03 1.0000000000000000e+00 1.4158126293102917e+01 1.0566964827036823e+01 1.3799051735984229e+01 
846 847 2 1.0280000011313939e+00 -1.6982410200724548e+03 1.0000000000000000e+00 1.4773786492833379e+01 1.0340885506011903e+01 1.2338911354777824e+01 
883 884 2 1.0280000002695888e+00 5.7261633898931086e+02 1.0000000000000000e+00 1.4012020617267600e+01 1.1936466948354290e+01 1.1436981769435402e+01 
189 190 2 1.0279999995341966e+00 7.1825117536537637e+03 1.0000000000000000e+00 1.3810085691389620e+01 1.1790287750608684e+01 1.2828049917432438e+01 
695 696 2 1.0279999991144277e+00 -1.7084912150745035e+03 1.0000000000000000e+00 1.3936648916931540e+01 1.1636574171607670e+01 1.3090786675061615e+01 
548 549 2 1.0279999990705675e+00 -7.9455826798158450e+03 1.0000000000000000e+00 1.3930084232445394e+01 1.1615745624775842e+01 1.3116677709245016e+01 
832 833 2 1.0279999998374802e+00 9.4260513281902149e+02 1.0000000000000000e+00 7.8773495296560974e+00 2.2057480217958922e-01 1.6655903873792003e+01 
810 811 2 1.0279999961412014e+00 -2.0129177951734550e+03 1.0000000000000000e+00 1.2047760853244483e+01 2.5668631973932361e+00 1.4316195899655099e+01 
20 21 2 1.0279999950396188e+00 -3.2074644311692873e+03 1.0000000000000000e+00 1.2078532986077317e+01 2.2167153918699767e+00 1.4644549847156947e+01 
207 208 2 1.0279999946060048e+00 2.7724358906652815e+03 1.0000000000000000e+00 1.2244312961367006e+01 3.8899278472115481e-02 1.4718598840340103e+01 
1442 1443 2 1.0279999907769242e+00 7.3890235691878433e+02 1.0000000000000000e+00 1.2421457504751404e+01 7.1446938052992692e-01 1.4919064229950784e+01 
777 778 2 1.0279999994292914e+00 -7.9540476304301183e+03 1.0000000000000000e+00 1.1867454204000554e+01 2.8283699387950003e+00 1.5001368801896211e+01 
1450 1451 2 1.0280000124531834e+00 1.4264666437136725e+03 1.0000000000000000e+00 1.3959649949860946e+01 5.3068374610571678e-01 1.5661497505219520e+01 
204 205 2 1.0280000041634929e+00 4.2594168910410644e+03 1.0000000000000000e+00 1.2994446973283884e+01 2.8490441669911473e+00 1.5709909311552424e+01 
206 207 2 1.0279999922439165e+00 2.7732846369954977e+03 1.0000000000000000e+00 1.4676293726262378e+01 4.2682724508886860e-01 1.4267664854643781e+01 
17 18 2 1.0279999881922444e+00 -3.2089898004282218e+03 1.0000000000000000e+00 1.4811770239644879e+01 2.3026740173853075e+00 1.4321627955842319e+01 
780 781 2 1.0279999934077875e+00 -7.9547883887472808e+03 1.0000000000000000e+00 1.4967829632820330e+01 2.6917198309994430e+00 1.4365004267556005e+01 
1443 1444 2 1.0279999877210400e+00 7.4038407307060208e+02 1.0000000000000000e+00 1.4597193373342243e+01 9.6529225741044100e-01 1.4400693177641298e+01 
157 158 2 1.0279999928255834e+00 2.7715064606610035e+03 1.0000000000000000e+00 1.2047294136185853e+01 4.5587794154991235e+00 1.4046854678349593e+01 
770 771 2 1.0279999916901270e+00 -1.4350346057309903e+03 1.0000000000000000e+00 1.2128226899913573e+01 5.0623696089287327e+00 1.4122400245511425e+01 
1078 1079 2 1.0280000019651865e+00 -4.7724899472384204e+03 1.0000000000000000e+00 1.2009422463778442e+01 4.3205142373889727e+00 1.5042622507186453e+01 
1088 1089 2 1.0280000110056953e+00 -5.2972926026671882e+02 1.0000000000000000e+00 1.4118260698299972e+01 2.9367927569775283e+00 1.5479999339049204e+01 
1079 1080 2 1.0280000096029771e+00 -4.7725885132039293e+03 1.0000000000000000e+00 1.4789244951558418e+01 3.3533379390735081e+00 1.4737932645277969e+01 
308 309 2 1.0280000041427797e+00 7.6141359512936269e+03 1.0000000000000000e+00 1.3833511692119348e+01 8.0133392858059764e+00 1.4631456998454940e+01 
611 612 2 1.0280000132667271e+00 -4.7618009315277795e+03 1.0000000000000000e+00 1.3730225245420485e+01 6.7523089113925776e+00 1.5112433394290994e+01 
610 611 2 1.0280000259223745e+00 -4.7554938489527049e+03 1.0000000000000000e+00 1.3407828303469392e+01 6.4860164131515692e+00 1.5704307747576024e+01 
566 567 2 1.0279999865285763e+00 4.5408314537927818e+03 1.0000000000000000e+00 1.3145900288428315e+01 6.1966154415198842e+00 1.6561750547446440e+01 
881 882 2 1.0279999917461231e+00 -3.2710064106143609e+03 1.0000000000000000e+00 1.3117722715801321e+01 7.5872153457804545e+00 1.6595690588354085e+01 
259 260 2 1.0280000006228360e+00 -3.1467339216103674e+03 1.0000000000000000e+00 1.3884680414192507e+01 1.0637269957892340e+01 1.5154355529622130e+01 
694 695 2 1.0280000005037231e+00 -1.7117629752048247e+03 1.0000000000000000e+00 1.3864783596273760e+01 1.0753959743169213e+01 1.5418784621042038e+01 
601 602 2 1.0279999977420466e+00 6.8564057509402537e+03 1.0000000000000000e+00 1.2981080743422627e+01 9.4936928894149943e+00 1.6343996843877619e+01 
604 605 2 1.0279999997820826e+00 6.8584488025432329e+03 1.0000000000000000e+00 1.4540033325291621e+01 9.6098648395104025e+00 1.6219982544122157e+01 
1511 1512 2 1.0279999990266362e+00 3.0723941553727745e+03 1.0000000000000000e+00 1.4531542052998082e+01 9.5046403331898048e+00 1.6519224861423314e+01 
479 480 2 1.0279999998664975e+00 4.3880515713475052e+03 1.0000000000000000e+00 7.8668112605435461e+00 1.9098057501458734e-01 1.6671523855126754e+01 
353 354 2 1.0279999999044058e+00 -8.9337832879636044e+03 1.0000000000000000e+00 7.8946053668083849e+00 2.8602487952332961e-01 1.6686402343909208e+01 
405 406 2 1.0279999999212963e+00 -8.9008570681711099e+03 1.0000000000000000e+00 7.9005039534762664e+00 3.0559020888245325e-01 1.6695539462189593e+01 
962 963 2 1.0279999993991280e+00 5.7480595214953464e+03 1.0000000000000000e+00 9.2318034029418197e+00 1.3613656337853803e+00 1.7454856639086184e+01 
394 395 2 1.0279999993354418e+00 -1.4748385442230242e+03 1.0000000000000000e+00 9.4522580449384392e+00 1.4675794529073223e+00 1.7580358160155480e+01 
135 136 2 1.0279999994009761e+00 1.9705387884280822e+03 1.0000000000000000e+00 1.0070349013315598e+01 2.0051866834196210e+00 1.7945444287003248e+01 
136 137 2 1.0280000011140580e+00 -3.2275515937409591e+03 1.0000000000000000e+00 1.0362485029801999e+01 1.7493479570618344e+00 1.8694211834651107e+01 
587 588 2 1.0279999995681741e+00 4.3776868531521422e+03 1.0000000000000000e+00 1.0959327342576849e+01 6.4133452625309162e-01 1.8866202445950858e+01 
177 178 2 1.0280000010057408e+00 3.6712926291288040e+03 1.0000000000000000e+00 1.2644069488458317e+01 1.7539979936961794e-01 1.8572154640589424e+01 
439 440 2 1.0280000009412522e+00 1.5709484798185877e+03 1.0000000000000000e+00 1.1678321003899036e+01 1.0271591672851366e+00 1.8689535241639184e+01 
963 964 2 1.0279999983942572e+00 5.7476433944076334e+03 1.0000000000000000e+00 1.6938153220799297e+01 1.0104715790363601e+00 1.7588089215395158e+01 
395 396 2 1.0279999975634748e+00 -1.4752086447911311e+03 1.0000000000000000e+00 1.6653713647318295e+01 1.1005158988599471e+00 1.7713253209994434e+01 
134 135 2 1.0279999970278173e+00 1.9704412260877059e+03 1.0000000000000000e+00 1.5953760965202596e+01 1.4536259652661192e+00 1.8024625059489779e+01 
1463 1464 2 1.0279999970742586e+00 5.1289019547538719e+03 1.0000000000000000e+00 1.5198232409261854e+01 2.5067148362016742e+00 1.8274171349222627e+01 
438 439 2 1.0279999988467137e+00 1.5709364587051332e+03 1.0000000000000000e+00 1.4469952934501539e+01 5.7461905562171267e-01 1.8314016016394412e+01 
586 587 2 1.0279999961793387e+00 4.3779819601931695e+03 1.0000000000000000e+00 1.4858402033040436e+01 4.6342442508731407e-01 1.8714471062051629e+01 
133 134 2 1.0280000052434171e+00 -3.2272863435044669e+03 1.0000000000000000e+00 1.5181719713592667e+01 9.9796643902379234e-01 1.8940411855610964e+01 
829 830 2 1.0279999993865805e+00 9.4220230799303476e+02 1.0000000000000000e+00 1.8444540778339320e+01 1.9742745263740769e-01 1.7021657131979563e+01 
356 357 2 1.0279999994603881e+00 -8.9338606007299604e+03 1.0000000000000000e+00 1.8425344273522757e+01 2.1982641646272619e-01 1.7028617591618652e+01 
408 409 2 1.0279999994955009e+00 -8.9010935206897193e+03 1.0000000000000000e+00 1.8416578715316799e+01 2.2967869552448314e-01 1.7032558289801418e+01 
478 479 2 1.0279999996025968e+00 4.3884494385469325e+03 1.0000000000000000e+00 1.8466468652503181e+01 1.2632691258921261e-01 1.7095758711891296e+01 
366 367 2 1.0280000004703751e+00 -1.4395777293887190e+03 1.0000000000000000e+00 1.1379611624394386e+01 4.4669023022357148e+00 1.8238293762218483e+01 
1462 1463 2 1.0279999974261367e+00 5.1291792071619066e+03 1.0000000000000000e+00 1.0576698784130969e+01 3.0571013380565062e+00 1.8516962684625707e+01 
45 46 2 1.0279999974917273e+00 -2.0788446926543352e+03 1.0000000000000000e+00 1.0666150958636756e+01 3.2681588908563972e+00 1.8537715357746556e+01 
19 20 2 1.0280000013779669e+00 1.9816205482447376e+03 1.0000000000000000e+00 1.1053418806777426e+01 4.2950348072294693e+00 1.8806255531929750e+01 
102 103 2 1.0280000006030265e+00 1.9317690288539966e+03 1.0000000000000000e+00 1.4067901537170288e+01 4.8346316440634753e+00 1.6995914388570942e+01 
103 104 2 1.0280000060217578e+00 1.9379586738267762e+03 1.0000000000000000e+00 1.2649705206925358e+01 4.1180562751296019e+00 1.7373383560234306e+01 
1426 1427 2 1.0279999985664621e+00 5.1497603546393075e+03 1.0000000000000000e+00 1.2160334008236498e+01 5.1557143103667213e+00 1.8205529166956666e+01 
105 106 2 1.0279999989967419e+00 -2.0593180265659607e+03 1.0000000000000000e+00 1.2136333084465907e+01 5.1428355761485376e+00 1.8255257242871334e+01 
367 368 2 1.0280000020072080e+00 -1.4400759521007080e+03 1.0000000000000000e+00 1.4693107922876390e+01 4.3754925255032910e+00 1.7464798197925631e+01 
48 49 2 1.0279999971421290e+00 -2.0790362528492078e+03 1.0000000000000000e+00 1.5071735855996057e+01 3.0186447701026355e+00 1.8164534464846366e+01 
18 19 2 1.0279999991454651e+00 1.9808756392769424e+03 1.0000000000000000e+00 1.4897299196019778e+01 4.2091250325901370e+00 1.8235618040616323e+01 
1427 1428 2 1.0279999983296368e+00 5.1486761307422503e+03 1.0000000000000000e+00 1.4380070740264197e+01 4.5500431496081655e+00 1.8588573756627579e+01 
108 109 2 1.0279999985122810e+00 -2.0604454170673048e+03 1.0000000000000000e+00 1.4372033100130020e+01 4.5282468361052315e+00 1.8609563494160017e+01 
1519 1520 2 1.0280000009238133e+00 -6.4958197667989107e+03 1.0000000000000000e+00 1.3128952403437582e+01 7.5347452000709705e+00 1.7000749802334379e+01 
32 33 2 1.0280000090017019e+00 -2.7449094478948482e+03 1.0000000000000000e+00 1.3013523554432641e+01 7.7773074876383657e+00 1.7866396147109405e+01 
121 122 2 1.0280000008812851e+00 -2.7047739789784064e+03 1.0000000000000000e+00 1.3856761520017933e+01 7.5872867013845333e+00 1.8568552161568075e+01 
156 157 2 1.0279999996291440e+00 1.6854488718479226e+02 1.0000000000000000e+00 1.4466950834902343e+01 8.2183027268072486e+00 1.9273234001637466e+01 
729 730 2 1.0280000013799500e+00 -3.2624611451450137e+03 1.0000000000000000e+00 1.3562993460532072e+01 1.0899828301618667e+01 1.6818315819394858e+01 
412 413 2 1.0280000015935917e+00 4.5251571967103018e+03 1.0000000000000000e+00 1.3831238398720803e+01 1.0804698322678401e+01 1.7163881638452022e+01 
151 152 2 1.0280000008040171e+00 -6.4870935697554587e+03 1.0000000000000000e+00 1.3473352330030787e+01 1.0462338892070889e+01 1.7560966390064628e+01 
1468 1469 2 1.0279999994971696e+00 -3.2058786265071517e+03 1.0000000000000000e+00 1.3718086582126825e+01 1.0053934749035298e+01 1.8253098983523547e+01 
50 51 2 1.0280000057962853e+00 1.9827086257778637e+03 1.0000000000000000e+00 1.3937030749560277e+01 2.4252804934711385e+00 1.9984082971669139e+01 
180 181 2 1.0280000092536046e+00 3.6755365389593844e+03 1.0000000000000000e+00 1.3120780029399713e+01 9.8635812505691756e-01 2.0432260856321939e+01 
1108 1109 2 1.0280000023637885e+00 -2.1503158728437211e+03 1.0000000000000000e+00 1.3116604052892235e+01 1.0712316416480896e+00 2.0955890879429017e+01 
300 301 2 1.0279999977012766e+00 2.7453900171819901e+03 1.0000000000000000e+00 1.3910475039660714e+01 1.3256084039909151e+00 2.1602743438303971e+01 
1497 1498 2 1.0279999983724764e+00 -1.0485614925803900e+03 1.0000000000000000e+00 1.1559108129559510e+01 2.8423963377826706e+00 2.1871814652909393e+01 
1495 1496 2 1.0279999983113368e+00 4.0132884614516852e+03 1.0000000000000000e+00 1.1578155170184237e+01 2.7436864392326541e+00 2.1882020189700729e+01 
902 903 2 1.0279999983369232e+00 -1.4982225704262873e+03 1.0000000000000000e+00 1.1614718445247087e+01 2.5684491279103390e+00 2.1920300958197913e+01 
903 904 2 1.0280000001999592e+00 -1.4995387829683291e+03 1.0000000000000000e+00 1.4530215482285847e+01 2.1824020541827998e+00 2.0965736353210122e+01 
1494 1495 2 1.0279999994739484e+00 4.0120311132254137e+03 1.0000000000000000e+00 1.4618737165154934e+01 2.5109045423553602e+00 2.1543503151905131e+01 
1500 1501 2 1.0280000002251979e+00 -1.0501777952613670e+03 1.0000000000000000e+00 1.4613498173181874e+01 2.7243800178991786e+00 2.2054769983702766e+01 
51 52 2 1.0279999992587303e+00 1.9729201372377815e+03 1.0000000000000000e+00 1.2280853854049818e+01 3.3306758974575570e+00 1.9901368193432646e+01 
1202 1203 2 1.0280000070289435e+00 -4.7833834635795174e+03 1.0000000000000000e+00 1.1846435551290414e+01 4.7200091566200513e+00 2.0743468765278461e+01 
983 984 2 1.0280000003814942e+00 4.7673611725256378e+03 1.0000000000000000e+00 1.2214057307693501e+01 4.9477586469874577e+00 2.1095574262576996e+01 
393 394 2 1.0280000005818770e+00 -1.0584909345909313e+04 1.0000000000000000e+00 1.1680805812794341e+01 4.5691595532152212e+00 2.1299919713266618e+01 
453 454 2 1.0279999957201404e+00 7.6444001357518555e+03 1.0000000000000000e+00 1.2092465267873900e+01 5.0494567227396985e+00 2.1372087397006773e+01 
1203 1204 2 1.0280000004774796e+00 -4.7833947434925431e+03 1.0000000000000000e+00 1.4401870124162834e+01 4.2048298480759403e+00 2.1982167007273802e+01 
1312 1313 2 1.0280000021532651e+00 1.5803218791071508e+03 1.0000000000000000e+00 1.2546326653017189e+01 7.9026248287578129e+00 1.9553800078404493e+01 
639 640 2 1.0279999999151404e+00 5.7676501744743462e+02 1.0000000000000000e+00 1.4121138066627374e+01 7.9971063943080161e+00 2.0244634677686349e+01 
1073 1074 2 1.0280000017974003e+00 -2.6879829963712982e+03 1.0000000000000000e+00 1.2306447613393164e+01 8.4218366176110120e+00 2.0695144049390532e+01 
927 928 2 1.0280000015663229e+00 -4.9580857991750618e+03 1.0000000000000000e+00 1.2117460576641836e+01 7.8521978554712790e+00 2.1718533113494846e+01 
732 733 2 1.0279999986236312e+00 -3.2612702844515147e+03 1.0000000000000000e+00 1.3704875160514469e+01 9.5438450821441769e+00 1.9878132947994079e+01 
1205 1206 2 1.0280000009079684e+00 -2.7044099028229148e+03 1.0000000000000000e+00 1.2380077423240401e+01 8.6273043527042983e+00 1.9993062793358682e+01 
150 151 2 1.0279999987715682e+00 -6.4847628929355269e+03 1.0000000000000000e+00 1.3688123000072109e+01 9.4578854082324284e+00 2.0069549248617129e+01 
606 607 2 1.0279999989308983e+00 3.5152435315145658e+03 1.0000000000000000e+00 1.4495166734422789e+01 8.6263592226502297e+00 1.9757306768333251e+01 
297 298 2 1.0279999993822198e+00 2.7469781737965382e+03 1.0000000000000000e+00 1.1635177878714645e+01 1.6515658922365781e+00 2.2580620799427098e+01 
1061 1062 2 1.0280000015068125e+00 5.7113377848217715e+03 1.0000000000000000e+00 1.1693374037047569e+01 9.2236262744674793e-02 2.2999742623708396e+01 
147 148 2 1.0280000002752359e+00 -4.0789297511877330e+03 1.0000000000000000e+00 1.1742730470434612e+01 1.3330365034328153e+00 2.3905072573807761e+01 
146 147 2 1.0280000009152295e+00 -4.0772481648882758e+03 1.0000000000000000e+00 1.3340612179412107e+01 7.7333529673330859e-01 2.4000717725578362e+01 
896 897 2 1.0279999994091347e+00 -7.9664965462276214e+03 1.0000000000000000e+00 1.3164387525582422e+01 1.8069405154072868e-01 2.4206940935592002e+01 
893 894 2 1.0280000005661682e+00 -7.9669297499467302e+03 1.0000000000000000e+00 1.2012326219374428e+01 7.1905058303456837e-01 2.4287792771692498e+01 
874 875 2 1.0280000050406155e+00 1.4656367778640779e+03 1.0000000000000000e+00 1.2722661318829612e+01 2.7619824825412964e+00 2.4350592619222983e+01 
982 983 2 1.0279999992559130e+00 4.7687376369395333e+03 1.0000000000000000e+00 1.4281720051304173e+01 4.4721413963047789e+00 2.2687120554232866e+01 
456 457 2 1.0279999995229943e+00 7.6451249467440011e+03 1.0000000000000000e+00 1.4252506446472555e+01 4.4131630789969192e+00 2.2909415560170114e+01 
1376 1377 2 1.0280000052527996e+00 -4.0158899938468807e+02 1.0000000000000000e+00 1.2820660810983739e+01 4.5475444312767221e+00 2.3727657654134397e+01 
888 889 2 1.0280000019382418e+00 -3.1030982059204443e+03 1.0000000000000000e+00 1.3029194731753837e+01 3.0676803679141571e+00 2.4058457074737589e+01 
396 397 2 1.0280000004207204e+00 -1.0585286291519005e+04 1.0000000000000000e+00 1.4484440186224333e+01 4.1964356761359696e+00 2.2468609471499516e+01 
1492 1493 2 1.0280000019974627e+00 -2.6971017195124041e+03 1.0000000000000000e+00 1.2715877094918246e+01 7.7536497966967302e+00 2.2350393395439365e+01 
882 883 2 1.0280000009265882e+00 5.9705181395481736e+02 1.0000000000000000e+00 1.2181826329492871e+01 7.6133308264347219e+00 2.2354638860101488e+01 
458 459 2 1.0279999986337649e+00 3.5307473428010835e+03 1.0000000000000000e+00 1.2849641781758685e+01 7.0928196414986635e+00 2.2781053594851553e+01 
830 831 2 1.0279999997817522e+00 1.2762529829569457e+03 1.0000000000000000e+00 1.2383290086914693e+01 6.9185861205251502e+00 2.2964286548811057e+01 
326 327 2 1.0279999967579045e+00 -4.5522770140897244e+01 1.0000000000000000e+00 1.2732994309461260e+01 6.4316532123685288e+00 2.3224022554616639e+01 
885 886 2 1.0280000066569535e+00 -3.1071329268455902e+03 1.0000000000000000e+00 1.2765020103241422e+01 2.3873494181102854e+00 2.5940155363103365e+01 
875 876 2 1.0280000032132046e+00 1.4694131232450979e+03 1.0000000000000000e+00 1.2912747968553713e+01 2.3815870352528448e+00 2.6772282662721622e+01 
758 759 2 1.0280000031345515e+00 -4.7910306646062909e+03 1.0000000000000000e+00 1.2766521811607966e+01 2.3819374626649474e+00 2.6782364209147914e+01 
759 760 2 1.0280000026262313e+00 -4.7893789154250662e+03 1.0000000000000000e+00 1.3040973931742039e+01 2.4143684357228472e+00 2.6892490808037689e+01 
1011 1012 2 1.0279999918785401e+00 8.8817554149164498e+03 1.0000000000000000e+00 1.3147890412442537e+01 3.6797777763725157e+00 2.5042713289067425e+01 
721 722 2 1.0279999973315384e+00 -4.3494601714570417e+03 1.0000000000000000e+00 1.2036725844679914e+01 4.5923561520538465e+00 2.6797873699683052e+01 
143 144 2 1.0279999976302732e+00 3.0691892734472822e+03 1.0000000000000000e+00 1.2333011919661438e+01 5.0868656610827161e+00 2.6980632636266673e+01 
414 415 2 1.0279999975832035e+00 -5.4283713128021373e+03 1.0000000000000000e+00 1.2566021551511213e+01 5.0790558628309581e+00 2.7088040091919904e+01 
1465 1466 2 1.0280000039231254e+00 -3.2144242064311138e+03 1.0000000000000000e+00 1.2711226737583633e+01 5.8599230052660740e+00 2.5244129249491163e+01 
1062 1063 2 1.0280000033813166e+00 3.5119917709852807e+03 1.0000000000000000e+00 1.2971646334044356e+01 5.7959862321086790e+00 2.5262030639461159e+01 
1400 1401 2 1.0280000021523485e+00 -2.7445631290093229e+03 1.0000000000000000e+00 1.2658663633974106e+01 5.9429990067076286e+00 2.5896787620103083e+01 
1489 1490 2 1.0280000013682213e+00 -2.6991424285330258e+03 1.0000000000000000e+00 1.2941552466844866e+01 5.8062346225486383e+00 2.6172631729223319e+01 
1510 1511 2 1.0280000043571798e+00 3.0714160491980483e+03 1.0000000000000000e+00 1.3200230273784305e+01 2.7682661110022999e+00 2.8555432278000644e+01 
884 885 2 1.0280000000432061e+00 -3.2690412468826798e+03 1.0000000000000000e+00 1.2751030961594092e+01 1.7762887356378163e+00 2.9949328986387599e+01 
450 451 2 1.0279999986755786e+00 4.3880958332479540e+03 1.0000000000000000e+00 1.1460147387726394e+01 1.7027382663365718e+00 3.0519654956643777e+01 
311 312 2 1.0280000014350203e+00 4.3948438007742589e+03 1.0000000000000000e+00 1.3211915007414767e+01 3.2402670915483358e+00 2.8438099084217985e+01 
1397 1398 2 1.0279999983314358e+00 -2.7443574206940389e+03 1.0000000000000000e+00 1.2582603921223733e+01 3.6744721770401880e+00 2.8508236034476770e+01 
258 259 2 1.0279999998089655e+00 -3.1522901244411514e+03 1.0000000000000000e+00 1.1872176491614429e+01 3.0330545569871945e+00 2.9637610727421048e+01 
415 416 2 1.0280000006685928e+00 -5.4290675146285957e+03 1.0000000000000000e+00 1.2561760113418604e+01 3.2127278533886430e+00 3.0079872699983845e+01 
724 725 2 1.0279999990513213e+00 -4.3752017285838174e+03 1.0000000000000000e+00 1.1436480507368419e+01 2.1145360995369624e+00 3.0567009182026499e+01 
554 555 2 1.0280000011369603e+00 8.9465749493949988e+03 1.0000000000000000e+00 1.2377364093395697e+01 2.4162797652200698e+00 3.1223893556527667e+01 