LAMMPS data file via write_data, version 30 Jul 2016, timestep = 1000000

2080 atoms
8 atom types

0.0000000000000000e+00 4.0000000000000000e+01 xlo xhi
0.0000000000000000e+00 4.0000000000000000e+01 ylo yhi
0.0000000000000000e+00 1.0000000000000000e+02 zlo zhi

Masses

1 3.896
2 21.44
3 1058.08
4 8.378
5 8.378
6 8.378
7 8.378
8 8.378

Atoms # meso-molecular

1 2 4 2.2559723595316457e+00 2.5296091436921059e+04 4.2000000000000000e+03 0.0000000000000000e+00 0.0000000000000000e+00 2.5000000000000000e+00 
21 2 4 2.2559723595316457e+00 5.3158747141252318e+05 4.2000000000000000e+03 2.0000000000000000e+00 0.0000000000000000e+00 2.5000000000000000e+00 
41 2 4 2.2559723595316457e+00 1.8883582743796165e+05 4.2000000000000000e+03 4.0000000000000000e+00 0.0000000000000000e+00 2.5000000000000000e+00 
61 2 4 2.2559723595316457e+00 7.5404246192709747e+04 4.2000000000000000e+03 6.0000000000000000e+00 0.0000000000000000e+00 2.5000000000000000e+00 
81 2 4 2.2576133539988432e+00 2.5180049539938330e+05 4.2000000000000000e+03 8.0000000000000000e+00 0.0000000000000000e+00 2.5000000000000000e+00 
101 2 4 2.2560115395597129e+00 5.6415367805862435e+04 4.2000000000000000e+03 1.0000000000000000e+01 0.0000000000000000e+00 2.5000000000000000e+00 
121 2 4 2.2559723595316457e+00 -5.9251668966303405e+04 4.2000000000000000e+03 1.2000000000000000e+01 0.0000000000000000e+00 2.5000000000000000e+00 
141 2 4 2.2559723595316457e+00 -2.4162067244168185e+05 4.2000000000000000e+03 1.4000000000000000e+01 0.0000000000000000e+00 2.5000000000000000e+00 
161 2 4 2.2559723595316457e+00 -4.9753397094478292e+04 4.2000000000000000e+03 1.6000000000000000e+01 0.0000000000000000e+00 2.5000000000000000e+00 
181 2 4 2.2561171622755625e+00 -2.6987218234026528e+04 4.2000000000000000e+03 1.8000000000000000e+01 0.0000000000000000e+00 2.5000000000000000e+00 
2 2 4 2.2559723595316457e+00 4.0276740441643447e+05 4.2000000000000000e+03 0.0000000000000000e+00 2.0000000000000000e+00 2.5000000000000000e+00 
22 2 4 2.2559723595316457e+00 4.3700758999993966e+05 4.2000000000000000e+03 2.0000000000000000e+00 2.0000000000000000e+00 2.5000000000000000e+00 
42 2 4 2.2559723595316457e+00 -2.1875368697347396e+04 4.2000000000000000e+03 4.0000000000000000e+00 2.0000000000000000e+00 2.5000000000000000e+00 
62 2 4 2.2559723595316457e+00 1.9762319902298320e+05 4.2000000000000000e+03 6.0000000000000000e+00 2.0000000000000000e+00 2.5000000000000000e+00 
82 2 4 2.2559723595316457e+00 6.1840550580119787e+04 4.2000000000000000e+03 8.0000000000000000e+00 2.0000000000000000e+00 2.5000000000000000e+00 
102 2 4 2.2559723595316457e+00 2.3493225373932795e+05 4.2000000000000000e+03 1.0000000000000000e+01 2.0000000000000000e+00 2.5000000000000000e+00 
122 2 4 2.2559723595316457e+00 2.8962381138448615e+05 4.2000000000000000e+03 1.2000000000000000e+01 2.0000000000000000e+00 2.5000000000000000e+00 
142 2 4 2.2559723595316457e+00 2.3814023927758104e+05 4.2000000000000000e+03 1.4000000000000000e+01 2.0000000000000000e+00 2.5000000000000000e+00 
162 2 4 2.2559723595316457e+00 1.2618580057777569e+05 4.2000000000000000e+03 1.6000000000000000e+01 2.0000000000000000e+00 2.5000000000000000e+00 
182 2 4 2.2559723595316457e+00 1.8688084331137004e+04 4.2000000000000000e+03 1.8000000000000000e+01 2.0000000000000000e+00 2.5000000000000000e+00 
3 2 4 2.2559723595316457e+00 1.9638968696113036e+05 4.2000000000000000e+03 0.0000000000000000e+00 4.0000000000000000e+00 2.5000000000000000e+00 
23 2 4 2.2559723595316457e+00 -1.0049093396180906e+05 4.2000000000000000e+03 2.0000000000000000e+00 4.0000000000000000e+00 2.5000000000000000e+00 
43 2 4 2.2559723595316457e+00 1.8432210063167388e+05 4.2000000000000000e+03 4.0000000000000000e+00 4.0000000000000000e+00 2.5000000000000000e+00 
63 2 4 2.2559723595316457e+00 2.2220317165032862e+05 4.2000000000000000e+03 6.0000000000000000e+00 4.0000000000000000e+00 2.5000000000000000e+00 
83 2 4 2.2559723595316457e+00 1.2120908883365904e+05 4.2000000000000000e+03 8.0000000000000000e+00 4.0000000000000000e+00 2.5000000000000000e+00 
103 2 4 2.2559723595316457e+00 -1.5344243201612617e+05 4.2000000000000000e+03 1.0000000000000000e+01 4.0000000000000000e+00 2.5000000000000000e+00 
123 2 4 2.2559723595316457e+00 2.0089189729683514e+05 4.2000000000000000e+03 1.2000000000000000e+01 4.0000000000000000e+00 2.5000000000000000e+00 
143 2 4 2.2559723595316457e+00 2.5042857191236678e+05 4.2000000000000000e+03 1.4000000000000000e+01 4.0000000000000000e+00 2.5000000000000000e+00 
163 2 4 2.2559723595316457e+00 2.0455298587378941e+05 4.2000000000000000e+03 1.6000000000000000e+01 4.0000000000000000e+00 2.5000000000000000e+00 
183 2 4 2.2559723595316457e+00 -1.1464060258958553e+05 4.2000000000000000e+03 1.8000000000000000e+01 4.0000000000000000e+00 2.5000000000000000e+00 
4 2 4 2.2559723595316457e+00 5.2641806358462585e+04 4.2000000000000000e+03 0.0000000000000000e+00 6.0000000000000000e+00 2.5000000000000000e+00 
24 2 4 2.2559723595316457e+00 -4.5507958731699391e+03 4.2000000000000000e+03 2.0000000000000000e+00 6.0000000000000000e+00 2.5000000000000000e+00 
44 2 4 2.2559723595316457e+00 1.6593741063439305e+05 4.2000000000000000e+03 4.0000000000000000e+00 6.0000000000000000e+00 2.5000000000000000e+00 
64 2 4 2.2559723595316457e+00 9.1402111547476758e+04 4.2000000000000000e+03 6.0000000000000000e+00 6.0000000000000000e+00 2.5000000000000000e+00 
84 2 4 2.2559723595316457e+00 3.9717760464430402e+05 4.2000000000000000e+03 8.0000000000000000e+00 6.0000000000000000e+00 2.5000000000000000e+00 
104 2 4 2.2559723595316457e+00 -3.8505544393787673e+05 4.2000000000000000e+03 1.0000000000000000e+01 6.0000000000000000e+00 2.5000000000000000e+00 
124 2 4 2.2559723595316457e+00 -2.2622862913338584e+05 4.2000000000000000e+03 1.2000000000000000e+01 6.0000000000000000e+00 2.5000000000000000e+00 
144 2 4 2.2559723595316457e+00 -3.5425534500144015e+05 4.2000000000000000e+03 1.4000000000000000e+01 6.0000000000000000e+00 2.5000000000000000e+00 
164 2 4 2.2559723595316457e+00 -5.5347165939304265e+04 4.2000000000000000e+03 1.6000000000000000e+01 6.0000000000000000e+00 2.5000000000000000e+00 
184 2 4 2.2559723595316457e+00 1.4583172038542182e+05 4.2000000000000000e+03 1.8000000000000000e+01 6.0000000000000000e+00 2.5000000000000000e+00 
5 2 4 2.2559723595316457e+00 4.5567097608528507e+04 4.2000000000000000e+03 0.0000000000000000e+00 8.0000000000000000e+00 2.5000000000000000e+00 
25 2 4 2.2559723595316457e+00 -9.1100170592899929e+04 4.2000000000000000e+03 2.0000000000000000e+00 8.0000000000000000e+00 2.5000000000000000e+00 
45 2 4 2.2559723595316457e+00 1.0842676376878025e+05 4.2000000000000000e+03 4.0000000000000000e+00 8.0000000000000000e+00 2.5000000000000000e+00 
65 2 4 2.2559723595316457e+00 -7.6214562937756709e+04 4.2000000000000000e+03 6.0000000000000000e+00 8.0000000000000000e+00 2.5000000000000000e+00 
85 2 4 2.2559723595316457e+00 -1.9752964078988071e+05 4.2000000000000000e+03 8.0000000000000000e+00 8.0000000000000000e+00 2.5000000000000000e+00 
105 2 4 2.2559723595316457e+00 -1.7859337198546087e+04 4.2000000000000000e+03 1.0000000000000000e+01 8.0000000000000000e+00 2.5000000000000000e+00 
125 2 4 2.2559723595316457e+00 6.4974586169235088e+04 4.2000000000000000e+03 1.2000000000000000e+01 8.0000000000000000e+00 2.5000000000000000e+00 
145 2 4 2.2559723595316457e+00 1.7621494616171095e+05 4.2000000000000000e+03 1.4000000000000000e+01 8.0000000000000000e+00 2.5000000000000000e+00 
165 2 4 2.2559723595316457e+00 -2.3734618353946169e+05 4.2000000000000000e+03 1.6000000000000000e+01 8.0000000000000000e+00 2.5000000000000000e+00 
185 2 4 2.2559723595316457e+00 8.5542159368417168e+04 4.2000000000000000e+03 1.8000000000000000e+01 8.0000000000000000e+00 2.5000000000000000e+00 
6 2 4 2.2559723595316457e+00 2.0367610934646940e+05 4.2000000000000000e+03 0.0000000000000000e+00 1.0000000000000000e+01 2.5000000000000000e+00 
26 2 4 2.2559723595316457e+00 -7.6514716103717103e+04 4.2000000000000000e+03 2.0000000000000000e+00 1.0000000000000000e+01 2.5000000000000000e+00 
46 2 4 2.2559723595316457e+00 -7.2497582899376779e+04 4.2000000000000000e+03 4.0000000000000000e+00 1.0000000000000000e+01 2.5000000000000000e+00 
66 2 4 2.2559723595316457e+00 -8.3976964427561121e+04 4.2000000000000000e+03 6.0000000000000000e+00 1.0000000000000000e+01 2.5000000000000000e+00 
86 2 4 2.2559723595316457e+00 4.4055180384237305e+04 4.2000000000000000e+03 8.0000000000000000e+00 1.0000000000000000e+01 2.5000000000000000e+00 
106 2 4 2.2559723595316457e+00 2.2320967024490162e+05 4.2000000000000000e+03 1.0000000000000000e+01 1.0000000000000000e+01 2.5000000000000000e+00 
126 2 4 2.2559723595316457e+00 -1.8922144790536840e+05 4.2000000000000000e+03 1.2000000000000000e+01 1.0000000000000000e+01 2.5000000000000000e+00 
146 2 4 2.2559723595316457e+00 2.3195425260746945e+05 4.2000000000000000e+03 1.4000000000000000e+01 1.0000000000000000e+01 2.5000000000000000e+00 
166 2 4 2.2559723595316457e+00 -1.0863598001834276e+05 4.2000000000000000e+03 1.6000000000000000e+01 1.0000000000000000e+01 2.5000000000000000e+00 
186 2 4 2.2559723595316457e+00 -1.2534126369001190e+05 4.2000000000000000e+03 1.8000000000000000e+01 1.0000000000000000e+01 2.5000000000000000e+00 
7 2 4 2.2559723595316457e+00 9.9340816197076667e+04 4.2000000000000000e+03 0.0000000000000000e+00 1.2000000000000000e+01 2.5000000000000000e+00 
27 2 4 2.2559723595316457e+00 2.0031299405051395e+05 4.2000000000000000e+03 2.0000000000000000e+00 1.2000000000000000e+01 2.5000000000000000e+00 
47 2 4 2.2559723595316457e+00 8.7402221173799655e+04 4.2000000000000000e+03 4.0000000000000000e+00 1.2000000000000000e+01 2.5000000000000000e+00 
67 2 4 2.2559723595316457e+00 -1.4433664363477487e+05 4.2000000000000000e+03 6.0000000000000000e+00 1.2000000000000000e+01 2.5000000000000000e+00 
87 2 4 2.2559723595316457e+00 -2.6557849412800650e+04 4.2000000000000000e+03 8.0000000000000000e+00 1.2000000000000000e+01 2.5000000000000000e+00 
107 2 4 2.2559723595316457e+00 2.4789945450973400e+05 4.2000000000000000e+03 1.0000000000000000e+01 1.2000000000000000e+01 2.5000000000000000e+00 
127 2 4 2.2559723595316457e+00 -1.7882740193291818e+05 4.2000000000000000e+03 1.2000000000000000e+01 1.2000000000000000e+01 2.5000000000000000e+00 
147 2 4 2.2559723595316457e+00 -5.1345156732535354e+04 4.2000000000000000e+03 1.4000000000000000e+01 1.2000000000000000e+01 2.5000000000000000e+00 
167 2 4 2.2559723595316457e+00 6.7142722530200030e+04 4.2000000000000000e+03 1.6000000000000000e+01 1.2000000000000000e+01 2.5000000000000000e+00 
187 2 4 2.2559723595316457e+00 -3.9911337677394249e+05 4.2000000000000000e+03 1.8000000000000000e+01 1.2000000000000000e+01 2.5000000000000000e+00 
8 2 4 2.2559723595316457e+00 2.2192973649387000e+04 4.2000000000000000e+03 0.0000000000000000e+00 1.4000000000000000e+01 2.5000000000000000e+00 
28 2 4 2.2559723595316457e+00 7.6548977746383403e+04 4.2000000000000000e+03 2.0000000000000000e+00 1.4000000000000000e+01 2.5000000000000000e+00 
48 2 4 2.2559723595316457e+00 2.8983754929741193e+05 4.2000000000000000e+03 4.0000000000000000e+00 1.4000000000000000e+01 2.5000000000000000e+00 
68 2 4 2.2559723595316457e+00 1.8181216437904612e+05 4.2000000000000000e+03 6.0000000000000000e+00 1.4000000000000000e+01 2.5000000000000000e+00 
88 2 4 2.2559723595316457e+00 -8.0105960519351123e+04 4.2000000000000000e+03 8.0000000000000000e+00 1.4000000000000000e+01 2.5000000000000000e+00 
108 2 4 2.2559723595316457e+00 -1.9903006115107586e+04 4.2000000000000000e+03 1.0000000000000000e+01 1.4000000000000000e+01 2.5000000000000000e+00 
128 2 4 2.2559723595316457e+00 5.2891835855683731e+05 4.2000000000000000e+03 1.2000000000000000e+01 1.4000000000000000e+01 2.5000000000000000e+00 
148 2 4 2.2559723595316457e+00 5.5906070728843682e+04 4.2000000000000000e+03 1.4000000000000000e+01 1.4000000000000000e+01 2.5000000000000000e+00 
168 2 4 2.2559723595316457e+00 4.5983591343144409e+05 4.2000000000000000e+03 1.6000000000000000e+01 1.4000000000000000e+01 2.5000000000000000e+00 
188 2 4 2.2559723595316457e+00 -2.4810180723670992e+05 4.2000000000000000e+03 1.8000000000000000e+01 1.4000000000000000e+01 2.5000000000000000e+00 
9 2 4 2.2559723595316457e+00 2.5252652871712379e+05 4.2000000000000000e+03 0.0000000000000000e+00 1.6000000000000000e+01 2.5000000000000000e+00 
29 2 4 2.2559723595316457e+00 2.4515112031613337e+05 4.2000000000000000e+03 2.0000000000000000e+00 1.6000000000000000e+01 2.5000000000000000e+00 
49 2 4 2.2559723595316457e+00 2.0494810512909008e+05 4.2000000000000000e+03 4.0000000000000000e+00 1.6000000000000000e+01 2.5000000000000000e+00 
69 2 4 2.2559723595316457e+00 4.5040059970687551e+04 4.2000000000000000e+03 6.0000000000000000e+00 1.6000000000000000e+01 2.5000000000000000e+00 
89 2 4 2.2559723595316457e+00 2.9486533689181801e+04 4.2000000000000000e+03 8.0000000000000000e+00 1.6000000000000000e+01 2.5000000000000000e+00 
109 2 4 2.2559723595316457e+00 1.5313181089725858e+04 4.2000000000000000e+03 1.0000000000000000e+01 1.6000000000000000e+01 2.5000000000000000e+00 
129 2 4 2.2559723595316457e+00 1.8505113613716757e+05 4.2000000000000000e+03 1.2000000000000000e+01 1.6000000000000000e+01 2.5000000000000000e+00 
149 2 4 2.2559723595316457e+00 -1.5453317219696270e+05 4.2000000000000000e+03 1.4000000000000000e+01 1.6000000000000000e+01 2.5000000000000000e+00 
169 2 4 2.2559723595316457e+00 1.4114603534103074e+05 4.2000000000000000e+03 1.6000000000000000e+01 1.6000000000000000e+01 2.5000000000000000e+00 
189 2 4 2.2559723595316457e+00 -3.0741365157689713e+05 4.2000000000000000e+03 1.8000000000000000e+01 1.6000000000000000e+01 2.5000000000000000e+00 
10 2 4 2.2559723595316457e+00 -3.1337490593565999e+04 4.2000000000000000e+03 0.0000000000000000e+00 1.8000000000000000e+01 2.5000000000000000e+00 
30 2 4 2.2559723595316457e+00 -1.4020381606103285e+04 4.2000000000000000e+03 2.0000000000000000e+00 1.8000000000000000e+01 2.5000000000000000e+00 
50 2 4 2.2559723595316457e+00 4.2570344161635858e+05 4.2000000000000000e+03 4.0000000000000000e+00 1.8000000000000000e+01 2.5000000000000000e+00 
70 2 4 2.2559723595316457e+00 -1.4981023016000492e+05 4.2000000000000000e+03 6.0000000000000000e+00 1.8000000000000000e+01 2.5000000000000000e+00 
90 2 4 2.2559723595316457e+00 4.8735955104025095e+04 4.2000000000000000e+03 8.0000000000000000e+00 1.8000000000000000e+01 2.5000000000000000e+00 
110 2 4 2.2559723595316457e+00 -6.0576985992782560e+04 4.2000000000000000e+03 1.0000000000000000e+01 1.8000000000000000e+01 2.5000000000000000e+00 
130 2 4 2.2559723595316457e+00 2.4870556273605503e+05 4.2000000000000000e+03 1.2000000000000000e+01 1.8000000000000000e+01 2.5000000000000000e+00 
150 2 4 2.2559723595316457e+00 -2.6155287056054833e+05 4.2000000000000000e+03 1.4000000000000000e+01 1.8000000000000000e+01 2.5000000000000000e+00 
170 2 4 2.2559723595316457e+00 -9.8190857641163639e+03 4.2000000000000000e+03 1.6000000000000000e+01 1.8000000000000000e+01 2.5000000000000000e+00 
190 2 4 2.2559723595316457e+00 -1.6485486243609228e+05 4.2000000000000000e+03 1.8000000000000000e+01 1.8000000000000000e+01 2.5000000000000000e+00 
1475 1077 2 1.7105840654397670e+00 -6.5263315389616834e+05 4.2000000000000000e+03 1.0132650858354864e+00 5.7472121924342776e+00 5.5621829845158697e+00 
843 445 2 1.7105840654397670e+00 2.8645517137367092e+05 4.2000000000000000e+03 1.4893054291592762e+01 1.5591367502054327e+01 5.3470810872922492e+00 
498 100 2 1.7107936778068265e+00 7.2223007535159215e+05 4.2000000000000000e+03 1.1397172385578365e+01 1.9583905578583636e+01 5.1950740898560062e+00 
1540 1142 2 1.7105840654397670e+00 5.6810407347759232e+05 4.2000000000000000e+03 2.6367832302727869e+00 3.4823467667888921e+00 7.6508147176746455e+00 
1853 1455 2 1.7107053846128313e+00 -3.5294827064623131e+05 4.2000000000000000e+03 1.4365453468461350e+01 2.7615824003132023e+00 7.4967277258522795e+00 
1294 896 2 1.7107057251855740e+00 -3.7898592110601446e+05 4.2000000000000000e+03 1.8162229010316125e+01 3.4855361116764301e+00 6.9076337542740491e+00 
967 569 2 1.7105866538583143e+00 -1.1051502817665839e+05 4.2000000000000000e+03 5.1832998285825784e+00 5.6640213867536175e+00 7.1082337784084997e+00 
858 460 2 1.7105840654397670e+00 -1.0417428940225549e+06 4.2000000000000000e+03 9.3389457642371134e+00 8.0160674637825071e+00 6.2110574347895584e+00 
2013 1615 2 1.7105840654397670e+00 -2.2501896347371669e+05 4.2000000000000000e+03 1.5228173315304666e+01 8.3909644329316020e+00 6.4878928067337247e+00 
1555 1157 2 1.7105840654397670e+00 1.5513423995612346e+05 4.2000000000000000e+03 4.7149107957900709e+00 1.3046286477213130e+01 6.7223468242473281e+00 
1719 1321 2 1.7105840654397670e+00 -2.9798414411701669e+05 4.2000000000000000e+03 1.2901792248773646e+01 1.2756601032757306e+01 6.6112541168725985e+00 
1049 651 2 1.7105840654397670e+00 1.9008351592612052e+06 4.2000000000000000e+03 1.7164301723038829e+01 1.2769502636745871e+01 7.6695994387901667e+00 
1393 995 2 1.7105840654397670e+00 3.1815606373421929e+05 4.2000000000000000e+03 2.1140759749093818e+00 1.5842156042917098e+01 7.1441494950812618e+00 
1121 723 2 1.7105840654397670e+00 1.7143622768558720e+06 4.2000000000000000e+03 1.1761649349814821e+01 1.6316024332483234e+01 6.3307578757287031e+00 
827 429 2 1.7105840654397670e+00 1.1783086583509497e+05 4.2000000000000000e+03 3.0570181262474883e+00 1.9301075125770154e+01 6.8787021755839231e+00 
1350 952 2 1.7105840654397670e+00 -3.5621640926027135e+05 4.2000000000000000e+03 1.3695978781718720e+01 1.8904903146673202e+01 7.3824754965265491e+00 
747 349 2 1.7105840654397670e+00 3.9362526906208403e+05 4.2000000000000000e+03 1.8892161691756943e+01 1.8786997910941587e+01 6.4475803959863658e+00 
1111 713 2 1.7105840654397670e+00 5.8971365518930624e+05 4.2000000000000000e+03 1.1691935216740148e+01 4.5635898614670669e+00 9.2635917307206483e+00 
1527 1129 2 1.7107057251855740e+00 -6.8912393214322755e+05 4.2000000000000000e+03 1.8735496158866429e+01 4.4328988417140769e+00 9.5486918775244227e+00 
1602 1204 2 1.7105866538583143e+00 -1.0681715378741163e+06 4.2000000000000000e+03 5.3863501983150659e+00 8.0037552874753182e+00 8.9101447503580324e+00 
1336 938 2 1.7105840654397670e+00 5.9090758200253971e+04 4.2000000000000000e+03 2.4453679944434010e+00 1.0641416456802952e+01 7.9570315159896499e+00 
1762 1364 2 1.7105840654397670e+00 3.6097887394005025e+05 4.2000000000000000e+03 1.0988748373036740e+01 1.0467183492043615e+01 9.3911547157379243e+00 
1517 1119 2 1.7105840654397670e+00 1.6185803786246973e+05 4.2000000000000000e+03 1.0129403890245813e+01 1.4870033099077917e+01 8.5066214089507390e+00 
1642 1244 2 1.7232979394182266e+00 -8.5401917044395907e+05 4.2000000000000000e+03 5.6413062707094337e+00 2.9584273260444336e+00 1.1312315165053842e+01 
1643 1245 2 1.7119108573436017e+00 -4.5457413746309438e+05 4.2000000000000000e+03 8.2940407607900823e+00 2.3988871106285785e+00 1.0394325197153103e+01 
1271 873 2 1.7107053846128313e+00 -1.1648265628749855e+05 4.2000000000000000e+03 1.5666635739637119e+01 3.6513296584448445e+00 9.8874333649605592e+00 
1348 950 2 1.7105840654397670e+00 -9.0816564637229079e+05 4.2000000000000000e+03 8.9102897326348762e-01 5.0344195065051416e+00 1.0462434649660738e+01 
582 184 2 1.7131768976747908e+00 -1.3035904523219145e+06 4.2000000000000000e+03 4.0192640680149622e-01 7.7624603390036500e+00 1.1659222227881815e+01 
907 509 2 1.7105840654397670e+00 -3.9309124000754009e+05 4.2000000000000000e+03 1.0786958054931695e+01 7.9280040542629333e+00 1.1483859065130238e+01 
1754 1356 2 1.7105840654397670e+00 -2.0992539038634361e+06 4.2000000000000000e+03 2.6669200751370092e-01 1.1455899539504763e+01 1.1259635525728156e+01 
1473 1075 2 1.7105840654397670e+00 3.7086149897834577e+05 4.2000000000000000e+03 1.8629309223984819e+01 1.2528763088049313e+01 1.1532199849128295e+01 
2001 1603 2 1.7105847736149884e+00 -6.8319110485353405e+04 4.2000000000000000e+03 2.2396297369814304e+00 1.4844611558907284e+01 1.1297791790087812e+01 
1221 823 2 1.7106573402048901e+00 -5.7247349351025241e+02 4.2000000000000000e+03 5.8740257824418221e+00 1.4829456394746083e+01 1.1397413776365891e+01 
1076 678 2 1.7105840654397670e+00 -6.0566809463790711e+05 4.2000000000000000e+03 1.8997837690855632e+00 5.1792357878830031e-01 1.1864898136854386e+01 
1679 1281 2 1.7232287876043690e+00 -2.5221951420461712e+05 4.2000000000000000e+03 6.0055484889651725e+00 1.7812894323771966e+00 1.3513341546767027e+01 
1176 778 2 1.7118417055297439e+00 1.1235639566404296e+06 4.2000000000000000e+03 9.2106908182026128e+00 4.2695259304855044e+00 1.2177196126683603e+01 
1574 1176 2 1.7105840654397670e+00 6.6020781467874278e+05 4.2000000000000000e+03 1.6148272434597981e+01 6.6390800664759428e+00 1.1828069200441686e+01 
988 590 2 1.7144106417987508e+00 7.5765500026442867e+05 4.2000000000000000e+03 1.7429273869251944e+01 9.5338658634108029e+00 1.3013372219478837e+01 
622 224 2 1.7105847736149884e+00 4.0333262346721902e+04 4.2000000000000000e+03 2.7975938316273505e+00 1.2423268851502211e+01 1.2925396093374582e+01 
497 99 2 1.7130795869584483e+00 2.4046376166309032e+05 4.2000000000000000e+03 7.3757795088161773e+00 1.2926456241504097e+01 1.2989267335530371e+01 
1244 846 2 1.7105840654397670e+00 -2.0635859827047569e+05 4.2000000000000000e+03 1.3650807876186141e+01 1.2025268213231687e+01 1.2372815829219565e+01 
989 591 2 1.7105840654397670e+00 3.7976919637536048e+05 4.2000000000000000e+03 1.2289623894678369e+01 1.4554919684650423e+01 1.3565767415261812e+01 
1867 1469 2 1.7105840654397670e+00 -2.3068236159140272e+06 4.2000000000000000e+03 3.9854183763365341e+00 1.7171167791045693e+01 1.3110293594704775e+01 
1879 1481 2 1.7105840654397670e+00 -1.5912546709913420e+06 4.2000000000000000e+03 1.1200198402169898e+01 1.7003292013984989e+01 1.1833001208044911e+01 
1912 1514 2 1.7105840654397670e+00 -2.1209527699672533e+06 4.2000000000000000e+03 1.7026536957704689e+01 1.6386983251547228e+01 1.2225720811226546e+01 
2062 1664 2 1.7105840654397670e+00 -1.1162332505921891e+05 4.2000000000000000e+03 8.0498116950552348e+00 1.4699345802928565e-01 1.5101598171451963e+01 
1586 1188 2 1.7105839403778984e+00 6.0209508807408926e+05 4.2000000000000000e+03 1.2144252648626946e+01 9.7996152916178436e-01 1.5339607467174414e+01 
1376 978 2 1.7105840654397670e+00 8.8635879187191324e+05 4.2000000000000000e+03 3.1325816581537169e+00 4.2322972223362836e+00 1.4760669742710867e+01 
1190 792 2 1.7116590405175411e+00 7.2516195922594098e+05 4.2000000000000000e+03 1.8088002830449149e+01 4.5709223188644605e+00 1.3963590603621171e+01 
570 172 2 1.7105840654397670e+00 -1.5796773733413476e+06 4.2000000000000000e+03 9.1662425176570501e+00 9.7650859147443203e+00 1.3825002469969755e+01 
1170 772 2 1.7144106417987508e+00 -1.0246075891489327e+06 4.2000000000000000e+03 1.6078104260826791e+01 1.1412882094753046e+01 1.4305028785102156e+01 
453 55 2 1.7130843419954780e+00 2.1735838347272828e+05 4.2000000000000000e+03 6.1298276109668111e+00 1.4931465363762488e+01 1.4283434690658734e+01 
1407 1009 2 1.7105840654397670e+00 1.2813420678198184e+06 4.2000000000000000e+03 1.6439638008007819e+01 1.5191951634542905e+01 1.5193132478415569e+01 
517 119 2 1.7109042783750767e+00 7.6935746695065941e+05 4.2000000000000000e+03 7.8374596413656206e-01 3.4444453885964847e+00 1.6474819209668510e+01 
2019 1621 2 1.7105833352549049e+00 7.7412968306139647e+05 4.2000000000000000e+03 5.2632826520521663e+00 5.8389692472049415e+00 1.6792589726788933e+01 
822 424 2 1.7105848627738109e+00 3.2406361706516868e+05 4.2000000000000000e+03 1.2637817231450259e+00 1.0325859110102190e+01 1.7081720258969103e+01 
439 41 2 1.7105840654397670e+00 1.2376244429935873e+06 4.2000000000000000e+03 1.4021819002076002e+01 1.1018420852293190e+01 1.7392481705642769e+01 
650 252 2 1.7105840654397670e+00 1.3482385154499295e+06 4.2000000000000000e+03 1.0735512537188781e+01 1.5399876005247943e+01 1.7257047849575375e+01 
403 5 2 1.7105840654397670e+00 -5.5680681871778006e+05 4.2000000000000000e+03 2.3959241677773252e-01 1.6196671561642844e+01 1.6252399926951465e+01 
1821 1423 2 1.7105840654397670e+00 7.1073839318504022e+05 4.2000000000000000e+03 9.2697892945384410e+00 1.8277952338031692e+01 1.7401726388266582e+01 
743 345 2 1.7105839403778984e+00 -1.6239375438582555e+06 4.2000000000000000e+03 1.3527583191689509e+01 1.6674249420354965e+00 1.7883014182879617e+01 
640 242 2 1.7105840654397670e+00 1.7987315654714112e+06 4.2000000000000000e+03 2.5559516312437355e-02 5.2126349603008810e+00 1.9044877967012845e+01 
1233 835 2 1.7109035481902146e+00 -3.2234997039642313e+05 4.2000000000000000e+03 2.8204882183849631e+00 4.6479251419899894e+00 1.8014725957165030e+01 
1543 1145 2 1.7106679332556856e+00 -4.9532976859398506e+05 4.2000000000000000e+03 8.8989416544869346e+00 4.1656131645750412e+00 1.8428100168367081e+01 
599 201 2 1.7106679332556856e+00 8.2600846355691249e+05 4.2000000000000000e+03 1.0793979277885155e+01 6.1706162452268609e+00 1.7652713485734978e+01 
448 50 2 1.7125301043341841e+00 7.3720027165362309e+05 4.2000000000000000e+03 3.5758230185309050e+00 1.0836163402913563e+01 1.8917392930764258e+01 
1804 1406 2 1.7105840654397670e+00 1.0940033659213949e+06 4.2000000000000000e+03 9.2378317900423443e+00 1.1476890515519271e+01 1.9289111891959521e+01 
1156 758 2 1.7105840654397670e+00 -2.4315998662717862e+05 4.2000000000000000e+03 1.8325336629917629e+01 1.0722033361262261e+01 1.8858908842093076e+01 
834 436 2 1.7105840654397670e+00 6.1328825415519159e+05 4.2000000000000000e+03 2.1882551347294967e+00 1.4173872946388240e+01 1.7782989801766991e+01 
922 524 2 1.7105840654397670e+00 5.8183503504064633e+05 4.2000000000000000e+03 1.6699018216348509e+01 1.4627412506921978e+01 1.8762311039502467e+01 
438 40 2 1.7105840654397670e+00 4.4048568206967367e+05 4.2000000000000000e+03 2.8485142551655578e+00 1.8484419115044094e+01 1.7983729025590858e+01 
1666 1268 2 1.7109706373800579e+00 -6.2624852048128634e+05 4.2000000000000000e+03 1.1127487428137405e+01 3.5111406709298412e+00 2.0849344093085019e+01 
1378 980 2 1.7105840654397670e+00 -1.5078928597419820e+05 4.2000000000000000e+03 1.5273553116920429e+01 5.6251910321195924e+00 2.0572203950747745e+01 
794 396 2 1.7105840654397670e+00 -2.0862884582306393e+04 4.2000000000000000e+03 1.0524043492748227e+01 7.7242822196123848e+00 2.1190687150706982e+01 
751 353 2 1.7125308700050812e+00 -2.9741018686971243e+05 4.2000000000000000e+03 1.6236402981334308e+00 9.1738711533078074e+00 1.9798705017781373e+01 
1093 695 2 1.7105840654397670e+00 2.7068587959504081e+05 4.2000000000000000e+03 1.6870623452787232e+01 1.1758373581504330e+01 2.1310385743296976e+01 
1298 900 2 1.7105840654397670e+00 1.3340032521116738e+06 4.2000000000000000e+03 5.1618222739494524e+00 1.7825588119671153e+01 2.0215112493954486e+01 
1801 1403 2 1.7105840654397670e+00 1.4041464693502558e+05 4.2000000000000000e+03 1.2169963752070995e+01 1.8462580644208927e+01 1.9786843361771446e+01 
615 217 2 1.7105840654397670e+00 -1.0207904424955591e+06 4.2000000000000000e+03 1.8083547423138199e+01 1.9677395439313432e+01 2.0061145036267995e+01 
1690 1292 2 1.7105840654397670e+00 -7.1859133845766657e+05 4.2000000000000000e+03 8.2932968056956824e+00 3.4524216456838484e+00 2.3011423378507896e+01 
1467 1069 2 1.7111276071384789e+00 -1.9595396930344589e+06 4.2000000000000000e+03 1.2907275123196886e+01 2.8103804069364844e+00 2.2907915282360545e+01 
424 26 2 1.7107410351981880e+00 -3.8246303682633635e+05 4.2000000000000000e+03 1.5723008355876768e+01 2.3639578627029674e+00 2.2977894844396971e+01 
964 566 2 1.7105840654397670e+00 4.3814800851280545e+05 4.2000000000000000e+03 2.6903935881462564e+00 7.4594217585185252e+00 2.2369709555914838e+01 
1605 1207 2 1.7105840654397670e+00 1.4572643964191722e+06 4.2000000000000000e+03 1.9020819976750554e+00 1.1012732018715450e+01 2.2490840947690110e+01 
575 177 2 1.7105840654397670e+00 -8.2490210861348081e+05 4.2000000000000000e+03 1.0078314199658157e+01 1.4269132484191331e+01 2.2509282537954636e+01 
861 463 2 1.7105840654397670e+00 2.5447562656840758e+05 4.2000000000000000e+03 1.7890210197666509e+01 1.7179741811052491e+01 2.2981242331309417e+01 
1655 1257 2 1.7105840654397670e+00 -4.6013206340128079e+05 4.2000000000000000e+03 2.2566164200634966e+00 1.8102457154050033e+01 2.1727390395613696e+01 
1956 1558 2 1.7105840654397670e+00 2.2976724514737452e+05 4.2000000000000000e+03 1.1872005468732558e+00 4.0258744275555500e+00 2.4421043129977029e+01 
1362 964 2 1.7105840654397670e+00 5.0146746628973997e+04 4.2000000000000000e+03 5.4554667708076732e+00 6.2132190473813766e+00 2.3712549732735223e+01 
1020 622 2 1.7105840654397670e+00 4.7968812681448675e+04 4.2000000000000000e+03 1.6936272000387252e+01 6.3249389972065888e+00 2.4427023310225302e+01 
1756 1358 2 1.7105840654397670e+00 -6.1715224718707090e+04 4.2000000000000000e+03 6.2066291666829132e+00 9.5615757213400929e+00 2.4016030451741596e+01 
1641 1243 2 1.7105840654397670e+00 5.9426615808564564e+05 4.2000000000000000e+03 1.5396302072172565e+01 9.4520661754259372e+00 2.4687365647972818e+01 
1123 725 2 1.7106091808829111e+00 -4.5208574752328708e+05 4.2000000000000000e+03 9.4260844641821304e+00 1.6080472920135983e-01 2.7449068303137565e+01 
584 186 2 1.7268174652539603e+00 3.1437332721523044e+05 4.2000000000000000e+03 1.2240145118038082e+01 1.2106928740042158e+00 2.5928461319062201e+01 
1346 948 2 1.7268174652539603e+00 -3.4124694561088155e+05 4.2000000000000000e+03 1.3704487546957955e+01 2.7910231866534665e+00 2.7173731342560007e+01 
2051 1653 2 1.7105840654397670e+00 8.6974876787104551e+05 4.2000000000000000e+03 1.1602614701762571e+01 5.0372314196123051e+00 2.6330380467648641e+01 
811 413 2 1.7105840654397670e+00 1.0687719111045136e+05 4.2000000000000000e+03 1.7698631935067397e+01 4.6691221986516629e+00 2.6889924785427237e+01 
1553 1155 2 1.7105840654397670e+00 8.8492211181739601e+05 4.2000000000000000e+03 3.4403374045134640e+00 6.4201865550242383e+00 2.6350433261966451e+01 
686 288 2 1.7105840654397670e+00 -1.7690078416149500e+06 4.2000000000000000e+03 1.9526626080987977e+01 7.4269247467238113e+00 2.5807997643723091e+01 