LAMMPS data file via write_data, version 30 Jul 2016, timestep = 50400000

567 atoms
2 atom types

0.0000000000000000e+00 2.0000000000000000e+01 xlo xhi
0.0000000000000000e+00 2.0000000000000000e+01 ylo yhi
0.0000000000000000e+00 2.0000000000000000e+01 zlo zhi

Masses

1 3.896
2 5

Atoms # meso-molecular

1 1 2 3.5903117045144350e+00 -1.0105285228606709e+03 1.0000000000000000e+00 6.3410481868853799e+00 1.9369464677292931e+00 1.7527626004935408e+00 
82 1 2 3.5903117045144350e+00 -8.9062298498178438e+02 1.0000000000000000e+00 6.3410481868854012e+00 1.9369464677292938e+00 1.7527626004935333e+00 
91 1 2 3.5903117045144350e+00 -9.4029047693530902e+02 1.0000000000000000e+00 6.3410481868853710e+00 1.9369464677292962e+00 1.7527626004935370e+00 
2 1 2 3.5903117045144350e+00 -8.6096838082441013e+02 1.0000000000000000e+00 6.3410481868853728e+00 1.9369464677292803e+00 1.7527626004935384e+00 
83 1 2 3.5903117045144350e+00 -8.2382427681849651e+02 1.0000000000000000e+00 6.3410481868854038e+00 1.9369464677292894e+00 1.7527626004935351e+00 
172 1 2 3.5903117045144350e+00 -9.8644171431689392e+02 1.0000000000000000e+00 6.3410481868853550e+00 1.9369464677292765e+00 1.7527626004935437e+00 
163 1 2 3.5903117045144350e+00 -1.2100694056942061e+03 1.0000000000000000e+00 6.3410481868853994e+00 1.9369464677292818e+00 1.7527626004935364e+00 
10 1 2 3.5903117045144350e+00 -9.5728585866700519e+02 1.0000000000000000e+00 6.3410481868853905e+00 1.9369464677292927e+00 1.7527626004935402e+00 
11 1 2 3.5903117045144350e+00 -1.0745757644119051e+03 1.0000000000000000e+00 6.3410481868854047e+00 1.9369464677292896e+00 1.7527626004935406e+00 
222 1 2 5.0804715037014549e+00 -6.2370891941826255e+02 1.0000000000000000e+00 6.0933079063698594e+00 3.9043294745486166e+00 7.5453592041275703e+00 
490 1 2 5.0606712399031890e+00 -1.3894053376880538e+03 1.0000000000000000e+00 6.6396794906524130e+00 3.7918676172039958e+00 6.5817519739004196e+00 
252 1 2 5.0224172630784123e+00 -1.3305299738797587e+03 1.0000000000000000e+00 6.1546832537576170e+00 3.5349258789800131e+00 7.1247138126957328e+00 
506 1 2 5.0336194666848053e+00 -1.3641999877395510e+03 1.0000000000000000e+00 6.5599490764295867e+00 3.8056260356162586e+00 6.5971630682675428e+00 
184 1 2 5.0192651994122883e+00 -9.6258730722911912e+02 1.0000000000000000e+00 6.5079553755816493e+00 3.8619820203733486e+00 6.6175927143578885e+00 
229 1 2 5.1040503063096576e+00 -1.2642152242011052e+03 1.0000000000000000e+00 6.2700351821472609e+00 3.4598915409132478e+00 7.1304635404582202e+00 
275 1 2 4.9097781421289941e+00 -8.4710475655336427e+02 1.0000000000000000e+00 6.0085690696120837e+00 4.0472132402121144e+00 7.4581567157500910e+00 
277 1 2 4.9939014665103931e+00 -1.1363991170897687e+03 1.0000000000000000e+00 6.0385047709218913e+00 4.0363293615729230e+00 7.4262908875581521e+00 
21 1 2 4.8866148441019259e+00 -7.2150746491602285e+02 1.0000000000000000e+00 6.0338471912488556e+00 4.0897383963804179e+00 7.0966710817396912e+00 
40 1 2 4.8973073556141946e+00 -1.1699633726389434e+03 1.0000000000000000e+00 6.2250681358288453e+00 4.2713938268753591e+00 7.0209906582778672e+00 
221 1 2 4.9930686328500800e+00 -1.0959619393507273e+03 1.0000000000000000e+00 6.0354438548932468e+00 4.0378825848751152e+00 7.4052982696005785e+00 
383 1 2 4.9180534578896493e+00 -8.3845788176138035e+02 1.0000000000000000e+00 6.2154878894057353e+00 4.4714396943038679e+00 9.5310181726105885e+00 
122 1 2 5.0340486037594161e+00 -8.4101285898118931e+02 1.0000000000000000e+00 6.5771601926398251e+00 4.6277850760608823e+00 9.0897506696335260e+00 
535 1 2 4.9410774634956329e+00 -1.0481411559961148e+03 1.0000000000000000e+00 6.1633378686989229e+00 4.1625210278737734e+00 9.9101411759734273e+00 
242 1 2 5.0944147812287870e+00 -1.1831290549850348e+03 1.0000000000000000e+00 6.2473503413785014e+00 4.3405570829564288e+00 1.0755825249068897e+01 
238 1 2 5.1081076802531076e+00 -1.3771866675494155e+03 1.0000000000000000e+00 6.1341743896793233e+00 4.3950979866611473e+00 1.0011934464138907e+01 
168 1 2 5.0767861301200243e+00 -1.4564449215509903e+03 1.0000000000000000e+00 6.3446343210883986e+00 4.8270487204327175e+00 1.0390600569063714e+01 
511 1 2 4.8871745522174193e+00 -1.0031480103435690e+03 1.0000000000000000e+00 6.4291287648478121e+00 4.2512958860921186e+00 1.1147512910327372e+01 
4 1 2 4.8847842770691257e+00 -7.7926400651017696e+02 1.0000000000000000e+00 6.0689761873718115e+00 4.4264942462562225e+00 1.0555711324166079e+01 
430 1 2 4.9766207541216181e+00 -1.0182131424833791e+03 1.0000000000000000e+00 6.0935484455240063e+00 4.2608753043355625e+00 1.0080545792596876e+01 
376 1 2 5.0070509542883492e+00 -1.1156128705160399e+03 1.0000000000000000e+00 6.1208580288709973e+00 4.6298576777506559e+00 1.0064723154532418e+01 
135 1 2 5.0188973961687404e+00 -1.2985388430294636e+03 1.0000000000000000e+00 6.1100508284476298e+00 4.5200493516958167e+00 1.0427444790115235e+01 
237 1 2 5.0392174002961845e+00 -1.4528556036504503e+03 1.0000000000000000e+00 6.6218087656353495e+00 4.1208341661405079e+00 1.1251891834747598e+01 
43 1 2 5.0000000000001803e+00 -1.2611317337737441e+03 1.0000000000000000e+00 4.4345792172946803e+00 8.6470368763332530e+00 1.5837490007793622e+01 
108 1 2 4.9999999999998623e+00 -9.0494644522136241e+02 1.0000000000000000e+00 4.4927931578748392e+00 8.8808700476549998e+00 1.5770854200463875e+01 
44 1 2 4.9999999999999361e+00 -1.2777766986159918e+03 1.0000000000000000e+00 4.4695608058558083e+00 8.9730142721427075e+00 1.5769068636181222e+01 
116 1 2 4.9999999999999467e+00 -6.8839981477552374e+02 1.0000000000000000e+00 4.4618141897438885e+00 8.9920910277571124e+00 1.5770729433333399e+01 
53 1 2 4.9999999999999236e+00 -1.5117571668612877e+03 1.0000000000000000e+00 4.5484881070540117e+00 8.8734654931980899e+00 1.5832612792101841e+01 
180 1 2 5.0000000000001581e+00 -1.0290620107312686e+03 1.0000000000000000e+00 4.5385651622126000e+00 8.8039333784189093e+00 1.5832575559791955e+01 
99 1 2 4.9999999999999414e+00 -7.4434330929515841e+02 1.0000000000000000e+00 4.5352542329807166e+00 8.8014973295004015e+00 1.5829016763892637e+01 
124 1 2 4.9999999999999662e+00 -7.2732009670729485e+02 1.0000000000000000e+00 4.5077782080563189e+00 8.7282777439522636e+00 1.5835637488662424e+01 
45 1 2 5.0000000000001545e+00 -9.5302316463233728e+02 1.0000000000000000e+00 4.5196277870983490e+00 8.8826856258985263e+00 1.5796864090623780e+01 
117 1 2 4.9999999999999742e+00 -9.0660807767867470e+02 1.0000000000000000e+00 2.3028467173833733e+00 9.3086669280222480e+00 1.7855870577185897e+01 
98 1 2 5.0000000000000178e+00 -1.1089427589697361e+03 1.0000000000000000e+00 2.3118417762911414e+00 9.3030413856301362e+00 1.7867572296804450e+01 
46 1 2 4.9999999999999689e+00 -1.2369222790661074e+03 1.0000000000000000e+00 2.3067696950825933e+00 9.2956626340642501e+00 1.7863256522939889e+01 
89 1 2 5.0000000000000187e+00 -1.1805437813641411e+03 1.0000000000000000e+00 3.7643291452034817e+00 8.9585299648450931e+00 1.6508886402769317e+01 
26 1 2 4.9999999999999973e+00 -1.2716207796365611e+03 1.0000000000000000e+00 3.7700387945097478e+00 8.9471897007390737e+00 1.6514260704337282e+01 
90 1 2 4.9999999999998499e+00 -1.2555024820811877e+03 1.0000000000000000e+00 2.3151626550421200e+00 9.3154255726127442e+00 1.7867821507963221e+01 
17 1 2 5.0000000000000462e+00 -1.3319822268450753e+03 1.0000000000000000e+00 2.3110946560685259e+00 9.3035681509792933e+00 1.7866679010301244e+01 
9 1 2 5.0000000000000160e+00 -1.2025860075271316e+03 1.0000000000000000e+00 2.3098621339365311e+00 9.3039281009467274e+00 1.7865279198364874e+01 
36 1 2 5.0000000000001492e+00 -9.1755932549341560e+02 1.0000000000000000e+00 2.3098700106176815e+00 9.3030022609347345e+00 1.7865478283246489e+01 
27 1 2 4.9999999999999467e+00 -1.3957765847850069e+03 1.0000000000000000e+00 2.3453008586154667e+00 9.3683583079258632e+00 1.7864465943324699e+01 
107 1 2 5.0000000000000382e+00 -8.2880752686439087e+02 1.0000000000000000e+00 3.7666516116910027e+00 8.9407123259107060e+00 1.6510474500635841e+01 
171 1 2 5.0000000000000311e+00 -1.2603686904189960e+03 1.0000000000000000e+00 3.7597583464048068e+00 8.9581967084119221e+00 1.6504061361354747e+01 
126 1 2 4.9999999999997948e+00 -8.3709818773588700e+02 1.0000000000000000e+00 3.7601914472898414e+00 8.9588987404702998e+00 1.6504513318993805e+01 
54 1 2 4.9999999999998721e+00 -1.3355072031240406e+03 1.0000000000000000e+00 2.3020860923660065e+00 9.2896982752532828e+00 1.7858305901243369e+01 
18 1 2 4.9999999999998845e+00 -1.2229915577880388e+03 1.0000000000000000e+00 2.3149837524830459e+00 9.3162385748388647e+00 1.7867380915939506e+01 
125 1 2 5.0000000000000888e+00 -1.1676017150229536e+03 1.0000000000000000e+00 3.7641312787143475e+00 8.9620695614188524e+00 1.6508520649171093e+01 
35 1 2 4.9999999999999378e+00 -9.4459842631469905e+02 1.0000000000000000e+00 2.3098109245651077e+00 9.2970239796785208e+00 1.7866439448584700e+01 
34 1 2 5.0000000000000320e+00 -8.8473538638297373e+02 1.0000000000000000e+00 2.3104673585166706e+00 9.3036532679166211e+00 1.7865991197204263e+01 
55 1 2 1.5956940908953048e+00 -1.0758817406446392e+03 1.0000000000000000e+00 5.1978886968796862e+00 1.5313220583575321e+01 9.3037763308602150e-01 
64 1 2 1.5956940908953048e+00 -9.3616227062192638e+02 1.0000000000000000e+00 5.1978886968796862e+00 1.5313220583575294e+01 9.3037763308602961e-01 
145 1 2 1.5956940908953048e+00 -8.7589733714096838e+02 1.0000000000000000e+00 5.1978886968796862e+00 1.5313220583575243e+01 9.3037763308602650e-01 
73 1 2 1.5956940908953048e+00 -8.8869893091579945e+02 1.0000000000000000e+00 5.1978886968796774e+00 1.5313220583575342e+01 9.3037763308602550e-01 
127 1 2 2.7924646590667832e+00 -7.7550356757571637e+02 1.0000000000000000e+00 6.1052782655431654e+00 1.0872253690813631e+01 3.6916626111237583e+00 
136 1 2 2.7924646590667832e+00 -7.0390729334795583e+02 1.0000000000000000e+00 6.1052782655431930e+00 1.0872253690813579e+01 3.6916626111237658e+00 
137 1 2 2.7924646590667832e+00 -8.2773504242987644e+02 1.0000000000000000e+00 6.1052782655431974e+00 1.0872253690813579e+01 3.6916626111237547e+00 
128 1 2 2.7924646590667832e+00 -8.9633506141207204e+02 1.0000000000000000e+00 6.1052782655431885e+00 1.0872253690813613e+01 3.6916626111237556e+00 
47 1 2 2.7924646590667832e+00 -1.4417873677943912e+03 1.0000000000000000e+00 6.1052782655432001e+00 1.0872253690813576e+01 3.6916626111237467e+00 
48 1 2 2.7924646590667832e+00 -9.5623397350733126e+02 1.0000000000000000e+00 6.1052782655431592e+00 1.0872253690813562e+01 3.6916626111237627e+00 
39 1 2 2.7924646590667832e+00 -1.1124829338315419e+03 1.0000000000000000e+00 6.1052782655431628e+00 1.0872253690813562e+01 3.6916626111237543e+00 
57 1 2 5.0000000000007807e+00 -7.3189838244811563e+02 1.0000000000000000e+00 5.6791407484489049e+00 1.5045110710811107e+01 5.7829560410187897e+00 
65 1 2 5.0000000000000160e+00 -5.9586203421967912e+02 1.0000000000000000e+00 5.6791159289121929e+00 1.5045111555716636e+01 5.7829424978158208e+00 
157 1 2 5.0000000000001679e+00 -1.2313094433529809e+03 1.0000000000000000e+00 5.6790519570650835e+00 1.5045127101482249e+01 5.7829407416426166e+00 
149 1 2 5.0000000000002078e+00 -1.0066337501636283e+03 1.0000000000000000e+00 5.6790404455409949e+00 1.5045125627698372e+01 5.7829298249842678e+00 
156 1 2 5.0000000000003633e+00 -1.0748368103871258e+03 1.0000000000000000e+00 5.6789509803422469e+00 1.5045145304819219e+01 5.7829222003339709e+00 
56 1 2 4.9999999999998233e+00 -5.1109681143262628e+02 1.0000000000000000e+00 5.6790627351015042e+00 1.5045125725933074e+01 5.7829441249073916e+00 
147 1 2 4.9999999999997726e+00 -7.2429740152460727e+02 1.0000000000000000e+00 5.6790681761350408e+00 1.5045121124491846e+01 5.7829361384107960e+00 
155 1 2 5.0000000000008544e+00 -1.1579816042062503e+03 1.0000000000000000e+00 5.6789910190180901e+00 1.5045136448345032e+01 5.7829254938135151e+00 
139 1 2 4.9999999999996074e+00 -5.5480999442872803e+02 1.0000000000000000e+00 5.7531345293753482e+00 1.6156813709842641e+01 5.3166066110621149e+00 
74 1 2 4.9999999999996287e+00 -1.2652542829950889e+03 1.0000000000000000e+00 5.7201379264733747e+00 1.6148748849679500e+01 5.3170841628495147e+00 
75 1 2 4.9999999999993987e+00 -1.2478957442638666e+03 1.0000000000000000e+00 5.7201114148767136e+00 1.6148742063282970e+01 5.3170861387240498e+00 
148 1 2 4.9999999999995337e+00 -6.9884152049184831e+02 1.0000000000000000e+00 6.2145401391873270e+00 1.6027311050427652e+01 5.4122097150803858e+00 
67 1 2 5.0000000000001394e+00 -1.1073820928476512e+03 1.0000000000000000e+00 6.2141995270875299e+00 1.6027664724251288e+01 5.4120919888564156e+00 
66 1 2 5.0000000000005391e+00 -9.4810291343567815e+02 1.0000000000000000e+00 6.2146029111024239e+00 1.6027258891121264e+01 5.4122718300209209e+00 
76 1 2 5.0000000000004583e+00 -9.6143220516352926e+02 1.0000000000000000e+00 5.7200047740534616e+00 1.6148711449656304e+01 5.3170867695342814e+00 
138 1 2 5.0000000000003428e+00 -5.8134806588218066e+02 1.0000000000000000e+00 5.7199243541525249e+00 1.6148687535041219e+01 5.3170854480282612e+00 
77 1 2 4.9999999999998721e+00 -1.0003933933759333e+03 1.0000000000000000e+00 6.2143407491221243e+00 1.6027517508275174e+01 5.4121387385655160e+00 
49 1 2 3.5903117045144350e+00 -1.0204843619388666e+03 1.0000000000000000e+00 6.5271861549031280e+00 1.1453575773618262e+01 7.3316439986370678e+00 
58 1 2 3.5903117045144350e+00 -9.9272866675386649e+02 1.0000000000000000e+00 6.5271861549030934e+00 1.1453575773618073e+01 7.3316439986371158e+00 
50 1 2 3.5903117045144350e+00 -1.0530170602841715e+03 1.0000000000000000e+00 6.5271861549031511e+00 1.1453575773618182e+01 7.3316439986371194e+00 
59 1 2 3.5903117045144350e+00 -1.0038749775565191e+03 1.0000000000000000e+00 6.5271861549031431e+00 1.1453575773618191e+01 7.3316439986370883e+00 
129 1 2 3.5903117045144350e+00 -5.9683272672486862e+02 1.0000000000000000e+00 6.5271861549031867e+00 1.1453575773618233e+01 7.3316439986370714e+00 
131 1 2 3.5903117045144350e+00 -1.1774504671986197e+03 1.0000000000000000e+00 6.5271861549031502e+00 1.1453575773618216e+01 7.3316439986370838e+00 
130 1 2 3.5903117045144350e+00 -8.2104949715353712e+02 1.0000000000000000e+00 6.5271861549031378e+00 1.1453575773618203e+01 7.3316439986371300e+00 
212 1 2 3.5903117045144350e+00 -1.2390729820273980e+03 1.0000000000000000e+00 6.5271861549031502e+00 1.1453575773618146e+01 7.3316439986371158e+00 
211 1 2 3.5903117045144350e+00 -9.5473471758101562e+02 1.0000000000000000e+00 6.5271861549031076e+00 1.1453575773618180e+01 7.3316439986370705e+00 
132 1 2 4.3881587499620869e+00 -7.5830328744457677e+02 1.0000000000000000e+00 6.1557971146920094e+00 1.2301243789217819e+01 1.1226418868373631e+01 
52 1 2 4.3881587499620869e+00 -6.9064776964254497e+02 1.0000000000000000e+00 6.1557971146919561e+00 1.2301243789217565e+01 1.1226418868373674e+01 
133 1 2 4.3881587499620869e+00 -9.6599555229682312e+02 1.0000000000000000e+00 6.1557971146918966e+00 1.2301243789217926e+01 1.1226418868373571e+01 
140 1 2 4.3881587499620869e+00 -8.6305068501073981e+02 1.0000000000000000e+00 6.1557971146920343e+00 1.2301243789217644e+01 1.1226418868373639e+01 
141 1 2 4.3881587499620869e+00 -7.4288614712490812e+02 1.0000000000000000e+00 6.1557971146918815e+00 1.2301243789217690e+01 1.1226418868373548e+01 
213 1 2 4.3881587499620869e+00 -6.9808591590243532e+02 1.0000000000000000e+00 6.1557971146920929e+00 1.2301243789217875e+01 1.1226418868373564e+01 
68 1 2 4.3881587499620869e+00 -1.1229571836092343e+03 1.0000000000000000e+00 6.1557971146919712e+00 1.2301243789217750e+01 1.1226418868373626e+01 
51 1 2 4.3881587499620869e+00 -8.6743703858351535e+02 1.0000000000000000e+00 6.1557971146919579e+00 1.2301243789217919e+01 1.1226418868373562e+01 
60 1 2 4.3881587499620869e+00 -9.6727366373588268e+02 1.0000000000000000e+00 6.1557971146919934e+00 1.2301243789217921e+01 1.1226418868373459e+01 
61 1 2 4.3881587499620869e+00 -9.4394866359766593e+02 1.0000000000000000e+00 6.1557971146918984e+00 1.2301243789217722e+01 1.1226418868373667e+01 
69 1 2 4.3881587499620869e+00 -9.1261960268312760e+02 1.0000000000000000e+00 6.1557971146919161e+00 1.2301243789217772e+01 1.1226418868373687e+01 
272 1 2 1.5956940908953048e+00 -6.0252575979019400e+02 1.0000000000000000e+00 1.1648560525895498e+01 8.3595797935511946e+00 2.5432532204830585e+00 
353 1 2 1.5956940908953048e+00 -7.1152855084245607e+02 1.0000000000000000e+00 1.1648560525895526e+01 8.3595797935511840e+00 2.5432532204830540e+00 
281 1 2 1.5956940908953048e+00 -4.5843070844821483e+02 1.0000000000000000e+00 1.1648560525895514e+01 8.3595797935512035e+00 2.5432532204830438e+00 
280 1 2 1.5956940908953048e+00 -5.9191507251142343e+02 1.0000000000000000e+00 1.1648560525895471e+01 8.3595797935511946e+00 2.5432532204830527e+00 
566 1 2 4.9712950013204633e+00 -1.6803167230098770e+03 1.0000000000000000e+00 8.5266905096419432e+00 3.9506135859289957e+00 5.5525466843241293e+00 
526 1 2 5.1142561625447467e+00 -1.0861181336375346e+03 1.0000000000000000e+00 8.6906910983372256e+00 3.7111602375004424e+00 5.2758780613723593e+00 
228 1 2 4.8992283286317448e+00 -1.2623704554495007e+03 1.0000000000000000e+00 8.6644408979777108e+00 3.5004989088859571e+00 5.1486829954614404e+00 
415 1 2 4.9585802864325910e+00 -1.2154334691233794e+03 1.0000000000000000e+00 8.5737251207326644e+00 3.5863710034952474e+00 5.2337883851714553e+00 
246 1 2 4.9069542452756556e+00 -9.4388791401160142e+02 1.0000000000000000e+00 8.3483151793218795e+00 3.5079611511828559e+00 5.4127161847590637e+00 
427 1 2 5.0392233790008749e+00 -1.2657123351406269e+03 1.0000000000000000e+00 9.0049932861948001e+00 2.9722445783221296e+00 5.6485945180504249e+00 
194 1 2 5.0144566957618402e+00 -6.9450716557461976e+02 1.0000000000000000e+00 9.8939289783349817e+00 3.3736911217449679e+00 5.8206029267512536e+00 
382 1 2 4.9164534808197686e+00 -1.0309765019460588e+03 1.0000000000000000e+00 9.6018715574920765e+00 3.6049935551958527e+00 5.3272551484728812e+00 
409 1 2 5.0319030820024242e+00 -1.0019196985104289e+03 1.0000000000000000e+00 9.8077686350477968e+00 3.6920586549520387e+00 5.7085148383195827e+00 
375 1 2 5.0042304572175187e+00 -8.3160614989283704e+02 1.0000000000000000e+00 9.7586222949277470e+00 3.2697691781877345e+00 5.6950485239240232e+00 
449 1 2 4.8423801296830229e+00 -1.1018298963560769e+03 1.0000000000000000e+00 9.4095461624179588e+00 3.3072881743671467e+00 5.1968432297172251e+00 
260 1 2 4.9212815360841438e+00 -7.7233450084105209e+02 1.0000000000000000e+00 9.1489277588726416e+00 3.6674695613981885e+00 5.0922635058118368e+00 
294 1 2 5.1432962132517588e+00 -8.1752849616548815e+02 1.0000000000000000e+00 9.5160792228493953e+00 3.4208951449052876e+00 5.3990926220492259e+00 
170 1 2 5.0041638321022566e+00 -9.6050944215835136e+02 1.0000000000000000e+00 9.2083743814479657e+00 3.9266670882598049e+00 5.3292451251284820e+00 
176 1 2 5.0558175142518822e+00 -1.0274250304417676e+03 1.0000000000000000e+00 8.8065963648865928e+00 3.2387201965201831e+00 7.0917946375368421e+00 
486 1 2 4.9719328208212579e+00 -1.5748756557487848e+03 1.0000000000000000e+00 7.9805398719785190e+00 3.6123491279695230e+00 7.7257264485249246e+00 
273 1 2 4.9783427955005672e+00 -1.0800332531166650e+03 1.0000000000000000e+00 7.0554100509109690e+00 3.2168072708724984e+00 7.3562508241069446e+00 
262 1 2 4.9908176521753562e+00 -1.1079078015711630e+03 1.0000000000000000e+00 7.8726200039258645e+00 3.2760906721303980e+00 6.8403523377611002e+00 
422 1 2 5.1139508268457403e+00 -9.0649703659377644e+02 1.0000000000000000e+00 7.9787613172058460e+00 3.3940011381078925e+00 6.3350709775022818e+00 
525 1 2 4.9254520398916553e+00 -1.2581703573570030e+03 1.0000000000000000e+00 7.4461283897675585e+00 3.6064383540502560e+00 6.3861048552440511e+00 
33 1 2 4.9868486445608440e+00 -8.6994255745537725e+02 1.0000000000000000e+00 7.9794509280453534e+00 3.4374592685396497e+00 6.0783561097318630e+00 
527 1 2 5.0421959742448870e+00 -1.1294394506550036e+03 1.0000000000000000e+00 7.9257201930283010e+00 3.6341068098931393e+00 7.6321264261605677e+00 
23 1 2 4.9287860846535967e+00 -1.1759256496191867e+03 1.0000000000000000e+00 8.8240270032995909e+00 3.9997461810229460e+00 6.5948563198629655e+00 
420 1 2 4.9637960173091251e+00 -1.4648240259930706e+03 1.0000000000000000e+00 6.7288401569486291e+00 3.2012161459767232e+00 7.1787297236952776e+00 
72 1 2 4.8605200917119005e+00 -9.4810268554046650e+02 1.0000000000000000e+00 9.1141803841720890e+00 3.1664289336015150e+00 7.5846415444086395e+00 
175 1 2 5.0574478430330858e+00 -8.9091996356748155e+02 1.0000000000000000e+00 9.6697103482458289e+00 3.5468759337121050e+00 7.2097545501354467e+00 
190 1 2 4.9702951132228677e+00 -1.3382572486067634e+03 1.0000000000000000e+00 1.0571882105765189e+01 3.4231628824543692e+00 7.6839771533946344e+00 
80 1 2 5.0876366163396805e+00 -7.5044222250802341e+02 1.0000000000000000e+00 9.7186250533946801e+00 3.3089914719446587e+00 7.7229968770095612e+00 
459 1 2 4.9304242109844409e+00 -1.3452704112022464e+03 1.0000000000000000e+00 8.9936108976486260e+00 3.2176744922934848e+00 7.3590768651186416e+00 
31 1 2 5.0375305486249555e+00 -1.3677067748244074e+03 1.0000000000000000e+00 9.9284647791396665e+00 3.3754830253838199e+00 7.5247057059127389e+00 
192 1 2 4.9819417682743925e+00 -9.0608001997143469e+02 1.0000000000000000e+00 1.0420411243640995e+01 3.4057338364074519e+00 7.3502404583899326e+00 
553 1 2 4.9164255970293329e+00 -1.2783530852019055e+03 1.0000000000000000e+00 9.8893139655273732e+00 3.0460649818120058e+00 7.8130821590530379e+00 
438 1 2 4.9933068808141252e+00 -1.0625346145988299e+03 1.0000000000000000e+00 1.1057306205139508e+01 3.5982082450591757e+00 6.6634484063468244e+00 
389 1 2 5.1000278118026028e+00 -7.9954197549949333e+02 1.0000000000000000e+00 1.1470579627641252e+01 3.7092503119986295e+00 6.5605327636274415e+00 
162 1 2 4.9676164266392133e+00 -1.0410234692426759e+03 1.0000000000000000e+00 1.2114728018361719e+01 3.0163965032815852e+00 7.9737640054369257e+00 
239 1 2 4.9845220857698038e+00 -1.6517574499503198e+03 1.0000000000000000e+00 1.1566818562078998e+01 3.3994391453231216e+00 6.5635415996913054e+00 
386 1 2 5.0078503242707972e+00 -7.4453648935961508e+02 1.0000000000000000e+00 1.3019398125093860e+01 3.3659157391115717e+00 7.9581469882413725e+00 
152 1 2 4.9762891643951388e+00 -9.4715877664513516e+02 1.0000000000000000e+00 1.2439507509097444e+01 3.6741889921770414e+00 6.3787484412790700e+00 
304 1 2 5.0986743796313041e+00 -6.1845365931868378e+02 1.0000000000000000e+00 1.1726453574647110e+01 3.9284784257342422e+00 6.5717737433703753e+00 
431 1 2 4.9875240324452603e+00 -9.2777121038490475e+02 1.0000000000000000e+00 1.1458253883344353e+01 3.8088514670569484e+00 6.5088281003778379e+00 
501 1 2 5.0140835570270124e+00 -1.3881605952728705e+03 1.0000000000000000e+00 1.1409508620478464e+01 3.7405662457020297e+00 6.5233292505781915e+00 
423 1 2 5.0249894158678812e+00 -1.0885437328496675e+03 1.0000000000000000e+00 1.1192773197471087e+01 3.6971504815203331e+00 6.6458705728643030e+00 
439 1 2 5.0468559613166359e+00 -9.7435436623359590e+02 1.0000000000000000e+00 1.2870122915760783e+01 3.8414423803304802e+00 6.4711501501116979e+00 
450 1 2 4.9953110619862757e+00 -1.1758322994854852e+03 1.0000000000000000e+00 1.2185724185216683e+01 3.9850945849084036e+00 6.4377854565532040e+00 
25 1 2 4.8623208575843453e+00 -1.2186333591074601e+03 1.0000000000000000e+00 1.2620986942611541e+01 2.9388032332407614e+00 7.9132598183966687e+00 
28 1 2 4.7981984093028283e+00 -1.3050410319229970e+03 1.0000000000000000e+00 7.6675896533004861e+00 4.2856672097482704e+00 7.8476196751586107e+00 
193 1 2 4.9442885845984108e+00 -6.1920365708361385e+02 1.0000000000000000e+00 6.7030886331190649e+00 4.4902768973978180e+00 7.8915073172686023e+00 
110 1 2 5.0338381349418286e+00 -7.3536364528932063e+02 1.0000000000000000e+00 1.2500617411520324e+01 4.0979340135886071e+00 7.0933696764667351e+00 
111 1 2 5.0180421752940445e+00 -6.6473374581639496e+02 1.0000000000000000e+00 1.2504583384601656e+01 4.0704932404123406e+00 6.5572888905457765e+00 
247 1 2 5.0282836212931947e+00 -1.0414030938690596e+03 1.0000000000000000e+00 1.2510034328984846e+01 4.0042481707630575e+00 6.4892018103268896e+00 
487 1 2 4.9813675290096553e+00 -1.4035562972368018e+03 1.0000000000000000e+00 1.3105018133736904e+01 1.9177195926454751e+00 9.9548823878784720e+00 
161 1 2 4.8916927622901696e+00 -1.2116424020690101e+03 1.0000000000000000e+00 7.2775557503066883e+00 3.7088943745150704e+00 9.5075210657425160e+00 
332 1 2 5.0362336731239106e+00 -1.3213439359637484e+03 1.0000000000000000e+00 8.1466810127749234e+00 3.7516619696044313e+00 8.7167605822522329e+00 
271 1 2 5.0224324373198961e+00 -1.3657767162834696e+03 1.0000000000000000e+00 8.5100756973767826e+00 3.6155956457603948e+00 9.5592296148437814e+00 
205 1 2 4.9883921971220735e+00 -1.0098750916122162e+03 1.0000000000000000e+00 8.9519972792966538e+00 3.5542997039579927e+00 9.6350707911689959e+00 
309 1 2 5.1007178321847411e+00 -1.2763461806992352e+03 1.0000000000000000e+00 9.3348286102442319e+00 3.1735218190464218e+00 8.7696359992953390e+00 
485 1 2 5.0039404189553647e+00 -1.2155975677284621e+03 1.0000000000000000e+00 1.0404562943422970e+01 3.1414186939354960e+00 9.2828189769162943e+00 
348 1 2 5.0563031360636508e+00 -1.2588773676894230e+03 1.0000000000000000e+00 1.0717155379780378e+01 2.8312605489597904e+00 9.0253411355113293e+00 
429 1 2 5.0696330947380552e+00 -8.5118882502991096e+02 1.0000000000000000e+00 9.7999005127023207e+00 2.9668184417008461e+00 8.6290842098769200e+00 
165 1 2 5.0021504394512064e+00 -8.8321284835717154e+02 1.0000000000000000e+00 9.9719662251048877e+00 3.1833825526369424e+00 9.6027051369518244e+00 
465 1 2 4.9580744245442547e+00 -9.8273353917099109e+02 1.0000000000000000e+00 8.9798502911780851e+00 3.8557333446292392e+00 8.6213998151360673e+00 
3 1 2 4.9788098731190100e+00 -7.6154246783656913e+02 1.0000000000000000e+00 1.0171806105975172e+01 3.2849895274754481e+00 9.1841782038445370e+00 
567 1 2 4.9246762517733291e+00 -1.3640745245406006e+03 1.0000000000000000e+00 1.0673321322133821e+01 2.8168800659342872e+00 8.6418301204408117e+00 
274 1 2 5.0263408120158068e+00 -7.3410631806185665e+02 1.0000000000000000e+00 8.9781940601887680e+00 3.4611052688179491e+00 9.4125020579692116e+00 
30 1 2 5.0296525623035713e+00 -1.0321749878739140e+03 1.0000000000000000e+00 1.0794334239722502e+01 3.0097933115524542e+00 8.7709982740408634e+00 
499 1 2 4.9802265460979331e+00 -1.1403801715309996e+03 1.0000000000000000e+00 1.1042313633824865e+01 2.4335457525104398e+00 9.4955715096544928e+00 
19 1 2 5.0122869797406082e+00 -1.1325181236024223e+03 1.0000000000000000e+00 1.2137486522273415e+01 3.3608547064596417e+00 8.0388990755667091e+00 
396 1 2 4.9008503694025105e+00 -1.3787506579012186e+03 1.0000000000000000e+00 1.2641778759401131e+01 2.6754240576805315e+00 8.5621480135450678e+00 
336 1 2 4.9806019328628839e+00 -1.2880342899112568e+03 1.0000000000000000e+00 1.2517788557507499e+01 2.9219544714183141e+00 8.8091643662341621e+00 
507 1 2 4.9945146983853537e+00 -9.7817910594699185e+02 1.0000000000000000e+00 1.1723531137810722e+01 2.5970134855045925e+00 8.9998902056707433e+00 
494 1 2 4.9347221669795909e+00 -1.0924421997832826e+03 1.0000000000000000e+00 1.2227225936641853e+01 3.0660325391574723e+00 8.3289333349017109e+00 
412 1 2 4.9329771697945093e+00 -1.0495687818425649e+03 1.0000000000000000e+00 1.2415912566216193e+01 3.0807402488350979e+00 8.3775410328447855e+00 
317 1 2 4.9376973431412416e+00 -1.0548343383942781e+03 1.0000000000000000e+00 1.3003694978752806e+01 2.4488217912549399e+00 9.9386157543872056e+00 
373 1 2 5.0607725155209780e+00 -1.0650122683178793e+03 1.0000000000000000e+00 1.1981828256977598e+01 2.1845747202134218e+00 9.7383710551862137e+00 
500 1 2 5.0866308353246810e+00 -1.6463958575968065e+03 1.0000000000000000e+00 1.2970982593512622e+01 2.7269257740502657e+00 9.0789674911457681e+00 
22 1 2 4.9015500499853610e+00 -7.5398648441724674e+02 1.0000000000000000e+00 8.4117069364127364e+00 4.3434717967984620e+00 9.7030066981535370e+00 
245 1 2 5.0315958729751840e+00 -1.4319426406195334e+03 1.0000000000000000e+00 6.9448827862952367e+00 4.6363443739990968e+00 8.7236978890642103e+00 
328 1 2 5.0907434949057393e+00 -1.0281106779170311e+03 1.0000000000000000e+00 7.8725111329488699e+00 4.7621940958743538e+00 9.2140420471247939e+00 
504 1 2 4.9581285004671587e+00 -1.4636274858589643e+03 1.0000000000000000e+00 7.4738056978697598e+00 5.0388935019787136e+00 9.5437021346173623e+00 
358 1 2 5.0733804428561777e+00 -1.1131467723485412e+03 1.0000000000000000e+00 7.9148496514359143e+00 4.6964155695896794e+00 9.9285313438818061e+00 
520 1 2 5.0714272478752225e+00 -1.0020730939469072e+03 1.0000000000000000e+00 8.4597057892551621e+00 4.2227653696384388e+00 9.4266193189532110e+00 
92 1 2 5.0110454680594607e+00 -8.9417898602176729e+02 1.0000000000000000e+00 7.9307930950666350e+00 4.8054975844369654e+00 9.6002271077332519e+00 
187 1 2 4.9494190920337005e+00 -9.7435629874603239e+02 1.0000000000000000e+00 7.8372762800749713e+00 4.4593866363483947e+00 8.5762809870618799e+00 
143 1 2 5.0765474533646451e+00 -1.1297061508888760e+03 1.0000000000000000e+00 7.9028440842498417e+00 4.7921767790806022e+00 9.6261121075763860e+00 
538 1 2 4.9488026441932114e+00 -8.6296989844232075e+02 1.0000000000000000e+00 6.6900052378560781e+00 4.5253650885158310e+00 8.6916233381290340e+00 
123 1 2 5.0500957441235803e+00 -8.5456289217039068e+02 1.0000000000000000e+00 1.0644785160145494e+01 1.9315231114753053e+00 1.1504549777911592e+01 
196 1 2 5.0562765551642270e+00 -1.0348332689838946e+03 1.0000000000000000e+00 1.3205153609606723e+01 1.8304696088740848e+00 1.0821201165980135e+01 
276 1 2 5.0328404429387019e+00 -9.4760163114336558e+02 1.0000000000000000e+00 1.2474858031343098e+01 1.5628089934008920e+00 1.0949300081245747e+01 
185 1 2 5.0247428367065492e+00 -9.3614220528409737e+02 1.0000000000000000e+00 1.1841598568362636e+01 1.5897028297464129e+00 1.1855832051669976e+01 
508 1 2 4.9516655735397599e+00 -1.2778323699774385e+03 1.0000000000000000e+00 1.1857307322717951e+01 1.2270451297681035e+00 1.1942439499466087e+01 