LAMMPS data file via write_data, version 30 Jul 2016, timestep = 50000000

567 atoms
2 atom types

0.0000000000000000e+00 2.0000000000000000e+01 xlo xhi
0.0000000000000000e+00 2.0000000000000000e+01 ylo yhi
0.0000000000000000e+00 2.0000000000000000e+01 zlo zhi

Masses

1 3.896
2 5

Atoms # meso-molecular

91 1 2 3.5903117045144350e+00 -1.0658965749423708e+03 1.0000000000000000e+00 6.3949230557982100e+00 1.9255901068500674e+00 1.6130772661138548e+00 
1 1 2 3.5903117045144350e+00 -1.2275711942959465e+03 1.0000000000000000e+00 6.3949230557981167e+00 1.9255901068500596e+00 1.6130772661138704e+00 
82 1 2 3.5903117045144350e+00 -1.2962763542152641e+03 1.0000000000000000e+00 6.3949230557981407e+00 1.9255901068500620e+00 1.6130772661138633e+00 
92 1 2 3.5903117045144350e+00 -7.5843377686677366e+02 1.0000000000000000e+00 6.3949230557981522e+00 1.9255901068500725e+00 1.6130772661138588e+00 
83 1 2 3.5903117045144350e+00 -1.5392823914848768e+03 1.0000000000000000e+00 6.3949230557981611e+00 1.9255901068500632e+00 1.6130772661138568e+00 
163 1 2 3.5903117045144350e+00 -1.2801327739506282e+03 1.0000000000000000e+00 6.3949230557981549e+00 1.9255901068500629e+00 1.6130772661138555e+00 
19 1 2 3.5903117045144350e+00 -1.1500692197849214e+03 1.0000000000000000e+00 6.3949230557981505e+00 1.9255901068500698e+00 1.6130772661138597e+00 
10 1 2 3.5903117045144350e+00 -1.3085591415661800e+03 1.0000000000000000e+00 6.3949230557981656e+00 1.9255901068500725e+00 1.6130772661138644e+00 
2 1 2 3.5903117045144350e+00 -1.1895926764385590e+03 1.0000000000000000e+00 6.3949230557981540e+00 1.9255901068500627e+00 1.6130772661138588e+00 
166 1 2 4.9999999999999378e+00 -8.4446015570940722e+02 1.0000000000000000e+00 5.6075210501504440e+00 2.9934685933983842e+00 5.5895963756398741e+00 
14 1 2 4.9999999999999272e+00 -1.0558964030254822e+03 1.0000000000000000e+00 5.6075210504965831e+00 2.9934685925671203e+00 5.5895963740660415e+00 
95 1 2 5.0000000000000844e+00 -1.0869981773707780e+03 1.0000000000000000e+00 5.6075210504532658e+00 2.9934685951762012e+00 5.5895963765906966e+00 
173 1 2 4.9999999999998757e+00 -6.7462898060343093e+02 1.0000000000000000e+00 5.6075210525850974e+00 2.9934685955084017e+00 5.5895963719626796e+00 
174 1 2 4.9999999999998597e+00 -8.0063230626745656e+02 1.0000000000000000e+00 5.6075210514903970e+00 2.9934685929717846e+00 5.5895963721406972e+00 
164 1 2 5.0000000000001172e+00 -6.9134976574247298e+02 1.0000000000000000e+00 5.6075210511575468e+00 2.9934685949059552e+00 5.5895963747088944e+00 
22 1 2 4.9999999999999467e+00 -1.2222660670366758e+03 1.0000000000000000e+00 5.6075210510219247e+00 2.9934685931330813e+00 5.5895963733754694e+00 
85 1 2 4.9999999999999698e+00 -8.5852972444565808e+02 1.0000000000000000e+00 5.6075210513734950e+00 2.9934685949768216e+00 5.5895963742744481e+00 
184 1 2 4.9999999999999760e+00 -9.8169130185130712e+02 1.0000000000000000e+00 5.6075210514957137e+00 2.9934685935534362e+00 5.5895963726690008e+00 
84 1 2 5.0000000000000799e+00 -7.8578058521163371e+02 1.0000000000000000e+00 5.6075210508232516e+00 2.9934685947997419e+00 5.5895963753842146e+00 
175 1 2 5.0000000000000613e+00 -9.1643709746252716e+02 1.0000000000000000e+00 5.6075210513477760e+00 2.9934685930408818e+00 5.5895963725354934e+00 
17 1 2 5.0000000000000595e+00 -7.7635168715898772e+02 1.0000000000000000e+00 6.5214218027121760e+00 3.0744811420262277e+00 1.5429704047892564e+01 
99 1 2 4.9999999999998082e+00 -8.6783143256382562e+02 1.0000000000000000e+00 6.5214217842435147e+00 3.0744811499534443e+00 1.5429704082018860e+01 
97 1 2 5.0000000000000044e+00 -7.5292468888725693e+02 1.0000000000000000e+00 6.5235595430287061e+00 3.0735899631493906e+00 1.5425764358966193e+01 
179 1 2 4.9999999999999831e+00 -8.1331210952132585e+02 1.0000000000000000e+00 6.5214932968018822e+00 3.0744504843256260e+00 1.5429571955258808e+01 
89 1 2 4.9999999999999369e+00 -7.1627400754545260e+02 1.0000000000000000e+00 6.5214217031957658e+00 3.0744811847416509e+00 1.5429704231775652e+01 
18 1 2 5.0000000000000195e+00 -1.0537990732694407e+03 1.0000000000000000e+00 6.5214217681650757e+00 3.0744811568546462e+00 1.5429704111724797e+01 
9 1 2 5.0000000000000764e+00 -1.2030509009876500e+03 1.0000000000000000e+00 6.5214217673467578e+00 3.0744811572062187e+00 1.5429704113240554e+01 
8 1 2 5.0000000000001519e+00 -1.2034813974925205e+03 1.0000000000000000e+00 6.5214217674149895e+00 3.0744811571768196e+00 1.5429704113112599e+01 
90 1 2 4.9999999999998721e+00 -1.1289865613515726e+03 1.0000000000000000e+00 6.5214217691913685e+00 3.0744811564136043e+00 1.5429704109822843e+01 
98 1 2 5.0000000000000835e+00 -7.0042406883978322e+02 1.0000000000000000e+00 6.5214217899853404e+00 3.0744811474888256e+00 1.5429704071406853e+01 
172 1 2 3.9892352272382625e-01 7.3966884731865051e+01 1.0000000000000000e+00 9.0994596843255930e+00 3.0334471000633529e+00 1.9320907000522691e-01 
244 1 2 5.1095668434662507e+00 -8.9701987444159943e+02 1.0000000000000000e+00 1.1018239546658720e+01 7.8412062704708774e+00 1.6247156220033425e+00 
228 1 2 4.9722056060540778e+00 -9.2111604378699553e+02 1.0000000000000000e+00 1.1079199997767764e+01 7.8624464424235851e+00 1.5375723942836175e+00 
202 1 2 4.8888238065967613e+00 -1.4532606372530588e+03 1.0000000000000000e+00 1.1987948475975365e+01 7.5765962937543252e+00 1.6546870625737715e+00 
416 1 2 5.0196653775752038e+00 -5.8528156509418227e+02 1.0000000000000000e+00 1.1364714222640112e+01 7.4758367537006736e+00 1.4369568134921997e+00 
408 1 2 4.9461169657388089e+00 -9.2557684602900747e+02 1.0000000000000000e+00 1.1963604223066712e+01 7.3198415855664489e+00 1.5270497407466692e+00 
558 1 2 5.0329280159493770e+00 -1.5050912688147600e+03 1.0000000000000000e+00 1.1995692991355869e+01 6.6715908867108995e+00 1.6625151971566765e+00 
234 1 2 5.1091818908159388e+00 -1.4529893604478234e+03 1.0000000000000000e+00 1.1736517707913867e+01 6.5344456499325920e+00 1.8458886370805778e+00 
32 1 2 5.0069366126631021e+00 -1.0632690028874749e+03 1.0000000000000000e+00 1.1453702685236479e+01 6.8306957900077592e+00 1.6001437670434879e+00 
192 1 2 4.9041945669508644e+00 -1.2778148979623338e+03 1.0000000000000000e+00 1.2066015732337307e+01 6.4987678732747280e+00 1.7456618347245054e+00 
517 1 2 4.9611137049628304e+00 -1.3999305512402316e+03 1.0000000000000000e+00 1.1428757308021387e+01 6.7655045646699872e+00 1.6503210813016840e+00 
254 1 2 4.9237342777913629e+00 -9.3204489425465556e+02 1.0000000000000000e+00 1.1197640945126420e+01 6.8263155674783480e+00 1.8819775740400357e+00 
565 1 2 5.0780938821172104e+00 -1.2454376030911053e+03 1.0000000000000000e+00 9.6667696498525952e+00 9.0161383394602552e+00 1.9879498215520321e+00 
243 1 2 5.0822539585046149e+00 -1.4867047078604971e+03 1.0000000000000000e+00 1.0536007348308068e+01 8.3114983389802699e+00 1.8586650245937668e+00 
513 1 2 5.0359453205014333e+00 -1.1758341591883598e+03 1.0000000000000000e+00 1.0356307236793842e+01 8.4141260166307994e+00 1.8966925997635002e+00 
197 1 2 4.9698911171854201e+00 -7.5881215539700747e+02 1.0000000000000000e+00 1.0678528790946745e+01 8.5589349977400815e+00 1.8030121446561918e+00 
323 1 2 4.9582212793863247e+00 -1.1516814414861260e+03 1.0000000000000000e+00 1.0299983385020722e+01 9.2009808485647184e+00 1.9896252589449575e+00 
394 1 2 4.8905434933436638e+00 -6.7352722133864438e+02 1.0000000000000000e+00 9.2453958976366781e+00 9.7377588468079956e+00 1.9979223827778116e+00 
24 1 2 4.9679095425220829e+00 -1.3544749155523923e+03 1.0000000000000000e+00 1.1531258857461625e+01 8.0579201716690765e+00 1.7442315376430193e+00 
271 1 2 4.9634964682721643e+00 -1.0870988089747618e+03 1.0000000000000000e+00 1.3212253949413796e+01 5.8273688704497539e+00 3.7232685209460463e+00 
505 1 2 5.0565629464439041e+00 -1.3352048597530109e+03 1.0000000000000000e+00 1.3226671062252544e+01 5.7762360921966431e+00 3.8936176033749352e+00 
275 1 2 4.9605969199349040e+00 -9.8301470868915658e+02 1.0000000000000000e+00 1.0781113216554402e+01 7.8247871410691259e+00 2.9695689882641947e+00 
509 1 2 5.0770989184194910e+00 -1.2531321490312878e+03 1.0000000000000000e+00 1.2760650861066457e+01 6.0496008402069972e+00 3.2948996472945753e+00 
520 1 2 5.1308038247271543e+00 -1.2297363633863508e+03 1.0000000000000000e+00 1.2772702970187913e+01 6.1796232260087018e+00 3.2229409098929862e+00 
444 1 2 5.0450508568892074e+00 -1.4532662585424287e+03 1.0000000000000000e+00 1.2039947621347221e+01 6.2808742987707333e+00 2.2253017700903119e+00 
355 1 2 4.9808782514270948e+00 -8.4405581692902786e+02 1.0000000000000000e+00 1.2770010537792814e+01 6.6133971533836666e+00 2.7487890431556541e+00 
438 1 2 4.8299984166192260e+00 -7.1068563636391491e+02 1.0000000000000000e+00 1.2851123398051145e+01 6.4572540934136118e+00 2.6656687998119719e+00 
547 1 2 5.0210744407585164e+00 -1.2725814816392037e+03 1.0000000000000000e+00 1.1818144399043359e+01 6.4772554665285371e+00 2.7809964400732623e+00 
476 1 2 4.9840338150593322e+00 -9.5125004946853278e+02 1.0000000000000000e+00 1.2598058961235665e+01 6.9055748002758151e+00 2.9481565905841216e+00 
557 1 2 4.9919012763627535e+00 -9.6595760629649249e+02 1.0000000000000000e+00 1.2903646647348966e+01 6.3762325037708223e+00 3.1054615412366648e+00 
386 1 2 4.9405483598609221e+00 -1.0248557006471970e+03 1.0000000000000000e+00 1.2435425531978280e+01 6.2850709875242856e+00 2.2478859510500571e+00 
377 1 2 5.0958254981738005e+00 -7.8482246905562306e+02 1.0000000000000000e+00 1.2900703663611306e+01 6.3927637604479344e+00 3.4579361168554299e+00 
316 1 2 4.8969571857469640e+00 -1.3560833864602268e+03 1.0000000000000000e+00 8.8400992828107547e+00 9.5736592800822500e+00 3.6134894569737095e+00 
135 1 2 4.9138902338776509e+00 -1.4171423370323980e+03 1.0000000000000000e+00 8.6073452298091446e+00 9.8133122331767648e+00 2.4987573828148681e+00 
455 1 2 4.9992147124978228e+00 -1.1870114714190222e+03 1.0000000000000000e+00 1.0980248902525551e+01 8.7810180013080039e+00 2.3944654508693963e+00 
137 1 2 5.1254693511611444e+00 -9.5171884486789804e+02 1.0000000000000000e+00 9.9558061776027227e+00 9.8513734986403669e+00 2.7753293729930331e+00 
236 1 2 4.9866010244608505e+00 -1.6541744777870144e+03 1.0000000000000000e+00 9.7614809883092821e+00 9.6846696724088162e+00 2.0465604902678742e+00 
74 1 2 4.9724589972275322e+00 -1.4254854120605871e+03 1.0000000000000000e+00 9.2556636291976364e+00 8.9904047904224900e+00 2.2940541222669104e+00 
41 1 2 5.0497489639375619e+00 -1.1789685000334823e+03 1.0000000000000000e+00 9.3366044811682229e+00 8.9365105307799571e+00 2.3349517477606154e+00 
63 1 2 5.0185151005774467e+00 -9.6289575620296648e+02 1.0000000000000000e+00 1.1102293241547368e+01 8.6177788414168859e+00 2.2355516035917815e+00 
30 1 2 5.0554887706253453e+00 -1.3495937628347106e+03 1.0000000000000000e+00 9.0719141795457983e+00 9.8659854475935607e+00 2.1538581560797878e+00 
140 1 2 5.0235263513938744e+00 -1.2985117809818803e+03 1.0000000000000000e+00 8.9534056973474900e+00 9.2088909810788042e+00 2.7083740177066202e+00 
335 1 2 4.9241445319764523e+00 -7.4033753626008149e+02 1.0000000000000000e+00 9.3919669419790797e+00 8.7828903861872174e+00 2.6994972185609338e+00 
439 1 2 4.9800166671451578e+00 -1.0726079667251925e+03 1.0000000000000000e+00 1.0150607249983032e+01 8.7847791942850435e+00 3.8547434426727052e+00 
532 1 2 5.0140252411356565e+00 -1.3790330973727457e+03 1.0000000000000000e+00 1.0035886760056604e+01 9.7988614607416658e+00 2.9616848227587123e+00 
474 1 2 5.0076957367635231e+00 -8.9220160575621878e+02 1.0000000000000000e+00 1.1055135481966037e+01 8.2023816536877892e+00 3.6732912290622259e+00 
462 1 2 4.8670641225377134e+00 -8.7740930021746715e+02 1.0000000000000000e+00 1.0395086194151903e+01 8.4214071080074202e+00 3.8890868802239833e+00 
67 1 2 4.9352906650946284e+00 -1.5925144449546824e+03 1.0000000000000000e+00 1.1618506055397969e+01 8.0322725885657835e+00 2.8507996767696127e+00 
311 1 2 4.8376588715770392e+00 -7.1830196219311949e+02 1.0000000000000000e+00 1.1154975739195358e+01 8.4564558975921784e+00 3.5916424127379836e+00 
354 1 2 4.9983044173965290e+00 -1.3277298348039237e+03 1.0000000000000000e+00 1.1129439929447113e+01 8.1155192516258996e+00 3.4586102873941846e+00 
4 1 2 4.9999999999999796e+00 -8.0898683988700736e+02 1.0000000000000000e+00 6.7595659158912884e+00 2.8847730764494868e+00 5.6418677792505143e+00 
369 1 2 5.0081670297449783e+00 -1.1967633196901593e+03 1.0000000000000000e+00 1.3318539761797165e+01 5.6853034631762789e+00 4.0427857029231049e+00 
336 1 2 5.0944593629023665e+00 -7.2203593150081849e+02 1.0000000000000000e+00 1.2742896524126337e+01 5.3559724019614441e+00 5.1825861715460908e+00 
273 1 2 5.0477772649816490e+00 -1.7055273714944199e+03 1.0000000000000000e+00 1.3188203618591862e+01 5.1490185146836946e+00 4.9027124918982574e+00 
193 1 2 5.0184160525858674e+00 -1.1277334121158617e+03 1.0000000000000000e+00 1.3077742942844630e+01 4.9768813190687355e+00 5.9825815963201592e+00 
262 1 2 4.9876487028102927e+00 -1.4856443801473365e+03 1.0000000000000000e+00 1.3285049923205474e+01 5.3168574173941767e+00 4.4652277975059507e+00 
199 1 2 5.0234058090545544e+00 -1.4534586877185732e+03 1.0000000000000000e+00 1.3163709905068391e+01 5.0670501053063699e+00 5.1574029047559682e+00 
521 1 2 5.0498110590994827e+00 -9.9197334027723571e+02 1.0000000000000000e+00 1.3156944471989705e+01 5.0673776888648456e+00 5.2229486917404921e+00 
432 1 2 5.0429698867592547e+00 -1.2094671494953125e+03 1.0000000000000000e+00 1.3259209883549012e+01 5.0073742417820801e+00 5.8399114569188031e+00 
154 1 2 4.9592283786136857e+00 -1.3654798050595571e+03 1.0000000000000000e+00 1.0901079984812606e+01 7.9770176818511249e+00 4.5723794405726679e+00 
181 1 2 4.9438175451197557e+00 -1.0472959513721867e+03 1.0000000000000000e+00 1.1656855939142803e+01 7.7662863041713797e+00 4.2838112733801736e+00 
349 1 2 4.8697807171909995e+00 -5.9659171949648930e+02 1.0000000000000000e+00 1.2807513440837923e+01 6.7885449401425122e+00 5.0649189925125349e+00 
144 1 2 4.8420224343034040e+00 -8.3860505934786022e+02 1.0000000000000000e+00 1.2119475576552963e+01 7.6665110790290125e+00 4.9599011880785113e+00 
276 1 2 4.9942136992227990e+00 -8.7231133184934015e+02 1.0000000000000000e+00 1.1974503765419630e+01 7.2934528049628611e+00 5.1775176399306773e+00 
141 1 2 5.1448717742021586e+00 -1.4386794912253010e+03 1.0000000000000000e+00 1.1814248095230520e+01 7.5921449118255273e+00 5.4254529625265233e+00 
427 1 2 5.0748066037738813e+00 -1.1042267577109055e+03 1.0000000000000000e+00 1.2497919907196097e+01 6.2620677783534715e+00 4.5104201612961345e+00 
80 1 2 5.0471436954364082e+00 -1.4379597565552722e+03 1.0000000000000000e+00 1.2585817490487301e+01 7.0269128973705604e+00 5.9058741384781390e+00 
393 1 2 5.1122147056296070e+00 -8.3824770913632358e+02 1.0000000000000000e+00 1.2018278394477333e+01 7.6630521973422034e+00 5.4952009546671912e+00 
566 1 2 4.9015061838480776e+00 -1.0386145638167523e+03 1.0000000000000000e+00 1.1392357425306640e+01 7.6122747183988722e+00 4.3518716315683541e+00 
238 1 2 4.9348895884775734e+00 -1.3695867042728482e+03 1.0000000000000000e+00 1.1435282301342180e+01 7.7468802602888553e+00 4.1199932119050047e+00 
395 1 2 4.9029939845832100e+00 -9.6697785017520096e+02 1.0000000000000000e+00 1.2222491952862162e+01 7.4985214310272132e+00 5.1669324667910317e+00 
320 1 2 5.0259708956804330e+00 -9.5692886374510681e+02 1.0000000000000000e+00 1.1720735362495837e+01 7.4688305408881188e+00 5.1734656988847103e+00 
313 1 2 4.9389641702745761e+00 -1.0080973830566857e+03 1.0000000000000000e+00 8.9491857116908164e+00 9.8302383950285783e+00 4.0748512474436449e+00 
552 1 2 5.0527920043064229e+00 -1.3260093687349008e+03 1.0000000000000000e+00 1.0043560796505751e+01 9.9552163011898855e+00 5.4773464710313604e+00 
208 1 2 4.9894889394389592e+00 -1.4281689658572957e+03 1.0000000000000000e+00 9.9115533756724208e+00 9.3442088436291098e+00 5.0038780725403171e+00 
131 1 2 5.0165171316032682e+00 -1.0556898592022251e+03 1.0000000000000000e+00 1.0380924603147085e+01 9.2814459841864760e+00 4.8178161099173078e+00 
43 1 2 4.9115106944811160e+00 -8.3105061678704817e+02 1.0000000000000000e+00 9.7981340239146455e+00 9.4269488186211134e+00 4.5595907266494065e+00 
487 1 2 5.0630942229561642e+00 -7.3727213370123786e+02 1.0000000000000000e+00 9.4430269541984959e+00 9.8294167215907677e+00 4.2023518418436332e+00 
352 1 2 5.0353706403509424e+00 -9.2616765848261491e+02 1.0000000000000000e+00 1.0798469517713967e+01 9.1290437334904198e+00 5.5408525829570801e+00 
387 1 2 4.9197590213000941e+00 -1.0253401217311905e+03 1.0000000000000000e+00 9.6600185927739695e+00 9.9259335786065250e+00 4.6038513953312066e+00 
211 1 2 4.9832188416957344e+00 -1.5979810401325701e+03 1.0000000000000000e+00 1.0377138811155774e+01 8.6974749276575860e+00 4.6399955477334975e+00 
56 1 2 4.9887977843680877e+00 -1.0386050602797054e+03 1.0000000000000000e+00 1.0208472434883474e+01 9.1260667648805391e+00 5.5393735213773709e+00 
471 1 2 5.1857436019829635e+00 -9.4572873091896304e+02 1.0000000000000000e+00 1.1061332521745349e+01 8.5337691375585170e+00 4.7091559598982560e+00 
11 1 2 5.0000000000000764e+00 -7.7838887315757279e+02 1.0000000000000000e+00 7.2512874042886661e+00 2.2151447957376522e+00 6.4490618889266793e+00 
3 1 2 4.9999999999998979e+00 -8.4884948293293814e+02 1.0000000000000000e+00 7.2512874053982532e+00 2.2151448019155997e+00 6.4490618926336909e+00 
104 1 2 4.9999999999999529e+00 -1.1141572373637937e+03 1.0000000000000000e+00 7.2512874056834384e+00 2.2151447998248397e+00 6.4490618903220760e+00 
5 1 2 4.9999999999999885e+00 -9.2260531034546989e+02 1.0000000000000000e+00 7.2512874068261164e+00 2.2151448021713440e+00 6.4490618905759849e+00 
13 1 2 5.0000000000000080e+00 -1.4711239753457244e+03 1.0000000000000000e+00 7.2512874046842102e+00 2.2151447993627484e+00 6.4490618915106834e+00 
165 1 2 4.9999999999999769e+00 -1.0427028808787329e+03 1.0000000000000000e+00 7.2512874069525779e+00 2.2151448020127904e+00 6.4490618902329722e+00 
94 1 2 4.9999999999998810e+00 -8.9348563542294778e+02 1.0000000000000000e+00 7.2512874058055097e+00 2.2151448005960255e+00 6.4490618908111843e+00 
21 1 2 4.9999999999998916e+00 -7.3376072066577012e+02 1.0000000000000000e+00 7.2512874053879592e+00 2.2151448011718924e+00 6.4490618919902332e+00 
93 1 2 5.0000000000000782e+00 -7.7682736426766542e+02 1.0000000000000000e+00 7.2512874050955025e+00 2.2151447976626488e+00 6.4490618893439366e+00 
20 1 2 5.0000000000000142e+00 -8.6460045558502907e+02 1.0000000000000000e+00 7.2512874045133637e+00 2.2151447992872866e+00 6.4490618917170597e+00 
12 1 2 4.9999999999999263e+00 -7.1380848482573094e+02 1.0000000000000000e+00 7.2512874047323113e+00 2.2151447976419751e+00 6.4490618899068890e+00 
356 1 2 4.9812790124152766e+00 -9.8748398022143601e+02 1.0000000000000000e+00 1.3113060470584493e+01 4.9590678960787082e+00 6.1656073620352343e+00 
241 1 2 4.9294807208060769e+00 -6.1760935088641372e+02 1.0000000000000000e+00 1.2972531417107133e+01 5.1370638363606442e+00 7.7522512396895529e+00 
230 1 2 4.9867122753957496e+00 -8.4808159577078243e+02 1.0000000000000000e+00 1.3111735387903433e+01 4.9903104479535347e+00 6.6390820134907207e+00 
289 1 2 4.9551467759578474e+00 -1.3238068323246057e+03 1.0000000000000000e+00 1.2927637738919840e+01 5.0768828976305054e+00 7.1969395963372422e+00 
287 1 2 4.8409094156739068e+00 -1.3349155850901632e+03 1.0000000000000000e+00 1.3079701890574686e+01 4.9521416467535238e+00 7.3727045678547425e+00 
312 1 2 4.9043596481389136e+00 -7.3052393197962840e+02 1.0000000000000000e+00 1.2589556295675832e+01 5.3889858477550892e+00 7.2048134940629254e+00 
111 1 2 4.9551452889446486e+00 -1.1214399593785563e+03 1.0000000000000000e+00 1.2651990724162122e+01 7.1111265866517819e+00 6.1670017839723164e+00 
371 1 2 4.9253153044228339e+00 -1.0958138695760642e+03 1.0000000000000000e+00 1.2282129292356833e+01 6.2932456384449669e+00 6.7978752929220523e+00 
366 1 2 5.0146060927682932e+00 -9.3592277902121043e+02 1.0000000000000000e+00 1.2258642877502494e+01 7.3784717318513788e+00 6.7289376527584022e+00 
346 1 2 5.0434194674664719e+00 -1.2485795063928199e+03 1.0000000000000000e+00 1.2522030016668669e+01 7.1559783952572138e+00 6.3526263732985893e+00 
75 1 2 5.0358516423787467e+00 -1.1813429262066491e+03 1.0000000000000000e+00 1.2997767744586406e+01 6.6633463467191811e+00 6.1730485306056959e+00 
265 1 2 4.9976560747655396e+00 -1.0332491113906306e+03 1.0000000000000000e+00 1.2340077234932924e+01 7.1107850511764363e+00 7.3190082343756382e+00 
480 1 2 5.0940580474592947e+00 -1.0011201536595147e+03 1.0000000000000000e+00 1.2374353864775941e+01 6.2585681610076573e+00 7.0308437004669990e+00 
410 1 2 4.9589470892575118e+00 -1.0519477542931565e+03 1.0000000000000000e+00 1.2037438917417099e+01 7.9132220071096260e+00 7.0901076119905770e+00 
538 1 2 5.1450646201920502e+00 -8.7974197039933006e+02 1.0000000000000000e+00 1.2561545344374910e+01 6.8842410343520140e+00 7.8778834963517141e+00 
473 1 2 5.1030015987083219e+00 -7.8782698861103393e+02 1.0000000000000000e+00 1.0881154689738947e+01 9.0297853704788817e+00 6.1962493291465863e+00 
51 1 2 4.9085696551848104e+00 -8.6560717345768603e+02 1.0000000000000000e+00 1.0614788326809396e+01 9.1386625288449785e+00 6.8845177804338125e+00 
70 1 2 5.1061117844026764e+00 -9.2108227139368603e+02 1.0000000000000000e+00 1.0099742562745289e+01 9.8348262684524155e+00 6.4479492433390275e+00 
142 1 2 5.0174272330876306e+00 -9.7247002506827869e+02 1.0000000000000000e+00 1.1093202843149889e+01 8.9815247556442870e+00 6.0966857721781214e+00 
58 1 2 4.9615619192480009e+00 -1.4468029650201242e+03 1.0000000000000000e+00 1.1045063224014651e+01 8.6096616405509145e+00 6.3894220114269995e+00 
101 1 2 4.9003110344060312e+00 -1.2178416731384098e+03 1.0000000000000000e+00 1.0957201524518345e+01 8.9293405215812811e+00 7.3155780680395370e+00 
232 1 2 5.0433104902091017e+00 -7.1127533583465856e+02 1.0000000000000000e+00 1.1365243310937961e+01 8.4848653385862534e+00 6.5890528396219974e+00 
42 1 2 4.9037151674610246e+00 -1.1742204165195712e+03 1.0000000000000000e+00 1.1898537048159756e+01 8.4837489268618675e+00 7.0833644872818953e+00 
160 1 2 5.1248959855385152e+00 -1.2604055518313824e+03 1.0000000000000000e+00 1.1245038715021810e+01 9.0029112848058457e+00 6.7766265081376575e+00 
360 1 2 4.9555451832267936e+00 -1.1378727592939715e+03 1.0000000000000000e+00 1.1569338730846034e+01 9.2789793226410726e+00 7.5423497713359025e+00 
113 1 2 4.8798058928047121e+00 -8.9617506576387200e+02 1.0000000000000000e+00 1.1608514732712292e+01 9.1951689356728163e+00 7.2836812607915675e+00 
156 1 2 5.1345151125068407e+00 -9.3765043074753009e+02 1.0000000000000000e+00 1.1336568856603069e+01 8.8868699932241366e+00 7.3590195623051056e+00 
109 1 2 4.9024573525179651e+00 -9.7677015113433413e+02 1.0000000000000000e+00 1.2859755362447185e+01 5.4863756996798285e+00 8.1905328245654552e+00 
528 1 2 4.9924550761726847e+00 -9.4842702586679604e+02 1.0000000000000000e+00 1.3318973944701320e+01 5.5904691506272712e+00 8.7965057718106081e+00 
350 1 2 5.0207905703738929e+00 -6.2439495392599838e+02 1.0000000000000000e+00 1.3227561670750488e+01 6.5167544393646422e+00 8.8057522122659062e+00 
406 1 2 4.9971626806594500e+00 -9.1717476131268143e+02 1.0000000000000000e+00 1.2454117832621495e+01 7.1553037010558649e+00 8.2031279331494602e+00 
305 1 2 4.9625429313890370e+00 -9.6603451474362532e+02 1.0000000000000000e+00 1.2257853695969432e+01 7.9177714515577646e+00 8.1769613219452300e+00 
290 1 2 5.0041146450182730e+00 -1.0067034308855374e+03 1.0000000000000000e+00 1.2883591497625135e+01 7.1076307523098086e+00 8.6590784932599494e+00 
153 1 2 4.8524054191754233e+00 -1.1433040884148265e+03 1.0000000000000000e+00 1.2803015583570293e+01 7.7493523460638523e+00 8.7947450268209746e+00 
182 1 2 4.9729628801030712e+00 -9.3435535360426434e+02 1.0000000000000000e+00 1.2532048624455863e+01 6.4539030962463322e+00 8.2086002781082428e+00 
185 1 2 4.9664078970683274e+00 -9.2896739391414280e+02 1.0000000000000000e+00 1.2823534973024996e+01 6.8595619326218200e+00 9.1164161421419454e+00 
365 1 2 4.9726132859561707e+00 -9.4292670774779924e+02 1.0000000000000000e+00 1.2441285279770216e+01 7.7748574891526800e+00 9.3716253895883277e+00 
123 1 2 4.9955282782338983e+00 -9.9650151013333357e+02 1.0000000000000000e+00 1.3120727893452004e+01 6.6546148200466240e+00 9.6077367302912329e+00 
324 1 2 5.0301891794563529e+00 -1.2603625834710299e+03 1.0000000000000000e+00 1.1085878522683652e+01 9.8620806254646709e+00 8.3829973352963627e+00 
226 1 2 4.9076233233788580e+00 -1.4447775915901675e+03 1.0000000000000000e+00 1.2123109659290302e+01 8.8776472937607185e+00 8.6402621800742558e+00 
541 1 2 5.0046985669141231e+00 -1.4037406129812723e+03 1.0000000000000000e+00 1.2049254744678192e+01 8.5342882825494115e+00 8.4867308188254480e+00 
347 1 2 4.9367080717173302e+00 -7.3431844385590739e+02 1.0000000000000000e+00 1.2204456048989256e+01 8.0715520952455684e+00 8.0087149304130492e+00 
437 1 2 5.0574408492638447e+00 -6.5050739414344446e+02 1.0000000000000000e+00 1.2497560338144307e+01 8.1532436461438174e+00 9.4462160110519555e+00 
281 1 2 5.0178556031295622e+00 -1.4727343952364974e+03 1.0000000000000000e+00 1.2205028041705084e+01 8.6616227893379563e+00 9.7587803466813092e+00 
55 1 2 4.9307908520475561e+00 -1.3851114145964511e+03 1.0000000000000000e+00 1.1412044364856975e+01 9.8415827083657739e+00 8.4034943510841611e+00 
134 1 2 5.0230289270504267e+00 -1.1747731433639765e+03 1.0000000000000000e+00 1.2241247918939038e+01 9.0383290348755665e+00 9.7792540115755706e+00 
338 1 2 5.0241540505269633e+00 -7.8733945066637807e+02 1.0000000000000000e+00 1.2050758536900751e+01 9.3839979806021212e+00 9.7315656164268489e+00 
36 1 2 5.0170262062834903e+00 -8.8349341573824472e+02 1.0000000000000000e+00 1.1220084019247873e+01 9.8625791768560713e+00 8.3287146893046806e+00 
200 1 2 5.0468087666784900e+00 -1.4915550381353512e+03 1.0000000000000000e+00 1.2261088325994471e+01 8.3542083415990493e+00 8.9411943566359415e+00 
372 1 2 4.9995470610888360e+00 -9.8124980970162278e+02 1.0000000000000000e+00 1.1930078690211230e+01 9.5235183431225856e+00 9.5824573636161237e+00 
87 1 2 4.9999999999999201e+00 -1.0886847917622315e+03 1.0000000000000000e+00 7.1371165765818390e+00 2.5815079247030721e+00 1.1507875828123069e+01 
86 1 2 4.9999999999999787e+00 -1.1048018365345615e+03 1.0000000000000000e+00 6.9178043426480516e+00 2.4605444456181211e+00 1.1669184766967495e+01 
168 1 2 4.9999999999999547e+00 -1.0703925298226507e+03 1.0000000000000000e+00 7.1372064908046360e+00 2.5814443905424977e+00 1.1507641486670174e+01 
177 1 2 5.0000000000000266e+00 -7.4159780370395436e+02 1.0000000000000000e+00 7.1370018233997445e+00 2.5815929007282743e+00 1.1508157785192191e+01 
186 1 2 4.9999999999999982e+00 -7.9947386444696906e+02 1.0000000000000000e+00 7.1371514675421324e+00 2.5813938130134564e+00 1.1508109377377549e+01 
178 1 2 5.0000000000000568e+00 -7.3573887614398416e+02 1.0000000000000000e+00 7.1371777341118543e+00 2.5814205840566853e+00 1.1507877380466491e+01 
105 1 2 4.9999999999999378e+00 -8.2482742094292212e+02 1.0000000000000000e+00 7.1371631291720510e+00 2.5814203602688273e+00 1.1507953523679371e+01 
16 1 2 5.0000000000000435e+00 -1.3833974769327642e+03 1.0000000000000000e+00 6.8174985074544319e+00 2.3508235179553822e+00 1.1411056693010426e+01 
7 1 2 4.9999999999999307e+00 -1.4766939362635694e+03 1.0000000000000000e+00 6.8175195922776926e+00 2.3509982456745462e+00 1.1410698591306716e+01 
88 1 2 4.9999999999999680e+00 -8.9938343557227074e+02 1.0000000000000000e+00 6.8175687470811983e+00 2.3507680707436704e+00 1.1410987105653316e+01 
6 1 2 4.9999999999999938e+00 -1.0171720233811607e+03 1.0000000000000000e+00 6.8175036063226333e+00 2.3507576122491596e+00 1.1411161189336099e+01 
15 1 2 4.9999999999999405e+00 -9.3033506628743760e+02 1.0000000000000000e+00 6.8175050305262141e+00 2.3507604573292902e+00 1.1411152740475808e+01 
96 1 2 5.0000000000000089e+00 -1.1297487713871433e+03 1.0000000000000000e+00 6.8174084556201553e+00 2.3508060781612268e+00 1.1411303141196994e+01 
239 1 2 5.0394749564016674e+00 -8.6245649464610153e+02 1.0000000000000000e+00 1.3214801516266789e+01 6.7661427121320097e+00 1.0159428494127786e+01 
306 1 2 5.0426175731443648e+00 -9.1737250711779586e+02 1.0000000000000000e+00 1.3315838748927332e+01 7.5053332261102463e+00 1.1273719466492254e+01 
536 1 2 5.0026319035726647e+00 -8.7853644209085701e+02 1.0000000000000000e+00 1.3007204337768931e+01 7.4208418268309604e+00 1.1185819443403027e+01 
194 1 2 4.9378493575137821e+00 -8.8664799498775608e+02 1.0000000000000000e+00 1.3024038742541611e+01 7.2190191666512318e+00 1.1066662189770874e+01 
400 1 2 4.9256431391924149e+00 -9.4229256647411796e+02 1.0000000000000000e+00 1.3032136392876509e+01 7.4849817852984097e+00 1.1749351649375086e+01 
112 1 2 4.9944703381349598e+00 -1.2617453651946960e+03 1.0000000000000000e+00 1.2818662854230034e+01 7.9568517277965567e+00 1.0054125464853938e+01 
245 1 2 5.0387292671129336e+00 -1.0809129901184222e+03 1.0000000000000000e+00 1.2414065119785064e+01 8.8229225496043249e+00 1.1148848932602005e+01 
294 1 2 5.0218593826033020e+00 -9.3539590234282957e+02 1.0000000000000000e+00 1.2315854148699634e+01 9.0658433814120869e+00 1.1161261127627371e+01 
464 1 2 4.9157930855016421e+00 -6.5069625673252131e+02 1.0000000000000000e+00 1.2510105259009642e+01 9.1429212461772451e+00 1.0779764266079397e+01 
423 1 2 4.9601694313386329e+00 -1.3992482279617564e+03 1.0000000000000000e+00 1.2694214477639296e+01 8.5582598198277022e+00 1.0444656996085252e+01 
46 1 2 4.8494711722654884e+00 -1.1588477865786097e+03 1.0000000000000000e+00 1.2430577658701818e+01 9.6144247882817293e+00 1.1188788266861314e+01 
447 1 2 4.8950658133752052e+00 -8.1363501147878446e+02 1.0000000000000000e+00 1.2169154731260074e+01 9.0943652638703334e+00 1.1809717653869518e+01 
159 1 2 5.0086289255828875e+00 -1.3602615826318831e+03 1.0000000000000000e+00 1.2479726941629524e+01 8.7057566964570032e+00 1.0161880629587969e+01 
319 1 2 4.8459815747835266e+00 -1.5728731095799722e+03 1.0000000000000000e+00 1.2712879111117113e+01 9.3136740531186746e+00 1.1644488237729343e+01 