LAMMPS data file via write_data, version 30 Jul 2016, timestep = 50000000

567 atoms
2 atom types

0.0000000000000000e+00 2.0000000000000000e+01 xlo xhi
0.0000000000000000e+00 2.0000000000000000e+01 ylo yhi
0.0000000000000000e+00 2.0000000000000000e+01 zlo zhi

Masses

1 3.896
2 5

Atoms # meso-molecular

1 1 2 3.5903117045144350e+00 -1.0105285228606709e+03 1.0000000000000000e+00 6.3410481868853523e+00 1.9369464677292829e+00 1.7527626004932437e+00 
82 1 2 3.5903117045144350e+00 -8.9062298498178438e+02 1.0000000000000000e+00 6.3410481868853541e+00 1.9369464677292909e+00 1.7527626004932542e+00 
91 1 2 3.5903117045144350e+00 -9.4029047693530902e+02 1.0000000000000000e+00 6.3410481868853497e+00 1.9369464677292905e+00 1.7527626004932517e+00 
2 1 2 3.5903117045144350e+00 -8.6096838082441013e+02 1.0000000000000000e+00 6.3410481868853301e+00 1.9369464677292880e+00 1.7527626004932464e+00 
83 1 2 3.5903117045144350e+00 -8.2382427681849651e+02 1.0000000000000000e+00 6.3410481868853585e+00 1.9369464677292894e+00 1.7527626004932555e+00 
172 1 2 3.5903117045144350e+00 -9.8644171431689392e+02 1.0000000000000000e+00 6.3410481868853434e+00 1.9369464677292874e+00 1.7527626004932511e+00 
163 1 2 3.5903117045144350e+00 -1.2100694056942061e+03 1.0000000000000000e+00 6.3410481868853470e+00 1.9369464677292942e+00 1.7527626004932515e+00 
10 1 2 3.5903117045144350e+00 -9.5728585866700519e+02 1.0000000000000000e+00 6.3410481868853417e+00 1.9369464677292763e+00 1.7527626004932473e+00 
11 1 2 3.5903117045144350e+00 -1.0745757644119051e+03 1.0000000000000000e+00 6.3410481868853665e+00 1.9369464677292891e+00 1.7527626004932513e+00 
339 1 2 4.9923247593280342e+00 -1.2400428476789536e+03 1.0000000000000000e+00 6.2464510859084745e+00 4.3188158399313767e+00 9.7330970019056551e+00 
144 1 2 4.7659497432218334e+00 -8.9441686572073104e+02 1.0000000000000000e+00 6.4997133290151528e+00 4.5596575601896099e+00 9.5474214553628478e+00 
451 1 2 4.9773016053171961e+00 -1.1259888362722943e+03 1.0000000000000000e+00 6.0088781214889071e+00 4.6157617145398691e+00 9.9653924921953845e+00 
221 1 2 5.0679080935542977e+00 -1.0935327993593851e+03 1.0000000000000000e+00 5.8977462820700435e+00 3.4611068991867424e+00 1.0284725374369934e+01 
394 1 2 4.9199343390452217e+00 -1.1184125158364418e+03 1.0000000000000000e+00 4.7292056152208666e+00 3.9786033572688839e+00 1.1452107827581951e+01 
432 1 2 4.9373146942975268e+00 -1.0496925083088179e+03 1.0000000000000000e+00 5.5022291094274216e+00 2.6822296304354061e+00 1.1531818118257489e+01 
371 1 2 4.9330376318458962e+00 -1.1520000118463545e+03 1.0000000000000000e+00 4.6508236247059287e+00 3.5506700722885198e+00 1.1394721782442323e+01 
349 1 2 4.9601592702005801e+00 -1.1567342222342850e+03 1.0000000000000000e+00 5.2390553379335358e+00 2.9441238744017806e+00 1.1017436508288055e+01 
303 1 2 5.0979158871319878e+00 -9.1317071380836705e+02 1.0000000000000000e+00 5.7692373600820215e+00 3.0588851690283536e+00 1.0739757350399470e+01 
426 1 2 5.0751187257298849e+00 -9.2473546023356732e+02 1.0000000000000000e+00 4.7956124595064180e+00 3.2956861180275112e+00 1.1512142867708800e+01 
197 1 2 5.0852661127185828e+00 -1.0797418289510590e+03 1.0000000000000000e+00 4.7850551591029484e+00 3.7142711720061872e+00 1.1626856238150490e+01 
468 1 2 5.0379893544515069e+00 -1.3829959349980038e+03 1.0000000000000000e+00 5.1913865623791633e+00 3.3810306765057567e+00 1.0562137428260897e+01 
535 1 2 4.9560119568826151e+00 -1.0538609916944990e+03 1.0000000000000000e+00 5.9531052930890072e+00 3.6007241053825987e+00 1.0118992064394478e+01 
320 1 2 5.0844275715721849e+00 -1.1191668001451574e+03 1.0000000000000000e+00 5.7050884054973183e+00 3.9704801944190531e+00 1.1853995236157827e+01 
480 1 2 5.0790033229135174e+00 -8.3233768976615818e+02 1.0000000000000000e+00 5.0878452412152866e+00 3.7711400075970722e+00 1.1907167390123700e+01 
509 1 2 4.9662030132621879e+00 -1.0147888031878318e+03 1.0000000000000000e+00 4.9161032528061570e+00 3.2619259050640541e+00 1.1871146651803773e+01 
160 1 2 5.1092399454300130e+00 -1.5708349017561527e+03 1.0000000000000000e+00 5.4840950560448976e+00 4.4547829727903387e+00 1.1299927491514833e+01 
373 1 2 4.9953834992481987e+00 -1.0645016572505569e+03 1.0000000000000000e+00 4.9909325788672003e+00 4.3408628232041586e+00 1.0863710783505194e+01 
85 1 2 5.0012958046479099e+00 -7.3527761083542180e+02 1.0000000000000000e+00 6.4289447300119065e+00 4.5554350807437824e+00 1.0881763090092784e+01 
22 1 2 4.9727457435784048e+00 -7.5643840717507885e+02 1.0000000000000000e+00 4.7672005090810909e+00 4.1056856913876931e+00 1.1183570069259320e+01 
276 1 2 4.9290019841478632e+00 -9.5151719873816580e+02 1.0000000000000000e+00 5.9716853787194202e+00 4.8034760077171619e+00 1.0417641802423713e+01 
187 1 2 4.9303125083197923e+00 -9.7339624807581424e+02 1.0000000000000000e+00 5.0044785626344757e+00 4.3282934890633999e+00 1.0717819427190213e+01 
150 1 2 5.0612283288698388e+00 -1.3853901337485931e+03 1.0000000000000000e+00 6.3330201717587311e+00 4.8120430539890284e+00 1.0150165063469791e+01 
531 1 2 4.8670463228855869e+00 -1.3299503517232993e+03 1.0000000000000000e+00 5.6338853534877584e+00 4.6708833457003838e+00 1.0314026955364548e+01 
78 1 2 5.0256254606009358e+00 -1.4365188501074836e+03 1.0000000000000000e+00 5.2736013653936169e+00 1.4288092231699545e+00 1.3852367229623306e+01 
266 1 2 4.9334542954542782e+00 -8.7764275083675807e+02 1.0000000000000000e+00 5.4564595464806729e+00 1.5462029737680050e+00 1.3303894013477080e+01 
399 1 2 4.9455856059135659e+00 -1.1650677601405953e+03 1.0000000000000000e+00 5.2654678981345153e+00 1.7685483950802761e+00 1.3525876574322508e+01 
14 1 2 5.0292322188993328e+00 -9.6307324580901025e+02 1.0000000000000000e+00 5.3758613006399925e+00 1.5147816086651087e+00 1.3477280253565423e+01 
436 1 2 5.1590917399476321e+00 -9.6538545055164604e+02 1.0000000000000000e+00 5.9842078721424725e+00 9.4289481002361397e-01 1.3818497830805516e+01 
295 1 2 5.0940141211732950e+00 -5.7345843550601535e+02 1.0000000000000000e+00 5.5457956240938779e+00 2.1901794683039495e+00 1.3577824701323404e+01 
220 1 2 4.9363551778064023e+00 -8.3179489015202398e+02 1.0000000000000000e+00 6.5236831404325422e+00 2.4462708166718001e+00 1.3269322582418122e+01 
351 1 2 5.0008795820255099e+00 -8.5980301716029237e+02 1.0000000000000000e+00 5.4240429656288471e+00 2.9163689545255997e+00 1.2271781271203167e+01 
112 1 2 5.0016672232699273e+00 -7.3236555134302398e+02 1.0000000000000000e+00 5.9605456953240612e+00 2.3688902440252630e+00 1.2595170592441015e+01 
324 1 2 4.9098791602555716e+00 -1.2395110978763255e+03 1.0000000000000000e+00 5.6851297673920733e+00 2.3953578121426276e+00 1.3449613904279563e+01 
449 1 2 5.1507557283944676e+00 -1.0980695799638618e+03 1.0000000000000000e+00 5.8321926159107891e+00 3.1684974736802123e+00 1.2303506294923992e+01 
275 1 2 5.0467123564668963e+00 -8.4569000083621438e+02 1.0000000000000000e+00 6.4192071652339875e+00 2.4033565682984350e+00 1.3330017302206667e+01 
241 1 2 4.9866009769012773e+00 -1.5455584912071640e+03 1.0000000000000000e+00 5.9404236201242737e+00 2.5299406278460617e+00 1.2000191585520337e+01 
122 1 2 4.8000073266376502e+00 -8.3971857397132578e+02 1.0000000000000000e+00 5.2468076503706751e+00 1.8236234717169355e+00 1.4075791528577879e+01 
72 1 2 5.0395328459898323e+00 -9.4846789520656148e+02 1.0000000000000000e+00 5.5152963161379267e+00 1.3431875823911834e+00 1.4411563370001906e+01 
413 1 2 5.1281655795118342e+00 -1.8043650562332627e+03 1.0000000000000000e+00 5.7586459412513245e+00 1.0097507563715871e+00 1.4351666271668790e+01 
450 1 2 4.9954148954820470e+00 -1.1741575437213492e+03 1.0000000000000000e+00 5.3308981753251468e+00 1.2894025028065308e+00 1.4073834474082181e+01 
444 1 2 5.1486206671694914e+00 -9.1932651448056333e+02 1.0000000000000000e+00 6.4494646007860048e+00 1.6179625393841377e+00 1.4678816709144794e+01 
495 1 2 4.9891601669790635e+00 -1.6578197220493576e+03 1.0000000000000000e+00 5.3177466408439358e+00 1.2876801854947659e+00 1.4006090994245834e+01 
389 1 2 4.9285404041032299e+00 -8.0148127314996157e+02 1.0000000000000000e+00 6.2645052604109548e+00 1.2914206359416853e+00 1.4851749968855925e+01 
393 1 2 5.1045572385925526e+00 -1.2357845698192198e+03 1.0000000000000000e+00 6.1261343568196107e+00 1.0594258823705380e+00 1.4685329791236207e+01 
43 1 2 5.0000000000000524e+00 -1.2611317337737441e+03 1.0000000000000000e+00 4.4345792172962186e+00 8.6470368763354521e+00 1.5837490007793164e+01 
108 1 2 4.9999999999999609e+00 -9.0494644522136241e+02 1.0000000000000000e+00 4.4927931578733871e+00 8.8808700476549998e+00 1.5770854200463285e+01 
44 1 2 4.9999999999999449e+00 -1.2777766986159918e+03 1.0000000000000000e+00 4.4695608058537895e+00 8.9730142721427910e+00 1.5769068636180110e+01 
116 1 2 4.9999999999999964e+00 -6.8839981477552374e+02 1.0000000000000000e+00 4.4618141897411858e+00 8.9920910277576453e+00 1.5770729433332018e+01 
53 1 2 4.9999999999999494e+00 -1.5117571668612877e+03 1.0000000000000000e+00 4.5484881070531991e+00 8.8734654931980899e+00 1.5832612792101841e+01 
180 1 2 4.9999999999998117e+00 -1.0290620107312686e+03 1.0000000000000000e+00 4.5385651622120298e+00 8.8039333784189093e+00 1.5832575559791955e+01 
99 1 2 5.0000000000001279e+00 -7.4434330929515841e+02 1.0000000000000000e+00 4.5352542329797165e+00 8.8014973295004015e+00 1.5829016763892637e+01 
124 1 2 5.0000000000001998e+00 -7.2732009670729485e+02 1.0000000000000000e+00 4.5077782080555417e+00 8.7282777439528338e+00 1.5835637488662424e+01 
45 1 2 5.0000000000001519e+00 -9.5302316463233728e+02 1.0000000000000000e+00 4.5196277870976234e+00 8.8826856258985263e+00 1.5796864090623780e+01 
107 1 2 5.0000000000001021e+00 -8.2880752686439087e+02 1.0000000000000000e+00 3.7666516116901008e+00 8.9407123259107060e+00 1.6510474500635841e+01 
125 1 2 5.0000000000000675e+00 -1.1676017150229536e+03 1.0000000000000000e+00 3.7641312787132541e+00 8.9620695614188524e+00 1.6508520649171093e+01 
117 1 2 5.0000000000000631e+00 -9.0660807767867470e+02 1.0000000000000000e+00 2.3028467173828489e+00 9.3086669280222480e+00 1.7855870577185897e+01 
54 1 2 5.0000000000000604e+00 -1.3355072031240406e+03 1.0000000000000000e+00 2.3020860923656956e+00 9.2896982752532828e+00 1.7858305901243369e+01 
27 1 2 5.0000000000000897e+00 -1.3957765847850069e+03 1.0000000000000000e+00 2.3453008586176467e+00 9.3683583079284283e+00 1.7864465943324699e+01 
46 1 2 4.9999999999999885e+00 -1.2369222790661074e+03 1.0000000000000000e+00 2.3067696950819561e+00 9.2956626340642501e+00 1.7863256522939889e+01 
35 1 2 4.9999999999999201e+00 -9.4459842631469905e+02 1.0000000000000000e+00 2.3098109245643910e+00 9.2970239796785208e+00 1.7866439448584700e+01 
89 1 2 5.0000000000000497e+00 -1.1805437813641411e+03 1.0000000000000000e+00 3.7643291452024825e+00 8.9585299648450931e+00 1.6508886402769317e+01 
36 1 2 5.0000000000000622e+00 -9.1755932549341560e+02 1.0000000000000000e+00 2.3098700106168204e+00 9.3030022609347345e+00 1.7865478283246489e+01 
98 1 2 5.0000000000000613e+00 -1.1089427589697361e+03 1.0000000000000000e+00 2.3118417762905317e+00 9.3030413856301362e+00 1.7867572296804450e+01 
90 1 2 4.9999999999999964e+00 -1.2555024820811877e+03 1.0000000000000000e+00 2.3151626550416879e+00 9.3154255726127442e+00 1.7867821507963221e+01 
18 1 2 4.9999999999999600e+00 -1.2229915577880388e+03 1.0000000000000000e+00 2.3149837524824695e+00 9.3162385748388647e+00 1.7867380915939506e+01 
26 1 2 5.0000000000000746e+00 -1.2716207796365611e+03 1.0000000000000000e+00 3.7700387945088525e+00 8.9471897007390737e+00 1.6514260704337282e+01 
34 1 2 5.0000000000000639e+00 -8.8473538638297373e+02 1.0000000000000000e+00 2.3104673585160418e+00 9.3036532679166211e+00 1.7865991197204263e+01 
9 1 2 5.0000000000000213e+00 -1.2025860075271316e+03 1.0000000000000000e+00 2.3098621339358467e+00 9.3039281009467274e+00 1.7865279198364874e+01 
171 1 2 5.0000000000000444e+00 -1.2603686904189960e+03 1.0000000000000000e+00 3.7597583464037743e+00 8.9581967084119221e+00 1.6504061361354747e+01 
126 1 2 5.0000000000002309e+00 -8.3709818773588700e+02 1.0000000000000000e+00 3.7601914472894955e+00 8.9588987404702998e+00 1.6504513318993805e+01 
17 1 2 4.9999999999998916e+00 -1.3319822268450753e+03 1.0000000000000000e+00 2.3110946560675267e+00 9.3035681509792933e+00 1.7866679010301244e+01 
55 1 2 1.5956940908953048e+00 -1.0758817406446392e+03 1.0000000000000000e+00 5.1978886968796862e+00 1.5313220583575657e+01 9.3037763308600252e-01 
64 1 2 1.5956940908953048e+00 -9.3616227062192638e+02 1.0000000000000000e+00 5.1978886968796862e+00 1.5313220583575658e+01 9.3037763308600063e-01 
145 1 2 1.5956940908953048e+00 -8.7589733714096838e+02 1.0000000000000000e+00 5.1978886968796862e+00 1.5313220583575671e+01 9.3037763308599986e-01 
73 1 2 1.5956940908953048e+00 -8.8869893091579945e+02 1.0000000000000000e+00 5.1978886968796818e+00 1.5313220583575674e+01 9.3037763308600230e-01 
127 1 2 2.7924646590667832e+00 -7.7550356757571637e+02 1.0000000000000000e+00 6.1052782655434283e+00 1.0872253690814107e+01 3.6916626111236721e+00 
136 1 2 2.7924646590667832e+00 -7.0390729334795583e+02 1.0000000000000000e+00 6.1052782655434248e+00 1.0872253690814027e+01 3.6916626111236681e+00 
137 1 2 2.7924646590667832e+00 -8.2773504242987644e+02 1.0000000000000000e+00 6.1052782655433893e+00 1.0872253690814034e+01 3.6916626111236721e+00 
128 1 2 2.7924646590667832e+00 -8.9633506141207204e+02 1.0000000000000000e+00 6.1052782655434132e+00 1.0872253690814079e+01 3.6916626111236686e+00 
47 1 2 2.7924646590667832e+00 -1.4417873677943912e+03 1.0000000000000000e+00 6.1052782655434230e+00 1.0872253690814084e+01 3.6916626111236761e+00 
48 1 2 2.7924646590667832e+00 -9.5623397350733126e+02 1.0000000000000000e+00 6.1052782655434132e+00 1.0872253690814089e+01 3.6916626111236774e+00 
39 1 2 2.7924646590667832e+00 -1.1124829338315419e+03 1.0000000000000000e+00 6.1052782655434150e+00 1.0872253690814064e+01 3.6916626111236819e+00 
57 1 2 4.9999999999995142e+00 -7.3189838244811563e+02 1.0000000000000000e+00 5.6791407484491758e+00 1.5045110710810080e+01 5.7829560410201273e+00 
65 1 2 5.0000000000001048e+00 -5.9586203421967912e+02 1.0000000000000000e+00 5.6791159289134479e+00 1.5045111555715662e+01 5.7829424978162303e+00 
157 1 2 5.0000000000000435e+00 -1.2313094433529809e+03 1.0000000000000000e+00 5.6790519570647913e+00 1.5045127101482148e+01 5.7829407416444774e+00 
149 1 2 5.0000000000005205e+00 -1.0066337501636283e+03 1.0000000000000000e+00 5.6790404455435874e+00 1.5045125627695809e+01 5.7829298249813021e+00 
156 1 2 4.9999999999995417e+00 -1.0748368103871258e+03 1.0000000000000000e+00 5.6789509803410096e+00 1.5045145304818012e+01 5.7829222003333598e+00 
56 1 2 4.9999999999993170e+00 -5.1109681143262628e+02 1.0000000000000000e+00 5.6790627351040222e+00 1.5045125725930918e+01 5.7829441249063978e+00 
147 1 2 4.9999999999994511e+00 -7.2429740152460727e+02 1.0000000000000000e+00 5.6790681761343293e+00 1.5045121124491940e+01 5.7829361384131248e+00 
155 1 2 5.0000000000005311e+00 -1.1579816042062503e+03 1.0000000000000000e+00 5.6789910190174053e+00 1.5045136448343479e+01 5.7829254938117787e+00 
139 1 2 4.9999999999998588e+00 -5.5480999442872803e+02 1.0000000000000000e+00 5.7531345293755498e+00 1.6156813709841334e+01 5.3166066110615011e+00 
74 1 2 5.0000000000001608e+00 -1.2652542829950889e+03 1.0000000000000000e+00 5.7201379264753855e+00 1.6148748849679219e+01 5.3170841628503300e+00 
75 1 2 4.9999999999997735e+00 -1.2478957442638666e+03 1.0000000000000000e+00 5.7201114148759196e+00 1.6148742063278803e+01 5.3170861387178707e+00 
148 1 2 5.0000000000002203e+00 -6.9884152049184831e+02 1.0000000000000000e+00 6.2145401391839012e+00 1.6027311050429983e+01 5.4122097150793502e+00 
67 1 2 5.0000000000005365e+00 -1.1073820928476512e+03 1.0000000000000000e+00 6.2141995270882431e+00 1.6027664724249739e+01 5.4120919888575125e+00 
66 1 2 4.9999999999999005e+00 -9.4810291343567815e+02 1.0000000000000000e+00 6.2146029110982122e+00 1.6027258891125001e+01 5.4122718300186774e+00 
76 1 2 5.0000000000003597e+00 -9.6143220516352926e+02 1.0000000000000000e+00 5.7200047740538205e+00 1.6148711449656165e+01 5.3170867695357771e+00 
138 1 2 5.0000000000008695e+00 -5.8134806588218066e+02 1.0000000000000000e+00 5.7199243541520914e+00 1.6148687535038601e+01 5.3170854480254564e+00 
77 1 2 4.9999999999993747e+00 -1.0003933933759333e+03 1.0000000000000000e+00 6.2143407491274747e+00 1.6027517508269373e+01 5.4121387385680846e+00 
49 1 2 3.5903117045144350e+00 -1.0204843619388666e+03 1.0000000000000000e+00 6.5271861549034025e+00 1.1453575773619759e+01 7.3316439986368840e+00 
58 1 2 3.5903117045144350e+00 -9.9272866675386649e+02 1.0000000000000000e+00 6.5271861549034060e+00 1.1453575773619775e+01 7.3316439986368520e+00 
50 1 2 3.5903117045144350e+00 -1.0530170602841715e+03 1.0000000000000000e+00 6.5271861549034300e+00 1.1453575773619743e+01 7.3316439986369186e+00 
59 1 2 3.5903117045144350e+00 -1.0038749775565191e+03 1.0000000000000000e+00 6.5271861549033883e+00 1.1453575773619715e+01 7.3316439986369222e+00 
129 1 2 3.5903117045144350e+00 -5.9683272672486862e+02 1.0000000000000000e+00 6.5271861549034380e+00 1.1453575773619789e+01 7.3316439986369151e+00 
131 1 2 3.5903117045144350e+00 -1.1774504671986197e+03 1.0000000000000000e+00 6.5271861549034211e+00 1.1453575773619791e+01 7.3316439986368866e+00 
130 1 2 3.5903117045144350e+00 -8.2104949715353712e+02 1.0000000000000000e+00 6.5271861549034691e+00 1.1453575773619772e+01 7.3316439986369417e+00 
212 1 2 3.5903117045144350e+00 -1.2390729820273980e+03 1.0000000000000000e+00 6.5271861549034567e+00 1.1453575773619706e+01 7.3316439986368893e+00 
211 1 2 3.5903117045144350e+00 -9.5473471758101562e+02 1.0000000000000000e+00 6.5271861549034655e+00 1.1453575773619749e+01 7.3316439986368955e+00 
132 1 2 4.3881587499620869e+00 -7.5830328744457677e+02 1.0000000000000000e+00 6.1557971146917074e+00 1.2301243789219084e+01 1.1226418868373386e+01 
52 1 2 4.3881587499620869e+00 -6.9064776964254497e+02 1.0000000000000000e+00 6.1557971146917358e+00 1.2301243789219175e+01 1.1226418868373331e+01 
133 1 2 4.3881587499620869e+00 -9.6599555229682312e+02 1.0000000000000000e+00 6.1557971146917545e+00 1.2301243789219184e+01 1.1226418868373381e+01 
140 1 2 4.3881587499620869e+00 -8.6305068501073981e+02 1.0000000000000000e+00 6.1557971146917589e+00 1.2301243789219226e+01 1.1226418868373344e+01 
141 1 2 4.3881587499620869e+00 -7.4288614712490812e+02 1.0000000000000000e+00 6.1557971146917403e+00 1.2301243789219136e+01 1.1226418868373447e+01 
213 1 2 4.3881587499620869e+00 -6.9808591590243532e+02 1.0000000000000000e+00 6.1557971146917252e+00 1.2301243789219258e+01 1.1226418868373186e+01 
68 1 2 4.3881587499620869e+00 -1.1229571836092343e+03 1.0000000000000000e+00 6.1557971146917261e+00 1.2301243789219191e+01 1.1226418868373237e+01 
51 1 2 4.3881587499620869e+00 -8.6743703858351535e+02 1.0000000000000000e+00 6.1557971146917039e+00 1.2301243789219157e+01 1.1226418868373282e+01 
60 1 2 4.3881587499620869e+00 -9.6727366373588268e+02 1.0000000000000000e+00 6.1557971146916177e+00 1.2301243789219193e+01 1.1226418868373328e+01 
61 1 2 4.3881587499620869e+00 -9.4394866359766593e+02 1.0000000000000000e+00 6.1557971146916977e+00 1.2301243789219301e+01 1.1226418868373271e+01 
69 1 2 4.3881587499620869e+00 -9.1261960268312760e+02 1.0000000000000000e+00 6.1557971146916710e+00 1.2301243789219315e+01 1.1226418868373347e+01 
28 1 2 4.9999999999999778e+00 -1.3065274778215241e+03 1.0000000000000000e+00 7.3011069654598550e+00 5.6543518440429805e+00 2.5814713858889489e+00 
30 1 2 4.9999999999998659e+00 -1.0348485958160732e+03 1.0000000000000000e+00 7.3003101988616752e+00 5.6540600438856483e+00 2.5829792221927295e+00 
109 1 2 5.0000000000000231e+00 -1.2413754376024576e+03 1.0000000000000000e+00 7.3003990983614564e+00 5.6543249361386900e+00 2.5816925044569903e+00 
100 1 2 5.0000000000000595e+00 -1.1528872914715375e+03 1.0000000000000000e+00 7.3009041329784212e+00 5.6543402573395500e+00 2.5815516140740322e+00 
182 1 2 5.0000000000000773e+00 -8.6225772495461069e+02 1.0000000000000000e+00 7.3007909154393529e+00 5.6542051385464616e+00 2.5822086114864380e+00 
181 1 2 5.0000000000000293e+00 -7.8688926372400942e+02 1.0000000000000000e+00 7.3007529329053815e+00 5.6545282299489097e+00 2.5806952859198025e+00 
120 1 2 4.9999999999999689e+00 -8.3514778949787410e+02 1.0000000000000000e+00 7.3009592669436003e+00 5.6543046128748014e+00 2.5817128053337486e+00 
38 1 2 5.0000000000000879e+00 -9.5603679131718150e+02 1.0000000000000000e+00 7.3012489291574623e+00 5.6543874727098844e+00 2.5812869339351328e+00 
191 1 2 4.9999999999998765e+00 -7.5857308095596591e+02 1.0000000000000000e+00 7.3009875485985436e+00 5.6540459747908969e+00 2.5829528326442137e+00 
192 1 2 4.9999999999999076e+00 -9.0632144372594644e+02 1.0000000000000000e+00 7.3005308248632099e+00 5.6542034107245200e+00 2.5822526922878830e+00 
173 1 2 4.9999999999999210e+00 -9.6393848795681038e+02 1.0000000000000000e+00 7.3009811833472584e+00 5.6539269405721857e+00 2.5835401575829242e+00 
20 1 2 4.9999999999999245e+00 -1.3503261890907218e+03 1.0000000000000000e+00 7.3003135567622470e+00 5.6540492128416453e+00 2.5830317362008164e+00 
101 1 2 5.0000000000000107e+00 -8.2678278078646372e+02 1.0000000000000000e+00 7.3615693590205202e+00 7.8127989854344060e+00 3.0334965925349899e+00 
273 1 2 4.9999999999998224e+00 -1.0807749243949218e+03 1.0000000000000000e+00 7.3610626268995016e+00 7.8128871663049777e+00 3.0331387756176986e+00 
199 1 2 5.0000000000001474e+00 -1.6221053269579229e+03 1.0000000000000000e+00 7.3614039178010620e+00 7.8129562356519653e+00 3.0327581106178609e+00 
264 1 2 4.9999999999999387e+00 -1.1987114077612925e+03 1.0000000000000000e+00 7.3612162076268879e+00 7.8125991621621109e+00 3.0344886250022296e+00 
19 1 2 4.9999999999999876e+00 -1.1309996290821784e+03 1.0000000000000000e+00 7.3614767927212839e+00 7.8129030847289789e+00 3.0330070997888643e+00 
119 1 2 4.9999999999999849e+00 -1.0266251145987881e+03 1.0000000000000000e+00 7.3625285262863231e+00 7.8127986808911407e+00 3.0333541023077548e+00 
110 1 2 5.0000000000000604e+00 -7.3596426696885703e+02 1.0000000000000000e+00 7.3608241001449679e+00 7.8127239197585814e+00 3.0339494394008137e+00 
29 1 2 4.9999999999999121e+00 -9.8792858607464814e+02 1.0000000000000000e+00 7.3617549084874607e+00 7.8127699153207804e+00 3.0336097722003852e+00 
37 1 2 5.0000000000000320e+00 -1.0369463253931490e+03 1.0000000000000000e+00 7.3610918006998833e+00 7.8128115885596348e+00 3.0334990961773491e+00 
190 1 2 5.0000000000000266e+00 -1.3389806559223398e+03 1.0000000000000000e+00 7.3608093082513220e+00 7.8127876660744420e+00 3.0336479961831033e+00 
111 1 2 4.9999999999998765e+00 -6.6471767087151488e+02 1.0000000000000000e+00 7.3608756660334720e+00 7.8129046147661771e+00 3.0330774291695692e+00 
118 1 2 4.9999999999999218e+00 -1.6470126790313107e+03 1.0000000000000000e+00 7.3627741766914250e+00 7.8124158854082406e+00 3.0351139835580114e+00 
272 1 2 1.5956940908953048e+00 -6.0252575979019400e+02 1.0000000000000000e+00 1.1648560525895970e+01 8.3595797935515073e+00 2.5432532204828204e+00 
353 1 2 1.5956940908953048e+00 -7.1152855084245607e+02 1.0000000000000000e+00 1.1648560525895945e+01 8.3595797935515090e+00 2.5432532204827951e+00 
281 1 2 1.5956940908953048e+00 -4.5843070844821483e+02 1.0000000000000000e+00 1.1648560525895951e+01 8.3595797935515215e+00 2.5432532204828182e+00 
280 1 2 1.5956940908953048e+00 -5.9191507251142343e+02 1.0000000000000000e+00 1.1648560525895947e+01 8.3595797935515392e+00 2.5432532204828151e+00 
420 1 2 4.9523519581489319e+00 -1.4628011737825548e+03 1.0000000000000000e+00 1.0550608768361743e+01 3.9894830992992008e+00 7.4277372393891943e+00 
386 1 2 4.9733828065460406e+00 -7.4736379830714850e+02 1.0000000000000000e+00 1.2479310350562391e+01 3.8794694707565394e+00 6.8015041048226914e+00 
484 1 2 5.0061982005105863e+00 -1.2712068857262502e+03 1.0000000000000000e+00 1.2946935875044067e+01 3.2675294838243296e+00 6.6368139331321121e+00 
404 1 2 4.9071814351976570e+00 -1.0716224234469316e+03 1.0000000000000000e+00 1.2154042079381229e+01 3.8866801381042064e+00 6.8501163699454679e+00 
528 1 2 4.8358790483310363e+00 -9.3770230264237557e+02 1.0000000000000000e+00 1.2256956971677413e+01 3.5451536346736754e+00 6.7650653386989124e+00 
481 1 2 5.0089713934433231e+00 -9.0920299379439518e+02 1.0000000000000000e+00 1.1994658102254729e+01 3.2884628260777902e+00 7.3453729847987850e+00 
424 1 2 5.0707829103531195e+00 -1.1786239425761050e+03 1.0000000000000000e+00 1.2735001091681317e+01 3.8110483915441380e+00 7.6774005113603909e+00 
165 1 2 4.9745504253427955e+00 -8.7885203497140344e+02 1.0000000000000000e+00 1.2843598289335977e+01 3.0189224207646062e+00 6.8347312593635614e+00 
16 1 2 4.9400979570556345e+00 -1.2634329354375259e+03 1.0000000000000000e+00 1.3237544662855402e+01 3.8076217610693512e+00 6.7330778491980920e+00 
483 1 2 5.0329683220772798e+00 -1.0737944317416614e+03 1.0000000000000000e+00 1.3286551450974954e+01 3.6114447045798466e+00 6.6417413252150341e+00 
338 1 2 4.9706311173832898e+00 -9.1377589367682504e+02 1.0000000000000000e+00 9.7367250573423707e+00 4.1048351317152374e+00 7.8825851489423178e+00 
243 1 2 5.1192546311947114e+00 -1.2311315739839167e+03 1.0000000000000000e+00 1.1044855745497831e+01 4.2395718965871332e+00 7.2508009689796111e+00 
318 1 2 5.0456205225200490e+00 -1.2061503593830350e+03 1.0000000000000000e+00 1.0865549638935798e+01 5.0298705668416677e+00 7.8714931250128579e+00 
121 1 2 4.9137481306794442e+00 -9.8020584717815984e+02 1.0000000000000000e+00 9.3125071759329874e+00 4.6490484721064629e+00 7.9772440431795069e+00 
304 1 2 4.9359200904399136e+00 -6.1399338058115995e+02 1.0000000000000000e+00 1.0979982247795339e+01 4.7418822273282766e+00 7.3659698668014082e+00 
254 1 2 4.8577329299376988e+00 -8.9972553217778579e+02 1.0000000000000000e+00 9.7057881948603892e+00 5.2402167178357120e+00 7.9674417498069312e+00 
476 1 2 5.0681857020548078e+00 -8.9091833159406031e+02 1.0000000000000000e+00 1.0708463799191916e+01 4.7151796252151508e+00 7.3756689316898649e+00 
293 1 2 5.1407979961214449e+00 -8.1097449634061343e+02 1.0000000000000000e+00 1.0384533226780475e+01 4.5019050090781381e+00 7.4093348461996831e+00 
178 1 2 4.8451189170915239e+00 -8.0503817502738082e+02 1.0000000000000000e+00 1.1412232922281843e+01 4.4420104901579549e+00 7.1932363549794740e+00 
87 1 2 5.0216808499478871e+00 -1.3174223584153863e+03 1.0000000000000000e+00 1.1792653092519178e+01 4.0731155691275642e+00 7.0929450585027078e+00 
315 1 2 5.0367177272449428e+00 -1.3761832164468669e+03 1.0000000000000000e+00 1.1232578023717499e+01 4.1019338565802679e+00 7.1863514061327534e+00 
228 1 2 5.0066956524069708e+00 -1.2620083922174549e+03 1.0000000000000000e+00 1.2192440266837124e+01 1.9858459252173137e+00 9.8656983650634302e+00 
482 1 2 5.0023045301766089e+00 -1.6016833565209238e+03 1.0000000000000000e+00 1.2871142932821154e+01 1.9286633685582573e+00 9.2369584119802575e+00 
548 1 2 4.9237219890156538e+00 -1.1317298678790687e+03 1.0000000000000000e+00 1.3266101085533547e+01 1.6865277178047209e+00 9.9800507452740259e+00 
246 1 2 5.1866625438759648e+00 -9.4534998854657135e+02 1.0000000000000000e+00 8.0939276505707198e+00 3.9606304474195735e+00 9.9360417719623531e+00 
25 1 2 4.9820992841372957e+00 -1.2163802877156236e+03 1.0000000000000000e+00 1.0734638064822814e+01 3.4043048611110871e+00 8.2811133525156713e+00 
453 1 2 4.9474489057383240e+00 -9.4700671561611296e+02 1.0000000000000000e+00 9.3950956297962023e+00 3.4368434301100148e+00 9.4324803391040550e+00 
24 1 2 5.0292655179534638e+00 -1.0713336839369942e+03 1.0000000000000000e+00 1.0397835935801005e+01 3.2826764801182380e+00 8.9818234584038041e+00 
368 1 2 5.0206339323660911e+00 -9.5753214861768663e+02 1.0000000000000000e+00 1.1042289860485010e+01 2.3876011609096857e+00 9.7937500825903250e+00 
106 1 2 5.0293701686662002e+00 -1.1430754828686743e+03 1.0000000000000000e+00 9.8900737279844080e+00 3.3348673107974061e+00 9.3011067725403347e+00 
474 1 2 5.0030309570941807e+00 -1.0833423488595686e+03 1.0000000000000000e+00 9.5615600437187034e+00 3.7428340605953077e+00 8.5973661767808807e+00 
317 1 2 4.9728588387307653e+00 -1.0532204736885521e+03 1.0000000000000000e+00 1.0880995388651058e+01 3.0372102948055661e+00 9.1557629535290719e+00 
267 1 2 5.0512488963797448e+00 -9.2719545965372697e+02 1.0000000000000000e+00 1.0986230222020257e+01 2.3898800185173026e+00 9.8734679433520700e+00 
162 1 2 4.9561941734476722e+00 -1.0462638893927738e+03 1.0000000000000000e+00 1.0161479464281079e+01 3.6644164509479804e+00 9.6418080151847949e+00 
539 1 2 4.9503539709237945e+00 -9.7922660421895364e+02 1.0000000000000000e+00 1.1920371060265051e+01 3.5115912674924998e+00 8.2585844248420752e+00 
233 1 2 4.9507604412498356e+00 -1.3288883292231305e+03 1.0000000000000000e+00 1.1135473538298106e+01 3.2164199647840048e+00 8.8816710545087076e+00 
563 1 2 5.0091525205554106e+00 -1.3370434876078225e+03 1.0000000000000000e+00 1.2339134681423827e+01 3.0121015893885263e+00 8.0898084245655930e+00 
277 1 2 5.0236245417709329e+00 -1.1347614835783859e+03 1.0000000000000000e+00 1.3071048542930100e+01 2.7347433291643517e+00 8.5382087447516248e+00 
231 1 2 4.9464784880295971e+00 -1.2827232691125510e+03 1.0000000000000000e+00 1.1382609948554864e+01 2.6952657688632384e+00 9.2188161206864674e+00 
477 1 2 5.0617963140523150e+00 -1.2551369824676833e+03 1.0000000000000000e+00 1.1619495697291082e+01 2.4671269775432978e+00 9.4197716396594622e+00 
93 1 2 5.0709440753168060e+00 -9.3603463653992708e+02 1.0000000000000000e+00 1.2651369922791165e+01 2.6680122762435401e+00 8.9631357578815489e+00 
322 1 2 4.9460293086907123e+00 -1.1648401874797128e+03 1.0000000000000000e+00 1.3293915518557421e+01 2.2896440202009138e+00 8.2052427799923215e+00 
225 1 2 4.9267632958367447e+00 -1.1726099905973931e+03 1.0000000000000000e+00 1.2089452155584153e+01 2.4866026361998768e+00 8.8886433887914045e+00 
252 1 2 5.0424388588569808e+00 -1.3281381739951980e+03 1.0000000000000000e+00 1.2646207521115910e+01 2.3793677857673128e+00 9.7079250993632087e+00 