LAMMPS data file via write_data, version 30 Jul 2016, timestep = 50400000

567 atoms
2 atom types

0.0000000000000000e+00 2.0000000000000000e+01 xlo xhi
0.0000000000000000e+00 2.0000000000000000e+01 ylo yhi
0.0000000000000000e+00 2.0000000000000000e+01 zlo zhi

Masses

1 3.896
2 5

Atoms # meso-molecular

91 1 2 3.5903117045144350e+00 -1.0658965749423708e+03 1.0000000000000000e+00 6.3949230557979586e+00 1.9255901068497190e+00 1.6130772661137667e+00 
1 1 2 3.5903117045144350e+00 -1.2275711942959465e+03 1.0000000000000000e+00 6.3949230557979506e+00 1.9255901068497114e+00 1.6130772661137767e+00 
82 1 2 3.5903117045144350e+00 -1.2962763542152641e+03 1.0000000000000000e+00 6.3949230557979773e+00 1.9255901068497161e+00 1.6130772661137605e+00 
92 1 2 3.5903117045144350e+00 -7.5843377686677366e+02 1.0000000000000000e+00 6.3949230557979577e+00 1.9255901068497161e+00 1.6130772661137684e+00 
83 1 2 3.5903117045144350e+00 -1.5392823914848768e+03 1.0000000000000000e+00 6.3949230557979515e+00 1.9255901068497188e+00 1.6130772661137658e+00 
163 1 2 3.5903117045144350e+00 -1.2801327739506282e+03 1.0000000000000000e+00 6.3949230557979613e+00 1.9255901068497205e+00 1.6130772661137638e+00 
19 1 2 3.5903117045144350e+00 -1.1500692197849214e+03 1.0000000000000000e+00 6.3949230557979506e+00 1.9255901068497165e+00 1.6130772661137660e+00 
10 1 2 3.5903117045144350e+00 -1.3085591415661800e+03 1.0000000000000000e+00 6.3949230557979320e+00 1.9255901068497228e+00 1.6130772661137704e+00 
2 1 2 3.5903117045144350e+00 -1.1895926764385590e+03 1.0000000000000000e+00 6.3949230557979373e+00 1.9255901068497243e+00 1.6130772661137798e+00 
166 1 2 5.0000000000001483e+00 -8.4446015570940722e+02 1.0000000000000000e+00 5.6075210501505541e+00 2.9934685933980640e+00 5.5895963756398741e+00 
14 1 2 4.9999999999999183e+00 -1.0558964030254822e+03 1.0000000000000000e+00 5.6075210504965813e+00 2.9934685925669315e+00 5.5895963740660415e+00 
95 1 2 4.9999999999997922e+00 -1.0869981773707780e+03 1.0000000000000000e+00 5.6075210504531690e+00 2.9934685951763105e+00 5.5895963765906966e+00 
173 1 2 5.0000000000001474e+00 -6.7462898060343093e+02 1.0000000000000000e+00 5.6075210525853922e+00 2.9934685955084208e+00 5.5895963719626796e+00 
174 1 2 5.0000000000000409e+00 -8.0063230626745656e+02 1.0000000000000000e+00 5.6075210514905782e+00 2.9934685929716891e+00 5.5895963721406972e+00 
164 1 2 5.0000000000000329e+00 -6.9134976574247298e+02 1.0000000000000000e+00 5.6075210511575762e+00 2.9934685949059858e+00 5.5895963747088944e+00 
22 1 2 5.0000000000000302e+00 -1.2222660670366758e+03 1.0000000000000000e+00 5.6075210510220179e+00 2.9934685931329574e+00 5.5895963733754694e+00 
85 1 2 4.9999999999999742e+00 -8.5852972444565808e+02 1.0000000000000000e+00 5.6075210513734817e+00 2.9934685949765818e+00 5.5895963742744481e+00 
184 1 2 4.9999999999999867e+00 -9.8169130185130712e+02 1.0000000000000000e+00 5.6075210514957758e+00 2.9934685935533731e+00 5.5895963726690008e+00 
84 1 2 4.9999999999998153e+00 -7.8578058521163371e+02 1.0000000000000000e+00 5.6075210508230811e+00 2.9934685947996158e+00 5.5895963753842146e+00 
175 1 2 4.9999999999998987e+00 -9.1643709746252716e+02 1.0000000000000000e+00 5.6075210513476348e+00 2.9934685930406362e+00 5.5895963725354934e+00 
17 1 2 4.9999999999999130e+00 -7.7635168715898772e+02 1.0000000000000000e+00 6.5214218027121760e+00 3.0744811420261788e+00 1.5429704047892564e+01 
99 1 2 5.0000000000000711e+00 -8.6783143256382562e+02 1.0000000000000000e+00 6.5214217842435147e+00 3.0744811499536073e+00 1.5429704082018860e+01 
97 1 2 4.9999999999999662e+00 -7.5292468888725693e+02 1.0000000000000000e+00 6.5235595430287061e+00 3.0735899631493990e+00 1.5425764358966193e+01 
179 1 2 4.9999999999999662e+00 -8.1331210952132585e+02 1.0000000000000000e+00 6.5214932968018822e+00 3.0744504843256446e+00 1.5429571955258808e+01 
89 1 2 4.9999999999999307e+00 -7.1627400754545260e+02 1.0000000000000000e+00 6.5214217031957658e+00 3.0744811847416744e+00 1.5429704231775652e+01 
18 1 2 5.0000000000000488e+00 -1.0537990732694407e+03 1.0000000000000000e+00 6.5214217681650757e+00 3.0744811568546879e+00 1.5429704111724797e+01 
9 1 2 4.9999999999999822e+00 -1.2030509009876500e+03 1.0000000000000000e+00 6.5214217673467578e+00 3.0744811572061970e+00 1.5429704113240554e+01 
8 1 2 5.0000000000000835e+00 -1.2034813974925205e+03 1.0000000000000000e+00 6.5214217674149895e+00 3.0744811571768125e+00 1.5429704113112599e+01 
90 1 2 5.0000000000000222e+00 -1.1289865613515726e+03 1.0000000000000000e+00 6.5214217691913685e+00 3.0744811564137104e+00 1.5429704109822843e+01 
98 1 2 5.0000000000001261e+00 -7.0042406883978322e+02 1.0000000000000000e+00 6.5214217899853404e+00 3.0744811474888749e+00 1.5429704071406853e+01 
172 1 2 3.9892352272382625e-01 7.3966884731865051e+01 1.0000000000000000e+00 9.0994596843255930e+00 3.0334471000633529e+00 1.9320907000522691e-01 
202 1 2 4.9526301410739153e+00 -1.4505580019867346e+03 1.0000000000000000e+00 1.0237337061801066e+01 7.6335299720196721e+00 3.4703415154929811e+00 
545 1 2 5.0132660563117541e+00 -1.0099390068059633e+03 1.0000000000000000e+00 1.0966838685763152e+01 7.6295652703102332e+00 3.1307952482738610e+00 
316 1 2 5.0078373932723173e+00 -1.3566677227306232e+03 1.0000000000000000e+00 1.0685113697010745e+01 7.7909924757490669e+00 2.9071937190038160e+00 
402 1 2 5.0001280830733918e+00 -1.0032939113771113e+03 1.0000000000000000e+00 1.1009794910471411e+01 7.3652574756619344e+00 3.4644555956645227e+00 
423 1 2 4.9872914343494124e+00 -1.4019777131764113e+03 1.0000000000000000e+00 1.0298168307642777e+01 7.8902124459387526e+00 2.9063141595494932e+00 
549 1 2 5.1917511862603476e+00 -1.0812778499874316e+03 1.0000000000000000e+00 1.0942741380841980e+01 7.3385378537487211e+00 3.9569171560831418e+00 
62 1 2 5.0109964742931590e+00 -1.3673824390288594e+03 1.0000000000000000e+00 1.1329833776819157e+01 7.4455192396337191e+00 3.6596094913554928e+00 
190 1 2 5.0534815365992367e+00 -1.2618151549851843e+03 1.0000000000000000e+00 1.0641883831119664e+01 8.0773910497228680e+00 2.8121441286682272e+00 
276 1 2 5.0447890153393962e+00 -8.7168804110427982e+02 1.0000000000000000e+00 9.9805651283847538e+00 8.2251559580970515e+00 3.0566321909967704e+00 
258 1 2 5.0324613327897438e+00 -7.7194573622825089e+02 1.0000000000000000e+00 9.8894568400808538e+00 8.3255557161183962e+00 3.5623135974244238e+00 
156 1 2 4.8929838420367062e+00 -9.4098283857219928e+02 1.0000000000000000e+00 1.0516392725008265e+01 9.4157314575543047e+00 3.1523365293120009e+00 
237 1 2 5.0258088336844047e+00 -1.3784158190395733e+03 1.0000000000000000e+00 9.4020940362426533e+00 9.7380604478656601e+00 3.3953752599928810e+00 
155 1 2 5.0329664840608155e+00 -1.0566150228239180e+03 1.0000000000000000e+00 1.0274491510723779e+01 8.0853681146225274e+00 2.8403917869561357e+00 
285 1 2 5.0751845771760902e+00 -1.2346994611054072e+03 1.0000000000000000e+00 1.0583078142631793e+01 8.0643311135836448e+00 2.8149220733745586e+00 
318 1 2 5.0082762612870964e+00 -1.5421575391035319e+03 1.0000000000000000e+00 9.7660517550221293e+00 8.7224946363592100e+00 3.4810463789658623e+00 
331 1 2 4.9322882790944611e+00 -1.4857495933905686e+03 1.0000000000000000e+00 1.0825775888714334e+01 8.1166716997404542e+00 2.8230393918477295e+00 
483 1 2 5.1098919845671560e+00 -1.2009708855594606e+03 1.0000000000000000e+00 1.0127272046598360e+01 9.6365771034779435e+00 3.1092009401335603e+00 
566 1 2 4.9090122863933976e+00 -1.0433938481814052e+03 1.0000000000000000e+00 9.3906054610221705e+00 9.7073944618348342e+00 3.2795211809967433e+00 
465 1 2 4.9726219802000413e+00 -1.0408910580799277e+03 1.0000000000000000e+00 1.0997395303074095e+01 9.0735723616365185e+00 3.6881998772534450e+00 
303 1 2 5.0174695194567711e+00 -7.6779412876352740e+02 1.0000000000000000e+00 1.0061461908973458e+01 9.9293632025336329e+00 3.0753563753795818e+00 
300 1 2 5.0518488851499752e+00 -8.5913177950518298e+02 1.0000000000000000e+00 9.4935734609593965e+00 9.8276514783380673e+00 3.1345047731092639e+00 
4 1 2 5.0000000000000213e+00 -8.0898683988700736e+02 1.0000000000000000e+00 6.7595659158913799e+00 2.8847730764498394e+00 5.6418677792509619e+00 
37 1 2 4.9420912644088446e+00 -1.2004695194801770e+03 1.0000000000000000e+00 1.3043381200631055e+01 3.3256333066742223e+00 5.6675905846559376e+00 
123 1 2 4.9722518366926103e+00 -9.9734221598818965e+02 1.0000000000000000e+00 1.2553231733373789e+01 3.9488563358246211e+00 4.9784313504525421e+00 
538 1 2 5.1016827679747552e+00 -8.8055951743853700e+02 1.0000000000000000e+00 1.2441321015876641e+01 4.1813969056283016e+00 5.3411184497308319e+00 
42 1 2 4.9949591976355538e+00 -1.1731291407883830e+03 1.0000000000000000e+00 1.2974151355771648e+01 4.4103812012293329e+00 4.4136749518502665e+00 
239 1 2 4.9929861274017036e+00 -8.6742854027453711e+02 1.0000000000000000e+00 1.2456624678383680e+01 5.2240591758546042e+00 4.2473535313000434e+00 
493 1 2 5.0856115749698407e+00 -1.1886931752139751e+03 1.0000000000000000e+00 1.2609773869813372e+01 5.8889523416556031e+00 4.8445411795311610e+00 
102 1 2 5.0794389124351369e+00 -1.1934596312923729e+03 1.0000000000000000e+00 1.2910212620753654e+01 4.9242585941343986e+00 4.3566826567943959e+00 
329 1 2 5.1213336099558147e+00 -1.2565655189496874e+03 1.0000000000000000e+00 1.1927744526776461e+01 5.6684929688761310e+00 4.8121704196989477e+00 
157 1 2 5.0518450115950371e+00 -1.3939553473706083e+03 1.0000000000000000e+00 1.2503648380914528e+01 4.2062318964514214e+00 4.6108752802518636e+00 
408 1 2 4.9368485148603112e+00 -9.1933454181468107e+02 1.0000000000000000e+00 1.2680252781572461e+01 4.2085101994052243e+00 4.4499855577347098e+00 
379 1 2 5.0118349935450466e+00 -1.0459152089951353e+03 1.0000000000000000e+00 1.2283373301189128e+01 5.0759273375244138e+00 4.2897518776146866e+00 
242 1 2 4.9115003261138384e+00 -1.1079046966767464e+03 1.0000000000000000e+00 1.1891035364168467e+01 5.4022256247055456e+00 5.1094267130038213e+00 
472 1 2 5.0724977121767125e+00 -9.4271159408741107e+02 1.0000000000000000e+00 1.1983576847249564e+01 5.6678226864565522e+00 5.3113172646605644e+00 
355 1 2 4.9856363154550598e+00 -8.4123247639262752e+02 1.0000000000000000e+00 1.2499531137626624e+01 5.1114598839246490e+00 4.2230892934537909e+00 
359 1 2 4.7094688717253348e+00 -9.6714492143084726e+02 1.0000000000000000e+00 1.3270438022814172e+01 4.9456574853640474e+00 4.6187844205598907e+00 
548 1 2 4.8574766610727584e+00 -1.1576040275288415e+03 1.0000000000000000e+00 1.2770442643038884e+01 4.5016692103197542e+00 4.2403535531977505e+00 
398 1 2 5.0760286146837013e+00 -9.2269825116942127e+02 1.0000000000000000e+00 1.2675657549736316e+01 4.1143236006137691e+00 4.6386509566964209e+00 
249 1 2 4.8894383859153780e+00 -1.4636670287090451e+03 1.0000000000000000e+00 1.2157991188058928e+01 6.2461713077481082e+00 4.5480251786603718e+00 
195 1 2 4.8821819668814284e+00 -9.9724696594395198e+02 1.0000000000000000e+00 1.1282666524879019e+01 7.0399994405412594e+00 4.6305929468584770e+00 
417 1 2 5.0188894069770074e+00 -5.9825975605473582e+02 1.0000000000000000e+00 1.1372275124847901e+01 7.1219707174538751e+00 4.7335098729780123e+00 
111 1 2 4.9769017457548470e+00 -1.1198671250354519e+03 1.0000000000000000e+00 1.1999503691465017e+01 6.8427226411843867e+00 4.7886370072827074e+00 
290 1 2 5.0076121269936387e+00 -1.0112242843584210e+03 1.0000000000000000e+00 1.1568692968492892e+01 6.7991366785006768e+00 5.0209847121646041e+00 
185 1 2 4.9307868351671456e+00 -9.3005663881737894e+02 1.0000000000000000e+00 1.1821831992793529e+01 6.5124248846206871e+00 4.5974251887309245e+00 
499 1 2 5.0690924750724928e+00 -8.6604397796804858e+02 1.0000000000000000e+00 1.1570121819119121e+01 7.4400937616435296e+00 4.1954383096972983e+00 
296 1 2 4.9930157383903637e+00 -1.2301585256434805e+03 1.0000000000000000e+00 1.1844853405266461e+01 7.3739922030323362e+00 4.8321106959210685e+00 
259 1 2 5.1146082121462335e+00 -1.0884557281386560e+03 1.0000000000000000e+00 1.0243751103672896e+01 8.6999889104001209e+00 4.2532749514100621e+00 
425 1 2 5.0503765980233890e+00 -9.9444877081847903e+02 1.0000000000000000e+00 1.0524692255888558e+01 9.4426239300403303e+00 4.6001481093480194e+00 
152 1 2 5.0644914580303428e+00 -1.0702477938425091e+03 1.0000000000000000e+00 1.1062089115836194e+01 9.3377791838792756e+00 5.7455016646796935e+00 
552 1 2 4.9955339690655443e+00 -1.3279456336755024e+03 1.0000000000000000e+00 1.0596153685643831e+01 9.6784722281263225e+00 4.5793898102985340e+00 
65 1 2 5.0152780046044079e+00 -1.1589526343302093e+03 1.0000000000000000e+00 1.1072750664119305e+01 8.9760180163413743e+00 4.9202416913982594e+00 
524 1 2 5.0274904493180577e+00 -1.4411720951908951e+03 1.0000000000000000e+00 1.1043859467603417e+01 9.0275315625472459e+00 5.5120870147405796e+00 
200 1 2 4.9836726707735730e+00 -1.4929503003888019e+03 1.0000000000000000e+00 1.0706043751883819e+01 9.9664811379187022e+00 5.2994943463451198e+00 
253 1 2 4.9601022814290028e+00 -9.8352320324767061e+02 1.0000000000000000e+00 1.1188610925348064e+01 8.9134938800134087e+00 4.3218824398231526e+00 
510 1 2 5.0513523087787338e+00 -1.3397202559778841e+03 1.0000000000000000e+00 1.1530803168182123e+01 8.2953212400232701e+00 5.3844130649083999e+00 
480 1 2 4.9037288663797547e+00 -9.9480983203684116e+02 1.0000000000000000e+00 1.1547914638296318e+01 8.5007752076221053e+00 5.3061539602792713e+00 
565 1 2 4.9285422962328669e+00 -1.2452482697890489e+03 1.0000000000000000e+00 1.1556560187484093e+01 8.3776565122082900e+00 5.0366692505177246e+00 
68 1 2 5.0389856221023619e+00 -1.3893758814525377e+03 1.0000000000000000e+00 1.1584747624050072e+01 8.3042811827493388e+00 5.6936578431599809e+00 
11 1 2 4.9999999999999956e+00 -7.7838887315757279e+02 1.0000000000000000e+00 7.2512874042890072e+00 2.2151447957379471e+00 6.4490618889266793e+00 
3 1 2 4.9999999999998161e+00 -8.4884948293293814e+02 1.0000000000000000e+00 7.2512874053979202e+00 2.2151448019146760e+00 6.4490618926336909e+00 
104 1 2 4.9999999999998206e+00 -1.1141572373637937e+03 1.0000000000000000e+00 7.2512874056836045e+00 2.2151447998247407e+00 6.4490618903220760e+00 
5 1 2 5.0000000000000719e+00 -9.2260531034546989e+02 1.0000000000000000e+00 7.2512874068263917e+00 2.2151448021717721e+00 6.4490618905759849e+00 
13 1 2 4.9999999999999982e+00 -1.4711239753457244e+03 1.0000000000000000e+00 7.2512874046842759e+00 2.2151447993627538e+00 6.4490618915107696e+00 
165 1 2 5.0000000000000915e+00 -1.0427028808787329e+03 1.0000000000000000e+00 7.2512874069526445e+00 2.2151448020125795e+00 6.4490618902326977e+00 
94 1 2 5.0000000000001279e+00 -8.9348563542294778e+02 1.0000000000000000e+00 7.2512874058051864e+00 2.2151448005956249e+00 6.4490618908111843e+00 
21 1 2 4.9999999999998650e+00 -7.3376072066577012e+02 1.0000000000000000e+00 7.2512874053880623e+00 2.2151448011717556e+00 6.4490618919901586e+00 
93 1 2 4.9999999999999485e+00 -7.7682736426766542e+02 1.0000000000000000e+00 7.2512874050954137e+00 2.2151447976620928e+00 6.4490618893439366e+00 
20 1 2 5.0000000000001092e+00 -8.6460045558502907e+02 1.0000000000000000e+00 7.2512874045132856e+00 2.2151447992871356e+00 6.4490618917170970e+00 
12 1 2 5.0000000000000453e+00 -7.1380848482573094e+02 1.0000000000000000e+00 7.2512874047321425e+00 2.2151447976416563e+00 6.4490618899068890e+00 
280 1 2 4.9327466085369673e+00 -1.0589074292162991e+03 1.0000000000000000e+00 1.2987879311511078e+01 3.0431935690666299e+00 6.4157145795884283e+00 
449 1 2 4.9572628688936140e+00 -1.3577269177055064e+03 1.0000000000000000e+00 1.2981976153975452e+01 3.0788399227629761e+00 6.3637285256318501e+00 
400 1 2 4.8943794157383733e+00 -9.4316508010061955e+02 1.0000000000000000e+00 1.3029937570745515e+01 3.0716320454700248e+00 6.0769561398576837e+00 
50 1 2 5.1737029622406610e+00 -1.4954155933425018e+03 1.0000000000000000e+00 1.3153662659178471e+01 2.9282542593439471e+00 6.8529997008886578e+00 
473 1 2 4.9709898322577173e+00 -7.9047983229053091e+02 1.0000000000000000e+00 1.2754630275959306e+01 5.7606459719704208e+00 6.0650849421096433e+00 
167 1 2 4.9624034627982336e+00 -1.1264912743343200e+03 1.0000000000000000e+00 1.3121545902185238e+01 4.6348921325072530e+00 6.7739585209302033e+00 
246 1 2 5.0864453956358089e+00 -1.0295231818350292e+03 1.0000000000000000e+00 1.3037463461019524e+01 5.5709784974476753e+00 7.4017906813617467e+00 
268 1 2 4.9286341715609403e+00 -9.4619035632764383e+02 1.0000000000000000e+00 1.3095184998013941e+01 4.8163318737875249e+00 7.3636212332273576e+00 
375 1 2 4.9363260659670125e+00 -1.0085670090862868e+03 1.0000000000000000e+00 1.3126659954432027e+01 4.8308097912230030e+00 7.2905677457991587e+00 
371 1 2 4.8602064727086542e+00 -1.0994300319924193e+03 1.0000000000000000e+00 1.3035881810169602e+01 4.6971784472042533e+00 7.0982383565605938e+00 
72 1 2 5.0251652915618337e+00 -9.7542047491095263e+02 1.0000000000000000e+00 1.3253346294367034e+01 4.7358697185938992e+00 7.3063883962204308e+00 
504 1 2 5.0471172815317393e+00 -1.2339163615677494e+03 1.0000000000000000e+00 1.2477285343322393e+01 6.0679178651539143e+00 6.2755408410211331e+00 
75 1 2 4.9852527450528488e+00 -1.1819184596245732e+03 1.0000000000000000e+00 1.2179469603888601e+01 6.0977799543321760e+00 6.0173011432754198e+00 
530 1 2 5.1093134811656631e+00 -1.0569162663931429e+03 1.0000000000000000e+00 1.2669567115653869e+01 6.3181141613924705e+00 6.8482679586443806e+00 
49 1 2 5.0194764696848422e+00 -8.5207049790461724e+02 1.0000000000000000e+00 1.1562203678232610e+01 7.6893944902405496e+00 6.3895052479667171e+00 
547 1 2 4.9950558509186544e+00 -1.2733632276835876e+03 1.0000000000000000e+00 1.2367919364893886e+01 6.1668785975376021e+00 6.7942766943226038e+00 
47 1 2 5.1072588041739362e+00 -1.2284567654510361e+03 1.0000000000000000e+00 1.2565126673572403e+01 6.7868052589802454e+00 6.8873013903003839e+00 
224 1 2 4.9675282330303361e+00 -1.0801748422180058e+03 1.0000000000000000e+00 1.2556265780383791e+01 7.0054343936678070e+00 6.6759252622445704e+00 
145 1 2 4.8601114272318240e+00 -9.4023406987458975e+02 1.0000000000000000e+00 1.1582658745630745e+01 7.7754323181417835e+00 7.2208483573260187e+00 
432 1 2 5.0023667227503497e+00 -1.2090060938389929e+03 1.0000000000000000e+00 1.2571164451694427e+01 6.8211468449271448e+00 6.5803151880079351e+00 
511 1 2 4.9121285325745596e+00 -1.0327612296821301e+03 1.0000000000000000e+00 1.2673445752777077e+01 6.8424203481952244e+00 6.7672338226650472e+00 
383 1 2 4.9654584448537999e+00 -9.5383387838890485e+02 1.0000000000000000e+00 1.2041037763078378e+01 7.9285044565849869e+00 6.5801063223009058e+00 
109 1 2 4.9239489892178758e+00 -9.7610465780652942e+02 1.0000000000000000e+00 1.2986403170312746e+01 6.3558745553922886e+00 7.3301360564226368e+00 
433 1 2 5.0945351844418374e+00 -1.0364135496710383e+03 1.0000000000000000e+00 1.1845948583384711e+01 7.9554085474499043e+00 6.8203125036270045e+00 
421 1 2 5.0668893962424093e+00 -4.1752628579933634e+02 1.0000000000000000e+00 1.0718167099175925e+01 9.8843490793536173e+00 6.0948503681222981e+00 
55 1 2 4.9488504846791992e+00 -1.3846142755591507e+03 1.0000000000000000e+00 1.0975002653565099e+01 9.9818309605961115e+00 7.0910958585263222e+00 
360 1 2 4.8790907275128905e+00 -1.1424689848459950e+03 1.0000000000000000e+00 1.0917872334131976e+01 9.6217095436251565e+00 7.6590196324659052e+00 
100 1 2 4.9463913376516500e+00 -1.2965527735786197e+03 1.0000000000000000e+00 1.1093262663375492e+01 9.3080737368326272e+00 7.7020194905128321e+00 
278 1 2 4.9965993232692414e+00 -8.5583896823685882e+02 1.0000000000000000e+00 1.1193963600329052e+01 9.3176561224522150e+00 7.7028969989908109e+00 
57 1 2 5.0013637525619767e+00 -1.0412528171641004e+03 1.0000000000000000e+00 1.1486803935362113e+01 8.1205415559751266e+00 6.6096050143812288e+00 
215 1 2 5.0198517385925179e+00 -1.4520200693056142e+03 1.0000000000000000e+00 1.1477687178255300e+01 8.5899214026649364e+00 7.3876654503776544e+00 
541 1 2 4.9844357788488418e+00 -1.4042999288911008e+03 1.0000000000000000e+00 1.1346888076805547e+01 8.5240760651680159e+00 6.6307058097418734e+00 
243 1 2 4.9703077587882936e+00 -1.4879040369056222e+03 1.0000000000000000e+00 1.1536555853310643e+01 8.0320670589912488e+00 6.9701637520160142e+00 
56 1 2 5.0235943767314257e+00 -1.0429466209156478e+03 1.0000000000000000e+00 1.3311490141647802e+01 3.5871334334026508e+00 8.9332999746640755e+00 
238 1 2 4.9925166608073228e+00 -1.3742331821200112e+03 1.0000000000000000e+00 1.2918777555623098e+01 5.2416800375720660e+00 8.2605944029465999e+00 
135 1 2 4.9714647814769402e+00 -1.4173380574944617e+03 1.0000000000000000e+00 1.3090390039038816e+01 4.9889624392867038e+00 9.1946387729133825e+00 
502 1 2 5.0600631386762478e+00 -8.3161449988925995e+02 1.0000000000000000e+00 1.3177854949546758e+01 4.2564571330782055e+00 8.9869542074780266e+00 
498 1 2 5.1550830031917343e+00 -5.9244247986503490e+02 1.0000000000000000e+00 1.2942217108550835e+01 5.8259180493917340e+00 8.8696299011643038e+00 
269 1 2 5.0365008439109351e+00 -7.7725123412950632e+02 1.0000000000000000e+00 1.2271356841191176e+01 7.5024603487275581e+00 8.7812073963759598e+00 
149 1 2 5.0750562445705532e+00 -1.0131889071257850e+03 1.0000000000000000e+00 1.2656903030557990e+01 6.9732686319246069e+00 8.1982390821764621e+00 
531 1 2 5.0404782171075508e+00 -1.3372237179362094e+03 1.0000000000000000e+00 1.2127915827679026e+01 7.7542355084504351e+00 8.4166679513480727e+00 
250 1 2 5.0028805863713242e+00 -8.1629286295384270e+02 1.0000000000000000e+00 1.2428350570841150e+01 6.7174883396593721e+00 8.7642170125127059e+00 
34 1 2 5.0787920327811307e+00 -1.2171255589352002e+03 1.0000000000000000e+00 1.2561054957869946e+01 6.6307106273287797e+00 9.0701943938045613e+00 
275 1 2 5.0262543919343479e+00 -9.8050492476013119e+02 1.0000000000000000e+00 1.2227725526069131e+01 7.9025209597506292e+00 8.8246620823895192e+00 
343 1 2 4.9225800168766831e+00 -8.8726199643121970e+02 1.0000000000000000e+00 1.2621712004482259e+01 6.4210376991755247e+00 9.6377464345318664e+00 
363 1 2 5.0741806676100190e+00 -9.6993277932792466e+02 1.0000000000000000e+00 1.2560543139174747e+01 6.3726535655741960e+00 8.5215204903684185e+00 
128 1 2 5.1390470904842900e+00 -1.3479340843398431e+03 1.0000000000000000e+00 1.2732165399291203e+01 6.0968723183924363e+00 8.5894167472480714e+00 
59 1 2 4.9585951666105545e+00 -1.2387860368834447e+03 1.0000000000000000e+00 1.2779752147337661e+01 7.2610668925646937e+00 9.0090677814172935e+00 
321 1 2 4.9694670950838127e+00 -7.4160224340041987e+02 1.0000000000000000e+00 1.3017722832753622e+01 6.8599674621984450e+00 9.1697837529928812e+00 
76 1 2 5.0609270576298435e+00 -1.2803807967725363e+03 1.0000000000000000e+00 1.2012193753903937e+01 7.9072393094149662e+00 8.1376799241692517e+00 
263 1 2 5.0542403331105232e+00 -1.1050962476541376e+03 1.0000000000000000e+00 1.2259652050944135e+01 8.0257295689276802e+00 9.5409778882153589e+00 
299 1 2 5.0107040492085053e+00 -1.1044724289652888e+03 1.0000000000000000e+00 1.1118973719572843e+01 9.6556694900307605e+00 8.0772923286053739e+00 
419 1 2 4.9270816470586922e+00 -8.1005631515067330e+02 1.0000000000000000e+00 1.1445899425370975e+01 9.0401688166611720e+00 9.1021046151537952e+00 
80 1 2 5.0748533805367604e+00 -1.4390530337379967e+03 1.0000000000000000e+00 1.2138482141296405e+01 8.5110862655911799e+00 9.6839776720961268e+00 
514 1 2 5.0654970473730003e+00 -1.1828081585364705e+03 1.0000000000000000e+00 1.1546975784067179e+01 9.0297474944077916e+00 8.7960332660192293e+00 
289 1 2 5.0110975847302246e+00 -1.3273260287868168e+03 1.0000000000000000e+00 1.1467117959420959e+01 8.8311885706312889e+00 8.6162216480968823e+00 
286 1 2 5.0831364534687999e+00 -7.7116939468406486e+02 1.0000000000000000e+00 1.1902286624339444e+01 9.1814218641781427e+00 9.5952764636414898e+00 
131 1 2 4.9931893538221370e+00 -1.0514607442918943e+03 1.0000000000000000e+00 1.1440156281969657e+01 9.6972565006778950e+00 9.4173240997854037e+00 
308 1 2 5.0031281032621342e+00 -1.2421856266187594e+03 1.0000000000000000e+00 1.2374956749784120e+01 8.7188158429180689e+00 9.8517765320400308e+00 
367 1 2 4.9975594759155788e+00 -1.0017484558513308e+03 1.0000000000000000e+00 1.1530219084678764e+01 8.5626231338925844e+00 8.4198348905539966e+00 
313 1 2 5.0223109771939374e+00 -1.0098706820051544e+03 1.0000000000000000e+00 1.1206773478642576e+01 9.9687610725972231e+00 8.3879257291267653e+00 
87 1 2 4.9999999999999574e+00 -1.0886847917622315e+03 1.0000000000000000e+00 7.1371165765813203e+00 2.5815079247039172e+00 1.1507875828123069e+01 
86 1 2 4.9999999999999964e+00 -1.1048018365345615e+03 1.0000000000000000e+00 6.9178043426464573e+00 2.4605444456210117e+00 1.1669184766967133e+01 
168 1 2 5.0000000000000160e+00 -1.0703925298226507e+03 1.0000000000000000e+00 7.1372064908052275e+00 2.5814443905417184e+00 1.1507641486670174e+01 
177 1 2 5.0000000000001190e+00 -7.4159780370395436e+02 1.0000000000000000e+00 7.1370018233994870e+00 2.5815929007286380e+00 1.1508157785192191e+01 
186 1 2 5.0000000000000249e+00 -7.9947386444696906e+02 1.0000000000000000e+00 7.1371514675418064e+00 2.5813938130140479e+00 1.1508109377377549e+01 
178 1 2 4.9999999999999929e+00 -7.3573887614398416e+02 1.0000000000000000e+00 7.1371777341115354e+00 2.5814205840574429e+00 1.1507877380466491e+01 
105 1 2 4.9999999999999964e+00 -8.2482742094292212e+02 1.0000000000000000e+00 7.1371631291722268e+00 2.5814203602686434e+00 1.1507953523679371e+01 
16 1 2 4.9999999999999627e+00 -1.3833974769327642e+03 1.0000000000000000e+00 6.8174985074543963e+00 2.3508235179554191e+00 1.1411056693010426e+01 
7 1 2 5.0000000000000409e+00 -1.4766939362635694e+03 1.0000000000000000e+00 6.8175195922779244e+00 2.3509982456746004e+00 1.1410698591306716e+01 
88 1 2 4.9999999999999050e+00 -8.9938343557227074e+02 1.0000000000000000e+00 6.8175687470805828e+00 2.3507680707445266e+00 1.1410987105653316e+01 
6 1 2 5.0000000000000284e+00 -1.0171720233811607e+03 1.0000000000000000e+00 6.8175036063230454e+00 2.3507576122488225e+00 1.1411161189336099e+01 
15 1 2 5.0000000000000062e+00 -9.3033506628743760e+02 1.0000000000000000e+00 6.8175050305261706e+00 2.3507604573296303e+00 1.1411152740475808e+01 
96 1 2 4.9999999999999654e+00 -1.1297487713871433e+03 1.0000000000000000e+00 6.8174084556196064e+00 2.3508060781620324e+00 1.1411303141196994e+01 
267 1 2 4.9297918205819249e+00 -1.2424127470127573e+03 1.0000000000000000e+00 1.3119498771333259e+01 4.1871884441560985e+00 1.0656218435177232e+01 
467 1 2 4.8773935590217450e+00 -9.2502595291380476e+02 1.0000000000000000e+00 1.3172270303603792e+01 4.8372824992522254e+00 1.0678417259558980e+01 
519 1 2 5.1381776852372605e+00 -1.0097939154181058e+03 1.0000000000000000e+00 1.3311596630481823e+01 4.9389089478496473e+00 1.0559685543260334e+01 
424 1 2 4.8820485095842399e+00 -1.2467231609782184e+03 1.0000000000000000e+00 1.3218964947727166e+01 4.7912679450399578e+00 1.0859535053399226e+01 
334 1 2 5.0146302661094477e+00 -9.8680413830556859e+02 1.0000000000000000e+00 1.3142608450663435e+01 4.8275736720312770e+00 1.0001068673585589e+01 
468 1 2 5.0417412976021891e+00 -1.2183723358651221e+03 1.0000000000000000e+00 1.3289980375870421e+01 6.0426642974524079e+00 1.0029461491650133e+01 
182 1 2 5.0375426346954013e+00 -9.3828374510279741e+02 1.0000000000000000e+00 1.2877443352793680e+01 7.3685183316630836e+00 1.0851975139672685e+01 
563 1 2 4.9320089091351234e+00 -1.0648228649040605e+03 1.0000000000000000e+00 1.2899597993265560e+01 7.0686790304208316e+00 1.0905837749356106e+01 
496 1 2 4.9561054465279799e+00 -1.1616496899141578e+03 1.0000000000000000e+00 1.2928274710849399e+01 7.0703178982536343e+00 1.0967525007378727e+01 
140 1 2 5.0534664847832715e+00 -1.3005149663229774e+03 1.0000000000000000e+00 1.3293470261308181e+01 6.4829385270678115e+00 1.0540754149754573e+01 
452 1 2 5.0202630500680616e+00 -1.1433974903748140e+03 1.0000000000000000e+00 1.1943187272861865e+01 9.7682034081527505e+00 1.1171807055230477e+01 
236 1 2 5.0276933205211707e+00 -1.6555119142539515e+03 1.0000000000000000e+00 1.2574799570812869e+01 8.7013323048800544e+00 1.0616050603105617e+01 
457 1 2 5.0697401129307842e+00 -1.0428464540052059e+03 1.0000000000000000e+00 1.2443236046382163e+01 8.6978868358176467e+00 1.0405631331585809e+01 
144 1 2 4.8680282632305625e+00 -8.3993149787938069e+02 1.0000000000000000e+00 1.3091159925280468e+01 8.7098086812479085e+00 1.1487557623886804e+01 
435 1 2 5.0244808556437190e+00 -7.0319743182977197e+02 1.0000000000000000e+00 1.2677411909977202e+01 9.4928383623231163e+00 1.1991140506122951e+01 
307 1 2 4.9747370585257169e+00 -1.5166658752888259e+03 1.0000000000000000e+00 1.2807095377688960e+01 8.2790002559086435e+00 1.0767956358789199e+01 
103 1 2 4.9675721248410598e+00 -1.0549200902560390e+03 1.0000000000000000e+00 1.2710359030448112e+01 8.1378146595428049e+00 1.0382346192984519e+01 
205 1 2 5.0623960870684561e+00 -9.6653318868385088e+02 1.0000000000000000e+00 1.2544680726101417e+01 8.9019578740765350e+00 1.0864137540727830e+01 
370 1 2 4.9041253267748592e+00 -1.4764788960801395e+03 1.0000000000000000e+00 1.2913394728094429e+01 8.8506287540752187e+00 1.1316955749814948e+01 
255 1 2 4.9801142002616530e+00 -1.1917790536982966e+03 1.0000000000000000e+00 1.1655036392325142e+01 9.6750189524484629e+00 1.0362555260367223e+01 
245 1 2 5.0189433182347596e+00 -1.0824864957863665e+03 1.0000000000000000e+00 1.2386376570590119e+01 9.8387046132409335e+00 1.0943718189357446e+01 
429 1 2 5.0691561008396286e+00 -9.7800229268327621e+02 1.0000000000000000e+00 1.3170626639553150e+01 8.6406270574652666e+00 1.2239119407398935e+01 
463 1 2 4.8904506080833912e+00 -1.1082712478581518e+03 1.0000000000000000e+00 1.3095765477942924e+01 8.2922407099938358e+00 1.2843496982700582e+01 
409 1 2 5.1020611053148022e+00 -9.7858567677165047e+02 1.0000000000000000e+00 1.2979497712753698e+01 9.1706631078874974e+00 1.3086681159725728e+01 
324 1 2 5.1130532878556574e+00 -1.2623503131656873e+03 1.0000000000000000e+00 1.2637067585019608e+01 9.7643157602935293e+00 1.3511787935082213e+01 
517 1 2 5.1269306541073210e+00 -1.3997616127221022e+03 1.0000000000000000e+00 1.2864432956936936e+01 9.4555393089797164e+00 1.2977145801251618e+01 