LAMMPS data file via write_data, version 30 Jul 2016, timestep = 50000000

384 atoms
2 atom types

0.0000000000000000e+00 2.0000000000000000e+01 xlo xhi
0.0000000000000000e+00 2.0000000000000000e+01 ylo yhi
0.0000000000000000e+00 2.0000000000000000e+01 zlo zhi

Masses

1 3.89
2 0.42

Atoms # meso-molecular

118 1 2 9.9999999999998923e-02 -1.4631816304548635e+00 1.0000000000000000e+00 5.4414997284491022e+00 1.4257289761899724e+01 1.1737569287940815e+01 
54 1 2 9.9999999999987252e-02 -1.8488256369694858e+00 1.0000000000000000e+00 5.4477796122688735e+00 1.4465995629422004e+01 1.2117709350984596e+01 
119 1 2 9.9999999999998826e-02 -5.5798181389450041e-01 1.0000000000000000e+00 5.4408026118100494e+00 1.4313878463865402e+01 1.1493374621244024e+01 
47 1 2 1.0000000000000125e-01 -2.3843928861997515e-01 1.0000000000000000e+00 5.4697406340271799e+00 1.5084148211615084e+01 1.1424707918855308e+01 
55 1 2 9.9999999999996189e-02 -7.0765451793139889e-01 1.0000000000000000e+00 5.5855833194259921e+00 1.5089661963494017e+01 1.1987600438337495e+01 
126 1 2 9.9999999999997841e-02 3.5861468164115520e+00 1.0000000000000000e+00 5.7413620513411701e+00 1.3980875780763199e+01 1.1705342096733318e+01 
46 1 2 9.9999999999986697e-02 -1.7703083305611683e-01 1.0000000000000000e+00 6.0235161255235328e+00 1.5343294849108586e+01 1.1935967820170342e+01 
329 1 2 9.9999999999987821e-02 -2.2920248793068367e+00 1.0000000000000000e+00 1.2618971107519110e+01 6.3871439025291501e+00 2.1739675379314032e+00 
337 1 2 9.9999999999983505e-02 2.9395873101336392e+00 1.0000000000000000e+00 1.2230336396414597e+01 6.2697315564397869e+00 1.7322092844825925e+00 
265 1 2 1.0000000000001374e-01 3.6941160335051384e+00 1.0000000000000000e+00 1.2561544151310805e+01 6.4370107056110069e+00 1.6852222846773430e+00 
338 1 2 9.9999999999961925e-02 -7.0936980911232594e-01 1.0000000000000000e+00 1.2305229553213225e+01 6.2103773049887563e+00 2.1571507419934406e+00 
266 1 2 1.0000000000000506e-01 -4.9684943881278496e+00 1.0000000000000000e+00 1.2495796733347827e+01 6.4431106925952149e+00 3.2396145527359930e+00 
17 1 2 9.9999999999997327e-02 -3.3645371078569455e+00 1.0000000000000000e+00 9.9921355394597331e+00 6.8285824427589210e+00 1.2072855622450120e+00 
89 1 2 1.0000000000004705e-01 3.3675126153584385e+00 1.0000000000000000e+00 9.2110135887873419e+00 7.1332237659621223e+00 2.7680873574883260e+00 
81 1 2 9.9999999999975900e-02 -2.1630528115097487e+00 1.0000000000000000e+00 9.7383842615358489e+00 7.6690197382429082e+00 1.6099368537165242e+00 
25 1 2 9.9999999999989125e-02 1.1552594877570195e+00 1.0000000000000000e+00 9.4287465221260920e+00 7.4461108791195088e+00 2.2606761222193699e+00 
18 1 2 1.0000000000000242e-01 -3.4316727869626922e+00 1.0000000000000000e+00 1.0044242215039246e+01 6.8257918641674928e+00 1.1319336632051242e+00 
10 1 2 1.0000000000001476e-01 1.2277186170262158e+00 1.0000000000000000e+00 1.0322601814791053e+01 7.3692738722250830e+00 6.2922928187796812e-01 
19 1 2 1.0000000000001044e-01 1.4084920298166057e+00 1.0000000000000000e+00 1.0520446533541023e+01 7.4012063431006858e+00 4.9436235948188201e-01 
11 1 2 1.0000000000001046e-01 2.7848153753606368e+00 1.0000000000000000e+00 1.0567833000243086e+01 7.4107756250009649e+00 4.6496785184415501e-01 
145 1 2 9.9999999999943870e-02 -6.2755937249994564e-02 1.0000000000000000e+00 1.2945464877007446e+01 8.2322592508394941e+00 1.5962660828967060e-01 
273 1 2 1.0000000000005202e-01 -9.9223790198288753e-01 1.0000000000000000e+00 1.2962565984583357e+01 7.6006414954163084e+00 2.0368191906745001e+00 
65 1 2 9.9999999999938818e-02 1.2532573817845138e+00 1.0000000000000000e+00 1.3109215241723783e+01 8.1706728698332594e+00 9.9951481240565354e-02 
209 1 2 9.9999999999940470e-02 -9.9029286980946896e-01 1.0000000000000000e+00 1.1541870448350352e+01 8.3671167663800219e+00 2.8862523813987351e+00 
210 1 2 9.9999999999978800e-02 -1.4656781128806768e+00 1.0000000000000000e+00 1.1677550573409938e+01 8.3788585981037560e+00 2.8119841680372404e+00 
146 1 2 1.0000000000007866e-01 1.8275754470152008e+00 1.0000000000000000e+00 1.1881524016300412e+01 8.3760731858962423e+00 2.3671721789832927e+00 
274 1 2 1.0000000000011111e-01 7.1301274654124536e-01 1.0000000000000000e+00 1.2251925953158958e+01 8.3106458203397882e+00 3.3145977480212903e+00 
129 1 2 1.0000000000001080e-01 3.8141157146021074e+00 1.0000000000000000e+00 9.3859650609642546e+00 5.9518795644130442e+00 3.5836620066512910e+00 
193 1 2 9.9999999999994149e-02 -2.6665940279312617e+00 1.0000000000000000e+00 8.4917932097552526e+00 4.6066162621561384e+00 5.1851973456396099e+00 
201 1 2 9.9999999999981465e-02 1.0677246853459237e+00 1.0000000000000000e+00 8.4864686765759689e+00 4.4705875698677255e+00 5.4484772415216129e+00 
153 1 2 1.0000000000003172e-01 4.1532670634442068e+00 1.0000000000000000e+00 8.4049214211283729e+00 5.4603615794652480e+00 4.2050941489531954e+00 
258 1 2 9.9999999999987238e-02 -5.2620408310813076e+00 1.0000000000000000e+00 8.3541528881541289e+00 3.7515651462957096e+00 6.2488774677630774e+00 
257 1 2 9.9999999999987904e-02 -4.1485533899295157e-01 1.0000000000000000e+00 8.1637087391595582e+00 4.7692379454623044e+00 5.6857708272853067e+00 
202 1 2 1.0000000000001967e-01 4.0030148945309124e-02 1.0000000000000000e+00 9.4284509018976355e+00 5.3698792079274744e+00 3.8919485912246912e+00 
97 1 2 9.9999999999997202e-02 4.8190062965495954e+00 1.0000000000000000e+00 7.3927752892893084e+00 6.5680970219903303e+00 4.7921606296399855e+00 
90 1 2 9.9999999999986364e-02 2.2826745104702622e+00 1.0000000000000000e+00 7.3771773893871044e+00 6.6590834861073525e+00 4.8863756101947846e+00 
259 1 2 1.0000000000004197e-01 -1.0483298938580803e+00 1.0000000000000000e+00 1.0353550816085788e+01 4.5148804930499997e+00 4.9771179363103970e+00 
331 1 2 9.9999999999973138e-02 5.7608120770105165e-01 1.0000000000000000e+00 1.0831943823513217e+01 4.8142271998705404e+00 5.2364679165175332e+00 
339 1 2 9.9999999999974054e-02 7.6724133906144731e-01 1.0000000000000000e+00 1.0821823273245830e+01 4.7879058865064517e+00 5.1955050066264734e+00 
268 1 2 9.9999999999974623e-02 5.3102468662548699e+00 1.0000000000000000e+00 1.1017913828117743e+01 4.8374502908261752e+00 4.7801021943717084e+00 
322 1 2 9.9999999999977912e-02 3.6468956541306796e-01 1.0000000000000000e+00 1.2113313639969061e+01 6.5495459841394235e+00 4.1763509015408902e+00 
267 1 2 1.0000000000001666e-01 -1.6010419346486784e+00 1.0000000000000000e+00 1.1564011797198480e+01 5.4928820218787875e+00 4.7667362310285437e+00 
330 1 2 1.0000000000001122e-01 -3.5772008449001431e+00 1.0000000000000000e+00 1.1791456161555153e+01 5.9605746920614067e+00 4.5680836627789025e+00 
27 1 2 9.9999999999988778e-02 -2.7363662157207242e+00 1.0000000000000000e+00 7.5208258345071801e+00 7.4731813586788256e+00 5.2861295856242325e+00 
98 1 2 1.0000000000003875e-01 2.5347984737025264e+00 1.0000000000000000e+00 7.4255361472217283e+00 7.0995670697073967e+00 4.3098568382647446e+00 
26 1 2 9.9999999999997008e-02 3.5039099647624167e-02 1.0000000000000000e+00 8.0618376361011439e+00 8.0292784541213553e+00 3.6520373017256471e+00 
34 1 2 1.0000000000000141e-01 -2.9175250921299938e+00 1.0000000000000000e+00 7.9913095001265537e+00 8.0381583399038945e+00 3.7423846684437017e+00 
35 1 2 9.9999999999996911e-02 -3.0945968446420364e+00 1.0000000000000000e+00 8.0051123862147797e+00 8.1631127831565102e+00 3.8293884176288393e+00 
28 1 2 9.9999999999984338e-02 1.6084977766677317e+00 1.0000000000000000e+00 7.8940381067387255e+00 6.9426834881422552e+00 6.3058995310290555e+00 
99 1 2 1.0000000000000091e-01 -3.1288765710458408e+00 1.0000000000000000e+00 8.8422941665356998e+00 8.8605154187158419e+00 6.2910314623488661e+00 
164 1 2 1.0000000000001341e-01 5.4628604589063094e+00 1.0000000000000000e+00 9.3101088377767205e+00 8.9915608486199829e+00 6.3054622178504554e+00 
43 1 2 1.0000000000000922e-01 3.8673601204865610e-01 1.0000000000000000e+00 9.0171009663493091e+00 9.0625637378197617e+00 6.3953655976551689e+00 
171 1 2 9.9999999999924982e-02 6.3199870775710210e-01 1.0000000000000000e+00 9.0133235502557003e+00 9.7730009124453971e+00 4.0286323619932762e+00 
107 1 2 1.0000000000000568e-01 -3.0061501779818629e+00 1.0000000000000000e+00 8.9207306207085360e+00 9.0353608548026525e+00 6.4341127578209978e+00 
163 1 2 1.0000000000001187e-01 -9.5614009451265924e-01 1.0000000000000000e+00 9.2481219304041264e+00 9.7275528047503546e+00 3.5601171643378193e+00 
217 1 2 9.9999999999966879e-02 -6.2434965410617771e-01 1.0000000000000000e+00 9.9201222243094236e+00 6.8577006676790040e+00 4.7238476360768438e+00 
281 1 2 9.9999999999982936e-02 1.0747541644786236e+00 1.0000000000000000e+00 1.0546321561378475e+01 6.6669885907257562e+00 4.8566131261199876e+00 
154 1 2 9.9999999999849265e-02 6.9182042769264185e-01 1.0000000000000000e+00 1.2082304026325421e+01 8.3537404424356314e+00 5.8712521170490470e+00 
155 1 2 9.9999999999962508e-02 7.8871400576660633e-01 1.0000000000000000e+00 1.2004529212861653e+01 8.3255816585564055e+00 5.7546113273212693e+00 
218 1 2 1.0000000000005617e-01 9.1978051884606948e-02 1.0000000000000000e+00 1.1923794373955124e+01 8.4229003533333699e+00 5.7974757467393552e+00 
219 1 2 9.9999999999845185e-02 1.3947095016919220e-01 1.0000000000000000e+00 1.2996048118398649e+01 7.9158971375794263e+00 6.4879596563597710e+00 
226 1 2 1.0000000000006171e-01 -1.0286193807018833e+00 1.0000000000000000e+00 1.1008653411128460e+01 9.6120171417144533e+00 5.0838993220707263e+00 
347 1 2 1.0000000000004877e-01 -9.3597477835142295e-01 1.0000000000000000e+00 1.3109657300124899e+01 9.7046553023729061e+00 4.9942749824905857e+00 
282 1 2 1.0000000000004791e-01 -8.4557072821881026e-03 1.0000000000000000e+00 1.3120251389700174e+01 9.5746088486646386e+00 5.0363859435927987e+00 
346 1 2 1.0000000000004905e-01 -1.6347125513867344e+00 1.0000000000000000e+00 1.3110542046706374e+01 9.7340103388425749e+00 5.0255959429702513e+00 
283 1 2 1.0000000000004046e-01 2.4812552745197386e-01 1.0000000000000000e+00 1.3134819636521184e+01 9.5531786214649070e+00 5.1815638409050866e+00 
203 1 2 1.0000000000000445e-01 -1.2800769986965506e+00 1.0000000000000000e+00 8.4353298363304123e+00 2.9125713960942861e+00 6.6928070506071036e+00 
195 1 2 1.0000000000000861e-01 -3.2611989181955199e+00 1.0000000000000000e+00 8.2269847921289951e+00 2.9871629004301949e+00 6.7899431966226800e+00 
194 1 2 9.9999999999996855e-02 -1.8258986021631274e+00 1.0000000000000000e+00 8.3141593096695416e+00 2.6572401153586225e+00 7.1352103872926271e+00 
138 1 2 9.9999999999995398e-02 -1.0066601727935738e+00 1.0000000000000000e+00 8.7175007387311751e+00 2.3447647246739853e+00 7.3322533566896793e+00 
131 1 2 1.0000000000000664e-01 1.7184096374086648e+00 1.0000000000000000e+00 9.3568592860762010e+00 2.1490904814187037e+00 7.5287280805253110e+00 
130 1 2 1.0000000000000761e-01 -3.3545227644643144e-01 1.0000000000000000e+00 1.0007311318559410e+01 2.1260939488344919e+00 7.7329162117452599e+00 
377 1 2 1.0000000000002929e-01 -1.0912379593886035e+00 1.0000000000000000e+00 1.2291489684493056e+01 1.1708173023933390e+00 8.4995981974779777e+00 
321 1 2 1.0000000000002925e-01 6.3362875945494634e-01 1.0000000000000000e+00 1.2291489698646753e+01 1.1708171877414795e+00 8.4995982189168018e+00 
6 1 2 1.0000000000001728e-01 -3.4660756970961444e+00 1.0000000000000000e+00 1.1189415541991909e+01 2.7650314751714791e+00 9.7824175001061917e+00 
67 1 2 9.9999999999991651e-02 2.4039513909281829e+00 1.0000000000000000e+00 1.0373129502129879e+01 2.0708258260987145e+00 7.8719969182294909e+00 
66 1 2 9.9999999999985642e-02 2.5531803313654269e+00 1.0000000000000000e+00 1.0504373658949262e+01 2.0113520188051148e+00 7.9239872775641818e+00 
13 1 2 1.0000000000003104e-01 -3.6926306730183653e+00 1.0000000000000000e+00 1.0405505038904998e+01 2.0238023342654201e+00 8.6865803547190641e+00 
21 1 2 1.0000000000000656e-01 1.2310426474635734e-01 1.0000000000000000e+00 1.2273102116868905e+01 3.2451805002256870e+00 9.1612112165018402e+00 
139 1 2 1.0000000000004108e-01 2.0237614703830489e+00 1.0000000000000000e+00 7.2543004447227144e+00 4.1029549250244024e+00 9.0472570678912838e+00 
75 1 2 1.0000000000002381e-01 -1.1933078583027212e-01 1.0000000000000000e+00 7.1943937303195735e+00 4.0426437869078784e+00 8.9836496846877907e+00 
83 1 2 1.0000000000000281e-01 -7.6058426102401533e-01 1.0000000000000000e+00 6.9485521502368108e+00 4.6004605175139428e+00 8.9200744222210684e+00 
76 1 2 1.0000000000002292e-01 4.6568926389790899e-01 1.0000000000000000e+00 7.2447595942771015e+00 3.8996843079000638e+00 8.9059395440785440e+00 
148 1 2 1.0000000000000350e-01 7.0209140699067352e-01 1.0000000000000000e+00 7.0063502245229756e+00 4.1877708578321791e+00 8.9132596897360870e+00 
20 1 2 9.9999999999982311e-02 5.2861834725587320e+00 1.0000000000000000e+00 8.7319176862124159e+00 4.0733292842387128e+00 8.6966590775291195e+00 
147 1 2 1.0000000000001237e-01 9.8953718997199935e-01 1.0000000000000000e+00 7.1278959367454817e+00 5.3280441648788628e+00 8.3353911626617307e+00 
84 1 2 1.0000000000001615e-01 9.4449926756199232e-01 1.0000000000000000e+00 7.2752354157250538e+00 5.5114465491284808e+00 8.0840641107761790e+00 
91 1 2 1.0000000000002979e-01 2.1807821272602568e+00 1.0000000000000000e+00 7.6506394104169244e+00 5.9229913039422950e+00 7.8546070450650536e+00 
92 1 2 1.0000000000001676e-01 1.7938052981229315e+00 1.0000000000000000e+00 7.9440038003384599e+00 6.3429904923467957e+00 6.9392421904814761e+00 
341 1 2 9.9999999999812406e-02 -2.8293640325639471e+00 1.0000000000000000e+00 9.9121472780813953e+00 5.9637738494015204e+00 8.4583025780140471e+00 
340 1 2 9.9999999999839578e-02 2.5910025448506917e+00 1.0000000000000000e+00 9.9607802235630452e+00 6.3065432906449175e+00 8.1866071059968171e+00 
14 1 2 9.9999999999967976e-02 -2.0082952547088062e-01 1.0000000000000000e+00 1.1569190505069885e+01 3.5547881259671286e+00 9.0922563153925022e+00 
77 1 2 9.9999999999997841e-02 -3.0526075011110692e+00 1.0000000000000000e+00 1.1912525325428755e+01 3.5983370565718835e+00 9.4097777798281772e+00 
85 1 2 9.9999999999988778e-02 1.1213472435960523e+00 1.0000000000000000e+00 1.2049145681545550e+01 3.3602874019667484e+00 9.0800756856571070e+00 
357 1 2 1.0000000000003022e-01 3.9100507457464486e+00 1.0000000000000000e+00 1.0083472785657003e+01 5.5301808424217409e+00 7.8967967451110024e+00 
349 1 2 1.0000000000003632e-01 -2.7391219270960967e+00 1.0000000000000000e+00 1.0113938633552799e+01 5.6812408449010139e+00 7.8301670097147795e+00 
350 1 2 1.0000000000004285e-01 -4.6321247605290622e-01 1.0000000000000000e+00 1.0119024080915015e+01 5.8199758340178800e+00 7.7839320771745237e+00 
348 1 2 9.9999999999962494e-02 -1.3672891313932198e+00 1.0000000000000000e+00 1.0134971474359391e+01 5.8284996998306884e+00 8.0400187430398500e+00 
285 1 2 9.9999999999950739e-02 3.1895146731090185e-01 1.0000000000000000e+00 1.2653338129958243e+01 6.0992427364497637e+00 9.8360721785062815e+00 
156 1 2 1.0000000000007798e-01 6.7863328643602938e-01 1.0000000000000000e+00 8.6825443019210766e+00 7.9127878350075296e+00 7.5531239113827517e+00 
100 1 2 1.0000000000001492e-01 -4.0898592447131659e+00 1.0000000000000000e+00 8.8028625808098777e+00 8.0011714779487448e+00 7.7287700625414102e+00 
45 1 2 1.0000000000004890e-01 -5.9415805170583713e+00 1.0000000000000000e+00 8.9841929302342276e+00 9.1714224396879800e+00 8.7077081927960567e+00 
228 1 2 1.0000000000042268e-01 3.5321897348944647e-01 1.0000000000000000e+00 1.2198653294575386e+01 8.9050951520739439e+00 9.3271895718260271e+00 
36 1 2 1.0000000000002483e-01 -2.0810244265612292e+00 1.0000000000000000e+00 1.0169757736037406e+01 9.1881145076288551e+00 9.1918894473257602e+00 
236 1 2 9.9999999999937764e-02 -1.1646416212616799e+00 1.0000000000000000e+00 1.2932723067588439e+01 8.8377069642715362e+00 9.4866849387220835e+00 
292 1 2 9.9999999999867695e-02 3.4232234837983616e-01 1.0000000000000000e+00 1.3201684211426683e+01 8.0713859648734196e+00 9.5240793519470408e+00 
165 1 2 9.9999999999984254e-02 4.7018032999548920e+00 1.0000000000000000e+00 1.2335514348246042e+01 9.3425904293944395e+00 8.1736049954049648e+00 
229 1 2 1.0000000000020187e-01 1.0844057138155967e-02 1.0000000000000000e+00 1.2505702445731025e+01 8.8977180632095951e+00 7.8322742591417196e+00 
37 1 2 1.0000000000002772e-01 -1.7068162023100517e+00 1.0000000000000000e+00 1.0352754630009775e+01 9.4954724877272287e+00 9.9522974227379315e+00 
44 1 2 9.9999999999862865e-02 -1.8448046627822439e+00 1.0000000000000000e+00 1.0207230503389408e+01 9.9128543226911479e+00 8.0951055694350433e+00 
143 1 2 1.0000000000016901e-01 2.2483844789840339e+00 1.0000000000000000e+00 1.1841566101477198e+01 3.2419058103320828e+00 1.2674779478891294e+01 
125 1 2 9.9999999999843950e-02 3.2962034580094883e+00 1.0000000000000000e+00 1.1654943736642259e+01 8.7345482257380502e-01 1.1258172756854380e+01 
69 1 2 1.0000000000000439e-01 -9.7479954054675422e-01 1.0000000000000000e+00 1.1682734742112467e+01 7.5812581419695402e-01 1.1285726595039771e+01 
70 1 2 1.0000000000013023e-01 5.7962208300099727e-01 1.0000000000000000e+00 1.2091888051024782e+01 3.0566237058014272e+00 1.2356507602654425e+01 
68 1 2 9.9999999999971612e-02 1.4302027294772925e+00 1.0000000000000000e+00 1.1644125014741224e+01 7.3998459670371064e-01 1.1222269960889001e+01 
61 1 2 1.0000000000003226e-01 -1.4514475951307761e+00 1.0000000000000000e+00 1.1657226667268162e+01 6.8902582119279077e-01 1.1230800463635607e+01 
205 1 2 1.0000000000000488e-01 4.5346557799623239e+00 1.0000000000000000e+00 1.3071216509511085e+01 5.7296265140676972e-01 1.1855561815936886e+01 
206 1 2 1.0000000000011976e-01 3.1892208755160576e+00 1.0000000000000000e+00 1.0362868504349340e+01 6.2444985357500959e+00 1.2823067975954785e+01 
86 1 2 1.0000000000001386e-01 -6.2584212333973355e-01 1.0000000000000000e+00 1.3009266405851632e+01 3.4331128591077222e+00 1.1198755164364290e+01 
342 1 2 1.0000000000019689e-01 -2.4124055540683456e+00 1.0000000000000000e+00 1.1636990838635013e+01 5.8199508348817153e+00 1.0162305278443522e+01 
214 1 2 1.0000000000015020e-01 -3.2490507677749010e+00 1.0000000000000000e+00 1.0704902042275590e+01 6.2083385795202304e+00 1.2018528559128812e+01 
343 1 2 9.9999999999855427e-02 -8.5215336004888864e-01 1.0000000000000000e+00 1.2756780251237426e+01 6.2871930173079447e+00 1.1830639977080759e+01 
278 1 2 1.0000000000010004e-01 -3.3227406578300993e+00 1.0000000000000000e+00 1.3156442120503888e+01 5.7914754082061899e+00 1.0590654657302295e+01 
286 1 2 1.0000000000019879e-01 -1.0643076759993129e+00 1.0000000000000000e+00 1.0961784706772564e+01 6.4933723186691221e+00 1.1042005146551015e+01 
78 1 2 1.0000000000006094e-01 -3.7406932063066938e+00 1.0000000000000000e+00 1.2140118571916705e+01 3.5118832398305933e+00 1.0174674431870406e+01 
150 1 2 9.9999999998531167e-02 1.3433173369849440e+00 1.0000000000000000e+00 1.1574769673703756e+01 5.6755582810136049e+00 1.3154615809059370e+01 
142 1 2 1.0000000000119309e-01 -1.3039041276338621e+00 1.0000000000000000e+00 1.1349608167096749e+01 5.3759276360922827e+00 1.3065415259812752e+01 
277 1 2 9.9999999999999159e-02 -7.3954404412903174e-01 1.0000000000000000e+00 1.3139334586125230e+01 6.4614749707181911e+00 1.0062619062966091e+01 
270 1 2 9.9999999999983324e-02 -2.2582328181752152e+00 1.0000000000000000e+00 1.3143929393982715e+01 6.6027669392773278e+00 1.1126491209579301e+01 
269 1 2 1.0000000000002086e-01 1.6455019452382846e+00 1.0000000000000000e+00 1.3211035773612611e+01 6.5836646007698389e+00 1.0201864495651778e+01 
38 1 2 9.9999999999943398e-02 3.6487221215413107e-01 1.0000000000000000e+00 9.2733953653899963e+00 8.5869135216748820e+00 1.1844546926718825e+01 
166 1 2 9.9999999999947714e-02 4.4307079310503816e+00 1.0000000000000000e+00 9.5741091233899382e+00 7.7102453864137690e+00 1.1949882319944994e+01 
102 1 2 1.0000000000007345e-01 -8.4910739854793260e-01 1.0000000000000000e+00 9.2519044820277383e+00 9.7222285907441073e+00 1.1903838229536099e+01 
94 1 2 1.0000000000009522e-01 -2.2747625303195766e+00 1.0000000000000000e+00 9.5611942259315850e+00 9.9199750968612364e+00 1.2396381775894525e+01 
101 1 2 1.0000000000015247e-01 -2.7691624765218483e+00 1.0000000000000000e+00 9.6374064351268203e+00 9.3241442243244510e+00 1.0062355406236847e+01 
30 1 2 9.9999999999939984e-02 -2.9014091096188137e+00 1.0000000000000000e+00 9.5330407076255526e+00 9.2340342429888711e+00 1.3124370299424918e+01 
93 1 2 1.0000000000019030e-01 5.3388743473018219e-01 1.0000000000000000e+00 9.4574675785532989e+00 9.9835268490939697e+00 1.2116662261613195e+01 
29 1 2 9.9999999999946229e-02 -2.7020670585013189e+00 1.0000000000000000e+00 1.0143608160167538e+01 9.7885608101416466e+00 1.3212031614787376e+01 
159 1 2 9.9999999999926689e-02 2.7904505791455949e+00 1.0000000000000000e+00 1.0259933502557450e+01 7.4866926578317274e+00 1.1223986040991850e+01 
334 1 2 9.9999999999815861e-02 5.3349105039401779e-01 1.0000000000000000e+00 1.1208806045947416e+01 7.0378054423685157e+00 1.0277756335975919e+01 
223 1 2 1.0000000000002378e-01 -2.6437107742095494e+00 1.0000000000000000e+00 1.1625529789622254e+01 8.9041467997284691e+00 1.1718073200366282e+01 
167 1 2 9.9999999999911021e-02 2.8682617049599677e+00 1.0000000000000000e+00 1.1681111138495522e+01 8.7391478368114406e+00 1.1885942999709584e+01 
230 1 2 9.9999999999941122e-02 -3.3564924906583482e-01 1.0000000000000000e+00 1.1654069300706764e+01 8.7589065202691518e+00 1.1726102054136465e+01 
231 1 2 1.0000000000014442e-01 -1.9682357237711736e+00 1.0000000000000000e+00 1.3193385577900344e+01 9.4951625215968445e+00 1.2772249233276066e+01 
136 1 2 9.9999999999911993e-02 9.8390820929805356e-01 1.0000000000000000e+00 1.1395569922528290e+01 2.1211799094119117e+00 1.3773887370197137e+01 
192 1 2 9.9999999999964478e-02 4.4680053152951462e+00 1.0000000000000000e+00 1.1782856487906598e+01 1.6358670190513680e+00 1.3989633826255577e+01 
127 1 2 9.9999999999987127e-02 1.2556744690497834e+00 1.0000000000000000e+00 1.2031684451720810e+01 1.3834358767068944e+00 1.3998997663521843e+01 
63 1 2 1.0000000000002265e-01 8.7202543290206147e-01 1.0000000000000000e+00 1.3230763943764462e+01 1.2113519733235556e+00 1.4147761054058174e+01 
128 1 2 1.0000000000002163e-01 7.7821644543216786e-02 1.0000000000000000e+00 1.3183407487611866e+01 1.2146591001458729e+00 1.4163804677685789e+01 
56 1 2 1.0000000000001220e-01 1.4089262290033320e+00 1.0000000000000000e+00 1.3298452900751235e+01 1.0598600325882708e+00 1.4017909166989856e+01 
64 1 2 1.0000000000002278e-01 -9.1026308382594601e-01 1.0000000000000000e+00 1.3264372966236852e+01 1.2015387153699109e+00 1.4130850213354757e+01 
79 1 2 9.9999999999993691e-02 3.1939986503596807e-01 1.0000000000000000e+00 1.0908737067041724e+01 3.5448647918528131e+00 1.4276521872857797e+01 
71 1 2 1.0000000000001699e-01 -1.1730146940188830e+00 1.0000000000000000e+00 1.0951208638149746e+01 3.5871370897710864e+00 1.4418198411347424e+01 
134 1 2 1.0000000000004859e-01 -1.9327147099922970e-01 1.0000000000000000e+00 1.0949009767443233e+01 3.6366205369973796e+00 1.4435602866230347e+01 
135 1 2 1.0000000000004627e-01 -1.6903242972722290e+00 1.0000000000000000e+00 1.0978657420343788e+01 3.6356170309358959e+00 1.4493710969131927e+01 
7 1 2 1.0000000000012051e-01 -2.2381173251180553e-01 1.0000000000000000e+00 1.1751515969827048e+01 4.3446030819242987e+00 1.5326567696000303e+01 
149 1 2 9.9999999999825395e-02 -1.1481215928965680e+00 1.0000000000000000e+00 1.3082064980984530e+01 3.7728089601647072e+00 1.3834820801159143e+01 
213 1 2 9.9999999999781958e-02 8.3476875368093428e-01 1.0000000000000000e+00 1.1554259263327241e+01 5.4434008880027092e+00 1.4511066880078477e+01 
96 1 2 1.0000000000001302e-01 2.9265573815927968e+00 1.0000000000000000e+00 1.2996672911465778e+01 4.9532411482543575e+00 1.6059256948632779e+01 
207 1 2 9.9999999999960357e-02 1.7568072311784280e+00 1.0000000000000000e+00 1.1305444242021292e+01 6.3193690897445576e+00 1.3936037404030868e+01 
88 1 2 9.9999999999957415e-02 -1.7293522396144851e+00 1.0000000000000000e+00 1.1327491409751802e+01 6.0512082767518747e+00 1.6513451193394118e+01 
221 1 2 1.0000000000007972e-01 3.7242903413657782e+00 1.0000000000000000e+00 9.9904973375201660e+00 7.4544506996028232e+00 1.3902107444726443e+01 
222 1 2 1.0000000000007689e-01 1.8357468846973233e+00 1.0000000000000000e+00 9.8166494681983956e+00 7.2715935791056090e+00 1.3477694780118750e+01 
157 1 2 1.0000000000005434e-01 4.2424906758993020e+00 1.0000000000000000e+00 1.0019029597531949e+01 7.6036523964133824e+00 1.3987743605691739e+01 
31 1 2 1.0000000000002865e-01 -4.4471970215627099e-01 1.0000000000000000e+00 1.0444139331579512e+01 7.7504916277890850e+00 1.5904219041610000e+01 
95 1 2 1.0000000000002061e-01 -9.3970512412809892e-01 1.0000000000000000e+00 1.0604527204506814e+01 7.4376531657698175e+00 1.6223974649714005e+01 
24 1 2 1.0000000000005327e-01 -2.7077552324472185e+00 1.0000000000000000e+00 1.0714337770103965e+01 8.2858123671478641e+00 1.6063167173854431e+01 
158 1 2 9.9999999999861075e-02 3.5370824602214705e+00 1.0000000000000000e+00 1.0797676199419612e+01 8.2654002509430828e+00 1.4000549130278118e+01 
23 1 2 1.0000000000009716e-01 -1.6376443900210931e+00 1.0000000000000000e+00 1.1153890837246767e+01 8.2346166655079216e+00 1.6449960201009311e+01 
216 1 2 1.0000000000026238e-01 1.7957968689943447e+00 1.0000000000000000e+00 1.1989356426869460e+01 7.5318372150062478e+00 1.6006846644358330e+01 
72 1 2 1.0000000000012231e-01 1.8382701786438385e+00 1.0000000000000000e+00 1.1634956633036447e+01 4.9255346146505286e+00 1.6875689139581155e+01 
80 1 2 1.0000000000001312e-01 -1.2760884265024433e+00 1.0000000000000000e+00 1.2190125983161831e+01 4.5988972550372686e+00 1.7386833042249737e+01 
1 1 2 9.9999999999966199e-02 8.4603303712710909e-02 1.0000000000000000e+00 1.2280765874598558e+01 5.4171297309825741e+00 1.8115356662182325e+01 
16 1 2 9.9999999999999936e-02 -3.4016957064663425e+00 1.0000000000000000e+00 1.2369142942900268e+01 4.6124819764176275e+00 1.7498560280818023e+01 
15 1 2 1.0000000000000013e-01 -5.7794783190096299e-01 1.0000000000000000e+00 1.2416871442534561e+01 4.5998138177700625e+00 1.7479854221674312e+01 
8 1 2 9.9999999999937167e-02 -2.3327100761374062e+00 1.0000000000000000e+00 1.2499027455576666e+01 5.1742354234978016e+00 1.8053581619819845e+01 
74 1 2 1.0000000000000858e-01 -2.2030018104830544e+00 1.0000000000000000e+00 1.3120652590924788e+01 8.3134239529403313e+00 1.8871132209433576e+01 
9 1 2 1.0000000000012524e-01 -4.7706903596662187e+00 1.0000000000000000e+00 1.1945985644439647e+01 7.1052994472076829e+00 1.8770909941108307e+01 
144 1 2 1.0000000000004063e-01 1.8851503175455762e+00 1.0000000000000000e+00 1.3289374202171924e+01 8.1966199542605267e+00 1.8570325228150434e+01 
82 1 2 9.9999999999925995e-02 -2.9220632622029346e+00 1.0000000000000000e+00 1.1906864260388707e+01 7.6545164353848349e+00 1.9060863001231091e+01 
87 1 2 9.9999999999866501e-02 -2.4678352225678708e+00 1.0000000000000000e+00 1.1123690680465417e+01 7.8327520229191165e+00 1.6865315080877348e+01 
137 1 2 1.0000000000003169e-01 -3.5752236203411905e-02 1.0000000000000000e+00 1.3322039454045282e+01 8.1238782778111513e+00 1.9862694842112592e+01 
32 1 2 9.9999999999962216e-02 -3.8203767208258388e-01 1.0000000000000000e+00 1.1613025431261926e+01 7.9069785105440991e+00 1.6894434180857498e+01 
233 1 2 9.9999999999998188e-02 -8.4252891743303282e-01 1.0000000000000000e+00 8.5293470378069127e+00 1.2067877431904572e+01 3.2287834032530625e+00 
234 1 2 1.0000000000004131e-01 -5.7043718069790095e-01 1.0000000000000000e+00 8.6981135000380085e+00 1.0512405651515600e+01 3.2403003338739138e+00 
235 1 2 1.0000000000004336e-01 1.8583056207987709e+00 1.0000000000000000e+00 8.7572359363786703e+00 1.0432099561319266e+01 3.2373322750473590e+00 
170 1 2 1.0000000000001190e-01 7.6411877341564782e-01 1.0000000000000000e+00 8.8867082053911108e+00 1.2058788415113961e+01 2.9778541715403724e+00 
227 1 2 1.0000000000002113e-01 -1.2594929483839152e+00 1.0000000000000000e+00 9.5899339891721436e+00 1.0532346972891755e+01 3.0004001712004116e+00 
345 1 2 9.9999999999979591e-02 -1.7511799572770217e+00 1.0000000000000000e+00 1.1810786191540121e+01 1.1121800802336438e+01 3.3327791859199341e+00 
354 1 2 9.9999999999993164e-02 -2.4372095465940582e+00 1.0000000000000000e+00 1.1782805183841592e+01 1.1696184052806272e+01 3.3329751170331696e+00 
169 1 2 1.0000000000000371e-01 -7.6931902533892749e-01 1.0000000000000000e+00 9.1076236820393355e+00 1.2582972267962655e+01 3.3870279741129075e+00 
225 1 2 9.9999999999995481e-02 -2.2345710413680377e+00 1.0000000000000000e+00 8.7986448190045312e+00 1.2603759016316381e+01 3.5805622183336201e+00 
297 1 2 1.0000000000002145e-01 2.8050783573981759e+00 1.0000000000000000e+00 8.3760432633565340e+00 1.2260405491878444e+01 3.7447166482360070e+00 
105 1 2 9.9999999999999992e-02 8.8313162996207950e-01 1.0000000000000000e+00 7.6229020336087130e+00 1.3253990347238894e+01 6.3339130817252460e+00 
161 1 2 9.9999999999956291e-02 7.2749872544635252e+00 1.0000000000000000e+00 9.1874742225640951e+00 1.2758463494239882e+01 4.5954231123142835e+00 
289 1 2 9.9999999999983880e-02 1.9139469956576776e+00 1.0000000000000000e+00 1.1852965366915562e+01 1.1405183315317354e+01 3.3440115908758754e+00 
362 1 2 1.0000000000000057e-01 9.6784997092529579e-01 1.0000000000000000e+00 1.1160515396209936e+01 1.2638308187895552e+01 3.4782275560397466e+00 
353 1 2 9.9999999999971959e-02 -9.6096372036715380e-02 1.0000000000000000e+00 1.2010243909656197e+01 1.0921174505976468e+01 3.4196147571073934e+00 
298 1 2 9.9999999999992706e-02 1.6958647266906024e+00 1.0000000000000000e+00 1.1532780447304852e+01 1.2954271670542077e+01 3.8790480153000555e+00 
162 1 2 9.9999999999939609e-02 -2.3035159961319940e-02 1.0000000000000000e+00 1.0303521037445991e+01 1.0494801307885544e+01 4.5871128254474645e+00 
369 1 2 9.9999999999967601e-02 -8.2056328449582594e-01 1.0000000000000000e+00 1.0340823624339674e+01 1.2661060328099303e+01 6.1458623255835558e+00 