LAMMPS data file via write_data, version 30 Jul 2016, timestep = 1000000

2080 atoms
8 atom types

0.0000000000000000e+00 4.0000000000000000e+01 xlo xhi
0.0000000000000000e+00 4.0000000000000000e+01 ylo yhi
0.0000000000000000e+00 1.0000000000000000e+02 zlo zhi

Masses

1 3.896
2 10.72
3 1058.08
4 8.378
5 8.378
6 8.378
7 8.378
8 8.378

Atoms # meso-molecular

1 2 4 2.2559723595316457e+00 5.8914447375108014e-01 4.2000000000000000e+03 0.0000000000000000e+00 0.0000000000000000e+00 2.5000000000000000e+00 
2 2 4 2.2559723595316457e+00 1.0134064487692309e+00 4.2000000000000000e+03 0.0000000000000000e+00 2.0000000000000000e+00 2.5000000000000000e+00 
21 2 4 2.2559723595316457e+00 9.8863021118998839e-01 4.2000000000000000e+03 2.0000000000000000e+00 0.0000000000000000e+00 2.5000000000000000e+00 
22 2 4 2.2559723595316457e+00 9.9270509474112545e-01 4.2000000000000000e+03 2.0000000000000000e+00 2.0000000000000000e+00 2.5000000000000000e+00 
41 2 4 2.2559723595316457e+00 1.0043818502609057e+00 4.2000000000000000e+03 4.0000000000000000e+00 0.0000000000000000e+00 2.5000000000000000e+00 
42 2 4 2.2559723595316457e+00 9.9051985907338103e-01 4.2000000000000000e+03 4.0000000000000000e+00 2.0000000000000000e+00 2.5000000000000000e+00 
61 2 4 2.2559723595316457e+00 9.9999890784617018e-01 4.2000000000000000e+03 6.0000000000000000e+00 0.0000000000000000e+00 2.5000000000000000e+00 
62 2 4 2.2559723595316457e+00 1.0000000444826984e+00 4.2000000000000000e+03 6.0000000000000000e+00 2.0000000000000000e+00 2.5000000000000000e+00 
81 2 4 2.2559723595316457e+00 9.9997793569262239e-01 4.2000000000000000e+03 8.0000000000000000e+00 0.0000000000000000e+00 2.5000000000000000e+00 
82 2 4 2.2559723595316457e+00 1.0000033052476982e+00 4.2000000000000000e+03 8.0000000000000000e+00 2.0000000000000000e+00 2.5000000000000000e+00 
101 2 4 2.2559723595316457e+00 1.0000001164667998e+00 4.2000000000000000e+03 1.0000000000000000e+01 0.0000000000000000e+00 2.5000000000000000e+00 
102 2 4 2.2559723595316457e+00 1.0000000010163221e+00 4.2000000000000000e+03 1.0000000000000000e+01 2.0000000000000000e+00 2.5000000000000000e+00 
121 2 4 2.2559723595316457e+00 1.0000000000000000e+00 4.2000000000000000e+03 1.2000000000000000e+01 0.0000000000000000e+00 2.5000000000000000e+00 
122 2 4 2.2559723595316457e+00 9.9999216739913221e-01 4.2000000000000000e+03 1.2000000000000000e+01 2.0000000000000000e+00 2.5000000000000000e+00 
141 2 4 2.2559723595316457e+00 9.9996635275373769e-01 4.2000000000000000e+03 1.4000000000000000e+01 0.0000000000000000e+00 2.5000000000000000e+00 
142 2 4 2.2559723595316457e+00 1.0004010332818618e+00 4.2000000000000000e+03 1.4000000000000000e+01 2.0000000000000000e+00 2.5000000000000000e+00 
161 2 4 2.2559723595316457e+00 9.9999985267905911e-01 4.2000000000000000e+03 1.6000000000000000e+01 0.0000000000000000e+00 2.5000000000000000e+00 
162 2 4 2.2559723595316457e+00 9.9996506355066583e-01 4.2000000000000000e+03 1.6000000000000000e+01 2.0000000000000000e+00 2.5000000000000000e+00 
181 2 4 2.2559723595316457e+00 9.9995685504926146e-01 4.2000000000000000e+03 1.8000000000000000e+01 0.0000000000000000e+00 2.5000000000000000e+00 
182 2 4 2.2559723595316457e+00 1.0000000563916900e+00 4.2000000000000000e+03 1.8000000000000000e+01 2.0000000000000000e+00 2.5000000000000000e+00 
3 2 4 2.2559723595316457e+00 -2.6631354709826409e+00 4.2000000000000000e+03 0.0000000000000000e+00 4.0000000000000000e+00 2.5000000000000000e+00 
4 2 4 2.2559723595316457e+00 5.0324725385120606e-01 4.2000000000000000e+03 0.0000000000000000e+00 6.0000000000000000e+00 2.5000000000000000e+00 
23 2 4 2.2559723595316457e+00 9.9996543653077630e-01 4.2000000000000000e+03 2.0000000000000000e+00 4.0000000000000000e+00 2.5000000000000000e+00 
24 2 4 2.2559723595316457e+00 1.0000000000000000e+00 4.2000000000000000e+03 2.0000000000000000e+00 6.0000000000000000e+00 2.5000000000000000e+00 
43 2 4 2.2559723595316457e+00 1.0000000000000000e+00 4.2000000000000000e+03 4.0000000000000000e+00 4.0000000000000000e+00 2.5000000000000000e+00 
44 2 4 2.2559723595316457e+00 9.9997893763489820e-01 4.2000000000000000e+03 4.0000000000000000e+00 6.0000000000000000e+00 2.5000000000000000e+00 
63 2 4 2.2559723595316457e+00 1.0000000000000000e+00 4.2000000000000000e+03 6.0000000000000000e+00 4.0000000000000000e+00 2.5000000000000000e+00 
64 2 4 2.2559723595316457e+00 1.0000000000000000e+00 4.2000000000000000e+03 6.0000000000000000e+00 6.0000000000000000e+00 2.5000000000000000e+00 
83 2 4 2.2559723595316457e+00 1.0000000000000000e+00 4.2000000000000000e+03 8.0000000000000000e+00 4.0000000000000000e+00 2.5000000000000000e+00 
84 2 4 2.2559723595316457e+00 1.0000008651634871e+00 4.2000000000000000e+03 8.0000000000000000e+00 6.0000000000000000e+00 2.5000000000000000e+00 
103 2 4 2.2559723595316457e+00 1.0000000199361345e+00 4.2000000000000000e+03 1.0000000000000000e+01 4.0000000000000000e+00 2.5000000000000000e+00 
104 2 4 2.2559723595316457e+00 9.9862492875281483e-01 4.2000000000000000e+03 1.0000000000000000e+01 6.0000000000000000e+00 2.5000000000000000e+00 
123 2 4 2.2559723595316457e+00 1.0000028777656391e+00 4.2000000000000000e+03 1.2000000000000000e+01 4.0000000000000000e+00 2.5000000000000000e+00 
124 2 4 2.2559723595316457e+00 1.0000000000000000e+00 4.2000000000000000e+03 1.2000000000000000e+01 6.0000000000000000e+00 2.5000000000000000e+00 
143 2 4 2.2559723595316457e+00 9.9975794501823312e-01 4.2000000000000000e+03 1.4000000000000000e+01 4.0000000000000000e+00 2.5000000000000000e+00 
144 2 4 2.2559723595316457e+00 1.0000000124894868e+00 4.2000000000000000e+03 1.4000000000000000e+01 6.0000000000000000e+00 2.5000000000000000e+00 
163 2 4 2.2559723595316457e+00 9.9976984254209100e-01 4.2000000000000000e+03 1.6000000000000000e+01 4.0000000000000000e+00 2.5000000000000000e+00 
164 2 4 2.2559723595316457e+00 9.9985691275684796e-01 4.2000000000000000e+03 1.6000000000000000e+01 6.0000000000000000e+00 2.5000000000000000e+00 
183 2 4 2.2559723595316457e+00 9.9999525500253728e-01 4.2000000000000000e+03 1.8000000000000000e+01 4.0000000000000000e+00 2.5000000000000000e+00 
184 2 4 2.2559723595316457e+00 9.6816635661113737e-01 4.2000000000000000e+03 1.8000000000000000e+01 6.0000000000000000e+00 2.5000000000000000e+00 
5 2 4 2.2559723595316457e+00 9.9834539821376911e-01 4.2000000000000000e+03 0.0000000000000000e+00 8.0000000000000000e+00 2.5000000000000000e+00 
25 2 4 2.2559723595316457e+00 1.0000026197770984e+00 4.2000000000000000e+03 2.0000000000000000e+00 8.0000000000000000e+00 2.5000000000000000e+00 
45 2 4 2.2559723595316457e+00 1.0000000000000000e+00 4.2000000000000000e+03 4.0000000000000000e+00 8.0000000000000000e+00 2.5000000000000000e+00 
65 2 4 2.2559723595316457e+00 1.0000000000000000e+00 4.2000000000000000e+03 6.0000000000000000e+00 8.0000000000000000e+00 2.5000000000000000e+00 
85 2 4 2.2559723595316457e+00 1.0000000000000000e+00 4.2000000000000000e+03 8.0000000000000000e+00 8.0000000000000000e+00 2.5000000000000000e+00 
105 2 4 2.2559723595316457e+00 1.0000000000000000e+00 4.2000000000000000e+03 1.0000000000000000e+01 8.0000000000000000e+00 2.5000000000000000e+00 
125 2 4 2.2559723595316457e+00 9.9998431901050489e-01 4.2000000000000000e+03 1.2000000000000000e+01 8.0000000000000000e+00 2.5000000000000000e+00 
145 2 4 2.2559723595316457e+00 9.9999703972576393e-01 4.2000000000000000e+03 1.4000000000000000e+01 8.0000000000000000e+00 2.5000000000000000e+00 
165 2 4 2.2559723595316457e+00 3.5666463204759324e-01 4.2000000000000000e+03 1.6000000000000000e+01 8.0000000000000000e+00 2.5000000000000000e+00 
185 2 4 2.2559723595316457e+00 2.6057827865781424e-01 4.2000000000000000e+03 1.8000000000000000e+01 8.0000000000000000e+00 2.5000000000000000e+00 
6 2 4 2.2559723595316457e+00 1.0000000000000000e+00 4.2000000000000000e+03 0.0000000000000000e+00 1.0000000000000000e+01 2.5000000000000000e+00 
7 2 4 2.2559723595316457e+00 9.9994110887700527e-01 4.2000000000000000e+03 0.0000000000000000e+00 1.2000000000000000e+01 2.5000000000000000e+00 
26 2 4 2.2559723595316457e+00 1.0000001803428613e+00 4.2000000000000000e+03 2.0000000000000000e+00 1.0000000000000000e+01 2.5000000000000000e+00 
27 2 4 2.2559723595316457e+00 1.0000186583386597e+00 4.2000000000000000e+03 2.0000000000000000e+00 1.2000000000000000e+01 2.5000000000000000e+00 
46 2 4 2.2559723595316457e+00 1.0000000000000000e+00 4.2000000000000000e+03 4.0000000000000000e+00 1.0000000000000000e+01 2.5000000000000000e+00 
47 2 4 2.2559723595316457e+00 1.0000000173605765e+00 4.2000000000000000e+03 4.0000000000000000e+00 1.2000000000000000e+01 2.5000000000000000e+00 
66 2 4 2.2559723595316457e+00 1.0000000123036559e+00 4.2000000000000000e+03 6.0000000000000000e+00 1.0000000000000000e+01 2.5000000000000000e+00 
67 2 4 2.2559723595316457e+00 1.0000000958984274e+00 4.2000000000000000e+03 6.0000000000000000e+00 1.2000000000000000e+01 2.5000000000000000e+00 
86 2 4 2.2559723595316457e+00 1.0000036333962421e+00 4.2000000000000000e+03 8.0000000000000000e+00 1.0000000000000000e+01 2.5000000000000000e+00 
87 2 4 2.2559723595316457e+00 1.0000492835933272e+00 4.2000000000000000e+03 8.0000000000000000e+00 1.2000000000000000e+01 2.5000000000000000e+00 
106 2 4 2.2559723595316457e+00 1.0000004148688775e+00 4.2000000000000000e+03 1.0000000000000000e+01 1.0000000000000000e+01 2.5000000000000000e+00 
107 2 4 2.2559723595316457e+00 9.9997156519534969e-01 4.2000000000000000e+03 1.0000000000000000e+01 1.2000000000000000e+01 2.5000000000000000e+00 
126 2 4 2.2559723595322487e+00 1.0000392781556147e+00 4.2000000000000000e+03 1.2000000000000000e+01 1.0000000000000000e+01 2.5000000000000000e+00 
127 2 4 2.2559723595316465e+00 1.0000004838503223e+00 4.2000000000000000e+03 1.2000000000000000e+01 1.2000000000000000e+01 2.5000000000000000e+00 
146 2 4 2.2559723595316457e+00 3.1696677874247470e-01 4.2000000000000000e+03 1.4000000000000000e+01 1.0000000000000000e+01 2.5000000000000000e+00 
147 2 4 2.2559723595316457e+00 2.9723740429994105e-01 4.2000000000000000e+03 1.4000000000000000e+01 1.2000000000000000e+01 2.5000000000000000e+00 
166 2 4 2.2559723595316457e+00 -1.8724872427838412e+02 4.2000000000000000e+03 1.6000000000000000e+01 1.0000000000000000e+01 2.5000000000000000e+00 
167 2 4 2.2559723595316457e+00 -1.9277480067732142e+02 4.2000000000000000e+03 1.6000000000000000e+01 1.2000000000000000e+01 2.5000000000000000e+00 
186 2 4 2.2559723595316474e+00 -1.9254102671142951e+02 4.2000000000000000e+03 1.8000000000000000e+01 1.0000000000000000e+01 2.5000000000000000e+00 
187 2 4 2.2559723595316772e+00 -1.9364116912674075e+02 4.2000000000000000e+03 1.8000000000000000e+01 1.2000000000000000e+01 2.5000000000000000e+00 
8 2 4 2.2559723595316457e+00 1.0001410314541417e+00 4.2000000000000000e+03 0.0000000000000000e+00 1.4000000000000000e+01 2.5000000000000000e+00 
9 2 4 2.2559723595316457e+00 1.0207617569687986e+00 4.2000000000000000e+03 0.0000000000000000e+00 1.6000000000000000e+01 2.5000000000000000e+00 
28 2 4 2.2559723595316457e+00 1.0000000092603214e+00 4.2000000000000000e+03 2.0000000000000000e+00 1.4000000000000000e+01 2.5000000000000000e+00 
29 2 4 2.2559723595316457e+00 1.0000002632352079e+00 4.2000000000000000e+03 2.0000000000000000e+00 1.6000000000000000e+01 2.5000000000000000e+00 
48 2 4 2.2559723595316457e+00 9.9999830541494572e-01 4.2000000000000000e+03 4.0000000000000000e+00 1.4000000000000000e+01 2.5000000000000000e+00 
49 2 4 2.2559723595316457e+00 9.9999701066410984e-01 4.2000000000000000e+03 4.0000000000000000e+00 1.6000000000000000e+01 2.5000000000000000e+00 
68 2 4 2.2559723595316457e+00 1.0000000000000000e+00 4.2000000000000000e+03 6.0000000000000000e+00 1.4000000000000000e+01 2.5000000000000000e+00 
69 2 4 2.2559723595318735e+00 1.0000321812933166e+00 4.2000000000000000e+03 6.0000000000000000e+00 1.6000000000000000e+01 2.5000000000000000e+00 
88 2 4 2.2559723595316457e+00 1.0000000045557424e+00 4.2000000000000000e+03 8.0000000000000000e+00 1.4000000000000000e+01 2.5000000000000000e+00 
89 2 4 2.2559723595316457e+00 9.9994710345455173e-01 4.2000000000000000e+03 8.0000000000000000e+00 1.6000000000000000e+01 2.5000000000000000e+00 
108 2 4 2.2559723595316750e+00 9.9994190126496274e-01 4.2000000000000000e+03 1.0000000000000000e+01 1.4000000000000000e+01 2.5000000000000000e+00 
109 2 4 2.2559723595316457e+00 9.9999982590882108e-01 4.2000000000000000e+03 1.0000000000000000e+01 1.6000000000000000e+01 2.5000000000000000e+00 
128 2 4 2.2559723595321106e+00 1.0000566635530332e+00 4.2000000000000000e+03 1.2000000000000000e+01 1.4000000000000000e+01 2.5000000000000000e+00 
129 2 4 2.2559723595316457e+00 1.0000013932658920e+00 4.2000000000000000e+03 1.2000000000000000e+01 1.6000000000000000e+01 2.5000000000000000e+00 
148 2 4 2.2559723595316457e+00 3.7355689271328429e-01 4.2000000000000000e+03 1.4000000000000000e+01 1.4000000000000000e+01 2.5000000000000000e+00 
149 2 4 2.2559723595316457e+00 4.0981094128418771e-01 4.2000000000000000e+03 1.4000000000000000e+01 1.6000000000000000e+01 2.5000000000000000e+00 
168 2 4 2.2559723595316457e+00 -1.9342285356028756e+02 4.2000000000000000e+03 1.6000000000000000e+01 1.4000000000000000e+01 2.5000000000000000e+00 
169 2 4 2.2559723595316457e+00 -1.9446741469266811e+02 4.2000000000000000e+03 1.6000000000000000e+01 1.6000000000000000e+01 2.5000000000000000e+00 
188 2 4 2.2559723595317180e+00 -1.9487551385333188e+02 4.2000000000000000e+03 1.8000000000000000e+01 1.4000000000000000e+01 2.5000000000000000e+00 
189 2 4 2.2559723595320231e+00 -1.9776144804003906e+02 4.2000000000000000e+03 1.8000000000000000e+01 1.6000000000000000e+01 2.5000000000000000e+00 
10 2 4 2.2559723595316457e+00 1.0000028566903496e+00 4.2000000000000000e+03 0.0000000000000000e+00 1.8000000000000000e+01 2.5000000000000000e+00 
30 2 4 2.2559723595316457e+00 9.9999977643867943e-01 4.2000000000000000e+03 2.0000000000000000e+00 1.8000000000000000e+01 2.5000000000000000e+00 
50 2 4 2.2559723595316457e+00 9.1731722355246370e-01 4.2000000000000000e+03 4.0000000000000000e+00 1.8000000000000000e+01 2.5000000000000000e+00 
70 2 4 2.2559723595316457e+00 9.9520301318181281e-01 4.2000000000000000e+03 6.0000000000000000e+00 1.8000000000000000e+01 2.5000000000000000e+00 
90 2 4 2.2559723595316457e+00 1.0000000000000000e+00 4.2000000000000000e+03 8.0000000000000000e+00 1.8000000000000000e+01 2.5000000000000000e+00 
110 2 4 2.2559723595316887e+00 1.0000106397555903e+00 4.2000000000000000e+03 1.0000000000000000e+01 1.8000000000000000e+01 2.5000000000000000e+00 
130 2 4 2.2559723595322647e+00 9.9404584303728916e-01 4.2000000000000000e+03 1.2000000000000000e+01 1.8000000000000000e+01 2.5000000000000000e+00 
150 2 4 2.2559723595316457e+00 2.5095633422253172e-01 4.2000000000000000e+03 1.4000000000000000e+01 1.8000000000000000e+01 2.5000000000000000e+00 
170 2 4 2.2559723595316457e+00 -1.9439721363852539e+02 4.2000000000000000e+03 1.6000000000000000e+01 1.8000000000000000e+01 2.5000000000000000e+00 
190 2 4 2.2559723595316457e+00 -1.9598384087554157e+02 4.2000000000000000e+03 1.8000000000000000e+01 1.8000000000000000e+01 2.5000000000000000e+00 
758 360 2 1.0280000000000071e+00 -5.0521311908536554e+03 4.2000000000000000e+03 1.8185240187053221e+01 8.3119047293893344e-01 1.5161726815515902e+01 
759 361 2 1.0280000000000005e+00 -5.0521312108419006e+03 4.2000000000000000e+03 1.9814817267141489e+01 8.3119046601270863e-01 1.5161725690260734e+01 
1773 1375 2 1.0280000000000000e+00 1.6416631602545181e+03 4.2000000000000000e+03 1.9654173969761413e+01 9.1985603107428793e-01 1.5251700060289837e+01 
1776 1378 2 1.0279999999999956e+00 1.6416631616937329e+03 4.2000000000000000e+03 1.8345883822175207e+01 9.1985607641448242e-01 1.5251700890254163e+01 
905 507 2 1.0280000000103922e+00 3.2205328452876806e+03 4.2000000000000000e+03 6.3070878023694688e-01 1.5258092974383384e+01 1.3622894313927077e+01 
1093 695 2 1.0280000000210183e+00 3.0564092915870760e+03 4.2000000000000000e+03 8.1330632158474814e-01 1.5855576152667144e+01 1.3628084039670178e+01 
744 346 2 1.0280000000539624e+00 -8.1041904172836223e+02 4.2000000000000000e+03 9.5522553917739650e-01 1.6536278958265630e+01 1.3820546730702963e+01 
1097 699 2 1.0280000000125804e+00 3.7057265833184183e+03 4.2000000000000000e+03 5.2151996425034830e-01 1.5269532350685653e+01 1.4904227512344146e+01 
943 545 2 1.0279999997942990e+00 -7.9494459203203928e+02 4.2000000000000000e+03 1.5751741642338100e+00 1.7510204999880628e+01 1.3463809953126963e+01 
1292 894 2 1.0280000000494349e+00 7.7524988656536721e+02 4.2000000000000000e+03 2.2367325526472976e+00 1.8563335691082944e+01 1.3617753691248636e+01 
1124 726 2 1.0280000000494534e+00 7.7524989512474826e+02 4.2000000000000000e+03 2.2367318414292261e+00 1.9437007809749183e+01 1.3617752168625472e+01 
1274 876 2 1.0280000000253464e+00 -3.8848057533546403e+03 4.2000000000000000e+03 2.1113702160501679e+00 1.9899584967477931e+01 1.3619192057124168e+01 
1106 708 2 1.0280000000253082e+00 -3.8848057711078600e+03 4.2000000000000000e+03 2.1113716274022694e+00 1.8100758888845466e+01 1.3619195393919123e+01 
1095 697 2 1.0279999999737284e+00 -2.7990863365214768e+03 4.2000000000000000e+03 1.7449226605899735e+01 1.9366345481582805e+01 1.8411320114173137e+01 
1263 865 2 1.0279999999737894e+00 -2.7990863366838025e+03 4.2000000000000000e+03 1.7449226594453435e+01 1.8633655089650404e+01 1.8411320116243214e+01 
1242 844 2 1.0279999999693765e+00 2.9404993510208960e+03 4.2000000000000000e+03 1.7341493905869221e+01 1.8998490418989324e+01 1.8478245819578028e+01 
1074 676 2 1.0279999999693707e+00 2.9404993509238211e+03 4.2000000000000000e+03 1.7341493905495074e+01 1.9001510180248562e+01 1.8478245820445764e+01 
1078 680 2 1.0280000000979082e+00 -4.3921596462951875e+03 4.2000000000000000e+03 1.8262241323743805e+01 1.7523806641972701e+01 1.9848621386004858e+01 
1079 681 2 1.0280000000978859e+00 -4.3921596463192091e+03 4.2000000000000000e+03 1.9737761547370098e+01 1.7523806814363837e+01 1.9848622066571124e+01 
1084 686 2 1.0280000001766876e+00 4.7300800607127667e+03 4.2000000000000000e+03 1.9459962986056617e+01 1.7144065052475529e+01 2.1623371966056762e+01 
1081 683 2 1.0280000001766980e+00 4.7300800581589929e+03 4.2000000000000000e+03 1.8540036929304808e+01 1.7144065594313282e+01 2.1623371783975056e+01 
583 185 2 1.0279999998801821e+00 -3.0461914537023740e+03 4.2000000000000000e+03 1.7545612508176546e+01 1.8908247469367119e+01 2.2808982613084144e+01 
1759 1361 2 1.0279999998801927e+00 -3.0461914550426918e+03 4.2000000000000000e+03 1.7545612506405735e+01 1.9091752937695659e+01 2.2808982627934636e+01 
1296 898 2 1.0280000000557052e+00 -2.0515005790334709e+02 4.2000000000000000e+03 1.8694795913553342e+01 1.6865169009890970e+01 2.3317938407623899e+01 
1293 895 2 1.0280000000557106e+00 -2.0515005829213013e+02 4.2000000000000000e+03 1.9305204223466202e+01 1.6865168934585210e+01 2.3317938235598490e+01 
1300 902 2 1.0280000001485097e+00 1.9130475547016636e+03 4.2000000000000000e+03 1.9695996680599915e+01 1.7403495360894564e+01 2.4776077115052985e+01 
1297 899 2 1.0280000001485050e+00 1.9130475548041145e+03 4.2000000000000000e+03 1.8304003587920569e+01 1.7403495336366696e+01 2.4776077343543736e+01 
1136 738 2 1.0279999999932734e+00 9.7612488903948088e+02 4.2000000000000000e+03 1.7581518718358065e+01 1.9250195662409567e+01 2.6745579839671972e+01 
1304 906 2 1.0279999999932330e+00 9.7612488891553653e+02 4.2000000000000000e+03 1.7581518709756107e+01 1.8749804315042223e+01 2.6745579841163938e+01 
1305 907 2 1.0279999999908205e+00 2.2445052044609506e+03 4.2000000000000000e+03 1.7560348944789833e+01 1.9029911173721441e+01 2.6764803854212239e+01 
1137 739 2 1.0279999999908334e+00 2.2445052044030272e+03 4.2000000000000000e+03 1.7560348941655416e+01 1.8970088778978585e+01 2.6764803849545483e+01 
666 268 2 1.0279994774526793e+00 -3.4095008210509463e+03 4.2000000000000000e+03 5.9754152659134119e-01 1.7901124499843419e+01 7.6457731362669989e+01 
662 264 2 1.0279993860313179e+00 -4.1821262884039825e+03 4.2000000000000000e+03 9.8820086882110947e-01 1.9746235040200183e+01 7.6558462378240947e+01 
1838 1440 2 1.0279993841016102e+00 -4.1821265613279857e+03 4.2000000000000000e+03 9.8817664557385443e-01 1.8255417105089052e+01 7.6558823581388964e+01 
870 472 2 1.0279997805391585e+00 -6.0298428098534559e+03 4.2000000000000000e+03 8.0355805375702671e-01 1.5628374314690600e+01 7.8629389394207351e+01 
498 100 2 1.0280001489990918e+00 2.8634655192018213e+03 4.2000000000000000e+03 5.6975886637074524e-01 1.5580943948297774e+01 7.9015141309934663e+01 
1021 623 2 1.0279990932390886e+00 3.2751650978536212e+01 4.2000000000000000e+03 1.2261240807145144e+00 1.7233948593891299e+01 7.7090703967629636e+01 
510 112 2 1.0279993110380750e+00 1.2830745422227578e+03 4.2000000000000000e+03 1.2862922725577182e+00 1.7015740907802495e+01 7.7694935961692764e+01 
578 180 2 1.0280006427807808e+00 -4.5316858277999963e+03 4.2000000000000000e+03 7.2603220590124673e-01 3.0572026309948647e-01 8.8736171010747796e+01 
1317 919 2 1.0280003655255110e+00 2.1100939177430778e+03 4.2000000000000000e+03 1.8856072149864726e+01 8.8587958932429545e-01 8.9399966946653450e+01 
1320 922 2 1.0280003668493785e+00 2.1100938402443676e+03 4.2000000000000000e+03 1.9142868659877209e+01 8.8536558715292157e-01 8.9399870050336020e+01 
748 350 2 1.0280005448977425e+00 8.5518308036540861e+02 4.2000000000000000e+03 1.8024474734743638e+01 2.7748185052720022e+00 8.9795934478561890e+01 
745 347 2 1.0280005372870118e+00 8.5518222403671894e+02 4.2000000000000000e+03 1.9976357853943171e+01 2.7758665372073477e+00 8.9793041864478795e+01 
1938 1540 2 1.0280008053352554e+00 3.2504618835080441e+03 4.2000000000000000e+03 1.7477164690310794e+01 5.0840164924487858e+00 8.9710775768049189e+01 
1916 1518 2 1.0280003028715969e+00 2.3817372063822900e+03 4.2000000000000000e+03 1.6941031944212664e+01 5.6368649931776673e+00 8.9694039617014639e+01 
1141 743 2 1.0279997778046583e+00 -1.7765697481877797e+02 4.2000000000000000e+03 1.7881150431203025e+01 6.5139440143544896e+00 8.9351990293423356e+01 
1321 923 2 1.0279998086863547e+00 1.5654586768911124e+03 4.2000000000000000e+03 1.6912544575034808e+01 6.7127093496917238e+00 8.9597592192842498e+01 
1123 725 2 1.0280013943284596e+00 -5.0259903476842992e+03 4.2000000000000000e+03 1.7324508717020322e+00 1.1803251754019820e+01 8.8743733546422732e+01 
429 31 2 1.0279994342563583e+00 2.7490434747445584e+03 4.2000000000000000e+03 2.3620223665918227e+00 1.1259871413096786e+01 8.9086064402851889e+01 
590 192 2 1.0279993538360537e+00 -3.0989183806320293e+03 4.2000000000000000e+03 2.6275875538428588e+00 1.1190874896476380e+01 8.9343534686092198e+01 
442 44 2 1.0279990818749360e+00 2.1168508266715762e+03 4.2000000000000000e+03 1.6923077336169920e+00 1.0175356528795032e+01 8.9486248057741193e+01 
1519 1121 2 1.0280012495613513e+00 2.4778556477549193e+02 4.2000000000000000e+03 9.2470609260620010e-06 1.3060309551984000e+01 8.9626723166309390e+01 
1970 1572 2 1.0280018889030735e+00 1.0428252261834552e+03 4.2000000000000000e+03 1.2353245346394507e+01 1.5377264261978352e+01 8.9814106171255474e+01 
937 539 2 1.0280025887191322e+00 1.6882234196265219e+03 4.2000000000000000e+03 1.2620017467995210e+01 1.5256317071469903e+01 8.9854325641074340e+01 
1600 1202 2 1.0279992784439946e+00 2.0656813322477192e+03 4.2000000000000000e+03 1.5060583584438714e+01 1.6496646477253165e+01 8.8433609433094034e+01 
420 22 2 1.0280009230632974e+00 3.9671767124873491e+03 4.2000000000000000e+03 1.4103732178109297e+01 1.6558869676379754e+01 8.8397481425630417e+01 
749 351 2 1.0279997336522737e+00 1.7350912579816084e+03 4.2000000000000000e+03 1.6630191912859548e+01 1.5165631097147530e+01 8.8941836702417362e+01 
782 384 2 1.0280001238910501e+00 -4.1704632276947459e+03 4.2000000000000000e+03 1.4589237049153219e+01 1.6655649767184631e+01 8.8393308225913898e+01 
1831 1433 2 1.0279980458759581e+00 -2.7898271416523394e+03 4.2000000000000000e+03 1.9134237656410537e+01 1.5882992624317295e+01 8.8817359486055494e+01 
1830 1432 2 1.0279980459761384e+00 -2.7898270799337029e+03 4.2000000000000000e+03 1.8864815147536749e+01 1.5882759944678561e+01 8.8817157472972724e+01 
478 80 2 1.0279995754125055e+00 2.0642360239250334e+03 4.2000000000000000e+03 1.7037922275663185e+01 1.5290004016872492e+01 8.8695972880801435e+01 
1621 1223 2 1.0280001689122220e+00 1.6355797321044156e+03 4.2000000000000000e+03 1.7398926898602458e+01 1.4756058306426365e+01 8.9146596582680232e+01 
704 306 2 1.0279989376948691e+00 3.4220084161633176e+03 4.2000000000000000e+03 6.8553991682518181e+00 1.7367407879345606e+01 8.9978392476968139e+01 
846 448 2 1.0280004141041958e+00 -6.3360917016046415e+03 4.2000000000000000e+03 7.7694419685799554e+00 1.6901088793095703e+01 8.9760854159975693e+01 
617 219 2 1.0279980316810211e+00 3.0396149725325668e+03 4.2000000000000000e+03 1.1778631304302738e+01 1.6952836233914567e+01 8.9839606955525014e+01 
1130 732 2 1.0279979204018512e+00 -5.8307537681802060e+03 4.2000000000000000e+03 1.1762232077437471e+01 1.6956344600176180e+01 8.9875308972432009e+01 
962 564 2 1.0279997031021308e+00 -1.2977938893973446e+03 4.2000000000000000e+03 1.2866496024617097e+01 1.7414002871407988e+01 8.8921319240833668e+01 
633 235 2 1.0279986189402535e+00 2.1407859473128860e+03 4.2000000000000000e+03 1.5356990208142900e+01 1.8118063686015326e+01 8.9098102150504303e+01 
1809 1411 2 1.0279986243386177e+00 2.1407842642396217e+03 4.2000000000000000e+03 1.5356951697746393e+01 1.9881045964307457e+01 8.9097832051604556e+01 
845 447 2 1.0279966808991075e+00 1.2756824552512428e+03 4.2000000000000000e+03 1.3422071060566392e+00 7.8622520883277602e-01 9.0184886709076565e+01 
878 480 2 1.0279967380864448e+00 -5.2546817246129322e+03 4.2000000000000000e+03 2.0746210097712803e+00 8.8253596560766012e-01 9.1776997586905225e+01 
718 320 2 1.0279978056620744e+00 -3.1021054168671626e+03 4.2000000000000000e+03 1.5465154437535185e+00 1.7245886670581658e+00 9.1755187116316350e+01 
742 344 2 1.0280008907479317e+00 -6.5085685850926329e+03 4.2000000000000000e+03 5.3622748461455672e+00 7.5206385542865600e-02 9.1040864545728013e+01 
1430 1032 2 1.0280030083301510e+00 -3.7454358915235148e+03 4.2000000000000000e+03 4.3305282370906788e+00 2.4565636008630722e+00 9.2472543033643248e+01 
1034 636 2 1.0280039192565655e+00 5.8391191849050961e+02 4.2000000000000000e+03 4.0479350127367040e+00 2.3736557401319880e+00 9.2352889187749881e+01 
907 509 2 1.0280006585076533e+00 1.3710066323034350e+03 4.2000000000000000e+03 5.8995045935691417e+00 1.4281992860322271e-01 9.0816313305534521e+01 
1967 1569 2 1.0280012679860326e+00 1.2201622008400725e+03 4.2000000000000000e+03 3.5161828783253122e+00 3.1417149645944464e+00 9.2186250013905365e+01 
1500 1102 2 1.0280030297499216e+00 2.0719114181891318e+03 4.2000000000000000e+03 6.5948175784839140e+00 1.5471432435052530e+00 9.2487119271993251e+01 
576 178 2 1.0280005051717676e+00 2.1626191841194000e+03 4.2000000000000000e+03 8.1011843762908082e+00 6.2304551129611274e-01 9.1363542388630179e+01 
615 217 2 1.0280072882716509e+00 -3.7267177850851494e+03 4.2000000000000000e+03 9.7072738980203699e+00 2.7025783594661457e+00 9.2674352820171123e+01 
1801 1403 2 1.0280008176933941e+00 6.1253855563427860e+03 4.2000000000000000e+03 1.1235570531073371e+01 2.9170809056073352e+00 9.2405606477525851e+01 
585 187 2 1.0279996280756181e+00 6.0842503766828872e+02 4.2000000000000000e+03 1.2299246580164189e+01 1.6636356471121669e+00 9.1441166378068274e+01 
1595 1197 2 1.0279993690363443e+00 -5.0823316167926087e+03 4.2000000000000000e+03 1.3194764007741639e+01 1.7870750850540196e+00 9.1169783250672637e+01 
966 568 2 1.0279978392844167e+00 -2.0561619591982499e+03 4.2000000000000000e+03 1.0263293568559664e+01 1.8751299728613642e+00 9.3173312774427274e+01 
1109 711 2 1.0279996684425639e+00 1.4797188120347951e+03 4.2000000000000000e+03 1.5087684608380496e+01 1.2472679855958810e+00 9.0974725444631034e+01 
610 212 2 1.0279996604590753e+00 -2.9387547824091052e+03 4.2000000000000000e+03 1.5062184703726670e+01 1.3208465536668454e+00 9.0977002356802998e+01 
1946 1548 2 1.0279992993975950e+00 2.3413327375780268e+03 4.2000000000000000e+03 1.3854825159222274e+01 1.3670006263815775e+00 9.0902861155740084e+01 
462 64 2 1.0280020666504317e+00 2.3078901336382855e+03 4.2000000000000000e+03 1.5844117225904959e+01 6.4941101373756627e-01 9.2617325990585911e+01 
958 560 2 1.0279994609361396e+00 -5.2356725254626724e+02 4.2000000000000000e+03 1.6592693622742207e+01 3.1601363332375989e+00 9.2989768375321518e+01 
598 200 2 1.0279998393630407e+00 -4.5370458845193425e+03 4.2000000000000000e+03 1.7445201268146167e+01 2.2702556270277490e+00 9.0079833208511189e+01 
1593 1195 2 1.0280004941128633e+00 1.6111580073291050e+03 4.2000000000000000e+03 1.7667407038112675e+01 4.5266413963337709e-01 9.0183831737529829e+01 
2001 1603 2 1.0280008027462915e+00 4.7120116122112731e+03 4.2000000000000000e+03 1.8954818344963332e+01 2.4241305431307194e+00 9.3203080399153777e+01 
2004 1606 2 1.0279991928070544e+00 4.7120112555468504e+03 4.2000000000000000e+03 1.9053391506602708e+01 2.4246830422787191e+00 9.3202060145016674e+01 
547 149 2 1.0279955313532427e+00 3.9950706784443519e+03 4.2000000000000000e+03 7.0801547183221014e-01 3.4645184101957032e+00 9.1374576563523334e+01 
542 144 2 1.0280004762210957e+00 2.4539369841126377e+03 4.2000000000000000e+03 6.0911003230269756e-01 5.1315602380471876e+00 9.1105063679447753e+01 
540 142 2 1.0280004165780463e+00 2.3567677552655691e+03 4.2000000000000000e+03 4.5961346267694381e-01 6.1603901725077197e+00 9.0689270190785876e+01 
525 127 2 1.0280017430527453e+00 2.4420681061751811e+03 4.2000000000000000e+03 3.0168895619574005e+00 4.6960496456150009e+00 9.3056070420542866e+01 
2013 1615 2 1.0280013234205663e+00 4.0709390896734294e+03 4.2000000000000000e+03 3.0334211731994958e+00 4.7161691919811650e+00 9.3090714284224177e+01 
529 131 2 1.0280030436617869e+00 3.1453022831501967e+03 4.2000000000000000e+03 6.1614645456123096e+00 4.9063578852614143e+00 9.2889369323215746e+01 