LAMMPS data file via write_data, version 30 Jul 2016, timestep = 1000000

2080 atoms
8 atom types

0.0000000000000000e+00 4.0000000000000000e+01 xlo xhi
0.0000000000000000e+00 4.0000000000000000e+01 ylo yhi
0.0000000000000000e+00 1.0000000000000000e+02 zlo zhi

Masses

1 3.896
2 21.44
3 1058.08
4 8.378
5 8.378
6 8.378
7 8.378
8 8.378

Atoms # meso-molecular

1 2 4 2.2559723595316457e+00 5.6993865465426182e+01 4.2000000000000000e+03 0.0000000000000000e+00 0.0000000000000000e+00 2.5000000000000000e+00 
2 2 4 2.2559723595316457e+00 1.5219493567386071e+01 4.2000000000000000e+03 0.0000000000000000e+00 2.0000000000000000e+00 2.5000000000000000e+00 
3 2 4 2.2559723595316457e+00 -5.9805336354078262e+00 4.2000000000000000e+03 0.0000000000000000e+00 4.0000000000000000e+00 2.5000000000000000e+00 
4 2 4 2.2559723595316457e+00 -9.6107865051815551e+01 4.2000000000000000e+03 0.0000000000000000e+00 6.0000000000000000e+00 2.5000000000000000e+00 
21 2 4 2.2559723596304861e+00 2.6118772530521394e+01 4.2000000000000000e+03 2.0000000000000000e+00 0.0000000000000000e+00 2.5000000000000000e+00 
22 2 4 2.2559723595316457e+00 -5.2195524781982002e+01 4.2000000000000000e+03 2.0000000000000000e+00 2.0000000000000000e+00 2.5000000000000000e+00 
23 2 4 2.2559723595316457e+00 -6.3998895578827792e+01 4.2000000000000000e+03 2.0000000000000000e+00 4.0000000000000000e+00 2.5000000000000000e+00 
24 2 4 2.2559723595316457e+00 -1.2194546359700739e+02 4.2000000000000000e+03 2.0000000000000000e+00 6.0000000000000000e+00 2.5000000000000000e+00 
41 2 4 2.2559723596246926e+00 -7.0757745934024285e+01 4.2000000000000000e+03 4.0000000000000000e+00 0.0000000000000000e+00 2.5000000000000000e+00 
42 2 4 2.2559723595316457e+00 -1.9833804482613397e+02 4.2000000000000000e+03 4.0000000000000000e+00 2.0000000000000000e+00 2.5000000000000000e+00 
43 2 4 2.2559723595316457e+00 -2.2122116552982158e+02 4.2000000000000000e+03 4.0000000000000000e+00 4.0000000000000000e+00 2.5000000000000000e+00 
44 2 4 2.2559723595316457e+00 -1.2427168189236642e+02 4.2000000000000000e+03 4.0000000000000000e+00 6.0000000000000000e+00 2.5000000000000000e+00 
61 2 4 2.2559723595316457e+00 -1.6889092028062407e+02 4.2000000000000000e+03 6.0000000000000000e+00 0.0000000000000000e+00 2.5000000000000000e+00 
62 2 4 2.2559723595316457e+00 -2.1577341136718246e+02 4.2000000000000000e+03 6.0000000000000000e+00 2.0000000000000000e+00 2.5000000000000000e+00 
63 2 4 2.2559723595316457e+00 -1.8065777881357357e+02 4.2000000000000000e+03 6.0000000000000000e+00 4.0000000000000000e+00 2.5000000000000000e+00 
64 2 4 2.2559723595316457e+00 -3.5555009444203563e+01 4.2000000000000000e+03 6.0000000000000000e+00 6.0000000000000000e+00 2.5000000000000000e+00 
81 2 4 2.2559723597742232e+00 -1.8417929644464078e+02 4.2000000000000000e+03 8.0000000000000000e+00 0.0000000000000000e+00 2.5000000000000000e+00 
82 2 4 2.2559723595316465e+00 -1.9423457997579177e+01 4.2000000000000000e+03 8.0000000000000000e+00 2.0000000000000000e+00 2.5000000000000000e+00 
83 2 4 2.2559723595316457e+00 9.0113054499540908e+01 4.2000000000000000e+03 8.0000000000000000e+00 4.0000000000000000e+00 2.5000000000000000e+00 
84 2 4 2.2559723595316457e+00 1.3521922270577380e+02 4.2000000000000000e+03 8.0000000000000000e+00 6.0000000000000000e+00 2.5000000000000000e+00 
101 2 4 2.2559723595316457e+00 -8.0010541671338473e+01 4.2000000000000000e+03 1.0000000000000000e+01 0.0000000000000000e+00 2.5000000000000000e+00 
102 2 4 2.2559723595316457e+00 1.4916428488759522e+02 4.2000000000000000e+03 1.0000000000000000e+01 2.0000000000000000e+00 2.5000000000000000e+00 
103 2 4 2.2559723595316457e+00 2.5912872702242373e+02 4.2000000000000000e+03 1.0000000000000000e+01 4.0000000000000000e+00 2.5000000000000000e+00 
104 2 4 2.2559723595316457e+00 1.0979340388638323e+02 4.2000000000000000e+03 1.0000000000000000e+01 6.0000000000000000e+00 2.5000000000000000e+00 
121 2 4 2.2559723595316457e+00 1.4333987246321442e+02 4.2000000000000000e+03 1.2000000000000000e+01 0.0000000000000000e+00 2.5000000000000000e+00 
122 2 4 2.2559723595316457e+00 2.4575200599314016e+02 4.2000000000000000e+03 1.2000000000000000e+01 2.0000000000000000e+00 2.5000000000000000e+00 
123 2 4 2.2559723595316457e+00 2.9115295420952589e+02 4.2000000000000000e+03 1.2000000000000000e+01 4.0000000000000000e+00 2.5000000000000000e+00 
124 2 4 2.2559723595316457e+00 6.8017782164802071e+01 4.2000000000000000e+03 1.2000000000000000e+01 6.0000000000000000e+00 2.5000000000000000e+00 
141 2 4 2.2559723595316457e+00 3.4906577879573683e+02 4.2000000000000000e+03 1.4000000000000000e+01 0.0000000000000000e+00 2.5000000000000000e+00 
142 2 4 2.2559723595316457e+00 2.2104490008782557e+02 4.2000000000000000e+03 1.4000000000000000e+01 2.0000000000000000e+00 2.5000000000000000e+00 
143 2 4 2.2559723595316457e+00 2.6835175287224365e+02 4.2000000000000000e+03 1.4000000000000000e+01 4.0000000000000000e+00 2.5000000000000000e+00 
144 2 4 2.2559723595316457e+00 -4.7258036829172420e+02 4.2000000000000000e+03 1.4000000000000000e+01 6.0000000000000000e+00 2.5000000000000000e+00 
161 2 4 2.2559723595316457e+00 4.2503564513549509e+02 4.2000000000000000e+03 1.6000000000000000e+01 0.0000000000000000e+00 2.5000000000000000e+00 
162 2 4 2.2559723595316457e+00 2.3385430249228364e+02 4.2000000000000000e+03 1.6000000000000000e+01 2.0000000000000000e+00 2.5000000000000000e+00 
163 2 4 2.2559723595316457e+00 4.2095304903188816e+02 4.2000000000000000e+03 1.6000000000000000e+01 4.0000000000000000e+00 2.5000000000000000e+00 
164 2 4 2.2559723595316457e+00 -1.5359908101356798e+03 4.2000000000000000e+03 1.6000000000000000e+01 6.0000000000000000e+00 2.5000000000000000e+00 
181 2 4 2.2559723595316457e+00 3.2750987972228143e+02 4.2000000000000000e+03 1.8000000000000000e+01 0.0000000000000000e+00 2.5000000000000000e+00 
182 2 4 2.2559723595316457e+00 3.3494837754308855e+02 4.2000000000000000e+03 1.8000000000000000e+01 2.0000000000000000e+00 2.5000000000000000e+00 
183 2 4 2.2559723596091343e+00 6.7466265735685442e+02 4.2000000000000000e+03 1.8000000000000000e+01 4.0000000000000000e+00 2.5000000000000000e+00 
184 2 4 2.2559723596102055e+00 -2.1739325590240505e+03 4.2000000000000000e+03 1.8000000000000000e+01 6.0000000000000000e+00 2.5000000000000000e+00 
5 2 4 2.2559723595316457e+00 -1.8834790378592757e+02 4.2000000000000000e+03 0.0000000000000000e+00 8.0000000000000000e+00 2.5000000000000000e+00 
6 2 4 2.2559723595316457e+00 -8.2586804354262412e+01 4.2000000000000000e+03 0.0000000000000000e+00 1.0000000000000000e+01 2.5000000000000000e+00 
7 2 4 2.2559723596159542e+00 3.5765223240655382e+00 4.2000000000000000e+03 0.0000000000000000e+00 1.2000000000000000e+01 2.5000000000000000e+00 
25 2 4 2.2559723595316457e+00 -2.1484342280849950e+02 4.2000000000000000e+03 2.0000000000000000e+00 8.0000000000000000e+00 2.5000000000000000e+00 
26 2 4 2.2559723595316457e+00 -1.1574692488347006e+02 4.2000000000000000e+03 2.0000000000000000e+00 1.0000000000000000e+01 2.5000000000000000e+00 
27 2 4 2.2559723595316457e+00 -5.8317142684054577e+00 4.2000000000000000e+03 2.0000000000000000e+00 1.2000000000000000e+01 2.5000000000000000e+00 
45 2 4 2.2559723595316457e+00 -5.5416692303308707e+01 4.2000000000000000e+03 4.0000000000000000e+00 8.0000000000000000e+00 2.5000000000000000e+00 
46 2 4 2.2559723595432963e+00 8.7527974834513941e+01 4.2000000000000000e+03 4.0000000000000000e+00 1.0000000000000000e+01 2.5000000000000000e+00 
47 2 4 2.2559723595316457e+00 2.6044844833065429e+02 4.2000000000000000e+03 4.0000000000000000e+00 1.2000000000000000e+01 2.5000000000000000e+00 
65 2 4 2.2559723595316457e+00 2.8294575164723449e+02 4.2000000000000000e+03 6.0000000000000000e+00 8.0000000000000000e+00 2.5000000000000000e+00 
66 2 4 2.2559723596069223e+00 5.8356575800359042e+02 4.2000000000000000e+03 6.0000000000000000e+00 1.0000000000000000e+01 2.5000000000000000e+00 
67 2 4 2.2559723595316457e+00 8.7522813284436506e+02 4.2000000000000000e+03 6.0000000000000000e+00 1.2000000000000000e+01 2.5000000000000000e+00 
85 2 4 2.2559723597029651e+00 3.4658314768104265e+02 4.2000000000000000e+03 8.0000000000000000e+00 8.0000000000000000e+00 2.5000000000000000e+00 
86 2 4 2.2559723599704253e+00 6.0572899497923208e+02 4.2000000000000000e+03 8.0000000000000000e+00 1.0000000000000000e+01 2.5000000000000000e+00 
87 2 4 2.2559723595316457e+00 8.0069827847730312e+02 4.2000000000000000e+03 8.0000000000000000e+00 1.2000000000000000e+01 2.5000000000000000e+00 
105 2 4 2.2559723595316457e+00 -6.2850964254348405e+01 4.2000000000000000e+03 1.0000000000000000e+01 8.0000000000000000e+00 2.5000000000000000e+00 
106 2 4 2.2559723595316457e+00 -1.3234363339130405e+02 4.2000000000000000e+03 1.0000000000000000e+01 1.0000000000000000e+01 2.5000000000000000e+00 
107 2 4 2.2559723595316457e+00 -1.1054736609374680e+02 4.2000000000000000e+03 1.0000000000000000e+01 1.2000000000000000e+01 2.5000000000000000e+00 
125 2 4 2.2559723595900079e+00 -1.0311547447834075e+03 4.2000000000000000e+03 1.2000000000000000e+01 8.0000000000000000e+00 2.5000000000000000e+00 
126 2 4 2.2559723595316457e+00 -2.6281655869196602e+03 4.2000000000000000e+03 1.2000000000000000e+01 1.0000000000000000e+01 2.5000000000000000e+00 
127 2 4 2.2559723595438430e+00 -3.4351216753781559e+03 4.2000000000000000e+03 1.2000000000000000e+01 1.2000000000000000e+01 2.5000000000000000e+00 
145 2 4 2.2559723598051939e+00 -4.2945003831140975e+03 4.2000000000000000e+03 1.4000000000000000e+01 8.0000000000000000e+00 2.5000000000000000e+00 
146 2 4 2.2559723595316452e+00 -1.0137523868353279e+04 4.2000000000000000e+03 1.4000000000000000e+01 1.0000000000000000e+01 2.5000000000000000e+00 
147 2 4 2.2559723595890397e+00 -1.3829623919308431e+04 4.2000000000000000e+03 1.4000000000000000e+01 1.2000000000000000e+01 2.5000000000000000e+00 
165 2 4 2.2559723595316457e+00 -9.7835515842116547e+03 4.2000000000000000e+03 1.6000000000000000e+01 8.0000000000000000e+00 2.5000000000000000e+00 
166 2 4 2.2559723596681844e+00 -2.2332525755566934e+04 4.2000000000000000e+03 1.6000000000000000e+01 1.0000000000000000e+01 2.5000000000000000e+00 
167 2 4 2.2559723595316457e+00 -3.1108823463584911e+04 4.2000000000000000e+03 1.6000000000000000e+01 1.2000000000000000e+01 2.5000000000000000e+00 
185 2 4 2.2559723595383181e+00 -1.3832637818142246e+04 4.2000000000000000e+03 1.8000000000000000e+01 8.0000000000000000e+00 2.5000000000000000e+00 
186 2 4 2.2559723595316457e+00 -3.1730260044788483e+04 4.2000000000000000e+03 1.8000000000000000e+01 1.0000000000000000e+01 2.5000000000000000e+00 
187 2 4 2.2559723595316457e+00 -4.4588235525245858e+04 4.2000000000000000e+03 1.8000000000000000e+01 1.2000000000000000e+01 2.5000000000000000e+00 
8 2 4 2.2559723595316457e+00 -6.3538529986868966e+01 4.2000000000000000e+03 0.0000000000000000e+00 1.4000000000000000e+01 2.5000000000000000e+00 
9 2 4 2.2559723595316457e+00 -6.4859404808616284e+02 4.2000000000000000e+03 0.0000000000000000e+00 1.6000000000000000e+01 2.5000000000000000e+00 
10 2 4 2.2559723595316457e+00 -1.5822312061017610e+03 4.2000000000000000e+03 0.0000000000000000e+00 1.8000000000000000e+01 2.5000000000000000e+00 
28 2 4 2.2559723595316457e+00 -5.7166181682478388e+01 4.2000000000000000e+03 2.0000000000000000e+00 1.4000000000000000e+01 2.5000000000000000e+00 
29 2 4 2.2559723595394057e+00 -6.8687518186769614e+02 4.2000000000000000e+03 2.0000000000000000e+00 1.6000000000000000e+01 2.5000000000000000e+00 
30 2 4 2.2559723595316457e+00 -1.3795413946447613e+03 4.2000000000000000e+03 2.0000000000000000e+00 1.8000000000000000e+01 2.5000000000000000e+00 
48 2 4 2.2559723595316457e+00 3.8887233272924198e+02 4.2000000000000000e+03 4.0000000000000000e+00 1.4000000000000000e+01 2.5000000000000000e+00 
49 2 4 2.2559723595316457e+00 -4.5301372826448855e+01 4.2000000000000000e+03 4.0000000000000000e+00 1.6000000000000000e+01 2.5000000000000000e+00 
50 2 4 2.2559723595726666e+00 -7.7237644193343044e+02 4.2000000000000000e+03 4.0000000000000000e+00 1.8000000000000000e+01 2.5000000000000000e+00 
68 2 4 2.2559723595316457e+00 1.0601640069343380e+03 4.2000000000000000e+03 6.0000000000000000e+00 1.4000000000000000e+01 2.5000000000000000e+00 
69 2 4 2.2559723595316457e+00 7.1336254284384472e+02 4.2000000000000000e+03 6.0000000000000000e+00 1.6000000000000000e+01 2.5000000000000000e+00 
70 2 4 2.2559723595316457e+00 1.2472830088701022e+02 4.2000000000000000e+03 6.0000000000000000e+00 1.8000000000000000e+01 2.5000000000000000e+00 
88 2 4 2.2559723595316457e+00 8.8646308118338152e+02 4.2000000000000000e+03 8.0000000000000000e+00 1.4000000000000000e+01 2.5000000000000000e+00 
89 2 4 2.2559723595323522e+00 4.8567608045339091e+02 4.2000000000000000e+03 8.0000000000000000e+00 1.6000000000000000e+01 2.5000000000000000e+00 
90 2 4 2.2559723595439651e+00 6.3557251763265626e+01 4.2000000000000000e+03 8.0000000000000000e+00 1.8000000000000000e+01 2.5000000000000000e+00 
108 2 4 2.2559723595316457e+00 -7.6899882057397036e+01 4.2000000000000000e+03 1.0000000000000000e+01 1.4000000000000000e+01 2.5000000000000000e+00 
109 2 4 2.2559723595316457e+00 -2.2525472489101935e+02 4.2000000000000000e+03 1.0000000000000000e+01 1.6000000000000000e+01 2.5000000000000000e+00 
110 2 4 2.2559723595456234e+00 -3.9625844008971143e+02 4.2000000000000000e+03 1.0000000000000000e+01 1.8000000000000000e+01 2.5000000000000000e+00 
128 2 4 2.2559723595316457e+00 -3.2734728820692535e+03 4.2000000000000000e+03 1.2000000000000000e+01 1.4000000000000000e+01 2.5000000000000000e+00 
129 2 4 2.2559723595316457e+00 -3.1396141335301163e+03 4.2000000000000000e+03 1.2000000000000000e+01 1.6000000000000000e+01 2.5000000000000000e+00 
130 2 4 2.2559723595316457e+00 -3.2440400143111901e+03 4.2000000000000000e+03 1.2000000000000000e+01 1.8000000000000000e+01 2.5000000000000000e+00 
148 2 4 2.2559723595316457e+00 -1.4198094686988967e+04 4.2000000000000000e+03 1.4000000000000000e+01 1.4000000000000000e+01 2.5000000000000000e+00 
149 2 4 2.2559723595332235e+00 -1.4220419100185494e+04 4.2000000000000000e+03 1.4000000000000000e+01 1.6000000000000000e+01 2.5000000000000000e+00 
150 2 4 2.2559723596050212e+00 -1.4831578118783349e+04 4.2000000000000000e+03 1.4000000000000000e+01 1.8000000000000000e+01 2.5000000000000000e+00 
168 2 4 2.2559723595316457e+00 -3.3218931197888007e+04 4.2000000000000000e+03 1.6000000000000000e+01 1.4000000000000000e+01 2.5000000000000000e+00 
169 2 4 2.2559723595937786e+00 -3.3675546549186336e+04 4.2000000000000000e+03 1.6000000000000000e+01 1.6000000000000000e+01 2.5000000000000000e+00 
170 2 4 2.2559723600195309e+00 -3.4639614527827514e+04 4.2000000000000000e+03 1.6000000000000000e+01 1.8000000000000000e+01 2.5000000000000000e+00 
188 2 4 2.2559723595316457e+00 -4.7692037629723818e+04 4.2000000000000000e+03 1.8000000000000000e+01 1.4000000000000000e+01 2.5000000000000000e+00 
189 2 4 2.2559723595316457e+00 -4.8197890473471591e+04 4.2000000000000000e+03 1.8000000000000000e+01 1.6000000000000000e+01 2.5000000000000000e+00 
190 2 4 2.2559723595416505e+00 -4.9216770734040256e+04 4.2000000000000000e+03 1.8000000000000000e+01 1.8000000000000000e+01 2.5000000000000000e+00 
479 81 2 1.0280018800332897e+00 2.3895783881455657e+05 4.2000000000000000e+03 1.6212617284313399e+01 5.3743043559991968e+00 7.1765548608657596e+01 
665 267 2 1.0280011680068211e+00 1.5903018624062528e+05 4.2000000000000000e+03 1.6247009540332790e+01 5.6526371082577498e+00 7.1702248097482411e+01 
1334 936 2 1.0280006872938858e+00 -4.9429553761067835e+05 4.2000000000000000e+03 1.6187136572952774e+01 4.0778094981340169e+00 7.0250150077548028e+01 
666 268 2 1.0280007447089421e+00 -1.8804622203191445e+05 4.2000000000000000e+03 1.6212743112175477e+01 3.8998250843186750e+00 7.0196017552145790e+01 
1529 1131 2 1.0280015429739224e+00 1.6188207347819218e+05 4.2000000000000000e+03 1.6487506291944804e+01 2.6180954333829232e+00 6.9664290807870344e+01 
488 90 2 1.0280115487394623e+00 2.7892392265588226e+05 4.2000000000000000e+03 1.6974964203066008e+01 1.3853687525905716e+00 6.9393530313601573e+01 
523 125 2 1.0280005870279147e+00 3.3815287033849064e+05 4.2000000000000000e+03 1.9481962508147074e+01 6.5985770745231020e+00 6.9109312038160624e+01 
1861 1463 2 1.0280017100451526e+00 1.8293970214419722e+05 4.2000000000000000e+03 1.6646196527922832e+01 1.4983030550718013e+00 6.8800533468155592e+01 
1300 902 2 1.0280006688607068e+00 -1.6354117829618822e+03 4.2000000000000000e+03 1.9374904109051954e+01 6.3819217118550560e+00 6.8852802106694796e+01 
1438 1040 2 1.0280008851315907e+00 -2.4493843498427639e+05 4.2000000000000000e+03 1.8931379215786993e+01 6.4607152989779211e+00 6.8716451526576222e+01 
1292 894 2 1.0280004045226809e+00 -7.8805094580167697e+03 4.2000000000000000e+03 1.9725106176653419e+01 6.3582644618545210e+00 6.9155471407098162e+01 
1138 740 2 1.0280003625375471e+00 -4.5570434551924269e+05 4.2000000000000000e+03 1.9722736856350885e+01 6.1647045798953961e+00 6.9024968343643309e+01 
660 262 2 1.0279994157609067e+00 2.9477486478037020e+05 4.2000000000000000e+03 1.8592149810446646e+01 4.1058960728521150e+00 6.7427032003954821e+01 
842 444 2 1.0279988868370884e+00 -3.0302904964928434e+05 4.2000000000000000e+03 1.8575792849849158e+01 3.8598470150759203e+00 6.7377027606085448e+01 
901 503 2 1.0279981771536466e+00 6.3944093350753793e+05 4.2000000000000000e+03 1.8516990116659898e+01 3.5557976764137669e+00 6.7314543918555174e+01 
1737 1339 2 1.0279950318300251e+00 3.3429367827716074e+05 4.2000000000000000e+03 1.8377881455133426e+01 2.5760607117457703e+00 6.7187583455309039e+01 
1681 1283 2 1.0279916499399351e+00 4.6867428981790683e+04 4.2000000000000000e+03 1.8302634822661560e+01 1.8811666529619357e+00 6.7131134909108809e+01 
1936 1538 2 1.0279904197067125e+00 2.1296244589537889e+05 4.2000000000000000e+03 1.8279949026084491e+01 1.6681254333895434e+00 6.7111915000632550e+01 
1516 1118 2 1.0280002499096168e+00 1.1136165676919743e+05 4.2000000000000000e+03 1.9711510066222274e+01 6.9840506200082642e+00 6.9627922532402138e+01 
1564 1166 2 1.0280015752285856e+00 -2.2404207449576250e+04 4.2000000000000000e+03 1.2241235233065209e-02 3.2256411597421262e+00 7.2320851207455121e+01 
1694 1296 2 1.0280030226776091e+00 -1.6424363754741446e+05 4.2000000000000000e+03 6.1175868119568733e-01 1.7107156811518307e+00 7.3040831526509052e+01 
930 532 2 1.0280008318051919e+00 -2.9442677720069722e+05 4.2000000000000000e+03 2.3985212845008226e+00 4.0643777373258816e+00 7.3201708779557890e+01 
931 533 2 1.0280003129775890e+00 -2.7386229240999796e+05 4.2000000000000000e+03 2.2811355923745689e+00 4.7539061445826372e+00 7.3389441837187746e+01 
1338 940 2 1.0280004023293472e+00 -4.6836740533914044e+05 4.2000000000000000e+03 2.4826480507902686e+00 4.7579895685840130e+00 7.3438803620197234e+01 
1521 1123 2 1.0280030841203018e+00 8.7968223674053210e+04 4.2000000000000000e+03 5.3363260823782177e-01 1.3890730759808039e+00 7.3375758799658954e+01 
1878 1480 2 1.0279999171969554e+00 -2.5344325796215551e+05 4.2000000000000000e+03 1.0000063582681722e+00 5.3672015494413872e+00 7.3788652400303349e+01 
1249 851 2 1.0280005020317005e+00 1.4245859355889651e+05 4.2000000000000000e+03 5.1912064629071590e+00 1.8421007564363010e+00 7.3533462452995678e+01 
1485 1087 2 1.0280007623652379e+00 9.1273889932156031e+04 4.2000000000000000e+03 6.6131570859490313e-02 5.3685656460578182e+00 7.4602712450790378e+01 
1312 914 2 1.0280009112035839e+00 2.5440764683884849e+04 4.2000000000000000e+03 5.0244926758751189e-02 5.6104035705727124e+00 7.5294841814452212e+01 
1087 689 2 1.0280033043765378e+00 -4.8353269365079189e+05 4.2000000000000000e+03 4.8787477517120559e+00 4.3053942342561546e+00 7.4226866838413727e+01 
1347 949 2 1.0280000573853851e+00 -2.6572442717604473e+05 4.2000000000000000e+03 3.0833307760802140e+00 1.2599036594057786e-01 7.5248780152939190e+01 
686 288 2 1.0279984248509444e+00 -3.1240598483750591e+05 4.2000000000000000e+03 1.3159746021266157e+00 2.3365481708487734e-02 7.5831402255837631e+01 
525 127 2 1.0279978660120022e+00 2.5305167283171529e+05 4.2000000000000000e+03 5.9782675045836848e+00 5.4653633547965743e+00 7.7553232051132255e+01 
1579 1181 2 1.0280015386391785e+00 1.8074161662456006e+05 4.2000000000000000e+03 4.9993782427618108e+00 6.2869806388514373e+00 7.5376317545615279e+01 
1920 1522 2 1.0280011680777985e+00 4.5190048925436579e+05 4.2000000000000000e+03 1.4387978259643946e-01 6.1470423809300323e+00 7.6207958618343923e+01 
1047 649 2 1.0280000002567402e+00 -3.8470186226890929e+05 4.2000000000000000e+03 3.1803583793372492e-01 6.0355272209861619e+00 7.7342130057232893e+01 
1713 1315 2 1.0280027612489717e+00 3.4640727826030467e+04 4.2000000000000000e+03 6.3141525258568709e+00 5.0533300252211184e+00 7.4757404184613051e+01 
1241 843 2 1.0280025052883393e+00 3.5653489146109961e+05 4.2000000000000000e+03 6.3701371057188529e+00 3.9027608199375412e+00 7.4505403060738686e+01 
1707 1309 2 1.0279970750162000e+00 -3.4391199675059417e+05 4.2000000000000000e+03 6.6916391084035478e+00 1.4186741892835297e+00 7.3147627042546091e+01 
1874 1476 2 1.0280002156588579e+00 -2.1302129976030925e+05 4.2000000000000000e+03 1.0208101256924330e+01 2.4927200930678186e+00 7.5089434339000917e+01 
1421 1023 2 1.0280017706215330e+00 -1.6594730909565329e+04 4.2000000000000000e+03 8.5752915738619553e+00 4.2113469296032129e+00 7.4780951781834787e+01 
1644 1246 2 1.0280033277632288e+00 2.2098125002707029e+05 4.2000000000000000e+03 1.0747772586796147e+01 3.7318595017191094e+00 7.5437635358355351e+01 
1658 1260 2 1.0280031857739864e+00 -3.0532028234141617e+05 4.2000000000000000e+03 1.0807655315738605e+01 3.5540817319770830e+00 7.5396909820276875e+01 
2024 1626 2 1.0280022343681841e+00 2.8548491586634523e+05 4.2000000000000000e+03 7.0888031335112238e+00 4.5174821961612999e+00 7.4652609159309208e+01 
730 332 2 1.0280071206406585e+00 3.1215752492497842e+04 4.2000000000000000e+03 1.0432519495646693e+01 5.6441034254864231e-03 7.6316661126505139e+01 
854 456 2 1.0280015813969940e+00 -1.8732351435924254e+05 4.2000000000000000e+03 7.7009066783274829e+00 5.5534264332347103e+00 7.5105351012957399e+01 
1809 1411 2 1.0279557616504580e+00 1.4927919975775780e+05 4.2000000000000000e+03 8.6644515641320954e+00 2.8942960542741808e-01 7.6748211675639013e+01 
1986 1588 2 1.0280030294266702e+00 3.3861672400024562e+05 4.2000000000000000e+03 1.1707761288929852e+01 4.1097838350597726e+00 7.6698613172811761e+01 
612 214 2 1.0280029980958747e+00 8.1821324118801378e+04 4.2000000000000000e+03 1.1897298506147974e+01 3.9496604913172595e+00 7.6669441618609511e+01 
1242 844 2 1.0280010641578678e+00 2.3054367163274877e+05 4.2000000000000000e+03 8.9955680478216919e+00 6.6210444224465954e+00 7.6985655575295667e+01 
1044 646 2 1.0280030100868016e+00 2.0295732680908951e+05 4.2000000000000000e+03 1.2776824818865327e+01 2.6836110190603164e+00 7.5668880782735840e+01 
1821 1423 2 1.0280024511377208e+00 9.7817314421804869e+04 4.2000000000000000e+03 1.2849153897989336e+01 2.2656098394776794e+00 7.5399547857868512e+01 
1840 1442 2 1.0280016089227177e+00 2.6862798267278139e+05 4.2000000000000000e+03 1.6819617136349773e+01 6.3079005529814038e+00 7.3058186529284342e+01 
1964 1566 2 1.0280019377816116e+00 3.3004804968064919e+05 4.2000000000000000e+03 1.6778240245609279e+01 6.2152121777701925e+00 7.3077206835436797e+01 
1102 704 2 1.0280034652485002e+00 -2.1883891876120007e+05 4.2000000000000000e+03 1.6915870000828711e+01 6.0443298512311090e+00 7.3490592923680495e+01 
1684 1286 2 1.0280031902466453e+00 5.4178598689866718e+04 4.2000000000000000e+03 1.7009917510917013e+01 6.1441867777829264e+00 7.3555057699654398e+01 
918 520 2 1.0280038953448021e+00 -3.2733792418685998e+05 4.2000000000000000e+03 1.9313185632639836e+01 5.8108996909915511e+00 7.5408085898867952e+01 
1444 1046 2 1.0280021028429138e+00 -1.3944356362766595e+05 4.2000000000000000e+03 1.3945329889418847e+01 1.9157738914310288e-01 7.4360489751261156e+01 
797 399 2 1.0280099430658769e+00 1.4255151946655579e+05 4.2000000000000000e+03 1.8763106674506496e+01 5.3288210472104796e+00 7.5791393158667205e+01 
823 425 2 1.0280048911337818e+00 -2.5552615781661414e+05 4.2000000000000000e+03 1.5154805115023501e+01 3.3290013457981837e-01 7.5220646143020659e+01 
1235 837 2 1.0279996186872167e+00 -7.5459668191306875e+04 4.2000000000000000e+03 1.8125126549052453e+01 4.3195235837429173e+00 7.7129503327694820e+01 
861 463 2 1.0280089615701773e+00 -3.2324684903190387e+03 4.2000000000000000e+03 1.8455649869065837e+01 4.5360574909503528e+00 7.7573524239585595e+01 
1531 1133 2 1.0279999450318436e+00 -4.8393574587733683e+05 4.2000000000000000e+03 1.5150617846350441e+01 8.9920283295318204e-01 7.7045529865161384e+01 
751 353 2 1.0279989778091512e+00 -2.3542473028869517e+05 4.2000000000000000e+03 1.5172219439784868e+01 9.9640186482627935e-01 7.7194313812837777e+01 
445 47 2 1.0280000207141926e+00 3.5996801604067528e+05 4.2000000000000000e+03 3.5092791748301178e+00 7.1533024930125464e+00 7.6361929033137812e+01 
1284 886 2 1.0280008253314012e+00 6.1625371578828810e+04 4.2000000000000000e+03 4.0407213646335025e+00 7.3680584800882061e+00 7.7245599224359495e+01 
807 409 2 1.0280009938952916e+00 -1.1335711242304080e+05 4.2000000000000000e+03 8.7765573307638061e+00 6.9140231705437207e+00 7.7300838979191127e+01 
662 264 2 1.0280002762564888e+00 -1.0187473769816321e+05 4.2000000000000000e+03 1.7683822839095697e+01 7.2513809885933060e+00 7.3063569588860048e+01 
950 552 2 1.0280038256980177e+00 -3.9753810590806219e+05 4.2000000000000000e+03 1.8344644050249585e+01 6.8946445835108232e+00 7.4113241838080526e+01 
2014 1616 2 1.0280028439117852e+00 1.9587368924004392e+05 4.2000000000000000e+03 1.9861310896802145e+01 1.2288858621144534e+01 7.5886891567161172e+01 
2033 1635 2 1.0280013402080448e+00 3.4590407905717590e+05 4.2000000000000000e+03 1.9954896489679953e+01 1.2486739643961636e+01 7.4680460651713119e+01 
2030 1632 2 1.0280051909518750e+00 3.1459885538623994e+05 4.2000000000000000e+03 1.9926666884498321e+01 1.3890245651025097e+01 7.7695806205375874e+01 
706 308 2 1.0279994298319124e+00 -5.6922746271978285e+04 4.2000000000000000e+03 7.3438467024018228e-01 6.0047814976565137e+00 7.7818778677588284e+01 
641 243 2 1.0279833390814908e+00 1.7525883555207140e+05 4.2000000000000000e+03 2.6949305880956564e+00 4.2650740778465790e-01 7.8832376183221001e+01 
628 230 2 1.0280002037521925e+00 1.5614786009238291e+05 4.2000000000000000e+03 1.2909171030201232e+00 2.8999707985759624e+00 8.2911243707483379e+01 
1873 1475 2 1.0279983100575252e+00 3.1520562577814504e+05 4.2000000000000000e+03 1.7676275764266545e+00 2.2796990397938721e+00 8.2161157755978081e+01 
738 340 2 1.0279961103649260e+00 1.8424046335371872e+05 4.2000000000000000e+03 1.1532389655074051e+00 1.9542119523709836e+00 8.2192868230931523e+01 
473 75 2 1.0279958851376607e+00 3.5959798912331497e+05 4.2000000000000000e+03 4.9157881950210758e+00 8.6427218004162354e-01 8.1870552778658805e+01 
865 467 2 1.0280256738185727e+00 2.0572221629607046e+05 4.2000000000000000e+03 2.3179662587738687e+00 4.5095011477477115e-01 8.1013063138248754e+01 
2043 1645 2 1.0279986080045893e+00 2.8240498523593153e+05 4.2000000000000000e+03 5.1967203640028812e+00 2.0115748249526361e-01 8.1511403805300347e+01 
582 184 2 1.0280012697426157e+00 -2.7153809137983620e+05 4.2000000000000000e+03 8.3759900886024952e-01 6.5118324948481554e+00 7.8499887503233907e+01 
1076 678 2 1.0280031170943229e+00 3.7860654159838264e+05 4.2000000000000000e+03 9.9332659466497404e+00 6.1090320942280538e+00 7.8222418168910622e+01 
1079 681 2 1.0280090010676246e+00 -1.5501657097094361e+05 4.2000000000000000e+03 1.0470716487693307e+01 5.2867302063423933e+00 7.8951909842075025e+01 
855 457 2 1.0280033631451997e+00 -1.6839193256544959e+05 4.2000000000000000e+03 1.1522219434341904e+01 5.7487942236243639e-01 8.0203084542156859e+01 
1418 1020 2 1.0280219088177829e+00 -2.4623121943478344e+05 4.2000000000000000e+03 1.0460973511464355e+01 6.6994576087146193e-02 8.0359254452599501e+01 
714 316 2 1.0279885656806160e+00 -1.9479572731709183e+05 4.2000000000000000e+03 1.0370540130329315e+01 2.4143661112985013e-01 8.1590378283502972e+01 
982 584 2 1.0280029439433958e+00 -5.4940009215485689e+05 4.2000000000000000e+03 9.1934303492384704e+00 7.6114581559554295e-01 8.1601294212854285e+01 
2075 1677 2 1.0280162527808356e+00 2.0007561125464295e+05 4.2000000000000000e+03 9.7377094160840070e+00 5.3219970739055966e-01 8.1237245160154785e+01 
546 148 2 1.0280002248543678e+00 1.4308177759848654e+05 4.2000000000000000e+03 1.0076298695618039e+01 2.6235615301002952e+00 8.2348690426603426e+01 
1325 927 2 1.0279951403761218e+00 -1.0049353083751770e+05 4.2000000000000000e+03 8.4278079716892496e+00 5.5007117265744032e+00 8.2550310663179403e+01 
2056 1658 2 1.0279981883146387e+00 5.4716042497712036e+05 4.2000000000000000e+03 1.2588438230898600e+01 5.4988098503110567e+00 8.2078358780196737e+01 
1510 1112 2 1.0280027687843132e+00 -2.7162337097711454e+05 4.2000000000000000e+03 1.2844340073762361e+01 5.4260013337338933e+00 8.2281636349983813e+01 
2023 1625 2 1.0280003696583135e+00 1.2849314459577296e+05 4.2000000000000000e+03 1.0422225856035540e+01 6.0201013637832919e+00 8.0700483921534641e+01 
2026 1628 2 1.0280179007256778e+00 1.3784308306242013e+05 4.2000000000000000e+03 1.9492047839662735e+01 4.9918063624490605e+00 7.8650279431899278e+01 
1647 1249 2 1.0280050674680483e+00 -1.1168933880438106e+05 4.2000000000000000e+03 1.6560569108487375e+01 1.6000197716837825e+00 7.8577096195129442e+01 
1783 1385 2 1.0279925759860571e+00 -4.2129938957754282e+04 4.2000000000000000e+03 1.6770351957682415e+01 3.4792766398929897e+00 7.8935630560063018e+01 
767 369 2 1.0280015042128163e+00 -4.6114483894892497e+05 4.2000000000000000e+03 1.3599994599820670e+01 3.3145241885985111e+00 7.8985472225924312e+01 
1366 968 2 1.0280019540246621e+00 -4.6029474675220100e+05 4.2000000000000000e+03 1.5988818617257325e+01 3.2911851261159661e+00 7.9500916356432285e+01 
485 87 2 1.0280167950235690e+00 2.8891142882463714e+05 4.2000000000000000e+03 1.6993798142302818e+01 4.0510006075623819e+00 8.0492023791493395e+01 