LAMMPS data file via write_data, version 30 Jul 2016, timestep = 50400000

567 atoms
2 atom types

0.0000000000000000e+00 2.0000000000000000e+01 xlo xhi
0.0000000000000000e+00 2.0000000000000000e+01 ylo yhi
0.0000000000000000e+00 2.0000000000000000e+01 zlo zhi

Masses

1 3.896
2 4.31

Atoms # meso-molecular

374 1 2 1.0280000041145381e+00 -5.7063671525381530e+00 1.0000000000000000e+00 2.6533263471543189e+00 4.1152004520371701e+00 1.7821166591498296e+00 
440 1 2 1.0280000038128754e+00 -2.2276427058209926e+01 1.0000000000000000e+00 2.7267664437047232e+00 4.1120481408974285e+00 1.7143975977208468e+00 
532 1 2 1.0279999977245564e+00 -1.2050360812126931e+02 1.0000000000000000e+00 8.9362011829384858e-01 4.9655868798028422e+00 2.5195474569031409e+00 
240 1 2 1.0279999973579810e+00 -1.9254502929916534e+01 1.0000000000000000e+00 8.0916153271095159e-01 4.9891666772180985e+00 2.5441276141731861e+00 
109 1 2 1.0279999938444226e+00 -5.2723399977269878e+01 1.0000000000000000e+00 7.1252279157695619e-01 5.0361566883048567e+00 2.6299901091251332e+00 
372 1 2 1.0279999938444180e+00 3.2085184585089079e+00 1.0000000000000000e+00 7.1252294488187051e-01 5.0361566733792786e+00 2.6299901483637385e+00 
242 1 2 1.0279999938444178e+00 -3.5162272484948005e+01 1.0000000000000000e+00 7.1252296010748417e-01 5.0361566718967357e+00 2.6299901522598153e+00 
71 1 2 1.0280000039031716e+00 -6.3451407614062703e+01 1.0000000000000000e+00 3.1400915949529913e+00 4.3092040357786319e+00 1.0346410909804813e+00 
107 1 2 1.0279999974323470e+00 -3.0870271264894985e+01 1.0000000000000000e+00 2.1308417373792170e+00 4.0573653164843639e+00 3.1820941922185764e+00 
378 1 2 1.0279999970289662e+00 -4.4201392680050617e+01 1.0000000000000000e+00 4.6748711435963077e+00 4.4980656656287161e+00 2.0327801587250938e+00 
533 1 2 1.0279999980768342e+00 -3.1867916730843888e+01 1.0000000000000000e+00 4.6318521677761737e+00 4.6434550475195708e+00 1.5298893612446274e+00 
517 1 2 1.0280000013961954e+00 -2.5088067938239419e+01 1.0000000000000000e+00 4.0024970936813871e+00 4.7133224456411824e+00 5.9771220263433644e-01 
51 1 2 1.0279999973750629e+00 -7.8858380633614289e+01 1.0000000000000000e+00 4.6444553635284604e+00 4.7883735449925497e+00 1.9246518611224914e+00 
286 1 2 1.0279999989366226e+00 -7.7068691314295137e+00 1.0000000000000000e+00 4.2881542954289458e+00 5.1964221436476885e+00 1.6308076687365296e+00 
129 1 2 1.0280000001804963e+00 -1.6857965128141643e+01 1.0000000000000000e+00 4.1469079763609855e+00 4.6175680080651622e+00 2.7922414711435835e+00 
221 1 2 1.0280000010231878e+00 -1.3676992995456001e+01 1.0000000000000000e+00 4.0621173191604454e+00 4.5783940804975041e+00 2.8447121984339847e+00 
401 1 2 1.0279999863110008e+00 -2.3592783137578383e+01 1.0000000000000000e+00 2.0019121840816241e+00 3.1202025215381783e+00 4.4059766731470225e+00 
279 1 2 1.0279999999099150e+00 -3.7414178382956223e+01 1.0000000000000000e+00 1.6722413822633055e+00 2.0092005001914854e+00 4.7848629930430659e+00 
334 1 2 1.0280000070298689e+00 -5.6249712835267637e+01 1.0000000000000000e+00 2.2910279252383665e+00 3.1303458272961797e+00 4.3381282727819581e+00 
265 1 2 1.0280000065236357e+00 -1.8378895003199007e+00 1.0000000000000000e+00 2.2945249040917410e+00 3.1381960926604262e+00 4.3648193819395251e+00 
404 1 2 1.0280000052828187e+00 -6.0812746131714576e+01 1.0000000000000000e+00 1.2969493556816643e+00 2.2787105741101334e+00 5.2683807273026142e+00 
157 1 2 1.0280000052828944e+00 -8.0069453878893029e+01 1.0000000000000000e+00 1.2969308550182124e+00 2.2786634528725696e+00 5.2684064610148136e+00 
127 1 2 1.0280000054215468e+00 -3.8278556965078259e+01 1.0000000000000000e+00 1.1901821419466139e+00 1.9342197889911492e+00 5.5443841186200515e+00 
431 1 2 1.0279999950790069e+00 -1.0382205658002967e+01 1.0000000000000000e+00 3.2766756001303476e+00 2.2029382744548731e+00 5.0333600455152379e+00 
187 1 2 1.0279999914615583e+00 -1.5013356188908078e+01 1.0000000000000000e+00 3.2816482367981612e+00 2.1186049483359373e+00 5.0952398221399591e+00 
69 1 2 1.0280000047529527e+00 -3.8407491791184128e+01 1.0000000000000000e+00 5.7178893693199377e+00 2.9440308538116851e+00 5.1118837830664283e+00 
318 1 2 1.0280000058414223e+00 -2.3920570938673087e+01 1.0000000000000000e+00 4.4785639034678386e+00 2.2967389444251531e+00 6.2278702863376729e+00 
562 1 2 1.0279999969721112e+00 -8.0206017541038207e+01 1.0000000000000000e+00 3.6901893729735242e+00 6.6755647289321152e-01 6.6071246756233215e+00 
424 1 2 1.0279999969900642e+00 -4.6720567508468548e+01 1.0000000000000000e+00 3.6868592346127329e+00 6.6641665537102246e-01 6.6082851056577345e+00 
470 1 2 1.0279999969829590e+00 -6.2302635456429144e+01 1.0000000000000000e+00 3.6881718559173309e+00 6.6686460708783857e-01 6.6078270563792652e+00 
262 1 2 1.0280000076820235e+00 -2.3415677147631712e+01 1.0000000000000000e+00 5.2995370447911458e+00 3.3572498513624343e+00 4.6784700167896238e+00 
152 1 2 1.0280000079330087e+00 -3.6387607544331118e+01 1.0000000000000000e+00 5.2983978565094052e+00 3.3539844282899556e+00 4.6807869530880648e+00 
333 1 2 1.0280000086316905e+00 -4.7287183409928915e+01 1.0000000000000000e+00 5.2954338864251804e+00 3.3446287884686785e+00 4.6872734219743535e+00 
415 1 2 1.0279999918138185e+00 -3.6629802506481340e+01 1.0000000000000000e+00 5.7073167601228798e+00 3.5536594884126220e+00 4.3769140473357648e+00 
471 1 2 1.0280000067639306e+00 -1.3585506294171813e+01 1.0000000000000000e+00 7.1971783334050587e-01 1.0600941030012130e+00 6.7886229007773107e+00 
133 1 2 1.0280000003141638e+00 -1.3119968849492636e+01 1.0000000000000000e+00 2.1615134430212715e-01 1.0558442988893006e+00 6.8580722929474351e+00 
189 1 2 1.0280000017056958e+00 -4.3731577187008888e+01 1.0000000000000000e+00 3.0145587547244399e+00 6.8249478396446905e-01 7.0616324311161174e+00 
307 1 2 1.0280000007096477e+00 -4.3933486557152222e+01 1.0000000000000000e+00 3.2024436473465032e+00 1.5148990143901826e+00 8.4487571194316313e+00 
100 1 2 1.0280000006542795e+00 -5.2524919707543788e+01 1.0000000000000000e+00 3.2319062206007163e+00 1.4598140991659549e+00 8.4716965546424330e+00 
241 1 2 1.0280000006055099e+00 -1.3671492162395964e+01 1.0000000000000000e+00 3.2578969553500996e+00 1.4935876348381238e+00 8.4966672908556582e+00 
449 1 2 1.0280000003496861e+00 -4.0849195408587249e+01 1.0000000000000000e+00 4.3433537086066911e+00 2.3526680375512763e+00 8.1594653805534723e+00 
284 1 2 1.0280000007303334e+00 1.4704795814839994e+01 1.0000000000000000e+00 4.8900524618658041e+00 1.6216418687101954e+00 7.7778911899767254e+00 
21 1 2 1.0280000002718370e+00 -4.1010583731818450e+01 1.0000000000000000e+00 4.4392245878997860e+00 2.1694626738662479e+00 8.3320944841527833e+00 
417 1 2 1.0280000023346287e+00 -3.3056568431998009e+01 1.0000000000000000e+00 4.8632579335415285e+00 2.0017840115913832e+00 7.1620986149383823e+00 
421 1 2 1.0280000000931193e+00 -2.3002952674909896e+01 1.0000000000000000e+00 4.0190865823950759e+00 1.8694433821976937e+00 8.6914134980687425e+00 
549 1 2 1.0279999990439694e+00 -5.0805188978055412e+01 1.0000000000000000e+00 2.5725902177724009e+00 1.2822477864985460e+00 1.2888730220990814e+01 
191 1 2 1.0279999990411481e+00 -1.4939021572810923e+01 1.0000000000000000e+00 2.5722696101263280e+00 1.2825344143560464e+00 1.2888929709000843e+01 
132 1 2 1.0279999990440485e+00 -1.8993107080402755e+01 1.0000000000000000e+00 2.5725963863252854e+00 1.2822412426172445e+00 1.2888725131491098e+01 
322 1 2 1.0280000001841805e+00 -8.7792399220508450e+00 1.0000000000000000e+00 2.2909104945769037e+00 1.2915046913722485e+00 1.2978126644273891e+01 
369 1 2 1.0279999955983801e+00 -3.4100553380786607e+01 1.0000000000000000e+00 2.8159907516769014e+00 1.1657937809967065e+00 1.3140953946629171e+01 
179 1 2 1.0280000006369039e+00 -6.5339559106108894e+01 1.0000000000000000e+00 2.1843508573490267e+00 1.1820220629124534e+00 1.3206699777245129e+01 
233 1 2 1.0280000010749974e+00 5.1553697478472604e-01 1.0000000000000000e+00 2.1498522116420187e+00 1.0845255394147495e+00 1.3271179719457496e+01 
210 1 2 1.0280000010060997e+00 2.8895363179544624e+00 1.0000000000000000e+00 1.6385640895924269e+00 7.4981812138817050e+00 1.2217611832737024e+01 
7 1 2 1.0280000010040582e+00 -1.9437023549011734e+01 1.0000000000000000e+00 1.6402507857588258e+00 7.4978127378540220e+00 1.2218027210409511e+01 
463 1 2 1.0280000010028461e+00 -1.2152162132697393e+01 1.0000000000000000e+00 1.6411961865092031e+00 7.4975949596949594e+00 1.2218263921921539e+01 
18 1 2 1.0280000010007675e+00 -6.9072537221338351e+01 1.0000000000000000e+00 1.6429485951975342e+00 7.4972206976229154e+00 1.2218695291770722e+01 
283 1 2 1.0280000024567901e+00 -8.8620561754008236e+00 1.0000000000000000e+00 4.6709847633609558e-01 8.0422541769115767e+00 1.0482781430918065e+01 
489 1 2 1.0280000034023211e+00 -6.8587470554104144e+01 1.0000000000000000e+00 4.4219275262074853e-01 8.0560694546430849e+00 1.2042264689302396e+01 
512 1 2 1.0279999987595476e+00 -3.9264511127631238e+01 1.0000000000000000e+00 1.2443036755353691e+00 8.1419646424711249e+00 1.2532881683361920e+01 
479 1 2 1.0280000022259324e+00 -5.1981081745715144e+01 1.0000000000000000e+00 4.8778321123676660e+00 2.7718474051620849e+00 1.5001479367054658e+01 
25 1 2 1.0279999979291012e+00 -1.5384733385724829e+01 1.0000000000000000e+00 4.9207271006909137e+00 2.6427550951208696e+00 1.5113938302139998e+01 
461 1 2 1.0279999979291017e+00 -4.4758201383606639e+00 1.0000000000000000e+00 4.9207271007145250e+00 2.6427550950944925e+00 1.5113938302142039e+01 
272 1 2 1.0279999979291015e+00 -3.4148689604340305e+01 1.0000000000000000e+00 4.9207271007147133e+00 2.6427550950942811e+00 1.5113938302142049e+01 
291 1 2 1.0279999979291015e+00 1.6363794957873132e+01 1.0000000000000000e+00 4.9207271007146334e+00 2.6427550950943721e+00 1.5113938302142010e+01 
171 1 2 1.0279999979291081e+00 -5.1900255294789403e+01 1.0000000000000000e+00 4.9207269864900463e+00 2.6427552225208482e+00 1.5113938294187292e+01 
537 1 2 1.0280000007361312e+00 -6.7506534735371503e+01 1.0000000000000000e+00 5.7734785898290832e+00 2.8923465815057701e+00 1.5460476469792569e+01 
138 1 2 1.0280000020777293e+00 -9.7974812388871264e+00 1.0000000000000000e+00 2.6887243278233961e+00 6.5557583897848160e+00 1.4636770744427739e+01 
175 1 2 1.0280000020739213e+00 -1.4176018679484347e+01 1.0000000000000000e+00 2.6888270993004753e+00 6.5555249503291435e+00 1.4636416068669927e+01 
360 1 2 1.0280000020755784e+00 -2.4284196483913455e+01 1.0000000000000000e+00 2.6887824192007161e+00 6.5556266698342656e+00 1.4636570692465432e+01 
420 1 2 1.0280000020751336e+00 -2.4070561977980120e+01 1.0000000000000000e+00 2.6887944735387785e+00 6.5555992490389716e+00 1.4636529021064455e+01 
430 1 2 1.0280000018739055e+00 -2.0038552503604315e+01 1.0000000000000000e+00 5.7782637951071427e+00 5.5381848134398997e+00 1.5254552148803217e+01 
436 1 2 1.0280000010558046e+00 -2.3377080073642510e+01 1.0000000000000000e+00 5.8954521348200526e+00 5.5495824668948242e+00 1.5310789583880663e+01 
299 1 2 1.0280000010249528e+00 -1.7133184203507916e+01 1.0000000000000000e+00 5.8999381024456863e+00 5.5501640722790242e+00 1.5313328449213087e+01 
193 1 2 1.0280000035203971e+00 -2.6890563436480342e+01 1.0000000000000000e+00 4.9001787841598432e+00 5.8427260150068463e+00 1.5866137716877562e+01 
50 1 2 1.0280000035204013e+00 -2.0458495195094425e+01 1.0000000000000000e+00 4.9001787695110268e+00 5.8427259112118959e+00 1.5866137711858732e+01 
183 1 2 1.0280000035203993e+00 -1.6451707139810026e+01 1.0000000000000000e+00 4.9001787792382965e+00 5.8427259793856585e+00 1.5866137715197933e+01 
363 1 2 1.0280000035203976e+00 -5.9948378922372498e+00 1.0000000000000000e+00 4.9001787841259716e+00 5.8427260147499576e+00 1.5866137716866103e+01 
252 1 2 1.0279999989619051e+00 -4.8967272748509259e+01 1.0000000000000000e+00 3.1881295685210156e+00 6.7517838820992964e+00 1.4036427349353504e+01 
389 1 2 1.0279999987077171e+00 -2.0517941059421709e+01 1.0000000000000000e+00 1.0837948640601880e+00 9.2416646016900366e+00 1.4823547037076386e+01 
186 1 2 1.0279999989146369e+00 1.3866361475069331e+00 1.0000000000000000e+00 1.0449729040250191e+00 9.3053641584066469e+00 1.4888762668469560e+01 
478 1 2 1.0279999989793391e+00 -3.9412387860093830e+01 1.0000000000000000e+00 1.0353088877383585e+00 9.3199279201719154e+00 1.4903563456776874e+01 
559 1 2 1.0279999989805528e+00 -6.7834656562850313e+01 1.0000000000000000e+00 1.0351328814770269e+00 9.3201882923348354e+00 1.4903828390582428e+01 
137 1 2 1.0280000012426116e+00 -5.7303381855463904e+01 1.0000000000000000e+00 2.2996921864509847e+00 9.0978976513856082e+00 1.5974763441352868e+01 
296 1 2 1.0280000016563102e+00 -2.3453554224978914e+00 1.0000000000000000e+00 2.0242837919941765e+00 8.4800428000061938e+00 1.6046592628092327e+01 
14 1 2 1.0279999998190470e+00 -1.7792106470610108e+01 1.0000000000000000e+00 2.9049943974423620e+00 7.6693994570052908e+00 1.3531551496553616e+01 
394 1 2 1.0279999996955422e+00 -1.4640710556642407e+01 1.0000000000000000e+00 2.9898090860002919e+00 7.4380581565173136e+00 1.3490858029436417e+01 
281 1 2 1.0280000002248864e+00 2.3385876443516360e+00 1.0000000000000000e+00 8.3481469806067954e-01 9.4716297653819712e+00 1.6523559674868231e+01 
4 1 2 1.0279999998927578e+00 -7.1897836753992223e+01 1.0000000000000000e+00 2.2293632304875102e+00 9.3333730938181265e+00 1.6636168305314499e+01 
301 1 2 1.0280000007455274e+00 -1.6401616151476276e+01 1.0000000000000000e+00 6.2634643137417942e+00 8.7700529823624880e+00 1.5402736077666324e+01 
22 1 2 1.0280000044167941e+00 -2.1486380160097511e+01 1.0000000000000000e+00 5.7502622547477049e+00 9.7428525774030383e+00 1.3809951727609437e+01 
303 1 2 1.0280000004803314e+00 -3.4759983644768376e+01 1.0000000000000000e+00 6.1806414412900903e+00 8.7547040597266772e+00 1.5365200390174021e+01 
472 1 2 1.0280000005646346e+00 -5.4429704410489080e+01 1.0000000000000000e+00 6.1816185477506700e+00 8.7562083462281475e+00 1.5362886975550280e+01 
39 1 2 1.0280000006203356e+00 -2.6858335186712743e+01 1.0000000000000000e+00 6.1818148047663479e+00 8.7570833104213257e+00 1.5361038098468192e+01 
547 1 2 1.0280000009433430e+00 -1.5411304756197875e+01 1.0000000000000000e+00 6.1913608843783674e+00 8.7637969055166973e+00 1.5356654934326539e+01 
76 1 2 1.0279999992193718e+00 -1.0850312948676901e+02 1.0000000000000000e+00 6.2867423270969658e+00 8.7270039241757136e+00 1.5490312333944534e+01 
335 1 2 1.0279999994052942e+00 -1.7581385996144512e+01 1.0000000000000000e+00 2.1576281723367066e+00 5.2762573598259142e+00 1.8010126619764296e+01 
315 1 2 1.0280000003768375e+00 -1.3926409490039902e+01 1.0000000000000000e+00 5.0527542170852002e-01 6.5190992056123003e+00 1.8367227910900063e+01 
83 1 2 1.0279999995928921e+00 -4.0252222107492045e+01 1.0000000000000000e+00 2.7088642277577373e+00 4.7594273987211269e+00 1.8078140380155435e+01 
350 1 2 1.0279999996210438e+00 3.5461444787451862e-01 1.0000000000000000e+00 2.7211900213539444e+00 4.7530661884158043e+00 1.8080486069117949e+01 
314 1 2 1.0279999996350935e+00 -8.3077805250023182e+00 1.0000000000000000e+00 2.7275241429711317e+00 4.7497570606736019e+00 1.8081906866446989e+01 
110 1 2 1.0280000066366302e+00 -4.7341222920128601e+01 1.0000000000000000e+00 3.0015838364641105e+00 5.2611924506062770e+00 1.7697976453823102e+01 
213 1 2 1.0280000005271925e+00 -1.1864487277743549e+01 1.0000000000000000e+00 3.5088746662127610e+00 4.8864487845561904e+00 1.8965070241761484e+01 
121 1 2 1.0279999996430020e+00 -1.3288668280346521e+01 1.0000000000000000e+00 3.4827466867490120e+00 5.1702420953891952e+00 1.9103536032926684e+01 
20 1 2 1.0279999996536446e+00 -3.7276845484489677e+01 1.0000000000000000e+00 3.4801196635295031e+00 5.1662161147407302e+00 1.9114477565345727e+01 
118 1 2 1.0280000004822056e+00 -4.0892842753617053e+01 1.0000000000000000e+00 2.0083670610217133e+00 9.9734084016425850e+00 1.7139956318331606e+01 
293 1 2 1.0279999989820328e+00 3.6172211662290019e+00 1.0000000000000000e+00 1.9360765655965861e+00 7.5345526214139289e+00 1.8388993662236857e+01 
429 1 2 1.0279999990453297e+00 -4.0928355548533013e+01 1.0000000000000000e+00 1.9497428797256593e+00 7.5199284306606140e+00 1.8403627869797994e+01 
371 1 2 1.0279999990438637e+00 8.4183400633035319e+00 1.0000000000000000e+00 1.9494269856122437e+00 7.5202726981557362e+00 1.8403277509119302e+01 
566 1 2 1.0279999990446658e+00 -4.5343586384439732e+01 1.0000000000000000e+00 1.9495978216562015e+00 7.5200867971051597e+00 1.8403472108024413e+01 
308 1 2 1.0279999993839084e+00 -1.4949184904799619e+01 1.0000000000000000e+00 8.8336373094560661e-01 7.5844462504260317e+00 1.8166467361746285e+01 
27 1 2 1.0280000006321606e+00 -1.0110205828184809e+02 1.0000000000000000e+00 3.9518054721867611e-02 6.8002127553194702e+00 1.9921285195523719e+01 
397 1 2 1.0280000003686161e+00 -4.3360271776495580e+01 1.0000000000000000e+00 5.9543038678288029e-01 7.2788978475274124e+00 1.9925593228056918e+01 
526 1 2 1.0280000005897161e+00 -3.2049973381041724e+01 1.0000000000000000e+00 5.7980162050220614e-02 6.8654918344420004e+00 1.9934312267863000e+01 
342 1 2 1.0280000020630968e+00 -4.5744198070570704e+01 1.0000000000000000e+00 1.6236771943612875e+00 1.6201227920322449e+01 1.5998437985391900e+00 
217 1 2 1.0280000024770006e+00 -3.5229629262612882e+01 1.0000000000000000e+00 1.6263572576324696e+00 1.6336987314641405e+01 1.6036404467174876e+00 
323 1 2 1.0280000023172791e+00 -9.2675776361748575e+01 1.0000000000000000e+00 1.5684990450028473e+00 1.6251635761247307e+01 1.6363945189234883e+00 
33 1 2 1.0280000024414209e+00 -2.4489274681699818e+01 1.0000000000000000e+00 1.5352774652850341e+00 1.6306960425447386e+01 1.6726583121851970e+00 
1 1 2 1.0280000024618852e+00 -1.0692350699542200e+02 1.0000000000000000e+00 1.5264243679004055e+00 1.6332717988386630e+01 1.6881916976991755e+00 
409 1 2 1.0279999984225652e+00 -5.1013234952872182e+01 1.0000000000000000e+00 2.0872014571118678e+00 1.5831896846797811e+01 1.8724821996511931e+00 
289 1 2 1.0279999998336482e+00 -4.1213669621780625e+01 1.0000000000000000e+00 2.3276850707494376e+00 1.6026761031509654e+01 1.7705128449047720e+00 
354 1 2 1.0279999996115468e+00 -8.0676930153025417e+00 1.0000000000000000e+00 5.1036690754977707e+00 1.4947549892796889e+01 3.2226122028850428e+00 
325 1 2 1.0279999997937534e+00 -2.5016341278576427e+01 1.0000000000000000e+00 5.0948079664089514e+00 1.4951660180089108e+01 3.2366577617892824e+00 
244 1 2 1.0279999997570251e+00 -2.3118214667139483e+01 1.0000000000000000e+00 5.0966127679821414e+00 1.4950793012125141e+01 3.2338067412559539e+00 
245 1 2 1.0279999997125702e+00 -1.9129169427350597e+01 1.0000000000000000e+00 5.0987824601274125e+00 1.4949770226754055e+01 3.2303708141036220e+00 
70 1 2 1.0279999805648816e+00 -3.5959350959944075e+01 1.0000000000000000e+00 4.0475098096040156e+00 1.5927249387910747e+01 3.2516530843707403e+00 
192 1 2 1.0279999987979054e+00 -1.6482939137287950e+01 1.0000000000000000e+00 5.3753793368511325e+00 1.6914002772232884e+01 1.8583696648424752e+00 
438 1 2 1.0279999995129607e+00 -1.5979706491958674e+00 1.0000000000000000e+00 5.3318700408995161e+00 1.6928431508393896e+01 1.8630175499157955e+00 
116 1 2 1.0280000001215073e+00 -1.5380365863052292e+01 1.0000000000000000e+00 4.2904904850749546e+00 1.8602230587404033e+01 1.4702378053331147e+00 
313 1 2 1.0279999982451256e+00 -1.5766129491691666e+01 1.0000000000000000e+00 3.9849790080166145e+00 1.8848470108066842e+01 2.0123489999377053e+00 
36 1 2 1.0279999975784238e+00 -4.2976621110522061e+01 1.0000000000000000e+00 3.8814274628336216e+00 1.8784774845921980e+01 2.1309900913691142e+00 
522 1 2 1.0279999961741362e+00 -4.2620988826728194e+01 1.0000000000000000e+00 3.7104072992367283e+00 1.8637781314405967e+01 2.2767855148076581e+00 
197 1 2 1.0279999959901533e+00 -2.2554169750891468e+01 1.0000000000000000e+00 3.6543705029770934e+00 1.8583176557514456e+01 2.2986812206823730e+00 
207 1 2 1.0279999943054159e+00 -3.7584827907363909e+01 1.0000000000000000e+00 3.4902253865202066e+00 1.8392367471200910e+01 2.4090932189726568e+00 
141 1 2 1.0279999984385866e+00 -4.0104438859394683e+01 1.0000000000000000e+00 6.1287483827021552e+00 1.9250511562079776e+01 1.4206026184302560e+00 
54 1 2 1.0279999985626977e+00 -9.0725359862028256e+01 1.0000000000000000e+00 6.1564874042676188e+00 1.9222824581113301e+01 1.3368727562401563e+00 
302 1 2 1.0279999985627355e+00 -1.5669433576362991e+01 1.0000000000000000e+00 6.1564867018526730e+00 1.9222812523548068e+01 1.3368431718992477e+00 
199 1 2 1.0280000157814118e+00 -5.2793171322951338e+01 1.0000000000000000e+00 4.5520471820325943e+00 1.7257365761840706e+01 2.9070994442839413e+00 
454 1 2 1.0279999991274560e+00 -2.6059649684164583e+01 1.0000000000000000e+00 1.5831725556170633e+00 1.5957906877938264e+01 4.5117438679211803e+00 
329 1 2 1.0279999991275373e+00 -8.9321256875633779e+00 1.0000000000000000e+00 1.5828744012549598e+00 1.5957940751213558e+01 4.5114348867661977e+00 
105 1 2 1.0279999991303428e+00 -1.9885452457094701e+01 1.0000000000000000e+00 1.5836143403959599e+00 1.5957878431746426e+01 4.5124229446796305e+00 
290 1 2 1.0280000007831840e+00 2.5595015568716946e+01 1.0000000000000000e+00 1.4863352211719105e+00 1.5990410827803315e+01 4.5431715845708904e+00 
238 1 2 1.0280000020452920e+00 -5.0188183925638924e+01 1.0000000000000000e+00 1.0892242309844455e+00 1.6549067825557454e+01 4.7325609196422196e+00 
38 1 2 1.0280000019045543e+00 -7.4110326152658104e+01 1.0000000000000000e+00 1.0814833018425929e+00 1.6594411462223437e+01 4.7472905119271021e+00 
178 1 2 1.0280000011580857e+00 -1.7146918361492677e+01 1.0000000000000000e+00 5.0067286119217158e+00 1.5008089484733485e+01 3.3608682609580134e+00 
452 1 2 1.0279999990544710e+00 -1.2018016974828896e+01 1.0000000000000000e+00 4.6107383371075201e+00 1.5565078753964281e+01 3.5995991081961249e+00 
553 1 2 1.0279999969190390e+00 -4.1806150534624919e+01 1.0000000000000000e+00 2.0127200889906889e+00 1.8162021683865703e+01 5.3715939674863966e+00 
174 1 2 1.0280000002503353e+00 -1.7282888516230692e+01 1.0000000000000000e+00 2.1325325550636682e+00 1.8233669766073930e+01 5.2940183154630285e+00 
112 1 2 1.0280000000754932e+00 -3.7580695467755532e+01 1.0000000000000000e+00 2.1255830444577279e+00 1.8230124057947531e+01 5.2982981748860247e+00 
28 1 2 1.0280000022671083e+00 -3.8127477336527477e+01 1.0000000000000000e+00 2.6251719810613854e+00 1.8327523744346042e+01 4.9951096301043201e+00 
550 1 2 1.0280000007394023e+00 -7.3493526394615202e+01 1.0000000000000000e+00 2.8125641633328495e+00 1.8281095017895552e+01 4.9289118207261629e+00 
462 1 2 1.0280000007341021e+00 -1.3460634219625666e+01 1.0000000000000000e+00 2.8116338421010711e+00 1.8281409565986134e+01 4.9289644137186377e+00 
504 1 2 1.0280000048855202e+00 -3.2657477609475748e+01 1.0000000000000000e+00 5.1999971794852451e+00 1.7505209248834568e+01 5.9172941204985712e+00 
250 1 2 1.0280000012532291e+00 -1.7555015575483388e+01 1.0000000000000000e+00 5.2871138141783369e+00 1.7563983065084052e+01 6.1099882039076761e+00 
49 1 2 1.0280000011948884e+00 -2.1421766029666450e+01 1.0000000000000000e+00 5.2884862053685229e+00 1.7564073551173461e+01 6.1132712902985498e+00 
285 1 2 1.0280000010466694e+00 -1.9336603682474362e+01 1.0000000000000000e+00 5.2922827739853266e+00 1.7563857355926295e+01 6.1217408119333259e+00 
398 1 2 1.0280000010379950e+00 -2.1563311742173070e+01 1.0000000000000000e+00 5.2925021319471215e+00 1.7563844888415215e+01 6.1222414001976144e+00 
510 1 2 1.0280000010143280e+00 -3.8539367712484562e+01 1.0000000000000000e+00 5.2931169376536644e+00 1.7563790219474381e+01 6.1236128721301348e+00 
114 1 2 1.0279999992980795e+00 -1.1311830498747788e+01 1.0000000000000000e+00 3.9697656534247319e+00 1.2453467453768221e+01 8.1887636279820253e+00 
32 1 2 1.0279999992963718e+00 -5.6558867066476608e+01 1.0000000000000000e+00 3.9693747693676666e+00 1.2453140180594414e+01 8.1891393849300016e+00 
80 1 2 1.0279999992963418e+00 -8.0815548528190916e+01 1.0000000000000000e+00 3.9693680171894590e+00 1.2453134436179401e+01 8.1891460659725599e+00 
81 1 2 1.0279999992963427e+00 -9.2783208620902656e+01 1.0000000000000000e+00 3.9693683319391528e+00 1.2453134703979000e+01 8.1891457544777779e+00 
450 1 2 1.0279999992222733e+00 -6.1477371913173023e+01 1.0000000000000000e+00 3.9688234021643201e+00 1.2447488507246112e+01 8.2000853452900913e+00 
40 1 2 1.0279999991111344e+00 -4.9736357492520327e+00 1.0000000000000000e+00 3.8817863118191323e+00 1.2401511589692628e+01 8.2571282263813419e+00 
86 1 2 1.0280000045215085e+00 -3.7302672782656302e+01 1.0000000000000000e+00 1.7866119341632629e+00 1.3933201077746011e+01 7.9186561130828377e+00 
168 1 2 1.0279999998458280e+00 -1.6770663693791718e+01 1.0000000000000000e+00 1.2181267291953575e+00 1.4314907744781596e+01 7.4112824978040459e+00 
259 1 2 1.0279999998466822e+00 -1.4030560338829455e+01 1.0000000000000000e+00 1.2183077288729318e+00 1.4314845141982087e+01 7.4112292139049023e+00 
225 1 2 1.0279999998465359e+00 -2.7438941033337994e+00 1.0000000000000000e+00 1.2182764070885950e+00 1.4314855961295295e+01 7.4112384538593208e+00 
224 1 2 1.0279999998465312e+00 1.5646417240391166e+01 1.0000000000000000e+00 1.2182752879665255e+00 1.4314856348001591e+01 7.4112387838118501e+00 
196 1 2 1.0280000061438912e+00 -1.3785203981263546e+01 1.0000000000000000e+00 1.5848055772714982e+00 1.4729071552434943e+01 6.9641507609680078e+00 
267 1 2 1.0279999970149376e+00 3.1107442119781026e-01 1.0000000000000000e+00 2.2282874226506939e+00 1.5617532824158106e+01 9.2351850200446126e+00 
151 1 2 1.0279999972017830e+00 -5.3155033159117750e+01 1.0000000000000000e+00 2.1402560487163362e+00 1.5682200254666290e+01 9.2575581931421738e+00 
455 1 2 1.0279999972017309e+00 -3.0126449168442569e+01 1.0000000000000000e+00 2.1402735179992023e+00 1.5682188662592321e+01 9.2575531793277577e+00 
426 1 2 1.0280000004572289e+00 7.9070360145201934e-01 1.0000000000000000e+00 2.9836658281391824e+00 1.5716653210745696e+01 7.3189188472100728e+00 
104 1 2 1.0279999984382440e+00 -2.3152694446709923e+01 1.0000000000000000e+00 3.0642277987110047e+00 1.5955318388312962e+01 7.4021697195973060e+00 
79 1 2 1.0280000002092475e+00 -4.8010344696363276e+01 1.0000000000000000e+00 4.4612378823587218e+00 1.4237158300392011e+01 8.2033045312536466e+00 
565 1 2 1.0280000008385026e+00 -6.8298798617878802e+01 1.0000000000000000e+00 4.3169771858331751e+00 1.4477094245331955e+01 8.7673947079137360e+00 
548 1 2 1.0280000010730674e+00 -7.8733418265254642e+01 1.0000000000000000e+00 4.4365731931676411e+00 1.4814112162278024e+01 8.7885120342786909e+00 
222 1 2 1.0279999976038532e+00 -3.1446375278664515e+01 1.0000000000000000e+00 4.8497149984285768e+00 1.5938645529769293e+01 7.0318001107162367e+00 
560 1 2 1.0279999976044822e+00 -5.8041237430227852e+01 1.0000000000000000e+00 4.8498502455604227e+00 1.5938612776468695e+01 7.0319538260943997e+00 
501 1 2 1.0280000002696621e+00 -7.0862552970605890e+01 1.0000000000000000e+00 4.3571659658987798e+00 1.6451597537076335e+01 8.7603123445566844e+00 
304 1 2 1.0280000002708627e+00 -1.5935492946243169e+01 1.0000000000000000e+00 4.3554805103395378e+00 1.6442790256111916e+01 8.7698189781172058e+00 
418 1 2 1.0280000002708363e+00 -1.4970553782632615e+01 1.0000000000000000e+00 4.3554606849528588e+00 1.6442718088372715e+01 8.7698993271657795e+00 
321 1 2 1.0280000003250782e+00 -4.1662913170935326e+01 1.0000000000000000e+00 4.4049596801069137e+00 1.6386912482964402e+01 8.7941529573220993e+00 
165 1 2 1.0279999967998956e+00 -2.3665399471108593e+01 1.0000000000000000e+00 5.3598682408674925e-01 1.7402934053694157e+01 7.9826774568030210e+00 
361 1 2 1.0279999953136925e+00 -5.1843119298815743e+01 1.0000000000000000e+00 4.8942494043314372e-01 1.7434642320366414e+01 7.9242087036969773e+00 
358 1 2 1.0279999941515650e+00 -8.0392414066543694e+00 1.0000000000000000e+00 4.5692867785282043e-01 1.7452153287767661e+01 7.8809188724404304e+00 
73 1 2 1.0279999942180056e+00 -1.4247014357585283e+02 1.0000000000000000e+00 4.5871505216598019e-01 1.7451489536314501e+01 7.8834781367282218e+00 
464 1 2 1.0279999852962700e+00 -2.4539817844636751e+01 1.0000000000000000e+00 2.2443178401465183e+00 1.2389799572864531e+01 1.0629137354949609e+01 
75 1 2 1.0279999998767919e+00 -7.3933446707699005e+01 1.0000000000000000e+00 2.4432431602672140e+00 1.2514744384706365e+01 1.0792478306525160e+01 
66 1 2 1.0279999998767917e+00 -8.8585231498511632e+01 1.0000000000000000e+00 2.4432431600105717e+00 1.2514744384389386e+01 1.0792478306385895e+01 
61 1 2 1.0279999998767888e+00 -4.5664393468838071e+01 1.0000000000000000e+00 2.4432431324888060e+00 1.2514744350434178e+01 1.0792478291022388e+01 
396 1 2 1.0279999998767915e+00 -6.3069114585305897e+01 1.0000000000000000e+00 2.4432431560825054e+00 1.2514744379526787e+01 1.0792478304383517e+01 
82 1 2 1.0279999977954337e+00 -1.0778481199976142e+02 1.0000000000000000e+00 1.1447968629803790e-02 1.0260502745342269e+01 1.0508122827925080e+01 
534 1 2 1.0279999976933236e+00 -4.7695886221120922e+00 1.0000000000000000e+00 1.8658464675083673e-02 1.0259831810081192e+01 1.0514734761622067e+01 
95 1 2 1.0279999976737324e+00 -1.1282748007747475e+01 1.0000000000000000e+00 2.0456283581326479e-02 1.0258448318383701e+01 1.0511116474735246e+01 
373 1 2 1.0279999975306153e+00 -5.2760520747402173e-01 1.0000000000000000e+00 3.4400598160287163e-02 1.0250661425970311e+01 1.0497902318678701e+01 
37 1 2 1.0279999977011509e+00 -4.8901813747668314e+01 1.0000000000000000e+00 2.6839824868713821e-02 1.0246877614742626e+01 1.0475501212875979e+01 
475 1 2 1.0279999977247041e+00 -1.4154688286049918e+01 1.0000000000000000e+00 2.5395432614124584e-02 1.0246849548605018e+01 1.0473858577369835e+01 
466 1 2 1.0279999985245700e+00 -1.0190586418720237e+01 1.0000000000000000e+00 5.4740917737389481e+00 1.0413184427210942e+01 1.2672983064893176e+01 
488 1 2 1.0279999985245671e+00 -4.3630113333167060e+01 1.0000000000000000e+00 5.4741011927700951e+00 1.0413202012615301e+01 1.2672979195519133e+01 