LAMMPS data file via write_data, version 30 Jul 2016, timestep = 50000000

567 atoms
2 atom types

0.0000000000000000e+00 2.0000000000000000e+01 xlo xhi
0.0000000000000000e+00 2.0000000000000000e+01 ylo yhi
0.0000000000000000e+00 2.0000000000000000e+01 zlo zhi

Masses

1 3.896
2 4.31

Atoms # meso-molecular

31 1 2 1.0279999964766497e+00 -3.2797601202439012e+01 1.0000000000000000e+00 2.2183652772742595e+00 2.1041353433765742e+00 5.6203383237533555e-01 
209 1 2 1.0279999964766113e+00 -2.4827705497395883e+01 1.0000000000000000e+00 2.2183625402237936e+00 2.1041741003822589e+00 5.6204019728077337e-01 
48 1 2 1.0279999964836719e+00 -1.6393369754526194e+01 1.0000000000000000e+00 2.2189874985621074e+00 2.0969570468674625e+00 5.5974830987710544e-01 
227 1 2 1.0279999964833795e+00 -1.9790778115799711e+01 1.0000000000000000e+00 2.2190448854247835e+00 2.0969086454992154e+00 5.5897029679884513e-01 
130 1 2 1.0279999964832052e+00 -8.5900660769434580e+00 1.0000000000000000e+00 2.2190855904465403e+00 2.0968536586412028e+00 5.5844540797571141e-01 
380 1 2 1.0280000019346194e+00 -1.2425404509602911e-01 1.0000000000000000e+00 3.6773220012500403e+00 2.6235601071828909e+00 1.4926152663973948e+00 
386 1 2 1.0280000061874244e+00 -7.0699927496488613e+00 1.0000000000000000e+00 4.0081384228522943e+00 1.6283250146986663e+00 1.1971171957882232e+00 
297 1 2 1.0280000061584809e+00 -4.0121968445548362e+01 1.0000000000000000e+00 4.0053152947753370e+00 1.6245528894474672e+00 1.1894562720914081e+00 
498 1 2 1.0280000061572485e+00 -3.9652268916537238e+01 1.0000000000000000e+00 4.0051876698638091e+00 1.6243851116757331e+00 1.1891143846335754e+00 
496 1 2 1.0280000061551098e+00 -4.5449955619949890e+01 1.0000000000000000e+00 4.0049643866032785e+00 1.6240921210488493e+00 1.1885170870147226e+00 
145 1 2 1.0279999910670488e+00 -4.7285936138664731e+01 1.0000000000000000e+00 5.9809522320379536e+00 3.0545135409349302e+00 1.9991896030179299e+00 
351 1 2 1.0279999961983610e+00 -1.5655969676947272e+01 1.0000000000000000e+00 5.9692180607630769e+00 2.6990318295144071e+00 2.3844949799461936e+00 
282 1 2 1.0279999940120277e+00 5.9346903345143680e+00 1.0000000000000000e+00 5.9992795327363337e+00 3.2670183100313905e+00 2.4483333533934264e+00 
230 1 2 1.0279999941400246e+00 -1.8643647176289527e+01 1.0000000000000000e+00 5.9973755188579583e+00 3.2759504915624835e+00 2.4642714770017844e+00 
555 1 2 1.0280000003635623e+00 -1.1538023425955739e+01 1.0000000000000000e+00 2.7990443349456386e+00 3.3069299033966324e+00 6.6595732445929237e+00 
216 1 2 1.0279999858227011e+00 -5.6991793063238148e+01 1.0000000000000000e+00 4.1715886721152868e+00 3.2055068515721259e+00 4.0712238285554321e+00 
113 1 2 1.0280000010441479e+00 -3.7381483271881294e+01 1.0000000000000000e+00 3.0728581526122518e+00 3.4291899199554954e+00 4.6583169549991696e+00 
57 1 2 1.0280000010443939e+00 -7.0210012829676032e+01 1.0000000000000000e+00 3.0730547253458682e+00 3.4292317029151143e+00 4.6581990137706226e+00 
215 1 2 1.0280000010442443e+00 -1.5040414466271216e+01 1.0000000000000000e+00 3.0729348255004707e+00 3.4292062235037033e+00 4.6582709482231666e+00 
339 1 2 1.0280000010445991e+00 -8.0906996711166457e+00 1.0000000000000000e+00 3.0964082355964986e+00 3.4382533150983829e+00 4.6445208608332358e+00 
546 1 2 1.0280000004747962e+00 -3.1446260278696805e+01 1.0000000000000000e+00 2.5850997175539350e+00 3.6667562487202141e+00 6.5804772207641271e+00 
146 1 2 1.0280000002993295e+00 -4.2332383902026187e+01 1.0000000000000000e+00 3.2283072754994686e+00 3.6259215864206924e+00 6.5765536795564552e+00 
46 1 2 1.0280000004598362e+00 -7.8683903389648975e+01 1.0000000000000000e+00 2.5957891425977171e+00 3.5473626493976274e+00 6.6173570662334367e+00 
270 1 2 1.0280000004577743e+00 -1.4609287887889330e+01 1.0000000000000000e+00 2.5961623586030558e+00 3.5360087042591086e+00 6.6186968787154568e+00 
92 1 2 1.0280000026724356e+00 -3.9026735579106273e+01 1.0000000000000000e+00 5.1534476849922557e+00 3.3385113883091719e+00 4.0242380649312208e+00 
181 1 2 1.0280000090218837e+00 -1.9780594981397662e+01 1.0000000000000000e+00 5.5601097957166994e+00 3.4961933421308973e+00 3.7749867007393583e+00 
482 1 2 1.0280000087293597e+00 -2.9389989082135820e+01 1.0000000000000000e+00 5.6245836873433825e+00 3.5238965738718173e+00 3.7025282312201062e+00 
147 1 2 1.0280000090136832e+00 -1.6326281512575306e+01 1.0000000000000000e+00 5.5751386217399350e+00 3.5031882632754154e+00 3.7591560613999082e+00 
143 1 2 1.0280000003354175e+00 -1.5093395170712263e+01 1.0000000000000000e+00 3.0157604888108867e+00 3.4412378646459274e+00 6.6827557088018859e+00 
10 1 2 1.0280000012049462e+00 -6.9165147010716993e+01 1.0000000000000000e+00 4.6777971529250291e+00 5.7022776222617253e+00 1.6151373259911828e+01 
434 1 2 1.0280000010461861e+00 -3.7401012500373149e+01 1.0000000000000000e+00 4.5535142770876424e+00 5.6265073566458037e+00 1.6204452674743123e+01 
358 1 2 1.0279999936665147e+00 -8.0392414066543694e+00 1.0000000000000000e+00 6.4356624067256929e+00 6.4123705965248519e+00 1.6401961063455783e+01 
73 1 2 1.0279999937384496e+00 -1.4247014357585283e+02 1.0000000000000000e+00 6.4374487262320104e+00 6.4117067658232303e+00 1.6404520504387598e+01 
361 1 2 1.0279999949254948e+00 -5.1843119298815743e+01 1.0000000000000000e+00 6.4681574967895559e+00 6.3948579925810254e+00 1.6445253737971125e+01 
206 1 2 1.0279999999045588e+00 -2.6740246065257473e+01 1.0000000000000000e+00 5.3167303501724934e+00 4.3748437045579740e+00 1.6482269771675700e+01 
165 1 2 1.0279999965360107e+00 -2.3665399471108593e+01 1.0000000000000000e+00 6.5147174536848507e+00 6.3631471429484519e+00 1.6503725728003420e+01 
425 1 2 1.0279999986814223e+00 -4.6141035239823658e+01 1.0000000000000000e+00 5.8880898254346032e+00 9.7425442180125703e+00 1.5398339554593482e+01 
558 1 2 1.0279999986737196e+00 -7.1198988422746211e+01 1.0000000000000000e+00 5.8931476971054737e+00 9.7508461326397615e+00 1.5396912013869107e+01 
330 1 2 1.0279999988822814e+00 -2.3509048506290675e+01 1.0000000000000000e+00 5.9153842310359241e+00 9.7879045113643475e+00 1.5415665617615881e+01 
59 1 2 1.0280000076490434e+00 -3.3968853259585046e+01 1.0000000000000000e+00 5.5010468917530675e+00 8.4972291141811809e+00 1.6134312360012338e+01 
310 1 2 1.0279999997096747e+00 -3.5367478961303760e+01 1.0000000000000000e+00 5.6698006884951004e+00 8.6266255131097900e+00 1.6166262944829182e+01 
166 1 2 1.0280000006795189e+00 -2.6538091416559702e+01 1.0000000000000000e+00 5.6461825258617635e+00 8.6002384097003510e+00 1.6172811490345783e+01 
218 1 2 1.0280000012506441e+00 -1.8180535048486647e+01 1.0000000000000000e+00 2.8161214014667308e+00 3.1919155995931199e+00 1.8038320344675839e+01 
52 1 2 1.0280000009883916e+00 -2.6485270309341658e+01 1.0000000000000000e+00 2.9149125834741216e+00 3.0870353183141832e+00 1.7998030505732114e+01 
160 1 2 1.0279999989767599e+00 -6.2247260835423262e+01 1.0000000000000000e+00 4.5520636867108681e+00 3.2586220786861020e+00 1.8316953257996641e+01 
505 1 2 1.0280000037786732e+00 -1.1131052987194074e+02 1.0000000000000000e+00 4.0498106054468934e+00 3.3136831630964547e+00 1.9138488995984662e+01 
365 1 2 1.0280000008743326e+00 -1.4594622226694446e+01 1.0000000000000000e+00 2.8396499082289655e+00 3.6132143972352013e+00 1.7237524831075319e+01 
176 1 2 1.0280000008744397e+00 -1.0609146014992957e+01 1.0000000000000000e+00 2.8396150111182856e+00 3.6131268577351667e+00 1.7237636143875648e+01 
122 1 2 1.0280000008529269e+00 -1.7769638210077332e+01 1.0000000000000000e+00 2.5823635260499884e+00 5.8235312758185342e+00 1.8509705878110243e+01 
29 1 2 1.0280000008441814e+00 -5.5874636670072377e+01 1.0000000000000000e+00 2.5928331115179266e+00 5.8388539142109721e+00 1.8522335289289387e+01 
518 1 2 1.0279999993075322e+00 -2.8442040655687286e+01 1.0000000000000000e+00 2.9985555604412086e+00 6.2977475558203597e+00 1.8620231081454524e+01 
407 1 2 1.0279999993082545e+00 -3.4648807568904132e+01 1.0000000000000000e+00 2.9975994713095679e+00 6.2978593589741632e+00 1.8619672436491417e+01 
447 1 2 1.0279999993169437e+00 -2.3844156939782664e+01 1.0000000000000000e+00 2.9933057373976073e+00 6.2970813561052115e+00 1.8618289726160757e+01 
134 1 2 1.0279999992725750e+00 -2.2596785548210597e+01 1.0000000000000000e+00 3.0178466078737958e+00 6.2999796179510525e+00 1.8627031077885871e+01 
384 1 2 1.0279999996946048e+00 -1.5321824526821562e+01 1.0000000000000000e+00 3.1729382383450946e+00 5.5331482651090003e+00 1.6859087052604355e+01 
495 1 2 1.0279999997322309e+00 -6.5180574743525511e+01 1.0000000000000000e+00 3.6656801502324523e+00 3.5254808813126757e+00 1.6784666019877488e+01 
219 1 2 1.0279999993878248e+00 -3.6450487511345440e+00 1.0000000000000000e+00 3.8218476895917299e+00 3.5761846055735025e+00 1.6753094428043980e+01 
305 1 2 1.0279999919839475e+00 1.0848481749133111e+01 1.0000000000000000e+00 5.2488051658768144e+00 3.7829448181312832e+00 1.7123549989873048e+01 
184 1 2 1.0280000008394685e+00 -9.0424467426880888e+00 1.0000000000000000e+00 3.9444689378711262e+00 3.8198081659126872e+00 1.9205366583986688e+01 
499 1 2 1.0279999989192974e+00 -2.2749143504667877e+01 1.0000000000000000e+00 4.1338978453007726e+00 4.0003932986804385e+00 1.9150888179678184e+01 
300 1 2 1.0280000026990093e+00 9.5719267332184934e+00 1.0000000000000000e+00 6.2033355102235079e+00 5.2298889181877701e+00 1.8707955999026918e+01 
349 1 2 1.0280000027066929e+00 4.9649661487521278e-02 1.0000000000000000e+00 6.2066553845140078e+00 5.2269419034921372e+00 1.8708913574025349e+01 
432 1 2 1.0280000027990621e+00 -4.9266948985979312e+01 1.0000000000000000e+00 6.2232536604180213e+00 5.2217543300712626e+00 1.8709559826663696e+01 
381 1 2 1.0280000027990637e+00 9.2527655432549718e+00 1.0000000000000000e+00 6.2232536686706252e+00 5.2217543279036231e+00 1.8709559826781085e+01 
347 1 2 1.0280000028000367e+00 -2.7831655275261085e+00 1.0000000000000000e+00 6.2234221136456673e+00 5.2217104326574963e+00 1.8709562069122182e+01 
428 1 2 1.0280000029266494e+00 -1.0733967638345117e+01 1.0000000000000000e+00 4.3163056694748736e+00 7.0416678498238836e+00 1.6753112635626120e+01 
514 1 2 1.0280000029185170e+00 -7.9201471076106344e+01 1.0000000000000000e+00 4.3154467264304177e+00 7.0405386355671391e+00 1.6751729411893720e+01 
172 1 2 1.0280000029233332e+00 -3.4434643750769908e+01 1.0000000000000000e+00 4.3159542353958118e+00 7.0412077912461033e+00 1.6752550139423413e+01 
538 1 2 1.0280000000185479e+00 -2.3540069322926346e+01 1.0000000000000000e+00 2.1793580719957313e+00 1.4354731490926758e+01 2.2102529041066261e+00 
263 1 2 1.0280000000228067e+00 -1.8768138905173622e+01 1.0000000000000000e+00 2.2075406781301941e+00 1.4357984230693326e+01 2.2121215575774889e+00 
202 1 2 1.0280000000138685e+00 -2.3090085819230040e+01 1.0000000000000000e+00 2.4052911744150873e+00 1.4387869783748998e+01 2.2401498080054383e+00 
45 1 2 1.0279999996758145e+00 -3.5050247730488863e+01 1.0000000000000000e+00 2.8297618424883910e+00 1.4459967629323218e+01 2.3786483422649169e+00 
385 1 2 1.0279999987423114e+00 -1.5255678897859628e+01 1.0000000000000000e+00 5.7037358252099013e-01 1.4390200728475044e+01 2.8073837703230020e+00 
331 1 2 1.0279999986503636e+00 -1.5719509469285995e+01 1.0000000000000000e+00 5.4456903855980998e-01 1.4400919568019789e+01 2.8297097256507944e+00 
561 1 2 1.0279999996811404e+00 -9.5923844574223395e+01 1.0000000000000000e+00 3.1244910716153695e+00 1.3979440205195479e+01 2.7822949759943008e+00 
523 1 2 1.0279999996945417e+00 -5.6688275938844342e+01 1.0000000000000000e+00 3.2916459056077825e+00 1.3916307708347421e+01 3.3059541164984050e+00 
497 1 2 1.0279999978704237e+00 -3.0249684001058831e+01 1.0000000000000000e+00 5.5808732426522587e+00 1.5725378146345276e+01 3.2438747634381215e+00 
148 1 2 1.0279999986764985e+00 -4.2001410546333673e+01 1.0000000000000000e+00 5.5819985466667834e+00 1.5725199816747555e+01 3.2468925837401406e+00 
223 1 2 1.0279999979986172e+00 -2.1028630169178371e+01 1.0000000000000000e+00 5.5845553068162532e+00 1.5725957807831961e+01 3.2433176421557413e+00 
264 1 2 1.0279999990550179e+00 -1.5146781776225186e+01 1.0000000000000000e+00 5.5853804628879491e+00 1.5725650097554263e+01 3.2476432223918943e+00 
258 1 2 1.0279999991463520e+00 -1.2915745440213509e+01 1.0000000000000000e+00 5.5854203594869567e+00 1.5725628428749905e+01 3.2480345315026899e+00 
108 1 2 1.0279999991571325e+00 -3.4734922109890128e+01 1.0000000000000000e+00 5.5826955126251017e+00 1.5725153973454923e+01 3.2487536739713732e+00 
423 1 2 1.0279999985632493e+00 -3.8020655601870018e+01 1.0000000000000000e+00 3.2962422620503991e+00 1.8077667680121493e+01 8.6820260641764777e-02 
368 1 2 1.0279999995592519e+00 -2.9560313728475240e+01 1.0000000000000000e+00 3.3177920865503685e+00 1.7604031148555162e+01 2.2844184061736048e-01 
489 1 2 1.0280000037185528e+00 -6.8587470554104144e+01 1.0000000000000000e+00 6.4212698710974641e+00 1.7016113905635240e+01 5.6329710115025866e-01 
309 1 2 1.0280000001867200e+00 -2.6845425359431093e+01 1.0000000000000000e+00 4.6755672380412676e+00 1.7518083025320998e+01 5.2900498295837062e-01 
158 1 2 1.0279999998022458e+00 -6.4006714757872757e+01 1.0000000000000000e+00 3.7548941051469122e+00 1.8027305223488096e+01 3.7284808684340848e-01 
477 1 2 1.0279999994549816e+00 -5.4742274208503090e+01 1.0000000000000000e+00 3.5490554015473403e+00 1.8066932711542485e+01 2.6365660876454883e-01 
77 1 2 1.0279999991154813e+00 -7.2710022356051383e+01 1.0000000000000000e+00 3.4336332270704855e+00 1.8083018877787516e+01 1.8444487868760548e-01 
62 1 2 1.0280000003031442e+00 -3.4318815649491285e+01 1.0000000000000000e+00 7.2162344286971969e-01 1.3073574778322580e+01 4.1524848325234505e+00 
68 1 2 1.0280000003031324e+00 -3.7237522471572959e+01 1.0000000000000000e+00 7.2162337451948055e-01 1.3073574807661272e+01 4.1524848278307855e+00 
237 1 2 1.0280000003031322e+00 -4.1444466137870691e+01 1.0000000000000000e+00 7.2162341040686184e-01 1.3073574792254782e+01 4.1524848302842665e+00 
481 1 2 1.0280000003031275e+00 -3.4500564152109277e+01 1.0000000000000000e+00 7.2162280997100692e-01 1.3073575049967253e+01 4.1524847889668974e+00 
126 1 2 1.0280000004633725e+00 -4.4860764167937702e+01 1.0000000000000000e+00 1.3067508943858963e+00 1.3342301373008031e+01 4.7427000482628197e+00 
255 1 2 1.0280000001288492e+00 -1.2929570786171714e+01 1.0000000000000000e+00 1.9692759395652861e+00 1.3558662866032510e+01 4.7223530720305815e+00 
340 1 2 1.0279999997735216e+00 -2.2461347694193002e+01 1.0000000000000000e+00 1.2187663925684240e+00 1.5284965914398494e+01 3.6321791431851063e+00 
531 1 2 1.0279999998266840e+00 -1.3856259427318747e+02 1.0000000000000000e+00 1.7511540667626073e+00 1.5763422344489728e+01 5.3010953507046255e+00 
515 1 2 1.0279999987797750e+00 -3.7615503920070694e+01 1.0000000000000000e+00 2.5258106981723008e+00 1.6023089643984239e+01 5.0330003862352823e+00 
142 1 2 1.0280000018419970e+00 -2.7313101943474891e+01 1.0000000000000000e+00 2.5579557817213665e+00 1.5737155796589786e+01 4.9090829274319958e+00 
271 1 2 1.0280000003553553e+00 -3.3756372645176910e+01 1.0000000000000000e+00 2.5871714785111246e+00 1.4763978823870289e+01 4.8955557638836922e+00 
458 1 2 1.0279999999125577e+00 -4.4711178522816596e+01 1.0000000000000000e+00 3.9788384579081697e+00 1.4932227585241206e+01 4.0177923856489173e+00 
387 1 2 1.0280000002547722e+00 -5.5633650174416630e+01 1.0000000000000000e+00 3.6552170879392873e+00 1.5137785523518678e+01 4.2180618341667699e+00 
101 1 2 1.0280000009891359e+00 -3.6402355344100158e+01 1.0000000000000000e+00 2.1013324006918213e+00 1.7725639380527664e+01 5.8497231827381553e+00 
194 1 2 1.0280000009885244e+00 -3.1952657517608920e+01 1.0000000000000000e+00 2.1012475480659374e+00 1.7725621999210954e+01 5.8496774517107983e+00 
484 1 2 1.0280000009891468e+00 -2.9398152493943421e+01 1.0000000000000000e+00 2.1013338272698552e+00 1.7725639670542009e+01 5.8497239706009481e+00 
352 1 2 1.0280000008016856e+00 -4.3041559054174627e+01 1.0000000000000000e+00 2.0751390090347064e+00 1.7719056594465972e+01 5.8393767652999768e+00 
85 1 2 1.0280000010656476e+00 -2.7480663741002562e+01 1.0000000000000000e+00 2.1120812832014320e+00 1.7727511475671012e+01 5.8569476105120657e+00 
520 1 2 1.0280000019799431e+00 -2.7095508001160248e+01 1.0000000000000000e+00 2.4781775899976695e+00 1.7609338808006342e+01 5.9378252761770858e+00 
403 1 2 1.0279999957470372e+00 -3.2845193223645694e+01 1.0000000000000000e+00 3.9535705524140283e+00 1.9794096521032031e+01 4.1501967616516025e+00 
516 1 2 1.0280000172796959e+00 -3.5332626605110690e+01 1.0000000000000000e+00 4.0854689012127468e+00 1.9913103939066787e+01 4.1303131587865618e+00 
294 1 2 1.0280000172786912e+00 -1.9984147780631091e+01 1.0000000000000000e+00 4.0854657806323269e+00 1.9913098426889398e+01 4.1303092550146578e+00 
136 1 2 1.0280000172820172e+00 -3.3113549779827466e+01 1.0000000000000000e+00 4.0854760189222716e+00 1.9913116518730348e+01 4.1303220684519184e+00 
117 1 2 1.0280000180986448e+00 -6.3474773726243129e+01 1.0000000000000000e+00 4.0092791596280524e+00 1.9968374086140393e+01 4.1850146802769830e+00 
503 1 2 1.0279999917956213e+00 -3.0561381324145103e+01 1.0000000000000000e+00 3.9173583558364586e+00 1.9873007475428906e+01 4.3114300882377625e+00 
220 1 2 1.0279999905237935e+00 -2.4885429097096640e+01 1.0000000000000000e+00 3.9255781983304994e+00 1.9866740414369936e+01 4.3244274759814330e+00 
413 1 2 1.0279999991906166e+00 -6.6935201369926745e+01 1.0000000000000000e+00 1.0864248599582247e+00 1.5876900970376157e+01 8.5829053750941586e+00 
459 1 2 1.0280000021570324e+00 -6.5951632922114015e+01 1.0000000000000000e+00 1.1155794930980361e+00 1.6157296644235021e+01 8.6284200875627661e+00 
128 1 2 1.0279999993959397e+00 -3.7592122418112140e+01 1.0000000000000000e+00 1.1120911653874295e+00 1.5418734587820808e+01 8.8562298679290130e+00 
338 1 2 1.0279999978513110e+00 -5.8330006640404051e+00 1.0000000000000000e+00 5.5067219358721853e-01 1.4528471406500337e+01 9.2850607048914302e+00 
164 1 2 1.0280000004315382e+00 -5.9449698907060338e+01 1.0000000000000000e+00 4.0778314775817320e-01 1.4451571339694421e+01 9.6332461416767519e+00 
526 1 2 1.0280000006463059e+00 -3.2049973381041724e+01 1.0000000000000000e+00 6.0370589359537332e+00 1.5825571857287926e+01 8.4553108405686235e+00 
344 1 2 1.0280000005054486e+00 -2.0571573708813837e+01 1.0000000000000000e+00 5.8905685124238190e+00 1.5517653724667976e+01 8.1667078286112478e+00 
84 1 2 1.0280000005054719e+00 -3.7516678899133318e+01 1.0000000000000000e+00 5.8905815060633282e+00 1.5517630344279802e+01 8.1667061699130201e+00 
27 1 2 1.0280000006930516e+00 -1.0110205828184809e+02 1.0000000000000000e+00 6.0185968921429476e+00 1.5760293229419563e+01 8.4422836926940530e+00 
2 1 2 1.0280000005054695e+00 -6.8326245912052357e+01 1.0000000000000000e+00 5.8905792764300564e+00 1.5517634356128589e+01 8.1667064546292014e+00 
315 1 2 1.0280000004019441e+00 -1.3926409490039902e+01 1.0000000000000000e+00 6.4843579091566497e+00 1.5479175804983479e+01 6.8882329813030134e+00 
397 1 2 1.0280000003986118e+00 -4.3360271776495580e+01 1.0000000000000000e+00 6.5745080044579627e+00 1.6238975616086666e+01 8.4465932286754839e+00 
119 1 2 1.0279999997548341e+00 -3.6314408402978387e+01 1.0000000000000000e+00 2.7581641644762582e+00 1.7406374128765542e+01 8.9495638936561228e+00 
257 1 2 1.0279999997548368e+00 -5.6040438819024700e+00 1.0000000000000000e+00 2.7581641260457594e+00 1.7406374138120469e+01 8.9495638733678309e+00 
131 1 2 1.0279999997548355e+00 -2.2854630942430802e+01 1.0000000000000000e+00 2.7581641234244643e+00 1.7406374138754785e+01 8.9495638719838908e+00 
320 1 2 1.0279999997548361e+00 -3.2309029914180726e+01 1.0000000000000000e+00 2.7581641260450600e+00 1.7406374138120363e+01 8.9495638733674525e+00 
91 1 2 1.0279999997548355e+00 -4.4471950025923704e+01 1.0000000000000000e+00 2.7581641260455911e+00 1.7406374138120484e+01 8.9495638733677367e+00 
173 1 2 1.0280000015958191e+00 -3.1029573383899546e+01 1.0000000000000000e+00 1.4795192427851509e+00 1.1190071961536059e+01 1.2190278173513949e+01 
58 1 2 1.0280000018968269e+00 -2.8111979858230470e+01 1.0000000000000000e+00 1.5509143553853322e+00 1.1189982515622765e+01 1.2194200489665310e+01 
90 1 2 1.0280000018966202e+00 -6.6404114639136878e+01 1.0000000000000000e+00 1.5509449141303298e+00 1.1189983293962051e+01 1.2194157477595859e+01 
375 1 2 1.0280000015675754e+00 -3.1237617075479868e+01 1.0000000000000000e+00 1.4785360606164313e+00 1.1189873150062606e+01 1.2186422417011460e+01 
554 1 2 1.0280000015675175e+00 -3.7464085990771935e+01 1.0000000000000000e+00 1.4785336717572262e+00 1.1189873150025390e+01 1.2186415704863389e+01 
11 1 2 1.0280000015680193e+00 -4.1593434846499996e+01 1.0000000000000000e+00 1.4785539902098503e+00 1.1189873122995863e+01 1.2186472434342715e+01 
491 1 2 1.0280000015707895e+00 -9.7835208227409737e+01 1.0000000000000000e+00 1.4786693236960218e+00 1.1189871650366618e+01 1.2186778170989342e+01 
277 1 2 1.0279999976661562e+00 1.5553888888227912e-01 1.0000000000000000e+00 1.4858659823122984e+00 1.4338614798333181e+01 1.1707818159770625e+01 
509 1 2 1.0279999976448568e+00 -5.0343000063581570e+01 1.0000000000000000e+00 1.4871121448919540e+00 1.4337641606451163e+01 1.1706988351795466e+01 
490 1 2 1.0279999976448972e+00 -8.7867921303756304e+01 1.0000000000000000e+00 1.4871096686380669e+00 1.4337643558029230e+01 1.1706990007625471e+01 
319 1 2 1.0279999976449501e+00 -2.7473092477759216e+01 1.0000000000000000e+00 1.4871067058707050e+00 1.4337645892913512e+01 1.1706991988735574e+01 
236 1 2 1.0280000020701889e+00 -5.2387094429289704e+01 1.0000000000000000e+00 1.3068012118142718e+00 1.5175707506628360e+01 1.0018412063636429e+01 
200 1 2 1.0279999984916772e+00 -2.1805424991373918e+01 1.0000000000000000e+00 4.8040435423807631e-01 1.6401203002479772e+01 1.1453630414010727e+01 
406 1 2 1.0280000011601025e+00 -2.5526896394772002e+01 1.0000000000000000e+00 3.4419569090401789e+00 1.3927944461748003e+01 1.1888935555928482e+01 
564 1 2 1.0280000014317887e+00 -1.9580694777402620e+01 1.0000000000000000e+00 3.3766825023120579e+00 1.3939880995238672e+01 1.1911920621833010e+01 
451 1 2 1.0279999972062182e+00 -6.9259118946335931e+01 1.0000000000000000e+00 3.7183736856650071e+00 1.3961417570410726e+01 1.1817690282519868e+01 
366 1 2 1.0279999934236492e+00 -2.1199987071856491e+01 1.0000000000000000e+00 3.8512321256917446e+00 1.3991741769313007e+01 1.1787449073332223e+01 
195 1 2 1.0279999880922044e+00 -1.6753659872882643e+01 1.0000000000000000e+00 4.3639042822936025e+00 1.4066068365048071e+01 1.1658505446958737e+01 
500 1 2 1.0280000079218201e+00 -6.1783839472863860e+01 1.0000000000000000e+00 4.5691621833084799e+00 1.4113100953545292e+01 1.1570529184829523e+01 
235 1 2 1.0280000069516386e+00 -9.2110219360116503e+01 1.0000000000000000e+00 5.4130588929304171e+00 1.4184321279591444e+01 1.1531368562933885e+01 
188 1 2 1.0279999989859812e+00 -3.1192104909559738e+01 1.0000000000000000e+00 4.8223469650175316e-01 1.6783381001883072e+01 1.1440500996124024e+01 
356 1 2 1.0279999987001973e+00 1.0919903273700823e+01 1.0000000000000000e+00 2.5007147456864581e-01 1.6957879785136413e+01 1.1577013698094291e+01 
402 1 2 1.0280000005427232e+00 -3.5902141425761783e+01 1.0000000000000000e+00 3.1923467075130643e+00 1.8197502445032548e+01 1.1057552059442873e+01 
306 1 2 1.0280000005416003e+00 9.2798233939027259e+00 1.0000000000000000e+00 3.1929338641303735e+00 1.8197084306342912e+01 1.1057501319460691e+01 
154 1 2 1.0280000005465804e+00 -6.0621273909736516e+01 1.0000000000000000e+00 3.1907620483744261e+00 1.8198143538851383e+01 1.1057903702696333e+01 
65 1 2 1.0280000005458441e+00 -9.8537317330240739e+01 1.0000000000000000e+00 3.1910267159042776e+00 1.8198091217152324e+01 1.1057820693488049e+01 
376 1 2 1.0280000005431127e+00 -6.5176601005680652e+00 1.0000000000000000e+00 3.1924195399014685e+00 1.8197133367743529e+01 1.1057688290027329e+01 
328 1 2 1.0280000005465060e+00 -3.1620147505024327e+00 1.0000000000000000e+00 3.1873923638826147e+00 1.8204214002593435e+01 1.1056462156994503e+01 
133 1 2 1.0280000003546359e+00 -1.3119968849492636e+01 1.0000000000000000e+00 6.1949932126576801e+00 1.0016023137121570e+01 1.5379098704374460e+01 
536 1 2 1.0279999994055014e+00 -3.2785364519139762e+01 1.0000000000000000e+00 7.2825205297280773e-02 1.4046687116009316e+01 1.7916877927458501e+01 
276 1 2 1.0279999994291686e+00 1.9152378476384605e+01 1.0000000000000000e+00 6.8962028763009831e-02 1.4045328675694227e+01 1.7906883703652415e+01 
8 1 2 1.0279999994107110e+00 -8.6502174227873837e+01 1.0000000000000000e+00 7.1850936678171523e-02 1.4046301358706627e+01 1.7914653308758783e+01 
511 1 2 1.0279999994103259e+00 -1.4219277578143874e+01 1.0000000000000000e+00 7.2092442809946311e-02 1.4046430407765083e+01 1.7914844282497423e+01 
359 1 2 1.0279999994130580e+00 -1.5739034560862546e+01 1.0000000000000000e+00 7.9725593097102171e-02 1.4051102677886140e+01 1.7915015957970269e+01 
273 1 2 1.0280000005496412e+00 -9.2511785540822906e+00 1.0000000000000000e+00 9.4806501492937445e-01 1.6228267836837780e+01 1.7688109002929099e+01 
23 1 2 1.0280000005496392e+00 -5.1541127801815527e+01 1.0000000000000000e+00 9.4806443648804151e-01 1.6228266033854645e+01 1.7688108435912383e+01 
492 1 2 1.0280000005496441e+00 -9.5410827517113646e+01 1.0000000000000000e+00 9.4806441948334852e-01 1.6228265980881805e+01 1.7688108419245438e+01 
346 1 2 1.0280000005496381e+00 -8.0397492162833046e+00 1.0000000000000000e+00 9.4806375132490028e-01 1.6228263909251485e+01 1.7688107764964357e+01 
35 1 2 1.0279999999707146e+00 -2.7223096695678855e+01 1.0000000000000000e+00 4.7805743166901964e+00 1.6506240324234604e+01 1.9100750781521633e+01 
254 1 2 1.0279999967555300e+00 -2.6808513025609102e+01 1.0000000000000000e+00 2.4365356726246064e+00 1.7666087189548740e+01 1.9275801523601618e+01 
26 1 2 1.0279999997271696e+00 -2.4780266295162836e+01 1.0000000000000000e+00 7.7563117194840370e-01 1.7637963508461038e+01 1.9041192880172446e+01 
260 1 2 1.0279999997093781e+00 -1.3460291060950691e+01 1.0000000000000000e+00 7.7390897004622461e-01 1.7634395961459543e+01 1.9044094687315120e+01 
416 1 2 1.0279999999626321e+00 -3.0014328551467507e+01 1.0000000000000000e+00 8.1834335631274224e-01 1.7670417204483147e+01 1.9044634415678125e+01 
253 1 2 1.0280000002755327e+00 -7.0378029538071530e+01 1.0000000000000000e+00 8.7039594150725474e-01 1.7725496709643604e+01 1.9012143267697667e+01 
155 1 2 1.0280000002680227e+00 -9.8578447571808496e+01 1.0000000000000000e+00 8.6976130889352055e-01 1.7723683873636823e+01 1.9015164305513323e+01 
373 1 2 1.0279999972637996e+00 -5.2760520756283957e-01 1.0000000000000000e+00 6.0134334331155515e+00 1.9210730981594221e+01 1.9018948849587773e+01 
82 1 2 1.0279999975530569e+00 -1.0778481199976142e+02 1.0000000000000000e+00 5.9904801353257948e+00 1.9220572140946953e+01 1.9029169835387652e+01 
72 1 2 1.0280000007972729e+00 -9.4715155083143571e+01 1.0000000000000000e+00 5.1486951660588076e+00 1.6741237840274064e+01 1.8578938410966696e+01 
42 1 2 1.0280000007972729e+00 -2.3761216662106193e+01 1.0000000000000000e+00 5.1486948503151950e+00 1.6741237800000583e+01 1.8578938473289128e+01 
494 1 2 1.0280000007972618e+00 -6.8290514005824406e+01 1.0000000000000000e+00 5.1486926333702181e+00 1.6741237517237064e+01 1.8578938910869208e+01 
251 1 2 1.0280000007972612e+00 -4.8263934359567585e+01 1.0000000000000000e+00 5.1486888482867466e+00 1.6741237034439838e+01 1.8578939658000056e+01 
283 1 2 1.0280000026844653e+00 -8.8620561754008236e+00 1.0000000000000000e+00 6.4461529975808514e+00 1.7002300614872521e+01 1.9003838671652144e+01 
534 1 2 1.0279999974393250e+00 -4.7695886221120922e+00 1.0000000000000000e+00 5.9976907598192666e+00 1.9219901406106597e+01 1.9035781885757419e+01 
475 1 2 1.0279999974820784e+00 -1.4154688286049918e+01 1.0000000000000000e+00 6.0044282062981571e+00 1.9206918531940580e+01 1.8994904577974953e+01 
95 1 2 1.0279999974185390e+00 -1.1282748007747475e+01 1.0000000000000000e+00 5.9994886524698243e+00 1.9218517896316420e+01 1.9032163484395053e+01 
37 1 2 1.0279999974558489e+00 -4.8901813747668314e+01 1.0000000000000000e+00 6.0058726226609229e+00 1.9206946649521957e+01 1.8996547238968642e+01 
395 1 2 1.0280000157248708e+00 -5.0588199315239635e+01 1.0000000000000000e+00 6.8276962375076193e+00 2.5248438850699415e+00 8.3935217990938935e-02 
400 1 2 1.0280000080103948e+00 -1.7932721060994155e+01 1.0000000000000000e+00 6.8151237090789278e+00 2.4862469537630614e+00 1.6124061882098750e-01 
370 1 2 1.0280000068870976e+00 -5.9112111810394069e+01 1.0000000000000000e+00 6.8147815002972782e+00 2.4825037112966104e+00 1.7002337403208537e-01 
208 1 2 1.0279999844658052e+00 -3.7628078390674787e+01 1.0000000000000000e+00 6.8468461172424240e+00 2.4426941852792927e+00 3.0969791326954421e-01 
480 1 2 1.0279999982193602e+00 -5.9055389051024989e+01 1.0000000000000000e+00 1.1251852452046924e+01 1.0479253964196553e+00 3.0119820628708784e+00 
247 1 2 1.0279999982349237e+00 -2.2572896865401745e+01 1.0000000000000000e+00 1.1248707813802300e+01 1.0488894969824367e+00 3.0180100835267267e+00 
203 1 2 1.0279999982347467e+00 -8.7064163478727572e+00 1.0000000000000000e+00 1.1248938954553223e+01 1.0485694633516780e+00 3.0178159034938754e+00 
468 1 2 1.0279999982326686e+00 -5.4630281510299810e+01 1.0000000000000000e+00 1.1249262328279357e+01 1.0485897690221710e+00 3.0170821857823920e+00 
278 1 2 1.0280000056546348e+00 -5.9684823074337512e+00 1.0000000000000000e+00 1.0366803626101470e+01 2.2518980728159285e-01 1.6443104567033469e+00 
12 1 2 1.0280000056434955e+00 -4.2068892178341045e+01 1.0000000000000000e+00 1.0366225913860038e+01 2.2313985109995149e-01 1.6443143500206867e+00 
541 1 2 1.0279999983454169e+00 -1.2190549651750271e+02 1.0000000000000000e+00 8.3130310442507067e+00 7.1715476377806997e+00 2.0244579716731552e+00 
89 1 2 1.0279999983274610e+00 -6.4484972998836227e+01 1.0000000000000000e+00 8.3116106236088250e+00 7.1714966284630304e+00 2.0265446224019961e+00 