LAMMPS data file via write_data, version 30 Jul 2016, timestep = 50000000

4620 atoms
8 atom types

0.0000000000000000e+00 1.0000000000000000e+02 xlo xhi
0.0000000000000000e+00 4.0000000000000000e+01 ylo yhi
0.0000000000000000e+00 4.0000000000000000e+01 zlo zhi

Masses

1 3.896
2 5.36
3 20.064
4 8.378
5 8.378
6 8.378
7 8.378
8 8.378

Atoms # meso-molecular

980 981 2 1.0280000003967253e+00 8.8297691888691475e+01 1.0000000000000000e+00 5.2561326171374512e-01 1.9712910988095604e+00 1.1608325149909526e+00 
559 560 2 1.0280000004575160e+00 2.1632408728706832e+03 1.0000000000000000e+00 1.2224092339484749e+00 2.3818185300926507e+00 1.4915995069271012e-01 
1425 1426 2 1.0279999996887825e+00 -1.1066008767944486e+03 1.0000000000000000e+00 2.8464709595149600e+00 7.8119550402116236e+00 1.6780378865731052e+00 
1669 1670 2 1.0280000010566910e+00 2.5787562885755228e+03 1.0000000000000000e+00 1.0846665586581694e+00 9.3107224440779923e+00 1.1570325309152591e+00 
1251 1252 2 1.0280000033812446e+00 9.5279044732181660e+02 1.0000000000000000e+00 6.0118296439491925e-01 1.2237042601858395e+01 9.8973104808415646e-01 
1667 1668 2 1.0279999987706236e+00 2.6148914254021161e+03 1.0000000000000000e+00 1.5315368638383529e+00 1.1193041216874015e+01 1.1553560994492129e+00 
663 664 2 1.0279999991478825e+00 -4.4747600225422320e+02 1.0000000000000000e+00 4.2302889161213661e+00 1.1670000765117466e+01 1.5634845005480744e+00 
10 11 2 1.0280000002189897e+00 -6.5903596316184667e+02 1.0000000000000000e+00 4.7317700403465661e+00 1.2571247083227586e+01 5.8547146459478849e-01 
371 372 2 1.0279999972188949e+00 2.7595939161817478e+02 1.0000000000000000e+00 1.2113679744261836e+00 1.3822327425838029e+01 1.0772759676195758e+00 
1380 1381 2 1.0280000014713664e+00 -1.6539795307213774e+03 1.0000000000000000e+00 2.2519402083895992e+00 1.2935706286833238e+01 6.5132752061369981e-01 
1710 1711 2 1.0280000037906407e+00 4.9348846560227651e+02 1.0000000000000000e+00 3.0159829650754033e+00 1.4023272109500304e+01 2.7469124178236037e-01 
1795 1796 2 1.0279999967423723e+00 3.7546185699307864e+02 1.0000000000000000e+00 2.6814105626628232e-01 1.5157398961088719e+01 5.5421255265875213e-01 
1437 1438 2 1.0279999983109207e+00 9.4637675084992088e+02 1.0000000000000000e+00 4.7906885671076411e+00 1.4950295211583031e+01 1.4826639896949130e+00 
1773 1774 2 1.0279999989310520e+00 9.4838003648972290e+02 1.0000000000000000e+00 4.3584806877263134e+00 1.5102941945657268e+01 1.3424774568216588e-01 
1473 1474 2 1.0280000012262964e+00 1.2461608749044026e+03 1.0000000000000000e+00 1.0299400609191109e+00 1.7684002519982464e+01 1.5931817545595910e+00 
505 506 2 1.0279999995012938e+00 1.0087642577607110e+02 1.0000000000000000e+00 1.0169249280696167e+00 1.9744896724890836e+01 9.2436803269886986e-02 
1559 1560 2 1.0280000020934341e+00 1.3192949890559994e+03 1.0000000000000000e+00 4.2215943964020743e+00 1.8741809290433633e+01 1.6276690290065934e+00 
44 45 2 1.0280000013172332e+00 -2.9533999582914157e+02 1.0000000000000000e+00 4.4847729020258020e+00 1.9595295393913943e+01 1.2262105345473580e+00 
3162 3163 2 1.0280000000000000e+00 3.4442264472729431e+02 1.0000000000000000e+00 7.9540506447072659e+00 1.5876245400786444e+00 3.4733731590227528e+00 
422 423 2 1.0279999986467223e+00 -7.6728216636338544e+01 1.0000000000000000e+00 3.5413776818962686e+00 7.0186070535084921e+00 2.4352495240461862e+00 
112 113 2 1.0279999992326825e+00 -2.1699335451329316e+03 1.0000000000000000e+00 2.2874271148480281e+00 8.7806806607762606e+00 2.3522113970291327e+00 
3976 3977 2 1.0280000023966738e+00 5.3116950301125962e+02 1.0000000000000000e+00 5.0231695184953251e+00 8.9617295632750640e+00 3.1297307486987664e+00 
1585 1586 2 1.0280000013845390e+00 2.5761957852928322e+03 1.0000000000000000e+00 1.2763077622577130e+00 1.0033837076277290e+01 2.5967450575848350e+00 
3977 3978 2 1.0279999990961526e+00 -1.9680706611485753e+03 1.0000000000000000e+00 5.3590700066213746e+00 9.6262333573936267e+00 2.4463760902280409e+00 
1583 1584 2 1.0280000028911080e+00 2.6100570681274730e+03 1.0000000000000000e+00 1.1629137844095447e+00 1.2107161550315331e+01 3.0639830948136431e+00 
973 974 2 1.0279999996758309e+00 -4.6199473672030126e+02 1.0000000000000000e+00 4.4372403666688642e+00 1.0912564456612390e+01 2.4400333824562850e+00 
1122 1123 2 1.0279999992025561e+00 2.1053503146559410e+03 1.0000000000000000e+00 2.2431676003883494e+00 1.4089736939549752e+01 3.2082646402310449e+00 
960 961 2 1.0280000024651201e+00 -1.6531109463067392e+03 1.0000000000000000e+00 2.8002965872167271e+00 1.2884125632555762e+01 3.3459387306436574e+00 
3894 3895 2 1.0280000002331982e+00 6.2895554061277650e+01 1.0000000000000000e+00 1.4654808101359207e+00 1.5707956021071096e+01 2.1936274155906879e+00 
198 199 2 1.0280000041513386e+00 9.8600722070173538e+02 1.0000000000000000e+00 6.9715690248295425e-01 1.4638321967577269e+01 2.7138796317279983e+00 
1542 1543 2 1.0280000013292274e+00 5.0001313804752306e+02 1.0000000000000000e+00 2.8867470181644102e+00 1.4808114496483153e+01 1.8236938789260879e+00 
1936 1937 2 1.0280000026371241e+00 3.2313949443466959e+02 1.0000000000000000e+00 3.0075740471631556e+00 1.6241117181444963e+01 2.5666322087537865e+00 
174 175 2 1.0279999991752706e+00 6.1090053930396618e+02 1.0000000000000000e+00 4.3809677614907443e+00 1.4916255798643643e+01 2.8125590243303940e+00 
133 134 2 1.0280000002831740e+00 -7.1001875109496177e+02 1.0000000000000000e+00 4.4318002792446078e+00 1.6284593880273682e+01 2.4819569798744321e+00 
1474 1475 2 1.0279999974779523e+00 -5.8703711852338370e+02 1.0000000000000000e+00 1.9086692601398203e+00 1.8102338889285917e+01 2.4187483196556716e+00 
599 600 2 1.0280000018095665e+00 -1.8661857992335440e+03 1.0000000000000000e+00 3.3823961126770952e+00 1.8008705399893682e+01 2.7652762166063214e+00 
1608 1609 2 1.0279999999649967e+00 6.0803576399588701e+03 1.0000000000000000e+00 5.9498842937114951e+00 1.7364170056753743e+01 3.4362402743878881e+00 
3538 3539 2 1.0280000000000000e+00 7.5090840785454554e+02 1.0000000000000000e+00 7.5233908948667416e+00 1.8097286183080681e+00 3.9887805069313336e+00 
1194 1195 2 1.0279999920579033e+00 2.0464849332040787e+03 1.0000000000000000e+00 1.8387177470897667e+00 5.0774175193836157e+00 4.8191949812887858e+00 
312 313 2 1.0280000009661632e+00 -2.4177818541125498e+03 1.0000000000000000e+00 5.7730433904851397e-01 5.9351110613474658e+00 4.0037282025357106e+00 
6 7 2 1.0280000044414286e+00 -7.1303509652547211e+02 1.0000000000000000e+00 1.8233643922127312e+00 7.2418543316897939e+00 4.7831273402666348e+00 
1273 1274 2 1.0280000033170784e+00 -2.9886221052825198e+02 1.0000000000000000e+00 2.3300698531965298e+00 5.6520280644853438e+00 4.1543624085126680e+00 
50 51 2 1.0279999931721726e+00 2.1160158561404626e+02 1.0000000000000000e+00 7.9853198988769825e-01 8.1678867549415308e+00 4.9229395830910159e+00 
1016 1017 2 1.0280000043867588e+00 -1.9428947825597945e+02 1.0000000000000000e+00 3.2727455690769656e+00 8.2437827373318573e+00 3.6562032774839168e+00 
426 427 2 1.0279999977038679e+00 -7.1307565026717566e+02 1.0000000000000000e+00 4.1881733172587321e+00 7.4156481712334905e+00 3.6364635223226927e+00 
622 623 2 1.0280000006332650e+00 -2.8024940187134980e+01 1.0000000000000000e+00 3.0363662143050463e+00 1.0813299660453380e+01 3.9584700904102110e+00 
113 114 2 1.0280000016522994e+00 4.0629038903401289e+02 1.0000000000000000e+00 3.3732689725612288e+00 1.0690533305017313e+01 5.2462588711046854e+00 
1002 1003 2 1.0279999973313443e+00 -4.5424471492401244e+02 1.0000000000000000e+00 4.5514649322060219e+00 1.0509425044639736e+01 4.2163195620220817e+00 
1545 1546 2 1.0279999971754386e+00 1.0357332776795915e+03 1.0000000000000000e+00 2.0904638330617029e+00 1.2177226771612350e+01 4.2869935108849440e+00 
206 207 2 1.0280000007799772e+00 -5.3484988534835475e+02 1.0000000000000000e+00 4.4718740289577710e+00 1.1995751181557733e+01 4.5883818627814108e+00 
119 120 2 1.0279999990861837e+00 2.7121795258041641e+02 1.0000000000000000e+00 6.7889125071210543e-01 1.3516210246343094e+01 4.0485589564201101e+00 
1503 1504 2 1.0280000007818870e+00 2.2342200053367995e+02 1.0000000000000000e+00 3.6724583250582743e+00 1.3239587474230758e+01 5.3358166303962467e+00 
2012 2013 2 1.0280000030069445e+00 1.4310276841401185e+02 1.0000000000000000e+00 1.9889111961048334e+00 1.5378365357995570e+01 4.9431577846645745e+00 
1004 1005 2 1.0279999962933550e+00 1.3631020786664189e+03 1.0000000000000000e+00 3.4233387451474635e+00 1.5244687670749503e+01 4.6791471519735932e+00 
1043 1044 2 1.0279999981289276e+00 -1.8340795308496851e+02 1.0000000000000000e+00 6.0177978644469676e-01 1.8030302542526858e+01 3.9132316057805920e+00 
1550 1551 2 1.0279999983050518e+00 -2.0756497933264228e+02 1.0000000000000000e+00 1.6867377881867585e+00 1.6504995575890270e+01 4.6936227950401275e+00 
134 135 2 1.0280000033528536e+00 -1.6713866352377868e+03 1.0000000000000000e+00 1.8980161417500239e+00 1.7948577426179813e+01 4.1824745053994707e+00 
1101 1102 2 1.0279999982368289e+00 7.2554165240104044e+02 1.0000000000000000e+00 4.4856599780104380e+00 1.7935875468058061e+01 4.2003008357778828e+00 
56 57 2 1.0280000039280102e+00 -7.7093029285272410e+00 1.0000000000000000e+00 3.7672927166285404e+00 1.6397971765613153e+01 5.1881080558257411e+00 
1146 1147 2 1.0279999995332296e+00 2.1752991736393660e+03 1.0000000000000000e+00 6.8855229827524385e+00 1.6779460478068984e+01 3.9899198022447226e+00 
2070 2071 2 1.0280000017642656e+00 -4.3947728623906896e+03 1.0000000000000000e+00 5.5632594734591310e+00 1.7190138368310130e+01 5.0868340496791813e+00 
1142 1143 2 1.0280000000850145e+00 5.0679162718330772e+03 1.0000000000000000e+00 7.6389512645457325e+00 1.7906172730811338e+01 4.6417144708918538e+00 
623 624 2 1.0280000017338533e+00 -1.9593863347138599e+03 1.0000000000000000e+00 9.8201930348852898e-02 1.9525174312297644e+01 4.3919444316975431e+00 
596 597 2 1.0279999973492244e+00 -1.9562483238478253e+03 1.0000000000000000e+00 1.5283727733928409e+00 1.9288644322386816e+01 5.4184740400940630e+00 
2016 2017 2 1.0280000001945857e+00 -9.1221853801387465e+02 1.0000000000000000e+00 5.4495712462064940e+00 1.9917655415983990e+01 3.8260319265469938e+00 
175 176 2 1.0280000024611677e+00 -9.9719501070917931e+02 1.0000000000000000e+00 3.9488749802970067e+00 1.9199729617803268e+01 3.9496421729523932e+00 
1149 1150 2 1.0280000006787329e+00 2.5740204361618366e+03 1.0000000000000000e+00 6.4274368084428009e+00 1.8998620187906475e+01 4.2346674846488970e+00 
2782 2783 2 1.0280000039262389e+00 -1.3681009725971262e+03 1.0000000000000000e+00 7.4231493373275881e-01 4.4114636725112222e+00 6.7945545188678738e+00 
2829 2830 2 1.0279999918459422e+00 -1.1527632011931712e+03 1.0000000000000000e+00 1.2386084446132770e+00 5.3918700762068150e+00 6.6038208244562417e+00 
2 3 2 1.0280000079674161e+00 -7.7368263373451200e+01 1.0000000000000000e+00 7.5180910871715589e-01 7.4775675133373074e+00 5.8743085159416308e+00 
1942 1943 2 1.0280000004129799e+00 6.6120381701829331e+02 1.0000000000000000e+00 3.0997429144657551e+00 8.2242914966649341e+00 5.7925596319079267e+00 
1102 1103 2 1.0280000009139540e+00 7.2545389746546755e+02 1.0000000000000000e+00 3.3645063098254919e+00 8.9980674628863184e+00 5.9756502241748528e+00 
1275 1276 2 1.0279999997467710e+00 -4.6595016236803406e+02 1.0000000000000000e+00 8.4059436304366617e+00 8.6249427741956364e+00 5.9780931989807033e+00 
1926 1927 2 1.0279999776431017e+00 3.7075653435579875e+02 1.0000000000000000e+00 1.3282520035379095e-02 1.0140885110997232e+01 6.4334499696009741e+00 
437 438 2 1.0279999998501710e+00 -1.4542771899373952e+03 1.0000000000000000e+00 6.8912904919870819e+00 1.0406758846624186e+01 6.4679917162823974e+00 
2245 2246 2 1.0279999995891620e+00 1.2811162742059259e+03 1.0000000000000000e+00 8.4241461508653614e+00 1.0754209870984367e+01 7.1669744422225072e+00 
1656 1657 2 1.0280000001783220e+00 2.6169700702716009e+03 1.0000000000000000e+00 9.2009665935727636e+00 9.2221133629440910e+00 5.8157745263068668e+00 
159 160 2 1.0280000002926140e+00 2.2015529478864394e+02 1.0000000000000000e+00 1.4528182318212788e+00 1.2019878975655978e+01 6.6039349943029020e+00 
581 582 2 1.0279999972988842e+00 6.7642657853465926e+02 1.0000000000000000e+00 4.2048096717506560e+00 1.2268582862814290e+01 6.0086892576900857e+00 
2279 2280 2 1.0280000002258243e+00 2.5271029805913267e+02 1.0000000000000000e+00 7.2357490640853035e+00 1.1472637382176691e+01 7.1820794722480512e+00 
1459 1460 2 1.0280000003954779e+00 3.7086755218189842e+02 1.0000000000000000e+00 3.1717361291005425e-01 1.4160063962890687e+01 6.2820946492123886e+00 
1039 1040 2 1.0279999994048996e+00 -4.2281183090545369e+02 1.0000000000000000e+00 2.3222836916010778e+00 1.3119200055268836e+01 6.2888917582232269e+00 
71 72 2 1.0280000015310953e+00 7.1217908680596352e+01 1.0000000000000000e+00 4.2568001756811960e+00 1.4007881051313767e+01 7.0396667175538337e+00 
1883 1884 2 1.0280000013098261e+00 -1.6842155529932955e+02 1.0000000000000000e+00 1.8044640847021463e+00 1.4811216529883646e+01 6.8816128750701635e+00 
554 555 2 1.0279999991105739e+00 6.3410903091673129e+02 1.0000000000000000e+00 4.9031153277190809e+00 1.5656879612644193e+01 5.6741145586753028e+00 
1462 1463 2 1.0279999996081552e+00 9.2485617307690450e+02 1.0000000000000000e+00 5.9722753665275237e+00 1.4664380386997674e+01 5.9978050726101975e+00 
619 620 2 1.0280000012506390e+00 -2.1086557191463326e+03 1.0000000000000000e+00 6.0536920685253461e+00 1.4771270105655045e+01 7.0891534130891367e+00 
451 452 2 1.0280000003700951e+00 -1.1558491975173361e+03 1.0000000000000000e+00 9.5870189509158408e+00 1.5893398984627801e+01 7.1128319238639568e+00 
3078 3079 2 1.0280000000000000e+00 8.4285654498085842e+02 1.0000000000000000e+00 3.0262759054123983e+01 1.4618297482494830e+01 7.0802952919107103e+00 
2071 2072 2 1.0279999991656297e+00 -4.9602655898194280e+03 1.0000000000000000e+00 6.7610702015375050e+00 1.8258535169153873e+01 5.5120655731894708e+00 
470 471 2 1.0280000001908600e+00 2.9977536581779998e+02 1.0000000000000000e+00 9.5443879306327517e+00 3.2875712308677416e+00 8.3020576038589144e+00 
1582 1583 2 1.0279999997030571e+00 3.7493156954653950e+03 1.0000000000000000e+00 1.7038337981765108e+00 4.2803151548332696e+00 7.9267386484517726e+00 
2368 2369 2 1.0279999993302957e+00 1.1911740890542517e+03 1.0000000000000000e+00 2.3332339196885088e+00 5.3733029427114145e+00 8.6942568472615385e+00 
1010 1011 2 1.0279999998929181e+00 2.4031635957210565e+03 1.0000000000000000e+00 9.5241268392414149e+00 4.5908052606047969e+00 7.6454366946104759e+00 
480 481 2 1.0280000001347707e+00 3.3973981245364207e+01 1.0000000000000000e+00 1.0526050602849669e+01 4.2838762257561456e+00 7.8852769382582499e+00 
4171 4172 2 1.0280000014824562e+00 -1.2480324742807391e+03 1.0000000000000000e+00 9.3086515407626491e-01 5.6125672464394372e+00 8.3759803311664864e+00 
2863 2864 2 1.0280000008843324e+00 5.7251598871722017e+01 1.0000000000000000e+00 1.2335122069646243e+00 8.7144267657816314e+00 8.5577932122461320e+00 
3703 3704 2 1.0279999980842467e+00 1.1135553021064643e+03 1.0000000000000000e+00 1.9616801287996277e+00 8.3946782714205295e+00 8.0340918617817838e+00 
1934 1935 2 1.0280000021495934e+00 1.5670719806259253e+03 1.0000000000000000e+00 6.4776216264580606e+00 8.6070768881823962e+00 9.0813610222433816e+00 
45 46 2 1.0279999993413484e+00 -1.5518573901993468e+03 1.0000000000000000e+00 7.7366834197406718e+00 8.3247120913058037e+00 8.7516204199965806e+00 
2186 2187 2 1.0279999872762964e+00 1.5592707458519171e+03 1.0000000000000000e+00 3.6046234074626295e+00 1.0385000841596392e+01 8.7415572497866503e+00 
381 382 2 1.0280000106115932e+00 -1.5622871459553685e+03 1.0000000000000000e+00 3.8557741244643537e+00 1.0104236610740928e+01 8.0059675027176347e+00 
436 437 2 1.0280000006726580e+00 -9.8272169176090665e+02 1.0000000000000000e+00 7.1037662969875575e+00 9.7086649160133849e+00 7.6479975082162204e+00 
2202 2203 2 1.0280000003028462e+00 -5.9904422630228464e+02 1.0000000000000000e+00 8.8035201456124526e+00 9.2722393932259610e+00 7.3391982013193733e+00 
1049 1050 2 1.0279999985786810e+00 2.3580318056685942e+03 1.0000000000000000e+00 2.2648001327544107e-01 1.1244882318383716e+01 8.5961213778375285e+00 
1124 1125 2 1.0279999991508357e+00 2.6237751387624348e+03 1.0000000000000000e+00 2.9126663317764985e+00 1.1612308724745743e+01 7.4115710911706945e+00 
1921 1922 2 1.0280000013478456e+00 -7.7054647143454986e+02 1.0000000000000000e+00 2.0850664920737167e+00 1.2070847910350514e+01 8.1614534581137370e+00 
367 368 2 1.0279999993223878e+00 -2.3254646386166660e+03 1.0000000000000000e+00 6.5700007672433225e+00 1.2605610260598022e+01 8.6777152289230539e+00 
1716 1717 2 1.0280000008777830e+00 1.3493028573024426e+03 1.0000000000000000e+00 5.7932933260456041e+00 1.2716931605523351e+01 8.7352013416524343e+00 
114 115 2 1.0279999987016022e+00 -2.2208130330376497e+02 1.0000000000000000e+00 1.1422200755217882e+00 1.3235628625110687e+01 7.4674416416472038e+00 
1968 1969 2 1.0279999998990546e+00 -1.2915883870294074e+03 1.0000000000000000e+00 1.0531557919873737e+00 1.5395576648080969e+01 7.6665250444791244e+00 
1504 1505 2 1.0279999995013864e+00 1.6837713956464008e+03 1.0000000000000000e+00 4.4488839389949399e+00 1.4808350058806051e+01 7.5604829927302175e+00 
30 31 2 1.0280000018458835e+00 -1.2443244038549146e+03 1.0000000000000000e+00 8.1160109399005655e+00 1.4843181244922643e+01 8.1602578857657289e+00 
31 32 2 1.0279999981033414e+00 -1.1465087279865497e+03 1.0000000000000000e+00 7.5928814590767484e+00 1.5426932817630822e+01 8.2766576983286217e+00 
450 451 2 1.0279999993897149e+00 -1.2592363742693965e+03 1.0000000000000000e+00 9.7680835531674504e+00 1.6091099616993187e+01 7.8167161836119199e+00 
3077 3078 2 1.0280000000000000e+00 5.3997356329364365e+01 1.0000000000000000e+00 3.0275220028311463e+01 1.4685199718129649e+01 7.7844341922466898e+00 
3877 3878 2 1.0279999998612097e+00 5.9689185214044471e+01 1.0000000000000000e+00 4.9355173785536852e+00 1.8024078025775925e+01 7.5148155374040240e+00 
2999 3000 2 1.0279999998375315e+00 5.1116046504937767e+03 1.0000000000000000e+00 4.3342130507631049e+00 1.7543134605099976e+01 8.2090518530405383e+00 
4189 4190 2 1.0279999992704585e+00 -1.1660847125872720e+03 1.0000000000000000e+00 7.4218455769653522e+00 1.7693283706992400e+01 7.8341817201880168e+00 
2496 2497 2 1.0280000001424576e+00 -7.6549841484769217e+01 1.0000000000000000e+00 8.0649616653866829e+00 1.8002233037097820e+01 8.9237067964350079e+00 
589 590 2 1.0280000002574847e+00 1.2002054820910703e+02 1.0000000000000000e+00 6.0224409435165405e-01 1.9420912576045584e+01 7.7133617921757365e+00 
1428 1429 2 1.0280000000417662e+00 -7.3635080106217856e+02 1.0000000000000000e+00 1.5687241564902976e-01 1.9581691885165533e+01 8.7895550721243012e+00 
471 472 2 1.0280000003829786e+00 -5.0736806950495912e+02 1.0000000000000000e+00 4.2017767173799685e+00 1.9041311372774885e+01 8.3716601027642064e+00 
4188 4189 2 1.0280000009728449e+00 -1.2448678042850524e+03 1.0000000000000000e+00 7.4085443102341353e+00 1.8911896230752085e+01 8.0477538050037492e+00 
1529 1530 2 1.0280000064405841e+00 9.9727269824895927e+02 1.0000000000000000e+00 6.2825739392439388e+00 1.4335291503880605e+00 1.0453594103053875e+01 
2114 2115 2 1.0279999979591330e+00 -3.7542320537072214e+01 1.0000000000000000e+00 8.7893503443576364e+00 4.9463103365446398e-01 9.0986272624118456e+00 
1706 1707 2 1.0280000006853105e+00 9.9815039296959310e+02 1.0000000000000000e+00 1.0810794997223963e+01 8.4965752810192818e-01 9.3572116174264952e+00 
1955 1956 2 1.0279999988941966e+00 1.9142170511182151e+01 1.0000000000000000e+00 7.0735288776401841e+00 1.8577918093806522e+00 9.7508170976164283e+00 
2041 2042 2 1.0280000042308617e+00 -7.1320945379255235e+01 1.0000000000000000e+00 8.4830346587976369e+00 1.9749447678563994e+00 9.2612508524165733e+00 
2045 2046 2 1.0279999984417483e+00 -4.0562009951228994e+01 1.0000000000000000e+00 9.9369549772261028e+00 2.0190815389513523e+00 9.1244082379068399e+00 
3805 3806 2 1.0279999963038193e+00 2.2855339338037893e+03 1.0000000000000000e+00 9.5505687252534843e-01 5.3546424992017894e+00 1.0047153005661603e+01 
3320 3321 2 1.0279999998699401e+00 2.4042589702479008e+03 1.0000000000000000e+00 5.5011775006131218e+00 4.3511580057946349e+00 1.0739365629877589e+01 
2403 2404 2 1.0280000002854095e+00 -5.8425642982569605e+02 1.0000000000000000e+00 2.6099443708641679e+00 6.7517047280771285e+00 9.4600630188102759e+00 
945 946 2 1.0280000008756485e+00 -1.2497723400716320e+03 1.0000000000000000e+00 2.3614188020471598e+00 5.8834364477524925e+00 1.0746834598272203e+01 
4537 4538 2 1.0279999988841779e+00 -5.5343521396782467e+02 1.0000000000000000e+00 5.7152922668562161e+00 7.2203943996841886e+00 1.0122574135042210e+01 
3704 3705 2 1.0279999976258747e+00 2.8837598492841460e+02 1.0000000000000000e+00 1.3961142692576051e-01 8.4714172754212047e+00 1.0209968304647740e+01 
3706 3707 2 1.0280000024079945e+00 9.2321051887006274e+02 1.0000000000000000e+00 2.9401639116246598e+00 8.3891351319146512e+00 9.3567243449917576e+00 
3242 3243 2 1.0279999955106274e+00 -1.5228883486309792e+03 1.0000000000000000e+00 2.3935474185461056e+00 7.8800613170813154e+00 1.0455054143247395e+01 
3992 3993 2 1.0280000015386879e+00 6.1339218164404440e+02 1.0000000000000000e+00 5.0723681999340657e+00 7.8237544949388989e+00 9.4320331530642019e+00 
2366 2367 2 1.0279999987627642e+00 7.5726729836867878e+02 1.0000000000000000e+00 1.7198306990301317e+00 9.8505894836831747e+00 1.0117937775524060e+01 
4422 4423 2 1.0280000003289231e+00 -8.8099531932051696e+02 1.0000000000000000e+00 8.3955017996468335e+00 9.3826768143228314e+00 9.4818534055727000e+00 
3209 3210 2 1.0279999991906295e+00 -4.2898821061661249e+02 1.0000000000000000e+00 7.4345642527228382e+00 9.9527997478368224e+00 9.7638855488846907e+00 
2788 2789 2 1.0279999987204569e+00 1.2311222502842140e+03 1.0000000000000000e+00 1.6383788264283057e+00 1.0972108867143604e+01 1.0309874040537215e+01 
2840 2841 2 1.0279999996330269e+00 3.0994979400494913e+02 1.0000000000000000e+00 5.5749710848114313e+00 1.3192868346091112e+01 1.0623433922014954e+01 
3592 3593 2 1.0280000001763809e+00 -1.1635783671695667e+03 1.0000000000000000e+00 6.7823453632058204e+00 1.4184189015192187e+01 1.0903093965794699e+01 
3799 3800 2 1.0280000000970666e+00 1.3961191464910089e+03 1.0000000000000000e+00 6.2228903331176983e+00 1.4871788421529091e+01 1.0035646131415488e+01 
819 820 2 1.0279999997554197e+00 2.1028893217983850e+03 1.0000000000000000e+00 5.3296770714171116e+00 1.7122052905296549e+01 1.0882743002503133e+01 
2417 2418 2 1.0279999972217699e+00 2.4690381358581494e+01 1.0000000000000000e+00 6.2730989166780953e+00 1.7844202459436378e+01 9.7531166878936713e+00 
2580 2581 2 1.0280000016706115e+00 -7.3337402171919294e+01 1.0000000000000000e+00 7.3410515413466086e+00 1.6829700437694644e+01 1.0114101258492711e+01 
1515 1516 2 1.0280000000226082e+00 -2.5753303804738800e+02 1.0000000000000000e+00 5.1388204479631865e+00 1.9548715876735866e+01 9.2392614147657621e+00 
3001 3002 2 1.0280000030199952e+00 4.2804921400427502e+03 1.0000000000000000e+00 6.3897645463004613e+00 1.9526679104775177e+01 1.0443730400666773e+01 
1527 1528 2 1.0279999997281577e+00 1.6427161601023790e+03 1.0000000000000000e+00 2.5894920161952997e+00 1.2073535299617039e-01 1.2464381826379269e+01 
1530 1531 2 1.0279999981165791e+00 1.1437423589270547e+03 1.0000000000000000e+00 4.8210192392680007e+00 3.2257527694207649e-01 1.1207423079068633e+01 
1407 1408 2 1.0280000035421202e+00 -2.0809453470196268e+03 1.0000000000000000e+00 3.8979779183039001e+00 5.4136477425921758e-01 1.1491772863094702e+01 
1826 1827 2 1.0279999969745217e+00 -2.2291689152410690e+03 1.0000000000000000e+00 7.2474923096146560e+00 9.1162315748057665e-02 1.1775182257030375e+01 
2118 2119 2 1.0279999995963629e+00 -8.4547631839781630e+01 1.0000000000000000e+00 7.8276874143969248e+00 1.6378153025890780e+00 1.2053067022515421e+01 
1455 1456 2 1.0279999990335069e+00 7.0478875757009689e+02 1.0000000000000000e+00 5.8249996086876115e+00 2.9421219907593592e+00 1.1744318000582020e+01 
1951 1952 2 1.0279999993815012e+00 -8.9100588517998676e+02 1.0000000000000000e+00 7.6463152532075296e-01 4.6196961636855951e+00 1.1852168413411096e+01 
1068 1069 2 1.0280000001617597e+00 1.0469065038950898e+03 1.0000000000000000e+00 2.4252120426106032e+00 4.5282827769213103e+00 1.1667537511965380e+01 
1946 1947 2 1.0280000053194953e+00 2.0311673934643449e+02 1.0000000000000000e+00 3.7593715380413322e+00 4.7652797057663587e+00 1.2301520753888459e+01 
1907 1908 2 1.0280000038455479e+00 2.1891190407667773e+03 1.0000000000000000e+00 5.4859467322715654e+00 4.2636908249097996e+00 1.2415995176644874e+01 
598 599 2 1.0279999991432982e+00 -8.6854495293040145e+02 1.0000000000000000e+00 6.5430874577650098e+00 4.1566863381966517e+00 1.0936476260865888e+01 
4287 4288 2 1.0279999978005117e+00 -5.8735284189745710e+02 1.0000000000000000e+00 5.8797923475171217e-02 5.9829339772258514e+00 1.2375672043046333e+01 
648 649 2 1.0279999979390435e+00 -1.2111527331744810e+03 1.0000000000000000e+00 2.7274718215149778e+00 6.9146988352677408e+00 1.1905669316906799e+01 
1940 1941 2 1.0279999998366944e+00 5.0571013818384529e+01 1.0000000000000000e+00 3.3173209852929091e+00 8.2598060019293094e+00 1.2279035918777110e+01 
4454 4455 2 1.0280000001997680e+00 2.9166309631032868e+02 1.0000000000000000e+00 5.4843060636340351e+00 8.5031309964275756e+00 1.0986354176797304e+01 
4541 4542 2 1.0280000026818790e+00 3.8003775746558699e+02 1.0000000000000000e+00 5.1559163110590855e+00 7.9902381228699664e+00 1.2023384918625448e+01 
3193 3194 2 1.0279999980984711e+00 -7.4392222143867093e+02 1.0000000000000000e+00 6.8574584992928695e+00 8.2521065090736219e+00 1.2702986814703973e+01 
4269 4270 2 1.0280000003664278e+00 -3.9075085069680802e+02 1.0000000000000000e+00 1.0369253453636778e+00 9.4510322391678212e+00 1.1647376705466915e+01 
607 608 2 1.0280000027431755e+00 -1.4507466720003131e+03 1.0000000000000000e+00 2.2025540777852988e+00 9.5499832811570595e+00 1.2107392768563075e+01 
72 73 2 1.0279999988360167e+00 -4.2997125530888212e+02 1.0000000000000000e+00 3.5754887435296676e+00 1.0332012097932802e+01 1.2499603442324574e+01 
2030 2031 2 1.0279999999100240e+00 -4.5553684696146519e+01 1.0000000000000000e+00 6.8307154252168036e+00 1.0903331201729115e+01 1.1075106283327939e+01 
1661 1662 2 1.0279999998548135e+00 2.2262096171786575e+03 1.0000000000000000e+00 8.5056950687107786e+00 1.0683309151407295e+01 1.2056204027108464e+01 
572 573 2 1.0279999989938695e+00 1.9971527889625222e+03 1.0000000000000000e+00 1.7939601601781394e+00 1.1547851791916214e+01 1.1852280890896013e+01 
557 558 2 1.0280000017397513e+00 2.6396272470435260e+03 1.0000000000000000e+00 3.2718696676266257e+00 1.1113003670574777e+01 1.0966420684150766e+01 
523 524 2 1.0279999981512433e+00 -4.6157523139966969e+02 1.0000000000000000e+00 3.5655716376670847e+00 1.2282203984162821e+01 1.1251846065461217e+01 
3047 3048 2 1.0280000004901957e+00 2.3117908607210202e+03 1.0000000000000000e+00 6.4831505952539805e+00 1.2313375383680492e+01 1.1416291520701533e+01 
1282 1283 2 1.0279999998606431e+00 -1.1432096921456023e+03 1.0000000000000000e+00 7.0762375701501972e+00 1.1434636451602293e+01 1.2466372000561302e+01 
2129 2130 2 1.0280000003184846e+00 -3.9279752941351688e+01 1.0000000000000000e+00 8.5197888852368369e+00 1.1218934288895651e+01 1.1211255178640442e+01 
613 614 2 1.0280000027266119e+00 -1.1009271179911439e+03 1.0000000000000000e+00 2.6520543767987594e+00 1.2979852852652659e+01 1.2048971936767403e+01 
2841 2842 2 1.0280000013409709e+00 6.8678359271545867e+02 1.0000000000000000e+00 4.0794593233579501e+00 1.4188361656097308e+01 1.2061694989570386e+01 
4253 4254 2 1.0280000016880952e+00 -1.4041745684110458e+03 1.0000000000000000e+00 5.0633474693563585e+00 1.4577606702986575e+01 1.1109867408553097e+01 
2669 2670 2 1.0280000006929573e+00 1.0364098957948348e+01 1.0000000000000000e+00 6.7398903015484093e+00 1.6256285210551354e+01 1.0986796797457107e+01 
901 902 2 1.0280000017278776e+00 3.0503698992712629e+02 1.0000000000000000e+00 5.7836740232928889e+00 1.8147112956213089e+01 1.1255143845797534e+01 
4556 4557 2 1.0279999992390962e+00 1.0501578621574756e+03 1.0000000000000000e+00 7.7527081807290443e+00 1.9973911634510898e+01 1.1017486462240644e+01 
3531 3532 2 1.0280000002469327e+00 1.5231772221822071e+03 1.0000000000000000e+00 2.5844117805738097e+01 1.6675117117118124e-01 1.3272140642185592e+01 
2034 2035 2 1.0279999971748204e+00 -7.5905503530217430e+01 1.0000000000000000e+00 5.4909737188005892e+00 2.8102305358755459e+00 1.3210870187513857e+01 
1324 1325 2 1.0280000015741038e+00 1.2575868059401833e+00 1.0000000000000000e+00 6.1343433760812953e+00 2.2786263631542392e+00 1.4340588440103410e+01 
3044 3045 2 1.0280000003422101e+00 2.2454632076448147e+03 1.0000000000000000e+00 7.0448588548639544e+00 2.9512290641377334e+00 1.4130356313235495e+01 
2125 2126 2 1.0280000032058019e+00 -8.3383544855600448e+01 1.0000000000000000e+00 7.7243321599890260e+00 2.0672670864038918e+00 1.2942902486159882e+01 
2408 2409 2 1.0279999999512743e+00 1.9228438329483609e+02 1.0000000000000000e+00 5.8922868051365640e-01 4.9314681307594270e+00 1.3897565827239163e+01 
3378 3379 2 1.0280000016364859e+00 1.0433131871064952e+03 1.0000000000000000e+00 1.8404257833007172e+00 4.1972555478263462e+00 1.3272059917396902e+01 
1944 1945 2 1.0279999973889731e+00 1.0208796938704249e+02 1.0000000000000000e+00 3.2726102313422087e+00 3.8901548027464474e+00 1.3160269808494984e+01 
2968 2969 2 1.0279999972508120e+00 3.6981883218990133e+03 1.0000000000000000e+00 1.9362779883387919e+00 6.2106733756579642e+00 1.3020870880784651e+01 
3806 3807 2 1.0280000015653952e+00 1.9653320476550425e+03 1.0000000000000000e+00 2.0663937394266645e+00 6.7130027715260470e+00 1.4430472296761618e+01 
482 483 2 1.0280000008101096e+00 1.2696190950389969e+03 1.0000000000000000e+00 3.1732006116646341e+00 5.5718593081770829e+00 1.3902315797103656e+01 