LAMMPS data file via write_data, version 30 Jul 2016, timestep = 50400000

4620 atoms
8 atom types

0.0000000000000000e+00 1.0000000000000000e+02 xlo xhi
0.0000000000000000e+00 4.0000000000000000e+01 ylo yhi
0.0000000000000000e+00 4.0000000000000000e+01 zlo zhi

Masses

1 3.896
2 5.36
3 20.064
4 8.378
5 8.378
6 8.378
7 8.378
8 8.378

Atoms # meso-molecular

980 981 2 1.0280000004225005e+00 8.8297691888691475e+01 1.0000000000000000e+00 5.1075710686377562e-01 1.9672580481714048e+00 1.1920069296198577e+00 
559 560 2 1.0280000004798133e+00 2.1632408728706832e+03 1.0000000000000000e+00 1.2075901193111083e+00 2.3778257006571035e+00 1.8036625045297011e-01 
1845 1846 2 1.0279999944922247e+00 -1.0976690846304195e+03 1.0000000000000000e+00 1.3400271324028394e+00 7.9526757788156521e+00 1.4196904842360263e-02 
1425 1426 2 1.0279999996197788e+00 -1.1066008767944486e+03 1.0000000000000000e+00 2.8304975103702126e+00 7.8087022911811852e+00 1.7113258521315942e+00 
1669 1670 2 1.0280000011701644e+00 2.5787562885755228e+03 1.0000000000000000e+00 1.0687106513222251e+00 9.3073327180795165e+00 1.1901825593230877e+00 
1251 1252 2 1.0280000033297125e+00 9.5279044732181660e+02 1.0000000000000000e+00 5.8450624927051897e-01 1.2233850477233943e+01 1.0233425044342774e+00 
1667 1668 2 1.0279999988755344e+00 2.6148914254021161e+03 1.0000000000000000e+00 1.5150985658778082e+00 1.1189652583730872e+01 1.1889832006240701e+00 
663 664 2 1.0279999992287361e+00 -4.4747600225422320e+02 1.0000000000000000e+00 4.2137437877309907e+00 1.1666877116370125e+01 1.5975238954075164e+00 
10 11 2 1.0280000002021579e+00 -6.5903596316184667e+02 1.0000000000000000e+00 4.7150972509875331e+00 1.2568093175869588e+01 6.1945469913220830e-01 
371 372 2 1.0279999971931815e+00 2.7595939161817478e+02 1.0000000000000000e+00 1.1944390265088782e+00 1.3819285250553703e+01 1.1111351899520188e+00 
1380 1381 2 1.0280000015314177e+00 -1.6539795307213774e+03 1.0000000000000000e+00 2.2350218554975845e+00 1.2932482780011997e+01 6.8525431389469937e-01 
1710 1711 2 1.0280000037359815e+00 4.9348846560227651e+02 1.0000000000000000e+00 2.9989814187055401e+00 1.4020139372304319e+01 3.0865408950976597e-01 
1795 1796 2 1.0279999966899198e+00 3.7546185699307864e+02 1.0000000000000000e+00 2.5118604306688314e-01 1.5154314413499639e+01 5.8813589555074064e-01 
1437 1438 2 1.0279999982796906e+00 9.4637675084992088e+02 1.0000000000000000e+00 4.7734443640902819e+00 1.4947038271995549e+01 1.5170529300145441e+00 
1773 1774 2 1.0279999989917894e+00 9.4838003648972290e+02 1.0000000000000000e+00 4.3413416491137902e+00 1.5099743652697690e+01 1.6845966122049816e-01 
1473 1474 2 1.0280000012822210e+00 1.2461608749044026e+03 1.0000000000000000e+00 1.0125312795668779e+00 1.7680807341228995e+01 1.6274266213730004e+00 
505 506 2 1.0279999994340845e+00 1.0087642577607110e+02 1.0000000000000000e+00 9.9892396865485078e-01 1.9741339467850555e+01 1.2637232494187278e-01 
1559 1560 2 1.0280000021443554e+00 1.3192949890559994e+03 1.0000000000000000e+00 4.2037587720163394e+00 1.8738037955614143e+01 1.6626400492214990e+00 
44 45 2 1.0280000013187802e+00 -2.9533999582914157e+02 1.0000000000000000e+00 4.4668934098312896e+00 1.9591680522848947e+01 1.2612922075061166e+00 
3162 3163 2 1.0279999999999998e+00 3.4442264472729431e+02 1.0000000000000000e+00 7.4731002942284732e+00 1.7941537683825926e+00 2.9702701935127145e+00 
3538 3539 2 1.0279999999999998e+00 7.5090840785454554e+02 1.0000000000000000e+00 7.0424405443879490e+00 2.0162578466121741e+00 3.4856775414212282e+00 
422 423 2 1.0279999986229580e+00 -7.6728216636338544e+01 1.0000000000000000e+00 3.5254626617224667e+00 7.0154414601629211e+00 2.4686213229397724e+00 
112 113 2 1.0279999992087638e+00 -2.1699335451329316e+03 1.0000000000000000e+00 2.2714575644303254e+00 8.7773647035096669e+00 2.3854232530695567e+00 
3976 3977 2 1.0280000025074871e+00 5.3116950301125962e+02 1.0000000000000000e+00 5.0070323671296508e+00 8.9587412126514376e+00 3.1636023390305410e+00 
1585 1586 2 1.0280000012894388e+00 2.5761957852928322e+03 1.0000000000000000e+00 1.2603679647806163e+00 1.0030481727851882e+01 2.6301756941070047e+00 
3977 3978 2 1.0279999990255868e+00 -1.9680706611485753e+03 1.0000000000000000e+00 5.3427599085752249e+00 9.6233943798842159e+00 2.4803107471125894e+00 
1583 1584 2 1.0280000027973464e+00 2.6100570681274730e+03 1.0000000000000000e+00 1.1466298291430912e+00 1.2103903474919482e+01 3.0979402708402937e+00 
973 974 2 1.0279999997478448e+00 -4.6199473672030126e+02 1.0000000000000000e+00 4.4207650555912448e+00 1.0909540419795402e+01 2.4741075688079439e+00 
1122 1123 2 1.0279999992166715e+00 2.1053503146559410e+03 1.0000000000000000e+00 2.2264156551503635e+00 1.4086472556182573e+01 3.2425521588981359e+00 
960 961 2 1.0280000025056850e+00 -1.6531109463067392e+03 1.0000000000000000e+00 2.7838256651987812e+00 1.2880904598308790e+01 3.3801724073345283e+00 
3894 3895 2 1.0280000002350589e+00 6.2895554084015018e+01 1.0000000000000000e+00 1.4484121235220755e+00 1.5704775053498880e+01 2.2276813713547701e+00 
198 199 2 1.0280000041724331e+00 9.8600722070173538e+02 1.0000000000000000e+00 6.8027747454629361e-01 1.4635080916062090e+01 2.7478514267129315e+00 
1542 1543 2 1.0280000013775776e+00 5.0001313804752306e+02 1.0000000000000000e+00 2.8696914884478724e+00 1.4804803159179302e+01 1.8579637319997757e+00 
1936 1937 2 1.0280000026091798e+00 3.2313949448014432e+02 1.0000000000000000e+00 2.9902383447388696e+00 1.6237802947290170e+01 2.6011561782310264e+00 
174 175 2 1.0279999991789848e+00 6.1090053930396618e+02 1.0000000000000000e+00 4.3638009266902946e+00 1.4912900969894926e+01 2.8469729536781410e+00 
133 134 2 1.0280000002852059e+00 -7.1001875109496177e+02 1.0000000000000000e+00 4.4146436364433068e+00 1.6281129968360744e+01 2.5164953909094034e+00 
1474 1475 2 1.0279999974619609e+00 -5.8703711852338370e+02 1.0000000000000000e+00 1.8909488123402374e+00 1.8098909364640964e+01 2.4532910714054998e+00 
599 600 2 1.0280000018529223e+00 -1.8661857992335440e+03 1.0000000000000000e+00 3.3645716489411068e+00 1.8005088872655865e+01 2.8001541525137132e+00 
1608 1609 2 1.0279999999802267e+00 6.0803576399588701e+03 1.0000000000000000e+00 5.9320439189883327e+00 1.7360473311264926e+01 3.4716357232926014e+00 
1194 1195 2 1.0279999919910063e+00 2.0464849333859777e+03 1.0000000000000000e+00 1.8237328091425209e+00 5.0740231721602616e+00 4.8520922023361219e+00 
312 313 2 1.0280000011413195e+00 -2.4177818541125498e+03 1.0000000000000000e+00 5.6293827939876950e-01 5.9312506237922147e+00 4.0357813287786248e+00 
6 7 2 1.0280000044641611e+00 -7.1303509643452264e+02 1.0000000000000000e+00 1.8089107243209523e+00 7.2387308965261568e+00 4.8157375939590557e+00 
1273 1274 2 1.0280000032830947e+00 -2.9886221048277724e+02 1.0000000000000000e+00 2.3153578973755899e+00 5.6480926154193440e+00 4.1872141347228942e+00 
50 51 2 1.0279999930934403e+00 2.1160158565952099e+02 1.0000000000000000e+00 7.8435418832807968e-01 8.1647879354491923e+00 4.9554388350429184e+00 
1016 1017 2 1.0280000046223987e+00 -1.9428947818776734e+02 1.0000000000000000e+00 3.2568420824897926e+00 8.2406959796175769e+00 3.6896915797563845e+00 
426 427 2 1.0279999975450158e+00 -7.1307565026717566e+02 1.0000000000000000e+00 4.1722157331934042e+00 7.4123834531359565e+00 3.6697795547762238e+00 
622 623 2 1.0280000005949956e+00 -2.8024940181450638e+01 1.0000000000000000e+00 3.0197995289602759e+00 1.0810186228348675e+01 3.9926504452503457e+00 
113 114 2 1.0280000017764221e+00 4.0629038907948762e+02 1.0000000000000000e+00 3.3567118684192363e+00 1.0687421661720089e+01 5.2806161547697554e+00 
1002 1003 2 1.0279999972626723e+00 -4.5424471492401244e+02 1.0000000000000000e+00 4.5348050518851641e+00 1.0506427601219428e+01 4.2504654635763073e+00 
1545 1546 2 1.0279999972164513e+00 1.0357332776795915e+03 1.0000000000000000e+00 2.0739570619891707e+00 1.2174050796032439e+01 4.3212232612182877e+00 
206 207 2 1.0280000007380252e+00 -5.3484988534835475e+02 1.0000000000000000e+00 4.4551179963118086e+00 1.1992520625686412e+01 4.6228426073212701e+00 
119 120 2 1.0279999991161870e+00 2.7121795258041641e+02 1.0000000000000000e+00 6.6238432487529453e-01 1.3512972473282368e+01 4.0826615915047126e+00 
1503 1504 2 1.0280000007182912e+00 2.2342200055641732e+02 1.0000000000000000e+00 3.6553589020668507e+00 1.3236219096366840e+01 5.3705197605297172e+00 
2012 2013 2 1.0280000030852494e+00 1.4310276843674922e+02 1.0000000000000000e+00 1.9713760564472609e+00 1.5374728551731515e+01 4.9778334317708932e+00 
1004 1005 2 1.0279999962083024e+00 1.3631020786664189e+03 1.0000000000000000e+00 3.4057650899959060e+00 1.5241076488574365e+01 4.7140060535975739e+00 
1043 1044 2 1.0279999980519592e+00 -1.8340795306223114e+02 1.0000000000000000e+00 5.8400918230174304e-01 1.8026848895635815e+01 3.9477439769920317e+00 
1550 1551 2 1.0279999982753205e+00 -2.0756497933264228e+02 1.0000000000000000e+00 1.6690867626859187e+00 1.6501450151188166e+01 4.7283005431372063e+00 
134 135 2 1.0280000034225167e+00 -1.6713866352377868e+03 1.0000000000000000e+00 1.8802286162156439e+00 1.7945047388480763e+01 4.2171999372326727e+00 
1101 1102 2 1.0279999982183388e+00 7.2554165240104044e+02 1.0000000000000000e+00 4.4678327182524376e+00 1.7932122566589491e+01 4.2356228943317884e+00 
56 57 2 1.0280000039936168e+00 -7.7093029100220205e+00 1.0000000000000000e+00 3.7494779768961806e+00 1.6394333457002549e+01 5.2231844150930939e+00 
2070 2071 2 1.0280000018224023e+00 -4.3947728623906896e+03 1.0000000000000000e+00 5.5454294715166759e+00 1.7186430463077979e+01 5.1223066257950887e+00 
1146 1147 2 1.0279999995290416e+00 2.1752991736393660e+03 1.0000000000000000e+00 6.8676720621537104e+00 1.6775776271568176e+01 4.0253909043925233e+00 
1142 1143 2 1.0280000000727214e+00 5.0679162718330772e+03 1.0000000000000000e+00 7.6210523038760876e+00 1.7902434656261807e+01 4.6772911711000971e+00 
623 624 2 1.0280000017939097e+00 -1.9593863347138599e+03 1.0000000000000000e+00 8.0345189545631385e-02 1.9521679332200190e+01 4.4264216122554121e+00 
596 597 2 1.0279999972911249e+00 -1.9562483238478253e+03 1.0000000000000000e+00 1.5102193110485047e+00 1.9284759153055738e+01 5.4532455582285664e+00 
2016 2017 2 1.0280000001255185e+00 -9.1221853801387465e+02 1.0000000000000000e+00 5.4313789554159957e+00 1.9913778188132106e+01 3.8618155796266418e+00 
175 176 2 1.0280000025224896e+00 -9.9719501070917931e+02 1.0000000000000000e+00 3.9307595269071238e+00 1.9195809975969393e+01 3.9851853925575917e+00 
1149 1150 2 1.0280000006169796e+00 2.5740204361618366e+03 1.0000000000000000e+00 6.4094615925930443e+00 1.8994866737520965e+01 4.2702954936628670e+00 
2782 2783 2 1.0280000039700410e+00 -1.3681009725971262e+03 1.0000000000000000e+00 7.2648802305051607e-01 4.4080413504022191e+00 6.8277632834069628e+00 
2829 2830 2 1.0279999917963525e+00 -1.1527632010112723e+03 1.0000000000000000e+00 1.2230202439513231e+00 5.3880280589920373e+00 6.6372490617387578e+00 
2 3 2 1.0280000081334617e+00 -7.7368263271133046e+01 1.0000000000000000e+00 7.3769924732241188e-01 7.4748209416188613e+00 5.9070830046394409e+00 
1942 1943 2 1.0280000002980370e+00 6.6120381710924278e+02 1.0000000000000000e+00 3.0842490465338441e+00 8.2210770150128969e+00 5.8265391453353956e+00 
1102 1103 2 1.0280000010769532e+00 7.2545389746546755e+02 1.0000000000000000e+00 3.3487725659609371e+00 8.9948422658480496e+00 6.0097591286703622e+00 
1275 1276 2 1.0279999997386464e+00 -4.6595016236803406e+02 1.0000000000000000e+00 8.3867146941119426e+00 8.6211037044439998e+00 6.0151545377718039e+00 
437 438 2 1.0279999998405358e+00 -1.4542771899373952e+03 1.0000000000000000e+00 6.8720575114332778e+00 1.0402949593891384e+01 6.5050105960686784e+00 
2245 2246 2 1.0279999995526787e+00 1.2811162742059259e+03 1.0000000000000000e+00 8.4048898634655789e+00 1.0750379364510131e+01 7.2040089481068650e+00 
1656 1657 2 1.0280000001927401e+00 2.6169700702716009e+03 1.0000000000000000e+00 9.1817346741139811e+00 9.2182696283684944e+00 5.8528246268241926e+00 
159 160 2 1.0280000002996559e+00 2.2015529476590658e+02 1.0000000000000000e+00 1.4356753717560540e+00 1.2016438573920308e+01 6.6387723668540399e+00 
581 582 2 1.0279999973592600e+00 6.7642657853465926e+02 1.0000000000000000e+00 4.1876550961776067e+00 1.2265313626654033e+01 6.0432819414972307e+00 
2279 2280 2 1.0280000002205696e+00 2.5271029805913267e+02 1.0000000000000000e+00 7.2164944239526934e+00 1.1468823282991483e+01 7.2191229553559237e+00 
1459 1460 2 1.0280000003559440e+00 3.7086755222737315e+02 1.0000000000000000e+00 3.0036606115831421e-01 1.4156835365216839e+01 6.3167078684358655e+00 
1039 1040 2 1.0279999993588957e+00 -4.2281183090545369e+02 1.0000000000000000e+00 2.3051716724182882e+00 1.3115735367923168e+01 6.3237063198035699e+00 
71 72 2 1.0280000015459032e+00 7.1217908712267388e+01 1.0000000000000000e+00 4.2390775625798520e+00 1.4004245391324988e+01 7.0748785153828377e+00 
1883 1884 2 1.0280000013536259e+00 -1.6842155529932955e+02 1.0000000000000000e+00 1.7874613753441757e+00 1.4807842321962131e+01 6.9164120452256634e+00 
554 555 2 1.0279999991033837e+00 6.3410903091673129e+02 1.0000000000000000e+00 4.8853403524737287e+00 1.5653061802397103e+01 5.7093553554502154e+00 
1462 1463 2 1.0279999995842926e+00 9.2485617307690450e+02 1.0000000000000000e+00 5.9543969814700572e+00 1.4660738901579560e+01 6.0331222763659067e+00 
619 620 2 1.0280000013024917e+00 -2.1086557191463326e+03 1.0000000000000000e+00 6.0358334230217796e+00 1.4767631809866931e+01 7.1246508419293146e+00 
451 452 2 1.0280000004140573e+00 -1.1558491975173361e+03 1.0000000000000000e+00 9.5681473967719981e+00 1.5889638445272034e+01 7.1494609357771770e+00 
3078 3079 2 1.0280000000000000e+00 8.4285654498085842e+02 1.0000000000000000e+00 3.0469122999789072e+01 1.4711871175289110e+01 7.1723525607408138e+00 
2071 2072 2 1.0279999991895707e+00 -4.9602655898194280e+03 1.0000000000000000e+00 6.7431775037322019e+00 1.8254801137861346e+01 5.5476423574498552e+00 
470 471 2 1.0280000000894869e+00 2.9977536581779998e+02 1.0000000000000000e+00 9.5234591511315383e+00 3.2825372484131758e+00 8.3414227051546739e+00 
1582 1583 2 1.0279999997880727e+00 3.7493156954653950e+03 1.0000000000000000e+00 1.6876822397316473e+00 4.2769815306453820e+00 7.9604419454774025e+00 
2368 2369 2 1.0279999993390818e+00 1.1911740892361506e+03 1.0000000000000000e+00 2.3163560837303923e+00 5.3698334853610499e+00 8.7286036447156832e+00 
1010 1011 2 1.0279999999277216e+00 2.4031635957210565e+03 1.0000000000000000e+00 9.5031748635036521e+00 4.5857741134286387e+00 7.6848348376051359e+00 
480 481 2 1.0280000001393794e+00 3.3973981245364207e+01 1.0000000000000000e+00 1.0505110532400820e+01 4.2788491422243506e+00 7.9246740481506404e+00 
4171 4172 2 1.0280000013139585e+00 -1.2480324740988401e+03 1.0000000000000000e+00 9.1455006019284313e-01 5.6091576059248229e+00 8.4098478472408402e+00 
2863 2864 2 1.0280000008064896e+00 5.7251598900143726e+01 1.0000000000000000e+00 1.2153524453575495e+00 8.7106721878441213e+00 8.5935713678040813e+00 
3703 3704 2 1.0279999981055847e+00 1.1135553021064643e+03 1.0000000000000000e+00 1.9434896885300230e+00 8.3909768542693044e+00 8.0699154103435884e+00 
45 46 2 1.0279999992619275e+00 -1.5518573901993468e+03 1.0000000000000000e+00 7.7176390269734521e+00 8.3208719059840561e+00 8.7886228638610397e+00 
2186 2187 2 1.0279999877088197e+00 1.5592707458519171e+03 1.0000000000000000e+00 3.5867561268932708e+00 1.0381658931132810e+01 8.7767602831057072e+00 
381 382 2 1.0280000102576938e+00 -1.5622871459553685e+03 1.0000000000000000e+00 3.8382237340462395e+00 1.0100782105795222e+01 8.0414195148807615e+00 
436 437 2 1.0280000007560444e+00 -9.8272169176090665e+02 1.0000000000000000e+00 7.0845507549789986e+00 9.7048334068866708e+00 7.6850058298650152e+00 
2202 2203 2 1.0280000003003584e+00 -5.9904422630228464e+02 1.0000000000000000e+00 8.7843223870382108e+00 9.2683945492309103e+00 7.3762604124160660e+00 
1049 1050 2 1.0279999986764279e+00 2.3580318056685942e+03 1.0000000000000000e+00 2.0960085049587041e-01 1.1241782278744864e+01 8.6308456998554526e+00 
1124 1125 2 1.0279999992341122e+00 2.6237751387624348e+03 1.0000000000000000e+00 2.8954225569502712e+00 1.1608959119539801e+01 7.4466260014215830e+00 
1921 1922 2 1.0280000013008617e+00 -7.7054647143454986e+02 1.0000000000000000e+00 2.0679346715567890e+00 1.2067427967325788e+01 8.1964979749401490e+00 
367 368 2 1.0279999992041047e+00 -2.3254646386166660e+03 1.0000000000000000e+00 6.5506091170773830e+00 1.2601578298385503e+01 8.7148091843014210e+00 
1716 1717 2 1.0280000009612271e+00 1.3493028573024426e+03 1.0000000000000000e+00 5.7738802958364532e+00 1.2712885374252053e+01 8.7722888757360487e+00 
114 115 2 1.0279999987665334e+00 -2.2208130330376497e+02 1.0000000000000000e+00 1.1251976003980972e+00 1.3232229166101664e+01 7.5021844213620410e+00 
1968 1969 2 1.0279999998436975e+00 -1.2915883870294074e+03 1.0000000000000000e+00 1.0360401591250106e+00 1.5392258719604762e+01 7.7012785257250034e+00 
1504 1505 2 1.0279999995082196e+00 1.6837713956464008e+03 1.0000000000000000e+00 4.4311041896419869e+00 1.4804772702263993e+01 7.5957975287401869e+00 
30 31 2 1.0280000018680535e+00 -1.2443244038549146e+03 1.0000000000000000e+00 8.0971215926109537e+00 1.4839289406298827e+01 8.1968643310865321e+00 
31 32 2 1.0279999980770345e+00 -1.1465087279865497e+03 1.0000000000000000e+00 7.5740013117121787e+00 1.5423051324840708e+01 8.3132383402882439e+00 
450 451 2 1.0279999993506885e+00 -1.2592363742693965e+03 1.0000000000000000e+00 9.7491931117414108e+00 1.6087326340053682e+01 7.8533367552245013e+00 
3077 3078 2 1.0280000000000000e+00 5.3997356329364365e+01 1.0000000000000000e+00 3.0481583973976552e+01 1.4778773410923929e+01 7.8764914610767933e+00 
3877 3878 2 1.0279999998701508e+00 5.9689185214044471e+01 1.0000000000000000e+00 4.9153314968930637e+00 1.8019575407872480e+01 7.5525793745406551e+00 
2999 3000 2 1.0279999998281006e+00 5.1116046504937767e+03 1.0000000000000000e+00 4.3140356964701958e+00 1.7538637552029524e+01 8.2468079238690812e+00 
4189 4190 2 1.0279999992270357e+00 -1.1660847125872720e+03 1.0000000000000000e+00 7.4018490988949708e+00 1.7688926004370590e+01 7.8717140061305004e+00 
2496 2497 2 1.0280000002183851e+00 -7.6549841484769217e+01 1.0000000000000000e+00 8.0449346785514759e+00 1.7997859506754239e+01 8.9612290463469613e+00 
589 590 2 1.0280000002942393e+00 1.2002054821973350e+02 1.0000000000000000e+00 5.8416365722173580e-01 1.9417317741307738e+01 7.7480973640479611e+00 
1428 1429 2 1.0280000000283351e+00 -7.3635080106217856e+02 1.0000000000000000e+00 1.3868680189761567e-01 1.9578037309260395e+01 8.8242690609278434e+00 
471 472 2 1.0280000003763048e+00 -5.0736806950495912e+02 1.0000000000000000e+00 4.1815736657420262e+00 1.9036829778444272e+01 8.4094046004051144e+00 
4188 4189 2 1.0280000009749641e+00 -1.2448678042850524e+03 1.0000000000000000e+00 7.3884818492313746e+00 1.8907578017450060e+01 8.0852297602403773e+00 
1529 1530 2 1.0280000067659616e+00 9.9727269833990874e+02 1.0000000000000000e+00 6.2613262557148097e+00 1.4285526100205210e+00 1.0492459211239467e+01 
2114 2115 2 1.0279999979291596e+00 -3.7542320525703531e+01 1.0000000000000000e+00 8.7682165024229999e+00 4.8957357457820500e-01 9.1378675813336905e+00 
1706 1707 2 1.0280000007055490e+00 9.9815039296959310e+02 1.0000000000000000e+00 1.0789578726736758e+01 8.4467659773301995e-01 9.3968756775460385e+00 
1955 1956 2 1.0279999987223747e+00 1.9142170522550835e+01 1.0000000000000000e+00 7.0524266069347794e+00 1.8527606787766586e+00 9.7896662206608198e+00 
2041 2042 2 1.0280000043869053e+00 -7.1320945367886551e+01 1.0000000000000000e+00 8.4618795461921295e+00 1.9699318371374472e+00 9.3004690811390169e+00 
2045 2046 2 1.0279999983520611e+00 -4.0562009945544652e+01 1.0000000000000000e+00 9.9159215709258408e+00 2.0140042952576804e+00 9.1637745497857441e+00 
3805 3806 2 1.0279999963130468e+00 2.2855339338037893e+03 1.0000000000000000e+00 9.3810437889415765e-01 5.3512023635839174e+00 1.0081611638718920e+01 
3320 3321 2 1.0279999997984259e+00 2.4042589702479008e+03 1.0000000000000000e+00 5.4818432685733445e+00 4.3465790708140526e+00 1.0776763384940837e+01 
2403 2404 2 1.0280000002671310e+00 -5.8425642973474658e+02 1.0000000000000000e+00 2.5921092480311039e+00 6.7481510263194675e+00 9.4954435168754276e+00 
945 946 2 1.0280000009219579e+00 -1.2497723398897331e+03 1.0000000000000000e+00 2.3433423014496393e+00 5.8799023062157376e+00 1.0782155719444690e+01 
4537 4538 2 1.0279999988394517e+00 -5.5343521396782467e+02 1.0000000000000000e+00 5.6962118071198322e+00 7.2164010015587934e+00 1.0159281046488951e+01 
3704 3705 2 1.0279999976383485e+00 2.8837598492841460e+02 1.0000000000000000e+00 1.2125412509661548e-01 8.4676769348450360e+00 1.0245859686491734e+01 
3706 3707 2 1.0280000025160387e+00 9.2321051887006274e+02 1.0000000000000000e+00 2.9220506373458872e+00 8.3855162682176694e+00 9.3925964279695826e+00 
3242 3243 2 1.0279999955315793e+00 -1.5228883486309792e+03 1.0000000000000000e+00 2.3753788483831531e+00 7.8762604651518036e+00 1.0490810318744099e+01 
3992 3993 2 1.0280000015283859e+00 6.1339218164404440e+02 1.0000000000000000e+00 5.0532184179081856e+00 7.8197078988292326e+00 9.4686828813698174e+00 
1934 1935 2 1.0280000023254618e+00 1.5670719806259253e+03 1.0000000000000000e+00 6.4585098387382658e+00 8.6031835204580673e+00 9.1182378042998202e+00 
2366 2367 2 1.0279999987515607e+00 7.5726729836867878e+02 1.0000000000000000e+00 1.7013667723641008e+00 9.8467839258822369e+00 1.0153955780462999e+01 
4422 4423 2 1.0280000003779133e+00 -8.8099531932051696e+02 1.0000000000000000e+00 8.3764077212886399e+00 9.3788172607442331e+00 9.5189185307844237e+00 
3209 3210 2 1.0279999990870683e+00 -4.2898821061661249e+02 1.0000000000000000e+00 7.4154634295776010e+00 9.9488971944144815e+00 9.8009485998358574e+00 
2788 2789 2 1.0279999986761252e+00 1.2311222502842140e+03 1.0000000000000000e+00 1.6198474197713462e+00 1.0968158951398527e+01 1.0346006173616123e+01 
2840 2841 2 1.0279999995488365e+00 3.0994979400494913e+02 1.0000000000000000e+00 5.5555824999320320e+00 1.3188726688222671e+01 1.0660492150592233e+01 
3799 3800 2 1.0280000002056073e+00 1.3961191464910089e+03 1.0000000000000000e+00 6.2034317219451145e+00 1.4867596326404319e+01 1.0072715613135896e+01 
2417 2418 2 1.0279999969910023e+00 2.4690381368801347e+01 1.0000000000000000e+00 6.2530830437738416e+00 1.7839682579376980e+01 9.7908142269820981e+00 
2580 2581 2 1.0280000018810294e+00 -7.3337402160550610e+01 1.0000000000000000e+00 7.3212086761328568e+00 1.6825352220830919e+01 1.0151544696579379e+01 
1515 1516 2 1.0280000000329763e+00 -2.5753303804738800e+02 1.0000000000000000e+00 5.1186321982654510e+00 1.9544224234213658e+01 9.2769709041868023e+00 
3001 3002 2 1.0280000031370746e+00 4.2804921400427502e+03 1.0000000000000000e+00 6.3695397490292933e+00 1.9522124097165186e+01 1.0481650626742063e+01 
1527 1528 2 1.0279999997522162e+00 1.6427161601023790e+03 1.0000000000000000e+00 2.5681879638339478e+00 1.1617538889292349e-01 1.2502484725791682e+01 
1530 1531 2 1.0279999980832528e+00 1.1437423589270547e+03 1.0000000000000000e+00 4.7998642684184842e+00 3.1770494868516913e-01 1.1246028896607736e+01 
1407 1408 2 1.0280000035890382e+00 -2.0809453470196268e+03 1.0000000000000000e+00 3.8768116617133002e+00 5.3671184066731503e-01 1.1530179685352900e+01 
1826 1827 2 1.0279999968638520e+00 -2.2291689152410690e+03 1.0000000000000000e+00 7.2265117349853725e+00 8.6006813968537030e-02 1.1814170586712109e+01 
2118 2119 2 1.0279999997164504e+00 -8.4547631805675579e+01 1.0000000000000000e+00 7.8070241244293159e+00 1.6326096551297964e+00 1.2091539487123578e+01 
1455 1456 2 1.0279999991762470e+00 7.0478875766104636e+02 1.0000000000000000e+00 5.8053266572021771e+00 2.9375723843191146e+00 1.1782172893240032e+01 
1951 1952 2 1.0279999992810342e+00 -8.9100588499808782e+02 1.0000000000000000e+00 7.4692523996622817e-01 4.6161631823810865e+00 1.1887348814885391e+01 
1068 1069 2 1.0280000002821263e+00 1.0469065038950898e+03 1.0000000000000000e+00 2.4066745611663714e+00 4.5245219202305353e+00 1.1703110978825302e+01 
1946 1947 2 1.0280000052324729e+00 2.0311673943738396e+02 1.0000000000000000e+00 3.7407285270448085e+00 4.7614770108101760e+00 1.2337518332679316e+01 
1907 1908 2 1.0280000039774637e+00 2.1891190407667773e+03 1.0000000000000000e+00 5.4667177853806050e+00 4.2592985069405609e+00 1.2453523303258699e+01 
598 599 2 1.0279999990763682e+00 -8.6854495293040145e+02 1.0000000000000000e+00 6.5236190734931752e+00 4.1520827220969103e+00 1.0973965480755439e+01 
4287 4288 2 1.0279999977317968e+00 -5.8735284180650763e+02 1.0000000000000000e+00 4.0867830527367519e-02 5.9791132375642784e+00 1.2411258070460578e+01 
648 649 2 1.0279999979942755e+00 -1.2111527331744810e+03 1.0000000000000000e+00 2.7088712873238929e+00 6.9110059194789315e+00 1.1941494212586095e+01 
1940 1941 2 1.0279999997278877e+00 5.0571013841121896e+01 1.0000000000000000e+00 3.2985103708915346e+00 8.2558696166846808e+00 1.2315168703238495e+01 
4454 4455 2 1.0280000003045628e+00 2.9166309631032868e+02 1.0000000000000000e+00 5.4653628285047855e+00 8.4992267438017350e+00 1.1022942944843253e+01 
4541 4542 2 1.0280000027666123e+00 3.8003775746558699e+02 1.0000000000000000e+00 5.1370070463311039e+00 7.9862931660072958e+00 1.2059972468044935e+01 
4269 4270 2 1.0280000004314434e+00 -3.9075085069680802e+02 1.0000000000000000e+00 1.0182556433230598e+00 9.4471730430439536e+00 1.1683340862439417e+01 
607 608 2 1.0280000027672287e+00 -1.4507466720003131e+03 1.0000000000000000e+00 2.1838506253418513e+00 9.5460837439832655e+00 1.2143625838860252e+01 
72 73 2 1.0279999988845465e+00 -4.2997125530888212e+02 1.0000000000000000e+00 3.5565763994907735e+00 1.0328156407744000e+01 1.2536059633102564e+01 
2030 2031 2 1.0279999998788776e+00 -4.5553684696146519e+01 1.0000000000000000e+00 6.8114395666698764e+00 1.0899250340243283e+01 1.1112203993867643e+01 
1661 1662 2 1.0279999998420903e+00 2.2262096171786575e+03 1.0000000000000000e+00 8.4863703689481120e+00 1.0679243844983310e+01 1.2093340480880203e+01 
572 573 2 1.0279999989310211e+00 1.9971527889625222e+03 1.0000000000000000e+00 1.7751174040128608e+00 1.1543911692548141e+01 1.1888762826768842e+01 
557 558 2 1.0280000018719095e+00 2.6396272470435260e+03 1.0000000000000000e+00 3.2530945777007219e+00 1.1109054548587098e+01 1.1002699512010055e+01 
523 524 2 1.0279999980635421e+00 -4.6157523139966969e+02 1.0000000000000000e+00 3.5465267819401465e+00 1.2278173907511480e+01 1.1288393824314817e+01 
3047 3048 2 1.0280000005416903e+00 2.3117908607210202e+03 1.0000000000000000e+00 6.4637928053441440e+00 1.2309283935786118e+01 1.1453394879527011e+01 
1282 1283 2 1.0279999998188578e+00 -1.1432096921456023e+03 1.0000000000000000e+00 7.0569333467183482e+00 1.1430570372609333e+01 1.2503487722265632e+01 
2129 2130 2 1.0280000003599175e+00 -3.9279752941351688e+01 1.0000000000000000e+00 8.5004941696796017e+00 1.1214874774163194e+01 1.1248369564462697e+01 
613 614 2 1.0280000028708003e+00 -1.1009271179911439e+03 1.0000000000000000e+00 2.6328403791712547e+00 1.2975884721502773e+01 1.2085605547227727e+01 
2841 2842 2 1.0280000014705504e+00 6.8678359271545867e+02 1.0000000000000000e+00 4.0600869791273411e+00 1.4184416042927031e+01 1.2098711078009435e+01 
3592 3593 2 1.0280000001539649e+00 -1.1635783671695667e+03 1.0000000000000000e+00 6.7629440481521685e+00 1.4179999538204667e+01 1.0940202892771504e+01 
4253 4254 2 1.0280000018293789e+00 -1.4041745684110458e+03 1.0000000000000000e+00 5.0438884251982614e+00 1.4573593018011142e+01 1.1146911094598856e+01 
2669 2670 2 1.0280000006282084e+00 1.0364098975297816e+01 1.0000000000000000e+00 6.7200468134385503e+00 1.6251891771533614e+01 1.1024308728482447e+01 
819 820 2 1.0279999997539122e+00 2.1028893217983850e+03 1.0000000000000000e+00 5.3096725263388134e+00 1.7117549276008631e+01 1.0920297227525863e+01 
901 902 2 1.0280000018561726e+00 3.0503698992712629e+02 1.0000000000000000e+00 5.7635777434186730e+00 1.8142574114590275e+01 1.1292910778282772e+01 
4556 4557 2 1.0279999992726960e+00 1.0501578621574756e+03 1.0000000000000000e+00 7.7323922810051418e+00 1.9969249152268194e+01 1.1055755935740923e+01 
3531 3532 2 1.0280000003610692e+00 1.5231772221822071e+03 1.0000000000000000e+00 2.5820603657248856e+01 1.6134143695542627e-01 1.3315304585911457e+01 
2034 2035 2 1.0279999971478218e+00 -7.5905503484742695e+01 1.0000000000000000e+00 5.4711673955993998e+00 2.8056709279761631e+00 1.3248733345886853e+01 
1324 1325 2 1.0280000015574589e+00 1.2575868277433080e+00 1.0000000000000000e+00 6.1139506204794882e+00 2.2740322484196276e+00 1.4378701571941901e+01 
3044 3045 2 1.0280000004073320e+00 2.2454632076448147e+03 1.0000000000000000e+00 7.0245019718643888e+00 2.9467466307869272e+00 1.4168548306717796e+01 
2125 2126 2 1.0280000032864851e+00 -8.3383544821494397e+01 1.0000000000000000e+00 7.7038902671956011e+00 2.0623067585809141e+00 1.2981314123921987e+01 
2408 2409 2 1.0280000000427467e+00 1.9228438331757346e+02 1.0000000000000000e+00 5.7067936099985095e-01 4.9277355899252155e+00 1.3933251807867201e+01 
3378 3379 2 1.0280000015514243e+00 1.0433131871064952e+03 1.0000000000000000e+00 1.8218746334132583e+00 4.1933948405541814e+00 1.3307846983367124e+01 
1944 1945 2 1.0279999974292493e+00 1.0208796940977986e+02 1.0000000000000000e+00 3.2538191777630914e+00 3.8862990944732934e+00 1.3196291494631652e+01 
2968 2969 2 1.0279999972644691e+00 3.6981883218990133e+03 1.0000000000000000e+00 1.9176834641420977e+00 6.2069018901331674e+00 1.3056669138547287e+01 
3806 3807 2 1.0280000016431154e+00 1.9653320476550425e+03 1.0000000000000000e+00 2.0475671108232443e+00 6.7092515363020260e+00 1.4466454104665603e+01 
482 483 2 1.0280000007941692e+00 1.2696190950389969e+03 1.0000000000000000e+00 3.1544676975582222e+00 5.5680676194346947e+00 1.3938399117022200e+01 
3716 3717 2 1.0280000004836438e+00 1.3154810377370643e+03 1.0000000000000000e+00 4.1900700590105568e+00 6.8249955782418024e+00 1.3357989186105691e+01 