LAMMPS data file via write_data, version 30 Jul 2016, timestep = 50000000

1520 atoms
8 atom types

0.0000000000000000e+00 4.0000000000000000e+01 xlo xhi
0.0000000000000000e+00 4.0000000000000000e+01 ylo yhi
0.0000000000000000e+00 1.0000000000000000e+02 zlo zhi

Masses

1 3.896
2 5.36
3 20.064
4 8.378
5 8.378
6 8.378
7 8.378
8 8.378

Atoms # meso-molecular

504 505 2 1.0280000000181708e+00 1.2300506478015373e+03 1.0000000000000000e+00 6.3482547794885154e+00 1.9955441195328576e+00 2.2923168100856785e+01 
960 961 2 1.0280000000161904e+00 1.2297259086888087e+03 1.0000000000000000e+00 6.3419278324325221e+00 2.8802786267293667e+00 2.2923946496294313e+01 
619 620 2 1.0279999999986607e+00 -1.5446433477288733e+03 1.0000000000000000e+00 4.9679667452931460e+00 1.8616551824904555e+00 2.3723341139898483e+01 
1224 1225 2 1.0280000000250185e+00 -5.3036381608156953e+03 1.0000000000000000e+00 5.8191880147694164e+00 8.9811164505146002e-01 2.3791340360473455e+01 
771 772 2 1.0279999999667160e+00 -1.5447479591114297e+03 1.0000000000000000e+00 4.9936363897632088e+00 3.2680099369217346e+00 2.3806388806278324e+01 
957 958 2 1.0279999999842131e+00 1.2297435395785833e+03 1.0000000000000000e+00 7.0200357024095279e+00 2.8013541925203822e+00 2.2878754390754342e+01 
501 502 2 1.0279999999721148e+00 1.2300573657118089e+03 1.0000000000000000e+00 7.0914934240804355e+00 2.0038538876307035e+00 2.2894451054409664e+01 
618 619 2 1.0279999999922556e+00 -1.5445971323633769e+03 1.0000000000000000e+00 8.6319139307914821e+00 1.8967494537316598e+00 2.3534556731700469e+01 
770 771 2 1.0280000000341603e+00 -1.5446826226337685e+03 1.0000000000000000e+00 8.6371471748338369e+00 3.2567949585687721e+00 2.3656680796804512e+01 
1221 1222 2 1.0279999999697444e+00 -5.3035674220197106e+03 1.0000000000000000e+00 7.9957522057045916e+00 9.9655513773499349e-01 2.3660641500947690e+01 
996 997 2 1.0280000000768983e+00 -9.2832332005290191e+03 1.0000000000000000e+00 8.9857781385794286e+00 1.9510785149403389e+00 2.4205490020550574e+01 
160 161 2 1.0280000000655272e+00 -5.3040975016591765e+03 1.0000000000000000e+00 5.9033917654263064e+00 4.2223090549326772e+00 2.3902700258073658e+01 
157 158 2 1.0280000000911396e+00 -5.3040023490800013e+03 1.0000000000000000e+00 7.9495579701976515e+00 4.1725190039167002e+00 2.3817583454875990e+01 
33 34 2 1.0279999999282974e+00 6.5411865540865193e+01 1.0000000000000000e+00 6.5995981656528597e+00 7.1852517906205229e+00 2.4206596700502157e+01 
36 37 2 1.0280000000760039e+00 6.5338093239835729e+01 1.0000000000000000e+00 7.6223905794628593e+00 7.1839644300786523e+00 2.4237239457745709e+01 
993 994 2 1.0279999999328608e+00 -9.2833590613769338e+03 1.0000000000000000e+00 4.7315811472226743e+00 1.9179051501476461e+00 2.4446297609585361e+01 
537 538 2 1.0279999999199168e+00 -9.2837263876619982e+03 1.0000000000000000e+00 4.7952588592705947e+00 3.2708378960828828e+00 2.4511918121247682e+01 
244 245 2 1.0280000000988210e+00 6.9297593516323068e+03 1.0000000000000000e+00 5.6023248216195976e+00 5.1980073669695603e-01 2.4782405233001242e+01 
118 119 2 1.0279999998573142e+00 -3.9628951443791880e+02 1.0000000000000000e+00 4.8220199990908110e+00 1.8693710776331673e+00 2.4933753286798211e+01 
99 100 2 1.0280000003328222e+00 -4.0835119152008547e+03 1.0000000000000000e+00 5.6242041264437503e+00 1.0168418131125110e+00 2.5769571329114367e+01 
1387 1388 2 1.0279999997263991e+00 -8.4737598020663154e+02 1.0000000000000000e+00 5.6884650056807624e+00 1.8378574858242478e+00 2.7106626159182902e+01 
540 541 2 1.0280000001223335e+00 -9.2836093829611818e+03 1.0000000000000000e+00 8.9490559425245557e+00 3.2504380091069596e+00 2.4397321759388365e+01 
241 242 2 1.0279999999773171e+00 6.9298125758092665e+03 1.0000000000000000e+00 8.3943296898578996e+00 5.7875071532690381e-01 2.4705563253968975e+01 
119 120 2 1.0280000000837102e+00 -3.9629405556375889e+02 1.0000000000000000e+00 8.9485497857830527e+00 1.9042573056788701e+00 2.4788959019125819e+01 
1487 1488 2 1.0280000001540726e+00 -3.9634323536290879e+02 1.0000000000000000e+00 8.8911134006140724e+00 3.3221633328458107e+00 2.4818605725662490e+01 
98 99 2 1.0279999994866442e+00 -4.0835073933824124e+03 1.0000000000000000e+00 8.2649437846205522e+00 9.9452828326245801e-01 2.5834337491610224e+01 
1386 1387 2 1.0280000003256198e+00 -8.4750713207515150e+02 1.0000000000000000e+00 8.0615597500962828e+00 1.8382573607851771e+00 2.7055276309718021e+01 
155 156 2 1.0280000001825862e+00 -1.7705245592865222e+03 1.0000000000000000e+00 6.0865300676384093e+00 5.5920328196956550e+00 2.4856820926312022e+01 
1486 1487 2 1.0279999999013645e+00 -3.9638792317635375e+02 1.0000000000000000e+00 4.8705184275450790e+00 3.3454175243762245e+00 2.4862302062558562e+01 
1308 1309 2 1.0280000002644318e+00 6.9289507430630874e+03 1.0000000000000000e+00 5.8086524991134025e+00 4.6183770329996419e+00 2.4899661153990063e+01 
1467 1468 2 1.0280000002759291e+00 -4.0835578997056436e+03 1.0000000000000000e+00 5.7393266633116040e+00 4.1045570677681287e+00 2.5784930872751403e+01 
19 20 2 1.0280000001666296e+00 -8.4770534164279661e+02 1.0000000000000000e+00 5.6078431141578271e+00 3.3977531108231229e+00 2.7096320443770473e+01 
154 155 2 1.0279999997815192e+00 -1.7705948395541936e+03 1.0000000000000000e+00 8.0561146699987791e+00 5.5496321738135812e+00 2.4738255832203158e+01 
1305 1306 2 1.0279999997353961e+00 6.9290124071404325e+03 1.0000000000000000e+00 8.2117162465239630e+00 4.5969659701512082e+00 2.4884636737607600e+01 
1466 1467 2 1.0279999990142574e+00 -4.0835446206217584e+03 1.0000000000000000e+00 8.0888925534904441e+00 4.1273595877683764e+00 2.5861703687093740e+01 
18 19 2 1.0280000002153433e+00 -8.4779282747236016e+02 1.0000000000000000e+00 8.2481150465373236e+00 3.3357593615674421e+00 2.7022958580289998e+01 
327 328 2 1.0279999999146523e+00 8.5063381061668770e+03 1.0000000000000000e+00 6.5149222206738431e+00 7.2579555061791643e+00 2.4480235004797560e+01 
766 767 2 1.0279999999164435e+00 -6.0540597702754385e+03 1.0000000000000000e+00 6.5224626756798028e+00 7.2798018856088174e+00 2.4558241607687545e+01 
1459 1460 2 1.0279999999399678e+00 2.0254530618264021e+03 1.0000000000000000e+00 6.5733826896432381e+00 7.2415510392825224e+00 2.4898495737677816e+01 
326 327 2 1.0280000000788660e+00 8.5064640933771389e+03 1.0000000000000000e+00 7.6971881025154723e+00 7.2429428245435448e+00 2.4501343736426435e+01 
767 768 2 1.0280000000715872e+00 -6.0539721539352886e+03 1.0000000000000000e+00 7.6892739053642822e+00 7.2628813738999654e+00 2.4587587129399488e+01 
1458 1459 2 1.0280000000153544e+00 2.0255415541116081e+03 1.0000000000000000e+00 7.6310545605345714e+00 7.2184580465839607e+00 2.4917839950600325e+01 
1362 1363 2 1.0280000006233800e+00 -9.6392876103159761e+03 1.0000000000000000e+00 5.6650797626433649e+00 2.1123785216577806e-01 2.7568741910349942e+01 
1474 1475 2 1.0279999996685631e+00 1.7813694246096861e+03 1.0000000000000000e+00 5.1226752950902279e+00 7.6717589063705083e-01 2.8138380214342035e+01 
1325 1326 2 1.0279999996610443e+00 4.4368614013440656e+03 1.0000000000000000e+00 5.1220949608589130e+00 1.0546446039583812e+00 2.8169110940747856e+01 
1316 1317 2 1.0279999996604436e+00 6.9495682425322102e+03 1.0000000000000000e+00 5.1198792800700206e+00 1.0943398848586841e+00 2.8195578002523160e+01 
1058 1059 2 1.0279999996337725e+00 -7.8418848780614871e+02 1.0000000000000000e+00 5.0863228569208161e+00 8.7771195820783598e-01 2.8260197883341707e+01 
200 201 2 1.0280000006773815e+00 3.5105931874198150e+03 1.0000000000000000e+00 6.1856461675859702e+00 1.6611257476308290e+00 2.9951912268611096e+01 
260 261 2 1.0280000005207901e+00 3.5105219649573419e+03 1.0000000000000000e+00 6.4400812872889022e+00 1.2902182508870532e+00 3.0239878065579088e+01 
1363 1364 2 1.0279999995640903e+00 -9.6392861702622431e+03 1.0000000000000000e+00 8.3724365127892035e+00 2.1215250695098883e-01 2.7509677939720603e+01 
1475 1476 2 1.0280000001203371e+00 1.7813625870888959e+03 1.0000000000000000e+00 8.8935408171607815e+00 7.9141656667218963e-01 2.8090825310842369e+01 
1328 1329 2 1.0280000002425045e+00 4.4368507751762618e+03 1.0000000000000000e+00 8.8836779635418104e+00 1.0849885638293044e+00 2.8114528100479301e+01 
1313 1314 2 1.0280000002649223e+00 6.9495570170490573e+03 1.0000000000000000e+00 8.8846299302617808e+00 1.1253045396085790e+00 2.8138072822095918e+01 
1059 1060 2 1.0280000001984826e+00 -7.8419633160704848e+02 1.0000000000000000e+00 8.9260734236875816e+00 9.0314801205851480e-01 2.8206687493704429e+01 
197 198 2 1.0279999994671500e+00 3.5105817196925591e+03 1.0000000000000000e+00 7.7746893593558530e+00 1.6408546020447234e+00 2.9838000522434683e+01 
257 258 2 1.0279999990560220e+00 3.5105189035186968e+03 1.0000000000000000e+00 7.4872843199693611e+00 1.2714312896184921e+00 3.0115942883285079e+01 
298 299 2 1.0280000000475766e+00 -9.6392996519735862e+03 1.0000000000000000e+00 5.8261298697667403e+00 4.9866362065564704e+00 2.7648441087396527e+01 
106 107 2 1.0279999998028646e+00 1.7813805088122765e+03 1.0000000000000000e+00 5.2537726642514633e+00 4.4938818060808492e+00 2.8156655666462768e+01 
261 262 2 1.0279999997755578e+00 4.4368757198543271e+03 1.0000000000000000e+00 5.2369880948686047e+00 4.2071768064455748e+00 2.8181473683090189e+01 
252 253 2 1.0279999997699121e+00 6.9495821115311010e+03 1.0000000000000000e+00 5.2330081359930984e+00 4.1678543278551556e+00 2.8209387068022703e+01 
602 603 2 1.0279999997635678e+00 -7.8417473968641389e+02 1.0000000000000000e+00 5.2159078812011446e+00 4.3886267334581541e+00 2.8274097861268316e+01 
913 914 2 1.0280000005680690e+00 8.8267235635176112e+03 1.0000000000000000e+00 6.5638420890646305e+00 5.8919327071875554e+00 2.8609705050498700e+01 
1264 1265 2 1.0280000007952825e+00 3.5105852801858546e+03 1.0000000000000000e+00 6.2627092628405734e+00 3.5679215633475647e+00 3.0021090169585751e+01 
299 300 2 1.0279999995945055e+00 -9.6392906678403961e+03 1.0000000000000000e+00 8.2340768251329717e+00 4.9837543516979173e+00 2.7633283002394219e+01 
107 108 2 1.0280000001879364e+00 1.7813786111711206e+03 1.0000000000000000e+00 8.8269049890607292e+00 4.4867659286405290e+00 2.8159336956105204e+01 
264 265 2 1.0280000002796321e+00 4.4368686579406603e+03 1.0000000000000000e+00 8.8293708200772212e+00 4.1902836585152095e+00 2.8174113783437789e+01 
249 250 2 1.0280000002986855e+00 6.9495742117050049e+03 1.0000000000000000e+00 8.8316671511470695e+00 4.1500641201492456e+00 2.8197806247153487e+01 
603 604 2 1.0280000002518894e+00 -7.8417815940787250e+02 1.0000000000000000e+00 8.8632948019377338e+00 4.3774439559633382e+00 2.8273185944888411e+01 
916 917 2 1.0280000000727381e+00 8.8267315849095612e+03 1.0000000000000000e+00 7.6207532860840557e+00 5.8567182527540522e+00 2.8556026333573769e+01 
1261 1262 2 1.0279999993516440e+00 3.5105731951778325e+03 1.0000000000000000e+00 7.7697737110969634e+00 3.6071683635861134e+00 2.9920843519106153e+01 
1321 1322 2 1.0279999988138149e+00 3.5105025277296145e+03 1.0000000000000000e+00 7.5197713990134556e+00 3.9559570115572136e+00 3.0258289736333591e+01 
730 731 2 1.0280000003989904e+00 3.0622600689723577e+03 1.0000000000000000e+00 5.3591346076810567e+00 6.9084657723977871e+00 2.9234721131238661e+01 
1507 1508 2 1.0280000002639318e+00 -7.0231938706444234e+03 1.0000000000000000e+00 5.1635827019146774e+00 7.1720608709450202e+00 2.9418175980683444e+01 
5 6 2 1.0280000001067111e+00 -5.9166740645764935e+02 1.0000000000000000e+00 5.5099171284470794e+00 8.0515616480604937e+00 2.9755951552331041e+01 
894 895 2 1.0280000000367626e+00 -2.5051450001732655e+03 1.0000000000000000e+00 5.4547037511441605e+00 8.1904445421692706e+00 2.9929703934487890e+01 
778 779 2 1.0280000000064033e+00 -2.5051834242750929e+03 1.0000000000000000e+00 5.4294996735378867e+00 8.2399969374001856e+00 3.0013662521477485e+01 
145 146 2 1.0279999999374578e+00 -5.9182562114122379e+02 1.0000000000000000e+00 5.3605493938748419e+00 8.3308445123983521e+00 3.0252975824346446e+01 
731 732 2 1.0280000000501957e+00 3.0622817025467348e+03 1.0000000000000000e+00 8.8194932341522598e+00 6.9238099642372619e+00 2.9198619707132359e+01 
1506 1507 2 1.0279999999890830e+00 -7.0231776223844627e+03 1.0000000000000000e+00 9.0229539568860488e+00 7.1861391178302938e+00 2.9378763946940367e+01 
8 9 2 1.0279999998235374e+00 -5.9165076457105488e+02 1.0000000000000000e+00 8.6952940202689639e+00 8.0429718257192455e+00 2.9731637738733419e+01 
895 896 2 1.0279999998878377e+00 -2.5051295648943997e+03 1.0000000000000000e+00 8.7508531129237745e+00 8.1818179338117716e+00 2.9904984118058884e+01 
779 780 2 1.0279999999244083e+00 -2.5051685051554159e+03 1.0000000000000000e+00 8.7759525116216448e+00 8.2316934691436181e+00 2.9988709994695757e+01 
148 149 2 1.0280000000307503e+00 -5.9181144340376613e+02 1.0000000000000000e+00 8.8448289906473878e+00 8.3242158248946883e+00 3.0227622432874444e+01 
1272 1273 2 1.0280000002429344e+00 6.9498230827557372e+03 1.0000000000000000e+00 5.3722089867376202e+00 4.8361585897034259e-01 3.2092166567653479e+01 
918 919 2 1.0280000001538940e+00 -7.8401361849781188e+02 1.0000000000000000e+00 5.2681151482987350e+00 4.6276986624340755e-01 3.2109570196187846e+01 
1257 1258 2 1.0280000002009042e+00 4.4371043886444886e+03 1.0000000000000000e+00 5.3503346827767055e+00 4.8733538842067509e-01 3.2115793716386513e+01 
1414 1415 2 1.0279999998668663e+00 1.7814644727088071e+03 1.0000000000000000e+00 5.0928055182847709e+00 4.0067676381723338e-01 3.2237822186305806e+01 
34 35 2 1.0279999992237878e+00 -4.0101961763090515e+02 1.0000000000000000e+00 5.1185050028167405e+00 9.2464797070085802e-01 3.3252571518822485e+01 
919 920 2 1.0279999996298728e+00 -7.8398486165539839e+02 1.0000000000000000e+00 8.9364193166963375e+00 4.2534485731509336e-01 3.2027976412782394e+01 
1269 1270 2 1.0279999987908854e+00 6.9498611162740435e+03 1.0000000000000000e+00 8.8083603151648919e+00 4.4907454632273985e-01 3.2037361172067335e+01 
1260 1261 2 1.0279999989699040e+00 4.4371396851303998e+03 1.0000000000000000e+00 8.8381714139382463e+00 4.5790679056739159e-01 3.2053202050025291e+01 
1415 1416 2 1.0280000009073085e+00 1.7814894307209911e+03 1.0000000000000000e+00 9.1742626116610175e+00 3.3635147345385141e-01 3.2140184826229095e+01 
35 36 2 1.0279999998874954e+00 -4.0109408701799669e+02 1.0000000000000000e+00 9.4816085718179881e+00 9.8228643765334367e-01 3.3184913472791337e+01 
1324 1325 2 1.0280000005308758e+00 3.5105028542048030e+03 1.0000000000000000e+00 6.5183205948549148e+00 3.9176464160618787e+00 3.0366040402026073e+01 
1051 1052 2 1.0279999997405100e+00 -4.0423198293548157e+03 1.0000000000000000e+00 4.8679098243696171e+00 5.4503544259969896e+00 3.0405687013547318e+01 
927 928 2 1.0279999997190308e+00 -4.0423423080350676e+03 1.0000000000000000e+00 4.8818843120546891e+00 5.4453949338490251e+00 3.0517175475004663e+01 
462 463 2 1.0280000001415932e+00 -7.8402248757439884e+02 1.0000000000000000e+00 5.3461659285212271e+00 4.7580834698616883e+00 3.2181067937364460e+01 
208 209 2 1.0280000004057530e+00 6.9498064913618564e+03 1.0000000000000000e+00 5.4227029910872915e+00 4.7038462740135065e+00 3.2194424019676084e+01 
193 194 2 1.0280000003038863e+00 4.4370897550653226e+03 1.0000000000000000e+00 5.3988683216541640e+00 4.7080891550263146e+00 3.2214277599309341e+01 
46 47 2 1.0279999996695872e+00 1.7814478619060949e+03 1.0000000000000000e+00 5.2137368857657496e+00 4.8587250657118197e+00 3.2274678949008219e+01 
1402 1403 2 1.0279999991566025e+00 -4.0048521856345019e+02 1.0000000000000000e+00 5.3728911968003326e+00 4.2133433231426176e+00 3.3218612757742022e+01 
1050 1051 2 1.0279999998841625e+00 -4.0422966306629814e+03 1.0000000000000000e+00 9.3494156887774231e+00 5.4619354202714581e+00 3.0310843297730212e+01 
926 927 2 1.0279999998360569e+00 -4.0423182373974587e+03 1.0000000000000000e+00 9.3421428757235354e+00 5.4595523520926568e+00 3.0423750245307652e+01 
463 464 2 1.0279999994324756e+00 -7.8399565285937297e+02 1.0000000000000000e+00 8.9683226406644678e+00 4.8331870079998609e+00 3.2091203655441944e+01 
205 206 2 1.0279999991794795e+00 6.9498439710248695e+03 1.0000000000000000e+00 8.8795018742094882e+00 4.7808679851461457e+00 3.2112182179041987e+01 
196 197 2 1.0279999993092575e+00 4.4371239990250169e+03 1.0000000000000000e+00 8.9102445093605560e+00 4.7795572732938654e+00 3.2126506214158205e+01 
47 48 2 1.0280000002807916e+00 1.7814707229744677e+03 1.0000000000000000e+00 9.1541559357378350e+00 4.9547078684697947e+00 3.2173176166614972e+01 
1403 1404 2 1.0279999989214368e+00 -4.0046540124624528e+02 1.0000000000000000e+00 9.5842427580132004e+00 4.2666039724411284e+00 3.3245061019020518e+01 
1383 1384 2 1.0279999998744562e+00 -7.0235778371831211e+03 1.0000000000000000e+00 4.7053801770278945e+00 7.2902071349970310e+00 3.0698879534115932e+01 
435 436 2 1.0279999998277871e+00 8.5171896870940909e+03 1.0000000000000000e+00 6.0007329050506710e+00 8.7246224794303480e+00 3.1274753044548916e+01 
638 639 2 1.0279999997604734e+00 3.0618465015872844e+03 1.0000000000000000e+00 4.8926487574166106e+00 6.9682826244654601e+00 3.1373653362804127e+01 
1431 1432 2 1.0279999997881790e+00 2.0467759539198155e+03 1.0000000000000000e+00 6.1058337619791230e+00 8.3616378033521883e+00 3.2497025696121341e+01 
906 907 2 1.0279999997822935e+00 -6.0355802684270602e+03 1.0000000000000000e+00 6.3698967907239616e+00 8.4395246333135070e+00 3.2733107295540364e+01 
1382 1383 2 1.0280000001029284e+00 -7.0235640447691767e+03 1.0000000000000000e+00 9.5341676245664821e+00 7.3215378106898514e+00 3.0669334131208739e+01 
434 435 2 1.0280000002719998e+00 8.5175068067069660e+03 1.0000000000000000e+00 8.2180918256466295e+00 8.7126032679504544e+00 3.1286504285085762e+01 
639 640 2 1.0280000002135237e+00 3.0618616008150198e+03 1.0000000000000000e+00 9.3735853114323167e+00 7.0046265496630538e+00 3.1361256595280782e+01 
1430 1431 2 1.0280000002163778e+00 2.0471940204669058e+03 1.0000000000000000e+00 8.1270196073636480e+00 8.3587393804981858e+00 3.2507551278721806e+01 
907 908 2 1.0280000000862271e+00 -6.0352456500164262e+03 1.0000000000000000e+00 7.8640443087639289e+00 8.4333728641920640e+00 3.2753661781997934e+01 
117 118 2 1.0279999998152820e+00 8.4854207164836723e+01 1.0000000000000000e+00 6.6874463914287130e+00 8.5533101477983404e+00 3.2846471373632305e+01 
120 121 2 1.0279999999919631e+00 8.5216418870681224e+01 1.0000000000000000e+00 7.5514509653932000e+00 8.5371138378938607e+00 3.2878539515221213e+01 
267 268 2 1.0279999996795846e+00 -2.4369452461097253e+03 1.0000000000000000e+00 2.2457719754045558e+00 2.1309676255790171e+00 3.5929620259503594e+01 
520 521 2 1.0280000003943861e+00 -5.0539474523267909e+03 1.0000000000000000e+00 3.1312591714369042e+00 1.3404153168511155e+00 3.6298608653238652e+01 
1331 1332 2 1.0279999997209632e+00 -2.4367292368491107e+03 1.0000000000000000e+00 1.8595893640195917e+00 3.2772889041680413e+00 3.6338970805078688e+01 
751 752 2 1.0279999972350438e+00 -1.5617410409174249e+03 1.0000000000000000e+00 5.1364041689222057e+00 1.6468452202950414e+00 3.4402832929735055e+01 
439 440 2 1.0280000011328145e+00 2.5558522812661863e+03 1.0000000000000000e+00 4.4305389803661379e+00 1.7500491641629634e+00 3.4702866698808485e+01 
981 982 2 1.0280000031624190e+00 -9.2964643598289476e+03 1.0000000000000000e+00 4.6524962667342535e+00 8.1281678298047821e-01 3.5061043118760459e+01 
325 326 2 1.0280000005351630e+00 5.0373783625423073e+02 1.0000000000000000e+00 3.4390760286240676e+00 1.4668718366347699e+00 3.5631087902254471e+01 
750 751 2 1.0280000004023628e+00 -1.5616689603309865e+03 1.0000000000000000e+00 9.4634377258778759e+00 1.7183801178785372e+00 3.3709209969934186e+01 
561 562 2 1.0280000009935706e+00 1.2129254554302879e+03 1.0000000000000000e+00 7.6873146522305573e+00 1.2888005135791341e+00 3.4356011388502921e+01 
1177 1178 2 1.0280000045841453e+00 3.1879797170800327e+02 1.0000000000000000e+00 8.0786481249084776e+00 2.5820045219875007e+00 3.4850732617891843e+01 
984 985 2 1.0279999977536298e+00 -9.2966659156675960e+03 1.0000000000000000e+00 9.6213307955990750e+00 6.5283539089284826e-01 3.5048847035793194e+01 
438 439 2 1.0279999994107287e+00 2.5556948914108880e+03 1.0000000000000000e+00 1.0295579474980823e+01 1.7238825292361513e+00 3.4504204324710301e+01 
266 267 2 1.0280000004339516e+00 -2.4368791861644950e+03 1.0000000000000000e+00 1.2453762634617020e+01 2.1745437035777395e+00 3.5185577712312238e+01 
328 329 2 1.0279999997760643e+00 5.0375771448093758e+02 1.0000000000000000e+00 1.1318652422546661e+01 1.4136664980522360e+00 3.5381470544232869e+01 
1330 1331 2 1.0280000004707079e+00 -2.4366412548800931e+03 1.0000000000000000e+00 1.3253032348779655e+01 3.2937619474615878e+00 3.5676097820711334e+01 
517 518 2 1.0279999997271194e+00 -5.0539005503106291e+03 1.0000000000000000e+00 1.1623670394635685e+01 1.2223566522160989e+00 3.5938271808492750e+01 
1519 1520 2 1.0279999997554587e+00 -7.4940881070251698e+03 1.0000000000000000e+00 1.1703584589998790e+01 1.1878081216927676e+00 3.6283483889888984e+01 
976 977 2 1.0280000000335976e+00 -5.0543997525497016e+03 1.0000000000000000e+00 3.1938389463483623e+00 3.9322732434524426e+00 3.5646209603209073e+01 
150 151 2 1.0280000000167455e+00 -7.4944316898592515e+03 1.0000000000000000e+00 3.0107271121578649e+00 4.0536242837872996e+00 3.6048640844012091e+01 
158 159 2 1.0279999999866865e+00 -9.6388280715239744e+03 1.0000000000000000e+00 5.3654254357054407e+00 5.9625404971911040e+00 3.3714368758549547e+01 
903 904 2 1.0279999979728829e+00 -1.5620362519903019e+03 1.0000000000000000e+00 5.3825126907334511e+00 3.5766143186719801e+00 3.4266481758819829e+01 
1199 1200 2 1.0279999999048151e+00 2.5557964941299078e+03 1.0000000000000000e+00 4.5634024269880493e+00 3.4566644131272031e+00 3.4463140838295651e+01 
1423 1424 2 1.0280000004712060e+00 -4.0838036135207149e+03 1.0000000000000000e+00 5.0307284875744775e+00 5.3221851573929992e+00 3.4598668995830536e+01 
525 526 2 1.0280000024314215e+00 -9.2967476394172627e+03 1.0000000000000000e+00 4.7166214588987936e+00 4.5292470125375690e+00 3.5219660666118578e+01 
1085 1086 2 1.0280000000971805e+00 5.0303236602389586e+02 1.0000000000000000e+00 3.3967117400875142e+00 3.8330908932807888e+00 3.5380275823860387e+01 
300 301 2 1.0279999998580716e+00 -5.3016886985291512e+03 1.0000000000000000e+00 6.4872521861155610e+00 6.1854610491752133e+00 3.5451561498169227e+01 
135 136 2 1.0279999999149387e+00 -8.5871355806307213e+02 1.0000000000000000e+00 6.3478169742473574e+00 5.2407069931660288e+00 3.5892904210901648e+01 
159 160 2 1.0280000003409182e+00 -9.6388405258398088e+03 1.0000000000000000e+00 8.9232458802648491e+00 6.0368180994813532e+00 3.3692334369646971e+01 
902 903 2 1.0280000020418061e+00 -1.5619410558341592e+03 1.0000000000000000e+00 9.4021494162982524e+00 3.4228832976963437e+00 3.3708800332142879e+01 
1017 1018 2 1.0280000021634910e+00 1.2137707513569783e+03 1.0000000000000000e+00 7.7508865900175943e+00 3.8639444234367195e+00 3.4350974852339711e+01 
1422 1423 2 1.0279999989049937e+00 -4.0838264371281994e+03 1.0000000000000000e+00 9.2200895115696877e+00 5.4687395947869737e+00 3.4421141145068702e+01 
528 529 2 1.0279999958396437e+00 -9.2969261052572729e+03 1.0000000000000000e+00 9.5654363519782901e+00 4.5728641385858273e+00 3.5050950020032353e+01 
297 298 2 1.0279999999769793e+00 -5.3015178143161102e+03 1.0000000000000000e+00 7.7786222405701464e+00 6.2024150331056624e+00 3.5480288203386920e+01 
134 135 2 1.0279999996584623e+00 -8.5883523557150966e+02 1.0000000000000000e+00 8.0394941489872167e+00 5.2894005469264833e+00 3.5855343873945841e+01 
1061 1062 2 1.0279999997499711e+00 8.8175044870447109e+03 1.0000000000000000e+00 6.8857794014317548e+00 5.3040094738310453e+00 3.6055811842925024e+01 
1064 1065 2 1.0279999998045626e+00 8.8174248477787169e+03 1.0000000000000000e+00 7.4813105522400871e+00 5.3317879777701842e+00 3.6057206030305615e+01 
1198 1199 2 1.0279999979312944e+00 2.5556234597156808e+03 1.0000000000000000e+00 1.0428994735845194e+01 3.5631521096947614e+00 3.4441943758088364e+01 
1088 1089 2 1.0279999989589192e+00 5.0301974633430837e+02 1.0000000000000000e+00 1.1509134611540336e+01 3.9664458180685829e+00 3.5094079463581302e+01 
973 974 2 1.0279999989430211e+00 -5.0543700641820105e+03 1.0000000000000000e+00 1.1734401755058895e+01 4.1609915466919674e+00 3.5316593406780818e+01 
151 152 2 1.0279999988693811e+00 -7.4943494590035716e+03 1.0000000000000000e+00 1.1914945655042741e+01 4.3409131904893208e+00 3.5650404236008619e+01 
175 176 2 1.0280000003439536e+00 -8.3770906309739257e+03 1.0000000000000000e+00 1.4298130438950063e+01 6.4553807292048315e+00 3.4625348139521599e+01 
1239 1240 2 1.0280000003281264e+00 -8.3775930535031948e+03 1.0000000000000000e+00 1.4295066783636823e+01 6.4578720541839738e+00 3.4626448077298818e+01 
1033 1034 2 1.0280000003310605e+00 -3.8929399330984193e+03 1.0000000000000000e+00 1.4295104746049676e+01 6.4585561733828731e+00 3.4627553527462858e+01 
577 578 2 1.0280000003060790e+00 -3.8932628183534480e+03 1.0000000000000000e+00 1.4290179493181689e+01 6.4625012426847226e+00 3.4629873947264592e+01 
1036 1037 2 1.0280000006014951e+00 -3.8926323216675728e+03 1.0000000000000000e+00 1.4329338252108576e+01 6.4508075139393748e+00 3.4667576167872710e+01 
174 175 2 1.0280000006065648e+00 -8.3769803545040486e+03 1.0000000000000000e+00 1.4330209412340187e+01 6.4501238466338506e+00 3.4668229955053881e+01 
1238 1239 2 1.0280000006092045e+00 -8.3775013731054387e+03 1.0000000000000000e+00 1.4330035311374798e+01 6.4509662150955824e+00 3.4671235907171123e+01 
580 581 2 1.0280000006096246e+00 -3.8929631021923042e+03 1.0000000000000000e+00 1.4328978537431992e+01 6.4529669866711812e+00 3.4676975611897909e+01 
303 304 2 1.0279999999451477e+00 -1.7582468557245129e+03 1.0000000000000000e+00 6.3777692582120089e+00 7.2757314251469518e+00 3.3999718777218852e+01 
1280 1281 2 1.0279999999842082e+00 6.9346120163130563e+03 1.0000000000000000e+00 6.0628571134226110e+00 6.7817587128979913e+00 3.4170398692382761e+01 
302 303 2 1.0279999995653726e+00 -1.7580985644135758e+03 1.0000000000000000e+00 7.8667915700099282e+00 7.2988501264348917e+00 3.4058416836279186e+01 
1277 1278 2 1.0279999998200251e+00 6.9347460132863052e+03 1.0000000000000000e+00 8.2038756019536478e+00 6.8260215351036138e+00 3.4214128200108739e+01 
1518 1519 2 1.0280000004418184e+00 -7.4941743806374434e+03 1.0000000000000000e+00 3.0364302755586925e+00 1.3343888423577575e+00 3.6749897127511900e+01 
515 516 2 1.0280000009154338e+00 2.5830935432360966e+03 1.0000000000000000e+00 3.3120484245682085e+00 1.6364076135994212e+00 3.7530374275313491e+01 
1384 1385 2 1.0280000000559402e+00 5.8713281671155337e+03 1.0000000000000000e+00 1.6028570241297202e+00 2.1643127549340271e+00 3.7603646654501176e+01 
747 748 2 1.0280000008267833e+00 7.0662195510416916e+02 1.0000000000000000e+00 3.1904454310258070e+00 1.6201791766777667e+00 3.7636713761856221e+01 
16 17 2 1.0279999998514306e+00 5.8717117338032804e+03 1.0000000000000000e+00 1.5590920955576699e+00 3.2895826066176705e+00 3.7717242200419086e+01 
1079 1080 2 1.0280000001918785e+00 -3.9103121535774217e+03 1.0000000000000000e+00 1.9048136186657914e+00 2.1036895873856509e+00 3.8431582162479692e+01 
43 44 2 1.0280000002351737e+00 -3.1910870730619013e+03 1.0000000000000000e+00 6.4882644215936551e+00 2.4492221633633009e+00 3.6745230654166264e+01 
1411 1412 2 1.0280000001813125e+00 -3.1910135791464627e+03 1.0000000000000000e+00 6.6189104085548598e+00 2.3254322072882712e+00 3.6892634199232965e+01 
1410 1411 2 1.0279999977506640e+00 -3.1894056371755432e+03 1.0000000000000000e+00 8.5521188419220895e+00 2.4047331241801153e+00 3.6619088564283715e+01 
42 43 2 1.0279999980240977e+00 -3.1900762055476735e+03 1.0000000000000000e+00 8.4904223569606305e+00 2.4110887635130580e+00 3.6669064351434812e+01 
564 565 2 1.0280000001486735e+00 1.2137933939819050e+03 1.0000000000000000e+00 6.9930565060032324e+00 8.8008805793180500e-01 3.6963381925405706e+01 
417 418 2 1.0279999992297824e+00 3.1909468600869070e+02 1.0000000000000000e+00 8.1162438860703237e+00 2.2303651408869238e+00 3.6994933014577782e+01 
420 421 2 1.0280000000590290e+00 3.1891757473585028e+02 1.0000000000000000e+00 7.0005060017596668e+00 2.1080347719873607e+00 3.7160748769992225e+01 
1180 1181 2 1.0280000000264478e+00 3.1828174060219885e+02 1.0000000000000000e+00 7.2288460820665676e+00 2.0395795948779138e+00 3.7232739178890434e+01 
514 515 2 1.0279999990401316e+00 2.5830781771865918e+03 1.0000000000000000e+00 1.1332374247133449e+01 1.4590850725958535e+00 3.6979218846918556e+01 
746 747 2 1.0279999994402327e+00 7.0668901859796779e+02 1.0000000000000000e+00 1.1479473751541486e+01 1.4062718053590264e+00 3.7015156483065979e+01 
1078 1079 2 1.0280000006362024e+00 -3.9102501272174622e+03 1.0000000000000000e+00 1.3142017594195886e+01 1.9146952877444576e+00 3.7148566797642310e+01 
792 793 2 1.0280000027658882e+00 -6.7510310581312723e+01 1.0000000000000000e+00 1.2154638335181406e+01 2.2454492682959803e+00 3.8481248941810833e+01 
76 77 2 1.0279999982075854e+00 -7.6838609052001289e+02 1.0000000000000000e+00 1.1835660889028073e+01 3.1381969664418516e+00 3.8662759199101103e+01 
1444 1445 2 1.0279999993410096e+00 -7.6878117623115429e+02 1.0000000000000000e+00 1.1764366641159917e+01 2.6201682890539684e+00 3.9022736781523477e+01 
1381 1382 2 1.0280000004382808e+00 5.8716578572752078e+03 1.0000000000000000e+00 1.3371659107147323e+01 2.1215157127472253e+00 3.6665460275067481e+01 
13 14 2 1.0280000004464522e+00 5.8719306045400017e+03 1.0000000000000000e+00 1.3491948840411286e+01 3.2342840968401663e+00 3.6694547265392430e+01 
899 900 2 1.0280000001133069e+00 7.0647070254033702e+02 1.0000000000000000e+00 3.1780500049248706e+00 3.9760846042208162e+00 3.7254660162606385e+01 
319 320 2 1.0279999998041007e+00 -3.9096264749284574e+03 1.0000000000000000e+00 1.6819027398650475e+00 3.4918758723884173e+00 3.7794040134942769e+01 
637 638 2 1.0279999989021977e+00 -6.8171575539839708e+01 1.0000000000000000e+00 2.2574534840930616e+00 3.4926933931801636e+00 3.9090268725214486e+01 