LAMMPS data file via write_data, version 30 Jul 2016, timestep = 50400000

1520 atoms
8 atom types

0.0000000000000000e+00 4.0000000000000000e+01 xlo xhi
0.0000000000000000e+00 4.0000000000000000e+01 ylo yhi
0.0000000000000000e+00 1.0000000000000000e+02 zlo zhi

Masses

1 3.896
2 5.36
3 20.064
4 8.378
5 8.378
6 8.378
7 8.378
8 8.378

Atoms # meso-molecular

504 505 2 1.0280000000065399e+00 1.2300506478015373e+03 1.0000000000000000e+00 6.3537743310792960e+00 1.9969458836160174e+00 2.0906561730776822e+01 
960 961 2 1.0280000000104506e+00 1.2297259086888087e+03 1.0000000000000000e+00 6.3474474496250943e+00 2.8816789371820390e+00 2.0907341582683401e+01 
957 958 2 1.0279999999732348e+00 1.2297435395785833e+03 1.0000000000000000e+00 7.0255552462076274e+00 2.8027563010263701e+00 2.0862155589376258e+01 
501 502 2 1.0279999999542393e+00 1.2300573657118089e+03 1.0000000000000000e+00 7.0970128601669433e+00 2.0052580473141646e+00 2.0877851939550876e+01 
619 620 2 1.0280000000006473e+00 -1.5446433477288733e+03 1.0000000000000000e+00 4.9734928943499677e+00 1.8630548721756006e+00 2.1706734102453002e+01 
1224 1225 2 1.0280000000579823e+00 -5.3036381608156953e+03 1.0000000000000000e+00 5.8247166529440495e+00 8.9951255963025123e-01 2.1774729127485816e+01 
771 772 2 1.0279999999720826e+00 -1.5447479591114297e+03 1.0000000000000000e+00 4.9991647435596080e+00 3.2693993907575134e+00 2.1789784747400510e+01 
993 994 2 1.0279999999348381e+00 -9.2833590613769338e+03 1.0000000000000000e+00 4.7371225761690052e+00 1.9193030694156059e+00 2.2429692293129623e+01 
537 538 2 1.0279999999241012e+00 -9.2837263876619982e+03 1.0000000000000000e+00 4.8008018313942475e+00 3.2722214733056378e+00 2.2495315402624271e+01 
244 245 2 1.0280000001609566e+00 6.9297593516323068e+03 1.0000000000000000e+00 5.6078665286469231e+00 5.2119631083473317e-01 2.2765797248586058e+01 
118 119 2 1.0279999998396991e+00 -3.9628951443791880e+02 1.0000000000000000e+00 4.8275792211258084e+00 1.8707672460457185e+00 2.2917148580467199e+01 
99 100 2 1.0280000002065566e+00 -4.0835119152008547e+03 1.0000000000000000e+00 5.6297789264380000e+00 1.0182281494373142e+00 2.3752979255876177e+01 
618 619 2 1.0279999999926415e+00 -1.5445971323633769e+03 1.0000000000000000e+00 8.6374378962809839e+00 1.8981536888678290e+00 2.1517961501891598e+01 
770 771 2 1.0280000000505600e+00 -1.5446826226337685e+03 1.0000000000000000e+00 8.6426733260861628e+00 3.2582053859783171e+00 2.1640089893627639e+01 
1221 1222 2 1.0279999999978351e+00 -5.3035674220197106e+03 1.0000000000000000e+00 8.0012815060029379e+00 9.9795886032451586e-01 2.1644042457445568e+01 
996 997 2 1.0280000000970781e+00 -9.2832332005290191e+03 1.0000000000000000e+00 8.9913156281275750e+00 1.9524790029444734e+00 2.2188895738109927e+01 
540 541 2 1.0280000001538034e+00 -9.2836093829611818e+03 1.0000000000000000e+00 8.9545962968467911e+00 3.2518501740870120e+00 2.2380734179921372e+01 
241 242 2 1.0280000000326286e+00 6.9298125758092665e+03 1.0000000000000000e+00 8.3998785172162531e+00 5.8014882041221283e-01 2.2688964813762873e+01 
119 120 2 1.0280000000893057e+00 -3.9629405556375889e+02 1.0000000000000000e+00 8.9540979693476039e+00 1.9056537885270031e+00 2.2772365971234709e+01 
1487 1488 2 1.0280000001744272e+00 -3.9634323536290879e+02 1.0000000000000000e+00 8.8966635715551536e+00 3.3235725900391571e+00 2.2802019735359519e+01 
98 99 2 1.0279999991590718e+00 -4.0835073933824124e+03 1.0000000000000000e+00 8.2705083269783479e+00 9.9590952785133036e-01 2.3817723753741394e+01 
160 161 2 1.0280000001241008e+00 -5.3040975016591765e+03 1.0000000000000000e+00 5.9089192240908455e+00 4.2237059968174133e+00 2.1886095496273970e+01 
155 156 2 1.0280000002241645e+00 -1.7705245592865222e+03 1.0000000000000000e+00 6.0920582445718523e+00 5.5934253205466860e+00 2.2840229171660688e+01 
1486 1487 2 1.0279999998946139e+00 -3.9638792317635375e+02 1.0000000000000000e+00 4.8760723439340516e+00 3.3467971085693664e+00 2.2845701325613447e+01 
1308 1309 2 1.0280000003312364e+00 6.9289507430630874e+03 1.0000000000000000e+00 5.8141920360526349e+00 4.6197698334761634e+00 2.2883069542739271e+01 
1467 1468 2 1.0280000001418692e+00 -4.0835578997056436e+03 1.0000000000000000e+00 5.7449130057816022e+00 4.1059301849490044e+00 2.3768348910901285e+01 
157 158 2 1.0280000001624243e+00 -5.3040023490800013e+03 1.0000000000000000e+00 7.9550896798884017e+00 4.1739274862987381e+00 2.1800992080312621e+01 
154 155 2 1.0279999997920184e+00 -1.7705948395541936e+03 1.0000000000000000e+00 8.0616305689413945e+00 5.5510141568184226e+00 2.2721673305072304e+01 
1305 1306 2 1.0279999997505282e+00 6.9290124071404325e+03 1.0000000000000000e+00 8.2172462445052972e+00 4.5983524236540010e+00 2.2868053293870982e+01 
1466 1467 2 1.0279999986079584e+00 -4.0835446206217584e+03 1.0000000000000000e+00 8.0944468036844306e+00 4.1287257690328003e+00 2.3845090463351791e+01 
33 34 2 1.0279999999116849e+00 6.5411865540865193e+01 1.0000000000000000e+00 6.6051058438872658e+00 7.1866452063086443e+00 2.2190004759253956e+01 
327 328 2 1.0279999999059051e+00 8.5063381061668770e+03 1.0000000000000000e+00 6.5204317385517463e+00 7.2593476052015156e+00 2.2463640258074243e+01 
766 767 2 1.0279999999101792e+00 -6.0540597702754385e+03 1.0000000000000000e+00 6.5279721567065536e+00 7.2811936710366441e+00 2.2541645938049548e+01 
1459 1460 2 1.0279999999417555e+00 2.0254530618264021e+03 1.0000000000000000e+00 6.5788934519207114e+00 7.2429425663859712e+00 2.2881897440490299e+01 
36 37 2 1.0280000000742717e+00 6.5338093239835729e+01 1.0000000000000000e+00 7.6278964745291216e+00 7.1853584432680275e+00 2.2220642716138858e+01 
326 327 2 1.0280000000849292e+00 8.5064640933771389e+03 1.0000000000000000e+00 7.7026952927160499e+00 7.2443361689204622e+00 2.2484749417124473e+01 
767 768 2 1.0280000000790570e+00 -6.0539721539352886e+03 1.0000000000000000e+00 7.6947809461508596e+00 7.2642742599531385e+00 2.2570993596611242e+01 
1458 1459 2 1.0280000000211513e+00 2.0255415541116081e+03 1.0000000000000000e+00 7.6365616299838281e+00 7.2198462360699134e+00 2.2901247090248017e+01 
1387 1388 2 1.0279999998617488e+00 -8.4737598020663154e+02 1.0000000000000000e+00 5.6941313911627729e+00 1.8392153374883093e+00 2.5090042440717173e+01 
1362 1363 2 1.0280000004699248e+00 -9.6392876103159761e+03 1.0000000000000000e+00 5.6707528637119866e+00 2.1259144265976784e-01 2.5552136012830918e+01 
1474 1475 2 1.0279999995757148e+00 1.7813694246096861e+03 1.0000000000000000e+00 5.1284184903427095e+00 7.6853441887678464e-01 2.6121792719750822e+01 
1325 1326 2 1.0279999995945222e+00 4.4368614013440656e+03 1.0000000000000000e+00 5.1278382404140235e+00 1.0559943945080879e+00 2.6152521046109097e+01 
1316 1317 2 1.0279999995991116e+00 6.9495682425322102e+03 1.0000000000000000e+00 5.1256235493634694e+00 1.0956880044171358e+00 2.6178987139126551e+01 
1058 1059 2 1.0279999995520377e+00 -7.8418848780614871e+02 1.0000000000000000e+00 5.0920739063320424e+00 8.7906473338253832e-01 2.6243606806360557e+01 
1386 1387 2 1.0280000005867331e+00 -8.4750713207515150e+02 1.0000000000000000e+00 8.0672242643948504e+00 1.8396119335820211e+00 2.5038669718511933e+01 
1363 1364 2 1.0279999992087911e+00 -9.6392861702622431e+03 1.0000000000000000e+00 8.3781043020262640e+00 2.1351183277833186e-01 2.5493090380170024e+01 
1475 1476 2 1.0280000000712166e+00 1.7813625870888959e+03 1.0000000000000000e+00 8.8992612043985400e+00 7.9274725547965885e-01 2.6074230465756443e+01 
1328 1329 2 1.0280000002455654e+00 4.4368507751762618e+03 1.0000000000000000e+00 8.8894052537165678e+00 1.0863220431593079e+00 2.6097935030885882e+01 
1313 1314 2 1.0280000002779934e+00 6.9495570170490573e+03 1.0000000000000000e+00 8.8903594062900311e+00 1.1266386711755476e+00 2.6121480642918151e+01 
1059 1060 2 1.0280000001771037e+00 -7.8419633160704848e+02 1.0000000000000000e+00 8.9318031443747046e+00 9.0447889226886469e-01 2.6190095149734930e+01 
19 20 2 1.0280000002672338e+00 -8.4770534164279661e+02 1.0000000000000000e+00 5.6135052282185391e+00 3.3990939669291178e+00 2.5079738443028567e+01 
298 299 2 1.0279999999812359e+00 -9.6392996519735862e+03 1.0000000000000000e+00 5.8318434918057713e+00 4.9879463787265275e+00 2.5631863523839758e+01 
106 107 2 1.0279999997272238e+00 1.7813805088122765e+03 1.0000000000000000e+00 5.2595218466741249e+00 4.4951855107844061e+00 2.6140085051240394e+01 
261 262 2 1.0279999997218585e+00 4.4368757198543271e+03 1.0000000000000000e+00 5.2427369129328572e+00 4.2084882049125198e+00 2.6164900166932114e+01 
252 253 2 1.0279999997199718e+00 6.9495821115311010e+03 1.0000000000000000e+00 5.2387581031219561e+00 4.1691666182967122e+00 2.6192812780462976e+01 
602 603 2 1.0279999996926550e+00 -7.8417473968641389e+02 1.0000000000000000e+00 5.2216640392688278e+00 4.3899323987691830e+00 2.6257525096262231e+01 
913 914 2 1.0280000007425376e+00 8.8267235635176112e+03 1.0000000000000000e+00 6.5696238013689756e+00 5.8932451950304872e+00 2.6593121180697452e+01 
18 19 2 1.0280000003198795e+00 -8.4779282747236016e+02 1.0000000000000000e+00 8.2537800708807847e+00 3.3371136763292411e+00 2.5006358035280392e+01 
299 300 2 1.0279999994561246e+00 -9.6392906678403961e+03 1.0000000000000000e+00 8.2397787836921719e+00 4.9850570774417777e+00 2.5616717220183755e+01 
107 108 2 1.0280000001360621e+00 1.7813786111711206e+03 1.0000000000000000e+00 8.8326525426787885e+00 4.4880852661369408e+00 2.6142770931520456e+01 
264 265 2 1.0280000002717034e+00 4.4368686579406603e+03 1.0000000000000000e+00 8.8351206857943030e+00 4.1916035739678801e+00 2.6157547322194446e+01 
249 250 2 1.0280000002991794e+00 6.9495742117050049e+03 1.0000000000000000e+00 8.8374188429535021e+00 4.1513832897199112e+00 2.6181240800147020e+01 
603 604 2 1.0280000002177645e+00 -7.8417815940787250e+02 1.0000000000000000e+00 8.8690505409490168e+00 4.3787612705958416e+00 2.6256624471817034e+01 
916 917 2 1.0280000002422194e+00 8.8267315849095612e+03 1.0000000000000000e+00 7.6265425105206770e+00 5.8580092189761626e+00 2.6539464754696152e+01 
730 731 2 1.0280000004272145e+00 3.0622600689723577e+03 1.0000000000000000e+00 5.3649425810653772e+00 6.9097483596670948e+00 2.7218155065683138e+01 
731 732 2 1.0280000000993690e+00 3.0622817025467348e+03 1.0000000000000000e+00 8.8253407266664965e+00 6.9250618199852267e+00 2.7182081964329637e+01 
200 201 2 1.0280000007609342e+00 3.5105931874198150e+03 1.0000000000000000e+00 6.1914635401066631e+00 1.6624584693694304e+00 2.7935347016555514e+01 
260 261 2 1.0280000005159524e+00 3.5105219649573419e+03 1.0000000000000000e+00 6.4459315087719080e+00 1.2915396462637070e+00 2.8223312424194553e+01 
1272 1273 2 1.0280000002400602e+00 6.9498230827557372e+03 1.0000000000000000e+00 5.3781850002301850e+00 4.8489981887859002e-01 3.0075579162538322e+01 
918 919 2 1.0280000001004830e+00 -7.8401361849781188e+02 1.0000000000000000e+00 5.2740913107224010e+00 4.6405065742877455e-01 3.0092982949840810e+01 
1257 1258 2 1.0280000001825667e+00 4.4371043886444886e+03 1.0000000000000000e+00 5.3563123584173091e+00 4.8861778173817083e-01 3.0099206576710973e+01 
1414 1415 2 1.0279999997629599e+00 1.7814644727088071e+03 1.0000000000000000e+00 5.0987965348029736e+00 4.0194824662576401e-01 3.0221234365879219e+01 
197 198 2 1.0279999994067941e+00 3.5105817196925591e+03 1.0000000000000000e+00 7.7804963388810213e+00 1.6421591858230482e+00 2.7821417326463941e+01 
257 258 2 1.0279999988624824e+00 3.5105189035186968e+03 1.0000000000000000e+00 7.4931191055844293e+00 1.2727316694440152e+00 2.8099335650524019e+01 
919 920 2 1.0279999993109175e+00 -7.8398486165539839e+02 1.0000000000000000e+00 8.9424176298172942e+00 4.2659196932746313e-01 3.0011384817105757e+01 
1269 1270 2 1.0279999985933783e+00 6.9498611162740435e+03 1.0000000000000000e+00 8.8143646931131059e+00 4.5030083511831343e-01 3.0020774868978688e+01 
1260 1261 2 1.0279999987446526e+00 4.4371396851303998e+03 1.0000000000000000e+00 8.8441755167035438e+00 4.5913561767674160e-01 3.0036614106485860e+01 
1415 1416 2 1.0280000006567260e+00 1.7814894307209911e+03 1.0000000000000000e+00 9.1802958469555414e+00 3.3762501358347280e-01 3.0123581781308271e+01 
1264 1265 2 1.0280000008687038e+00 3.5105852801858546e+03 1.0000000000000000e+00 6.2685411573824030e+00 3.5692019888467685e+00 2.8004553651007875e+01 
1324 1325 2 1.0280000005812056e+00 3.5105028542048030e+03 1.0000000000000000e+00 6.5241961186164801e+00 3.9189272441104359e+00 2.8349510580367237e+01 
1051 1052 2 1.0279999996807041e+00 -4.0423198293548157e+03 1.0000000000000000e+00 4.8737895501036670e+00 5.4516320147986432e+00 2.8389142062438022e+01 
927 928 2 1.0279999996617544e+00 -4.0423423080350676e+03 1.0000000000000000e+00 4.8877708367909358e+00 5.4466717854169442e+00 2.8500630554383854e+01 
462 463 2 1.0280000000887375e+00 -7.8402248757439884e+02 1.0000000000000000e+00 5.3521642913227598e+00 4.7593143925787125e+00 3.0164531886029426e+01 
208 209 2 1.0280000003827405e+00 6.9498064913618564e+03 1.0000000000000000e+00 5.4286998651110707e+00 4.7050710923199439e+00 3.0177885729781284e+01 
193 194 2 1.0280000002592173e+00 4.4370897550653226e+03 1.0000000000000000e+00 5.4048673994750844e+00 4.7093156032063446e+00 3.0197740228179011e+01 
46 47 2 1.0279999995717359e+00 1.7814478619060949e+03 1.0000000000000000e+00 5.2197539814293563e+00 4.8599601423980552e+00 3.0258145219511441e+01 
1261 1262 2 1.0279999992930062e+00 3.5105731951778325e+03 1.0000000000000000e+00 7.7756013124567440e+00 3.6084880704082027e+00 2.7904287649796817e+01 
1321 1322 2 1.0279999986890087e+00 3.5105025277296145e+03 1.0000000000000000e+00 7.5256339977553841e+00 3.9572732291685577e+00 2.8241713930063895e+01 
1050 1051 2 1.0279999997702576e+00 -4.0422966306629814e+03 1.0000000000000000e+00 9.3552768758840923e+00 5.4631694731763281e+00 2.8294341750070650e+01 
926 927 2 1.0279999997098046e+00 -4.0423182373974587e+03 1.0000000000000000e+00 9.3480080716214253e+00 5.4607840983439582e+00 2.8407248075630228e+01 
463 464 2 1.0279999991366722e+00 -7.8399565285937297e+02 1.0000000000000000e+00 8.9743703973565250e+00 4.8344091682307102e+00 3.0074686475292378e+01 
205 206 2 1.0279999989714046e+00 6.9498439710248695e+03 1.0000000000000000e+00 8.8855581612544547e+00 4.7820999845179966e+00 3.0095662816286119e+01 
196 197 2 1.0279999990580826e+00 4.4371239990250169e+03 1.0000000000000000e+00 8.9163010197374977e+00 4.7807863980286012e+00 3.0109986301630418e+01 
47 48 2 1.0280000000117182e+00 1.7814707229744677e+03 1.0000000000000000e+00 9.1602178145197559e+00 4.9559034920542215e+00 3.0156655486158638e+01 
1507 1508 2 1.0280000002727103e+00 -7.0231938706444234e+03 1.0000000000000000e+00 5.1693974087952030e+00 7.1733410387154670e+00 2.7401625250281811e+01 
5 6 2 1.0280000000982197e+00 -5.9166740645764935e+02 1.0000000000000000e+00 5.5157608585593607e+00 8.0528380818100533e+00 2.7739420437569372e+01 
894 895 2 1.0280000000236831e+00 -2.5051450001732655e+03 1.0000000000000000e+00 5.4605528950796529e+00 8.1917152783497116e+00 2.7913178435811773e+01 
778 779 2 1.0279999999921619e+00 -2.5051834242750929e+03 1.0000000000000000e+00 5.4353514413206243e+00 8.2412647264906003e+00 2.7997138784438722e+01 
145 146 2 1.0279999999226450e+00 -5.9182562114122379e+02 1.0000000000000000e+00 5.3664089606161598e+00 8.3321040251505014e+00 2.8236454280952071e+01 
1383 1384 2 1.0279999998898448e+00 -7.0235778371831211e+03 1.0000000000000000e+00 4.7112590677221835e+00 7.2914669230882083e+00 2.8682351538389895e+01 
435 436 2 1.0279999998080109e+00 8.5171896870940909e+03 1.0000000000000000e+00 6.0066272511902570e+00 8.7258426357629286e+00 2.9258223210409920e+01 
638 639 2 1.0279999998042006e+00 3.0618465015872844e+03 1.0000000000000000e+00 4.8985659044126013e+00 6.9695347488730288e+00 2.9357113967763318e+01 
1506 1507 2 1.0280000000033953e+00 -7.0231776223844627e+03 1.0000000000000000e+00 9.0288064516571485e+00 7.1873831610015602e+00 2.7362230237194421e+01 
8 9 2 1.0279999997894149e+00 -5.9165076457105488e+02 1.0000000000000000e+00 8.7011551001060194e+00 8.0442020161423233e+00 2.7715107889452533e+01 
895 896 2 1.0279999998577403e+00 -2.5051295648943997e+03 1.0000000000000000e+00 8.7567172271891192e+00 8.1830472893759101e+00 2.7888448670610629e+01 
779 780 2 1.0279999998982792e+00 -2.5051685051554159e+03 1.0000000000000000e+00 8.7818184502073571e+00 8.2329233467900966e+00 2.7972172164644313e+01 
148 149 2 1.0280000000194589e+00 -5.9181144340376613e+02 1.0000000000000000e+00 8.8507016906467832e+00 8.3254489356559205e+00 2.8211080260163463e+01 
1382 1383 2 1.0280000001340701e+00 -7.0235640447691767e+03 1.0000000000000000e+00 9.5400640545356676e+00 7.3227499945846128e+00 2.8652803951911562e+01 
434 435 2 1.0280000002947047e+00 8.5175068067069660e+03 1.0000000000000000e+00 8.2239931071009575e+00 8.7138454523939561e+00 2.9269967026631658e+01 
639 640 2 1.0280000003003378e+00 3.0618616008150198e+03 1.0000000000000000e+00 9.3795207931207880e+00 7.0058119343618452e+00 2.9344740620307167e+01 
34 35 2 1.0279999989614033e+00 -4.0101961763090515e+02 1.0000000000000000e+00 5.1245993654152242e+00 9.2587705979308743e-01 3.1235989752242311e+01 
751 752 2 1.0279999971647251e+00 -1.5617410409174249e+03 1.0000000000000000e+00 5.1426003253690853e+00 1.6480152772575709e+00 3.2386322209551160e+01 
439 440 2 1.0280000010861632e+00 2.5558522812661863e+03 1.0000000000000000e+00 4.4367948480880228e+00 1.7512463459106136e+00 3.2686305834000699e+01 
981 982 2 1.0280000033972976e+00 -9.2964643598289476e+03 1.0000000000000000e+00 4.6586501532192592e+00 8.1391517455892937e-01 3.3044535267230899e+01 
35 36 2 1.0279999995093845e+00 -4.0109408701799669e+02 1.0000000000000000e+00 9.4877671402409725e+00 9.8345492899602649e-01 3.1168329085985899e+01 
750 751 2 1.0280000003810228e+00 -1.5616689603309865e+03 1.0000000000000000e+00 9.4697223800249066e+00 1.7195235164768712e+00 3.1692632144426998e+01 
561 562 2 1.0280000013586716e+00 1.2129254554302879e+03 1.0000000000000000e+00 7.6935119614802270e+00 1.2899823304699676e+00 3.2339388771777010e+01 
1177 1178 2 1.0280000054062679e+00 3.1879797170800327e+02 1.0000000000000000e+00 8.0848903698128645e+00 2.5831896829159775e+00 3.2834038232328354e+01 
984 985 2 1.0279999973078018e+00 -9.2966659156675960e+03 1.0000000000000000e+00 9.6275459332478590e+00 6.5407422348345234e-01 3.3032249564736468e+01 
438 439 2 1.0279999986915525e+00 2.5556948914108880e+03 1.0000000000000000e+00 1.0301894239778600e+01 1.7249922766872117e+00 3.2487709845148011e+01 
266 267 2 1.0280000005046694e+00 -2.4368791861644950e+03 1.0000000000000000e+00 1.2460211514757926e+01 2.1754143718026206e+00 3.3168953346259556e+01 
1402 1403 2 1.0279999988717434e+00 -4.0048521856345019e+02 1.0000000000000000e+00 5.3789759267435215e+00 4.2145752599305029e+00 3.1202080925397272e+01 
158 159 2 1.0280000000245251e+00 -9.6388280715239744e+03 1.0000000000000000e+00 5.3715279559318381e+00 5.9637535211791741e+00 3.1697806147637028e+01 
903 904 2 1.0279999979192844e+00 -1.5620362519903019e+03 1.0000000000000000e+00 5.3886608652432164e+00 3.5778493213022502e+00 3.2249971871058925e+01 
1199 1200 2 1.0279999997386902e+00 2.5557964941299078e+03 1.0000000000000000e+00 4.5696583186303306e+00 3.4578406512270554e+00 3.2446627389323304e+01 
1423 1424 2 1.0280000005360084e+00 -4.0838036135207149e+03 1.0000000000000000e+00 5.0368952170879489e+00 5.3234019302546045e+00 3.2582136663514945e+01 
525 526 2 1.0280000028448613e+00 -9.2967476394172627e+03 1.0000000000000000e+00 4.7228305031443396e+00 4.5304929748374310e+00 3.3203227791170519e+01 
1403 1404 2 1.0279999982218764e+00 -4.0046540124624528e+02 1.0000000000000000e+00 9.5904126230732896e+00 4.2678073222595829e+00 3.1228580830482535e+01 
159 160 2 1.0280000005222547e+00 -9.6388405258398088e+03 1.0000000000000000e+00 8.9294200022141794e+00 6.0379361189253151e+00 3.1675808774905331e+01 
902 903 2 1.0280000022590767e+00 -1.5619410558341592e+03 1.0000000000000000e+00 9.4084791028075845e+00 3.4240389820113792e+00 3.1692205051851243e+01 
1017 1018 2 1.0280000025269751e+00 1.2137707513569783e+03 1.0000000000000000e+00 7.7571099813573152e+00 3.8650912851316148e+00 3.2334352125330348e+01 
1422 1423 2 1.0279999989334501e+00 -4.0838264371281994e+03 1.0000000000000000e+00 9.2262910706908929e+00 5.4697657615924733e+00 3.2404587522459423e+01 
528 529 2 1.0279999959645547e+00 -9.2969261052572729e+03 1.0000000000000000e+00 9.5716724742003585e+00 4.5738079063332417e+00 3.3034281152092923e+01 
1198 1199 2 1.0279999973220659e+00 2.5556234597156808e+03 1.0000000000000000e+00 1.0435284585211567e+01 3.5641887365744602e+00 3.2425529370250707e+01 
1088 1089 2 1.0279999987624051e+00 5.0301974633430837e+02 1.0000000000000000e+00 1.1515468264139759e+01 3.9672572627555640e+00 3.3077584892531355e+01 
973 974 2 1.0279999987913579e+00 -5.0543700641820105e+03 1.0000000000000000e+00 1.1740742189314865e+01 4.1617435179029023e+00 3.3300064295950662e+01 
175 176 2 1.0280000003690339e+00 -8.3770906309739257e+03 1.0000000000000000e+00 1.4304285019081229e+01 6.4562540986212706e+00 3.2608604042566903e+01 
1239 1240 2 1.0280000003535958e+00 -8.3775930535031948e+03 1.0000000000000000e+00 1.4301220964496533e+01 6.4587454805264128e+00 3.2609704213150962e+01 
1033 1034 2 1.0280000003572527e+00 -3.8929399330984193e+03 1.0000000000000000e+00 1.4301258948221518e+01 6.4594297016227893e+00 3.2610809744230792e+01 
577 578 2 1.0280000003329299e+00 -3.8932628183534480e+03 1.0000000000000000e+00 1.4296333082117613e+01 6.4633748395553283e+00 3.2613130577599122e+01 
1036 1037 2 1.0280000006470145e+00 -3.8926323216675728e+03 1.0000000000000000e+00 1.4335498738720428e+01 6.4516832638171104e+00 3.2650835477483213e+01 
174 175 2 1.0280000006521128e+00 -8.3769803545040486e+03 1.0000000000000000e+00 1.4336370073816516e+01 6.4509995631579287e+00 3.2651489336577889e+01 
1238 1239 2 1.0280000006557124e+00 -8.3775013731054387e+03 1.0000000000000000e+00 1.4336195995506534e+01 6.4518420731131867e+00 3.2654495679640064e+01 
580 581 2 1.0280000006578336e+00 -3.8929631021923042e+03 1.0000000000000000e+00 1.4335139122462394e+01 6.4538431167757562e+00 3.2660236145919200e+01 
1431 1432 2 1.0279999997698610e+00 2.0467759539198155e+03 1.0000000000000000e+00 6.1117856397087005e+00 8.3628376413053189e+00 3.0480476464393281e+01 
906 907 2 1.0279999997578424e+00 -6.0355802684270602e+03 1.0000000000000000e+00 6.3758541262019817e+00 8.4407155893969321e+00 3.0716554837446125e+01 
303 304 2 1.0279999999377529e+00 -1.7582468557245129e+03 1.0000000000000000e+00 6.3838484312065615e+00 7.2769197283433380e+00 3.1983157717439155e+01 
1280 1281 2 1.0280000000024807e+00 6.9346120163130563e+03 1.0000000000000000e+00 6.0689686164664094e+00 6.7829577795277762e+00 3.2153836920424197e+01 
1430 1431 2 1.0280000002509551e+00 2.0471940204669058e+03 1.0000000000000000e+00 8.1329699565086297e+00 8.3599418306763020e+00 3.0491023578056005e+01 
907 908 2 1.0280000000977128e+00 -6.0352456500164262e+03 1.0000000000000000e+00 7.8699942800220457e+00 8.4345667942447022e+00 3.0737128921880640e+01 
117 118 2 1.0279999997893059e+00 8.4854207164836723e+01 1.0000000000000000e+00 6.6933998251917330e+00 8.5544955286095732e+00 3.0829919930311643e+01 
120 121 2 1.0279999999856859e+00 8.5216418870681224e+01 1.0000000000000000e+00 7.5573990508191171e+00 8.5383030598664593e+00 3.0862000691926809e+01 
302 303 2 1.0279999995265112e+00 -1.7580985644135758e+03 1.0000000000000000e+00 7.8728609069425231e+00 7.2999659079236663e+00 3.2041854387725117e+01 
1277 1278 2 1.0279999998404672e+00 6.9347460132863052e+03 1.0000000000000000e+00 8.2099959900510893e+00 6.8271312521179688e+00 3.2197575966567662e+01 
267 268 2 1.0279999996473204e+00 -2.4369452461097253e+03 1.0000000000000000e+00 2.2523169306950521e+00 2.1320841437447244e+00 3.3913371020016818e+01 
520 521 2 1.0280000004000107e+00 -5.0539474523267909e+03 1.0000000000000000e+00 3.1377463493564961e+00 1.3414699180858902e+00 3.4282311175218268e+01 
1331 1332 2 1.0279999997013001e+00 -2.4367292368491107e+03 1.0000000000000000e+00 1.8662247666046003e+00 3.2783640752989975e+00 3.4322772164162139e+01 
1518 1519 2 1.0280000004465886e+00 -7.4941743806374434e+03 1.0000000000000000e+00 3.0429823530318778e+00 1.3354195724632822e+00 3.4733660899187292e+01 
515 516 2 1.0280000009579955e+00 2.5830935432360966e+03 1.0000000000000000e+00 3.3187607507928414e+00 1.6374034288879611e+00 3.5514245843462717e+01 
1384 1385 2 1.0280000000578116e+00 5.8713281671155337e+03 1.0000000000000000e+00 1.6096413136764234e+00 2.1653632715161888e+00 3.5587506222512857e+01 
747 748 2 1.0280000008509902e+00 7.0662195510416916e+02 1.0000000000000000e+00 3.1971741108122451e+00 1.6211724307129027e+00 3.5620595235131212e+01 
16 17 2 1.0279999998458049e+00 5.8717117338032804e+03 1.0000000000000000e+00 1.5659563918778645e+00 3.2906018968465589e+00 3.5701109814083274e+01 
325 326 2 1.0280000005511158e+00 5.0373783625423073e+02 1.0000000000000000e+00 3.4454732319153312e+00 1.4679674185583880e+00 3.3614687985942822e+01 
43 44 2 1.0280000001527623e+00 -3.1910870730619013e+03 1.0000000000000000e+00 6.4946175988026331e+00 2.4504003406725245e+00 3.4728738839419741e+01 
1411 1412 2 1.0280000000702558e+00 -3.1910135791464627e+03 1.0000000000000000e+00 6.6252703957442165e+00 2.3266099396598188e+00 3.4876133365394807e+01 
1410 1411 2 1.0279999980225951e+00 -3.1894056371755432e+03 1.0000000000000000e+00 8.5584406320389537e+00 2.4058434811292670e+00 3.4602443549542272e+01 
42 43 2 1.0279999982243224e+00 -3.1900762055476735e+03 1.0000000000000000e+00 8.4967493963327652e+00 2.4122029853964015e+00 3.4652423970337942e+01 
564 565 2 1.0280000000886782e+00 1.2137933939819050e+03 1.0000000000000000e+00 6.9993893163763810e+00 8.8127887307854191e-01 3.4946856329117828e+01 
417 418 2 1.0279999992063225e+00 3.1909468600869070e+02 1.0000000000000000e+00 8.1225941586752377e+00 2.2315184592962671e+00 3.4978321856400576e+01 
420 421 2 1.0279999999180687e+00 3.1891757473585028e+02 1.0000000000000000e+00 7.0068724156495605e+00 2.1092144656699268e+00 3.5144217748207772e+01 
1180 1181 2 1.0279999998932059e+00 3.1828174060219885e+02 1.0000000000000000e+00 7.2352114074898575e+00 2.0407606043462923e+00 3.5216194344923551e+01 
328 329 2 1.0279999995759641e+00 5.0375771448093758e+02 1.0000000000000000e+00 1.1325051645616975e+01 1.4146736696384361e+00 3.3364916888148784e+01 
1330 1331 2 1.0280000005865506e+00 -2.4366412548800931e+03 1.0000000000000000e+00 1.3259532140987156e+01 3.2945722210497927e+00 3.3659462513486218e+01 
517 518 2 1.0279999996168963e+00 -5.0539005503106291e+03 1.0000000000000000e+00 1.1630131539438672e+01 1.2233176732177047e+00 3.3921689730134339e+01 
1519 1520 2 1.0279999996822040e+00 -7.4940881070251698e+03 1.0000000000000000e+00 1.1710092892734846e+01 1.1887385824601300e+00 3.4266891036424852e+01 
514 515 2 1.0279999988784920e+00 2.5830781771865918e+03 1.0000000000000000e+00 1.1339057578116600e+01 1.4600132214880381e+00 3.4962596575451016e+01 
746 747 2 1.0279999993045412e+00 7.0668901859796779e+02 1.0000000000000000e+00 1.1486146949430719e+01 1.4071640842916633e+00 3.4998552364599661e+01 
1078 1079 2 1.0280000007972121e+00 -3.9102501272174622e+03 1.0000000000000000e+00 1.3148802849766437e+01 1.9153846757303898e+00 3.5132048405557200e+01 
1381 1382 2 1.0280000006175194e+00 5.8716578572752078e+03 1.0000000000000000e+00 1.3378356417049165e+01 2.1222552158013870e+00 3.4648888475797584e+01 
13 14 2 1.0280000006038801e+00 5.8719306045400017e+03 1.0000000000000000e+00 1.3498611093019015e+01 3.2350645624108854e+00 3.4677977399132857e+01 
976 977 2 1.0280000000479876e+00 -5.0543997525497016e+03 1.0000000000000000e+00 3.2002771246709698e+00 3.9334054687500983e+00 3.3629872503658802e+01 
150 151 2 1.0280000000291361e+00 -7.4944316898592515e+03 1.0000000000000000e+00 3.0172144855327696e+00 4.0547423835008329e+00 3.4032353455627671e+01 
899 900 2 1.0280000001223220e+00 7.0647070254033702e+02 1.0000000000000000e+00 3.1847020737860161e+00 3.9771600002212715e+00 3.5238487001986485e+01 
319 320 2 1.0279999997926805e+00 -3.9096264749284574e+03 1.0000000000000000e+00 1.6887832983942648e+00 3.4928788693748136e+00 3.5777909472030700e+01 
1085 1086 2 1.0280000001087997e+00 5.0303236602389586e+02 1.0000000000000000e+00 3.4031148610566060e+00 3.8342337211280277e+00 3.3363898196969650e+01 
300 301 2 1.0279999998334302e+00 -5.3016886985291512e+03 1.0000000000000000e+00 6.4934816535115765e+00 6.1866307611488089e+00 3.3434995271559409e+01 
135 136 2 1.0279999999201688e+00 -8.5871355806307213e+02 1.0000000000000000e+00 6.3540944485829192e+00 5.2418866946904261e+00 3.3876362665939432e+01 
971 972 2 1.0280000002807621e+00 2.5829641546413213e+03 1.0000000000000000e+00 3.3775155056361212e+00 3.9483131036309471e+00 3.5036995760936911e+01 
297 298 2 1.0279999999469249e+00 -5.3015178143161102e+03 1.0000000000000000e+00 7.7848570723025947e+00 6.2035408933027760e+00 3.3463711887110314e+01 
134 135 2 1.0279999996438107e+00 -8.5883523557150966e+02 1.0000000000000000e+00 8.0457827751572211e+00 5.2905199529208646e+00 3.3838748771693531e+01 
1061 1062 2 1.0279999996670373e+00 8.8175044870447109e+03 1.0000000000000000e+00 6.8920676110822123e+00 5.3051708155510333e+00 3.4039240419928568e+01 
1064 1065 2 1.0279999997197680e+00 8.8174248477787169e+03 1.0000000000000000e+00 7.4875972113557516e+00 5.3329322849379546e+00 3.4040623469699213e+01 
1020 1021 2 1.0279999992535915e+00 1.2141337704599675e+03 1.0000000000000000e+00 7.3641751045606041e+00 4.0288899194125092e+00 3.4510944883315609e+01 
151 152 2 1.0279999987294866e+00 -7.4943494590035716e+03 1.0000000000000000e+00 1.1921308410631925e+01 4.3416044724925760e+00 3.3633824552376950e+01 
970 971 2 1.0279999983985884e+00 2.5829945479298312e+03 1.0000000000000000e+00 1.1483038010863851e+01 4.0980405649796570e+00 3.4548173487679001e+01 
898 899 2 1.0279999987454944e+00 7.0655792271685459e+02 1.0000000000000000e+00 1.1712672010553963e+01 4.1667345895898240e+00 3.4642732610440312e+01 
640 641 2 1.0280000007577423e+00 -6.8161164100187577e+01 1.0000000000000000e+00 1.2914767608610294e+01 3.5243591914223300e+00 3.5608410137009407e+01 