LAMMPS data file via write_data, version 30 Jul 2016, timestep = 50400000

1520 atoms
8 atom types

0.0000000000000000e+00 4.0000000000000000e+01 xlo xhi
0.0000000000000000e+00 4.0000000000000000e+01 ylo yhi
0.0000000000000000e+00 1.0000000000000000e+02 zlo zhi

Masses

1 3.896
2 5.36
3 20.064
4 8.378
5 8.378
6 8.378
7 8.378
8 8.378

Atoms # meso-molecular

416 417 2 1.0279999979747694e+00 -9.0771517917073652e+03 1.0000000000000000e+00 1.9002253508117189e+01 2.5766922622591810e+00 2.6268064657191986e-01 
1167 1168 2 1.0280000070121988e+00 -7.5762148961912426e+03 1.0000000000000000e+00 1.9108952136901259e+01 1.9140950280528868e+00 1.1584356130491824e+00 
693 694 2 1.0280000027710998e+00 -1.1643172728992101e+03 1.0000000000000000e+00 1.5542960110745266e+01 5.3768881383253984e+00 1.5087931432447559e+00 
1150 1151 2 1.0280000048573243e+00 1.3113968720336830e+04 1.0000000000000000e+00 1.5461870105467415e+01 4.5144330157838537e+00 2.0321312823841207e+00 
1009 1010 2 1.0280000048963984e+00 -7.8234021543065001e+03 1.0000000000000000e+00 1.5460773492970697e+01 4.5077062101762104e+00 2.0360373945093038e+00 
660 661 2 1.0280000051711145e+00 3.0113781776259639e+03 1.0000000000000000e+00 1.5452462290153495e+01 4.4615158312802183e+00 2.0631771044159857e+00 
186 187 2 1.0279999993576880e+00 -3.6161339241179749e+03 1.0000000000000000e+00 1.9898849141766746e+01 4.9315132714241132e+00 1.8838034630551739e-01 
474 475 2 1.0280000043952058e+00 -2.3711305781337837e+03 1.0000000000000000e+00 1.8041319957001029e+01 3.3491554159593697e+00 1.2468795114345874e+00 
112 113 2 1.0279999867493534e+00 -8.4599432321459590e+03 1.0000000000000000e+00 1.7236079731223139e+01 5.2741370722422349e+00 1.2534645471400341e+00 
687 688 2 1.0279999994867539e+00 4.7349836836447241e+02 1.0000000000000000e+00 1.9478709561397661e+01 4.0506129519900194e+00 1.3851690542232509e+00 
859 860 2 1.0280000054245699e+00 -4.9509288301923725e+03 1.0000000000000000e+00 1.7846283263520650e+01 3.8986882882684712e+00 1.4746391633617262e+00 
690 691 2 1.0279999954898018e+00 -5.7814405685820348e+03 1.0000000000000000e+00 1.6163101612783766e+01 7.0483735987995892e+00 1.0642805788447158e+00 
634 635 2 1.0279999966314244e+00 5.7953125309847110e+03 1.0000000000000000e+00 1.6255191060333662e+01 6.7983928968635690e+00 1.1365593076223395e+00 
1159 1160 2 1.0280000030530274e+00 -7.5045532284115075e+02 1.0000000000000000e+00 1.5046757891633158e+01 7.3942508691148339e+00 1.5135244754748918e+00 
736 737 2 1.0279999988275252e+00 -7.1849237918269337e+03 1.0000000000000000e+00 1.6280881167814805e+01 7.4207732176500159e+00 1.5417321236572328e+00 
124 125 2 1.0280000013432418e+00 -1.5413960102885464e+03 1.0000000000000000e+00 1.4952012631435528e+01 7.7800293365954056e+00 1.5947112174907960e+00 
574 575 2 1.0280000382344860e+00 -9.5762031439203383e+03 1.0000000000000000e+00 1.4130022270988321e+00 1.1062431001906033e+01 1.6671854093640207e-01 
1110 1111 2 1.0280000111801804e+00 9.5537019909055216e+03 1.0000000000000000e+00 2.6705532836835877e+00 9.5860042387709168e+00 4.0991476977488833e-01 
513 514 2 1.0279999916117133e+00 8.5647030524438890e+02 1.0000000000000000e+00 4.4718418857889586e-01 1.0453045987184689e+01 8.5800491220415731e-01 
1185 1186 2 1.0279999805442930e+00 -5.6296048912164870e+03 1.0000000000000000e+00 3.5331953104851532e-01 1.0428488023004105e+01 8.9352150102733829e-01 
766 767 2 1.0279999744622852e+00 4.2539424131514176e+02 1.0000000000000000e+00 3.0288523446642623e-01 1.0415722831288805e+01 9.0939796677597962e-01 
958 959 2 1.0280000061695906e+00 2.1019139421780683e+03 1.0000000000000000e+00 3.1212022443656258e+00 9.5367662329218543e+00 2.7369713381029726e-01 
206 207 2 1.0280000030317440e+00 -3.0955881382193866e+03 1.0000000000000000e+00 1.1330464192525852e+01 1.1197559323588154e+01 1.2681708002118905e+00 
788 789 2 1.0280000036166057e+00 -3.9588386550679293e+03 1.0000000000000000e+00 1.1389675239176531e+01 1.1094971731512896e+01 1.3167837906721951e+00 
190 191 2 1.0279999996596150e+00 2.9905466535706631e+02 1.0000000000000000e+00 1.4072687997087259e+01 9.6807049114236623e+00 3.0770456691854869e-01 
1267 1268 2 1.0280000049073355e+00 2.2085439955430274e+03 1.0000000000000000e+00 1.1662364679463517e+01 1.0836335625674199e+01 1.4409651961731362e+00 
960 961 2 1.0279999913990019e+00 -4.3665715388680101e+03 1.0000000000000000e+00 1.3194544011738795e+01 1.0978837803332738e+01 1.5297960199788119e+00 
1269 1270 2 1.0279999979703871e+00 1.0385095742188456e+04 1.0000000000000000e+00 1.6117254839203273e+01 9.9660029629752049e+00 2.0961372558074332e-01 
769 770 2 1.0279999978322814e+00 -1.3378104721638481e+03 1.0000000000000000e+00 1.4766327630886142e+01 1.0208034163675801e+01 8.1151190171104826e-01 
1242 1243 2 1.0279999979096557e+00 7.1764869327465494e+03 1.0000000000000000e+00 1.4760827682418615e+01 8.6074260227139892e+00 1.4591264728260260e+00 
1223 1224 2 1.0279999998060874e+00 -1.3413933922584660e+04 1.0000000000000000e+00 1.5480374906878829e+01 9.1168543253332928e+00 1.4990367683145671e+00 
288 289 2 1.0280000020477011e+00 -4.6583136432394640e+03 1.0000000000000000e+00 1.9567681975083111e+01 1.0207226338957581e+01 5.8912849114336929e-01 
576 577 2 1.0280000024009550e+00 3.3933318096367102e+03 1.0000000000000000e+00 1.9643111569767353e+01 1.0228464974829231e+01 6.4130711657081862e-01 
984 985 2 1.0280000024122642e+00 -8.9945686333163321e+03 1.0000000000000000e+00 1.9643508285804156e+01 1.0230592110216199e+01 6.4469767720368010e-01 
784 785 2 1.0280000024010014e+00 -7.8287019012247983e+03 1.0000000000000000e+00 1.9636533751973182e+01 1.0230995827020861e+01 6.4459710894658417e-01 
533 534 2 1.0280000002973959e+00 -1.3368147830058428e+04 1.0000000000000000e+00 1.9919980733441182e+01 1.1142170939487251e+01 8.9402558388794395e-01 
572 573 2 1.0280000320281766e+00 5.5727275093816729e+01 1.0000000000000000e+00 3.6127331483202979e-01 1.2661723874286144e+01 1.6778507240704621e+00 
438 439 2 1.0280000262304747e+00 3.5029348403936376e+02 1.0000000000000000e+00 3.9345630876244092e-01 1.2678857667316286e+01 1.6861729083732835e+00 
1184 1185 2 1.0280000266265343e+00 -1.6041270138757094e+04 1.0000000000000000e+00 3.9155669111962815e-01 1.2677707950669028e+01 1.6855281827440785e+00 
1177 1178 2 1.0279999734046310e+00 -5.8686354402203597e+03 1.0000000000000000e+00 6.9933365909290202e-01 1.3007190593024767e+01 1.9537182247470737e+00 
1127 1128 2 1.0280000013543322e+00 1.3481612902127106e+04 1.0000000000000000e+00 1.1313532105103548e+01 1.1850558252980761e+01 9.5964426286752291e-01 
1332 1333 2 1.0280000019486133e+00 1.1507823410608526e+04 1.0000000000000000e+00 1.1259386349286668e+01 1.1452891948199150e+01 1.1504183129676504e+00 
796 797 2 1.0280000001465430e+00 5.8925637242195791e+01 1.0000000000000000e+00 1.2728732555700949e+01 1.3089006655620812e+01 2.8505703815393862e-01 
504 505 2 1.0279999969555840e+00 -5.7229973068440740e+03 1.0000000000000000e+00 1.3075196387420743e+01 1.3210227597410668e+01 3.5067932168021182e-01 
1447 1448 2 1.0279999936561550e+00 1.3639776807744118e+04 1.0000000000000000e+00 1.3639655960501157e+01 1.2033074876081285e+01 7.6522594555406365e-01 
671 672 2 1.0280000114769641e+00 -2.9299120882468524e+03 1.0000000000000000e+00 1.2339140167243510e+01 1.3710415580887039e+01 9.1336939191659949e-01 
390 391 2 1.0279999982756700e+00 1.3978708080617675e+04 1.0000000000000000e+00 1.3530555615976658e+01 1.2727546358099183e+01 2.5059040386854781e+00 
926 927 2 1.0279999943448168e+00 -1.0086514392654415e+04 1.0000000000000000e+00 1.7896811804736750e+01 1.3683967167600072e+01 2.3744600782300305e+00 
1222 1223 2 1.0279999941677298e+00 -1.2871814610872825e+04 1.0000000000000000e+00 1.7993659713830009e+01 1.3686622083683924e+01 2.4005200096877064e+00 
909 910 2 1.0279999942949773e+00 -5.2934916725663686e+02 1.0000000000000000e+00 1.8283697237828271e+01 1.3755777186265174e+01 2.5050276643799672e+00 
1489 1490 2 1.0279999873585812e+00 -2.7766184330818219e+03 1.0000000000000000e+00 1.7336381551051936e+00 1.6330518972485017e+01 1.7910294679537659e+00 
176 177 2 1.0280000006830239e+00 1.2817518046862965e+03 1.0000000000000000e+00 4.0268081348400990e+00 1.7125823743396836e+01 8.2935673773229479e-01 
588 589 2 1.0280000003294063e+00 -8.4077451004228969e+03 1.0000000000000000e+00 4.2939799492786372e+00 1.7130015479150664e+01 9.6706471270509609e-01 
150 151 2 1.0280000052668727e+00 4.3009022007517984e+02 1.0000000000000000e+00 3.2727317962096474e+00 1.5395104896289080e+01 1.5422042211315814e+00 
1324 1325 2 1.0280000052380682e+00 1.4620750856264438e+04 1.0000000000000000e+00 3.2897438057823658e+00 1.5359410897950918e+01 1.5855448939513248e+00 
1286 1287 2 1.0279999950422638e+00 2.7317970309779771e+03 1.0000000000000000e+00 3.8867440958588069e+00 1.5428370184685242e+01 2.4103132801129306e+00 
98 99 2 1.0280000006828340e+00 1.1006026864940748e+04 1.0000000000000000e+00 1.1374691625455817e+01 1.7025402489591780e+01 8.7230190297370203e-01 
1061 1062 2 1.0279999948331005e+00 2.6913645557325981e+03 1.0000000000000000e+00 1.3600426089053315e+01 1.4805919245079142e+01 1.2823722110724053e-01 
377 378 2 1.0280000010371537e+00 2.3631770920179370e+03 1.0000000000000000e+00 1.2383403615538546e+01 1.4669134690028793e+01 2.8376580880386959e-01 
754 755 2 1.0280000008507180e+00 -2.0995516331211784e+03 1.0000000000000000e+00 1.1530080669588592e+01 1.6245212229877829e+01 3.3390364565648040e-01 
1072 1073 2 1.0280000012455097e+00 6.6499827957212092e+03 1.0000000000000000e+00 1.1464941321734180e+01 1.5975951557295696e+01 9.5552938046737224e-01 
800 801 2 1.0280000016870288e+00 -3.8145431088452287e+03 1.0000000000000000e+00 1.1572828149439811e+01 1.5752109577992448e+01 9.5534340479008917e-01 
881 882 2 1.0279999991444628e+00 -2.4928748467278815e+03 1.0000000000000000e+00 1.4180955860059935e+01 1.5358735626817891e+01 1.2120287534748817e+00 
530 531 2 1.0279999994877340e+00 -3.0307556619696516e+03 1.0000000000000000e+00 1.4138478743668756e+01 1.5344792468882185e+01 1.2328162260280460e+00 
263 264 2 1.0280000020583582e+00 6.8482744693033274e+03 1.0000000000000000e+00 1.3329612242997362e+01 1.6327770708965769e+01 2.6237445804416346e+00 
1343 1344 2 1.0279999906526300e+00 9.2112700230603677e+03 1.0000000000000000e+00 1.6498637752261697e+01 1.4365894321850821e+01 1.9814872314850349e-01 
1029 1030 2 1.0279999908282427e+00 2.8724674008625425e+03 1.0000000000000000e+00 1.6500906813840786e+01 1.4323867547754606e+01 2.2318294943489755e-01 
468 469 2 1.0280000506140454e+00 1.3224375387355929e+04 1.0000000000000000e+00 1.6870655197886613e+01 1.5656122987625070e+01 1.6386427848658831e+00 
723 724 2 1.0279999592443467e+00 -3.4421281915334853e+03 1.0000000000000000e+00 1.6419260018174111e+01 1.6557225030253765e+01 1.9051544207573081e+00 
924 925 2 1.0280000049720195e+00 1.1373729439594576e+04 1.0000000000000000e+00 1.5057942537234654e+01 1.6597381234156149e+01 2.7668121429569252e+00 
55 56 2 1.0279999889644396e+00 1.2282494452357358e+04 1.0000000000000000e+00 1.9060862678900786e+01 1.6509622648758040e+01 1.1924690304202545e+00 
1372 1373 2 1.0280000049928153e+00 2.4283128297381436e+03 1.0000000000000000e+00 1.7174126627941504e+01 1.6053831066200072e+01 1.4470790133563920e+00 
1406 1407 2 1.0279999882174160e+00 5.8988064488061891e+03 1.0000000000000000e+00 1.9377222125242760e+01 1.6352937099927384e+01 1.6821752141052384e+00 
601 602 2 1.0280000109006944e+00 2.9625275673922431e+02 1.0000000000000000e+00 1.9636026061057485e+01 1.5908551119173302e+01 1.9558227211548351e+00 
1067 1068 2 1.0279999953443897e+00 -2.1133839619385208e+03 1.0000000000000000e+00 1.9501846873867851e+01 1.5416757155832226e+01 2.1084463145801520e+00 
1271 1272 2 1.0279999835133371e+00 1.0958889063701777e+03 1.0000000000000000e+00 1.8901201605196849e+01 1.4672803784381285e+01 2.7615942096047044e+00 
391 392 2 1.0280000003704033e+00 1.5486683809695827e+04 1.0000000000000000e+00 2.6739886013811738e+00 1.7833701356500036e+01 1.0233344598130922e+00 
748 749 2 1.0279999993776350e+00 -9.2080134391868542e+03 1.0000000000000000e+00 4.0513611310270498e-01 1.8105671793696480e+01 1.0601104820237282e+00 
227 228 2 1.0280000003812819e+00 -7.9053602074518303e+03 1.0000000000000000e+00 7.3368912507044814e-01 1.8363225679684501e+01 1.6385425042885686e+00 
990 991 2 1.0280000011582704e+00 2.7566064097523974e+02 1.0000000000000000e+00 2.6007589897101937e+00 1.8362838009498397e+01 1.7076847522639842e+00 
1226 1227 2 1.0280000010817172e+00 1.0428893150085725e+04 1.0000000000000000e+00 2.8455134426990751e+00 1.8413259427417970e+01 2.1055779495084956e+00 
705 706 2 1.0279999989977704e+00 -5.6505221554179343e+03 1.0000000000000000e+00 4.7649100632557042e+00 1.7526274532389682e+01 1.9976808791919025e+00 
1482 1483 2 1.0279999989857871e+00 2.6152427506571939e+03 1.0000000000000000e+00 4.7021649212425602e+00 1.7478209483193183e+01 2.2157619899689975e+00 
1045 1046 2 1.0279999994151998e+00 2.8265262036691829e+03 1.0000000000000000e+00 4.1962378843773482e+00 1.8163171315528828e+01 2.4800388903924446e+00 
403 404 2 1.0279999999508820e+00 -5.0570789100043894e+03 1.0000000000000000e+00 3.7445969473831129e+00 1.8327066554265727e+01 2.5098080643793175e+00 
1034 1035 2 1.0279999841144720e+00 5.9073296620658875e+03 1.0000000000000000e+00 1.4037513525903787e+01 1.7185557870007205e+01 3.4497386834526224e-02 
1178 1179 2 1.0280000007782835e+00 6.0962147470829332e+03 1.0000000000000000e+00 1.1828000125936217e+01 1.7600708684103743e+01 8.2710623968994834e-01 
509 510 2 1.0280000023956308e+00 -7.1074415488008453e+03 1.0000000000000000e+00 1.3177685167445523e+01 1.9882448116492483e+01 2.1880710539173100e+00 
688 689 2 1.0279999993888465e+00 -9.9855107946857897e+03 1.0000000000000000e+00 1.2237814432210790e+01 1.7404245137834977e+01 2.5753309086840188e+00 
942 943 2 1.0280000113070593e+00 1.0823663057314141e+04 1.0000000000000000e+00 1.6882268089026830e+01 1.8750941404119342e+01 1.9874935342839191e+00 
1513 1514 2 1.0280000116166854e+00 7.3436916163081760e+03 1.0000000000000000e+00 1.6897208893637117e+01 1.8736604933541660e+01 2.0039870031321092e+00 
1365 1366 2 1.0280000137518550e+00 -1.0101236272509847e+03 1.0000000000000000e+00 1.6992712182557113e+01 1.8649016633285441e+01 2.1022062030358049e+00 
694 695 2 1.0279999991429132e+00 -1.3135731446289021e+04 1.0000000000000000e+00 1.4762539493061505e+01 1.8855027162439786e+01 2.4759953354092508e+00 
825 826 2 1.0279999974484353e+00 1.0899002175515780e+02 1.0000000000000000e+00 1.7505744859676881e+01 1.8073684595973763e+01 9.4157089578454778e-01 
1027 1028 2 1.0280000110427447e+00 2.8721245731739477e+03 1.0000000000000000e+00 8.0139931652330052e+00 1.8239388001480557e+00 5.1628675009446372e+00 
404 405 2 1.0279999874763242e+00 -6.1572102116332690e+03 1.0000000000000000e+00 8.5651060937653725e+00 1.5290240071491317e+00 5.4275517204097437e+00 
927 928 2 1.0279999962230055e+00 -1.2285742996042018e+04 1.0000000000000000e+00 6.9788266280978402e+00 6.0282121448872450e-01 5.4816906699544674e+00 
868 869 2 1.0279999961867998e+00 9.0130202681449441e+02 1.0000000000000000e+00 6.9797203010867284e+00 6.0137084203360958e-01 5.4836485700201640e+00 
1040 1041 2 1.0279999961863904e+00 -1.1199920213906968e+04 1.0000000000000000e+00 6.9796494286679129e+00 6.0139407056886873e-01 5.4836877271285864e+00 
1248 1249 2 1.0279999956680090e+00 5.2543212619635233e+03 1.0000000000000000e+00 6.8721049373372205e+00 6.4992689386013247e-01 5.5525142515381027e+00 
1487 1488 2 1.0280000088756591e+00 3.3495949377006837e+03 1.0000000000000000e+00 1.0737783823466700e+01 1.6203459840751937e+00 4.8787642563853577e+00 
743 744 2 1.0280000097689406e+00 -7.1168047220867074e+03 1.0000000000000000e+00 1.0750815821644048e+01 1.6252167342760846e+00 4.8818489880248288e+00 
1025 1026 2 1.0280000098434221e+00 3.9315399594055503e+02 1.0000000000000000e+00 1.0751899076754347e+01 1.6256362959240551e+00 4.8821039632188352e+00 
1342 1343 2 1.0280000098644093e+00 8.4528500633102431e+03 1.0000000000000000e+00 1.0752204228870285e+01 1.6257551999905804e+00 4.8821753792015343e+00 
1180 1181 2 1.0279999928612424e+00 -4.7121002340794721e+03 1.0000000000000000e+00 1.0498231130212359e+01 1.5114701667011867e+00 4.9332509318965556e+00 
912 913 2 1.0279999931750521e+00 1.2089223620967825e+03 1.0000000000000000e+00 1.3881594429020323e+01 2.5778346052592513e+00 5.5532720059189629e+00 
177 178 2 1.0279999899922485e+00 8.8601987089670092e+03 1.0000000000000000e+00 1.6351963369816254e+01 2.4729209914247616e+00 3.4316807793314181e+00 
967 968 2 1.0279999909969886e+00 -4.4065320484046524e+03 1.0000000000000000e+00 1.6013941681153923e+01 2.4401563261734540e+00 3.5666829971224043e+00 
1098 1099 2 1.0279999923281149e+00 4.3914121240337572e+03 1.0000000000000000e+00 1.5400418337843401e+01 2.4784486481515828e+00 3.8013437351617365e+00 
767 768 2 1.0280000076065434e+00 6.4112596219669683e+02 1.0000000000000000e+00 1.5291537117250744e+01 2.7656128259154173e+00 3.0690741893949607e+00 
1 2 2 1.0279999999075642e+00 2.8129101899437796e+03 1.0000000000000000e+00 1.9601168885338112e+01 1.1667216351366223e+00 2.8151381222396878e+00 
662 663 2 1.0279999988383577e+00 -1.6715915668538360e+03 1.0000000000000000e+00 1.9058119075486577e+01 1.2002942243099166e+00 2.9985869568668808e+00 
1062 1063 2 1.0279999769024297e+00 -4.8240249169601930e+03 1.0000000000000000e+00 1.7298689280364453e+01 2.4354881667078025e+00 3.0136282633150890e+00 
1446 1447 2 1.0279999940935658e+00 1.5651372034867323e+04 1.0000000000000000e+00 1.7812704092885706e+01 2.3251871269406803e+00 3.1042563453953322e+00 
231 232 2 1.0279999937691588e+00 -9.3809399635643567e+03 1.0000000000000000e+00 1.9203255361523265e+01 1.2722971679118047e+00 3.1339161575366634e+00 
449 450 2 1.0279999944002851e+00 1.6668289547820889e+03 1.0000000000000000e+00 1.8755828619018335e+01 1.4543003883603505e+00 3.2269289111219179e+00 
315 316 2 1.0279999762310756e+00 -9.1546787549467172e+03 1.0000000000000000e+00 8.9263807721285247e+00 3.4123863785585322e+00 5.5344228846950321e+00 
1477 1478 2 1.0280000015783883e+00 -8.3818595515796151e+03 1.0000000000000000e+00 1.3595485720404202e+01 5.2856479948586834e+00 4.0268723111942828e+00 
545 546 2 1.0279999898670751e+00 -1.0945250874939216e+04 1.0000000000000000e+00 1.4255575601213016e+01 2.9105934485624156e+00 4.5596666563002701e+00 
1210 1211 2 1.0279999873347698e+00 -2.3523474528752325e+02 1.0000000000000000e+00 1.4262047468727205e+01 2.8687252204903504e+00 4.6749195602709666e+00 
230 231 2 1.0280000075728530e+00 -9.4350551026150479e+03 1.0000000000000000e+00 1.2082549029851771e+01 4.9341632683635677e+00 4.7436700317524911e+00 
936 937 2 1.0279999885898234e+00 -9.9351332668950436e+03 1.0000000000000000e+00 1.4724230415837178e+01 5.5273846013868777e+00 4.4586437491955957e+00 
193 194 2 1.0279999917245330e+00 1.0865291141111995e+04 1.0000000000000000e+00 1.4874513973290103e+01 5.3929109636792969e+00 4.5011755316139288e+00 
76 77 2 1.0280000083476601e+00 1.6250946345075020e+03 1.0000000000000000e+00 1.4818827614057286e+01 5.0610959596594780e+00 4.7310358221657784e+00 
138 139 2 1.0279999923296350e+00 6.0186645944515230e+03 1.0000000000000000e+00 1.2863160996820675e+01 6.0010385784858222e+00 4.4435148797540798e+00 
798 799 2 1.0280000030139607e+00 -7.1104549192169461e+03 1.0000000000000000e+00 1.1570500465979505e+01 5.7174885761552945e+00 4.9486436018851734e+00 
866 867 2 1.0279999816027057e+00 -2.3104893229246977e+03 1.0000000000000000e+00 1.3546495013261049e+01 6.1786855283481552e+00 5.0689012113092016e+00 
304 305 2 1.0279999877370094e+00 -2.7304913975178994e+02 1.0000000000000000e+00 1.6039838399710568e+01 8.5111107638720558e+00 4.4974707096617985e+00 
332 333 2 1.0280000005851166e+00 -3.6118873351490670e+03 1.0000000000000000e+00 1.7400325748314394e+01 5.7807304561832851e+00 3.7816964538741926e+00 
164 165 2 1.0280000004547587e+00 1.7763461515693486e+03 1.0000000000000000e+00 1.7396489196907719e+01 5.7932370529371617e+00 3.7838953260734716e+00 
950 951 2 1.0280000001455636e+00 2.6105903447739452e+03 1.0000000000000000e+00 1.7386536925913724e+01 5.8144877251349563e+00 3.7918010122751373e+00 
952 953 2 1.0279999999278069e+00 -1.8898775020825860e+03 1.0000000000000000e+00 1.7379992959370892e+01 5.8296314834334879e+00 3.7959296722371185e+00 
941 942 2 1.0280000000273364e+00 -4.7361559940368306e+02 1.0000000000000000e+00 1.7382983418477941e+01 5.8228741744714982e+00 3.7940572327744655e+00 
215 216 2 1.0280000189618854e+00 3.3095498393523764e+02 1.0000000000000000e+00 1.6799280215159544e+00 9.6326424938515753e+00 3.0127835504482414e+00 
876 877 2 1.0279999869685352e+00 4.2217346522886453e+02 1.0000000000000000e+00 1.6559479829247503e+00 1.0015962413368836e+01 3.1399896322819889e+00 
619 620 2 1.0279999896880170e+00 -1.2938945907409447e+03 1.0000000000000000e+00 1.7058400025157514e+00 9.7648250965342349e+00 3.4129975305841196e+00 
997 998 2 1.0280000061893237e+00 -6.0708321570744483e+03 1.0000000000000000e+00 1.5661658239502201e+00 9.3368894327840462e+00 3.5443900350109168e+00 
1193 1194 2 1.0280000114162675e+00 -5.1341493865638722e+03 1.0000000000000000e+00 6.0719032521821048e-01 9.1751335368260776e+00 3.6397941232070368e+00 
971 972 2 1.0279999903278612e+00 2.6078174822755209e+03 1.0000000000000000e+00 8.1546352821610735e-01 9.6905934268106879e+00 3.9738497161516682e+00 
744 745 2 1.0280000100940061e+00 -1.3591254808865373e+04 1.0000000000000000e+00 1.2378818521102524e+01 1.0376690934867327e+01 3.9487053647735233e+00 
286 287 2 1.0280000122629858e+00 -7.7334454319398528e+03 1.0000000000000000e+00 1.2424803592718430e+01 1.0185291476565967e+01 4.0145207297078622e+00 
1307 1308 2 1.0279999908952493e+00 3.7971846498480090e+03 1.0000000000000000e+00 1.3156205221345896e+01 9.5587565990165793e+00 4.0406454815578092e+00 
1382 1383 2 1.0280000132126081e+00 1.7933933432017445e+03 1.0000000000000000e+00 1.2560461364892452e+01 9.8279488504651624e+00 4.0883916696023856e+00 
1245 1246 2 1.0280000053983243e+00 4.2451306505152288e+03 1.0000000000000000e+00 1.2761361516987030e+01 9.5601990753724877e+00 4.1693375049389818e+00 
210 211 2 1.0280000018907960e+00 6.8417023608870056e+02 1.0000000000000000e+00 1.6149184233409809e+01 9.3018558857045868e+00 4.2081472516768788e+00 
1158 1159 2 1.0280000027969673e+00 -3.7882031882079741e+02 1.0000000000000000e+00 1.5682294024903380e+01 8.9968563386515701e+00 4.2243458970241656e+00 
1228 1229 2 1.0279999876551902e+00 3.0630931028403070e+03 1.0000000000000000e+00 1.5057408570840511e+01 9.8659865040508201e+00 4.3777607861929004e+00 
1112 1113 2 1.0279999945034046e+00 -2.0010275100742398e+04 1.0000000000000000e+00 1.5842319378741363e+01 8.6756045875780288e+00 4.4058783487787379e+00 
1429 1430 2 1.0280000176560522e+00 -2.8624736915330350e+03 1.0000000000000000e+00 1.2791319905467862e+00 1.2850959918864012e+01 4.1557629244049910e+00 
27 28 2 1.0280000206880791e+00 1.2342795159593695e+03 1.0000000000000000e+00 1.3024877828288208e+00 1.2880201458205152e+01 4.1716019271718201e+00 
364 365 2 1.0279999914323110e+00 -7.3436635674014487e+03 1.0000000000000000e+00 4.7268151984220959e+00 1.4012187026787416e+01 2.9442715460285260e+00 
973 974 2 1.0280000038043473e+00 -1.2283988560390033e+04 1.0000000000000000e+00 5.1814377592953988e+00 1.3067020518599179e+01 3.0526630931245680e+00 
89 90 2 1.0280000038597277e+00 -1.0404423163616520e+04 1.0000000000000000e+00 5.2479409211436785e+00 1.3130544261167783e+01 3.1598486142171880e+00 
357 358 2 1.0280000037692281e+00 -5.6559156692616125e+03 1.0000000000000000e+00 5.2586068327626334e+00 1.3152021132350832e+01 3.1821102926098130e+00 
828 829 2 1.0280000021000724e+00 -1.5941038887889513e+03 1.0000000000000000e+00 5.2694542086441212e+00 1.3355934587408825e+01 3.2151711392892026e+00 
724 725 2 1.0279999848880217e+00 -1.8730410196393473e+03 1.0000000000000000e+00 3.1533032874058677e+00 1.2557046891462420e+01 4.0575698163886704e+00 
757 758 2 1.0280000009365187e+00 -2.7138518763894872e+03 1.0000000000000000e+00 3.2690573244456211e+00 1.2645361559217127e+01 4.2260864480226239e+00 
1421 1422 2 1.0280000026621883e+00 8.8186359916570700e+02 1.0000000000000000e+00 3.4146787647355969e+00 1.2596530377557757e+01 4.2307645298065726e+00 
1187 1188 2 1.0280000056169909e+00 9.0538819562798963e+03 1.0000000000000000e+00 3.4760209916654325e+00 1.2810069989740088e+01 4.3491888698664862e+00 
402 403 2 1.0279999907910913e+00 -4.5120781742121553e+03 1.0000000000000000e+00 1.0897240320024331e+01 1.2836437924863422e+01 5.3346085872229345e+00 
841 842 2 1.0280000103260778e+00 5.6111768772331970e+03 1.0000000000000000e+00 1.1333286152700364e+01 1.4149581171334395e+01 5.4743656864080297e+00 
15 16 2 1.0279999811228857e+00 3.9620963711460367e+03 1.0000000000000000e+00 1.0325465836100184e+01 1.2285543330640467e+01 5.5554420355629883e+00 
240 241 2 1.0280000029455150e+00 1.5787566174382348e+04 1.0000000000000000e+00 1.3314869850570785e+01 1.2987663315896656e+01 3.4960950024858830e+00 
337 338 2 1.0280000047810540e+00 -1.8200773279969057e+04 1.0000000000000000e+00 1.3614184169075902e+01 1.3082996496830575e+01 3.5613640893737086e+00 
521 522 2 1.0280000001811884e+00 -6.6916225291847240e+03 1.0000000000000000e+00 1.3265942484719373e+01 1.2981023478542246e+01 3.6094797876989113e+00 
1479 1480 2 1.0279999655289189e+00 -3.0258179371278670e+03 1.0000000000000000e+00 1.2697168155250502e+01 1.2001045797067880e+01 4.2842842429269501e+00 
411 412 2 1.0279999969335951e+00 1.2756888444070355e+04 1.0000000000000000e+00 1.6317598700137161e+01 1.2728742759396575e+01 3.7720124531648205e+00 
1474 1475 2 1.0279999933541002e+00 5.7164639968335323e+03 1.0000000000000000e+00 1.4776890207628353e+01 1.2884560449197760e+01 3.9955841072779474e+00 
1274 1275 2 1.0279999874361903e+00 2.9036614051644619e+03 1.0000000000000000e+00 1.5902253886826522e+01 1.2170506827334892e+01 4.4202801399554010e+00 
1402 1403 2 1.0280000339497288e+00 2.1620088529637842e+03 1.0000000000000000e+00 1.4739499168709409e+01 1.1818579719938029e+01 4.6371143760502020e+00 
158 159 2 1.0279999851192658e+00 -1.4007265257395800e+04 1.0000000000000000e+00 1.6200486609600361e+01 1.2090244117869348e+01 4.9873440923198666e+00 
160 161 2 1.0280000103720210e+00 -1.0509373834034807e+03 1.0000000000000000e+00 1.6829949039726127e+01 1.4268787239584409e+01 3.4746823621475253e+00 
1375 1376 2 1.0280000030397662e+00 -6.2358573278555332e+03 1.0000000000000000e+00 1.8123366189952371e+01 1.2762579142439995e+01 4.5102901588390916e+00 
883 884 2 1.0280000034980414e+00 -1.8115982167646118e+03 1.0000000000000000e+00 1.8175057327242335e+01 1.2813587127137758e+01 4.5285789233681237e+00 
631 632 2 1.0280000051150344e+00 3.8935383214748372e+03 1.0000000000000000e+00 1.8243633471607229e+01 1.2979433089451151e+01 4.8092113916020320e+00 
427 428 2 1.0279999721887676e+00 8.4443226641739984e+03 1.0000000000000000e+00 1.0838092238839832e+00 1.4285917929037236e+01 4.1358818390680243e+00 
998 999 2 1.0279999973545273e+00 4.3875280552386839e+03 1.0000000000000000e+00 2.1061194972905293e+00 1.5571806943529763e+01 2.7869145044486827e+00 
1012 1013 2 1.0279999977420906e+00 1.3066879402368493e+03 1.0000000000000000e+00 2.1172234194324457e+00 1.5567006156696371e+01 2.7925157945128931e+00 
892 893 2 1.0279999949990228e+00 -6.3571621092018131e+03 1.0000000000000000e+00 2.1558340563793199e+00 1.5478545249844473e+01 2.8014229815375744e+00 
110 111 2 1.0279999962205373e+00 -2.5382144148293041e+03 1.0000000000000000e+00 3.4336080523218654e-01 1.6524765982453808e+01 5.0329576111002048e+00 
981 982 2 1.0280000030120564e+00 -1.1706112024603812e+04 1.0000000000000000e+00 1.1941831939692229e+01 1.4622124320791912e+01 5.5295406214017460e+00 
1124 1125 2 1.0280000008638821e+00 -1.3615743570088958e+04 1.0000000000000000e+00 1.4986301795806853e+01 1.6806363826583979e+01 2.9655517267040739e+00 
661 662 2 1.0279999999594545e+00 1.8720087518830242e+03 1.0000000000000000e+00 1.4962333383141116e+01 1.6862262944521039e+01 3.0160961812173319e+00 
222 223 2 1.0280000011907318e+00 3.2280513710991727e+02 1.0000000000000000e+00 1.7041829766751139e+01 1.4762473501247548e+01 4.8065528115503540e+00 
1392 1393 2 1.0280000073351050e+00 6.1620619117482674e+03 1.0000000000000000e+00 1.8717472768461757e+01 1.7053816380613259e+01 5.0296507894716074e+00 
463 464 2 1.0279999642075697e+00 -3.8728478609529716e+03 1.0000000000000000e+00 1.9501245067927883e+01 1.5089671094383213e+01 5.0481421114193532e+00 
844 845 2 1.0279999949682277e+00 2.5176907518784278e+03 1.0000000000000000e+00 1.7691201936530597e+01 1.5271633370621371e+01 5.2836714658848027e+00 
1280 1281 2 1.0279999965431377e+00 1.8674493573703674e+03 1.0000000000000000e+00 1.7645166675027049e+01 1.5218794352728123e+01 5.3471179440095016e+00 
683 684 2 1.0280000015866924e+00 6.7662606202117871e+01 1.0000000000000000e+00 1.6312580388756527e-02 1.8057433003270255e+01 4.8113887479337372e+00 
1206 1207 2 1.0280000002969503e+00 -5.8620542744740724e+03 1.0000000000000000e+00 1.2584696384638283e+01 1.7674638306983592e+01 3.0029268077249998e+00 
777 778 2 1.0280000003242611e+00 -7.6589376339859155e+03 1.0000000000000000e+00 1.2609315383132234e+01 1.7515053046968976e+01 3.0223127319529874e+00 
901 902 2 1.0280000031499288e+00 2.2770175755300493e+03 1.0000000000000000e+00 1.3267457182584467e+01 1.8693353181200674e+01 3.1444844762400832e+00 
485 486 2 1.0280000048696121e+00 6.9042406863819770e+02 1.0000000000000000e+00 1.4053089874960500e+01 1.8577846655920840e+01 3.1785972451323379e+00 
385 386 2 1.0280000148416493e+00 -1.1996706602986940e+04 1.0000000000000000e+00 1.8253297315988597e+01 1.8396242837589817e+01 3.2974916489756931e+00 
24 25 2 1.0279999931463137e+00 9.4182675724797336e+03 1.0000000000000000e+00 1.9068766323702732e+01 1.8381576865093930e+01 3.4374375674189923e+00 
1239 1240 2 1.0279999930682064e+00 -4.8219072358891544e+03 1.0000000000000000e+00 1.9073625953735181e+01 1.8380691963164043e+01 3.4420730786416360e+00 
1125 1126 2 1.0280000003945882e+00 -1.1443814830844820e+04 1.0000000000000000e+00 1.9682096214922684e+01 1.7765171141326505e+01 3.5833583346185569e+00 