LAMMPS data file via write_data, version 30 Jul 2016, timestep = 50000000

1520 atoms
8 atom types

0.0000000000000000e+00 4.0000000000000000e+01 xlo xhi
0.0000000000000000e+00 4.0000000000000000e+01 ylo yhi
0.0000000000000000e+00 1.0000000000000000e+02 zlo zhi

Masses

1 3.896
2 5.36
3 20.064
4 8.378
5 8.378
6 8.378
7 8.378
8 8.378

Atoms # meso-molecular

1313 1314 2 1.0279999982645338e+00 1.1029174857502418e+04 1.0000000000000000e+00 1.9585918548039650e+01 2.4054770358336763e+00 1.8482122928670617e+00 
416 417 2 1.0279999979682513e+00 -9.0771517917073652e+03 1.0000000000000000e+00 1.8963652723907913e+01 2.7195873922226528e+00 2.2474205388368458e+00 
452 453 2 1.0280000011808932e+00 4.6465151626692168e+03 1.0000000000000000e+00 9.6800483645676767e+00 4.0633676896944895e+00 1.9330333019713855e-01 
365 366 2 1.0279999994812297e+00 -1.5170267562809062e+04 1.0000000000000000e+00 1.8875093958210478e+01 4.8503281093555124e+00 1.3130881806371970e+00 
1473 1474 2 1.0279999992751911e+00 -4.4496282058566109e+01 1.0000000000000000e+00 1.8275428599097051e+01 4.7901188968391937e+00 1.5480854173180869e+00 
1147 1148 2 1.0279999996325129e+00 2.5191150069600353e+03 1.0000000000000000e+00 1.8514457600534719e+01 5.1844526039242371e+00 1.5953584557520915e+00 
953 954 2 1.0279999996203206e+00 -7.8187719870535120e+03 1.0000000000000000e+00 1.8692232567161817e+01 5.4106843346390514e+00 1.8214582003540642e+00 
186 187 2 1.0279999993915427e+00 -3.6161339241179749e+03 1.0000000000000000e+00 1.9861253559776927e+01 5.0751583900864894e+00 2.1737494070061514e+00 
1160 1161 2 1.0279999999730967e+00 -8.1206739892062378e+03 1.0000000000000000e+00 9.5403535119897001e+00 7.2534447180991064e+00 1.8088492330204872e-01 
103 104 2 1.0279999982697017e+00 9.9750515882196014e+03 1.0000000000000000e+00 8.9750933235713948e+00 6.5209636687343329e+00 2.3065357987092311e-01 
198 199 2 1.0280000000347342e+00 -1.3943985371494540e+02 1.0000000000000000e+00 8.5806681699238077e+00 6.8379209659829225e+00 7.3976073577512425e-01 
1410 1411 2 1.0280000000557001e+00 -2.0809960274446225e+03 1.0000000000000000e+00 8.5717457667289434e+00 6.8500163766635218e+00 7.4731150065093710e-01 
1080 1081 2 1.0280000001864782e+00 -6.3724078700531081e+03 1.0000000000000000e+00 9.0790953546601649e+00 7.9095503654898289e+00 8.1440549345696089e-01 
902 903 2 1.0279999733571981e+00 1.2192912161415575e+03 1.0000000000000000e+00 2.2851016693996358e+00 1.1125280878206276e+01 1.7779448264637523e+00 
574 575 2 1.0280000455108036e+00 -9.5762031549958720e+03 1.0000000000000000e+00 1.4598106114534710e+00 1.0960661674879397e+01 2.1181608882161340e+00 
1110 1111 2 1.0280000126133608e+00 9.5537019885977752e+03 1.0000000000000000e+00 2.7175396215967695e+00 9.4879736943983914e+00 2.3592604610776222e+00 
1499 1500 2 1.0279999963274518e+00 -4.2704334086097691e+02 1.0000000000000000e+00 3.7040157506744311e+00 1.0672014478679046e+01 1.2328471066337188e+00 
250 251 2 1.0279999976109091e+00 -4.0331413139240922e+03 1.0000000000000000e+00 3.8465964931279091e+00 1.0446109947036845e+01 1.2378632834284962e+00 
376 377 2 1.0280000005292456e+00 -7.8147080905092844e+03 1.0000000000000000e+00 3.8985874209551938e+00 9.7962427438069675e+00 1.4540332027806440e+00 
972 973 2 1.0279999824788513e+00 2.7079004840513007e+03 1.0000000000000000e+00 3.1114790055869825e+00 1.1104468932085583e+01 1.5160386491074900e+00 
562 563 2 1.0280000030512504e+00 2.6640950022023239e+03 1.0000000000000000e+00 3.5108941776106044e+00 9.4243546642271969e+00 1.9261226002976184e+00 
958 959 2 1.0280000069505872e+00 2.1019139410866746e+03 1.0000000000000000e+00 3.1674761277502190e+00 9.4366009178604262e+00 2.2240994321793157e+00 
1453 1454 2 1.0280000009219652e+00 -4.3277765728498816e+03 1.0000000000000000e+00 1.4129594191775960e+01 1.1366243812051071e+01 1.4760513594814790e+00 
190 191 2 1.0279999996211113e+00 2.9905466525834117e+02 1.0000000000000000e+00 1.4035128553271409e+01 9.8173408251276104e+00 2.2995576432189719e+00 
805 806 2 1.0280000003005989e+00 9.9812559277074997e+03 1.0000000000000000e+00 1.4546243481721232e+01 9.1478055610689175e+00 4.7313512308418398e-01 
534 535 2 1.0279999987835677e+00 3.2779931216578137e+02 1.0000000000000000e+00 1.6349155811186954e+01 9.9495983614131482e+00 6.6284787450887606e-01 
1416 1417 2 1.0279999994230637e+00 1.1270745166495353e+03 1.0000000000000000e+00 1.6350539939037166e+01 9.5724938268662978e+00 9.5965447658395908e-01 
172 173 2 1.0280000003065080e+00 -3.2340822013609850e+03 1.0000000000000000e+00 1.4983882001676399e+01 8.7765346721860240e+00 1.0808677182518396e+00 
974 975 2 1.0279999982955907e+00 3.3419356984571323e+03 1.0000000000000000e+00 1.6415215807128433e+01 9.6306663274417819e+00 1.3430140572891140e+00 
1269 1270 2 1.0279999983882693e+00 1.0385095742188456e+04 1.0000000000000000e+00 1.6080139827429946e+01 1.0103444603067190e+01 2.2017244981077559e+00 
288 289 2 1.0280000017008739e+00 -4.6583136432394640e+03 1.0000000000000000e+00 1.9528728569146246e+01 1.0338973855119763e+01 2.5827521039405408e+00 
576 577 2 1.0280000019870483e+00 3.3933318096367102e+03 1.0000000000000000e+00 1.9604072972421438e+01 1.0360189401718849e+01 2.6348604311510564e+00 
984 985 2 1.0280000019969668e+00 -8.9945686333163321e+03 1.0000000000000000e+00 1.9604468793542395e+01 1.0362314001577497e+01 2.6382471485269625e+00 
784 785 2 1.0280000019885154e+00 -7.8287019012247983e+03 1.0000000000000000e+00 1.9597502275638501e+01 1.0362718149053951e+01 2.6381479254002773e+00 
796 797 2 1.0279999996961648e+00 5.8925637152586233e+01 1.0000000000000000e+00 1.2691360069140618e+01 1.3225214241861488e+01 2.2796764418415196e+00 
504 505 2 1.0279999966949382e+00 -5.7229973068440740e+03 1.0000000000000000e+00 1.3038009935664267e+01 1.3346541517584228e+01 2.3447746370848437e+00 
1447 1448 2 1.0279999943715747e+00 1.3639776807744118e+04 1.0000000000000000e+00 1.3603779646122240e+01 1.2169220687289965e+01 2.7587251735404932e+00 
1018 1019 2 1.0280000002383911e+00 2.8374416270120846e+03 1.0000000000000000e+00 1.4474563187671849e+01 1.1436034018801445e+01 1.2016651701498413e+00 
1349 1350 2 1.0279999986024353e+00 -5.1263184843349482e+03 1.0000000000000000e+00 1.6661092785031517e+01 1.4107886437362243e+01 1.7324178339596756e+00 
1220 1221 2 1.0279999981076104e+00 6.6061162705071490e+02 1.0000000000000000e+00 1.6796013544868558e+01 1.4281142739095420e+01 1.5396456362577986e+00 
1046 1047 2 1.0280000012890200e+00 1.0244965355768736e+03 1.0000000000000000e+00 1.9203742872182143e+01 1.1920674494236671e+01 4.7794797710463705e-01 
1066 1067 2 1.0280000000236778e+00 2.5823607185988803e+03 1.0000000000000000e+00 1.9874695860144246e+01 1.2637290372650750e+01 5.5704865572788465e-01 
1357 1358 2 1.0280000029802123e+00 2.7752441825539690e+03 1.0000000000000000e+00 1.7869805699664788e+01 1.2841146477915153e+01 1.2780837831724536e+00 
1346 1347 2 1.0280000024282470e+00 -4.8455469466605227e+03 1.0000000000000000e+00 1.7895201634491080e+01 1.2811130138848448e+01 1.2836274292585688e+00 
311 312 2 1.0280000042751121e+00 -3.3834166864450244e+03 1.0000000000000000e+00 1.7602994270026358e+01 1.2996362105238028e+01 1.3023359299559469e+00 
895 896 2 1.0279999938167270e+00 -6.8777285554152713e+03 1.0000000000000000e+00 1.8292457978935001e+01 1.1596456602670965e+01 1.9284683230260040e+00 
176 177 2 1.0280000008912660e+00 1.2817518046862965e+03 1.0000000000000000e+00 4.0557226086705320e+00 1.7037141901654177e+01 2.7614755661390897e+00 
1061 1062 2 1.0279999947918448e+00 2.6913645557325981e+03 1.0000000000000000e+00 1.3563248969699851e+01 1.4941593874615144e+01 2.1224663049579182e+00 
377 378 2 1.0280000004068903e+00 2.3631770920179370e+03 1.0000000000000000e+00 1.2346162812592258e+01 1.4805205801432347e+01 2.2788872948032806e+00 
754 755 2 1.0280000001546730e+00 -2.0995516331211784e+03 1.0000000000000000e+00 1.1492916141404788e+01 1.6381551601974923e+01 2.3286380188829461e+00 
591 592 2 1.0279999997791673e+00 3.1002808585192270e+03 1.0000000000000000e+00 1.4642705457403338e+01 1.6794010781298933e+01 7.0562490938570166e-01 
703 704 2 1.0279999998041374e+00 2.5392482930246138e+03 1.0000000000000000e+00 1.4629447648919511e+01 1.6773546296910546e+01 7.3476091796029130e-01 
1069 1070 2 1.0280000111025427e+00 5.9278885451363531e+03 1.0000000000000000e+00 1.4590464828832603e+01 1.6103200166708067e+01 1.7538776488513257e+00 
1343 1344 2 1.0279999913914999e+00 9.2112700230603677e+03 1.0000000000000000e+00 1.6460992075994188e+01 1.4500288281328229e+01 2.1936946496597156e+00 
1029 1030 2 1.0279999915750944e+00 2.8724674008625425e+03 1.0000000000000000e+00 1.6463250845581097e+01 1.4458166176259136e+01 2.2187672901391586e+00 
1498 1499 2 1.0279999955321040e+00 6.4459179195931267e+02 1.0000000000000000e+00 1.8562300814907879e+01 1.5527549522745938e+01 4.2894246141301967e-01 
335 336 2 1.0279999973010296e+00 1.1985934707497890e+04 1.0000000000000000e+00 1.9361427309108262e+01 1.5730746659935113e+01 1.1344879806730490e+00 
1383 1384 2 1.0280000155032945e+00 8.3660314618457051e+03 1.0000000000000000e+00 1.9852076360718932e+01 1.5590631457790847e+01 1.4747959868881175e+00 
317 318 2 1.0280000164316734e+00 -6.6005628045063413e+03 1.0000000000000000e+00 1.9890214705298863e+01 1.5594648927911976e+01 1.4840985604718080e+00 
850 851 2 1.0279999981684376e+00 -3.3162269625961426e+03 1.0000000000000000e+00 1.1360685348686538e+01 1.9695961831736664e+01 3.7473893543453801e-01 
701 702 2 1.0279999996671811e+00 6.7306225205485262e+03 1.0000000000000000e+00 1.1421719965981422e+01 1.8969287067680625e+01 4.5102400119445962e-01 
1510 1511 2 1.0280000015673072e+00 -4.1564627906503512e+02 1.0000000000000000e+00 1.2235867974610866e+01 1.9425665812524205e+01 9.6343861416681234e-02 
691 692 2 1.0280000015402260e+00 -9.1641691104988968e+03 1.0000000000000000e+00 1.2234860285542181e+01 1.9434325766376176e+01 9.8629192216540276e-02 
253 254 2 1.0280000026740637e+00 5.1745149490376152e+03 1.0000000000000000e+00 1.4259430736730319e+01 1.7664237783133458e+01 3.6030200228633025e-01 
1148 1149 2 1.0280000016254816e+00 -1.3873318112615081e+04 1.0000000000000000e+00 1.1946310932605666e+01 1.8222419499458077e+01 7.7810492814866850e-01 
204 205 2 1.0280000049187756e+00 1.0164960476701690e+04 1.0000000000000000e+00 1.2011433238903143e+01 1.8021357952582001e+01 1.8211343076905631e+00 
1034 1035 2 1.0279999883916360e+00 5.9073296620658875e+03 1.0000000000000000e+00 1.4000520043645027e+01 1.7321501582947576e+01 2.0295912989541720e+00 
52 53 2 1.0279999988162596e+00 -3.5223515710155762e+03 1.0000000000000000e+00 1.1951218278486216e+01 1.9956011534579755e+01 3.0654309981992145e-01 
318 319 2 1.0280000011116093e+00 -5.9783194670663997e+03 1.0000000000000000e+00 1.4779007999289853e+01 1.7832705600610968e+01 2.2328250551544765e-01 
624 625 2 1.0279999994366960e+00 -1.7614903802718982e+04 1.0000000000000000e+00 1.5646702922077596e+01 1.8641036606016925e+01 6.3721182615611449e-01 
633 634 2 1.0280000051097125e+00 -4.3875172439525340e+03 1.0000000000000000e+00 1.7054448636764807e+01 1.8106066620093578e+01 1.0123234454195205e+00 
613 614 2 1.0280000005030725e+00 -6.3014346033277961e+03 1.0000000000000000e+00 1.4681708793121322e+01 1.9169643500635548e+01 1.1400520031342125e+00 
1143 1144 2 1.0279999968695837e+00 -5.3181508317860207e+03 1.0000000000000000e+00 1.6217321297551472e+01 1.9131197646943466e+01 1.5486910597015180e+00 
1212 1213 2 1.0279999989829218e+00 6.9992388672778816e+03 1.0000000000000000e+00 1.6978572432769827e+01 1.8260750131030992e+01 1.8703854339810249e+00 
589 590 2 1.0280000005412140e+00 2.1682940644438140e+03 1.0000000000000000e+00 1.8678685609487449e+01 1.7275225291730010e+01 7.2183314976172641e-01 
966 967 2 1.0279999997996205e+00 -6.9248188130990275e+03 1.0000000000000000e+00 1.8796260157193434e+01 1.7172989407099404e+01 9.7517797607281298e-01 
177 178 2 1.0279999907681372e+00 8.8601987080831022e+03 1.0000000000000000e+00 1.6314220883855860e+01 2.6069959425815692e+00 5.4193132763321543e+00 
967 968 2 1.0279999918282801e+00 -4.4065320491322482e+03 1.0000000000000000e+00 1.5976005136410322e+01 2.5729769428773874e+00 5.5545318630850113e+00 
1167 1168 2 1.0280000065238823e+00 -7.5762148961912426e+03 1.0000000000000000e+00 1.9071476489829500e+01 2.0577807604441256e+00 3.1425015842064359e+00 
1 2 2 1.0279999997704627e+00 2.8129101895799818e+03 1.0000000000000000e+00 1.9562554866945469e+01 1.3070282758538116e+00 4.7990798190239676e+00 
662 663 2 1.0279999987714257e+00 -1.6715915672176338e+03 1.0000000000000000e+00 1.9019601575816676e+01 1.3394014022761165e+00 4.9832145348280896e+00 
1062 1063 2 1.0279999784295908e+00 -4.8240249176877887e+03 1.0000000000000000e+00 1.7261142596280376e+01 2.5726712811147769e+00 5.0000982046727138e+00 
1446 1447 2 1.0279999946902172e+00 1.5651372034867323e+04 1.0000000000000000e+00 1.7775670814954651e+01 2.4640619778771331e+00 5.0904004327286190e+00 
231 232 2 1.0279999937773239e+00 -9.3809399635643567e+03 1.0000000000000000e+00 1.9164641203207346e+01 1.4112587802254306e+00 5.1192251688489341e+00 
449 450 2 1.0279999945716225e+00 1.6668289544154377e+03 1.0000000000000000e+00 1.8717418047862406e+01 1.5929102568830047e+00 5.2128693165231095e+00 
693 694 2 1.0280000025828411e+00 -1.1643172730811091e+03 1.0000000000000000e+00 1.5506065718980285e+01 5.5127874073802570e+00 3.4990438985616885e+00 
1150 1151 2 1.0280000042665878e+00 1.3113968720336830e+04 1.0000000000000000e+00 1.5425555212660976e+01 4.6508015686507367e+00 4.0212192531229709e+00 
1009 1010 2 1.0280000042992798e+00 -7.8234021549492372e+03 1.0000000000000000e+00 1.5424463880484010e+01 4.6440837352851334e+00 4.0251162529823183e+00 
660 661 2 1.0280000045301509e+00 3.0113781772621660e+03 1.0000000000000000e+00 1.5416190677526188e+01 4.5979544455896804e+00 4.0521932155393730e+00 
767 768 2 1.0280000067836244e+00 6.4112596127336963e+02 1.0000000000000000e+00 1.5254196105142579e+01 2.9007042100130338e+00 5.0562160537154286e+00 
474 475 2 1.0280000040896526e+00 -2.3711305784975816e+03 1.0000000000000000e+00 1.8004472510939255e+01 3.4909869320492639e+00 3.2317025275401514e+00 
112 113 2 1.0279999873535155e+00 -8.4599432321459590e+03 1.0000000000000000e+00 1.7199265837695993e+01 5.4129237668382775e+00 3.2405995351717927e+00 
687 688 2 1.0279999995168976e+00 4.7349836827352294e+02 1.0000000000000000e+00 1.9441001919204410e+01 4.1935259039662478e+00 3.3705831345716288e+00 
859 860 2 1.0280000053086980e+00 -4.9509288306753824e+03 1.0000000000000000e+00 1.7809373932990905e+01 4.0394539386774895e+00 3.4601396544110949e+00 
690 691 2 1.0279999954012189e+00 -5.7814405685820348e+03 1.0000000000000000e+00 1.6125934421343239e+01 7.1855210066735928e+00 3.0541416778783312e+00 
634 635 2 1.0279999965432882e+00 5.7953125309847110e+03 1.0000000000000000e+00 1.6217933922920189e+01 6.9354972964074530e+00 3.1263755349141289e+00 
1159 1160 2 1.0280000027061595e+00 -7.5045532295552960e+02 1.0000000000000000e+00 1.5009694500546065e+01 7.5309364586883332e+00 3.5042818481485374e+00 
736 737 2 1.0279999988097570e+00 -7.1849237918269337e+03 1.0000000000000000e+00 1.6243880231119832e+01 7.5578116562090081e+00 3.5324272836424297e+00 
124 125 2 1.0280000012040698e+00 -1.5413960104704454e+03 1.0000000000000000e+00 1.4914833520622846e+01 7.9164723089341908e+00 3.5855996716768552e+00 
513 514 2 1.0279999903181145e+00 8.5647029474657484e+02 1.0000000000000000e+00 4.9204106588551388e-01 1.0359611696925006e+01 2.8028551305403360e+00 
1185 1186 2 1.0279999781388156e+00 -5.6296049020604942e+03 1.0000000000000000e+00 3.9771855705840575e-01 1.0334483884358701e+01 2.8376416358706469e+00 
766 767 2 1.0279999715220163e+00 4.2539423023815039e+02 1.0000000000000000e+00 3.4699960670611696e-01 1.0321365911689330e+01 2.8531250678487137e+00 
215 216 2 1.0280000210437965e+00 3.3095497791107942e+02 1.0000000000000000e+00 1.7100072155542518e+00 9.5548129901460772e+00 4.9686683808187606e+00 
876 877 2 1.0279999822882051e+00 4.2217345844352712e+02 1.0000000000000000e+00 1.6903035882756734e+00 9.9384451781605048e+00 5.0946168047755727e+00 
619 620 2 1.0279999852832413e+00 -1.2938945988510056e+03 1.0000000000000000e+00 1.7384715605972088e+00 9.6885640052772697e+00 5.3697097837515750e+00 
997 998 2 1.0280000065296349e+00 -6.0708321657737251e+03 1.0000000000000000e+00 1.5957061942756010e+00 9.2626937709536552e+00 5.5019878365548642e+00 
788 789 2 1.0280000032327072e+00 -3.9588386554317271e+03 1.0000000000000000e+00 1.1354099825286363e+01 1.1230537309688156e+01 3.3117232510618955e+00 
206 207 2 1.0280000027350589e+00 -3.0955881385831844e+03 1.0000000000000000e+00 1.1294871120804473e+01 1.1333051719606997e+01 3.2631388456136645e+00 
1267 1268 2 1.0280000043287738e+00 2.2085439951792296e+03 1.0000000000000000e+00 1.1626546269230632e+01 1.0972035496887823e+01 3.4358345352123134e+00 
960 961 2 1.0279999923975274e+00 -4.3665715395956058e+03 1.0000000000000000e+00 1.3158637865822634e+01 1.1112321278082785e+01 3.5239893321152889e+00 
769 770 2 1.0279999978500516e+00 -1.3378104723457470e+03 1.0000000000000000e+00 1.4729331183890430e+01 1.0344923969144773e+01 2.8039051437008795e+00 
1242 1243 2 1.0279999978677916e+00 7.1764869327465494e+03 1.0000000000000000e+00 1.4723292908665615e+01 8.7436182470292714e+00 3.4506585599358437e+00 
1223 1224 2 1.0279999997632983e+00 -1.3413933922584660e+04 1.0000000000000000e+00 1.5443563742292332e+01 9.2533093414318941e+00 3.4904997140373681e+00 
533 534 2 1.0280000003196921e+00 -1.3368147830058428e+04 1.0000000000000000e+00 1.9880813778935170e+01 1.1272748572857319e+01 2.8879637390982897e+00 
572 573 2 1.0280000383568721e+00 5.5727269132591999e+01 1.0000000000000000e+00 3.9836907473140470e-01 1.2571760540715641e+01 3.6212973879105239e+00 
438 439 2 1.0280000314928777e+00 3.5029347822311797e+02 1.0000000000000000e+00 4.3006229471636387e-01 1.2588773746811249e+01 3.6292161888371490e+00 
1184 1185 2 1.0280000319602731e+00 -1.6041270144628093e+04 1.0000000000000000e+00 4.2818932652527797e-01 1.2587630089625035e+01 3.6286003538584697e+00 
1177 1178 2 1.0279999693719399e+00 -5.8686354453735803e+03 1.0000000000000000e+00 7.3540780806161454e-01 1.2917768755112141e+01 3.8915039873540418e+00 
364 365 2 1.0279999898708134e+00 -7.3436635674014487e+03 1.0000000000000000e+00 4.7539352082366673e+00 1.3927524921829527e+01 4.8792452132681250e+00 
973 974 2 1.0280000041684236e+00 -1.2283988560390033e+04 1.0000000000000000e+00 5.2064145781278111e+00 1.2982036061139816e+01 4.9891291419235477e+00 
89 90 2 1.0280000041337569e+00 -1.0404423163616520e+04 1.0000000000000000e+00 5.2727816071104989e+00 1.3045408717686025e+01 5.0960905841167952e+00 
357 358 2 1.0280000040079529e+00 -5.6559156692616125e+03 1.0000000000000000e+00 5.2834448829857736e+00 1.3066831632315477e+01 5.1182992700769763e+00 
828 829 2 1.0280000020105764e+00 -1.5941038888545470e+03 1.0000000000000000e+00 5.2946463679273226e+00 1.3270356032791293e+01 5.1512033272579876e+00 
1127 1128 2 1.0280000012461208e+00 1.3481612902127106e+04 1.0000000000000000e+00 1.1277522350373747e+01 1.1985942013364367e+01 2.9547098971325072e+00 
1332 1333 2 1.0280000018004951e+00 1.1507823410608526e+04 1.0000000000000000e+00 1.1223647339600442e+01 1.1588280426784280e+01 3.1454320765673063e+00 
671 672 2 1.0280000095653323e+00 -2.9299120882468524e+03 1.0000000000000000e+00 1.2303430197952499e+01 1.3845832544490731e+01 2.9080244062554197e+00 
390 391 2 1.0279999991712712e+00 1.3978708080617675e+04 1.0000000000000000e+00 1.3496151044124629e+01 1.2860827515986731e+01 4.4994880757760045e+00 
240 241 2 1.0280000025158615e+00 1.5787566174382348e+04 1.0000000000000000e+00 1.3282018047122099e+01 1.3118879610198817e+01 5.4891216856945988e+00 
337 338 2 1.0280000040610939e+00 -1.8200773279969057e+04 1.0000000000000000e+00 1.3581124879053061e+01 1.3213890322113398e+01 5.5544810292353484e+00 
926 927 2 1.0279999953682393e+00 -1.0086514392654415e+04 1.0000000000000000e+00 1.7860089177398557e+01 1.3813611822206447e+01 4.3675419418363362e+00 
1222 1223 2 1.0279999952173151e+00 -1.2871814610872825e+04 1.0000000000000000e+00 1.7957103189213715e+01 1.3816074919868209e+01 4.3935688675533742e+00 
909 910 2 1.0279999953287213e+00 -5.2934916769109395e+02 1.0000000000000000e+00 1.8247673737022161e+01 1.3884751460770758e+01 4.4980133862138558e+00 
1489 1490 2 1.0279999848709549e+00 -2.7766184345667784e+03 1.0000000000000000e+00 1.7590593510416939e+00 1.6240127620480290e+01 3.7229927299615362e+00 
1476 1477 2 1.0279999923529957e+00 -1.7168333933285786e+02 1.0000000000000000e+00 2.3609904357460173e-03 1.7066723994759233e+01 3.8969721764141321e+00 
998 999 2 1.0279999974521086e+00 4.3875280545110882e+03 1.0000000000000000e+00 2.1325801722260058e+00 1.5483854243658874e+01 4.7220505337420740e+00 
1012 1013 2 1.0279999978797543e+00 1.3066879396163768e+03 1.0000000000000000e+00 2.1437270217732252e+00 1.5479070487194248e+01 4.7276097061541140e+00 
892 893 2 1.0279999946399965e+00 -6.3571621099294089e+03 1.0000000000000000e+00 2.1823127885667275e+00 1.5390575423696342e+01 4.7367881328405792e+00 
588 589 2 1.0280000004794771e+00 -8.4077451004228969e+03 1.0000000000000000e+00 4.3228747982347615e+00 1.7041367556046865e+01 2.8990030709635137e+00 
150 151 2 1.0280000061883459e+00 4.3009021989148158e+02 1.0000000000000000e+00 3.3013227208763367e+00 1.5308318915952924e+01 3.4758345471353733e+00 
1324 1325 2 1.0280000061681016e+00 1.4620750856264438e+04 1.0000000000000000e+00 3.3182887666144576e+00 1.5272673227885209e+01 3.5191307634870173e+00 
1286 1287 2 1.0279999937586239e+00 2.7317970306141792e+03 1.0000000000000000e+00 3.9157597127733275e+00 1.5340582475653026e+01 4.3437908593631747e+00 
1072 1073 2 1.0280000006422312e+00 6.6499827957212092e+03 1.0000000000000000e+00 1.1428073347781359e+01 1.6112260105422429e+01 2.9500572511943028e+00 
800 801 2 1.0280000009705836e+00 -3.8145431088452287e+03 1.0000000000000000e+00 1.1536003524921847e+01 1.5888437212288686e+01 2.9499043612706433e+00 
881 882 2 1.0280000000926084e+00 -2.4928748467286523e+03 1.0000000000000000e+00 1.4144208719880282e+01 1.5493847476796089e+01 3.2071156545791402e+00 
530 531 2 1.0280000002655083e+00 -3.0307556619696516e+03 1.0000000000000000e+00 1.4101703026712467e+01 1.5479934297725041e+01 3.2278828873157890e+00 
263 264 2 1.0280000015899329e+00 6.8482744693033274e+03 1.0000000000000000e+00 1.3293068081114605e+01 1.6463593401189573e+01 4.6181753150049731e+00 
1372 1373 2 1.0280000034584509e+00 2.4283128297381436e+03 1.0000000000000000e+00 1.7137697936188207e+01 1.6185205167322881e+01 3.4419725068473119e+00 
468 469 2 1.0280000437281267e+00 1.3224375387355929e+04 1.0000000000000000e+00 1.6836141803167433e+01 1.5788047867520580e+01 3.6325285249656498e+00 
723 724 2 1.0279999642374622e+00 -3.4421281918972832e+03 1.0000000000000000e+00 1.6383914954381467e+01 1.6688568366662828e+01 3.9014442654262056e+00 
924 925 2 1.0280000036000763e+00 1.1373729439594576e+04 1.0000000000000000e+00 1.5021803193169763e+01 1.6731794453747817e+01 4.7612734879935328e+00 
1124 1125 2 1.0280000002501257e+00 -1.3615743570088958e+04 1.0000000000000000e+00 1.4950279289756903e+01 1.6940649470352298e+01 4.9601993488199545e+00 
661 662 2 1.0279999995645683e+00 1.8720087515681873e+03 1.0000000000000000e+00 1.4926341652918437e+01 1.6996554569113748e+01 5.0107971231408630e+00 
160 161 2 1.0280000083967948e+00 -1.0509373838251609e+03 1.0000000000000000e+00 1.6796317053288490e+01 1.4398172230353282e+01 5.4682110331474139e+00 
55 56 2 1.0279999917624425e+00 1.2282494452357358e+04 1.0000000000000000e+00 1.9024844305800382e+01 1.6640087977648882e+01 3.1856171053948685e+00 
1406 1407 2 1.0279999887309554e+00 5.8988064483785183e+03 1.0000000000000000e+00 1.9342033618683914e+01 1.6482553794086584e+01 3.6760724912061380e+00 
601 602 2 1.0280000059543617e+00 2.9625275597712266e+02 1.0000000000000000e+00 1.9600617858453944e+01 1.6036733308715064e+01 3.9490922100013299e+00 
1067 1068 2 1.0279999968241347e+00 -2.1133839626661165e+03 1.0000000000000000e+00 1.9467009310029287e+01 1.5545542268143954e+01 4.1016483791528167e+00 
1271 1272 2 1.0279999859605351e+00 1.0958889056425819e+03 1.0000000000000000e+00 1.8867695742839743e+01 1.4801432319477838e+01 4.7546299349866681e+00 
391 392 2 1.0280000005402057e+00 1.5486683809695827e+04 1.0000000000000000e+00 2.7032663321573942e+00 1.7744184390743854e+01 2.9555395982069030e+00 
748 749 2 1.0279999996109939e+00 -9.2080134406420457e+03 1.0000000000000000e+00 4.3357384670558680e-01 1.8008259647574004e+01 2.9941123198098603e+00 
227 228 2 1.0280000004196796e+00 -7.9053602081794261e+03 1.0000000000000000e+00 7.6199007575908462e-01 1.8267993677487798e+01 3.5730677133976814e+00 
990 991 2 1.0280000013315884e+00 2.7566064070428422e+02 1.0000000000000000e+00 2.6301161676523206e+00 1.8272964880294623e+01 3.6399931432653179e+00 
705 706 2 1.0279999988184709e+00 -5.6505221554179343e+03 1.0000000000000000e+00 4.7943466247480551e+00 1.7437801090242186e+01 3.9295029559136712e+00 
1226 1227 2 1.0280000011518395e+00 1.0428893150085725e+04 1.0000000000000000e+00 2.8747505245671530e+00 1.8323810859570692e+01 4.0376351819979215e+00 
1482 1483 2 1.0279999987465742e+00 2.6152427506571939e+03 1.0000000000000000e+00 4.7316024960691516e+00 1.7389774323431052e+01 4.1477374497522295e+00 
1045 1046 2 1.0279999992274165e+00 2.8265262036691829e+03 1.0000000000000000e+00 4.2254099699046286e+00 1.8074773814417011e+01 4.4120269827470517e+00 
403 404 2 1.0279999998293476e+00 -5.0570789100043894e+03 1.0000000000000000e+00 3.7736409159847213e+00 1.8238484376446984e+01 4.4417421402592963e+00 
98 99 2 1.0280000005534751e+00 1.1006026864940748e+04 1.0000000000000000e+00 1.1337636433753248e+01 1.7161701818646694e+01 2.8666266848818309e+00 
1178 1179 2 1.0280000008686765e+00 6.0962147470829332e+03 1.0000000000000000e+00 1.1790656705868050e+01 1.7736804658633186e+01 2.8213400739302954e+00 
688 689 2 1.0279999994918483e+00 -9.9855107946857897e+03 1.0000000000000000e+00 1.2201495930285748e+01 1.7540510030356653e+01 4.5695277215854464e+00 
1206 1207 2 1.0280000002233467e+00 -5.8620542744740724e+03 1.0000000000000000e+00 1.2548829899073565e+01 1.7810754301198813e+01 4.9968409824164048e+00 
777 778 2 1.0280000003367735e+00 -7.6589376339859155e+03 1.0000000000000000e+00 1.2573438343933670e+01 1.7651142799971616e+01 5.0162526397573304e+00 
901 902 2 1.0280000020686779e+00 2.2770175755300493e+03 1.0000000000000000e+00 1.3231846742828408e+01 1.8828873706874759e+01 5.1375619809941941e+00 
485 486 2 1.0280000040617066e+00 6.9042406848835969e+02 1.0000000000000000e+00 1.4017051927679768e+01 1.8712840597403911e+01 5.1714756238733983e+00 
942 943 2 1.0280000100548192e+00 1.0823663057314141e+04 1.0000000000000000e+00 1.6845636771135798e+01 1.8882133623366247e+01 3.9821284555757104e+00 
1513 1514 2 1.0280000103318143e+00 7.3436916155805802e+03 1.0000000000000000e+00 1.6860550861577853e+01 1.8867767956844059e+01 3.9985641191596377e+00 
1365 1366 2 1.0280000122634285e+00 -1.0101236278043615e+03 1.0000000000000000e+00 1.6955899210513795e+01 1.8779964427691159e+01 4.0964466338328851e+00 
694 695 2 1.0280000003331258e+00 -1.3135731446289021e+04 1.0000000000000000e+00 1.4727021473651757e+01 1.8990488086696612e+01 4.4700516962795938e+00 
825 826 2 1.0279999972928178e+00 1.0899002160179660e+02 1.0000000000000000e+00 1.7468890375121365e+01 1.8206978011907829e+01 2.9377503980654422e+00 
385 386 2 1.0280000131436151e+00 -1.1996706604442132e+04 1.0000000000000000e+00 1.8218991158328514e+01 1.8521070153950930e+01 5.2931213537663817e+00 
24 25 2 1.0279999935647783e+00 9.4182675720607785e+03 1.0000000000000000e+00 1.9034258253668572e+01 1.8506580716358823e+01 5.4330558749278373e+00 
1239 1240 2 1.0279999934908626e+00 -4.8219072366167502e+03 1.0000000000000000e+00 1.9039137095981221e+01 1.8505684102524825e+01 5.4376894814931784e+00 
1027 1028 2 1.0280000101309932e+00 2.8721245728101499e+03 1.0000000000000000e+00 7.9859757534189280e+00 1.9287535547749375e+00 7.1509094715256571e+00 
404 405 2 1.0279999878865416e+00 -6.1572102123608647e+03 1.0000000000000000e+00 8.5384206669913727e+00 1.6344176223852964e+00 7.4144134517061184e+00 
927 928 2 1.0279999964814763e+00 -1.2285742996042018e+04 1.0000000000000000e+00 6.9504046918723930e+00 7.0643548642864284e-01 7.4677142713815021e+00 
868 869 2 1.0279999964477569e+00 9.0130202663259547e+02 1.0000000000000000e+00 6.9512986939704957e+00 7.0497595472832142e-01 7.4696732675221638e+00 
1040 1041 2 1.0279999964473721e+00 -1.1199920213906968e+04 1.0000000000000000e+00 6.9512276902983201e+00 7.0499912723728997e-01 7.4697124255571108e+00 
1248 1249 2 1.0279999959418396e+00 5.2543212619635233e+03 1.0000000000000000e+00 6.8434795779248221e+00 7.5347116790896673e-01 7.5385536847045280e+00 
137 138 2 1.0280000108347498e+00 -2.9747052243133699e+03 1.0000000000000000e+00 7.2098183107543461e+00 2.0245744207833694e+00 7.5515264814908587e+00 
1487 1488 2 1.0280000077777505e+00 3.3495949372461396e+03 1.0000000000000000e+00 1.0708516053445976e+01 1.7328423655811696e+00 6.8675515944375505e+00 
743 744 2 1.0280000085661227e+00 -7.1168047228143032e+03 1.0000000000000000e+00 1.0721459843467594e+01 1.7377741593218232e+00 6.8706770136225170e+00 
1025 1026 2 1.0280000086318297e+00 3.9315399541904685e+02 1.0000000000000000e+00 1.0722535550950948e+01 1.7381986743276510e+00 6.8709353319186643e+00 
1342 1343 2 1.0280000086503438e+00 8.4528500633102431e+03 1.0000000000000000e+00 1.0722838571043772e+01 1.7383189694246606e+00 6.8710076909457376e+00 
1180 1181 2 1.0279999935697286e+00 -4.7121002348070679e+03 1.0000000000000000e+00 1.0469799360721144e+01 1.6224335588193692e+00 6.9211154761706286e+00 
912 913 2 1.0279999939027207e+00 1.2089223609793323e+03 1.0000000000000000e+00 1.3848060076667849e+01 2.6998592090591620e+00 7.5442163465923571e+00 
678 679 2 1.0279999964149547e+00 -5.5625952130540454e+03 1.0000000000000000e+00 1.3201454147265405e+01 2.6580822400738406e+00 8.0007431906575750e+00 
1098 1099 2 1.0279999931542951e+00 4.3914121229628099e+03 1.0000000000000000e+00 1.5362469446164381e+01 2.6093474162925565e+00 5.7893654721010748e+00 