LAMMPS data file via write_data, version 30 Jul 2016, timestep = 100000000

638 atoms
8 atom types

0.0000000000000000e+00 2.0000000000000000e+01 xlo xhi
0.0000000000000000e+00 2.0000000000000000e+01 ylo yhi
0.0000000000000000e+00 2.0000000000000000e+01 zlo zhi

Masses

1 3.896
2 5.36
3 20.064
4 8.378
5 8.378
6 8.378
7 8.378
8 8.378

Atoms # meso-molecular

1 2 4 2.2938640322379165e+00 -8.3946305672014532e+00 1.0000000000000000e+00 0.0000000000000000e+00 0.0000000000000000e+00 5.0000000000000000e-01 
2 2 4 2.3317557049441873e+00 -5.9498254935172348e+00 1.0000000000000000e+00 0.0000000000000000e+00 1.6000000000000001e+00 5.0000000000000000e-01 
3 2 4 2.3317557049441877e+00 -7.5375737214087595e+00 1.0000000000000000e+00 0.0000000000000000e+00 3.2000000000000002e+00 5.0000000000000000e-01 
14 2 4 2.2938640322379165e+00 -2.0501902014314754e+02 1.0000000000000000e+00 2.0000000000000000e+00 0.0000000000000000e+00 5.0000000000000000e-01 
15 2 4 2.3317557049441873e+00 -3.2325398860825970e+02 1.0000000000000000e+00 2.0000000000000000e+00 1.6000000000000001e+00 5.0000000000000000e-01 
16 2 4 2.3317557049441877e+00 -3.2448088552530646e+02 1.0000000000000000e+00 2.0000000000000000e+00 3.2000000000000002e+00 5.0000000000000000e-01 
27 2 4 2.2938640322379165e+00 -4.9559722419371110e+02 1.0000000000000000e+00 4.0000000000000000e+00 0.0000000000000000e+00 5.0000000000000000e-01 
28 2 4 2.3317557049441873e+00 -9.9596279513139439e+02 1.0000000000000000e+00 4.0000000000000000e+00 1.6000000000000001e+00 5.0000000000000000e-01 
29 2 4 2.3317557049441877e+00 -1.0629183220321115e+03 1.0000000000000000e+00 4.0000000000000000e+00 3.2000000000000002e+00 5.0000000000000000e-01 
40 2 4 2.2938640322379165e+00 -5.1598302548083188e+02 1.0000000000000000e+00 6.0000000000000000e+00 0.0000000000000000e+00 5.0000000000000000e-01 
41 2 4 2.3317557049441873e+00 -1.1342307478106063e+03 1.0000000000000000e+00 6.0000000000000000e+00 1.6000000000000001e+00 5.0000000000000000e-01 
42 2 4 2.3317557049441877e+00 -1.2096870510652950e+03 1.0000000000000000e+00 6.0000000000000000e+00 3.2000000000000002e+00 5.0000000000000000e-01 
4 2 4 2.3317557049441877e+00 -8.1831118172784940e+00 1.0000000000000000e+00 0.0000000000000000e+00 4.7999999999999998e+00 5.0000000000000000e-01 
5 2 4 2.3317557049441877e+00 -5.3721489683450923e+00 1.0000000000000000e+00 0.0000000000000000e+00 6.4000000000000004e+00 5.0000000000000000e-01 
17 2 4 2.3317557049441877e+00 -3.3820209183972662e+02 1.0000000000000000e+00 2.0000000000000000e+00 4.7999999999999998e+00 5.0000000000000000e-01 
18 2 4 2.3317557049441877e+00 -3.2170054554764295e+02 1.0000000000000000e+00 2.0000000000000000e+00 6.4000000000000004e+00 5.0000000000000000e-01 
30 2 4 2.3317557049441882e+00 -1.0752260823521563e+03 1.0000000000000000e+00 4.0000000000000000e+00 4.7999999999999998e+00 5.0000000000000000e-01 
31 2 4 2.3317557049441877e+00 -1.0621108249587337e+03 1.0000000000000000e+00 4.0000000000000000e+00 6.4000000000000004e+00 5.0000000000000000e-01 
43 2 4 2.3317557049441877e+00 -1.2148195978284589e+03 1.0000000000000000e+00 6.0000000000000000e+00 4.7999999999999998e+00 5.0000000000000000e-01 
44 2 4 2.3317557049441877e+00 -1.2173206215037467e+03 1.0000000000000000e+00 6.0000000000000000e+00 6.4000000000000004e+00 5.0000000000000000e-01 
6 2 4 2.3317557049441882e+00 -9.9641295239628409e+00 1.0000000000000000e+00 0.0000000000000000e+00 8.0000000000000000e+00 5.0000000000000000e-01 
7 2 4 2.3317557049441882e+00 -3.4252293110347840e+00 1.0000000000000000e+00 0.0000000000000000e+00 9.5999999999999996e+00 5.0000000000000000e-01 
19 2 4 2.3317557049441882e+00 -3.4226870274599611e+02 1.0000000000000000e+00 2.0000000000000000e+00 8.0000000000000000e+00 5.0000000000000000e-01 
20 2 4 2.3317557049442987e+00 -3.2094317627091237e+02 1.0000000000000000e+00 2.0000000000000000e+00 9.5999999999999996e+00 5.0000000000000000e-01 
32 2 4 2.3317557049441882e+00 -1.0815522553360156e+03 1.0000000000000000e+00 4.0000000000000000e+00 8.0000000000000000e+00 5.0000000000000000e-01 
33 2 4 2.3317557049441882e+00 -1.0622757971429544e+03 1.0000000000000000e+00 4.0000000000000000e+00 9.5999999999999996e+00 5.0000000000000000e-01 
45 2 4 2.3317557049441882e+00 -1.2148048996284076e+03 1.0000000000000000e+00 6.0000000000000000e+00 8.0000000000000000e+00 5.0000000000000000e-01 
46 2 4 2.3317557049441882e+00 -1.2236752892427066e+03 1.0000000000000000e+00 6.0000000000000000e+00 9.5999999999999996e+00 5.0000000000000000e-01 
526 2 1 1.0279702902090209e+00 -2.5925210100509798e+01 1.0000000000000000e+00 6.1008524576886689e+00 3.4068465347155468e+00 4.5065222828041920e+00 
266 2 1 1.0281771911721569e+00 -1.3519091208371611e+02 1.0000000000000000e+00 6.0686197751027109e+00 3.4480678739242094e+00 4.5101106619262490e+00 
348 2 1 1.0280566109522611e+00 -4.0879512632985318e+01 1.0000000000000000e+00 4.8564332101616952e+00 5.4947015265926940e+00 4.3769165159770393e+00 
654 2 1 1.0277640710707139e+00 -3.6711787649465506e+01 1.0000000000000000e+00 4.8646549358048796e+00 5.5023249826445069e+00 4.3412768525018040e+00 
482 2 1 1.0280933100421861e+00 -2.6195247378025869e+01 1.0000000000000000e+00 4.8503197175257498e+00 5.5182701983103923e+00 4.3504582750506300e+00 
589 2 1 1.0279440864418103e+00 -3.5280112760834264e+01 1.0000000000000000e+00 4.1616856029154228e+00 6.1296607177770275e+00 4.5633061523880416e+00 
622 2 1 1.0279474561759241e+00 -4.3018886891070622e+01 1.0000000000000000e+00 5.7750079577327869e+00 3.8980051396595918e+00 4.4329816954600254e+00 
560 2 1 1.0275583724426054e+00 -2.8013508138882976e+01 1.0000000000000000e+00 5.9731695211755955e+00 3.5938870645427610e+00 4.4847693658408465e+00 
680 2 1 1.0280140514148484e+00 -2.8605245383519755e+01 1.0000000000000000e+00 4.6237012604570449e+00 5.7466147235228950e+00 4.4565376507171015e+00 
309 2 1 1.0279228008783852e+00 -4.0865304541016386e+01 1.0000000000000000e+00 6.0855558269494123e+00 3.4018809283511682e+00 4.5322012294354348e+00 
152 2 1 1.0279708686771405e+00 -1.2302241948876160e+03 1.0000000000000000e+00 2.6796657030772737e+00 7.4418724397056533e+00 4.4171363740558087e+00 
608 2 1 1.0278321069874607e+00 -3.5717249303493396e+01 1.0000000000000000e+00 1.1523631491511157e+00 9.3084891565174530e+00 4.5428395962044146e+00 
471 2 1 1.0281476027864649e+00 -1.7904768123389236e+01 1.0000000000000000e+00 2.9088112740182819e+00 7.3052306285276360e+00 4.3712846675443569e+00 
689 2 1 1.0279859189750982e+00 -3.9347651451412922e+01 1.0000000000000000e+00 1.7767665698817947e+00 8.0043365806589755e+00 4.6937255771220379e+00 
155 2 1 1.0281138673559889e+00 -1.3004249957028655e+03 1.0000000000000000e+00 2.9015242684728251e+00 7.3180407734588879e+00 4.3635986357843368e+00 
718 2 1 1.0280821849277721e+00 -2.9719476048216812e+01 1.0000000000000000e+00 1.2252946475910471e+00 9.5942360817283152e+00 4.4430130289631284e+00 
729 2 1 1.0280778808279361e+00 -2.9959586871894881e+01 1.0000000000000000e+00 1.2346847773673524e+00 9.7543729585595944e+00 4.5059478358098062e+00 
247 2 1 1.0279886240327709e+00 -1.3305465627044069e+02 1.0000000000000000e+00 2.0441948441215261e+00 9.0728612165518676e+00 5.6869095065332971e+00 
333 2 1 1.0280284168621996e+00 -4.6835002516188609e+01 1.0000000000000000e+00 2.0995988727775137e+00 9.1510166073853938e+00 5.7002879413256560e+00 
286 2 1 1.0280701506576406e+00 -1.2317331767779575e+02 1.0000000000000000e+00 2.0134382600496608e+00 9.1940625985300315e+00 5.6835773547922726e+00 
591 2 1 1.0279885011176555e+00 -3.7624348757907349e+01 1.0000000000000000e+00 2.8707259823669675e+00 7.3518296292184901e+00 4.3534146008492440e+00 
503 2 1 1.0280016851897189e+00 -1.4033167538166497e+01 1.0000000000000000e+00 1.2946499859106757e+00 9.8424928742095190e+00 4.4515405080495736e+00 
769 2 1 1.0281614586609993e+00 -4.7915070566480566e+01 1.0000000000000000e+00 1.3414802240450394e+00 9.9194437342355410e+00 4.4305286302913611e+00 
401 2 1 1.0277286664157317e+00 -1.2925192374971649e+01 1.0000000000000000e+00 3.8954543583755670e+00 8.7333177684648291e+00 4.4578044063088962e+00 
260 2 1 1.0280231043364996e+00 -1.4039922839116011e+02 1.0000000000000000e+00 3.4300881906310692e+00 6.7132102484121843e+00 4.4538530512249670e+00 
324 2 1 1.0278345923191532e+00 -3.0661126539844386e+01 1.0000000000000000e+00 5.9019192590021570e+00 7.3224025295457214e+00 4.5083682642240870e+00 
742 2 1 1.0281361987026432e+00 -1.8987969034401640e+01 1.0000000000000000e+00 5.9672684008463497e+00 7.6689108579863143e+00 5.0013590503629954e+00 
745 2 1 1.0279379714932808e+00 -2.2667132020308763e+01 1.0000000000000000e+00 4.8585197718870363e+00 8.6585292083687460e+00 5.1448272137652262e+00 
739 2 1 1.0280227259192805e+00 -5.8986967000471807e+01 1.0000000000000000e+00 5.9884423503439486e+00 7.5922260418221015e+00 4.6230912381303471e+00 
495 2 1 1.0280292094931118e+00 -4.3357989762214487e+01 1.0000000000000000e+00 4.6258962764447036e+00 9.7322215009466522e+00 4.7030508797732535e+00 
376 2 1 1.0278244914012382e+00 -7.0296213488621504e+01 1.0000000000000000e+00 5.8944425794459399e+00 4.8713031445480599e+00 7.9154084738114454e+00 
746 2 1 1.0281914752173476e+00 -3.0330846555724577e+01 1.0000000000000000e+00 5.8173932532062169e+00 4.8539399522372131e+00 7.7827715172465242e+00 
417 2 1 1.0279344818677052e+00 -3.1615397237851866e+01 1.0000000000000000e+00 6.0178894242292023e+00 4.7920833676018280e+00 7.8411565639872816e+00 
156 2 1 1.0278616279115727e+00 -1.2958171899111942e+03 1.0000000000000000e+00 5.8390569573564468e+00 4.8651559758725371e+00 7.8573756051879995e+00 
250 2 1 1.0280616115376531e+00 -1.2093728539539782e+02 1.0000000000000000e+00 5.4434454659969358e+00 5.2206741980344917e+00 8.0300959965897292e+00 
636 2 1 1.0280840484251426e+00 -1.9722234659516669e+01 1.0000000000000000e+00 5.2513788480657428e+00 5.5197769024206096e+00 8.1507131012379865e+00 
223 2 1 1.0279563222244650e+00 -1.3895193579929014e+02 1.0000000000000000e+00 5.9095377400277052e+00 4.8640736432912277e+00 7.9109426572174408e+00 
334 2 1 1.0279057506387022e+00 -5.0290893639377131e+01 1.0000000000000000e+00 5.2751866857420131e+00 9.2778074293718582e+00 7.0056639463715262e+00 
703 2 1 1.0279446752566357e+00 -5.2285754029070077e+01 1.0000000000000000e+00 4.2193873434081688e+00 7.4826257494748596e+00 7.7862327111901104e+00 
435 2 1 1.0282127339368456e+00 -2.3588970422384037e+01 1.0000000000000000e+00 4.2155927773469246e+00 7.4465832392882207e+00 7.6194712501892914e+00 
285 2 1 1.0278404058804758e+00 -1.2084168530521862e+02 1.0000000000000000e+00 4.2309085111929958e+00 7.5183339082926697e+00 7.8262025564274929e+00 
457 2 1 1.0279641291523773e+00 -6.5710828612043429e+01 1.0000000000000000e+00 5.6659968449990679e+00 9.6244471015108104e+00 6.8945046880580927e+00 
276 2 1 1.0277397590224366e+00 -1.2664124334275401e+02 1.0000000000000000e+00 4.2147265650557868e+00 7.5285509291621082e+00 7.7025283172389685e+00 
655 2 1 1.0279331338917872e+00 -3.6568847810894503e+01 1.0000000000000000e+00 5.0188493233209339e+00 7.4438986555484989e+00 8.4330235202844044e+00 
365 2 1 1.0281567104711462e+00 -2.9037682263600775e+01 1.0000000000000000e+00 4.2141583465204411e+00 7.4797660490170275e+00 7.7331612794298037e+00 
406 2 1 1.0281568657009945e+00 -1.3619689808844843e+01 1.0000000000000000e+00 4.2110333208662665e+00 7.4409018921673384e+00 7.6963556686390167e+00 
233 2 1 1.0281218403938430e+00 -1.3284278079698746e+02 1.0000000000000000e+00 6.4986228725991122e+00 8.0802336069722305e+00 8.5584768988261537e+00 
459 2 1 1.0280496041489162e+00 -6.5636914456559367e+01 1.0000000000000000e+00 6.4548095870632460e+00 9.7456194728692580e+00 1.0169160829649956e+01 
373 2 1 1.0281074399625163e+00 -4.7285202362683506e+01 1.0000000000000000e+00 6.4759116869705391e+00 9.4203950635962528e+00 1.0398628170297838e+01 
226 2 1 1.0279206856088090e+00 -1.2650702961390877e+02 1.0000000000000000e+00 6.4972608238194152e+00 9.4603401267508040e+00 1.0421172005359709e+01 
612 2 1 1.0280253769962822e+00 -4.2482100126014430e+01 1.0000000000000000e+00 6.5074257426657081e+00 9.6627153212499124e+00 1.0338761707064755e+01 
8 2 4 2.3317557049441873e+00 -1.1110887308172376e+01 1.0000000000000000e+00 0.0000000000000000e+00 1.1199999999999999e+01 5.0000000000000000e-01 
9 2 4 2.3317557049441873e+00 -2.3587953940633466e+00 1.0000000000000000e+00 0.0000000000000000e+00 1.2800000000000001e+01 5.0000000000000000e-01 
21 2 4 2.3317557049441873e+00 -3.4367809379387563e+02 1.0000000000000000e+00 2.0000000000000000e+00 1.1199999999999999e+01 5.0000000000000000e-01 
22 2 4 2.3317557049441873e+00 -3.2236022541525114e+02 1.0000000000000000e+00 2.0000000000000000e+00 1.2800000000000001e+01 5.0000000000000000e-01 
34 2 4 2.3317557049441873e+00 -1.0852457720494883e+03 1.0000000000000000e+00 4.0000000000000000e+00 1.1199999999999999e+01 5.0000000000000000e-01 
35 2 4 2.3317557049441873e+00 -1.0635215524846656e+03 1.0000000000000000e+00 4.0000000000000000e+00 1.2800000000000001e+01 5.0000000000000000e-01 
47 2 4 2.3317557049441873e+00 -1.2149240845540633e+03 1.0000000000000000e+00 6.0000000000000000e+00 1.1199999999999999e+01 5.0000000000000000e-01 
48 2 4 2.3317557049441935e+00 -1.2277037930721579e+03 1.0000000000000000e+00 6.0000000000000000e+00 1.2800000000000001e+01 5.0000000000000000e-01 
10 2 4 2.3317557049441882e+00 -1.1436422712518015e+01 1.0000000000000000e+00 0.0000000000000000e+00 1.4400000000000000e+01 5.0000000000000000e-01 
11 2 4 2.3317557049441873e+00 -2.5219052864791065e+00 1.0000000000000000e+00 0.0000000000000000e+00 1.6000000000000000e+01 5.0000000000000000e-01 
23 2 4 2.3317557049441895e+00 -3.4165796569757237e+02 1.0000000000000000e+00 2.0000000000000000e+00 1.4400000000000000e+01 5.0000000000000000e-01 
24 2 4 2.3317557049441873e+00 -3.2467989449994997e+02 1.0000000000000000e+00 2.0000000000000000e+00 1.6000000000000000e+01 5.0000000000000000e-01 
36 2 4 2.3317557049441882e+00 -1.0840166999589239e+03 1.0000000000000000e+00 4.0000000000000000e+00 1.4400000000000000e+01 5.0000000000000000e-01 
37 2 4 2.3317557049441873e+00 -1.0641666241297105e+03 1.0000000000000000e+00 4.0000000000000000e+00 1.6000000000000000e+01 5.0000000000000000e-01 
49 2 4 2.3317557049441882e+00 -1.2135346595325518e+03 1.0000000000000000e+00 6.0000000000000000e+00 1.4400000000000000e+01 5.0000000000000000e-01 
50 2 4 2.3317557049441873e+00 -1.2261691582600786e+03 1.0000000000000000e+00 6.0000000000000000e+00 1.6000000000000000e+01 5.0000000000000000e-01 
12 2 4 2.3317557049441877e+00 -1.0861000707451336e+01 1.0000000000000000e+00 0.0000000000000000e+00 1.7600000000000001e+01 5.0000000000000000e-01 
13 2 4 2.2938640322379173e+00 -3.4738263587837230e+00 1.0000000000000000e+00 0.0000000000000000e+00 1.9199999999999999e+01 5.0000000000000000e-01 
25 2 4 2.3317557049441877e+00 -3.3227883529693429e+02 1.0000000000000000e+00 2.0000000000000000e+00 1.7600000000000001e+01 5.0000000000000000e-01 
26 2 4 2.2938640322379173e+00 -1.9928932269310374e+02 1.0000000000000000e+00 2.0000000000000000e+00 1.9199999999999999e+01 5.0000000000000000e-01 
38 2 4 2.3317557049441877e+00 -1.0388757900656726e+03 1.0000000000000000e+00 4.0000000000000000e+00 1.7600000000000001e+01 5.0000000000000000e-01 
39 2 4 2.2938640322379173e+00 -5.9296958470103300e+02 1.0000000000000000e+00 4.0000000000000000e+00 1.9199999999999999e+01 5.0000000000000000e-01 
51 2 4 2.3317557049441877e+00 -1.1674268045030224e+03 1.0000000000000000e+00 6.0000000000000000e+00 1.7600000000000001e+01 5.0000000000000000e-01 
52 2 4 2.2938640322379173e+00 -6.7894724011537994e+02 1.0000000000000000e+00 6.0000000000000000e+00 1.9199999999999999e+01 5.0000000000000000e-01 
523 2 1 1.0280839027915136e+00 -4.6973410763239663e+01 1.0000000000000000e+00 1.8432663516399632e+00 1.3126101763588283e+01 4.4875308786244403e+00 
613 2 1 1.0279863830913771e+00 -4.1993039024011331e+01 1.0000000000000000e+00 1.8589241074636034e+00 1.3255423976676122e+01 4.4801420893815695e+00 
771 2 1 1.0280946263946145e+00 -5.1603795926484779e+01 1.0000000000000000e+00 2.2612134144696405e+00 1.1919641572657863e+01 4.5915537194384619e+00 
146 2 1 1.0282303301947258e+00 -1.2646120645725462e+03 1.0000000000000000e+00 1.8732744150691891e+00 1.2790429010516240e+01 4.5219981488864365e+00 
279 2 1 1.0280148047725799e+00 -1.4593133017719276e+02 1.0000000000000000e+00 2.3720931197927442e+00 1.1783277277983515e+01 4.4945493051708123e+00 
423 2 1 1.0277080779170136e+00 -1.1812173003255870e+01 1.0000000000000000e+00 3.1144197015797026e+00 1.1050046124132914e+01 4.4462402512512398e+00 
677 2 1 1.0280161845548650e+00 -4.0275854973157017e+01 1.0000000000000000e+00 5.0221704195474022e+00 1.2604046066059533e+01 4.4961745717820785e+00 
605 2 1 1.0279612867871375e+00 -5.2280898122155840e+01 1.0000000000000000e+00 4.9924710042364220e+00 1.2137722818855254e+01 4.4024816783681855e+00 
547 2 1 1.0279187323850565e+00 -4.2024917239561262e+01 1.0000000000000000e+00 4.8995800920311305e+00 1.2521422214528330e+01 4.4496880411185877e+00 
712 2 1 1.0280157772788237e+00 -4.1807043842350311e+01 1.0000000000000000e+00 5.4253300809789753e+00 1.2822994532188211e+01 4.5012081599879394e+00 
727 2 1 1.0281536264825517e+00 -2.8456415364388061e+01 1.0000000000000000e+00 4.2410722866812964e+00 1.1088825246054050e+01 4.5138664155564410e+00 
594 2 1 1.0282214091960344e+00 -3.2398839226647681e+01 1.0000000000000000e+00 5.0505953769478191e+00 1.0197203161749590e+01 4.4228454615077997e+00 
237 2 1 1.0280477359306552e+00 -1.2876750053476206e+02 1.0000000000000000e+00 6.5832069370026538e+00 1.3328041787749914e+01 4.4580600343539309e+00 
660 2 1 1.0278534140070790e+00 -1.0204042837168750e+01 1.0000000000000000e+00 4.6272829958619717e+00 1.0486289174729286e+01 4.5010768522903417e+00 
653 2 1 1.0280253880873744e+00 -2.1674542933043064e+01 1.0000000000000000e+00 3.7034590060289703e+00 1.0181560908442655e+01 5.4676423115101596e+00 
515 2 1 1.0280971522497901e+00 -2.2641887496457780e+01 1.0000000000000000e+00 1.8785752038300665e+00 1.3335564270948002e+01 4.4647700383087221e+00 
674 2 1 1.0280201908537114e+00 -2.8521678176388587e+01 1.0000000000000000e+00 2.0827029811706255e+00 1.3705700883984159e+01 4.4424846561908291e+00 
248 2 1 1.0278253144287739e+00 -1.3424824327608954e+02 1.0000000000000000e+00 2.7542142444175535e+00 1.4131376621278633e+01 4.4183614272499607e+00 
581 2 1 1.0278713537674933e+00 -3.3098978079798279e+01 1.0000000000000000e+00 2.8351842347102929e+00 1.4158063228432660e+01 4.4101893619483370e+00 
550 2 1 1.0282057036988206e+00 -4.7503895375499347e+01 1.0000000000000000e+00 4.1379266506286543e+00 1.4832569659578763e+01 4.5263103698139346e+00 
326 2 1 1.0280925222982424e+00 -4.6464993570197535e+01 1.0000000000000000e+00 4.8129939379817870e+00 1.6231828579005814e+01 4.5021982449840010e+00 
455 2 1 1.0280064839504535e+00 -5.4812445483443817e+01 1.0000000000000000e+00 4.5416166085492673e+00 1.5703389255182071e+01 4.4729831207269592e+00 
549 2 1 1.0280338852453872e+00 -4.5704493259518173e+01 1.0000000000000000e+00 4.6443960450354691e+00 1.5880044217543004e+01 4.4488575808659645e+00 
725 2 1 1.0278438232408034e+00 -5.3572436243615016e+01 1.0000000000000000e+00 5.3629150420685159e+00 1.3592476970652436e+01 4.3677285398439043e+00 
442 2 1 1.0281655942759127e+00 -3.4076712540442820e+01 1.0000000000000000e+00 3.6083248127764733e+00 1.4390149770044024e+01 4.5004644946133379e+00 
683 2 1 1.0280344446862513e+00 -4.6305164673177821e+01 1.0000000000000000e+00 4.6196146445992596e+00 1.4907813709602630e+01 6.1633789600258400e+00 
312 2 1 1.0278350920390984e+00 -4.1264550785399223e+01 1.0000000000000000e+00 6.6630323423809896e+00 1.5622952259376770e+01 4.4387851378781269e+00 
206 2 1 1.0278290384778899e+00 -1.1980106335302385e+03 1.0000000000000000e+00 5.2281202935420170e+00 1.6783899722235493e+01 4.3614966595479840e+00 
601 2 1 1.0283750317903282e+00 -4.6883049381426559e+01 1.0000000000000000e+00 5.3997002975268984e+00 1.7173820126328494e+01 4.4357228852807253e+00 
596 2 1 1.0280908714339165e+00 -3.9107918118492009e+01 1.0000000000000000e+00 5.1837231496144298e+00 1.6757308900776287e+01 4.4029449696466054e+00 
706 2 1 1.0280349132985744e+00 -4.5683248710263683e+01 1.0000000000000000e+00 6.4876894450758567e+00 1.8450032672905078e+01 4.4191819574226310e+00 
595 2 1 1.0277807939141732e+00 -3.4975458149300749e+01 1.0000000000000000e+00 6.4902521567219313e+00 1.8450877153248133e+01 4.4154556000671930e+00 
253 2 1 1.0278212513952205e+00 -1.3841524558868548e+02 1.0000000000000000e+00 6.4043473131380466e+00 1.8380511127457222e+01 4.9708670645112898e+00 
307 2 1 1.0281142040043776e+00 -5.0965286481090594e+01 1.0000000000000000e+00 3.8169887221239494e+00 1.0919539103522609e+01 7.5739613331813764e+00 
632 2 1 1.0277053232260274e+00 -2.7364161012089273e+01 1.0000000000000000e+00 3.4856749433527709e+00 1.2059494710675796e+01 7.6535345812443074e+00 
381 2 1 1.0279505642446689e+00 -3.8799638202775149e+01 1.0000000000000000e+00 3.4868868194912315e+00 1.2055854571559916e+01 7.6691755505764663e+00 
385 2 1 1.0278885738344821e+00 -3.0370390657991106e+01 1.0000000000000000e+00 3.4923521005641236e+00 1.2083568793111143e+01 7.6148379180674883e+00 
556 2 1 1.0278465396810679e+00 -3.8170723804530525e+01 1.0000000000000000e+00 3.4881208208405763e+00 1.2068398789006753e+01 7.6397024556506512e+00 
715 2 1 1.0280110225861430e+00 -1.8261426343476728e+01 1.0000000000000000e+00 3.6792357690342916e+00 1.2475413715893859e+01 7.6633895176925080e+00 
241 2 1 1.0281663457168453e+00 -1.3999630556277842e+02 1.0000000000000000e+00 4.0620620992774699e+00 1.1058509206661537e+01 8.0394664973717518e+00 
484 2 1 1.0280428600982665e+00 -3.1681603020338745e+01 1.0000000000000000e+00 3.9247842822521601e+00 1.1113802807579590e+01 8.0053291077563635e+00 
172 2 1 1.0279159580861823e+00 -1.1149277065583171e+03 1.0000000000000000e+00 5.8444262008278356e+00 1.0871707901162800e+01 8.0859695281245791e+00 
389 2 1 1.0279495574758191e+00 -4.2137256461497010e+01 1.0000000000000000e+00 5.7949756786792097e+00 1.0814065085250334e+01 8.0933271188909686e+00 
184 2 1 1.0281108893648703e+00 -1.2873291292045615e+03 1.0000000000000000e+00 5.7997466800162432e+00 1.0456610082006108e+01 7.1304567816187010e+00 
724 2 1 1.0280192713557024e+00 -2.4445030960724669e+01 1.0000000000000000e+00 4.5359948962212524e+00 1.4457088510480025e+01 7.6517772729604498e+00 
637 2 1 1.0280246783955498e+00 -1.7992940675648860e+01 1.0000000000000000e+00 4.5384523617988153e+00 1.4462779169522657e+01 7.6549995700994424e+00 
640 2 1 1.0279606687588287e+00 -2.3166756380563708e+01 1.0000000000000000e+00 4.7290809878135551e+00 1.5974967658404916e+01 7.5023926173389670e+00 
767 2 1 1.0280124975220248e+00 -7.1613445908842507e+01 1.0000000000000000e+00 5.0156631499992725e+00 1.6479039915482353e+01 7.4676573844059764e+00 
199 2 1 1.0278546039334584e+00 -1.2952246989236919e+03 1.0000000000000000e+00 4.5406886801014688e+00 1.4494926863430452e+01 7.6591106094043777e+00 
705 2 1 1.0279962487053400e+00 -4.4010142924846782e+01 1.0000000000000000e+00 4.9337519350147332e+00 1.6361314364770859e+01 7.4717098612702468e+00 
296 2 1 1.0278762790829483e+00 -5.4591362587879473e+01 1.0000000000000000e+00 4.5429571141794858e+00 1.4800410216172578e+01 7.6503141361308895e+00 
661 2 1 1.0279777831479773e+00 -5.5343683755902422e+00 1.0000000000000000e+00 5.9036320335171153e+00 1.4198308774382449e+01 7.6012687292574199e+00 
630 2 1 1.0281261444479801e+00 -3.0972636565479142e+01 1.0000000000000000e+00 6.5185583177959758e+00 1.3862863629063344e+01 7.6472001433597345e+00 
205 2 1 1.0283512997904956e+00 -1.1931353536571655e+03 1.0000000000000000e+00 6.0413964522674313e+00 1.3513868218863456e+01 7.5026166653773085e+00 
398 2 1 1.0280983960351713e+00 -2.2896589918713683e+01 1.0000000000000000e+00 5.7886834969559144e+00 1.7174471088777722e+01 7.4893036016090129e+00 
643 2 1 1.0277257855925970e+00 -3.7380956907117174e+01 1.0000000000000000e+00 6.1002036799093560e+00 1.7345242695414687e+01 7.4386770304026868e+00 
325 2 1 1.0277681419797937e+00 -3.8163870443940212e+01 1.0000000000000000e+00 6.1014983716362483e+00 1.7352839170892199e+01 7.4236491650431411e+00 
292 2 1 1.0280576008180196e+00 -1.0877892424266545e+02 1.0000000000000000e+00 6.0674258232751388e+00 1.7340023346408593e+01 7.4218300086164710e+00 
53 2 4 2.2938640322379165e+00 -5.1375329242953399e+02 1.0000000000000000e+00 8.0000000000000000e+00 0.0000000000000000e+00 5.0000000000000000e-01 
54 2 4 2.3317557049450848e+00 -1.1340951330577807e+03 1.0000000000000000e+00 8.0000000000000000e+00 1.6000000000000001e+00 5.0000000000000000e-01 
55 2 4 2.3317557049441877e+00 -1.2105767570488283e+03 1.0000000000000000e+00 8.0000000000000000e+00 3.2000000000000002e+00 5.0000000000000000e-01 
66 2 4 2.2938640322379165e+00 -5.1377972893502920e+02 1.0000000000000000e+00 1.0000000000000000e+01 0.0000000000000000e+00 5.0000000000000000e-01 
67 2 4 2.3317557049441873e+00 -1.1341426210322009e+03 1.0000000000000000e+00 1.0000000000000000e+01 1.6000000000000001e+00 5.0000000000000000e-01 
68 2 4 2.3317557049441877e+00 -1.2106071762445174e+03 1.0000000000000000e+00 1.0000000000000000e+01 3.2000000000000002e+00 5.0000000000000000e-01 
79 2 4 2.2938640322379165e+00 -5.1365945713306530e+02 1.0000000000000000e+00 1.2000000000000000e+01 0.0000000000000000e+00 5.0000000000000000e-01 
80 2 4 2.3317557049441873e+00 -1.1339821256530277e+03 1.0000000000000000e+00 1.2000000000000000e+01 1.6000000000000001e+00 5.0000000000000000e-01 
81 2 4 2.3317557049441877e+00 -1.2104554944049937e+03 1.0000000000000000e+00 1.2000000000000000e+01 3.2000000000000002e+00 5.0000000000000000e-01 
56 2 4 2.3317557049441877e+00 -1.2157262124162003e+03 1.0000000000000000e+00 8.0000000000000000e+00 4.7999999999999998e+00 5.0000000000000000e-01 
57 2 4 2.3317557049441877e+00 -1.2183016510310588e+03 1.0000000000000000e+00 8.0000000000000000e+00 6.4000000000000004e+00 5.0000000000000000e-01 
69 2 4 2.3317557049441877e+00 -1.2157652253504871e+03 1.0000000000000000e+00 1.0000000000000000e+01 4.7999999999999998e+00 5.0000000000000000e-01 
70 2 4 2.3317557049441877e+00 -1.2183518156162529e+03 1.0000000000000000e+00 1.0000000000000000e+01 6.4000000000000004e+00 5.0000000000000000e-01 
82 2 4 2.3317557049441877e+00 -1.2155860742658615e+03 1.0000000000000000e+00 1.2000000000000000e+01 4.7999999999999998e+00 5.0000000000000000e-01 
83 2 4 2.3317557049441877e+00 -1.2181455838620818e+03 1.0000000000000000e+00 1.2000000000000000e+01 6.4000000000000004e+00 5.0000000000000000e-01 
58 2 4 2.3317557049441882e+00 -1.2157082136406664e+03 1.0000000000000000e+00 8.0000000000000000e+00 8.0000000000000000e+00 5.0000000000000000e-01 
59 2 4 2.3317557049441882e+00 -1.2246635564989351e+03 1.0000000000000000e+00 8.0000000000000000e+00 9.5999999999999996e+00 5.0000000000000000e-01 
71 2 4 2.3317557049441882e+00 -1.2157397653927310e+03 1.0000000000000000e+00 1.0000000000000000e+01 8.0000000000000000e+00 5.0000000000000000e-01 
72 2 4 2.3317557049441882e+00 -1.2247218557802689e+03 1.0000000000000000e+00 1.0000000000000000e+01 9.5999999999999996e+00 5.0000000000000000e-01 
84 2 4 2.3317557049441882e+00 -1.2155725277685060e+03 1.0000000000000000e+00 1.2000000000000000e+01 8.0000000000000000e+00 5.0000000000000000e-01 
85 2 4 2.3317557049441882e+00 -1.2245038963099237e+03 1.0000000000000000e+00 1.2000000000000000e+01 9.5999999999999996e+00 5.0000000000000000e-01 
160 2 1 1.0280166665343209e+00 -1.2787832899616214e+03 1.0000000000000000e+00 8.9205463237734133e+00 2.3116096933283430e+00 4.3239283798284367e+00 
161 2 1 1.0279670977400148e+00 -1.2606799718971370e+03 1.0000000000000000e+00 8.8130928742239600e+00 2.1199837409019486e+00 4.3793835369259044e+00 
659 2 1 1.0280409241795494e+00 -2.1625038596820477e+01 1.0000000000000000e+00 8.9248413162168969e+00 2.3052415117862677e+00 4.3289778022466301e+00 
673 2 1 1.0280552748739891e+00 -2.1545992156000946e+01 1.0000000000000000e+00 8.7559687784639770e+00 1.7465259229142232e+00 5.5798463728007492e+00 
662 2 1 1.0279551091692212e+00 -4.6618422970061424e+01 1.0000000000000000e+00 8.5493383696992069e+00 1.8628527120571770e+00 4.4873714915675595e+00 
300 2 1 1.0279583074935905e+00 -4.5810629794482203e+01 1.0000000000000000e+00 8.4441513845508673e+00 1.8277047190353586e+00 4.4975557716552510e+00 
382 2 1 1.0280418850271618e+00 -4.4441322966980294e+01 1.0000000000000000e+00 8.4455234911942796e+00 1.8893940769048123e+00 6.0165469403881255e+00 
614 2 1 1.0279828072228994e+00 -8.6351409729247479e+01 1.0000000000000000e+00 6.7056676822894907e+00 2.3385329122670275e+00 5.1121937485720848e+00 
506 2 1 1.0279563382530044e+00 -1.7181466322882237e+01 1.0000000000000000e+00 6.7254401051404535e+00 2.3238235413783088e+00 5.1960679143907678e+00 
687 2 1 1.0280144966635407e+00 -3.3192259520377931e+01 1.0000000000000000e+00 8.2372109115439951e+00 2.5762700435027970e+00 6.5026531791426629e+00 
350 2 1 1.0280901857806171e+00 -2.5758422589355824e+01 1.0000000000000000e+00 7.5158307831851809e+00 3.1675406282341041e+00 6.5368834445468744e+00 
427 2 1 1.0280330692805262e+00 -1.9198975177804989e+01 1.0000000000000000e+00 8.2760926954655449e+00 2.9378113170835287e+00 6.5794294236532016e+00 
421 2 1 1.0280374168585724e+00 -2.1473195573051424e+01 1.0000000000000000e+00 6.9281013583816602e+00 6.0530260110035154e+00 4.3915349699668145e+00 
323 2 1 1.0281705264351348e+00 -2.7584846190740219e+01 1.0000000000000000e+00 6.9408913855542735e+00 5.4567481487534106e+00 4.3832569480793531e+00 
239 2 1 1.0279539225984438e+00 -1.3814586621985484e+02 1.0000000000000000e+00 9.3262815419473704e+00 3.9530323922834794e+00 4.3780792268908177e+00 
772 2 1 1.0282895284228029e+00 -4.5718679171298433e+01 1.0000000000000000e+00 7.7774733933622215e+00 4.8420577547288888e+00 4.5454841717533361e+00 
730 2 1 1.0280131201398237e+00 -1.4889998862327811e+01 1.0000000000000000e+00 8.7054922473504384e+00 5.3032754765081966e+00 4.4476437253939132e+00 
304 2 1 1.0282358135314174e+00 -5.3724042588493127e+01 1.0000000000000000e+00 9.3723043463190745e+00 4.9403043133279620e+00 4.5560124083328386e+00 