LAMMPS data file via write_data, version 30 Jul 2016, timestep = 100400000

638 atoms
8 atom types

0.0000000000000000e+00 2.0000000000000000e+01 xlo xhi
0.0000000000000000e+00 2.0000000000000000e+01 ylo yhi
0.0000000000000000e+00 2.0000000000000000e+01 zlo zhi

Masses

1 3.896
2 5.36
3 20.064
4 8.378
5 8.378
6 8.378
7 8.378
8 8.378

Atoms # meso-molecular

1 2 4 2.2938640322379165e+00 -8.3946305672014532e+00 1.0000000000000000e+00 0.0000000000000000e+00 0.0000000000000000e+00 5.0000000000000000e-01 
2 2 4 2.3317557049441873e+00 -5.9498254935172348e+00 1.0000000000000000e+00 0.0000000000000000e+00 1.6000000000000001e+00 5.0000000000000000e-01 
3 2 4 2.3317557049441877e+00 -7.5375737214087595e+00 1.0000000000000000e+00 0.0000000000000000e+00 3.2000000000000002e+00 5.0000000000000000e-01 
14 2 4 2.2938640322379165e+00 -2.0501902014314754e+02 1.0000000000000000e+00 2.0000000000000000e+00 0.0000000000000000e+00 5.0000000000000000e-01 
15 2 4 2.3317557049441873e+00 -3.2325398860825970e+02 1.0000000000000000e+00 2.0000000000000000e+00 1.6000000000000001e+00 5.0000000000000000e-01 
16 2 4 2.3317557049441877e+00 -3.2448088552530646e+02 1.0000000000000000e+00 2.0000000000000000e+00 3.2000000000000002e+00 5.0000000000000000e-01 
27 2 4 2.2938640322379165e+00 -4.9559722419371110e+02 1.0000000000000000e+00 4.0000000000000000e+00 0.0000000000000000e+00 5.0000000000000000e-01 
28 2 4 2.3317557049441873e+00 -9.9596279513139439e+02 1.0000000000000000e+00 4.0000000000000000e+00 1.6000000000000001e+00 5.0000000000000000e-01 
29 2 4 2.3317557049441877e+00 -1.0629183220321115e+03 1.0000000000000000e+00 4.0000000000000000e+00 3.2000000000000002e+00 5.0000000000000000e-01 
40 2 4 2.2938640322379165e+00 -5.1598302548083188e+02 1.0000000000000000e+00 6.0000000000000000e+00 0.0000000000000000e+00 5.0000000000000000e-01 
41 2 4 2.3317557049441873e+00 -1.1342307478106063e+03 1.0000000000000000e+00 6.0000000000000000e+00 1.6000000000000001e+00 5.0000000000000000e-01 
42 2 4 2.3317557049441979e+00 -1.2096870510297372e+03 1.0000000000000000e+00 6.0000000000000000e+00 3.2000000000000002e+00 5.0000000000000000e-01 
4 2 4 2.3317557049441877e+00 -8.1831118172784940e+00 1.0000000000000000e+00 0.0000000000000000e+00 4.7999999999999998e+00 5.0000000000000000e-01 
5 2 4 2.3317557049441877e+00 -5.3721489683450923e+00 1.0000000000000000e+00 0.0000000000000000e+00 6.4000000000000004e+00 5.0000000000000000e-01 
17 2 4 2.3317557049441877e+00 -3.3820209183972662e+02 1.0000000000000000e+00 2.0000000000000000e+00 4.7999999999999998e+00 5.0000000000000000e-01 
18 2 4 2.3317557049441877e+00 -3.2170054554764295e+02 1.0000000000000000e+00 2.0000000000000000e+00 6.4000000000000004e+00 5.0000000000000000e-01 
30 2 4 2.3317557049441877e+00 -1.0752260823551958e+03 1.0000000000000000e+00 4.0000000000000000e+00 4.7999999999999998e+00 5.0000000000000000e-01 
31 2 4 2.3317557049442796e+00 -1.0621108247914283e+03 1.0000000000000000e+00 4.0000000000000000e+00 6.4000000000000004e+00 5.0000000000000000e-01 
43 2 4 2.3317557049441877e+00 -1.2148195978284589e+03 1.0000000000000000e+00 6.0000000000000000e+00 4.7999999999999998e+00 5.0000000000000000e-01 
44 2 4 2.3317557049441877e+00 -1.2173206215037467e+03 1.0000000000000000e+00 6.0000000000000000e+00 6.4000000000000004e+00 5.0000000000000000e-01 
6 2 4 2.3317557049441882e+00 -9.9641295239628409e+00 1.0000000000000000e+00 0.0000000000000000e+00 8.0000000000000000e+00 5.0000000000000000e-01 
7 2 4 2.3317557049441882e+00 -3.4252293110347840e+00 1.0000000000000000e+00 0.0000000000000000e+00 9.5999999999999996e+00 5.0000000000000000e-01 
19 2 4 2.3317557049443431e+00 -3.4226870250078366e+02 1.0000000000000000e+00 2.0000000000000000e+00 8.0000000000000000e+00 5.0000000000000000e-01 
20 2 4 2.3317557049441882e+00 -3.2094317646286203e+02 1.0000000000000000e+00 2.0000000000000000e+00 9.5999999999999996e+00 5.0000000000000000e-01 
32 2 4 2.3317557049441882e+00 -1.0815522553360156e+03 1.0000000000000000e+00 4.0000000000000000e+00 8.0000000000000000e+00 5.0000000000000000e-01 
33 2 4 2.3317557049441882e+00 -1.0622757971429544e+03 1.0000000000000000e+00 4.0000000000000000e+00 9.5999999999999996e+00 5.0000000000000000e-01 
45 2 4 2.3317557049441882e+00 -1.2148048996284504e+03 1.0000000000000000e+00 6.0000000000000000e+00 8.0000000000000000e+00 5.0000000000000000e-01 
46 2 4 2.3317557049441882e+00 -1.2236752892427066e+03 1.0000000000000000e+00 6.0000000000000000e+00 9.5999999999999996e+00 5.0000000000000000e-01 
526 2 1 1.0280400188361829e+00 -2.5925223194957354e+01 1.0000000000000000e+00 6.0891057085294946e+00 3.3833376976909166e+00 4.5003409178083178e+00 
266 2 1 1.0281927366509618e+00 -1.3519091889361178e+02 1.0000000000000000e+00 6.0631725826231531e+00 3.4284604220772690e+00 4.4918753718700124e+00 
348 2 1 1.0277858687768808e+00 -4.0879532398522208e+01 1.0000000000000000e+00 4.8480116422476511e+00 5.4853875371430068e+00 4.3666918055490083e+00 
654 2 1 1.0279519242347155e+00 -3.6711767018031033e+01 1.0000000000000000e+00 4.8594007294638075e+00 5.4826749236910439e+00 4.3480082271684477e+00 
482 2 1 1.0278903640040982e+00 -2.6195264871573478e+01 1.0000000000000000e+00 4.8296856056768505e+00 5.4983418964217314e+00 4.3921169508293465e+00 
589 2 1 1.0281454591416668e+00 -3.5280110563327227e+01 1.0000000000000000e+00 4.1363875327709403e+00 6.1261599169592946e+00 4.5888407631183563e+00 
622 2 1 1.0277307003622544e+00 -4.3018893237208715e+01 1.0000000000000000e+00 5.7555741024761522e+00 3.8619411767463294e+00 4.4592471009916883e+00 
560 2 1 1.0282095979016843e+00 -2.8013527891099269e+01 1.0000000000000000e+00 5.9604367535110576e+00 3.5727239504792658e+00 4.4838084747557536e+00 
680 2 1 1.0280841938630845e+00 -2.8605262769833892e+01 1.0000000000000000e+00 4.6194371452276304e+00 5.7352426851831808e+00 4.3976261763299140e+00 
309 2 1 1.0280823902979510e+00 -4.0865310166517020e+01 1.0000000000000000e+00 6.0718072755908885e+00 3.3744906827179286e+00 4.5332848351184643e+00 
152 2 1 1.0279020719352974e+00 -1.2302241871410179e+03 1.0000000000000000e+00 2.6883721640199938e+00 7.4340071768607645e+00 4.3973384525481407e+00 
608 2 1 1.0281713157668269e+00 -3.5717229895049961e+01 1.0000000000000000e+00 1.1278629327653535e+00 9.3246975222696467e+00 4.5703605021537461e+00 
471 2 1 1.0280796748696834e+00 -1.7904766856673060e+01 1.0000000000000000e+00 2.9052848336516464e+00 7.2873742605868621e+00 4.3650714529307457e+00 
689 2 1 1.0279898569276049e+00 -3.9347632571109102e+01 1.0000000000000000e+00 1.7664970171003866e+00 8.0108066788260288e+00 4.6982968907107479e+00 
155 2 1 1.0279340349812749e+00 -1.3004249798995488e+03 1.0000000000000000e+00 2.8998023683340510e+00 7.3036096053641995e+00 4.3516941617785658e+00 
718 2 1 1.0279714229647392e+00 -2.9719462926596638e+01 1.0000000000000000e+00 1.2188024435150253e+00 9.6126094284790806e+00 4.4277577533128882e+00 
729 2 1 1.0278967304111977e+00 -2.9959579955466548e+01 1.0000000000000000e+00 1.2292704684811491e+00 9.7668359032593379e+00 4.4821114873541843e+00 
247 2 1 1.0280471667506166e+00 -1.3305464663069446e+02 1.0000000000000000e+00 2.0024284432445949e+00 9.0626444498252319e+00 5.6661951191564768e+00 
333 2 1 1.0280588495967924e+00 -4.6834992484407486e+01 1.0000000000000000e+00 2.0609078938201204e+00 9.1440438223180447e+00 5.6811971128495271e+00 
286 2 1 1.0280406973167429e+00 -1.2317330972064123e+02 1.0000000000000000e+00 1.9680017996329819e+00 9.1902787340196070e+00 5.6628022642576097e+00 
591 2 1 1.0279351712619307e+00 -3.7624328967415131e+01 1.0000000000000000e+00 2.8604788547281408e+00 7.3315329805469736e+00 4.3582471963192724e+00 
503 2 1 1.0278420909217423e+00 -1.4033160378293566e+01 1.0000000000000000e+00 1.2891231494171573e+00 9.8491797186511452e+00 4.4293820935735049e+00 
769 2 1 1.0279532054474276e+00 -4.7915070656372286e+01 1.0000000000000000e+00 1.3156368105862066e+00 9.9313404897813911e+00 4.4431056631860093e+00 
401 2 1 1.0280301856911671e+00 -1.2925177985265595e+01 1.0000000000000000e+00 3.8993339133587495e+00 8.7459868880721796e+00 4.4405762297336837e+00 
260 2 1 1.0280546359268599e+00 -1.4039923249260042e+02 1.0000000000000000e+00 3.3830657515665683e+00 6.7280546228639242e+00 4.4366477912659770e+00 
324 2 1 1.0279631965775669e+00 -3.0661168207139887e+01 1.0000000000000000e+00 5.8911370869361823e+00 7.3109760401097841e+00 4.4716645228474681e+00 
742 2 1 1.0280150353020368e+00 -1.8988082635614635e+01 1.0000000000000000e+00 5.9340256475617981e+00 7.5917824159632339e+00 4.9241443612562596e+00 
745 2 1 1.0279060162261022e+00 -2.2667137824531498e+01 1.0000000000000000e+00 4.7984983249939823e+00 8.6912437080313509e+00 5.0448576741402755e+00 
739 2 1 1.0282642809620444e+00 -5.8987009685160267e+01 1.0000000000000000e+00 5.9598763233853402e+00 7.5706364353623057e+00 4.6115718393091232e+00 
495 2 1 1.0278692698967931e+00 -4.3357962641528502e+01 1.0000000000000000e+00 4.6346354785558903e+00 9.7128763442736243e+00 4.6668060535689575e+00 
376 2 1 1.0278853290822696e+00 -7.0296104853125414e+01 1.0000000000000000e+00 5.8716461067675114e+00 4.8700228670469841e+00 7.8889242935152684e+00 
746 2 1 1.0281194457448126e+00 -3.0330765732526004e+01 1.0000000000000000e+00 5.8049239597252660e+00 4.8512689855517985e+00 7.7603249221031358e+00 
417 2 1 1.0279335013607664e+00 -3.1615268927138555e+01 1.0000000000000000e+00 6.0113538210042785e+00 4.7886292318147294e+00 7.8216464218617494e+00 
156 2 1 1.0278771632858521e+00 -1.2958170992621424e+03 1.0000000000000000e+00 5.8194719484354005e+00 4.8681101572309347e+00 7.8396367449661000e+00 
250 2 1 1.0280429634214048e+00 -1.2093722281722448e+02 1.0000000000000000e+00 5.4505134670408824e+00 5.2078055855963576e+00 8.0079281039661030e+00 
636 2 1 1.0277620699049399e+00 -1.9722185559845165e+01 1.0000000000000000e+00 5.2620131110988098e+00 5.5145524544534128e+00 8.1346744041948345e+00 
223 2 1 1.0279800924154388e+00 -1.3895181621121790e+02 1.0000000000000000e+00 5.8922973950428021e+00 4.8603487108616568e+00 7.8845353378859286e+00 
334 2 1 1.0279377928010187e+00 -5.0290896925527719e+01 1.0000000000000000e+00 5.2876189451200934e+00 9.2645857614149207e+00 6.9819699785575118e+00 
703 2 1 1.0279659947376651e+00 -5.2285761164514270e+01 1.0000000000000000e+00 4.2073898087126462e+00 7.4935974222740125e+00 7.7577328260587555e+00 
435 2 1 1.0277590688980907e+00 -2.3588963996684900e+01 1.0000000000000000e+00 4.1991845377438874e+00 7.4491699930052535e+00 7.5879758032127835e+00 
285 2 1 1.0279063966802162e+00 -1.2084169818133071e+02 1.0000000000000000e+00 4.2200889443269238e+00 7.5296571404238932e+00 7.7987121091832714e+00 
457 2 1 1.0277854768059029e+00 -6.5710824505919504e+01 1.0000000000000000e+00 5.6152340946660928e+00 9.6114808542835064e+00 6.8864545603921012e+00 
276 2 1 1.0282949678327264e+00 -1.2664126571649406e+02 1.0000000000000000e+00 4.2014536836977019e+00 7.5203746803365883e+00 7.6273289343880935e+00 
655 2 1 1.0279850281971541e+00 -3.6568845625764858e+01 1.0000000000000000e+00 4.9759788325418199e+00 7.4438295881278762e+00 8.3909042982840294e+00 
365 2 1 1.0281706211915793e+00 -2.9037684745757694e+01 1.0000000000000000e+00 4.2010743138388893e+00 7.4841268666226028e+00 7.7070013623416322e+00 
406 2 1 1.0280923332001366e+00 -1.3619690148835568e+01 1.0000000000000000e+00 4.1972887917556516e+00 7.4526830791383514e+00 7.6673479944771996e+00 
233 2 1 1.0281571049510212e+00 -1.3284274514903674e+02 1.0000000000000000e+00 6.4710308146591959e+00 8.0595906289247239e+00 8.4878539249496949e+00 
459 2 1 1.0281021720212837e+00 -6.5636923577570698e+01 1.0000000000000000e+00 6.4525499020981298e+00 9.7255876246882860e+00 1.0130030184948355e+01 
373 2 1 1.0280706194641860e+00 -4.7285207676601580e+01 1.0000000000000000e+00 6.4679890820909627e+00 9.4184147468235437e+00 1.0344636025349731e+01 
226 2 1 1.0278783002128091e+00 -1.2650703464546707e+02 1.0000000000000000e+00 6.4863169564115006e+00 9.4553091807368723e+00 1.0362345351352804e+01 
612 2 1 1.0280432052260160e+00 -4.2482104488304358e+01 1.0000000000000000e+00 6.4957244019635390e+00 9.6434935988175088e+00 1.0280457620732028e+01 
8 2 4 2.3317557049441873e+00 -1.1110887308172376e+01 1.0000000000000000e+00 0.0000000000000000e+00 1.1199999999999999e+01 5.0000000000000000e-01 
9 2 4 2.3317557049441873e+00 -2.3587953940633466e+00 1.0000000000000000e+00 0.0000000000000000e+00 1.2800000000000001e+01 5.0000000000000000e-01 
21 2 4 2.3317557049441873e+00 -3.4367809379387563e+02 1.0000000000000000e+00 2.0000000000000000e+00 1.1199999999999999e+01 5.0000000000000000e-01 
22 2 4 2.3317557049441873e+00 -3.2236022541536437e+02 1.0000000000000000e+00 2.0000000000000000e+00 1.2800000000000001e+01 5.0000000000000000e-01 
34 2 4 2.3317557049441877e+00 -1.0852457720407613e+03 1.0000000000000000e+00 4.0000000000000000e+00 1.1199999999999999e+01 5.0000000000000000e-01 
35 2 4 2.3317557049441873e+00 -1.0635215524846656e+03 1.0000000000000000e+00 4.0000000000000000e+00 1.2800000000000001e+01 5.0000000000000000e-01 
47 2 4 2.3317557049441873e+00 -1.2149240845540633e+03 1.0000000000000000e+00 6.0000000000000000e+00 1.1199999999999999e+01 5.0000000000000000e-01 
48 2 4 2.3317557049441873e+00 -1.2277037930889844e+03 1.0000000000000000e+00 6.0000000000000000e+00 1.2800000000000001e+01 5.0000000000000000e-01 
10 2 4 2.3317557049441882e+00 -1.1436422712518015e+01 1.0000000000000000e+00 0.0000000000000000e+00 1.4400000000000000e+01 5.0000000000000000e-01 
11 2 4 2.3317557049441873e+00 -2.5219052864791065e+00 1.0000000000000000e+00 0.0000000000000000e+00 1.6000000000000000e+01 5.0000000000000000e-01 
23 2 4 2.3317557049441882e+00 -3.4165796570630192e+02 1.0000000000000000e+00 2.0000000000000000e+00 1.4400000000000000e+01 5.0000000000000000e-01 
24 2 4 2.3317557049441873e+00 -3.2467989449994997e+02 1.0000000000000000e+00 2.0000000000000000e+00 1.6000000000000000e+01 5.0000000000000000e-01 
36 2 4 2.3317557049441882e+00 -1.0840166999589239e+03 1.0000000000000000e+00 4.0000000000000000e+00 1.4400000000000000e+01 5.0000000000000000e-01 
37 2 4 2.3317557049441873e+00 -1.0641666241297105e+03 1.0000000000000000e+00 4.0000000000000000e+00 1.6000000000000000e+01 5.0000000000000000e-01 
49 2 4 2.3317557049441882e+00 -1.2135346595325518e+03 1.0000000000000000e+00 6.0000000000000000e+00 1.4400000000000000e+01 5.0000000000000000e-01 
50 2 4 2.3317557049441873e+00 -1.2261691582600022e+03 1.0000000000000000e+00 6.0000000000000000e+00 1.6000000000000000e+01 5.0000000000000000e-01 
12 2 4 2.3317557049441877e+00 -1.0861000707451336e+01 1.0000000000000000e+00 0.0000000000000000e+00 1.7600000000000001e+01 5.0000000000000000e-01 
13 2 4 2.2938640322379173e+00 -3.4738263587837230e+00 1.0000000000000000e+00 0.0000000000000000e+00 1.9199999999999999e+01 5.0000000000000000e-01 
25 2 4 2.3317557049441877e+00 -3.3227883529693429e+02 1.0000000000000000e+00 2.0000000000000000e+00 1.7600000000000001e+01 5.0000000000000000e-01 
26 2 4 2.2938640322379173e+00 -1.9928932269310374e+02 1.0000000000000000e+00 2.0000000000000000e+00 1.9199999999999999e+01 5.0000000000000000e-01 
38 2 4 2.3317557049441877e+00 -1.0388757900656726e+03 1.0000000000000000e+00 4.0000000000000000e+00 1.7600000000000001e+01 5.0000000000000000e-01 
39 2 4 2.2938640322379173e+00 -5.9296958470103300e+02 1.0000000000000000e+00 4.0000000000000000e+00 1.9199999999999999e+01 5.0000000000000000e-01 
51 2 4 2.3317557049441877e+00 -1.1674268045031852e+03 1.0000000000000000e+00 6.0000000000000000e+00 1.7600000000000001e+01 5.0000000000000000e-01 
52 2 4 2.2938640322379173e+00 -6.7894724011537994e+02 1.0000000000000000e+00 6.0000000000000000e+00 1.9199999999999999e+01 5.0000000000000000e-01 
523 2 1 1.0279656783373901e+00 -4.6973391682997296e+01 1.0000000000000000e+00 1.8211278900033081e+00 1.3131751588009593e+01 4.4874555302969474e+00 
613 2 1 1.0278423662939249e+00 -4.1993049382827046e+01 1.0000000000000000e+00 1.8380732415078467e+00 1.3262716732213590e+01 4.4700529281461154e+00 
771 2 1 1.0281481589470918e+00 -5.1603778319574580e+01 1.0000000000000000e+00 2.2441630268582853e+00 1.1928000542287126e+01 4.5446867532913400e+00 
146 2 1 1.0281337946030884e+00 -1.2646120853588245e+03 1.0000000000000000e+00 1.8497872610948858e+00 1.2791583495331729e+01 4.5123507560149854e+00 
279 2 1 1.0280810359960970e+00 -1.4593130361376384e+02 1.0000000000000000e+00 2.3448644584941856e+00 1.1805285409307668e+01 4.4881604302964941e+00 
423 2 1 1.0278068457634073e+00 -1.1812156431295870e+01 1.0000000000000000e+00 3.1165608857110141e+00 1.1081734853069225e+01 4.4463979680154928e+00 
677 2 1 1.0277581016215598e+00 -4.0275855089878860e+01 1.0000000000000000e+00 5.0035005355986799e+00 1.2601249918545975e+01 4.4815343698309329e+00 
605 2 1 1.0280014368383872e+00 -5.2280902458273097e+01 1.0000000000000000e+00 4.9516409793360170e+00 1.2143102319235364e+01 4.4045192069551735e+00 
547 2 1 1.0280962395519773e+00 -4.2024919436480488e+01 1.0000000000000000e+00 4.9162239454835781e+00 1.2537684455531434e+01 4.4548245954770911e+00 
712 2 1 1.0277864335346305e+00 -4.1807047607846016e+01 1.0000000000000000e+00 5.3908618304031712e+00 1.2802223370545059e+01 4.5108779141634061e+00 
727 2 1 1.0284172203373960e+00 -2.8456374935470503e+01 1.0000000000000000e+00 4.2381644969569736e+00 1.1047415573113692e+01 4.4893024844776850e+00 
594 2 1 1.0280855190529927e+00 -3.2398811165803153e+01 1.0000000000000000e+00 4.9555558135778401e+00 1.0193639691924448e+01 4.4291997599605155e+00 
660 2 1 1.0278616000847363e+00 -1.0204045193631622e+01 1.0000000000000000e+00 4.6570216595263796e+00 1.0486265512066330e+01 4.4572704580147100e+00 
653 2 1 1.0280526846814881e+00 -2.1674544780830271e+01 1.0000000000000000e+00 3.6729345994541820e+00 1.0168885700125488e+01 5.4550490726087304e+00 
515 2 1 1.0280308130846023e+00 -2.2641897234152648e+01 1.0000000000000000e+00 1.8587169014379363e+00 1.3342648929995107e+01 4.4617140544604119e+00 
674 2 1 1.0278501528303146e+00 -2.8521680928278862e+01 1.0000000000000000e+00 2.0600540020573375e+00 1.3703905059748049e+01 4.4458484329345689e+00 
248 2 1 1.0279422039161905e+00 -1.3424826552820184e+02 1.0000000000000000e+00 2.7550364925024140e+00 1.4134487987013419e+01 4.4363633655630341e+00 
581 2 1 1.0279715520425550e+00 -3.3099008015964294e+01 1.0000000000000000e+00 2.8312393149139843e+00 1.4153982121703711e+01 4.4078730407381244e+00 
237 2 1 1.0281160051940699e+00 -1.2876750314952253e+02 1.0000000000000000e+00 6.5531418120420941e+00 1.3359483589662453e+01 4.4827051788574357e+00 
550 2 1 1.0280075899048582e+00 -4.7503905622539015e+01 1.0000000000000000e+00 4.1371880312891136e+00 1.4833074438397752e+01 4.5309639082560160e+00 
326 2 1 1.0279927267800075e+00 -4.6465008692701140e+01 1.0000000000000000e+00 4.8150091943778701e+00 1.6274689740163858e+01 4.4910078642793225e+00 
455 2 1 1.0280360102002746e+00 -5.4812469012010595e+01 1.0000000000000000e+00 4.5330663582119142e+00 1.5733511380329368e+01 4.4759684996421640e+00 
549 2 1 1.0280038443099393e+00 -4.5704518460731627e+01 1.0000000000000000e+00 4.6371882140517195e+00 1.5916034190456022e+01 4.4505266321097396e+00 
725 2 1 1.0279283209885459e+00 -5.3572450539680609e+01 1.0000000000000000e+00 5.3467220685121912e+00 1.3574859527819720e+01 4.3707102730447627e+00 
442 2 1 1.0282694395033543e+00 -3.4076719231950683e+01 1.0000000000000000e+00 3.5991450651618844e+00 1.4372524109459874e+01 4.5012256799831203e+00 
683 2 1 1.0281744381698306e+00 -4.6305169551709703e+01 1.0000000000000000e+00 4.5780099963361156e+00 1.4931904400735528e+01 6.1241277181961902e+00 
206 2 1 1.0279305599894355e+00 -1.1980106151703681e+03 1.0000000000000000e+00 5.2110239125107150e+00 1.6779523057156826e+01 4.3443676202022683e+00 
601 2 1 1.0280180807068791e+00 -4.6883113028017441e+01 1.0000000000000000e+00 5.3618784581387144e+00 1.7150859287661177e+01 4.4347001340288497e+00 
596 2 1 1.0278160441069870e+00 -3.9107875954742859e+01 1.0000000000000000e+00 5.1675091515689120e+00 1.6756502854590011e+01 4.3826415604259727e+00 
706 2 1 1.0281208145709733e+00 -4.5683240113088459e+01 1.0000000000000000e+00 6.4912824954201369e+00 1.8471999150518048e+01 4.4404675763889028e+00 
595 2 1 1.0279853798212000e+00 -3.4975455575237646e+01 1.0000000000000000e+00 6.4996131233120140e+00 1.8467981875887030e+01 4.4228390791738015e+00 
253 2 1 1.0282832282280572e+00 -1.3841523222078050e+02 1.0000000000000000e+00 6.3923645172143377e+00 1.8414323006498002e+01 4.8844992443242781e+00 
307 2 1 1.0279775634369093e+00 -5.0965306438042020e+01 1.0000000000000000e+00 3.8148134349942238e+00 1.0928077204152464e+01 7.5464020561510852e+00 
632 2 1 1.0281974632511914e+00 -2.7364162258175377e+01 1.0000000000000000e+00 3.4696643980758100e+00 1.2066446481542592e+01 7.6297045460270505e+00 
381 2 1 1.0279507178446776e+00 -3.8799643509666474e+01 1.0000000000000000e+00 3.4702112624104697e+00 1.2066869488148560e+01 7.6465139514090357e+00 
385 2 1 1.0279751188568844e+00 -3.0370395639338714e+01 1.0000000000000000e+00 3.4748099009764228e+00 1.2093611718868928e+01 7.5922335006504458e+00 
556 2 1 1.0280710339985280e+00 -3.8170726996195562e+01 1.0000000000000000e+00 3.4720046299997631e+00 1.2079628683733031e+01 7.6174934469703786e+00 
715 2 1 1.0280301180161171e+00 -1.8261427853167081e+01 1.0000000000000000e+00 3.6541323145956279e+00 1.2483948997509410e+01 7.6362419991370531e+00 
241 2 1 1.0279534694130810e+00 -1.3999630065915667e+02 1.0000000000000000e+00 4.0468204024587218e+00 1.1062644745424965e+01 7.9955444743395692e+00 
484 2 1 1.0279496928701610e+00 -3.1681606913058076e+01 1.0000000000000000e+00 3.9109564155468406e+00 1.1117597316857843e+01 7.9618053383285430e+00 
172 2 1 1.0281157083854453e+00 -1.1149276934152267e+03 1.0000000000000000e+00 5.8337518627945562e+00 1.0881358371196287e+01 8.0417520702887622e+00 
389 2 1 1.0281326152971055e+00 -4.2137245846544914e+01 1.0000000000000000e+00 5.7723959249956645e+00 1.0824952158282278e+01 8.0479620855143370e+00 
184 2 1 1.0277822869183459e+00 -1.2873291055406501e+03 1.0000000000000000e+00 5.8234472780389384e+00 1.0452976895390027e+01 7.0687652499700375e+00 
724 2 1 1.0278783483405618e+00 -2.4445070484358936e+01 1.0000000000000000e+00 4.5204149767406419e+00 1.4457225037203672e+01 7.6428944433433834e+00 
637 2 1 1.0279405138496636e+00 -1.7992965047309415e+01 1.0000000000000000e+00 4.5239157035011681e+00 1.4470183643167479e+01 7.6464073441206217e+00 
640 2 1 1.0277386794672245e+00 -2.3166758584892509e+01 1.0000000000000000e+00 4.7401617681713057e+00 1.5990488032585152e+01 7.4744185250655510e+00 
767 2 1 1.0280383402078819e+00 -7.1613458026671807e+01 1.0000000000000000e+00 5.0271241158302207e+00 1.6485883370321968e+01 7.4376917282616031e+00 
199 2 1 1.0282871747813978e+00 -1.2952246773972120e+03 1.0000000000000000e+00 4.5276283249694309e+00 1.4492650158950877e+01 7.6476169241943834e+00 
705 2 1 1.0281820715624725e+00 -4.4010157802796741e+01 1.0000000000000000e+00 4.9478600429928372e+00 1.6369469068983339e+01 7.4453295835366546e+00 
296 2 1 1.0278920723673957e+00 -5.4591383163937422e+01 1.0000000000000000e+00 4.5358465212197032e+00 1.4811002454705076e+01 7.6373938249723921e+00 
661 2 1 1.0280871544774395e+00 -5.5343800710851498e+00 1.0000000000000000e+00 5.8836693136237965e+00 1.4198472677051779e+01 7.5709843718742311e+00 
630 2 1 1.0275818380162811e+00 -3.0972624625961227e+01 1.0000000000000000e+00 6.5034167277590589e+00 1.3868009362565516e+01 7.6503199733248684e+00 
205 2 1 1.0279673696714531e+00 -1.1931353692854118e+03 1.0000000000000000e+00 5.9683291297775893e+00 1.3544858799649550e+01 7.5058152320266069e+00 
292 2 1 1.0278598918844428e+00 -1.0877893957745754e+02 1.0000000000000000e+00 6.0784901461620207e+00 1.7357871102162111e+01 7.4127823962252970e+00 
398 2 1 1.0281021455902626e+00 -2.2896595213207220e+01 1.0000000000000000e+00 5.8068240927962931e+00 1.7190154076240187e+01 7.4744750923405006e+00 
643 2 1 1.0281062834900363e+00 -3.7380950588039298e+01 1.0000000000000000e+00 6.1087847192946052e+00 1.7360240159173436e+01 7.4275960354356325e+00 
325 2 1 1.0280760950821308e+00 -3.8163866019203837e+01 1.0000000000000000e+00 6.1097910076602862e+00 1.7368606381992073e+01 7.4123178449534812e+00 
53 2 4 2.2938640322379165e+00 -5.1375329242953399e+02 1.0000000000000000e+00 8.0000000000000000e+00 0.0000000000000000e+00 5.0000000000000000e-01 
54 2 4 2.3317557049441873e+00 -1.1340951341494940e+03 1.0000000000000000e+00 8.0000000000000000e+00 1.6000000000000001e+00 5.0000000000000000e-01 
55 2 4 2.3317557049441877e+00 -1.2105767570488283e+03 1.0000000000000000e+00 8.0000000000000000e+00 3.2000000000000002e+00 5.0000000000000000e-01 
66 2 4 2.2938640322379165e+00 -5.1377972893502920e+02 1.0000000000000000e+00 1.0000000000000000e+01 0.0000000000000000e+00 5.0000000000000000e-01 
67 2 4 2.3317557049441873e+00 -1.1341426210322009e+03 1.0000000000000000e+00 1.0000000000000000e+01 1.6000000000000001e+00 5.0000000000000000e-01 
68 2 4 2.3317557049441877e+00 -1.2106071762445174e+03 1.0000000000000000e+00 1.0000000000000000e+01 3.2000000000000002e+00 5.0000000000000000e-01 
79 2 4 2.2938640322379165e+00 -5.1365945713306530e+02 1.0000000000000000e+00 1.2000000000000000e+01 0.0000000000000000e+00 5.0000000000000000e-01 
80 2 4 2.3317557049441873e+00 -1.1339821256530277e+03 1.0000000000000000e+00 1.2000000000000000e+01 1.6000000000000001e+00 5.0000000000000000e-01 
81 2 4 2.3317557049441877e+00 -1.2104554944049937e+03 1.0000000000000000e+00 1.2000000000000000e+01 3.2000000000000002e+00 5.0000000000000000e-01 
56 2 4 2.3317557049441877e+00 -1.2157262124162003e+03 1.0000000000000000e+00 8.0000000000000000e+00 4.7999999999999998e+00 5.0000000000000000e-01 
57 2 4 2.3317557049441877e+00 -1.2183016510310588e+03 1.0000000000000000e+00 8.0000000000000000e+00 6.4000000000000004e+00 5.0000000000000000e-01 
69 2 4 2.3317557049441877e+00 -1.2157652253503629e+03 1.0000000000000000e+00 1.0000000000000000e+01 4.7999999999999998e+00 5.0000000000000000e-01 
70 2 4 2.3317557049441877e+00 -1.2183518156162529e+03 1.0000000000000000e+00 1.0000000000000000e+01 6.4000000000000004e+00 5.0000000000000000e-01 
82 2 4 2.3317557049441877e+00 -1.2155860742658615e+03 1.0000000000000000e+00 1.2000000000000000e+01 4.7999999999999998e+00 5.0000000000000000e-01 
83 2 4 2.3317557049441877e+00 -1.2181455838620818e+03 1.0000000000000000e+00 1.2000000000000000e+01 6.4000000000000004e+00 5.0000000000000000e-01 
58 2 4 2.3317557049441882e+00 -1.2157082136406664e+03 1.0000000000000000e+00 8.0000000000000000e+00 8.0000000000000000e+00 5.0000000000000000e-01 
59 2 4 2.3317557049441882e+00 -1.2246635564989351e+03 1.0000000000000000e+00 8.0000000000000000e+00 9.5999999999999996e+00 5.0000000000000000e-01 
71 2 4 2.3317557049441962e+00 -1.2157397653690271e+03 1.0000000000000000e+00 1.0000000000000000e+01 8.0000000000000000e+00 5.0000000000000000e-01 
72 2 4 2.3317557049443534e+00 -1.2247218555024449e+03 1.0000000000000000e+00 1.0000000000000000e+01 9.5999999999999996e+00 5.0000000000000000e-01 
84 2 4 2.3317557049441882e+00 -1.2155725277685060e+03 1.0000000000000000e+00 1.2000000000000000e+01 8.0000000000000000e+00 5.0000000000000000e-01 
85 2 4 2.3317557049441882e+00 -1.2245038963099237e+03 1.0000000000000000e+00 1.2000000000000000e+01 9.5999999999999996e+00 5.0000000000000000e-01 
160 2 1 1.0279814859290861e+00 -1.2787832959708714e+03 1.0000000000000000e+00 8.9708675115796179e+00 2.2913506252431364e+00 4.3317107940426780e+00 
161 2 1 1.0280313158454046e+00 -1.2606799779121118e+03 1.0000000000000000e+00 8.8470741816958558e+00 2.0957509895413438e+00 4.3837848190554434e+00 
659 2 1 1.0279959672440637e+00 -2.1625044733696782e+01 1.0000000000000000e+00 8.9600281609484274e+00 2.2961378009138786e+00 4.3244209748292839e+00 
673 2 1 1.0280293426868412e+00 -2.1546003338409072e+01 1.0000000000000000e+00 8.7462972453333769e+00 1.7092930097328607e+00 5.5495159194033787e+00 
662 2 1 1.0280422624393595e+00 -4.6618430597785782e+01 1.0000000000000000e+00 8.5561562651568490e+00 1.8290452454846693e+00 4.4928080013991236e+00 
300 2 1 1.0280132257991526e+00 -4.5810636282091174e+01 1.0000000000000000e+00 8.4338460362479353e+00 1.8204188485653554e+00 4.4707082652778585e+00 
382 2 1 1.0280034394045483e+00 -4.4441334250581711e+01 1.0000000000000000e+00 8.4299975238478577e+00 1.8598343798163006e+00 5.9976391156861020e+00 
614 2 1 1.0279297700970544e+00 -8.6351414680893370e+01 1.0000000000000000e+00 6.6923154667922802e+00 2.3277504748385356e+00 5.0414101626972458e+00 
506 2 1 1.0279203266687114e+00 -1.7181473156006128e+01 1.0000000000000000e+00 6.7107497218770833e+00 2.3091874517326114e+00 5.1256680436432607e+00 
687 2 1 1.0279930994411191e+00 -3.3192271816664523e+01 1.0000000000000000e+00 8.2222010262369896e+00 2.5468953112061801e+00 6.4816500783121418e+00 
350 2 1 1.0280792307796673e+00 -2.5758466776562454e+01 1.0000000000000000e+00 7.5196323461182581e+00 3.1396042034337031e+00 6.5054297996000328e+00 
427 2 1 1.0280093661692649e+00 -1.9198984134209184e+01 1.0000000000000000e+00 8.2582298923272184e+00 2.9044221723630423e+00 6.5588383980874401e+00 
421 2 1 1.0277108837030258e+00 -2.1473601777987767e+01 1.0000000000000000e+00 6.9257813348149639e+00 6.0344832852276298e+00 4.3805519097753907e+00 
323 2 1 1.0281974611944718e+00 -2.7585170962624471e+01 1.0000000000000000e+00 6.9315851915725428e+00 5.4702697566413097e+00 4.3894309701235441e+00 
239 2 1 1.0281681775803848e+00 -1.3814592747298099e+02 1.0000000000000000e+00 9.3162517167983498e+00 3.9657818042175847e+00 4.3770812821920977e+00 
772 2 1 1.0280087235339017e+00 -4.5719136471587085e+01 1.0000000000000000e+00 7.7485003258066696e+00 4.8428200295944670e+00 4.5693566401384764e+00 
730 2 1 1.0278277188232781e+00 -1.4890417936292055e+01 1.0000000000000000e+00 8.7343579042512971e+00 5.3151301363791772e+00 4.4585771850222526e+00 
304 2 1 1.0278111783089401e+00 -5.3724304685733244e+01 1.0000000000000000e+00 9.3436573821410089e+00 4.9153372261307053e+00 4.5607149998106298e+00 
345 2 1 1.0283163819803518e+00 -2.3592870311182597e+01 1.0000000000000000e+00 9.2975902573187579e+00 5.6976911848433334e+00 4.4512537337273308e+00 