LAMMPS data file via write_data, version 30 Jul 2016, timestep = 50000000

2772 atoms
8 atom types

0.0000000000000000e+00 1.0000000000000000e+02 xlo xhi
0.0000000000000000e+00 4.0000000000000000e+01 ylo yhi
0.0000000000000000e+00 4.0000000000000000e+01 zlo zhi

Masses

1 3.896
2 5.36
3 20.064
4 8.378
5 8.378
6 8.378
7 8.378
8 8.378

Atoms # meso-molecular

1 2 2 1.4433053052148033e+00 0.0000000000000000e+00 1.0000000000000000e+00 7.0000000000000000e+00 1.0000000000000000e+01 3.0000000000000000e+00 
2 3 2 1.4433053052148033e+00 0.0000000000000000e+00 1.0000000000000000e+00 9.0000000000000000e+00 1.0000000000000000e+01 3.0000000000000000e+00 
3 4 2 1.4433053052148033e+00 0.0000000000000000e+00 1.0000000000000000e+00 1.1000000000000000e+01 1.0000000000000000e+01 3.0000000000000000e+00 
4 5 2 1.4433053052148033e+00 0.0000000000000000e+00 1.0000000000000000e+00 1.3000000000000000e+01 1.0000000000000000e+01 3.0000000000000000e+00 
5 6 2 1.4433053052148033e+00 0.0000000000000000e+00 1.0000000000000000e+00 1.5000000000000000e+01 1.0000000000000000e+01 3.0000000000000000e+00 
6 7 2 1.4433053052148033e+00 0.0000000000000000e+00 1.0000000000000000e+00 1.7000000000000000e+01 1.0000000000000000e+01 3.0000000000000000e+00 
7 8 2 1.4433053052148033e+00 0.0000000000000000e+00 1.0000000000000000e+00 1.9000000000000000e+01 1.0000000000000000e+01 3.0000000000000000e+00 
8 9 2 1.4433053052148033e+00 0.0000000000000000e+00 1.0000000000000000e+00 2.1000000000000000e+01 1.0000000000000000e+01 3.0000000000000000e+00 
9 10 2 1.4433053052148033e+00 0.0000000000000000e+00 1.0000000000000000e+00 2.3000000000000000e+01 1.0000000000000000e+01 3.0000000000000000e+00 
10 11 2 1.4433053052148033e+00 0.0000000000000000e+00 1.0000000000000000e+00 2.5000000000000000e+01 1.0000000000000000e+01 3.0000000000000000e+00 
11 12 2 1.4433053052148033e+00 0.0000000000000000e+00 1.0000000000000000e+00 2.7000000000000000e+01 1.0000000000000000e+01 3.0000000000000000e+00 
12 13 2 1.4433053052148033e+00 0.0000000000000000e+00 1.0000000000000000e+00 2.9000000000000000e+01 1.0000000000000000e+01 3.0000000000000000e+00 
13 14 2 1.4433053052148033e+00 0.0000000000000000e+00 1.0000000000000000e+00 3.1000000000000000e+01 1.0000000000000000e+01 3.0000000000000000e+00 
14 15 2 1.4433053052148033e+00 0.0000000000000000e+00 1.0000000000000000e+00 3.3000000000000000e+01 1.0000000000000000e+01 3.0000000000000000e+00 
463 464 2 1.4433053052148033e+00 0.0000000000000000e+00 1.0000000000000000e+00 7.0000000000000000e+00 1.3400000000000000e+01 3.0000000000000000e+00 
464 465 2 1.4433053052148033e+00 0.0000000000000000e+00 1.0000000000000000e+00 9.0000000000000000e+00 1.3400000000000000e+01 3.0000000000000000e+00 
465 466 2 1.4433053052148033e+00 0.0000000000000000e+00 1.0000000000000000e+00 1.1000000000000000e+01 1.3400000000000000e+01 3.0000000000000000e+00 
466 467 2 1.4433053052148033e+00 0.0000000000000000e+00 1.0000000000000000e+00 1.3000000000000000e+01 1.3400000000000000e+01 3.0000000000000000e+00 
467 468 2 1.4433053052148033e+00 0.0000000000000000e+00 1.0000000000000000e+00 1.5000000000000000e+01 1.3400000000000000e+01 3.0000000000000000e+00 
468 469 2 1.4433053052148033e+00 0.0000000000000000e+00 1.0000000000000000e+00 1.7000000000000000e+01 1.3400000000000000e+01 3.0000000000000000e+00 
469 470 2 1.4433053052148033e+00 0.0000000000000000e+00 1.0000000000000000e+00 1.9000000000000000e+01 1.3400000000000000e+01 3.0000000000000000e+00 
470 471 2 1.4433053052148033e+00 0.0000000000000000e+00 1.0000000000000000e+00 2.1000000000000000e+01 1.3400000000000000e+01 3.0000000000000000e+00 
471 472 2 1.4433053052148033e+00 0.0000000000000000e+00 1.0000000000000000e+00 2.3000000000000000e+01 1.3400000000000000e+01 3.0000000000000000e+00 
472 473 2 1.4433053052148033e+00 0.0000000000000000e+00 1.0000000000000000e+00 2.5000000000000000e+01 1.3400000000000000e+01 3.0000000000000000e+00 
473 474 2 1.4433053052148033e+00 0.0000000000000000e+00 1.0000000000000000e+00 2.7000000000000000e+01 1.3400000000000000e+01 3.0000000000000000e+00 
474 475 2 1.4433053052148033e+00 0.0000000000000000e+00 1.0000000000000000e+00 2.9000000000000000e+01 1.3400000000000000e+01 3.0000000000000000e+00 
475 476 2 1.4433053052148033e+00 0.0000000000000000e+00 1.0000000000000000e+00 3.1000000000000000e+01 1.3400000000000000e+01 3.0000000000000000e+00 
476 477 2 1.4433053052148033e+00 0.0000000000000000e+00 1.0000000000000000e+00 3.3000000000000000e+01 1.3400000000000000e+01 3.0000000000000000e+00 
925 926 2 1.4433053052148033e+00 0.0000000000000000e+00 1.0000000000000000e+00 7.0000000000000000e+00 1.6800000000000001e+01 3.0000000000000000e+00 
926 927 2 1.4433053052148033e+00 0.0000000000000000e+00 1.0000000000000000e+00 9.0000000000000000e+00 1.6800000000000001e+01 3.0000000000000000e+00 
927 928 2 1.4433053052148033e+00 0.0000000000000000e+00 1.0000000000000000e+00 1.1000000000000000e+01 1.6800000000000001e+01 3.0000000000000000e+00 
928 929 2 1.4433053052148033e+00 0.0000000000000000e+00 1.0000000000000000e+00 1.3000000000000000e+01 1.6800000000000001e+01 3.0000000000000000e+00 
929 930 2 1.4433053052148033e+00 0.0000000000000000e+00 1.0000000000000000e+00 1.5000000000000000e+01 1.6800000000000001e+01 3.0000000000000000e+00 
930 931 2 1.4433053052148033e+00 0.0000000000000000e+00 1.0000000000000000e+00 1.7000000000000000e+01 1.6800000000000001e+01 3.0000000000000000e+00 
931 932 2 1.4433053052148033e+00 0.0000000000000000e+00 1.0000000000000000e+00 1.9000000000000000e+01 1.6800000000000001e+01 3.0000000000000000e+00 
932 933 2 1.4433053052148033e+00 0.0000000000000000e+00 1.0000000000000000e+00 2.1000000000000000e+01 1.6800000000000001e+01 3.0000000000000000e+00 
933 934 2 1.4433053052148033e+00 0.0000000000000000e+00 1.0000000000000000e+00 2.3000000000000000e+01 1.6800000000000001e+01 3.0000000000000000e+00 
934 935 2 1.4433053052148033e+00 0.0000000000000000e+00 1.0000000000000000e+00 2.5000000000000000e+01 1.6800000000000001e+01 3.0000000000000000e+00 
935 936 2 1.4433053052148033e+00 0.0000000000000000e+00 1.0000000000000000e+00 2.7000000000000000e+01 1.6800000000000001e+01 3.0000000000000000e+00 
936 937 2 1.4433053052148033e+00 0.0000000000000000e+00 1.0000000000000000e+00 2.9000000000000000e+01 1.6800000000000001e+01 3.0000000000000000e+00 
937 938 2 1.4433053052148033e+00 0.0000000000000000e+00 1.0000000000000000e+00 3.1000000000000000e+01 1.6800000000000001e+01 3.0000000000000000e+00 
938 939 2 1.4433053052148033e+00 0.0000000000000000e+00 1.0000000000000000e+00 3.3000000000000000e+01 1.6800000000000001e+01 3.0000000000000000e+00 
43 44 2 1.4433053052148033e+00 0.0000000000000000e+00 1.0000000000000000e+00 7.0000000000000000e+00 1.0000000000000000e+01 5.0000000000000000e+00 
44 45 2 1.4433053052148033e+00 0.0000000000000000e+00 1.0000000000000000e+00 9.0000000000000000e+00 1.0000000000000000e+01 5.0000000000000000e+00 
45 46 2 1.4433053052148033e+00 0.0000000000000000e+00 1.0000000000000000e+00 1.1000000000000000e+01 1.0000000000000000e+01 5.0000000000000000e+00 
46 47 2 1.4433053052148033e+00 0.0000000000000000e+00 1.0000000000000000e+00 1.3000000000000000e+01 1.0000000000000000e+01 5.0000000000000000e+00 
47 48 2 1.4433053052148033e+00 0.0000000000000000e+00 1.0000000000000000e+00 1.5000000000000000e+01 1.0000000000000000e+01 5.0000000000000000e+00 
48 49 2 1.4433053052148033e+00 0.0000000000000000e+00 1.0000000000000000e+00 1.7000000000000000e+01 1.0000000000000000e+01 5.0000000000000000e+00 
49 50 2 1.4433053052148033e+00 0.0000000000000000e+00 1.0000000000000000e+00 1.9000000000000000e+01 1.0000000000000000e+01 5.0000000000000000e+00 
50 51 2 1.4433053052148033e+00 0.0000000000000000e+00 1.0000000000000000e+00 2.1000000000000000e+01 1.0000000000000000e+01 5.0000000000000000e+00 
51 52 2 1.4433053052148033e+00 0.0000000000000000e+00 1.0000000000000000e+00 2.3000000000000000e+01 1.0000000000000000e+01 5.0000000000000000e+00 
52 53 2 1.4433053052148033e+00 0.0000000000000000e+00 1.0000000000000000e+00 2.5000000000000000e+01 1.0000000000000000e+01 5.0000000000000000e+00 
53 54 2 1.4433053052148033e+00 0.0000000000000000e+00 1.0000000000000000e+00 2.7000000000000000e+01 1.0000000000000000e+01 5.0000000000000000e+00 
54 55 2 1.4433053052148033e+00 0.0000000000000000e+00 1.0000000000000000e+00 2.9000000000000000e+01 1.0000000000000000e+01 5.0000000000000000e+00 
55 56 2 1.4433053052148033e+00 0.0000000000000000e+00 1.0000000000000000e+00 3.1000000000000000e+01 1.0000000000000000e+01 5.0000000000000000e+00 
56 57 2 1.4433053052148033e+00 0.0000000000000000e+00 1.0000000000000000e+00 3.3000000000000000e+01 1.0000000000000000e+01 5.0000000000000000e+00 
505 506 2 1.4433053052148033e+00 0.0000000000000000e+00 1.0000000000000000e+00 7.0000000000000000e+00 1.3400000000000000e+01 5.0000000000000000e+00 
506 507 2 1.4433053052148033e+00 0.0000000000000000e+00 1.0000000000000000e+00 9.0000000000000000e+00 1.3400000000000000e+01 5.0000000000000000e+00 
507 508 2 1.4433053052148033e+00 0.0000000000000000e+00 1.0000000000000000e+00 1.1000000000000000e+01 1.3400000000000000e+01 5.0000000000000000e+00 
508 509 2 1.4433053052148033e+00 0.0000000000000000e+00 1.0000000000000000e+00 1.3000000000000000e+01 1.3400000000000000e+01 5.0000000000000000e+00 
509 510 2 1.4433053052148033e+00 0.0000000000000000e+00 1.0000000000000000e+00 1.5000000000000000e+01 1.3400000000000000e+01 5.0000000000000000e+00 
510 511 2 1.4433053052148033e+00 0.0000000000000000e+00 1.0000000000000000e+00 1.7000000000000000e+01 1.3400000000000000e+01 5.0000000000000000e+00 
511 512 2 1.4433053052148033e+00 0.0000000000000000e+00 1.0000000000000000e+00 1.9000000000000000e+01 1.3400000000000000e+01 5.0000000000000000e+00 
512 513 2 1.4433053052148033e+00 0.0000000000000000e+00 1.0000000000000000e+00 2.1000000000000000e+01 1.3400000000000000e+01 5.0000000000000000e+00 
513 514 2 1.4433053052148033e+00 0.0000000000000000e+00 1.0000000000000000e+00 2.3000000000000000e+01 1.3400000000000000e+01 5.0000000000000000e+00 
514 515 2 1.4433053052148033e+00 0.0000000000000000e+00 1.0000000000000000e+00 2.5000000000000000e+01 1.3400000000000000e+01 5.0000000000000000e+00 
515 516 2 1.4433053052148033e+00 0.0000000000000000e+00 1.0000000000000000e+00 2.7000000000000000e+01 1.3400000000000000e+01 5.0000000000000000e+00 
516 517 2 1.4433053052148033e+00 0.0000000000000000e+00 1.0000000000000000e+00 2.9000000000000000e+01 1.3400000000000000e+01 5.0000000000000000e+00 
517 518 2 1.4433053052148033e+00 0.0000000000000000e+00 1.0000000000000000e+00 3.1000000000000000e+01 1.3400000000000000e+01 5.0000000000000000e+00 
518 519 2 1.4433053052148033e+00 0.0000000000000000e+00 1.0000000000000000e+00 3.3000000000000000e+01 1.3400000000000000e+01 5.0000000000000000e+00 
967 968 2 1.4433053052148033e+00 0.0000000000000000e+00 1.0000000000000000e+00 7.0000000000000000e+00 1.6800000000000001e+01 5.0000000000000000e+00 
968 969 2 1.4433053052148033e+00 0.0000000000000000e+00 1.0000000000000000e+00 9.0000000000000000e+00 1.6800000000000001e+01 5.0000000000000000e+00 
969 970 2 1.4433053052148033e+00 0.0000000000000000e+00 1.0000000000000000e+00 1.1000000000000000e+01 1.6800000000000001e+01 5.0000000000000000e+00 
970 971 2 1.4433053052148033e+00 0.0000000000000000e+00 1.0000000000000000e+00 1.3000000000000000e+01 1.6800000000000001e+01 5.0000000000000000e+00 
971 972 2 1.4433053052148033e+00 0.0000000000000000e+00 1.0000000000000000e+00 1.5000000000000000e+01 1.6800000000000001e+01 5.0000000000000000e+00 
972 973 2 1.4433053052148033e+00 0.0000000000000000e+00 1.0000000000000000e+00 1.7000000000000000e+01 1.6800000000000001e+01 5.0000000000000000e+00 
973 974 2 1.4433053052148033e+00 0.0000000000000000e+00 1.0000000000000000e+00 1.9000000000000000e+01 1.6800000000000001e+01 5.0000000000000000e+00 
974 975 2 1.4433053052148033e+00 0.0000000000000000e+00 1.0000000000000000e+00 2.1000000000000000e+01 1.6800000000000001e+01 5.0000000000000000e+00 
975 976 2 1.4433053052148033e+00 0.0000000000000000e+00 1.0000000000000000e+00 2.3000000000000000e+01 1.6800000000000001e+01 5.0000000000000000e+00 
976 977 2 1.4433053052148033e+00 0.0000000000000000e+00 1.0000000000000000e+00 2.5000000000000000e+01 1.6800000000000001e+01 5.0000000000000000e+00 
977 978 2 1.4433053052148033e+00 0.0000000000000000e+00 1.0000000000000000e+00 2.7000000000000000e+01 1.6800000000000001e+01 5.0000000000000000e+00 
978 979 2 1.4433053052148033e+00 0.0000000000000000e+00 1.0000000000000000e+00 2.9000000000000000e+01 1.6800000000000001e+01 5.0000000000000000e+00 
979 980 2 1.4433053052148033e+00 0.0000000000000000e+00 1.0000000000000000e+00 3.1000000000000000e+01 1.6800000000000001e+01 5.0000000000000000e+00 
980 981 2 1.4433053052148033e+00 0.0000000000000000e+00 1.0000000000000000e+00 3.3000000000000000e+01 1.6800000000000001e+01 5.0000000000000000e+00 
85 86 2 1.4433053052148033e+00 0.0000000000000000e+00 1.0000000000000000e+00 7.0000000000000000e+00 1.0000000000000000e+01 7.0000000000000000e+00 
86 87 2 1.4433053052148033e+00 0.0000000000000000e+00 1.0000000000000000e+00 9.0000000000000000e+00 1.0000000000000000e+01 7.0000000000000000e+00 
87 88 2 1.4433053052148033e+00 0.0000000000000000e+00 1.0000000000000000e+00 1.1000000000000000e+01 1.0000000000000000e+01 7.0000000000000000e+00 
88 89 2 1.4433053052148033e+00 0.0000000000000000e+00 1.0000000000000000e+00 1.3000000000000000e+01 1.0000000000000000e+01 7.0000000000000000e+00 
89 90 2 1.4433053052148033e+00 0.0000000000000000e+00 1.0000000000000000e+00 1.5000000000000000e+01 1.0000000000000000e+01 7.0000000000000000e+00 
90 91 2 1.4433053052148033e+00 0.0000000000000000e+00 1.0000000000000000e+00 1.7000000000000000e+01 1.0000000000000000e+01 7.0000000000000000e+00 
91 92 2 1.4433053052148033e+00 0.0000000000000000e+00 1.0000000000000000e+00 1.9000000000000000e+01 1.0000000000000000e+01 7.0000000000000000e+00 
92 93 2 1.4433053052148033e+00 0.0000000000000000e+00 1.0000000000000000e+00 2.1000000000000000e+01 1.0000000000000000e+01 7.0000000000000000e+00 
93 94 2 1.4433053052148033e+00 0.0000000000000000e+00 1.0000000000000000e+00 2.3000000000000000e+01 1.0000000000000000e+01 7.0000000000000000e+00 
94 95 2 1.4433053052148033e+00 0.0000000000000000e+00 1.0000000000000000e+00 2.5000000000000000e+01 1.0000000000000000e+01 7.0000000000000000e+00 
95 96 2 1.4433053052148033e+00 0.0000000000000000e+00 1.0000000000000000e+00 2.7000000000000000e+01 1.0000000000000000e+01 7.0000000000000000e+00 
96 97 2 1.4433053052148033e+00 0.0000000000000000e+00 1.0000000000000000e+00 2.9000000000000000e+01 1.0000000000000000e+01 7.0000000000000000e+00 
97 98 2 1.4433053052148033e+00 0.0000000000000000e+00 1.0000000000000000e+00 3.1000000000000000e+01 1.0000000000000000e+01 7.0000000000000000e+00 
98 99 2 1.4433053052148033e+00 0.0000000000000000e+00 1.0000000000000000e+00 3.3000000000000000e+01 1.0000000000000000e+01 7.0000000000000000e+00 
547 548 2 1.4433053052148033e+00 0.0000000000000000e+00 1.0000000000000000e+00 7.0000000000000000e+00 1.3400000000000000e+01 7.0000000000000000e+00 
548 549 2 1.4433053052148033e+00 0.0000000000000000e+00 1.0000000000000000e+00 9.0000000000000000e+00 1.3400000000000000e+01 7.0000000000000000e+00 
549 550 2 1.4433053052148033e+00 0.0000000000000000e+00 1.0000000000000000e+00 1.1000000000000000e+01 1.3400000000000000e+01 7.0000000000000000e+00 
550 551 2 1.4433053052148033e+00 0.0000000000000000e+00 1.0000000000000000e+00 1.3000000000000000e+01 1.3400000000000000e+01 7.0000000000000000e+00 
551 552 2 1.4433053052148033e+00 0.0000000000000000e+00 1.0000000000000000e+00 1.5000000000000000e+01 1.3400000000000000e+01 7.0000000000000000e+00 
552 553 2 1.4433053052148033e+00 0.0000000000000000e+00 1.0000000000000000e+00 1.7000000000000000e+01 1.3400000000000000e+01 7.0000000000000000e+00 
553 554 2 1.4433053052148033e+00 0.0000000000000000e+00 1.0000000000000000e+00 1.9000000000000000e+01 1.3400000000000000e+01 7.0000000000000000e+00 
554 555 2 1.4433053052148033e+00 0.0000000000000000e+00 1.0000000000000000e+00 2.1000000000000000e+01 1.3400000000000000e+01 7.0000000000000000e+00 
555 556 2 1.4433053052148033e+00 0.0000000000000000e+00 1.0000000000000000e+00 2.3000000000000000e+01 1.3400000000000000e+01 7.0000000000000000e+00 
556 557 2 1.4433053052148033e+00 0.0000000000000000e+00 1.0000000000000000e+00 2.5000000000000000e+01 1.3400000000000000e+01 7.0000000000000000e+00 
557 558 2 1.4433053052148033e+00 0.0000000000000000e+00 1.0000000000000000e+00 2.7000000000000000e+01 1.3400000000000000e+01 7.0000000000000000e+00 
558 559 2 1.4433053052148033e+00 0.0000000000000000e+00 1.0000000000000000e+00 2.9000000000000000e+01 1.3400000000000000e+01 7.0000000000000000e+00 
559 560 2 1.4433053052148033e+00 0.0000000000000000e+00 1.0000000000000000e+00 3.1000000000000000e+01 1.3400000000000000e+01 7.0000000000000000e+00 
560 561 2 1.4433053052148033e+00 0.0000000000000000e+00 1.0000000000000000e+00 3.3000000000000000e+01 1.3400000000000000e+01 7.0000000000000000e+00 
1009 1010 2 1.4433053052148033e+00 0.0000000000000000e+00 1.0000000000000000e+00 7.0000000000000000e+00 1.6800000000000001e+01 7.0000000000000000e+00 
1010 1011 2 1.4433053052148033e+00 0.0000000000000000e+00 1.0000000000000000e+00 9.0000000000000000e+00 1.6800000000000001e+01 7.0000000000000000e+00 
1011 1012 2 1.4433053052148033e+00 0.0000000000000000e+00 1.0000000000000000e+00 1.1000000000000000e+01 1.6800000000000001e+01 7.0000000000000000e+00 
1012 1013 2 1.4433053052148033e+00 0.0000000000000000e+00 1.0000000000000000e+00 1.3000000000000000e+01 1.6800000000000001e+01 7.0000000000000000e+00 
1013 1014 2 1.4433053052148033e+00 0.0000000000000000e+00 1.0000000000000000e+00 1.5000000000000000e+01 1.6800000000000001e+01 7.0000000000000000e+00 
1014 1015 2 1.4433053052148033e+00 0.0000000000000000e+00 1.0000000000000000e+00 1.7000000000000000e+01 1.6800000000000001e+01 7.0000000000000000e+00 
1015 1016 2 1.4433053052148033e+00 0.0000000000000000e+00 1.0000000000000000e+00 1.9000000000000000e+01 1.6800000000000001e+01 7.0000000000000000e+00 
1016 1017 2 1.4433053052148033e+00 0.0000000000000000e+00 1.0000000000000000e+00 2.1000000000000000e+01 1.6800000000000001e+01 7.0000000000000000e+00 
1017 1018 2 1.4433053052148033e+00 0.0000000000000000e+00 1.0000000000000000e+00 2.3000000000000000e+01 1.6800000000000001e+01 7.0000000000000000e+00 
1018 1019 2 1.4433053052148033e+00 0.0000000000000000e+00 1.0000000000000000e+00 2.5000000000000000e+01 1.6800000000000001e+01 7.0000000000000000e+00 
1019 1020 2 1.4433053052148033e+00 0.0000000000000000e+00 1.0000000000000000e+00 2.7000000000000000e+01 1.6800000000000001e+01 7.0000000000000000e+00 
1020 1021 2 1.4433053052148033e+00 0.0000000000000000e+00 1.0000000000000000e+00 2.9000000000000000e+01 1.6800000000000001e+01 7.0000000000000000e+00 
1021 1022 2 1.4433053052148033e+00 0.0000000000000000e+00 1.0000000000000000e+00 3.1000000000000000e+01 1.6800000000000001e+01 7.0000000000000000e+00 
1022 1023 2 1.4433053052148033e+00 0.0000000000000000e+00 1.0000000000000000e+00 3.3000000000000000e+01 1.6800000000000001e+01 7.0000000000000000e+00 
127 128 2 1.4433053052148033e+00 0.0000000000000000e+00 1.0000000000000000e+00 7.0000000000000000e+00 1.0000000000000000e+01 9.0000000000000000e+00 
128 129 2 1.4433053052148033e+00 0.0000000000000000e+00 1.0000000000000000e+00 9.0000000000000000e+00 1.0000000000000000e+01 9.0000000000000000e+00 
129 130 2 1.4433053052148033e+00 0.0000000000000000e+00 1.0000000000000000e+00 1.1000000000000000e+01 1.0000000000000000e+01 9.0000000000000000e+00 
130 131 2 1.4433053052148033e+00 0.0000000000000000e+00 1.0000000000000000e+00 1.3000000000000000e+01 1.0000000000000000e+01 9.0000000000000000e+00 
131 132 2 1.4433053052148033e+00 0.0000000000000000e+00 1.0000000000000000e+00 1.5000000000000000e+01 1.0000000000000000e+01 9.0000000000000000e+00 
132 133 2 1.4433053052148033e+00 0.0000000000000000e+00 1.0000000000000000e+00 1.7000000000000000e+01 1.0000000000000000e+01 9.0000000000000000e+00 
133 134 2 1.4433053052148033e+00 0.0000000000000000e+00 1.0000000000000000e+00 1.9000000000000000e+01 1.0000000000000000e+01 9.0000000000000000e+00 
134 135 2 1.4433053052148033e+00 0.0000000000000000e+00 1.0000000000000000e+00 2.1000000000000000e+01 1.0000000000000000e+01 9.0000000000000000e+00 
135 136 2 1.4433053052148033e+00 0.0000000000000000e+00 1.0000000000000000e+00 2.3000000000000000e+01 1.0000000000000000e+01 9.0000000000000000e+00 
136 137 2 1.4433053052148033e+00 0.0000000000000000e+00 1.0000000000000000e+00 2.5000000000000000e+01 1.0000000000000000e+01 9.0000000000000000e+00 
137 138 2 1.4433053052148033e+00 0.0000000000000000e+00 1.0000000000000000e+00 2.7000000000000000e+01 1.0000000000000000e+01 9.0000000000000000e+00 
138 139 2 1.4433053052148033e+00 0.0000000000000000e+00 1.0000000000000000e+00 2.9000000000000000e+01 1.0000000000000000e+01 9.0000000000000000e+00 
139 140 2 1.4433053052148033e+00 0.0000000000000000e+00 1.0000000000000000e+00 3.1000000000000000e+01 1.0000000000000000e+01 9.0000000000000000e+00 
140 141 2 1.4433053052148033e+00 0.0000000000000000e+00 1.0000000000000000e+00 3.3000000000000000e+01 1.0000000000000000e+01 9.0000000000000000e+00 
589 590 2 1.4433053052148033e+00 0.0000000000000000e+00 1.0000000000000000e+00 7.0000000000000000e+00 1.3400000000000000e+01 9.0000000000000000e+00 
590 591 2 1.4433053052148033e+00 0.0000000000000000e+00 1.0000000000000000e+00 9.0000000000000000e+00 1.3400000000000000e+01 9.0000000000000000e+00 
591 592 2 1.4433053052148033e+00 0.0000000000000000e+00 1.0000000000000000e+00 1.1000000000000000e+01 1.3400000000000000e+01 9.0000000000000000e+00 
592 593 2 1.4433053052148033e+00 0.0000000000000000e+00 1.0000000000000000e+00 1.3000000000000000e+01 1.3400000000000000e+01 9.0000000000000000e+00 
593 594 2 1.4433053052148033e+00 0.0000000000000000e+00 1.0000000000000000e+00 1.5000000000000000e+01 1.3400000000000000e+01 9.0000000000000000e+00 
594 595 2 1.4433053052148033e+00 0.0000000000000000e+00 1.0000000000000000e+00 1.7000000000000000e+01 1.3400000000000000e+01 9.0000000000000000e+00 
595 596 2 1.4433053052148033e+00 0.0000000000000000e+00 1.0000000000000000e+00 1.9000000000000000e+01 1.3400000000000000e+01 9.0000000000000000e+00 
596 597 2 1.4433053052148033e+00 0.0000000000000000e+00 1.0000000000000000e+00 2.1000000000000000e+01 1.3400000000000000e+01 9.0000000000000000e+00 
597 598 2 1.4433053052148033e+00 0.0000000000000000e+00 1.0000000000000000e+00 2.3000000000000000e+01 1.3400000000000000e+01 9.0000000000000000e+00 
598 599 2 1.4433053052148033e+00 0.0000000000000000e+00 1.0000000000000000e+00 2.5000000000000000e+01 1.3400000000000000e+01 9.0000000000000000e+00 
599 600 2 1.4433053052148033e+00 0.0000000000000000e+00 1.0000000000000000e+00 2.7000000000000000e+01 1.3400000000000000e+01 9.0000000000000000e+00 
600 601 2 1.4433053052148033e+00 0.0000000000000000e+00 1.0000000000000000e+00 2.9000000000000000e+01 1.3400000000000000e+01 9.0000000000000000e+00 
601 602 2 1.4433053052148033e+00 0.0000000000000000e+00 1.0000000000000000e+00 3.1000000000000000e+01 1.3400000000000000e+01 9.0000000000000000e+00 
602 603 2 1.4433053052148033e+00 0.0000000000000000e+00 1.0000000000000000e+00 3.3000000000000000e+01 1.3400000000000000e+01 9.0000000000000000e+00 
1051 1052 2 1.4433053052148033e+00 0.0000000000000000e+00 1.0000000000000000e+00 7.0000000000000000e+00 1.6800000000000001e+01 9.0000000000000000e+00 
1052 1053 2 1.4433053052148033e+00 0.0000000000000000e+00 1.0000000000000000e+00 9.0000000000000000e+00 1.6800000000000001e+01 9.0000000000000000e+00 
1053 1054 2 1.4433053052148033e+00 0.0000000000000000e+00 1.0000000000000000e+00 1.1000000000000000e+01 1.6800000000000001e+01 9.0000000000000000e+00 
1054 1055 2 1.4433053052148033e+00 0.0000000000000000e+00 1.0000000000000000e+00 1.3000000000000000e+01 1.6800000000000001e+01 9.0000000000000000e+00 
1055 1056 2 1.4433053052148033e+00 0.0000000000000000e+00 1.0000000000000000e+00 1.5000000000000000e+01 1.6800000000000001e+01 9.0000000000000000e+00 
1056 1057 2 1.4433053052148033e+00 0.0000000000000000e+00 1.0000000000000000e+00 1.7000000000000000e+01 1.6800000000000001e+01 9.0000000000000000e+00 
1057 1058 2 1.4433053052148033e+00 0.0000000000000000e+00 1.0000000000000000e+00 1.9000000000000000e+01 1.6800000000000001e+01 9.0000000000000000e+00 
1058 1059 2 1.4433053052148033e+00 0.0000000000000000e+00 1.0000000000000000e+00 2.1000000000000000e+01 1.6800000000000001e+01 9.0000000000000000e+00 
1059 1060 2 1.4433053052148033e+00 0.0000000000000000e+00 1.0000000000000000e+00 2.3000000000000000e+01 1.6800000000000001e+01 9.0000000000000000e+00 
1060 1061 2 1.4433053052148033e+00 0.0000000000000000e+00 1.0000000000000000e+00 2.5000000000000000e+01 1.6800000000000001e+01 9.0000000000000000e+00 
1061 1062 2 1.4433053052148033e+00 0.0000000000000000e+00 1.0000000000000000e+00 2.7000000000000000e+01 1.6800000000000001e+01 9.0000000000000000e+00 
1062 1063 2 1.4433053052148033e+00 0.0000000000000000e+00 1.0000000000000000e+00 2.9000000000000000e+01 1.6800000000000001e+01 9.0000000000000000e+00 
1063 1064 2 1.4433053052148033e+00 0.0000000000000000e+00 1.0000000000000000e+00 3.1000000000000000e+01 1.6800000000000001e+01 9.0000000000000000e+00 
1064 1065 2 1.4433053052148033e+00 0.0000000000000000e+00 1.0000000000000000e+00 3.3000000000000000e+01 1.6800000000000001e+01 9.0000000000000000e+00 
169 170 2 1.4433053052148033e+00 0.0000000000000000e+00 1.0000000000000000e+00 7.0000000000000000e+00 1.0000000000000000e+01 1.1000000000000000e+01 
170 171 2 1.4433053052148033e+00 0.0000000000000000e+00 1.0000000000000000e+00 9.0000000000000000e+00 1.0000000000000000e+01 1.1000000000000000e+01 
171 172 2 1.4433053052148033e+00 0.0000000000000000e+00 1.0000000000000000e+00 1.1000000000000000e+01 1.0000000000000000e+01 1.1000000000000000e+01 
172 173 2 1.4433053052148033e+00 0.0000000000000000e+00 1.0000000000000000e+00 1.3000000000000000e+01 1.0000000000000000e+01 1.1000000000000000e+01 
173 174 2 1.4433053052148033e+00 0.0000000000000000e+00 1.0000000000000000e+00 1.5000000000000000e+01 1.0000000000000000e+01 1.1000000000000000e+01 
174 175 2 1.4433053052148033e+00 0.0000000000000000e+00 1.0000000000000000e+00 1.7000000000000000e+01 1.0000000000000000e+01 1.1000000000000000e+01 
175 176 2 1.4433053052148033e+00 0.0000000000000000e+00 1.0000000000000000e+00 1.9000000000000000e+01 1.0000000000000000e+01 1.1000000000000000e+01 
176 177 2 1.4433053052148033e+00 0.0000000000000000e+00 1.0000000000000000e+00 2.1000000000000000e+01 1.0000000000000000e+01 1.1000000000000000e+01 
177 178 2 1.4433053052148033e+00 0.0000000000000000e+00 1.0000000000000000e+00 2.3000000000000000e+01 1.0000000000000000e+01 1.1000000000000000e+01 
178 179 2 1.4433053052148033e+00 0.0000000000000000e+00 1.0000000000000000e+00 2.5000000000000000e+01 1.0000000000000000e+01 1.1000000000000000e+01 
179 180 2 1.4433053052148033e+00 0.0000000000000000e+00 1.0000000000000000e+00 2.7000000000000000e+01 1.0000000000000000e+01 1.1000000000000000e+01 
180 181 2 1.4433053052148033e+00 0.0000000000000000e+00 1.0000000000000000e+00 2.9000000000000000e+01 1.0000000000000000e+01 1.1000000000000000e+01 
181 182 2 1.4433053052148033e+00 0.0000000000000000e+00 1.0000000000000000e+00 3.1000000000000000e+01 1.0000000000000000e+01 1.1000000000000000e+01 
182 183 2 1.4433053052148033e+00 0.0000000000000000e+00 1.0000000000000000e+00 3.3000000000000000e+01 1.0000000000000000e+01 1.1000000000000000e+01 
631 632 2 1.4433053052148033e+00 0.0000000000000000e+00 1.0000000000000000e+00 7.0000000000000000e+00 1.3400000000000000e+01 1.1000000000000000e+01 
632 633 2 1.4433053052148033e+00 0.0000000000000000e+00 1.0000000000000000e+00 9.0000000000000000e+00 1.3400000000000000e+01 1.1000000000000000e+01 
633 634 2 1.4433053052148033e+00 0.0000000000000000e+00 1.0000000000000000e+00 1.1000000000000000e+01 1.3400000000000000e+01 1.1000000000000000e+01 
634 635 2 1.4433053052148033e+00 0.0000000000000000e+00 1.0000000000000000e+00 1.3000000000000000e+01 1.3400000000000000e+01 1.1000000000000000e+01 
635 636 2 1.4433053052148033e+00 0.0000000000000000e+00 1.0000000000000000e+00 1.5000000000000000e+01 1.3400000000000000e+01 1.1000000000000000e+01 
636 637 2 1.4433053052148033e+00 0.0000000000000000e+00 1.0000000000000000e+00 1.7000000000000000e+01 1.3400000000000000e+01 1.1000000000000000e+01 
637 638 2 1.4433053052148033e+00 0.0000000000000000e+00 1.0000000000000000e+00 1.9000000000000000e+01 1.3400000000000000e+01 1.1000000000000000e+01 
638 639 2 1.4433053052148033e+00 0.0000000000000000e+00 1.0000000000000000e+00 2.1000000000000000e+01 1.3400000000000000e+01 1.1000000000000000e+01 
639 640 2 1.4433053052148033e+00 0.0000000000000000e+00 1.0000000000000000e+00 2.3000000000000000e+01 1.3400000000000000e+01 1.1000000000000000e+01 
640 641 2 1.4433053052148033e+00 0.0000000000000000e+00 1.0000000000000000e+00 2.5000000000000000e+01 1.3400000000000000e+01 1.1000000000000000e+01 
641 642 2 1.4433053052148033e+00 0.0000000000000000e+00 1.0000000000000000e+00 2.7000000000000000e+01 1.3400000000000000e+01 1.1000000000000000e+01 
642 643 2 1.4433053052148033e+00 0.0000000000000000e+00 1.0000000000000000e+00 2.9000000000000000e+01 1.3400000000000000e+01 1.1000000000000000e+01 
643 644 2 1.4433053052148033e+00 0.0000000000000000e+00 1.0000000000000000e+00 3.1000000000000000e+01 1.3400000000000000e+01 1.1000000000000000e+01 
644 645 2 1.4433053052148033e+00 0.0000000000000000e+00 1.0000000000000000e+00 3.3000000000000000e+01 1.3400000000000000e+01 1.1000000000000000e+01 
1093 1094 2 1.4433053052148033e+00 0.0000000000000000e+00 1.0000000000000000e+00 7.0000000000000000e+00 1.6800000000000001e+01 1.1000000000000000e+01 
1094 1095 2 1.4433053052148033e+00 0.0000000000000000e+00 1.0000000000000000e+00 9.0000000000000000e+00 1.6800000000000001e+01 1.1000000000000000e+01 
1095 1096 2 1.4433053052148033e+00 0.0000000000000000e+00 1.0000000000000000e+00 1.1000000000000000e+01 1.6800000000000001e+01 1.1000000000000000e+01 