LAMMPS data file via write_data, version 30 Jul 2016, timestep = 50400000

644 atoms
2 atom types

0.0000000000000000e+00 2.0000000000000000e+01 xlo xhi
0.0000000000000000e+00 2.0000000000000000e+01 ylo yhi
0.0000000000000000e+00 2.0000000000000000e+01 zlo zhi

Masses

1 4.31
2 3.896

Atoms # meso-molecular

174 0 1 1.0280000000000769e+00 8.2280820420100262e+00 1.0000000000000000e+00 5.6686289605991851e+00 4.6612329981841052e+00 3.3204030332559960e+00 
486 0 1 1.0279999999999607e+00 9.7258211096399432e+00 1.0000000000000000e+00 4.0070851432307935e+00 4.8260062968022979e+00 3.2324183405374942e+00 
559 0 1 1.0279999999999543e+00 7.9383721181541391e+00 1.0000000000000000e+00 4.0597038046788843e+00 4.8090347407588894e+00 3.1942134905453736e+00 
493 0 1 1.0279999999999816e+00 5.8836699514602122e+00 1.0000000000000000e+00 4.0992140183919616e+00 4.8050678571150618e+00 3.1636326080300106e+00 
167 0 1 1.0279999999999669e+00 1.4220122008689083e+01 1.0000000000000000e+00 5.4581213757054945e+00 6.5552119155743567e+00 2.1998047263789782e+00 
635 0 1 1.0279999999995226e+00 8.7043448749886920e+00 1.0000000000000000e+00 3.2892767422101943e-01 8.0723294647748336e+00 2.3229498482991282e+00 
19 0 1 1.0280000000000473e+00 -9.9418673493780529e-01 1.0000000000000000e+00 1.6420754238042519e+00 8.0060989915122445e+00 1.6871373191327284e+00 
444 0 1 1.0280000000004916e+00 9.9577898896479855e+00 1.0000000000000000e+00 2.2962336782393025e+00 9.3167373850043411e+00 1.5194670971960700e+00 
248 0 1 1.0279999999992691e+00 2.1723886790165441e+01 1.0000000000000000e+00 5.8605620609859987e-01 7.6939011407627635e+00 1.1790150067633109e+00 
325 0 1 1.0280000000000484e+00 1.8856906080698387e+01 1.0000000000000000e+00 1.5147885972859958e+00 7.5542289630980139e+00 6.3353700904388910e-01 
340 0 1 1.0280000000000924e+00 1.4464976228892272e+01 1.0000000000000000e+00 2.3108860926195893e+00 7.3343923235930788e+00 3.5445165330203715e-01 
480 0 1 1.0280000000000220e+00 1.4342722042495124e+01 1.0000000000000000e+00 2.5779560641979895e+00 7.3244594365456397e+00 2.0122177497548802e-01 
308 0 1 1.0279999999999048e+00 5.9662932807512590e+00 1.0000000000000000e+00 3.5389155377406731e+00 6.7674276662180617e+00 1.6947744717860660e+00 
315 0 1 1.0279999999998100e+00 -9.5327396946665051e+00 1.0000000000000000e+00 3.4532255662284950e+00 6.8380116018789883e+00 1.7801355070788110e+00 
143 0 1 1.0279999999997469e+00 1.3094238712554777e+01 1.0000000000000000e+00 5.6976643228431856e+00 7.1281489074437037e+00 3.2980193092067109e+00 
399 0 1 1.0280000000002341e+00 7.8054549039018717e+00 1.0000000000000000e+00 4.0626734721632767e+00 8.3798748770268450e+00 2.5246742812296707e+00 
313 0 1 1.0279999999999392e+00 1.8892940030798584e+01 1.0000000000000000e+00 5.7640165623982362e+00 9.3901014929426552e+00 2.4497811875801707e+00 
398 0 1 1.0279999999999223e+00 1.4261987044903554e+01 1.0000000000000000e+00 4.6024275411488267e+00 9.1961167563184318e+00 2.3843145316143590e+00 
245 0 1 1.0280000000002505e+00 -1.4820338357140241e+01 1.0000000000000000e+00 3.7651849101696655e+00 8.4925570274697897e+00 2.2453412302939078e+00 
314 0 1 1.0280000000004634e+00 7.6131225368472943e+00 1.0000000000000000e+00 6.5065123397324527e+00 8.4787859355753348e+00 2.1992241667114310e+00 
251 0 1 1.0280000000004299e+00 1.8028285681805890e+01 1.0000000000000000e+00 6.4745501361548312e+00 8.2864657915215485e+00 2.0386996835324571e+00 
623 0 1 1.0279999999998903e+00 -2.6547981379460591e+01 1.0000000000000000e+00 3.7211026680885810e+00 9.0954863096225047e+00 8.3107869240963306e-01 
9 0 1 1.0279999999998652e+00 3.3376926187349318e+00 1.0000000000000000e+00 5.1024050004683836e+00 6.9688192841375818e+00 6.5246528759026723e-01 
26 0 1 1.0279999999999261e+00 2.5025143453351246e+00 1.0000000000000000e+00 5.1546096020504963e+00 6.9922226140233938e+00 6.4198753056630453e-01 
509 0 1 1.0279999999995983e+00 -9.7564269486060035e-02 1.0000000000000000e+00 1.0139969545826819e+00 2.0295454632805954e+00 6.0715181197593111e+00 
202 0 1 1.0279999999997738e+00 -3.3571087009863509e+00 1.0000000000000000e+00 3.5332072524987740e-01 1.4570854240456401e+00 6.1816360351047361e+00 
502 0 1 1.0279999999997189e+00 1.9083220808799475e-01 1.0000000000000000e+00 1.9326995606088122e+00 1.9875759535757851e+00 6.3671005320360745e+00 
433 0 1 1.0280000000005380e+00 -1.2336343856017149e+00 1.0000000000000000e+00 3.0178358190029342e+00 2.8880800786917762e+00 6.4726642120452738e+00 
586 0 1 1.0279999999999201e+00 -9.5390260986661808e+00 1.0000000000000000e+00 2.3081750752837502e+00 1.8315637291557207e+00 6.6176964687178623e+00 
258 0 1 1.0279999999998344e+00 -1.9297147832738726e-01 1.0000000000000000e+00 2.7710113583233126e-01 4.3978908757846416e+00 4.1062022252857950e+00 
507 0 1 1.0279999999995975e+00 4.3682799004236716e-01 1.0000000000000000e+00 5.5731787404352418e-01 4.8326804730552331e+00 4.2575829878347413e+00 
101 0 1 1.0279999999996932e+00 4.2423345525263967e+00 1.0000000000000000e+00 6.5250521663636929e-01 4.8030359405515952e+00 4.3800893320053484e+00 
18 0 1 1.0279999999996561e+00 -5.1755668808896287e+00 1.0000000000000000e+00 6.4476908824317714e-01 4.8706348129185972e+00 4.3643602340924259e+00 
38 0 1 1.0279999999998284e+00 -8.7671183210148151e-01 1.0000000000000000e+00 1.7025628052840602e+00 5.1596693766012107e+00 5.6285052269411953e+00 
257 0 1 1.0280000000003964e+00 1.2573613920837863e+01 1.0000000000000000e+00 9.9036068190784832e-01 4.0974702732146300e+00 6.0631759394121252e+00 
551 0 1 1.0279999999998883e+00 1.1317255760594295e+01 1.0000000000000000e+00 2.2174071619932874e+00 5.5093213022667982e+00 6.5776434264736245e+00 
532 0 1 1.0280000000005212e+00 -5.3631563054692606e+00 1.0000000000000000e+00 2.2239821802819408e+00 6.6634686180557008e+00 6.6372890367700075e+00 
264 0 1 1.0279999999991534e+00 1.6582490385795012e+01 1.0000000000000000e+00 2.6766667523868648e+00 5.9270525409115029e+00 6.6364875244913248e+00 
95 0 1 1.0279999999999891e+00 8.7902272467999882e+00 1.0000000000000000e+00 3.7747343233780235e+00 6.2174172709433400e+00 3.3723706610804429e+00 
243 0 1 1.0280000000001384e+00 2.3576363664600688e+01 1.0000000000000000e+00 3.8461197749594960e+00 6.2715504613650079e+00 3.5911996263348831e+00 
253 0 1 1.0280000000000127e+00 -1.6883907685528947e+00 1.0000000000000000e+00 5.6759866420170955e+00 3.6871966816434010e+00 3.8576047408068863e+00 
332 0 1 1.0280000000000629e+00 9.6459438226013052e+00 1.0000000000000000e+00 5.6259140743276657e+00 3.6476358121120120e+00 3.8943367868017083e+00 
342 0 1 1.0279999999997664e+00 7.8572676327126292e+00 1.0000000000000000e+00 6.3855730568107596e+00 3.6674262279424101e+00 4.3314356501357247e+00 
331 0 1 1.0280000000001093e+00 1.5430025333731688e+01 1.0000000000000000e+00 4.5289641084873686e+00 6.4528132283329613e+00 4.5829329256284934e+00 
503 0 1 1.0280000000000453e+00 -2.0044580465321937e+00 1.0000000000000000e+00 4.9163276075697970e+00 3.5332051948291587e+00 4.6943563361678420e+00 
330 0 1 1.0280000000000364e+00 3.0529313643079781e+00 1.0000000000000000e+00 3.5893591518943380e+00 5.0603056535091167e+00 4.7320689093721251e+00 
427 0 1 1.0280000000000236e+00 2.2913904908494347e+00 1.0000000000000000e+00 5.0129216327802455e+00 3.6363034608437026e+00 5.1284334974819332e+00 
341 0 1 1.0280000000000606e+00 1.6880087014019736e+01 1.0000000000000000e+00 4.4657143134453152e+00 6.4708217442342644e+00 5.1604164680350229e+00 
15 0 1 1.0280000000001168e+00 -3.0672336508919823e+01 1.0000000000000000e+00 4.8715619819408662e+00 3.8157126350461104e+00 5.4033158213621961e+00 
249 0 1 1.0280000000000229e+00 2.2126653853611813e+01 1.0000000000000000e+00 6.2558181780179423e+00 5.6134135811297412e+00 5.8019725811287239e+00 
195 0 1 1.0280000000001031e+00 1.3891002845294038e+01 1.0000000000000000e+00 6.1331098538653146e+00 5.5052986251726495e+00 6.0344804639070038e+00 
348 0 1 1.0280000000002183e+00 1.5820898815395601e+01 1.0000000000000000e+00 5.0625837653782790e+00 5.0540388310331048e+00 6.6023339984023108e+00 
362 0 1 1.0280000000005372e+00 1.7719922331166206e+01 1.0000000000000000e+00 2.2777658340047391e+00 6.6670266805925547e+00 6.6619622033168300e+00 
321 0 1 1.0279999999997764e+00 1.9367961865847604e+01 1.0000000000000000e+00 3.0529102278245129e-01 7.5781683310319155e+00 6.4235144289095381e+00 
5 0 1 1.0279999999996379e+00 5.4324023459323350e+00 1.0000000000000000e+00 4.7515110685445689e+00 9.9400036339236006e+00 3.5340850898065517e+00 
173 0 1 1.0280000000002496e+00 1.8903643815727374e+01 1.0000000000000000e+00 6.1595831875795222e+00 9.2566418883640722e+00 4.5732951537573445e+00 
250 0 1 1.0280000000002767e+00 2.2599320205868288e+01 1.0000000000000000e+00 5.5575732320536240e+00 8.7349364711879982e+00 4.7810754635881585e+00 
347 0 1 1.0280000000002143e+00 1.5663935003761756e+01 1.0000000000000000e+00 5.1067436265158754e+00 8.9656626881006467e+00 5.1667588051812592e+00 
2 0 1 1.0280000000001481e+00 -4.0384532150707386e+00 1.0000000000000000e+00 5.9269429329290251e+00 7.5789061380148421e+00 5.7922254426593698e+00 
1 0 1 1.0280000000000296e+00 -2.3085561794118099e+01 1.0000000000000000e+00 5.5949022714223720e+00 7.6972584043871830e+00 6.0972338879965138e+00 
495 0 1 1.0279999999999014e+00 4.5504615137650983e+00 1.0000000000000000e+00 2.7940817147989576e+00 1.8352487529566366e+00 6.8322271094496108e+00 
609 0 1 1.0279999999999405e+00 -4.1440411830526031e+01 1.0000000000000000e+00 3.1401052287468190e+00 1.8659679643269869e+00 7.0390942237347742e+00 
601 0 1 1.0280000000001923e+00 -1.1496573644219882e+01 1.0000000000000000e+00 2.9815511907446290e-01 2.3957444205343839e+00 7.1565043366853294e+00 
48 0 1 1.0280000000000622e+00 -7.1130833497327464e+00 1.0000000000000000e+00 1.6731922183702130e+00 2.8831049367159003e+00 8.3688420842846671e+00 
133 0 1 1.0280000000002478e+00 -6.9550919523892416e+00 1.0000000000000000e+00 1.8788279772223400e+00 3.1863957543258805e+00 8.5380936123282805e+00 
33 0 1 1.0279999999994092e+00 -4.2851800133265154e+00 1.0000000000000000e+00 2.4736975765739119e-01 3.2713918601400165e+00 9.4201096357330325e+00 
49 0 1 1.0279999999997660e+00 -1.4154367354190528e+01 1.0000000000000000e+00 6.3767772368277909e-02 2.8187096445021069e+00 9.8877839841363890e+00 
31 0 1 1.0279999999998282e+00 -9.4875747694901627e+00 1.0000000000000000e+00 4.1117020808812113e+00 2.1915740425356818e+00 7.2604827787556925e+00 
267 0 1 1.0279999999998322e+00 -5.5014799727091219e+00 1.0000000000000000e+00 4.0383010776114006e+00 2.1615633301953578e+00 7.2503320973230343e+00 
100 0 1 1.0279999999999425e+00 -1.1322956403859958e+01 1.0000000000000000e+00 5.3885411316499257e+00 2.3997869843884359e+00 8.0276186378340029e+00 
28 0 1 1.0280000000000149e+00 -3.7843270901174520e+01 1.0000000000000000e+00 5.3974127581129565e+00 2.6879504965086092e+00 8.4673556806560430e+00 
608 0 1 1.0280000000000180e+00 -1.5653082827308605e+01 1.0000000000000000e+00 5.3809550052224342e+00 2.7141444088883806e+00 8.4788161348359985e+00 
356 0 1 1.0280000000002083e+00 1.1503990907719283e+01 1.0000000000000000e+00 1.8096893641653689e+00 3.3515759611259210e+00 8.5467782847675533e+00 
578 0 1 1.0280000000002296e+00 2.4915752325252551e+00 1.0000000000000000e+00 3.0150543139281233e-01 5.3023282297444396e+00 6.8432284456632573e+00 
333 0 1 1.0280000000001728e+00 1.9479373116388533e+01 1.0000000000000000e+00 2.5728287588101750e-01 5.4484142644474813e+00 6.9093635267637090e+00 
371 0 1 1.0280000000003591e+00 6.3920375105988434e+00 1.0000000000000000e+00 1.9387955836399338e+00 3.9837277721622155e+00 8.4270055993613351e+00 
432 0 1 1.0280000000006280e+00 1.8192717829652199e+01 1.0000000000000000e+00 2.3842486900417872e+00 6.0261792806837065e+00 9.6555954253031651e+00 
494 0 1 1.0279999999995908e+00 8.9158461104706745e+00 1.0000000000000000e+00 2.1929936035139836e+00 6.2693621094747840e+00 9.6704020667440886e+00 
411 0 1 1.0280000000002705e+00 1.8936102267261937e+01 1.0000000000000000e+00 3.2689238817355211e+00 5.6124710558210280e+00 9.4764353187626735e+00 
102 0 1 1.0279999999995042e+00 8.6447971563498438e+00 1.0000000000000000e+00 3.3134606521890011e+00 4.0087969569723230e+00 8.8515933428379672e+00 
417 0 1 1.0280000000001830e+00 1.7714273307986765e+01 1.0000000000000000e+00 4.8132317361912946e+00 5.0582128973352125e+00 6.7224750453990829e+00 
370 0 1 1.0280000000003753e+00 6.2692126342123462e+00 1.0000000000000000e+00 4.5732076630484100e+00 3.3969133339153941e+00 8.5079125821524517e+00 
457 0 1 1.0279999999995644e+00 6.4623446702400029e+00 1.0000000000000000e+00 5.9789828261711122e+00 6.4981932036469727e+00 7.5869555061265217e+00 
481 0 1 1.0279999999998430e+00 2.1697495255793999e+01 1.0000000000000000e+00 5.3230063375237462e+00 6.4388358831735113e+00 8.0645277941112941e+00 
564 0 1 1.0279999999998548e+00 1.7569628174966972e+01 1.0000000000000000e+00 5.3249737669339732e+00 6.4392934683527807e+00 8.0629355386597847e+00 
603 0 1 1.0279999999999632e+00 -1.1246001516525670e+01 1.0000000000000000e+00 4.7318723400026670e+00 6.3331536253888512e+00 8.5449616542668299e+00 
355 0 1 1.0279999999998666e+00 1.7806388586658723e+01 1.0000000000000000e+00 3.5432830756425453e+00 5.6623172684797689e+00 9.3900787800201542e+00 
118 0 1 1.0279999999996647e+00 4.5333496750850832e+00 1.0000000000000000e+00 3.6426970004024426e+00 3.9739336798546341e+00 8.7606881971059973e+00 
265 0 1 1.0279999999999807e+00 1.6920973389771603e+01 1.0000000000000000e+00 3.6009555585328226e+00 5.6727585029768228e+00 9.3682040360017016e+00 
382 0 1 1.0280000000002845e+00 1.4930452827199005e+01 1.0000000000000000e+00 3.1173444067064633e+00 6.9347694107365898e+00 6.7644696125003216e+00 
312 0 1 1.0279999999999831e+00 1.4182904530995877e+01 1.0000000000000000e+00 1.0804253740036236e+00 8.5450873691033884e+00 7.5067005819177073e+00 
442 0 1 1.0280000000002292e+00 2.2711770162121101e+00 1.0000000000000000e+00 1.0344814270726468e+00 8.5431236901510275e+00 7.4995678486745794e+00 
453 0 1 1.0280000000000025e+00 2.1949926693829443e+01 1.0000000000000000e+00 4.5875484502890029e-01 7.8479806473547624e+00 8.4859932970243293e+00 
634 0 1 1.0279999999997431e+00 3.6582846807822267e+00 1.0000000000000000e+00 1.7183077015838750e+00 7.7455771242129270e+00 7.8885749548390578e+00 
301 0 1 1.0280000000002001e+00 -1.2157043064091635e+01 1.0000000000000000e+00 3.5306439447800582e+00 9.1914259654151600e+00 7.5311032973085732e+00 
145 0 1 1.0280000000000500e+00 1.4308328468152766e+01 1.0000000000000000e+00 4.5944093057816024e+00 6.6959051204525002e+00 8.4064184443725196e+00 
124 0 1 1.0280000000002036e+00 6.6616439272568089e+00 1.0000000000000000e+00 3.6050106856648760e+00 9.2064951335239229e+00 7.5212430197268683e+00 
300 0 1 1.0280000000001803e+00 4.3577030326311288e+00 1.0000000000000000e+00 3.5242219706810740e+00 9.1891586376536942e+00 7.5317078486202291e+00 
159 0 1 1.0279999999998166e+00 9.0078858796619681e+00 1.0000000000000000e+00 4.4141696634298047e+00 7.8767348927747749e+00 7.0416277567753447e+00 
604 0 1 1.0279999999994898e+00 -8.6966771821897524e+00 1.0000000000000000e+00 2.7753380352117435e-01 4.6453440233374579e+00 1.2186752536985226e+01 
14 0 1 1.0279999999995426e+00 -3.1983567233061290e+01 1.0000000000000000e+00 3.0788214793282748e-01 4.6790236654840633e+00 1.2103163072098615e+01 
617 0 1 1.0279999999999148e+00 -7.5225633574283197e+00 1.0000000000000000e+00 5.2579363637636611e-01 4.1802650010485491e+00 1.1310464600357488e+01 
456 0 1 1.0279999999997582e+00 3.5527118477236765e+00 1.0000000000000000e+00 4.8116727621187838e-01 3.7728526363597030e+00 1.1270561020786378e+01 
126 0 1 1.0279999999999783e+00 -1.6787250378318525e+01 1.0000000000000000e+00 6.0815001554977832e-01 3.9065133547910977e+00 1.0991940422846973e+01 
379 0 1 1.0279999999999283e+00 -1.0569555983366534e+01 1.0000000000000000e+00 1.4377937914364400e+00 6.5278730026937781e+00 1.0393114344048175e+01 
186 0 1 1.0279999999995768e+00 1.2722092741543138e+01 1.0000000000000000e+00 5.7498594201962916e-01 6.7145932764444343e+00 1.0900378479707186e+01 
606 0 1 1.0279999999999487e+00 -2.8055961800677141e+00 1.0000000000000000e+00 1.1765152667464962e+00 6.8554884722834544e+00 1.0368748424340643e+01 
534 0 1 1.0279999999992340e+00 -5.4023805837623362e-01 1.0000000000000000e+00 9.7948495921968493e-01 7.1174521489701901e+00 1.0160059583248549e+01 
239 0 1 1.0280000000004210e+00 4.8289749719682709e+00 1.0000000000000000e+00 4.1692149391270181e+00 9.4263855391676543e+00 1.6026756692918632e+01 
563 0 1 1.0279999999997667e+00 3.4210361328689807e+00 1.0000000000000000e+00 4.2879949868716496e+00 9.0264494792049454e+00 1.6076263544600970e+01 
429 0 1 1.0279999999998848e+00 5.2807224787957781e+00 1.0000000000000000e+00 4.8507066867097262e+00 8.5177237493890292e+00 1.6439363616842883e+01 
514 0 1 1.0279999999998539e+00 3.8163889290325628e+00 1.0000000000000000e+00 4.9144459442824102e+00 8.4989884156614313e+00 1.6482224330111244e+01 
511 0 1 1.0279999999998315e+00 -1.9889378759900673e+01 1.0000000000000000e+00 4.9190629474685608e+00 8.4973476340865890e+00 1.6485954480434437e+01 
452 0 1 1.0279999999998091e+00 7.9835417425118820e+00 1.0000000000000000e+00 3.1793348841900420e+00 8.9968804734295560e+00 1.6871002940790895e+01 
569 0 1 1.0279999999999758e+00 -1.9685938027881356e+01 1.0000000000000000e+00 1.2443899401072398e+00 8.4028192656615825e+00 1.7662977932047976e+01 
518 0 1 1.0280000000000027e+00 8.7362862780772566e-01 1.0000000000000000e+00 4.7346521815763049e-01 7.7999169868090954e+00 1.7820049799484512e+01 
434 0 1 1.0280000000000122e+00 -8.2374911111382350e+00 1.0000000000000000e+00 5.0688299606282416e-01 7.8105177137177231e+00 1.7809363480328233e+01 
88 0 1 1.0279999999997993e+00 6.1745443709769781e+00 1.0000000000000000e+00 2.4354041922454677e+00 9.9732066376877437e+00 1.7860121360184614e+01 
324 0 1 1.0279999999999545e+00 4.6224663518492937e-01 1.0000000000000000e+00 1.3985248083656767e+00 8.8919535757660100e+00 1.7847535906446460e+01 
409 0 1 1.0280000000000369e+00 9.3191337870928912e+00 1.0000000000000000e+00 1.1072296115612612e+00 7.7865157119647828e+00 1.8064397639801026e+01 
483 0 1 1.0280000000001206e+00 1.1378375344408442e+00 1.0000000000000000e+00 1.2000572370547933e+00 7.8091384177885939e+00 1.8098669525541148e+01 
487 0 1 1.0280000000001610e+00 9.9105400539938646e+00 1.0000000000000000e+00 2.4557271944863497e+00 9.6632489069678780e+00 1.8602470810031484e+01 
504 0 1 1.0279999999999865e+00 -2.9581435474550739e+00 1.0000000000000000e+00 3.3143586146993966e+00 7.4119242631090847e+00 1.9741927439718832e+01 
86 0 1 1.0279999999999905e+00 -2.4979817132768849e+00 1.0000000000000000e+00 5.3061941574777700e+00 7.2207043327420983e+00 1.9013896681037604e+01 
489 0 1 1.0279999999997094e+00 9.0768608103874495e+00 1.0000000000000000e+00 5.7210734814565187e+00 7.3422033831731426e+00 1.9292912036050435e+01 
568 0 1 1.0279999999999287e+00 -4.1450248944518982e+01 1.0000000000000000e+00 5.3973438012665396e+00 7.9462069069146875e+00 1.7683623777147353e+01 
73 0 1 1.0280000000001381e+00 2.5305464339367512e-01 1.0000000000000000e+00 4.8527041855608752e+00 8.4390055898095522e+00 1.8776642293039338e+01 
416 0 1 1.0279999999999350e+00 9.4044345241846834e+00 1.0000000000000000e+00 5.4648871645755754e+00 7.6646277661478956e+00 1.8120378364395751e+01 
255 0 1 1.0279999999999923e+00 1.6127965690416339e+01 1.0000000000000000e+00 5.2116774649591076e+00 7.1991554298313876e+00 1.9028306263997024e+01 
422 0 1 1.0279999999999705e+00 4.7020280014084594e+00 1.0000000000000000e+00 3.4511019236910130e+00 7.3929278326820542e+00 1.9688544920342373e+01 
217 0 1 1.0279999999998721e+00 -1.8019579844497642e+01 1.0000000000000000e+00 5.6245782175004855e-01 1.1373565960549177e+01 3.0377283185918142e+00 
226 0 1 1.0279999999999125e+00 7.5087711936637138e+00 1.0000000000000000e+00 1.0331049929033405e+00 1.0289114048385484e+01 2.6249996678166365e+00 
289 0 1 1.0280000000002971e+00 -5.4421746870527752e+00 1.0000000000000000e+00 2.1673316342059135e+00 1.1881001195687787e+01 1.6930236193297283e+00 
66 0 1 1.0280000000001004e+00 1.0525452280830683e-01 1.0000000000000000e+00 2.3690903477834482e+00 1.0287034824459475e+01 1.1247068521903105e+00 
402 0 1 1.0279999999999549e+00 2.0564579337002066e+01 1.0000000000000000e+00 2.5368500985658908e+00 1.0272758234838587e+01 1.0730923674446282e+00 
309 0 1 1.0280000000000413e+00 -2.2541235024168005e+00 1.0000000000000000e+00 2.5585017083417290e+00 1.3205836163925889e+01 1.0572398063790387e+00 
291 0 1 1.0279999999998917e+00 1.3438612216630014e+01 1.0000000000000000e+00 9.6222471376190633e-01 1.0154511313831682e+01 2.6850495466232740e+00 
129 0 1 1.0280000000001603e+00 9.9513703746264492e-01 1.0000000000000000e+00 2.9154728148156561e-01 1.1870025507297193e+01 9.7589422769963430e-01 
6 0 1 1.0280000000000373e+00 -9.5817315561923824e+00 1.0000000000000000e+00 3.3255295069829875e+00 1.2351496962936595e+01 2.4169689444362414e+00 
154 0 1 1.0279999999999068e+00 -2.1483905646764573e+01 1.0000000000000000e+00 3.7692478389546955e+00 1.2973594236303617e+01 2.7745777187550242e+00 
148 0 1 1.0279999999999947e+00 -5.0828703863098710e+00 1.0000000000000000e+00 3.7877503978394822e+00 1.3121818077039512e+01 2.5770034243222320e+00 
240 0 1 1.0279999999999534e+00 8.6783017018442479e+00 1.0000000000000000e+00 3.9508032370999810e+00 1.3295192330730169e+01 2.2504714966591215e+00 
3 0 1 1.0279999999996188e+00 -2.7897679196758558e+00 1.0000000000000000e+00 4.9247370791737319e+00 1.0266366207641383e+01 3.2254970609919833e+00 
392 0 1 1.0279999999996556e+00 -1.9037757415048787e+01 1.0000000000000000e+00 4.6504535773033044e+00 1.2156251850174904e+01 1.0040454936545842e+00 
465 0 1 1.0279999999999914e+00 3.7180834187064060e+00 1.0000000000000000e+00 4.7546405071811542e+00 1.2387211967583887e+01 5.8460112221745064e-01 
535 0 1 1.0279999999998919e+00 5.5010357413003907e+00 1.0000000000000000e+00 3.5475734450853871e+00 1.0533294577032205e+01 8.2014504727923043e-02 
207 0 1 1.0279999999995764e+00 4.7475802197454078e+00 1.0000000000000000e+00 6.6598269899195213e+00 1.0929862507238873e+01 7.9870982697399590e-02 
605 0 1 1.0279999999998974e+00 -4.3921765648545463e+00 1.0000000000000000e+00 3.5794594669642898e+00 1.0543630456970890e+01 4.7429538062598593e-02 
39 0 1 1.0280000000000920e+00 -4.1511899373539283e+00 1.0000000000000000e+00 3.5097232701037191e+00 1.3448382905795036e+01 4.2358720791118731e-01 
639 0 1 1.0280000000000040e+00 -2.3851403550421544e+01 1.0000000000000000e+00 3.4468584801662949e+00 1.3433305365337249e+01 3.6215832711170493e-01 
561 0 1 1.0280000000000160e+00 -1.0755281915123476e+01 1.0000000000000000e+00 3.4041683222164556e+00 1.3421878033393941e+01 3.2446311989241211e-01 
78 0 1 1.0279999999997853e+00 -1.8586834175649983e+01 1.0000000000000000e+00 5.3285374244665318e-01 1.1114788290659787e+01 3.4264025357822994e+00 
428 0 1 1.0279999999995373e+00 2.2749032713241477e+00 1.0000000000000000e+00 2.3561692186147004e-01 1.0998573977319925e+01 4.0079520330101808e+00 
132 0 1 1.0280000000000158e+00 -4.7119397190568413e-01 1.0000000000000000e+00 3.1313709183853664e+00 1.0569186614537283e+01 6.4459347097966235e+00 
75 0 1 1.0279999999998053e+00 -8.5213234949297672e+00 1.0000000000000000e+00 3.2257888985235106e-01 1.0525156855810890e+01 6.5396067454649032e+00 
299 0 1 1.0279999999992440e+00 1.1788852710160779e+01 1.0000000000000000e+00 1.0409965386294029e+00 1.0211264077646481e+01 6.0226313257858042e+00 
7 0 1 1.0279999999999667e+00 -1.7050512762426635e+01 1.0000000000000000e+00 1.9275645569720763e+00 1.0168310026811891e+01 6.3068941412780806e+00 
233 0 1 1.0279999999999987e+00 1.4984085859364284e+00 1.0000000000000000e+00 1.8245487737483874e+00 1.0159978621207586e+01 6.3000513074372453e+00 
70 0 1 1.0280000000000116e+00 -3.5534134583302844e+01 1.0000000000000000e+00 1.7506667753324725e+00 1.0156035916236620e+01 6.2915876569249818e+00 
294 0 1 1.0280000000005600e+00 -3.5760803241616017e+00 1.0000000000000000e+00 4.6251754943647949e+00 1.1027840374038929e+01 3.3431676603719525e+00 
637 0 1 1.0280000000000611e+00 -3.8216404910795902e+01 1.0000000000000000e+00 6.3714174259062943e+00 1.3134489610193890e+01 3.4754962527097093e+00 
123 0 1 1.0280000000000642e+00 1.9849630382062531e+00 1.0000000000000000e+00 6.3894104246989132e+00 1.3126115112602520e+01 3.4835390368202104e+00 
555 0 1 1.0280000000000562e+00 -7.7534862502792974e+00 1.0000000000000000e+00 6.0471907521900290e+00 1.3236493425033196e+01 3.6089845269915055e+00 
83 0 1 1.0280000000000560e+00 -1.7074151462110535e+01 1.0000000000000000e+00 6.3395076369694259e+00 1.3109973408131752e+01 3.6713325542719848e+00 
471 0 1 1.0279999999999967e+00 1.8385521438705936e+00 1.0000000000000000e+00 4.5837204364381812e+00 1.2565363325706780e+01 4.0809147494792040e+00 
135 0 1 1.0280000000000340e+00 -2.9337984980248404e+00 1.0000000000000000e+00 4.6184393109795625e+00 1.2437499439362854e+01 4.1521293029618231e+00 
231 0 1 1.0280000000001472e+00 -1.6108271472703365e+01 1.0000000000000000e+00 4.7884401153085072e+00 1.2291230363084823e+01 4.2994174187176784e+00 
149 0 1 1.0279999999999636e+00 -5.4230950553853208e-01 1.0000000000000000e+00 4.8549771945590861e+00 1.0471780325941136e+01 5.5256881222073106e+00 
65 0 1 1.0279999999999998e+00 -1.0017385993299165e+01 1.0000000000000000e+00 4.6232637728610486e+00 1.0521489979931570e+01 5.7137862923499068e+00 
600 0 1 1.0279999999998506e+00 -3.8863743159295385e+00 1.0000000000000000e+00 4.9642854922609683e+00 1.0056429538344116e+01 6.2147988654934228e+00 
228 0 1 1.0279999999999005e+00 9.1201977620718271e+00 1.0000000000000000e+00 4.1149050762087214e+00 1.0323201964656494e+01 7.0616978824821368e+00 
523 0 1 1.0279999999999012e+00 1.9124220562270233e+00 1.0000000000000000e+00 4.1377913720543598e+00 1.0323097275761913e+01 7.0474930688616304e+00 
542 0 1 1.0279999999999305e+00 2.9808065828104247e-01 1.0000000000000000e+00 6.3794500429096779e+00 1.0555959001004515e+01 1.5572449886554903e+01 
373 0 1 1.0279999999999547e+00 -9.8896408730208371e-02 1.0000000000000000e+00 6.2869466848526114e+00 1.0536684112497092e+01 1.5618001337424635e+01 
305 0 1 1.0279999999999463e+00 9.0904334223566945e+00 1.0000000000000000e+00 4.4600286063889998e+00 1.0507971838747888e+01 1.6507329570823703e+01 
310 0 1 1.0279999999999681e+00 8.9809960314155042e+00 1.0000000000000000e+00 6.5914830186078257e+00 1.0477858724540491e+01 1.5448436438439844e+01 
478 0 1 1.0279999999999656e+00 -5.8843870911655749e+00 1.0000000000000000e+00 3.2028968324428675e+00 1.0330486010853052e+01 1.7021550143160702e+01 
596 0 1 1.0279999999999225e+00 -3.6878156374747675e+01 1.0000000000000000e+00 3.1769026469852646e+00 1.0331064586324169e+01 1.7047607978101468e+01 
395 0 1 1.0279999999999383e+00 1.1339705671540720e+01 1.0000000000000000e+00 2.9720375272052988e+00 1.1117555442859965e+01 1.8231498956007364e+01 
638 0 1 1.0280000000000065e+00 -4.0682147314713326e+01 1.0000000000000000e+00 1.8092782871792104e+00 1.2071490227042155e+01 1.9348637622140338e+01 
302 0 1 1.0279999999999334e+00 -2.1811119670558874e+01 1.0000000000000000e+00 1.1192620523329797e+00 1.1284486473411729e+01 1.9452478312960917e+01 
84 0 1 1.0279999999999168e+00 -4.3901650980046085e+01 1.0000000000000000e+00 2.1342695608748992e+00 1.2685593286175934e+01 1.9695911833515208e+01 
64 0 1 1.0280000000000067e+00 -1.6999727843203821e+01 1.0000000000000000e+00 8.4657273086793228e-01 1.1599999649211664e+01 1.9695278326772822e+01 
156 0 1 1.0279999999998721e+00 -1.1164692904799157e+01 1.0000000000000000e+00 1.6002961199496075e+00 1.2400851718378611e+01 1.9881299366512831e+01 
528 0 1 1.0279999999999987e+00 2.7613398702002728e-02 1.0000000000000000e+00 6.2100873358133013e+00 1.1017698925239806e+01 1.9809257913892214e+01 
63 0 1 1.0279999999996343e+00 -1.6935971644754275e+01 1.0000000000000000e+00 6.6480136350853636e+00 1.0568485251850937e+01 1.8090629237753600e+01 
622 0 1 1.0279999999998843e+00 -8.0338177427286261e+00 1.0000000000000000e+00 5.5057903126692009e+00 1.1101325492456057e+01 1.7868599306448452e+01 
162 0 1 1.0279999999998832e+00 -8.8833478454021844e+00 1.0000000000000000e+00 5.5683999591574533e+00 1.1084531843482027e+01 1.7873009895159313e+01 
297 0 1 1.0279999999999616e+00 9.2479008212418297e+00 1.0000000000000000e+00 3.4738598935753293e+00 1.1450015562670606e+01 1.8318926354413364e+01 
626 0 1 1.0280000000000609e+00 -1.2569761631453321e+01 1.0000000000000000e+00 5.1007279851146814e+00 1.2017822101762276e+01 1.8884435520220038e+01 
545 0 1 1.0280000000000591e+00 -4.8486114192261667e+00 1.0000000000000000e+00 5.2241516089290956e+00 1.2076922705768325e+01 1.9097095646706201e+01 
394 0 1 1.0280000000001428e+00 -3.4907108475727098e+00 1.0000000000000000e+00 5.1168908220846916e+00 1.2152749890803285e+01 1.9185947241800012e+01 
110 0 1 1.0279999999996570e+00 1.0143294528867454e+01 1.0000000000000000e+00 8.3593525354667477e+00 6.0219724993441464e+00 3.2442212136426081e+00 
577 0 1 1.0279999999999119e+00 7.5914202039472323e-01 1.0000000000000000e+00 9.0548943437264917e+00 6.5035027337612057e+00 1.8644759070851593e+00 
500 0 1 1.0280000000001630e+00 -1.5690556343265500e+00 1.0000000000000000e+00 8.3868872487591943e+00 4.6805977670068000e+00 1.5428964586602036e+00 
574 0 1 1.0280000000002678e+00 -1.8833955377074233e+01 1.0000000000000000e+00 7.4603517164603899e+00 5.6491299124262566e+00 1.3901362470527003e+00 
573 0 1 1.0280000000001390e+00 -6.3851576635037341e+00 1.0000000000000000e+00 7.6223980110582907e+00 5.3725323395522269e+00 9.8627870624796588e-01 
497 0 1 1.0279999999996248e+00 -9.7824175480594668e+00 1.0000000000000000e+00 7.7424159763542599e+00 5.1752762538804182e+00 8.2580239802512534e-01 
412 0 1 1.0279999999997149e+00 1.2278062763972253e+01 1.0000000000000000e+00 7.8604066754642075e+00 5.0032491853096293e+00 7.0049591512434584e-01 
116 0 1 1.0279999999996619e+00 -2.7590268545467089e+00 1.0000000000000000e+00 9.7431538650865548e+00 3.9727143286529425e+00 4.3040947181745043e-01 
277 0 1 1.0280000000000882e+00 2.3412529994550768e+00 1.0000000000000000e+00 9.8512412293785907e+00 4.0040022640728035e+00 3.3494734931011549e-01 