LAMMPS data file via write_data, version 30 Jul 2016, timestep = 50000000

644 atoms
2 atom types

0.0000000000000000e+00 2.0000000000000000e+01 xlo xhi
0.0000000000000000e+00 2.0000000000000000e+01 ylo yhi
0.0000000000000000e+00 2.0000000000000000e+01 zlo zhi

Masses

1 4.31
2 3.896

Atoms # meso-molecular

483 0 1 1.0279999999999565e+00 1.1378375344408442e+00 1.0000000000000000e+00 1.7432010606914097e+00 5.5581742522492172e+00 3.1012594682406802e+00 
409 0 1 1.0279999999999521e+00 9.3191337870928912e+00 1.0000000000000000e+00 1.6503734351781971e+00 5.5355515464095753e+00 3.0669875824984008e+00 
324 0 1 1.0280000000001661e+00 4.6224663518492937e-01 1.0000000000000000e+00 1.9416686320193643e+00 6.6409894103820299e+00 2.8501258491574601e+00 
518 0 1 1.0279999999997735e+00 8.7362862780772566e-01 1.0000000000000000e+00 1.0166090416808211e+00 5.5489528212083332e+00 2.8226397421668801e+00 
434 0 1 1.0279999999997544e+00 -8.2374911111382350e+00 1.0000000000000000e+00 1.0500268195919096e+00 5.5595535481164857e+00 2.8119534230095344e+00 
569 0 1 1.0279999999996392e+00 -1.9685938027881356e+01 1.0000000000000000e+00 1.7875337637700666e+00 6.1518551003341226e+00 2.6655678747138687e+00 
416 0 1 1.0279999999997831e+00 9.4044345241846834e+00 1.0000000000000000e+00 6.0080309881814493e+00 5.4136636007361059e+00 3.1229683071290841e+00 
568 0 1 1.0279999999997949e+00 -4.1450248944518982e+01 1.0000000000000000e+00 5.9404876248724134e+00 5.6952427414878315e+00 2.6862137198955391e+00 
514 0 1 1.0279999999999745e+00 3.8163889290325628e+00 1.0000000000000000e+00 5.4575897678882841e+00 6.2480242502968704e+00 1.4848142728099893e+00 
511 0 1 1.0279999999999454e+00 -1.9889378759900673e+01 1.0000000000000000e+00 5.4622067710744346e+00 6.2463834687217386e+00 1.4885444231335696e+00 
429 0 1 1.0279999999999838e+00 5.2807224787957781e+00 1.0000000000000000e+00 5.3938505103156000e+00 6.2667595840239727e+00 1.4419535595410462e+00 
88 0 1 1.0279999999995100e+00 6.1745443709769781e+00 1.0000000000000000e+00 2.9785480158712194e+00 7.7222424722591647e+00 2.8627113029212605e+00 
452 0 1 1.0279999999999188e+00 7.9835417425118820e+00 1.0000000000000000e+00 3.7224787078183956e+00 6.7459163079916618e+00 1.8735928835011544e+00 
563 0 1 1.0280000000000453e+00 3.4210361328689807e+00 1.0000000000000000e+00 4.8311388104775235e+00 6.7754853138038342e+00 1.0788534873262516e+00 
297 0 1 1.0280000000000682e+00 9.2479008212418297e+00 1.0000000000000000e+00 4.0170037171812032e+00 9.1990513972998009e+00 3.3215162971216823e+00 
395 0 1 1.0280000000000868e+00 1.1339705671540720e+01 1.0000000000000000e+00 3.5151813508095913e+00 8.8665912774691069e+00 3.2340888986999019e+00 
162 0 1 1.0280000000001270e+00 -8.8833478454021844e+00 1.0000000000000000e+00 6.1115437827633272e+00 8.8335676781668973e+00 2.8755998379052752e+00 
622 0 1 1.0280000000001550e+00 -8.0338177427286261e+00 1.0000000000000000e+00 6.0489341362750748e+00 8.8503613271389057e+00 2.8711892491932067e+00 
596 0 1 1.0279999999999665e+00 -3.6878156374747675e+01 1.0000000000000000e+00 3.7200464705911385e+00 8.0801004209586367e+00 2.0501979208235275e+00 
478 0 1 1.0279999999999596e+00 -5.8843870911655749e+00 1.0000000000000000e+00 3.7460406560487414e+00 8.0795218454829580e+00 2.0241400858779337e+00 
305 0 1 1.0280000000000611e+00 9.0904334223566945e+00 1.0000000000000000e+00 5.0031724299948737e+00 8.2570076733565543e+00 1.5099195135511088e+00 
239 0 1 1.0279999999999787e+00 4.8289749719682709e+00 1.0000000000000000e+00 4.7123587627328920e+00 7.1754213737582067e+00 1.0293466356395498e+00 
480 0 1 1.0279999999998963e+00 1.4342722042495124e+01 1.0000000000000000e+00 3.1210998878038634e+00 5.0734952711746786e+00 5.2038117176685370e+00 
334 0 1 1.0280000000009892e+00 1.8623212883885774e+01 1.0000000000000000e+00 4.2468674536752765e-01 6.5997731030750124e+00 5.2275829282731259e+00 
340 0 1 1.0279999999999421e+00 1.4464976228892272e+01 1.0000000000000000e+00 2.8540299162254632e+00 5.0834281582410776e+00 5.3570415959594264e+00 
247 0 1 1.0279999999990626e+00 1.0141434069407344e+01 1.0000000000000000e+00 1.3635464288582722e-01 5.9553406717061730e+00 5.6056750777308109e+00 
325 0 1 1.0280000000003378e+00 1.8856906080698387e+01 1.0000000000000000e+00 2.0579324208935232e+00 5.3032647977290406e+00 5.6361269516016179e+00 
248 0 1 1.0279999999997942e+00 2.1723886790165441e+01 1.0000000000000000e+00 1.1292000295963860e+00 5.4429369752315377e+00 6.1816049495832628e+00 
498 0 1 1.0279999999997649e+00 -8.8564090942993161e+00 1.0000000000000000e+00 4.6866985932894956e-01 5.2326538991708764e+00 6.4031856849550941e+00 
73 0 1 1.0280000000006548e+00 2.5305464339367512e-01 1.0000000000000000e+00 5.3958480091667491e+00 6.1880414244716402e+00 3.7792322356798898e+00 
255 0 1 1.0279999999998701e+00 1.6127965690416339e+01 1.0000000000000000e+00 5.7548212885649814e+00 4.9481912644798118e+00 4.0308962066892509e+00 
86 0 1 1.0279999999998732e+00 -2.4979817132768849e+00 1.0000000000000000e+00 5.8493379810836439e+00 4.9697401673918744e+00 4.0164866237160943e+00 
489 0 1 1.0279999999997242e+00 9.0768608103874495e+00 1.0000000000000000e+00 6.2642173050623926e+00 5.0912392178186474e+00 4.2955019787153592e+00 
422 0 1 1.0279999999997864e+00 4.7020280014084594e+00 1.0000000000000000e+00 3.9942457472968869e+00 5.1419636672947249e+00 4.6911348630526053e+00 
504 0 1 1.0279999999997798e+00 -2.9581435474550739e+00 1.0000000000000000e+00 3.8575024383052705e+00 5.1609600977186609e+00 4.7445173824262064e+00 
9 0 1 1.0280000000000338e+00 3.3376926187349318e+00 1.0000000000000000e+00 5.6455488240742575e+00 4.7178551187539677e+00 5.6550552303694221e+00 
26 0 1 1.0280000000000187e+00 2.5025143453351246e+00 1.0000000000000000e+00 5.6977534256563702e+00 4.7412584486457590e+00 5.6445774733102834e+00 
487 0 1 1.0280000000008978e+00 9.9105400539938646e+00 1.0000000000000000e+00 2.9988710181659846e+00 7.4122847415890094e+00 3.6050607526904845e+00 
638 0 1 1.0280000000000726e+00 -4.0682147314713326e+01 1.0000000000000000e+00 2.3524221108266725e+00 9.8205260617472039e+00 4.3512275647822172e+00 
302 0 1 1.0279999999996445e+00 -2.1811119670558874e+01 1.0000000000000000e+00 1.6624058758373996e+00 9.0335223080829881e+00 4.4550682554376690e+00 
64 0 1 1.0279999999997118e+00 -1.6999727843203821e+01 1.0000000000000000e+00 1.3897165543786754e+00 9.3490354839270786e+00 4.6978682692779179e+00 
150 0 1 1.0279999999996736e+00 7.6063863503776226e+00 1.0000000000000000e+00 3.3828613164773889e-02 8.2975305920112223e+00 4.7375505160796081e+00 
571 0 1 1.0279999999997598e+00 -5.5534196141693162e+00 1.0000000000000000e+00 7.5844199479881760e-02 8.3457288521808604e+00 4.7341532698894664e+00 
129 0 1 1.0279999999999725e+00 9.9513703746264492e-01 1.0000000000000000e+00 8.3469110497509391e-01 9.6190613419890756e+00 5.9784841702798559e+00 
444 0 1 1.0280000000000296e+00 9.9577898896479855e+00 1.0000000000000000e+00 2.8393775018479674e+00 7.0657732196295964e+00 6.5220570397033848e+00 
402 0 1 1.0280000000002367e+00 2.0564579337002066e+01 1.0000000000000000e+00 3.0799939221717647e+00 8.0217940694741863e+00 6.0756823100677719e+00 
66 0 1 1.0280000000002183e+00 1.0525452280830683e-01 1.0000000000000000e+00 2.9122341713893221e+00 8.0360706591369002e+00 6.1272967947941543e+00 
218 0 1 1.0280000000001435e+00 -1.9374381064562229e+01 1.0000000000000000e+00 2.0154799943888727e-01 9.4465538908629867e+00 6.6396293264437318e+00 
626 0 1 1.0279999999999565e+00 -1.2569761631453321e+01 1.0000000000000000e+00 5.6438718087205553e+00 9.7668579364219497e+00 3.8870254629172343e+00 
545 0 1 1.0279999999999736e+00 -4.8486114192261667e+00 1.0000000000000000e+00 5.7672954325349695e+00 9.8259585404245335e+00 4.0996855893985824e+00 
394 0 1 1.0279999999999647e+00 -3.4907108475727098e+00 1.0000000000000000e+00 5.6600346456905655e+00 9.9017857254338324e+00 4.1885371844294070e+00 
623 0 1 1.0280000000002594e+00 -2.6547981379460591e+01 1.0000000000000000e+00 4.2642464916870493e+00 6.8445221443262030e+00 5.8336686351513558e+00 
605 0 1 1.0279999999999114e+00 -4.3921765648545463e+00 1.0000000000000000e+00 4.1226032905683461e+00 8.2926662915831066e+00 5.0500194808378529e+00 
535 0 1 1.0279999999998810e+00 5.5010357413003907e+00 1.0000000000000000e+00 4.0907172686899189e+00 8.2823304116454075e+00 5.0846044475151535e+00 
392 0 1 1.0280000000001404e+00 -1.9037757415048787e+01 1.0000000000000000e+00 5.1935974009099590e+00 9.9052876847646676e+00 6.0066354363793053e+00 
326 0 1 1.0279999999994425e+00 1.7345925257086229e+01 1.0000000000000000e+00 4.9799351334831328e-02 1.7754153397900303e+00 8.4345655692137953e+00 
258 0 1 1.0279999999997180e+00 -1.9297147832738726e-01 1.0000000000000000e+00 8.2024495941927489e-01 2.1469267101957450e+00 9.1087921678120960e+00 
507 0 1 1.0279999999998026e+00 4.3682799004236716e-01 1.0000000000000000e+00 1.1004616976588086e+00 2.5817163076100234e+00 9.2601729304354130e+00 
18 0 1 1.0280000000000160e+00 -5.1755668808896287e+00 1.0000000000000000e+00 1.1879129118546203e+00 2.6196706474904317e+00 9.3669501767213958e+00 
101 0 1 1.0279999999999705e+00 4.2423345525263967e+00 1.0000000000000000e+00 1.1956490402503217e+00 2.5520717750764219e+00 9.3826792746344889e+00 
493 0 1 1.0279999999998903e+00 5.8836699514602122e+00 1.0000000000000000e+00 4.6423578419978355e+00 2.5541036916790634e+00 8.1662225507032158e+00 
559 0 1 1.0279999999998821e+00 7.9383721181541391e+00 1.0000000000000000e+00 4.6028476282847581e+00 2.5580705753339923e+00 8.1968034332113415e+00 
486 0 1 1.0279999999998861e+00 9.7258211096399432e+00 1.0000000000000000e+00 4.5502289668366673e+00 2.5750421313920375e+00 8.2350082831931992e+00 
174 0 1 1.0279999999998721e+00 8.2280820420100262e+00 1.0000000000000000e+00 6.2117727842107193e+00 2.4102688327092272e+00 8.3229929759278409e+00 
253 0 1 1.0280000000000029e+00 -1.6883907685528947e+00 1.0000000000000000e+00 6.2191304656229693e+00 1.4362325161960121e+00 8.8601946834655347e+00 
332 0 1 1.0279999999999996e+00 9.6459438226013052e+00 1.0000000000000000e+00 6.1690578979335395e+00 1.3966716466650766e+00 8.8969267294585528e+00 
503 0 1 1.0280000000000107e+00 -2.0044580465321937e+00 1.0000000000000000e+00 5.4594714311781773e+00 1.2822410293697315e+00 9.6969462787903549e+00 
330 0 1 1.0280000000000673e+00 3.0529313643079781e+00 1.0000000000000000e+00 4.1325029754825779e+00 2.8093414880329610e+00 9.7346588520030490e+00 
19 0 1 1.0279999999997813e+00 -9.9418673493780529e-01 1.0000000000000000e+00 2.1852192474140533e+00 5.7551348261071205e+00 6.6897272617594385e+00 
635 0 1 1.0279999999997025e+00 8.7043448749886920e+00 1.0000000000000000e+00 8.7207149768747516e-01 5.8213652991895204e+00 7.3255397910704234e+00 
96 0 1 1.0280000000011458e+00 1.0769491750592710e+01 1.0000000000000000e+00 2.8554972332887642e-02 6.5902540414985049e+00 7.9884312719895529e+00 
328 0 1 1.0279999999999503e+00 1.5601904164045953e+01 1.0000000000000000e+00 4.7379755445735666e-01 3.8338751308649526e+00 9.7055017061244122e+00 
308 0 1 1.0280000000001697e+00 5.9662932807512590e+00 1.0000000000000000e+00 4.0820593613573379e+00 4.5164635008624225e+00 6.6973644145814992e+00 
315 0 1 1.0280000000002438e+00 -9.5327396946665051e+00 1.0000000000000000e+00 3.9963693898691321e+00 4.5870474365012877e+00 6.7827254497584963e+00 
167 0 1 1.0279999999999709e+00 1.4220122008689083e+01 1.0000000000000000e+00 6.0012651993113684e+00 4.3042477501005090e+00 7.2023946690378713e+00 
245 0 1 1.0279999999995075e+00 -1.4820338357140241e+01 1.0000000000000000e+00 4.3083287337755394e+00 6.2415928620574652e+00 7.2479311729579257e+00 
399 0 1 1.0279999999993872e+00 7.8054549039018717e+00 1.0000000000000000e+00 4.6058172957691506e+00 6.1289107116048669e+00 7.5272642239006053e+00 
143 0 1 1.0280000000006322e+00 1.3094238712554777e+01 1.0000000000000000e+00 6.2408081464490595e+00 4.8771847419495007e+00 8.3006092518787344e+00 
95 0 1 1.0280000000000624e+00 8.7902272467999882e+00 1.0000000000000000e+00 4.3178781469919132e+00 3.9664531055284606e+00 8.3749606038238653e+00 
243 0 1 1.0280000000001337e+00 2.3576363664600688e+01 1.0000000000000000e+00 4.3892635985649324e+00 4.0205862959372967e+00 8.5937895690383375e+00 
331 0 1 1.0280000000001150e+00 1.5430025333731688e+01 1.0000000000000000e+00 5.0721079320932425e+00 4.2018490628947944e+00 9.5855228683533760e+00 
250 0 1 1.0279999999999989e+00 2.2599320205868288e+01 1.0000000000000000e+00 6.1007170556594978e+00 6.4839723057274297e+00 9.7836654062432391e+00 
289 0 1 1.0280000000000717e+00 -5.4421746870527752e+00 1.0000000000000000e+00 2.7104754578152299e+00 9.6300370302863953e+00 6.6956135619332935e+00 
226 0 1 1.0279999999999974e+00 7.5087711936637138e+00 1.0000000000000000e+00 1.5762488164640802e+00 8.0381498829271525e+00 7.6275896104195366e+00 
291 0 1 1.0280000000001650e+00 1.3438612216630014e+01 1.0000000000000000e+00 1.5053685373128798e+00 7.9035471483299107e+00 7.6876394892152469e+00 
217 0 1 1.0279999999998033e+00 -1.8019579844497642e+01 1.0000000000000000e+00 1.1056016453242585e+00 9.1226017952577720e+00 8.0403182612729029e+00 
78 0 1 1.0279999999998883e+00 -1.8586834175649983e+01 1.0000000000000000e+00 1.0759975660276342e+00 8.8638241253743342e+00 8.4289924784832237e+00 
428 0 1 1.0279999999996163e+00 2.2749032713241477e+00 1.0000000000000000e+00 7.7876074541109808e-01 8.7476098119948880e+00 9.0105419758032799e+00 
313 0 1 1.0280000000001015e+00 1.8892940030798584e+01 1.0000000000000000e+00 6.3071603860041101e+00 7.1391373275433798e+00 7.4523711302903681e+00 
398 0 1 1.0280000000002085e+00 1.4261987044903554e+01 1.0000000000000000e+00 5.1455713647547006e+00 6.9451525909727483e+00 7.3869044743969816e+00 
5 0 1 1.0279999999992826e+00 5.4324023459323350e+00 1.0000000000000000e+00 5.2946548921421392e+00 7.6890394685390984e+00 8.5366750323446627e+00 
3 0 1 1.0280000000009046e+00 -2.7897679196758558e+00 1.0000000000000000e+00 5.4678809027875381e+00 8.0154020423567971e+00 8.2280870036267508e+00 
294 0 1 1.0279999999994334e+00 -3.5760803241616017e+00 1.0000000000000000e+00 5.1683193179706688e+00 8.7768762086418342e+00 8.3457576029886820e+00 
333 0 1 1.0279999999998817e+00 1.9479373116388533e+01 1.0000000000000000e+00 8.0042669941923450e-01 3.1974500989045911e+00 1.1911953469476146e+01 
578 0 1 1.0280000000003480e+00 2.4915752325252551e+00 1.0000000000000000e+00 8.4464925493737597e-01 3.0513640641985313e+00 1.1845818388386212e+01 
107 0 1 1.0279999999989304e+00 4.4941067553653467e+00 1.0000000000000000e+00 1.9879796125608520e-01 1.0013019236830145e+00 1.1820283183220601e+01 
322 0 1 1.0279999999994189e+00 9.0671760169996762e+00 1.0000000000000000e+00 3.9802519216562715e-01 3.1528777645170196e+00 1.1727471876637058e+01 
551 0 1 1.0280000000001148e+00 1.1317255760594295e+01 1.0000000000000000e+00 2.7605509855895307e+00 3.2583571367222781e+00 1.1580233369117405e+01 
257 0 1 1.0280000000002256e+00 1.2573613920837863e+01 1.0000000000000000e+00 1.5335045054911971e+00 1.8465061077516516e+00 1.1065765882092631e+01 
601 0 1 1.0280000000007881e+00 -1.1496573644219882e+01 1.0000000000000000e+00 8.4129894261412719e-01 1.4478025496079844e-01 1.2159094279242071e+01 
38 0 1 1.0280000000004308e+00 -8.7671183210148151e-01 1.0000000000000000e+00 2.2457066288803551e+00 2.9087052111195124e+00 1.0631095169716369e+01 
417 0 1 1.0279999999997060e+00 1.7714273307986765e+01 1.0000000000000000e+00 5.3563755597971685e+00 2.8072487318330777e+00 1.1725064988000897e+01 
348 0 1 1.0280000000000367e+00 1.5820898815395601e+01 1.0000000000000000e+00 5.6057275889841529e+00 2.8030746655334764e+00 1.1604923941057725e+01 
433 0 1 1.0279999999993870e+00 -1.2336343856017149e+00 1.0000000000000000e+00 3.5609796426421036e+00 6.3711591319840200e-01 1.1475254154715838e+01 
100 0 1 1.0279999999999634e+00 -1.1322956403859958e+01 1.0000000000000000e+00 5.9316849551938846e+00 1.4882281889035556e-01 1.3030208580596870e+01 
15 0 1 1.0279999999999716e+00 -3.0672336508919823e+01 1.0000000000000000e+00 5.4147058055467401e+00 1.5647484695878684e+00 1.0405905764005109e+01 
427 0 1 1.0279999999999569e+00 2.2913904908494347e+00 1.0000000000000000e+00 5.5560654563902192e+00 1.3853392953867174e+00 1.0131023440131406e+01 
403 0 1 1.0280000000000429e+00 1.8571097907168404e+01 1.0000000000000000e+00 3.2995564456147854e-02 5.5620258547770876e+00 1.2947697099850002e+01 
634 0 1 1.0280000000000904e+00 3.6582846807822267e+00 1.0000000000000000e+00 2.2614515252169793e+00 5.4946129587251056e+00 1.2891164897547814e+01 
327 0 1 1.0280000000000367e+00 2.0365888709997279e+01 1.0000000000000000e+00 1.2267830453647174e-01 5.6615815290631382e+00 1.2750471092239335e+01 
312 0 1 1.0280000000000102e+00 1.4182904530995877e+01 1.0000000000000000e+00 1.6235691976126840e+00 6.2941232035663219e+00 1.2509290524608705e+01 
442 0 1 1.0280000000000429e+00 2.2711770162121101e+00 1.0000000000000000e+00 1.5776252506836184e+00 6.2921595246145143e+00 1.2502157791371360e+01 
362 0 1 1.0280000000001224e+00 1.7719922331166206e+01 1.0000000000000000e+00 2.8209096576106130e+00 4.4160625150209638e+00 1.1664552145986285e+01 
532 0 1 1.0280000000000962e+00 -5.3631563054692606e+00 1.0000000000000000e+00 2.7671260038878147e+00 4.4125044524852646e+00 1.1639878979436935e+01 
264 0 1 1.0279999999991942e+00 1.6582490385795012e+01 1.0000000000000000e+00 3.2198105759927387e+00 3.6760883754117857e+00 1.1639077467127249e+01 
321 0 1 1.0279999999994343e+00 1.9367961865847604e+01 1.0000000000000000e+00 8.4843484629720245e-01 5.3272041655140319e+00 1.1426104371553711e+01 
481 0 1 1.0280000000001133e+00 2.1697495255793999e+01 1.0000000000000000e+00 5.8661501611296201e+00 4.1878717176405278e+00 1.3067117736811614e+01 
564 0 1 1.0280000000001188e+00 1.7569628174966972e+01 1.0000000000000000e+00 5.8681175905398471e+00 4.1883293028203985e+00 1.3065525481360064e+01 
457 0 1 1.0280000000003351e+00 6.4623446702400029e+00 1.0000000000000000e+00 6.5221266497769861e+00 4.2472290381798476e+00 1.2589545448847392e+01 
159 0 1 1.0280000000001139e+00 9.0078858796619681e+00 1.0000000000000000e+00 4.9573134870356785e+00 5.6257707272070165e+00 1.2044217699370146e+01 
382 0 1 1.0280000000002476e+00 1.4930452827199005e+01 1.0000000000000000e+00 3.6604882303123372e+00 4.6838052452411310e+00 1.1767059555179431e+01 
1 0 1 1.0279999999999976e+00 -2.3085561794118099e+01 1.0000000000000000e+00 6.1380460950282458e+00 5.4462942389024116e+00 1.1099823830700554e+01 
2 0 1 1.0279999999998586e+00 -4.0384532150707386e+00 1.0000000000000000e+00 6.4700867565348990e+00 5.3279419725540915e+00 1.0794815385344025e+01 
341 0 1 1.0280000000001372e+00 1.6880087014019736e+01 1.0000000000000000e+00 5.0088581370511891e+00 4.2198575788159465e+00 1.0163006410711855e+01 
75 0 1 1.0280000000003104e+00 -8.5213234949297672e+00 1.0000000000000000e+00 8.6572271331255835e-01 8.2741926905073573e+00 1.1542196688363818e+01 
236 0 1 1.0279999999997498e+00 8.5300130977781006e+00 1.0000000000000000e+00 1.1097903472339325e-01 8.3855172761357100e+00 1.1468948297705749e+01 
7 0 1 1.0279999999995229e+00 -1.7050512762426635e+01 1.0000000000000000e+00 2.4707083806350494e+00 7.9173458613920884e+00 1.1309484083971181e+01 
233 0 1 1.0279999999995726e+00 1.4984085859364284e+00 1.0000000000000000e+00 2.3676925974179230e+00 7.9090144557922653e+00 1.1302641250127953e+01 
70 0 1 1.0279999999996057e+00 -3.5534134583302844e+01 1.0000000000000000e+00 2.2938105990046362e+00 7.9050717508398538e+00 1.1294177599622570e+01 
299 0 1 1.0280000000006617e+00 1.1788852710160779e+01 1.0000000000000000e+00 1.5841403622308829e+00 7.9602999123489697e+00 1.1025221268349082e+01 
300 0 1 1.0279999999999214e+00 4.3577030326311288e+00 1.0000000000000000e+00 4.0673657942869479e+00 6.9381944721372086e+00 1.2534297791228227e+01 
301 0 1 1.0279999999999165e+00 -1.2157043064091635e+01 1.0000000000000000e+00 4.0737877683859320e+00 6.9404617998959761e+00 1.2533693239916351e+01 
124 0 1 1.0279999999999159e+00 6.6616439272568089e+00 1.0000000000000000e+00 4.1481545092707499e+00 6.9555309679567570e+00 1.2523832962328099e+01 
228 0 1 1.0280000000002187e+00 9.1201977620718271e+00 1.0000000000000000e+00 4.6580488998145952e+00 8.0722377991762624e+00 1.2064287825125403e+01 
523 0 1 1.0280000000002225e+00 1.9124220562270233e+00 1.0000000000000000e+00 4.6809351956602336e+00 8.0721331102940308e+00 1.2050083011490848e+01 
132 0 1 1.0280000000002589e+00 -4.7119397190568413e-01 1.0000000000000000e+00 3.6745147420623288e+00 8.3182224491196308e+00 1.1448524652571896e+01 
600 0 1 1.0279999999999561e+00 -3.8863743159295385e+00 1.0000000000000000e+00 5.5074293158563137e+00 7.8054653729001338e+00 1.1217388808076493e+01 
65 0 1 1.0280000000003551e+00 -1.0017385993299165e+01 1.0000000000000000e+00 5.1664075964669225e+00 8.2705258144392939e+00 1.0716376234978830e+01 
149 0 1 1.0280000000004865e+00 -5.4230950553853208e-01 1.0000000000000000e+00 5.3981210181626480e+00 8.2208161604648176e+00 1.0528278064768584e+01 
347 0 1 1.0279999999997662e+00 1.5663935003761756e+01 1.0000000000000000e+00 5.6498874501217493e+00 6.7146985226536806e+00 1.0169348747802974e+01 
48 0 1 1.0280000000000513e+00 -7.1130833497327464e+00 1.0000000000000000e+00 2.2163360419919504e+00 6.3214077117182432e-01 1.3371432026889037e+01 
371 0 1 1.0280000000005933e+00 6.3920375105988434e+00 1.0000000000000000e+00 2.4819394072401244e+00 1.7327636066915035e+00 1.3429595541967053e+01 
356 0 1 1.0279999999997107e+00 1.1503990907719283e+01 1.0000000000000000e+00 2.3528331877685909e+00 1.1006117955859227e+00 1.3549368227363756e+01 
133 0 1 1.0279999999998470e+00 -6.9550919523892416e+00 1.0000000000000000e+00 2.4219718008292617e+00 9.3543158878991728e-01 1.3540683554924215e+01 
33 0 1 1.0279999999998479e+00 -4.2851800133265154e+00 1.0000000000000000e+00 7.9051358115970993e-01 1.0204276945403665e+00 1.4422699578299845e+01 
49 0 1 1.0280000000000318e+00 -1.4154367354190528e+01 1.0000000000000000e+00 6.0691159583292753e-01 5.6774547881985915e-01 1.4890373926772240e+01 
191 0 1 1.0280000000000717e+00 6.1510091893740535e+00 1.0000000000000000e+00 1.4990741113383744e-04 4.8079771602544236e-01 1.5833109513649195e+01 
126 0 1 1.0280000000000702e+00 -1.6787250378318525e+01 1.0000000000000000e+00 1.1512938390640326e+00 1.6555491891814806e+00 1.5994530365517807e+01 
456 0 1 1.0280000000002758e+00 3.5527118477236765e+00 1.0000000000000000e+00 1.0243110997442324e+00 1.5218884707382134e+00 1.6273150963531346e+01 
617 0 1 1.0280000000001743e+00 -7.5225633574283197e+00 1.0000000000000000e+00 1.0689374598723838e+00 1.9293008354604306e+00 1.6313054543062336e+01 
608 0 1 1.0279999999999136e+00 -1.5653082827308605e+01 1.0000000000000000e+00 5.9240988288283081e+00 4.6318024337847508e-01 1.3481406077533061e+01 
28 0 1 1.0279999999999210e+00 -3.7843270901174520e+01 1.0000000000000000e+00 5.9405565817137953e+00 4.3698633099784645e-01 1.3469945623352100e+01 
370 0 1 1.0280000000002474e+00 6.2692126342123462e+00 1.0000000000000000e+00 5.1163514866542839e+00 1.1459491684193377e+00 1.3510502524845302e+01 
118 0 1 1.0280000000000133e+00 4.5333496750850832e+00 1.0000000000000000e+00 4.1858408240083165e+00 1.7229695143842378e+00 1.3763278139827293e+01 
102 0 1 1.0279999999999396e+00 8.6447971563498438e+00 1.0000000000000000e+00 3.8566044758008071e+00 1.7578327915023022e+00 1.3854183285551651e+01 
453 0 1 1.0280000000000216e+00 2.1949926693829443e+01 1.0000000000000000e+00 1.0018986685816194e+00 5.5970164819626858e+00 1.3488583239791808e+01 
459 0 1 1.0280000000002778e+00 1.0964890907926078e+01 1.0000000000000000e+00 2.0006408172564388e-01 4.1164009571449762e+00 1.4004927806018189e+01 
592 0 1 1.0280000000001766e+00 5.2423535048929022e+00 1.0000000000000000e+00 2.7653804082923833e-01 4.0816227154944489e+00 1.4052608162442468e+01 
432 0 1 1.0280000000000458e+00 1.8192717829652199e+01 1.0000000000000000e+00 2.9273925136423418e+00 3.7752151150521667e+00 1.4658185367903917e+01 
494 0 1 1.0280000000000962e+00 8.9158461104706745e+00 1.0000000000000000e+00 2.7361374271192438e+00 4.0183979438418849e+00 1.4672992009357687e+01 
534 0 1 1.0279999999997915e+00 -5.4023805837623362e-01 1.0000000000000000e+00 1.5226287827902574e+00 4.8664879836301598e+00 1.5162649525922792e+01 
606 0 1 1.0279999999999376e+00 -2.8055961800677141e+00 1.0000000000000000e+00 1.7196590903040736e+00 4.6045243069279049e+00 1.5371338366981838e+01 
379 0 1 1.0280000000001870e+00 -1.0569555983366534e+01 1.0000000000000000e+00 1.9809376150176869e+00 4.2769088371947870e+00 1.5395704286675723e+01 
554 0 1 1.0279999999995963e+00 -9.7911535029340655e+00 1.0000000000000000e+00 2.8727532231421665e-01 4.6436238583643723e+00 1.5913682853720299e+01 
186 0 1 1.0279999999993923e+00 1.2722092741543138e+01 1.0000000000000000e+00 1.1181297655108537e+00 4.4636291111046384e+00 1.5902968422410030e+01 
145 0 1 1.0279999999999638e+00 1.4308328468152766e+01 1.0000000000000000e+00 5.1375531293874763e+00 4.4449409548948040e+00 1.3409008387061141e+01 
603 0 1 1.0279999999999259e+00 -1.1246001516525670e+01 1.0000000000000000e+00 5.2750161636085409e+00 4.0821894598357353e+00 1.3547551596961364e+01 
411 0 1 1.0279999999997362e+00 1.8936102267261937e+01 1.0000000000000000e+00 3.8120677053314482e+00 3.3615068902843990e+00 1.4479025261475702e+01 
355 0 1 1.0280000000001117e+00 1.7806388586658723e+01 1.0000000000000000e+00 4.0864268992484192e+00 3.4113531029428001e+00 1.4392668722740904e+01 
265 0 1 1.0280000000000522e+00 1.6920973389771603e+01 1.0000000000000000e+00 4.1440993821386964e+00 3.4217943374810971e+00 1.4370793978723423e+01 
435 0 1 1.0279999999992300e+00 -2.0071734129466172e+01 1.0000000000000000e+00 1.6664157865046048e-02 2.6509841008221815e+00 1.8607104313303864e+01 
14 0 1 1.0279999999999279e+00 -3.1983567233061290e+01 1.0000000000000000e+00 8.5102597153604609e-01 2.4280594999371043e+00 1.7105753015012269e+01 
604 0 1 1.0280000000001337e+00 -8.6966771821897524e+00 1.0000000000000000e+00 8.2067762713306647e-01 2.3943798577828792e+00 1.7189342479936244e+01 
84 0 1 1.0280000000000891e+00 -4.3901650980046085e+01 1.0000000000000000e+00 2.6774133845115164e+00 1.0434629120851431e+01 4.6985017762074381e+00 
309 0 1 1.0279999999999747e+00 -2.2541235024168005e+00 1.0000000000000000e+00 3.1016455319528720e+00 1.0954871998578467e+01 6.0598297490152433e+00 
156 0 1 1.0280000000001401e+00 -1.1164692904799157e+01 1.0000000000000000e+00 2.1434399435855398e+00 1.0149887553079010e+01 4.8838893091756628e+00 
561 0 1 1.0279999999999723e+00 -1.0755281915123476e+01 1.0000000000000000e+00 3.9473121458233136e+00 1.1170913868056120e+01 5.3270530626111912e+00 
639 0 1 1.0280000000000102e+00 -2.3851403550421544e+01 1.0000000000000000e+00 3.9900023037721688e+00 1.1182341199998364e+01 5.3647482698302520e+00 
39 0 1 1.0280000000000022e+00 -4.1511899373539283e+00 1.0000000000000000e+00 4.0528670937095930e+00 1.1197418740449622e+01 5.4261771506127738e+00 
465 0 1 1.0279999999997289e+00 3.7180834187064060e+00 1.0000000000000000e+00 5.2977843307881543e+00 1.0136247802248842e+01 5.5871910648912770e+00 
240 0 1 1.0279999999999776e+00 8.6783017018442479e+00 1.0000000000000000e+00 4.4939470607058549e+00 1.1044228165345993e+01 7.2530614393961681e+00 
148 0 1 1.0279999999999854e+00 -5.0828703863098710e+00 1.0000000000000000e+00 4.3308942214453561e+00 1.0870853911671206e+01 7.5795933669962681e+00 
154 0 1 1.0280000000000118e+00 -2.1483905646764573e+01 1.0000000000000000e+00 4.3123916625582943e+00 1.0722630070934727e+01 7.7771676614276837e+00 
555 0 1 1.0280000000000191e+00 -7.7534862502792974e+00 1.0000000000000000e+00 6.5903345757959029e+00 1.0985529259708002e+01 8.6115744697233776e+00 
471 0 1 1.0280000000000113e+00 1.8385521438705936e+00 1.0000000000000000e+00 5.1268642600417067e+00 1.0314399160343115e+01 9.0835046921588312e+00 
135 0 1 1.0280000000000062e+00 -2.9337984980248404e+00 1.0000000000000000e+00 5.1615831345824947e+00 1.0186535274002818e+01 9.1547192456347464e+00 
6 0 1 1.0280000000003373e+00 -9.5817315561923824e+00 1.0000000000000000e+00 3.8686733305767875e+00 1.0100532797510676e+01 7.4195588870983133e+00 
231 0 1 1.0279999999999454e+00 -1.6108271472703365e+01 1.0000000000000000e+00 5.3315839389105619e+00 1.0040266197731610e+01 9.3020073613832697e+00 
586 0 1 1.0279999999999607e+00 -9.5390260986661808e+00 1.0000000000000000e+00 2.8513188989205380e+00 1.9580599563681115e+01 1.1620286411394378e+01 
502 0 1 1.0280000000001506e+00 1.9083220808799475e-01 1.0000000000000000e+00 2.4758433842290328e+00 1.9736611788081909e+01 1.1369690474709627e+01 
202 0 1 1.0279999999998286e+00 -3.3571087009863509e+00 1.0000000000000000e+00 8.9646454878179194e-01 1.9206121258399836e+01 1.1184225977601780e+01 
509 0 1 1.0279999999991070e+00 -9.7564269486060035e-02 1.0000000000000000e+00 1.5571407781873199e+00 1.9778581297713771e+01 1.1074108062366438e+01 
112 0 1 1.0279999999998974e+00 -2.6028405452936177e+01 1.0000000000000000e+00 4.1673280727656831e-01 1.9121334317252863e+01 1.0673757589271681e+01 
609 0 1 1.0279999999999356e+00 -4.1440411830526031e+01 1.0000000000000000e+00 3.6832490524072403e+00 1.9615003798851621e+01 1.2041684166356077e+01 
495 0 1 1.0279999999999720e+00 4.5504615137650983e+00 1.0000000000000000e+00 3.3372255384417393e+00 1.9584284587483459e+01 1.1834817052107745e+01 
31 0 1 1.0279999999995917e+00 -9.4875747694901627e+00 1.0000000000000000e+00 4.6548459045016886e+00 1.9940609877026173e+01 1.2263072721448891e+01 
267 0 1 1.0279999999994966e+00 -5.5014799727091219e+00 1.0000000000000000e+00 4.5814449012380152e+00 1.9910599164688779e+01 1.2252922040009512e+01 
479 0 1 1.0279999999999614e+00 1.3263668491864651e+01 1.0000000000000000e+00 8.9789756179376425e+00 6.0596703008467259e+00 2.9322342308255132e+00 
339 0 1 1.0280000000000999e+00 1.4275404131021709e+01 1.0000000000000000e+00 1.2874922532732652e+01 3.5265173942912096e+00 3.1604687569045029e+00 
496 0 1 1.0279999999998854e+00 -3.0748106608855004e+00 1.0000000000000000e+00 1.2427990708282193e+01 3.7154095128209170e+00 2.9104562192854173e+00 
276 0 1 1.0279999999999938e+00 1.3659550534327753e+01 1.0000000000000000e+00 1.1191951370864812e+01 3.7345380523837992e+00 3.3088204238942200e+00 