LAMMPS data file via write_data, version 30 Jul 2016, timestep = 50000000

1520 atoms
8 atom types

0.0000000000000000e+00 4.0000000000000000e+01 xlo xhi
0.0000000000000000e+00 4.0000000000000000e+01 ylo yhi
0.0000000000000000e+00 1.0000000000000000e+02 zlo zhi

Masses

1 3.896
2 5.36
3 20.064
4 8.378
5 8.378
6 8.378
7 8.378
8 8.378

Atoms # meso-molecular

476 477 2 1.0280000000000014e+00 7.8165821123014121e+02 1.0000000000000000e+00 1.3219189871143646e+01 1.0930515939016072e+01 1.0263487839696515e+00 
1493 1494 2 1.0279999967296862e+00 9.3936901343284921e+02 1.0000000000000000e+00 1.1529376341709419e+01 1.3178101682573375e+01 4.1714569874363455e-01 
706 707 2 1.0280000058775614e+00 -9.5383321830169621e+02 1.0000000000000000e+00 1.0434634477668352e+01 1.3816777538613088e+01 5.2840368969559282e-01 
549 550 2 1.0280000013183987e+00 1.8309679685437636e+03 1.0000000000000000e+00 1.3325272104442400e+01 1.4419049846880965e+01 5.1115961335789850e-01 
825 826 2 1.0279999995669091e+00 1.1910831796605622e+02 1.0000000000000000e+00 1.2036263849534773e+01 1.4832237923882728e+01 1.0112857227227889e+00 
43 44 2 1.0280000034043013e+00 1.2788706501258774e+02 1.0000000000000000e+00 6.5894898281914100e+00 1.7932879293574782e+01 6.4658593462866809e-01 
1409 1410 2 1.0279999994243316e+00 4.6457645554331032e+02 1.0000000000000000e+00 6.7618297046065008e+00 1.6932005681617721e+01 1.1972123643992336e-01 
1111 1112 2 1.0279999986762067e+00 4.1199842084895522e+01 1.0000000000000000e+00 1.0856890943269768e+01 1.8325075755279563e+01 1.4969006258273335e-01 
1089 1090 2 1.0279999996066289e+00 -6.4833079897928815e+02 1.0000000000000000e+00 1.3219838857444205e-01 1.8941953093295687e+01 5.9322682484210176e-01 
1025 1026 2 1.0279999939350553e+00 1.3429380770653881e+03 1.0000000000000000e+00 1.5563252717005014e+00 1.9687387164726548e+01 1.0008891751302385e+00 
1016 1017 2 1.0280000038233545e+00 2.2015148696871739e+02 1.0000000000000000e+00 4.7556851180934627e+00 1.9756312074466003e+01 9.8025756777752368e-02 
310 311 2 1.0279999986922288e+00 4.3141668817452592e+02 1.0000000000000000e+00 8.3568640690547884e+00 1.9967097970119632e+01 4.6183762916516560e-02 
165 166 2 1.0280000000966452e+00 7.6312780330845544e+02 1.0000000000000000e+00 9.6206862100524297e+00 1.9765904315829953e+01 3.0411638607772412e-01 
1304 1305 2 1.0279999999999949e+00 8.7096470531857995e+02 1.0000000000000000e+00 1.4039388906129187e+01 8.7324381568682247e-02 2.2482962358609302e+00 
356 357 2 1.0280000000000014e+00 -2.6983302667293094e+02 1.0000000000000000e+00 1.3745711499768946e+01 1.0535291523151216e+01 1.9611993886936256e+00 
796 797 2 1.0280000000000018e+00 3.6601619033820025e+00 1.0000000000000000e+00 3.0439622647762965e+00 1.3010068923124273e+01 2.9800167243849445e+00 
614 615 2 1.0279999990151694e+00 -1.3373496504020534e+02 1.0000000000000000e+00 6.1141861194614311e-01 1.7147905864534611e+01 2.4807301053521456e+00 
226 227 2 1.0280000013041244e+00 -1.1977751908732794e+03 1.0000000000000000e+00 1.5655257997490379e-01 1.9594149488382730e+01 2.6877710217586634e+00 
1037 1038 2 1.0280000011120332e+00 1.4783732426453719e+02 1.0000000000000000e+00 2.8553161908089342e+00 1.9817438259288053e+01 1.8209305973015968e+00 
1124 1125 2 1.0280000000000018e+00 1.7866775055505286e+02 1.0000000000000000e+00 3.5396219962114936e+00 1.2368831322594737e+01 3.7865579742658446e+00 
1080 1081 2 1.0280000005222054e+00 1.1707423066874562e+03 1.0000000000000000e+00 6.7529732542363323e+00 1.4290709549041360e+01 4.8687928198046873e+00 
12 13 2 1.0280000009864199e+00 1.0805808814623165e+02 1.0000000000000000e+00 1.5029725257775670e+00 1.5425834338165425e+01 3.5993019375662896e+00 
16 17 2 1.0279999996210647e+00 1.0677583278729492e+02 1.0000000000000000e+00 3.2293516988961873e-01 1.5610467811190276e+01 3.6607994901039813e+00 
401 402 2 1.0279999991315165e+00 -4.7777517527489658e+02 1.0000000000000000e+00 2.9560472511236564e+00 1.6593488114621916e+01 4.3197175052424548e+00 
1149 1150 2 1.0279999978128345e+00 -8.7743667488202868e+02 1.0000000000000000e+00 1.8006382737575113e+00 1.7374732265932842e+01 3.8077463393260791e+00 
1222 1223 2 1.0280000013497084e+00 -6.6928267591282292e+02 1.0000000000000000e+00 4.7086766135594793e+00 1.7789073694044475e+01 4.1719000912751678e+00 
227 228 2 1.0279999976703003e+00 -1.2460040469636306e+03 1.0000000000000000e+00 1.4417417920866347e+00 1.8920981248509914e+01 3.4484051122458750e+00 
1026 1027 2 1.0280000014868422e+00 3.6380610104510646e+02 1.0000000000000000e+00 3.0796526435673037e+00 1.8575707781920023e+01 4.5714412124577350e+00 
548 549 2 1.0279999970078779e+00 2.2654006668248403e+03 1.0000000000000000e+00 3.7697325709477107e+00 1.9853073909984857e+01 4.0826906877500022e+00 
391 392 2 1.0279999995873410e+00 1.8043866894137940e+02 1.0000000000000000e+00 4.9407099419252427e+00 1.9407339900174595e+01 4.7576747977677556e+00 
272 273 2 1.0280000000000005e+00 7.0380044903369298e+02 1.0000000000000000e+00 1.3230472761274331e+01 8.0638520324937648e+00 6.5776687274778602e+00 
271 272 2 1.0280000000000005e+00 -1.1385424987050096e+03 1.0000000000000000e+00 1.2433602942662461e+01 8.6126637927976297e+00 5.9684256221443688e+00 
760 761 2 1.0280000000000000e+00 1.0964043164413533e+03 1.0000000000000000e+00 1.6833434956334631e+01 1.0996028973980703e+01 5.5102324239417131e+00 
757 758 2 1.0280000000000000e+00 1.1183879592828384e+03 1.0000000000000000e+00 1.7510533992358770e+01 1.1687888023217683e+01 6.1187067199171681e+00 
856 857 2 1.0280000005652177e+00 1.8917283072732130e+02 1.0000000000000000e+00 2.0744789801944346e+00 1.4552324582540885e+01 6.3501229409056856e+00 
924 925 2 1.0279999992966078e+00 -9.5722122294920587e+02 1.0000000000000000e+00 7.7641366906806848e+00 1.4514629653036751e+01 5.4684431004898784e+00 
25 26 2 1.0279999986753305e+00 9.8437895212033163e+02 1.0000000000000000e+00 3.6932528655322527e+00 1.5938870100384737e+01 5.8447430810399226e+00 
753 754 2 1.0280000000342873e+00 -2.1935647047335132e+02 1.0000000000000000e+00 6.7563143416446136e+00 1.6085529893389989e+01 5.3870270420577757e+00 
1393 1394 2 1.0280000013729091e+00 9.0844697191183764e+02 1.0000000000000000e+00 2.5712174497397977e+00 1.6963745973625464e+01 5.8401496231334598e+00 
77 78 2 1.0279999986222359e+00 1.2759864472394613e+03 1.0000000000000000e+00 3.9753096840832978e+00 1.7794479490711161e+01 5.6545500903967838e+00 
1226 1227 2 1.0279999970858025e+00 7.5946238487907544e+02 1.0000000000000000e+00 5.8823526710768750e+00 1.8047522284072585e+01 5.0575159275324575e+00 
685 686 2 1.0280000000708818e+00 -6.9122167644045433e+01 1.0000000000000000e+00 7.4972688022890432e+00 1.7453895835063971e+01 5.7473083954685569e+00 
480 481 2 1.0280000005741858e+00 -6.2167832161384877e+02 1.0000000000000000e+00 4.8354099848741487e+00 1.2875508716329547e+01 6.6981428561319758e+00 
628 629 2 1.0279999993660740e+00 7.0876357144254666e+02 1.0000000000000000e+00 5.1318269662132980e+00 1.3293977752070779e+01 7.7353627799666445e+00 
859 860 2 1.0279999992712672e+00 -1.0207357471872110e+03 1.0000000000000000e+00 1.5479532682914394e+00 1.4956711125029166e+01 7.4106449952613831e+00 
1144 1145 2 1.0279999992847588e+00 1.1039608525197204e+02 1.0000000000000000e+00 3.8106855497824830e+00 1.4659615357630663e+01 6.9165676640414784e+00 
1148 1149 2 1.0280000009274668e+00 3.5158183891349786e+01 1.0000000000000000e+00 3.1089144162010731e+00 1.5681652211590730e+01 7.5306918926792932e+00 
905 906 2 1.0279999994869295e+00 -2.2894272014179674e+02 1.0000000000000000e+00 6.4886099557661225e+00 1.6078926241043707e+01 6.8359790956633857e+00 
1503 1504 2 1.0280000008607018e+00 7.8833676733665641e+01 1.0000000000000000e+00 5.1558195650403471e+00 1.6156504908293872e+01 8.2286242377814425e+00 
792 793 2 1.0279999999668188e+00 1.3068220119681478e+03 1.0000000000000000e+00 8.9826011574713061e+00 1.6356985161999020e+01 7.6829616089637547e+00 
354 355 2 1.0280000002308205e+00 -5.7377177810882426e+02 1.0000000000000000e+00 6.4582403924001159e+00 1.7722555719351938e+01 6.6699827590906411e+00 
1100 1101 2 1.0280000000509837e+00 2.4876657044564686e+02 1.0000000000000000e+00 9.6097894883582544e+00 1.7327829659457464e+01 8.1097352613081100e+00 
1415 1416 2 1.0280000000000000e+00 -2.6644930273164653e+02 1.0000000000000000e+00 1.6401116062191708e+01 1.8745475670506803e+01 7.4920177720807395e+00 
1416 1417 2 1.0280000000000000e+00 4.2040965155022513e+02 1.0000000000000000e+00 1.7377407702659930e+01 1.9338326420961298e+01 7.4395236019649129e+00 
1199 1200 2 1.0280000000000000e+00 -9.3211026129565153e+02 1.0000000000000000e+00 9.0358001886159673e+00 9.4838864741109674e+00 9.6551624280287456e+00 
1096 1097 2 1.0279999998416935e+00 -3.5430986128608907e+01 1.0000000000000000e+00 9.3083845662038573e+00 1.4476484633204397e+01 9.8515873130689222e+00 
1499 1500 2 1.0279999993671574e+00 6.1159913232599729e+02 1.0000000000000000e+00 6.8603449610847855e+00 1.5424833233667030e+01 8.4209837304108355e+00 
1276 1277 2 1.0279999993832558e+00 8.4822654291044023e+02 1.0000000000000000e+00 7.7901297025681018e+00 1.5782429420772845e+01 9.4032018441321448e+00 
1273 1274 2 1.0280000001360710e+00 8.5181240355633315e+02 1.0000000000000000e+00 9.6828825831165375e+00 1.6007427440098606e+01 9.2826420954356959e+00 
1239 1240 2 1.0279999994420348e+00 7.3289904389852168e+01 1.0000000000000000e+00 5.9539649461170026e+00 1.6878028462494374e+01 8.8442718632960204e+00 
764 765 2 1.0280000000000000e+00 1.1532008150460042e+03 1.0000000000000000e+00 8.9084148595239174e+00 1.6788141169589208e+00 1.1538538822945609e+01 
906 907 2 1.0280000000000034e+00 -1.6315084137811510e+02 1.0000000000000000e+00 3.3128651704542528e-01 6.1581063853971738e+00 1.0095782257060238e+01 
456 457 2 1.0280000000000322e+00 8.2952893398073009e+00 1.0000000000000000e+00 9.9741110926797560e+00 5.6477795432466724e+00 1.0912429667677022e+01 
1051 1052 2 1.0280000000000000e+00 5.1109062186603387e+02 1.0000000000000000e+00 8.6229197725727271e+00 8.7058013577556679e+00 1.0384193518732744e+01 
1284 1285 2 1.0280000000526053e+00 8.7619671518933751e+02 1.0000000000000000e+00 8.5380617352131729e+00 1.4756075270277279e+01 1.0963654960202829e+01 
544 545 2 1.0280000001449801e+00 5.8397229217635993e+02 1.0000000000000000e+00 1.0601878614251772e+01 1.4783713416857792e+01 1.1163957868668655e+01 
822 823 2 1.0279999999700196e+00 -1.4435167217407420e+03 1.0000000000000000e+00 8.7990787978366836e+00 1.6264087076420324e+01 1.0601284577994203e+01 
567 568 2 1.0279999997560596e+00 3.3656546332016978e+02 1.0000000000000000e+00 1.0749386503174756e+01 1.5948582934987490e+01 1.0870135746029245e+01 
761 762 2 1.0280000000000000e+00 1.2187024682780045e+03 1.0000000000000000e+00 9.8523393619005439e+00 1.3666077576852462e+00 1.2103257107137697e+01 
455 456 2 1.0280000000000322e+00 -9.0143156744043540e+02 1.0000000000000000e+00 9.2252607888225207e+00 5.9464158811265113e+00 1.1723239495916202e+01 
1480 1481 2 1.0280000000000000e+00 5.0793200234684730e+02 1.0000000000000000e+00 1.5216854071082711e+01 1.7735483546683369e+01 1.1841246407898998e+01 
1477 1478 2 1.0280000000000000e+00 5.7448486718704225e+02 1.0000000000000000e+00 1.6027697917459097e+01 1.6940045776409079e+01 1.1972334271079973e+01 
55 56 2 1.0279999999999991e+00 -3.5814921735065917e+02 1.0000000000000000e+00 8.9886173694062208e+00 6.5967211107171257e+00 1.4130014209643596e+01 
59 60 2 1.0279999999999991e+00 5.1281060630510422e+02 1.0000000000000000e+00 8.4345391775452310e+00 5.5996038589580790e+00 1.4208292948821528e+01 
718 719 2 1.0280000000000000e+00 -8.6092993065027531e+02 1.0000000000000000e+00 1.7125191597702862e+01 1.2758902924927465e+01 1.4728914007835330e+01 
598 599 2 1.0280000000000000e+00 -1.3112840816648791e+03 1.0000000000000000e+00 1.1634387781050785e+01 1.3370034699146668e+01 1.4991366735380407e+01 
750 751 2 1.0280000000000000e+00 -7.3444632012495299e+02 1.0000000000000000e+00 1.2289960461624879e+01 1.2445518512405569e+01 1.5142586107146505e+01 
719 720 2 1.0280000000000000e+00 -8.4718761211352580e+02 1.0000000000000000e+00 1.7937065009225773e+01 1.2378845822148060e+01 1.5438696495466447e+01 
1386 1387 2 1.0279999999999996e+00 1.6512475591687399e+02 1.0000000000000000e+00 1.1494476224937964e+01 2.2231315131759191e+00 1.7309354661844974e+01 
928 929 2 1.0280000000000000e+00 8.9558556100911767e+02 1.0000000000000000e+00 1.5841427892754423e+01 2.3407123660062807e+00 1.6725614492510481e+01 
128 129 2 1.0280000000000000e+00 9.2710543634015426e+02 1.0000000000000000e+00 1.6983580586091971e+01 2.3692335983507209e+00 1.6770855865898987e+01 
977 978 2 1.0280000000000014e+00 4.6809810844248125e+02 1.0000000000000000e+00 3.7887564403162854e+00 4.3733502859693916e+00 1.7152399862350656e+01 
985 986 2 1.0280000000000014e+00 1.0328691676777416e+03 1.0000000000000000e+00 4.5052005833082438e+00 5.2004404509772968e+00 1.7484066361078593e+01 
434 435 2 1.0280000000000009e+00 -1.6818332832915837e+02 1.0000000000000000e+00 1.4849676042297578e+01 6.1908568662998364e+00 1.6813420347657605e+01 
435 436 2 1.0280000000000009e+00 -1.7453264964655523e+02 1.0000000000000000e+00 1.4893098714898921e+01 6.5147204477269778e+00 1.7909139230212833e+01 
577 578 2 1.0280000000000005e+00 1.2300763591390960e+03 1.0000000000000000e+00 1.8267362952444010e+01 6.3526198561887455e+00 1.8132668337348576e+01 
721 722 2 1.0280000000000005e+00 9.7210965507621313e+02 1.0000000000000000e+00 1.8811398107168635e+01 5.3600678374054995e+00 1.7970682974146236e+01 
717 718 2 1.0280000000000016e+00 8.5175167605868751e+02 1.0000000000000000e+00 3.0220629600137014e+00 1.1934043574525683e+01 1.6948163166686516e+01 
720 721 2 1.0280000000000016e+00 8.5175747905987214e+02 1.0000000000000000e+00 2.8944855052114122e+00 1.2353152815745043e+01 1.8004309205077721e+01 
1390 1391 2 1.0279999999999996e+00 5.9789737058199080e+02 1.0000000000000000e+00 1.1511188766160220e+01 2.0499939572437724e+00 1.8439450717563460e+01 
1313 1314 2 1.0280000100455133e+00 7.9819398198156978e+02 1.0000000000000000e+00 1.7878836236738238e+00 1.5274884196565525e+01 1.9727588641445223e+01 
744 745 2 1.0280000000000007e+00 7.2815203911503727e+02 1.0000000000000000e+00 7.6205466706795431e+00 1.9862778100780190e+01 1.8437632494689481e+01 
588 589 2 1.0280000000000007e+00 -6.0863252852309665e+02 1.0000000000000000e+00 8.5208315340091261e+00 1.9193596901939610e+01 1.8659119978391509e+01 
541 542 2 1.0279999994160332e+00 6.3740776002441794e+02 1.0000000000000000e+00 2.9512160016370526e-02 1.2414920495913766e+01 2.0647859136520886e+01 
533 534 2 1.0280000006047265e+00 1.0725688361925315e+03 1.0000000000000000e+00 9.0267598366364169e-03 1.3182628960652705e+01 2.1494958352376486e+01 
858 859 2 1.0280000000000002e+00 -1.0372007275950332e+03 1.0000000000000000e+00 7.5944901817510253e+00 1.2955717124254184e+01 2.0015013790021509e+01 
853 854 2 1.0280000000000002e+00 1.4111871603976417e+02 1.0000000000000000e+00 8.5076961019371637e+00 1.2346220389780035e+01 2.0334296886130709e+01 
714 715 2 1.0279999973584584e+00 -1.1223890416633046e+03 1.0000000000000000e+00 2.2779557148312231e+00 1.3820029501609875e+01 2.0684988265435617e+01 
589 590 2 1.0280000021486080e+00 8.4737999670485328e+02 1.0000000000000000e+00 1.9888517072595968e+00 1.4708149727897265e+01 2.1550434304797289e+01 
1314 1315 2 1.0279999859798361e+00 -1.3541148108608179e+03 1.0000000000000000e+00 2.9492537332564956e+00 1.5479453822330596e+01 2.0164611261443529e+01 
1036 1037 2 1.0280000000000027e+00 1.2474706577905699e+03 1.0000000000000000e+00 1.1257227223905650e+01 1.0883611593069899e-01 2.2799139307143253e+01 
974 975 2 1.0280000000000014e+00 -1.6550334981796334e+02 1.0000000000000000e+00 5.2815142687753296e+00 4.8785315452414046e+00 2.2391842220169323e+01 
1508 1509 2 1.0280000000000000e+00 1.2084219228532552e+02 1.0000000000000000e+00 1.2931704925313028e+01 8.9691858463573109e+00 2.2779711794284303e+01 
1512 1513 2 1.0280000000000000e+00 1.1962911511385471e+02 1.0000000000000000e+00 1.3776252836161557e+01 9.7324623430633803e+00 2.2672376649451706e+01 
735 736 2 1.0279999552467376e+00 -4.9737707457035219e+02 1.0000000000000000e+00 2.8904047021023698e+00 1.2405632153737772e+01 2.2894537320579307e+01 
1465 1466 2 1.0279999350840310e+00 4.1112674049108495e+02 1.0000000000000000e+00 1.2229515490980234e+00 1.6445961468545139e+01 2.2190199411965441e+01 
1490 1491 2 1.0280000630872805e+00 -7.9363205912625142e+02 1.0000000000000000e+00 8.0665988499422625e-01 1.5737738615554948e+01 2.3022004172125968e+01 
656 657 2 1.0280000000000000e+00 2.4106932087026257e+02 1.0000000000000000e+00 1.1955223608971366e+01 1.6325903459425845e+01 2.1736690938391433e+01 
659 660 2 1.0280000000000000e+00 -9.3235018205015103e+02 1.0000000000000000e+00 1.2498066150502968e+01 1.7256039002555109e+01 2.2120804025866828e+01 
978 979 2 1.0280000000000014e+00 1.8392059230204828e+02 1.0000000000000000e+00 5.3195498358580542e+00 4.7880003070317354e+00 2.3531021928557625e+01 
1155 1156 2 1.0279999986346569e+00 -9.2034150901367889e+02 1.0000000000000000e+00 1.8268017459102768e+00 6.2189718098842253e+00 2.4331592852433779e+01 
485 486 2 1.0279999943571585e+00 1.2572326742069090e+03 1.0000000000000000e+00 6.2875955133813732e-01 7.2156014748656796e+00 2.4740471175779234e+01 
346 347 2 1.0279999930640249e+00 3.7170219390552830e+02 1.0000000000000000e+00 3.6412534851695422e+00 7.2972012254109195e+00 2.4856905466442445e+01 
734 735 2 1.0280000444820718e+00 -5.3320009597034959e+02 1.0000000000000000e+00 3.2295946299293639e+00 1.1643895464496950e+01 2.3676893133440323e+01 
140 141 2 1.0280000001839567e+00 1.2124069777242430e+02 1.0000000000000000e+00 3.2107350595781727e+00 1.5848737439044777e+01 2.3438493427787186e+01 
144 145 2 1.0280000137255982e+00 1.1794320217079385e+02 1.0000000000000000e+00 2.3446957747397099e+00 1.6497771193747688e+01 2.4099897032588849e+01 
52 53 2 1.0280000086553711e+00 3.5981320140366705e+02 1.0000000000000000e+00 4.4004049095488105e+00 1.5336352525646621e+01 2.4525518951275181e+01 
1027 1028 2 1.0280000000000005e+00 4.2054295194594533e+02 1.0000000000000000e+00 8.9357765170127372e+00 1.5941484288342069e+01 2.3885429348000208e+01 
1152 1153 2 1.0280000000000005e+00 -7.5814914732012562e+02 1.0000000000000000e+00 9.8787854369179691e+00 1.6587786755826347e+01 2.3905437220491848e+01 
682 683 2 1.0279999961872808e+00 -1.1727878035046219e+03 1.0000000000000000e+00 4.7020780459133631e+00 1.7852080801961048e+01 2.3993674853428839e+01 
225 226 2 1.0280000065468291e+00 8.2105438060408210e+02 1.0000000000000000e+00 3.2108926780993037e+00 1.8471054528691930e+01 2.4381059802619507e+01 
336 337 2 1.0280000013088659e+00 -1.3926149212724150e+01 1.0000000000000000e+00 4.8279436289341291e+00 1.9280786672509386e+01 2.3802438134110819e+01 
1153 1154 2 1.0280000000000060e+00 -1.9656102288230954e+02 1.0000000000000000e+00 7.2783599477574397e+00 3.1863744584702207e+00 2.6281854129336981e+01 
869 870 2 1.0280000000000060e+00 7.7910463583358546e+02 1.0000000000000000e+00 8.3237981948747812e+00 3.3778249800397377e+00 2.5860216148702296e+01 
645 646 2 1.0280000051983937e+00 9.4825838064478114e+02 1.0000000000000000e+00 1.4844611208962259e+00 5.6520371207947395e+00 2.5545980269885117e+01 
1238 1239 2 1.0280000000000000e+00 5.0415877605352534e+01 1.0000000000000000e+00 9.1222507116518159e+00 5.7274515637757526e+00 2.5170162239619589e+01 
1228 1229 2 1.0280000007827039e+00 -7.5820124030488432e+02 1.0000000000000000e+00 6.7383902835302623e-01 8.1408057494132002e+00 2.5728763559176066e+01 
484 485 2 1.0279999996103824e+00 2.8393293329837098e+02 1.0000000000000000e+00 2.6673584345194392e+00 7.2111792235605714e+00 2.5666487957981200e+01 
181 182 2 1.0279999773112025e+00 5.7517719165290725e+02 1.0000000000000000e+00 4.7830321857604980e+00 8.1687185705975125e+00 2.6136489069261007e+01 
1242 1243 2 1.0280000000000000e+00 -1.2152183195956965e+02 1.0000000000000000e+00 9.6898971152704281e+00 6.7183734751214867e+00 2.5113378936329681e+01 
532 533 2 1.0280000285303434e+00 9.9035173885136419e+02 1.0000000000000000e+00 3.7413837857341274e+00 8.8589449633605604e+00 2.5725062944494145e+01 
66 67 2 1.0280000001877785e+00 -1.2634381634933558e+02 1.0000000000000000e+00 5.7416459365772168e+00 9.3981882620452932e+00 2.5506437536245418e+01 
942 943 2 1.0279999936241508e+00 -3.8998594815702950e+02 1.0000000000000000e+00 4.4660427980063382e+00 1.0826733391196951e+01 2.5661060850189060e+01 
33 34 2 1.0280000044754651e+00 -1.5803159505487065e+02 1.0000000000000000e+00 5.7673544470045650e+00 1.0339971863657510e+01 2.6444858524527326e+01 
201 202 2 1.0279999949813996e+00 9.6684448920605155e+02 1.0000000000000000e+00 2.8633378870880630e+00 1.1965256453794776e+01 2.6278555046801372e+01 
379 380 2 1.0279999902244596e+00 9.0918551283814224e+02 1.0000000000000000e+00 3.5948549750669381e+00 1.4492997933441009e+01 2.5279002179916066e+01 
1097 1098 2 1.0280000115606722e+00 5.6244218191883022e+01 1.0000000000000000e+00 4.0744423275099964e+00 1.3376347818863335e+01 2.6233217152921579e+01 
919 920 2 1.0280000133670451e+00 1.8158100524969322e+02 1.0000000000000000e+00 9.5612150739407664e-01 1.6522395189519216e+01 2.6375906672594265e+01 
763 764 2 1.0279999738168608e+00 2.4117106225559289e+02 1.0000000000000000e+00 1.7942272192306481e+00 1.5782925022338969e+01 2.5600328368258424e+01 
773 774 2 1.0280000060009069e+00 -2.0928724571578357e+02 1.0000000000000000e+00 4.9916052392520411e+00 1.6665859342073681e+01 2.5449971464675418e+01 
1169 1170 2 1.0279999984587234e+00 1.2771289613324650e+03 1.0000000000000000e+00 3.5948582610541870e+00 1.6047048605492460e+01 2.6646149299228700e+01 
1172 1173 2 1.0280000140518961e+00 1.2186763363541977e+03 1.0000000000000000e+00 2.3732785641259606e+00 1.7103320514163542e+01 2.6583555690176002e+01 
220 221 2 1.0280000005143057e+00 8.6472568550212691e+02 1.0000000000000000e+00 4.7541801271621793e+00 1.9037699798318307e+01 2.5289498418745445e+01 
30 31 2 1.0279999976049512e+00 -7.7768867331482284e+02 1.0000000000000000e+00 3.3654930869913908e+00 1.8404666121987614e+01 2.5770966836364398e+01 
198 199 2 1.0280000031850522e+00 -1.1493948655727806e+03 1.0000000000000000e+00 3.1396375995012837e+00 3.1598834863010739e+00 2.7278751378003296e+01 
622 623 2 1.0279999967537605e+00 -6.2756783099814652e+02 1.0000000000000000e+00 4.1189718570272191e+00 2.5955245594211593e+00 2.7106192851627675e+01 
839 840 2 1.0279999887061166e+00 -1.1497944138242390e+03 1.0000000000000000e+00 9.1329678662868496e-01 6.4897522598859405e+00 2.6866616479844598e+01 
4 5 2 1.0280000061109331e+00 -3.4159984868701838e+02 1.0000000000000000e+00 2.4109014076847832e+00 5.5385905626462719e+00 2.7295926256444396e+01 
335 336 2 1.0279999938632935e+00 3.0819235901819617e+01 1.0000000000000000e+00 3.0541049677651668e+00 6.2131331586098835e+00 2.8243383217054756e+01 
1292 1293 2 1.0280000064737083e+00 7.8716609445603547e+02 1.0000000000000000e+00 6.6447419202753433e-02 7.8716960933361326e+00 2.7611874189579915e+01 
1143 1144 2 1.0280000052686395e+00 9.1865172203583461e+02 1.0000000000000000e+00 1.6526859147804100e+00 6.9433020206409335e+00 2.8078613295417750e+01 
1076 1077 2 1.0279999937580795e+00 -7.5985302956185052e+01 1.0000000000000000e+00 7.1673016539478246e-02 9.0060556131252074e+00 2.6976985531624265e+01 
1227 1228 2 1.0280000037933812e+00 6.3476398297795151e+02 1.0000000000000000e+00 1.9696465217574006e+00 1.1225502145500558e+01 2.7020717183698853e+01 
930 931 2 1.0280000193724328e+00 -8.6112881602473783e+02 1.0000000000000000e+00 3.6096815741393171e+00 1.0523214138270632e+01 2.6727731994814860e+01 
1321 1322 2 1.0280000113231109e+00 1.0786049973570998e+03 1.0000000000000000e+00 2.5495123658706398e-01 1.2729594315661032e+01 2.7071303867561181e+01 
850 851 2 1.0279999850443422e+00 -1.4455379731363712e+03 1.0000000000000000e+00 2.4502989236268643e-02 1.2883589148721736e+01 2.8256511915419633e+01 
1180 1181 2 1.0280000060619836e+00 -5.9767435753301015e+02 1.0000000000000000e+00 1.8294071160446055e+00 1.2589287202611251e+01 2.7951089959977171e+01 
1223 1224 2 1.0280000031311924e+00 -7.3845625915841345e+02 1.0000000000000000e+00 4.2414226619360971e+00 1.2284530331154155e+01 2.7908708739619325e+01 
789 790 2 1.0279999881096369e+00 1.3719253993086752e+03 1.0000000000000000e+00 3.2202836845476326e+00 1.3895905988212059e+01 2.7305400331148327e+01 
1246 1247 2 1.0279999982921795e+00 -1.6478806046158261e+03 1.0000000000000000e+00 4.6336021436348505e+00 1.3613983041360470e+01 2.8304681052699777e+01 
1229 1230 2 1.0279999919063858e+00 7.3416869276849957e+02 1.0000000000000000e+00 3.3973246868081550e+00 1.6106268342969337e+01 2.8198642784560189e+01 
1070 1071 2 1.0280000069984101e+00 3.9053010722793454e+02 1.0000000000000000e+00 3.9863544347960929e+00 1.7319617845213521e+01 2.7855063185140271e+01 
1102 1103 2 1.0279999955219463e+00 2.7809146911162252e+01 1.0000000000000000e+00 5.2125215857497391e+00 1.6932677072446658e+01 2.6743471875820855e+01 
1058 1059 2 1.0279999916516800e+00 1.8168174058199926e+02 1.0000000000000000e+00 5.1793516120185243e+00 1.9018070830289187e+01 2.7394849251647770e+01 
910 911 2 1.0280000083781549e+00 2.3825200994120024e+02 1.0000000000000000e+00 5.6756631309082595e+00 1.8427936261943120e+01 2.8264669651245629e+01 
964 965 2 1.0280000000000020e+00 3.2865767670294736e+02 1.0000000000000000e+00 1.5889308540068225e+01 9.3536987018544799e+00 2.9462094545874091e+01 
1101 1102 2 1.0279999903686807e+00 -6.2001534227699392e+02 1.0000000000000000e+00 2.9722420271984791e+00 1.1978344208911924e+01 2.8774591011870029e+01 
1339 1340 2 1.0280000135999534e+00 -1.6689975788013469e+03 1.0000000000000000e+00 3.1636267407828256e+00 1.3612672611963539e+01 2.8934920829445634e+01 
8 9 2 1.0280000308001700e+00 1.0624781514061253e+02 1.0000000000000000e+00 1.9640211960210288e+00 1.4853494580077365e+01 2.9776451023564931e+01 
48 49 2 1.0279999326557401e+00 3.8880731978436489e+02 1.0000000000000000e+00 6.8648995394012105e-02 1.6617570548498261e+01 2.8647671450555347e+01 
1376 1377 2 1.0279999808764628e+00 9.3560671147829879e+01 1.0000000000000000e+00 1.9810630399068940e+00 1.6012693968025136e+01 2.9533024306944512e+01 
47 48 2 1.0280000694716773e+00 -2.0103495338748067e+02 1.0000000000000000e+00 5.4709242199104513e-01 1.7590599390529121e+01 2.9022765492993297e+01 
1412 1413 2 1.0279999999999996e+00 4.6644741691860486e+02 1.0000000000000000e+00 1.9896568329127245e+01 1.6722191604153416e+01 2.9326961500285258e+01 
1290 1291 2 1.0280000000000034e+00 -1.2325070329646455e+03 1.0000000000000000e+00 9.3789586160191849e+00 1.8542583472117503e+01 2.9087668276570078e+01 
832 833 2 1.0280000000000020e+00 6.5040237720654955e+02 1.0000000000000000e+00 1.6448027945380911e+01 9.4203365684408844e+00 3.0457466354959813e+01 
754 755 2 1.0280000613859339e+00 -1.3393149668001374e+02 1.0000000000000000e+00 2.3799949518740898e-02 1.1817215698028795e+01 3.0048978344240481e+01 
301 302 2 1.0279999313370871e+00 -1.8029811267102454e+02 1.0000000000000000e+00 7.2902604990885422e-01 1.2689054011563311e+01 3.0326697550409484e+01 
1009 1010 2 1.0279999962061457e+00 5.4891949830724911e+02 1.0000000000000000e+00 5.9683487225724619e-01 1.4443443843776059e+01 3.1522539671266099e+01 
1291 1292 2 1.0280000000000034e+00 -1.2295763543708772e+03 1.0000000000000000e+00 9.6611917634697662e+00 1.8454613178080816e+01 3.0192194734064856e+01 
41 42 2 1.0280000000000014e+00 4.8130276092035501e+02 1.0000000000000000e+00 1.7309982709383567e-01 7.6398264908170326e+00 3.2256912142208826e+01 
325 326 2 1.0280000000000014e+00 4.2662426709427996e+02 1.0000000000000000e+00 9.8491301283780475e-01 6.8653225580202921e+00 3.2477084863028971e+01 
1468 1469 2 1.0280000000000034e+00 4.2861836521932344e+02 1.0000000000000000e+00 2.4208505529175368e+00 1.0392479260511266e+01 3.2286278335794016e+01 
963 964 2 1.0280000000000034e+00 2.6332656651771651e+02 1.0000000000000000e+00 2.9653835934589354e+00 1.1339770148857317e+01 3.2623171134877069e+01 
280 281 2 1.0279999966126911e+00 6.8812059001569736e+01 1.0000000000000000e+00 1.5114928770795526e+00 1.4547338723144971e+01 3.2659144033737633e+01 
769 770 2 1.0280000000000022e+00 -9.3681832276913099e+02 1.0000000000000000e+00 8.6121445779545862e+00 1.3458655071342507e+01 3.2480888052067904e+01 
1012 1013 2 1.0280000010191233e+00 5.6194365988822938e+02 1.0000000000000000e+00 7.1393266118131093e-01 1.5699153192280548e+01 3.2226598436319144e+01 
1320 1321 2 1.0280000000000022e+00 9.7957458670352094e+02 1.0000000000000000e+00 7.2609340960311597e+00 4.0828493701805293e+00 3.4184237697167134e+01 
1317 1318 2 1.0280000000000022e+00 9.7520062473862095e+02 1.0000000000000000e+00 8.2013429537706468e+00 3.9582797271410577e+00 3.4822584469522774e+01 
965 966 2 1.0280000000000022e+00 4.3538363637814882e+02 1.0000000000000000e+00 8.0326240459520157e+00 1.3262374973689187e+01 3.3446808904783794e+01 
742 743 2 1.0279999771739394e+00 -1.5244351102794142e+03 1.0000000000000000e+00 3.1353218730305668e+00 1.3650496907193638e+01 3.3603347734356866e+01 
894 895 2 1.0280000239684142e+00 -1.4582191926549115e+03 1.0000000000000000e+00 2.9995395560945926e+00 1.4550899874692378e+01 3.4314988214574214e+01 
108 109 2 1.0279999989262563e+00 4.1351999230429180e+02 1.0000000000000000e+00 1.2429395358819255e+00 1.5713922042316449e+01 3.4374708421850414e+01 
235 236 2 1.0280000002211467e+00 -1.1566575991928667e+03 1.0000000000000000e+00 1.0021597323945626e+00 1.7054945945878956e+01 3.3828488999662113e+01 
1171 1172 2 1.0279999999999982e+00 -1.3857353181306809e+01 1.0000000000000000e+00 1.2766816322882379e+00 9.9991709121256616e+00 3.5992817845123589e+01 
1507 1508 2 1.0279999999999982e+00 8.8749556104555859e+02 1.0000000000000000e+00 7.9352458424521333e-01 1.0682899223284076e+01 3.5214070208911728e+01 
1 2 2 1.0279999998292739e+00 -3.3811600282429538e+02 1.0000000000000000e+00 9.9679396924922592e-01 1.3060701742852160e+01 3.6571072869835575e+01 
1256 1257 2 1.0280000000000018e+00 5.0372001105278446e+02 1.0000000000000000e+00 7.6565198630803240e+00 1.2285862369196211e+01 3.5964625059215727e+01 