LAMMPS data file via write_data, version 30 Jul 2016, timestep = 50400000

1520 atoms
8 atom types

0.0000000000000000e+00 4.0000000000000000e+01 xlo xhi
0.0000000000000000e+00 4.0000000000000000e+01 ylo yhi
0.0000000000000000e+00 1.0000000000000000e+02 zlo zhi

Masses

1 3.896
2 5.36
3 20.064
4 8.378
5 8.378
6 8.378
7 8.378
8 8.378

Atoms # meso-molecular

796 797 2 1.0279999999999985e+00 3.6601619033820025e+00 1.0000000000000000e+00 3.0698783870023183e+00 1.3244922507526390e+01 1.0771875659058248e+00 
614 615 2 1.0279999990472533e+00 -1.3373496504020534e+02 1.0000000000000000e+00 6.4609749617924050e-01 1.7501007745936079e+01 5.8543306496393255e-01 
226 227 2 1.0280000011156660e+00 -1.1977751908732794e+03 1.0000000000000000e+00 1.9087617585884389e-01 1.9947032476065942e+01 7.9230211470872891e-01 
227 228 2 1.0279999980557535e+00 -1.2460040469636306e+03 1.0000000000000000e+00 1.4763924499100631e+00 1.9273746253520684e+01 1.5528653806693307e+00 
1124 1125 2 1.0279999999999985e+00 1.7866775055505286e+02 1.0000000000000000e+00 3.5655381184375154e+00 1.2603684906996854e+01 1.8837288157867340e+00 
1080 1081 2 1.0280000004734742e+00 1.1707423066874562e+03 1.0000000000000000e+00 6.7886452752942894e+00 1.4642512626782992e+01 2.9730813458206491e+00 
12 13 2 1.0280000010051482e+00 1.0805808814623165e+02 1.0000000000000000e+00 1.5380474618376627e+00 1.5778759897820107e+01 1.7038456669902207e+00 
16 17 2 1.0279999995895599e+00 1.0677583278729492e+02 1.0000000000000000e+00 3.5795558963760649e-01 1.5963427898393379e+01 1.7653637576051742e+00 
1149 1150 2 1.0279999979742680e+00 -8.7743667488202868e+02 1.0000000000000000e+00 1.8355429697494197e+00 1.7727565134294402e+01 1.9121817788929387e+00 
401 402 2 1.0279999991609627e+00 -4.7777517527489658e+02 1.0000000000000000e+00 2.9910320737860765e+00 1.6946168696647558e+01 2.4241400029150793e+00 
1222 1223 2 1.0280000014124053e+00 -6.6928267591282292e+02 1.0000000000000000e+00 4.7439581070207311e+00 1.8141288297598582e+01 2.2763254627110756e+00 
1026 1027 2 1.0280000013388602e+00 3.6380610104510646e+02 1.0000000000000000e+00 3.1146374572921940e+00 1.8928215153670486e+01 2.6758347399175775e+00 
391 392 2 1.0279999995872171e+00 1.8043866894137940e+02 1.0000000000000000e+00 4.9757260182691203e+00 1.9759523942828348e+01 2.8620724704885618e+00 
1226 1227 2 1.0279999969220832e+00 7.5946238487907544e+02 1.0000000000000000e+00 5.9175180621494148e+00 1.8399662347718831e+01 3.1619333321393066e+00 
272 273 2 1.0280000000000000e+00 7.0380044903369298e+02 1.0000000000000000e+00 1.3410103343682994e+01 8.1658538506856306e+00 4.7924347414026611e+00 
271 272 2 1.0280000000000000e+00 -1.1385424987050096e+03 1.0000000000000000e+00 1.2613233525071124e+01 8.7146656109894955e+00 4.1831916360691679e+00 
480 481 2 1.0280000004709524e+00 -6.2167832161384877e+02 1.0000000000000000e+00 4.8709565108373747e+00 1.3227908484457425e+01 4.8024222095850888e+00 
760 761 2 1.0280000000000005e+00 1.0964043164413533e+03 1.0000000000000000e+00 1.6908981435984433e+01 1.1943275104048173e+01 3.6919877809947219e+00 
757 758 2 1.0280000000000005e+00 1.1183879592828384e+03 1.0000000000000000e+00 1.7586080472008572e+01 1.2635134153285152e+01 4.3004620769701756e+00 
856 857 2 1.0280000004800680e+00 1.8917283072732130e+02 1.0000000000000000e+00 2.1099264233947652e+00 1.4904678837201468e+01 4.4543948446852264e+00 
924 925 2 1.0279999993362359e+00 -9.5722122294920587e+02 1.0000000000000000e+00 7.7997803895989346e+00 1.4866454413046741e+01 3.5727230292027063e+00 
25 26 2 1.0279999988507234e+00 9.8437895212033163e+02 1.0000000000000000e+00 3.7284920296483040e+00 1.6291360020572771e+01 3.9491031809138040e+00 
905 906 2 1.0279999993137090e+00 -2.2894272011905937e+02 1.0000000000000000e+00 6.5243705407168564e+00 1.6430760042247744e+01 4.9402162697172471e+00 
753 754 2 1.0280000000754899e+00 -2.1935647047335132e+02 1.0000000000000000e+00 6.7919088564152084e+00 1.6437421285079669e+01 3.4913072436865344e+00 
1393 1394 2 1.0280000012196981e+00 9.0844697191183764e+02 1.0000000000000000e+00 2.6063489812335354e+00 1.7316237544080696e+01 3.9445599776902549e+00 
77 78 2 1.0279999988020669e+00 1.2759864472394613e+03 1.0000000000000000e+00 4.0105106726043314e+00 1.8146810881822230e+01 3.7589192952057120e+00 
354 355 2 1.0280000001615679e+00 -5.7377177810882426e+02 1.0000000000000000e+00 6.4936578935596163e+00 1.8074520101989297e+01 4.7741514310161772e+00 
685 686 2 1.0280000001639888e+00 -6.9122167632676749e+01 1.0000000000000000e+00 7.5326740236933585e+00 1.7805875376046810e+01 3.8515140641282692e+00 
597 598 2 1.0280000000000045e+00 -1.1366333792456489e+03 1.0000000000000000e+00 4.9394297448999618e+00 1.6167790210665817e-01 5.8285497211014414e+00 
628 629 2 1.0279999994732105e+00 7.0876357144254666e+02 1.0000000000000000e+00 5.1673627146894399e+00 1.3646383804700671e+01 5.8396297365229950e+00 
859 860 2 1.0279999993890923e+00 -1.0207357471872110e+03 1.0000000000000000e+00 1.5834203864786900e+00 1.5309059337322880e+01 5.5149201787767366e+00 
1148 1149 2 1.0280000007847812e+00 3.5158183897034128e+01 1.0000000000000000e+00 3.1443639685551066e+00 1.6034070846476983e+01 5.6350094891490006e+00 
1144 1145 2 1.0279999994048659e+00 1.1039608525197204e+02 1.0000000000000000e+00 3.8461200315371502e+00 1.5012070212961360e+01 5.0208250293706955e+00 
1503 1504 2 1.0280000008800982e+00 7.8833676745034325e+01 1.0000000000000000e+00 5.1919347278194907e+00 1.6508138083522883e+01 6.3328386849846350e+00 
1499 1500 2 1.0279999992511060e+00 6.1159913232599729e+02 1.0000000000000000e+00 6.8965373021814633e+00 1.5776477296537049e+01 6.5251922594395371e+00 
337 338 2 1.0279999999999996e+00 7.7086494020386098e+01 1.0000000000000000e+00 1.4752230241263883e-01 1.8252342299121310e+01 6.1576986312689046e+00 
792 793 2 1.0279999999951843e+00 1.3068220119681478e+03 1.0000000000000000e+00 9.0190351477048498e+00 1.6708233258621970e+01 5.7870720828423838e+00 
1100 1101 2 1.0280000000181633e+00 2.4876657044564686e+02 1.0000000000000000e+00 9.6462335289769783e+00 1.7679079547145875e+01 6.2138423435673742e+00 
1415 1416 2 1.0280000000000000e+00 -2.6644930273164653e+02 1.0000000000000000e+00 1.6513636562486685e+01 1.8391554369351834e+01 5.9213777929269806e+00 
1416 1417 2 1.0280000000000000e+00 4.2040965155022513e+02 1.0000000000000000e+00 1.7489928202954907e+01 1.8984405119806329e+01 5.8688836228111523e+00 
906 907 2 1.0280000000000007e+00 -1.6315084137811510e+02 1.0000000000000000e+00 4.9709261390409942e-01 6.5473791626097420e+00 8.2608578927966967e+00 
1199 1200 2 1.0279999999999994e+00 -9.3211026129565153e+02 1.0000000000000000e+00 9.0255049302812314e+00 9.6594435022257485e+00 7.4495996603120318e+00 
1051 1052 2 1.0279999999999994e+00 5.1109062186603387e+02 1.0000000000000000e+00 8.6126245142379911e+00 8.8813583858704490e+00 8.1786307510160317e+00 
1096 1097 2 1.0279999998104581e+00 -3.5430986128608907e+01 1.0000000000000000e+00 9.3447717120803748e+00 1.4827777495198777e+01 7.9556882566275231e+00 
1276 1277 2 1.0279999992609445e+00 8.4822654291044023e+02 1.0000000000000000e+00 7.8264242365425414e+00 1.6133837861585810e+01 7.5073094178217374e+00 
1273 1274 2 1.0280000002036405e+00 8.5181240355633315e+02 1.0000000000000000e+00 9.7192831793398877e+00 1.6358693490332989e+01 7.3867505671821112e+00 
1239 1240 2 1.0279999994662825e+00 7.3289904389852168e+01 1.0000000000000000e+00 5.9901738427605444e+00 1.7229610063829899e+01 6.9484809710654822e+00 
764 765 2 1.0280000000000000e+00 1.1532008150460042e+03 1.0000000000000000e+00 8.8540549104484843e+00 1.5461522555516636e+00 9.1935689506660658e+00 
761 762 2 1.0280000000000000e+00 1.2187024682780045e+03 1.0000000000000000e+00 9.7979794128251108e+00 1.2339458962779890e+00 9.7582872348581535e+00 
456 457 2 1.0279999999999994e+00 8.2952893398073009e+00 1.0000000000000000e+00 9.6449155182443764e+00 5.6681665768477094e+00 8.7551342903549383e+00 
455 456 2 1.0279999999999994e+00 -9.0143156744043540e+02 1.0000000000000000e+00 8.8960652815375880e+00 5.9668029267511589e+00 9.5659441761847024e+00 
1284 1285 2 1.0280000000649605e+00 8.7619671518933751e+02 1.0000000000000000e+00 8.5744466365525192e+00 1.5107366472169783e+01 9.0677349384933184e+00 
822 823 2 1.0279999999530052e+00 -1.4435167217407420e+03 1.0000000000000000e+00 8.8354433861494979e+00 1.6615374028685903e+01 8.7053642820710078e+00 
544 545 2 1.0280000001776819e+00 5.8397229217635993e+02 1.0000000000000000e+00 1.0638320474586051e+01 1.5134961680558559e+01 9.2680586529092164e+00 
567 568 2 1.0279999996983697e+00 3.3656546332016978e+02 1.0000000000000000e+00 1.0785816383648370e+01 1.6299816233941524e+01 8.9742369217553577e+00 
1480 1481 2 1.0280000000000000e+00 5.0793200234684730e+02 1.0000000000000000e+00 1.5417400681156781e+01 1.8024736706418750e+01 9.9535557769167369e+00 
1477 1478 2 1.0280000000000000e+00 5.7448486718704225e+02 1.0000000000000000e+00 1.6228244527533167e+01 1.7229298936144460e+01 1.0084643640097710e+01 
59 60 2 1.0280000000000000e+00 5.1281060630510422e+02 1.0000000000000000e+00 8.5764169814283573e+00 5.7848235650406377e+00 1.2731272276466790e+01 
55 56 2 1.0280000000000000e+00 -3.5814921735065917e+02 1.0000000000000000e+00 9.1304951367214340e+00 6.7819408313008775e+00 1.2652993463167999e+01 
750 751 2 1.0280000000000000e+00 -7.3444632012495299e+02 1.0000000000000000e+00 1.2439275051828055e+01 1.2575566151551937e+01 1.3205023627347417e+01 
718 719 2 1.0280000000000007e+00 -8.6092993065027531e+02 1.0000000000000000e+00 1.6774192746030305e+01 1.2869579944121337e+01 1.3261237238153919e+01 
598 599 2 1.0280000000000000e+00 -1.3112840816648791e+03 1.0000000000000000e+00 1.1783702371253961e+01 1.3500082338293037e+01 1.3053804255581319e+01 
977 978 2 1.0280000000000020e+00 4.6809810844248125e+02 1.0000000000000000e+00 3.4573452333943577e+00 4.1987025099060391e+00 1.4777981466818023e+01 
434 435 2 1.0280000000000009e+00 -1.6818332832915837e+02 1.0000000000000000e+00 1.5104569207716512e+01 6.7175764291986839e+00 1.4874134491416067e+01 
717 718 2 1.0280000000000016e+00 8.5175167605868751e+02 1.0000000000000000e+00 2.9884869153135893e+00 1.2408257287445574e+01 1.4960593178487436e+01 
719 720 2 1.0280000000000007e+00 -8.4718761211352580e+02 1.0000000000000000e+00 1.7586066157553216e+01 1.2489522841341932e+01 1.3971019725785034e+01 
1386 1387 2 1.0280000000000007e+00 1.6512475591687399e+02 1.0000000000000000e+00 1.1521636379241338e+01 3.0859629047551964e+00 1.5584828005511776e+01 
928 929 2 1.0280000000000000e+00 8.9558556100911767e+02 1.0000000000000000e+00 1.5884854435827078e+01 2.2569866342364349e+00 1.5524548734075363e+01 
128 129 2 1.0280000000000000e+00 9.2710543634015426e+02 1.0000000000000000e+00 1.7027007129164627e+01 2.2855078665808750e+00 1.5569790107463881e+01 
985 986 2 1.0280000000000020e+00 1.0328691676777416e+03 1.0000000000000000e+00 4.1737893763751215e+00 5.0257926749139443e+00 1.5109647965570138e+01 
721 722 2 1.0280000000000000e+00 9.7210965507621313e+02 1.0000000000000000e+00 1.8754919608846059e+01 5.6861324381472658e+00 1.5635046138209836e+01 
435 436 2 1.0280000000000009e+00 -1.7453264964655523e+02 1.0000000000000000e+00 1.5147991880317855e+01 7.0414400106258253e+00 1.5969853373971295e+01 
577 578 2 1.0280000000000000e+00 1.2300763591390960e+03 1.0000000000000000e+00 1.8210884454121434e+01 6.6786844569305215e+00 1.5797031501412127e+01 
720 721 2 1.0280000000000016e+00 8.5175747905987214e+02 1.0000000000000000e+00 2.8609094605113001e+00 1.2827366528664934e+01 1.6016739216878641e+01 
1390 1391 2 1.0280000000000007e+00 5.9789737058199080e+02 1.0000000000000000e+00 1.1538348920463594e+01 2.9128253488230498e+00 1.6714924061230260e+01 
858 859 2 1.0279999999999991e+00 -1.0372007275950332e+03 1.0000000000000000e+00 7.4820983316132423e+00 1.3142482264851528e+01 1.8284402819720842e+01 
1313 1314 2 1.0280000028287670e+00 7.9819398205753373e+02 1.0000000000000000e+00 1.8315908948693076e+00 1.5230930211886179e+01 1.7702470099794784e+01 
1314 1315 2 1.0279999959456085e+00 -1.3541148107717249e+03 1.0000000000000000e+00 2.9925585867011915e+00 1.5435035141406972e+01 1.8139784022920534e+01 
588 589 2 1.0280000000000007e+00 -6.0863252852309665e+02 1.0000000000000000e+00 8.5683564996608723e+00 1.9716953817433488e+01 1.6786079394295871e+01 
853 854 2 1.0279999999999991e+00 1.4111871603976417e+02 1.0000000000000000e+00 8.3953042517993808e+00 1.2532985530377379e+01 1.8603685915830049e+01 
714 715 2 1.0280000004303675e+00 -1.1223890415315605e+03 1.0000000000000000e+00 2.3212238608684945e+00 1.3775724971829336e+01 1.8660281352383180e+01 
589 590 2 1.0279999983767705e+00 8.4738000067517964e+02 1.0000000000000000e+00 2.0310488480236479e+00 1.4663068111858252e+01 1.9525979839077458e+01 
656 657 2 1.0280000000000000e+00 2.4106932087026257e+02 1.0000000000000000e+00 1.1712708992582677e+01 1.7386979075774562e+01 1.9634239262130571e+01 
974 975 2 1.0279999999999994e+00 -1.6550334981796334e+02 1.0000000000000000e+00 5.6278910708603762e+00 4.8033424064152008e+00 2.0610963704742808e+01 
1508 1509 2 1.0280000000000000e+00 1.2084219228532552e+02 1.0000000000000000e+00 1.2922653292269928e+01 8.9655219718202144e+00 2.1337309296645660e+01 
1512 1513 2 1.0280000000000000e+00 1.1962911511385471e+02 1.0000000000000000e+00 1.3767201203118457e+01 9.7287984685262838e+00 2.1229974151813064e+01 
735 736 2 1.0280000000000054e+00 -4.9737707457035219e+02 1.0000000000000000e+00 2.9080010922984649e+00 1.2693722100035460e+01 2.0899562339242706e+01 
1465 1466 2 1.0279999797052530e+00 4.1112674425719479e+02 1.0000000000000000e+00 1.2554414316133333e+00 1.6390245034938211e+01 2.0169802548830138e+01 
1490 1491 2 1.0280000188150051e+00 -7.9363205411695435e+02 1.0000000000000000e+00 8.3748589223982872e-01 1.5682058332442240e+01 2.1001753975296211e+01 
140 141 2 1.0280000046488997e+00 1.2124069848577516e+02 1.0000000000000000e+00 3.2297596556429098e+00 1.5786071226210613e+01 2.1425979555895069e+01 
659 660 2 1.0280000000000000e+00 -9.3235018205015103e+02 1.0000000000000000e+00 1.2255551534114279e+01 1.8317114618903826e+01 2.0018352349605966e+01 
978 979 2 1.0279999999999994e+00 1.8392059230204828e+02 1.0000000000000000e+00 5.6659266379431008e+00 4.7128111682055316e+00 2.1750143413131113e+01 
1155 1156 2 1.0280000002352574e+00 -9.2034150881477410e+02 1.0000000000000000e+00 1.8275653944344656e+00 6.1613392123331057e+00 2.2322664133884931e+01 
1242 1243 2 1.0280000000000000e+00 -1.2152183195956965e+02 1.0000000000000000e+00 9.4447665867725892e+00 6.5796159473425657e+00 2.3018707238161010e+01 
1238 1239 2 1.0280000000000000e+00 5.0415877605352534e+01 1.0000000000000000e+00 8.8771201831539770e+00 5.5886940359968316e+00 2.3075490541450918e+01 
485 486 2 1.0279999987060398e+00 1.2572326742270445e+03 1.0000000000000000e+00 6.2927699173895357e-01 7.1580070900843706e+00 2.2731664195270259e+01 
346 347 2 1.0280000014323032e+00 3.7170219436574922e+02 1.0000000000000000e+00 3.6440947140023332e+00 7.2369636625590639e+00 2.2847647016688924e+01 
734 735 2 1.0280000000000054e+00 -5.3320009573391303e+02 1.0000000000000000e+00 3.2471899918033125e+00 1.1931982810326389e+01 2.1681915943711253e+01 
379 380 2 1.0279999981110848e+00 9.0918551322368148e+02 1.0000000000000000e+00 3.6096703745881689e+00 1.4429878179873771e+01 2.3268582191542265e+01 
144 145 2 1.0280000012926744e+00 1.1794320732027072e+02 1.0000000000000000e+00 2.3643461496120564e+00 1.6436227219768220e+01 2.2087740236611872e+01 
52 53 2 1.0279999982812191e+00 3.5981320202731939e+02 1.0000000000000000e+00 4.4165041914775944e+00 1.5272529998807530e+01 2.2514649480831725e+01 
1027 1028 2 1.0280000000000000e+00 4.2054295194594533e+02 1.0000000000000000e+00 9.0437876919673812e+00 1.6119203441392301e+01 2.2142853099626286e+01 
682 683 2 1.0279999987135340e+00 -1.1727878035046219e+03 1.0000000000000000e+00 4.7180559642477125e+00 1.7787763006186875e+01 2.1982266451926755e+01 
1152 1153 2 1.0280000000000000e+00 -7.5814914732012562e+02 1.0000000000000000e+00 9.9867966120329363e+00 1.6765505908642627e+01 2.2162860972118800e+01 
225 226 2 1.0280000021617701e+00 8.2105438078864699e+02 1.0000000000000000e+00 3.2267620017401097e+00 1.8406800205234692e+01 2.2369418577260593e+01 
336 337 2 1.0280000005087482e+00 -1.3926149209917252e+01 1.0000000000000000e+00 4.8439945986541284e+00 1.9216278602724316e+01 2.1790909795066078e+01 
220 221 2 1.0280000000045915e+00 8.6472568550212691e+02 1.0000000000000000e+00 4.7701763451542663e+00 1.8973185355442730e+01 2.3278146213787160e+01 
1153 1154 2 1.0280000000000011e+00 -1.9656102288230954e+02 1.0000000000000000e+00 7.3643319939506453e+00 2.5801501738319192e+00 2.4468495186701510e+01 
869 870 2 1.0280000000000011e+00 7.7910463583358546e+02 1.0000000000000000e+00 8.4097702410406541e+00 2.7716006954014363e+00 2.4046857205999029e+01 
645 646 2 1.0280000013195461e+00 9.4825838081010863e+02 1.0000000000000000e+00 1.4848720710484833e+00 5.5944932685841424e+00 2.3537134647333545e+01 
839 840 2 1.0279999969284122e+00 -1.1497944137721965e+03 1.0000000000000000e+00 9.1335215221724320e-01 6.4326208732787000e+00 2.4857598094289099e+01 
1228 1229 2 1.0280000003442784e+00 -7.5820124020986941e+02 1.0000000000000000e+00 6.7395925627389741e-01 8.0832077470228008e+00 2.3719743443983223e+01 
484 485 2 1.0279999923762253e+00 2.8393293391842923e+02 1.0000000000000000e+00 2.6696851597535396e+00 7.1515584482127066e+00 2.3656812994190062e+01 
181 182 2 1.0279999965105231e+00 5.7517719188695219e+02 1.0000000000000000e+00 4.7884306305474267e+00 8.1079657226250088e+00 2.4126435439851424e+01 
1076 1077 2 1.0279999981318333e+00 -7.5985302938041727e+01 1.0000000000000000e+00 7.1354069670455239e-02 8.9486885108714294e+00 2.4967765366049012e+01 
532 533 2 1.0280000021515978e+00 9.9035173953394133e+02 1.0000000000000000e+00 3.7465066548192336e+00 8.7979814951785649e+00 2.3715299611723658e+01 
66 67 2 1.0279999948924623e+00 -1.2634381616624104e+02 1.0000000000000000e+00 5.7481426656181691e+00 9.3364233488972026e+00 2.3497173499419183e+01 
942 943 2 1.0279999978116237e+00 -3.8998594774092413e+02 1.0000000000000000e+00 4.4745702728935104e+00 1.0765472305827211e+01 2.3651625737077115e+01 
930 931 2 1.0280000125149102e+00 -8.6112881540544481e+02 1.0000000000000000e+00 3.6186413835553455e+00 1.0461577363112072e+01 2.4719461525088111e+01 
33 34 2 1.0280000064783332e+00 -1.5803159488315424e+02 1.0000000000000000e+00 5.7750114329835016e+00 1.0278465540249712e+01 2.4435823825082799e+01 
201 202 2 1.0279999898523919e+00 9.6684448958832002e+02 1.0000000000000000e+00 2.8737192826687705e+00 1.1903850534005437e+01 2.4269767354915015e+01 
1097 1098 2 1.0280000020175675e+00 5.6244218566843394e+01 1.0000000000000000e+00 4.0875114729404691e+00 1.3313706169171592e+01 2.4223391272466380e+01 
919 920 2 1.0280000040458983e+00 1.8158100540339211e+02 1.0000000000000000e+00 9.7166710726267291e-01 1.6457916767329781e+01 2.4363737107222029e+01 
763 764 2 1.0279999918548310e+00 2.4117106291771023e+02 1.0000000000000000e+00 1.8108385830275358e+00 1.5719823589722914e+01 2.3588685367377860e+01 
1169 1170 2 1.0279999998373206e+00 1.2771289614543070e+03 1.0000000000000000e+00 3.6102049463596981e+00 1.5982445406284009e+01 2.4635502937378916e+01 
773 774 2 1.0280000025732960e+00 -2.0928724565865502e+02 1.0000000000000000e+00 5.0073559448116258e+00 1.6601608592844205e+01 2.3439327378231635e+01 
1172 1173 2 1.0280000045324287e+00 1.2186763363541977e+03 1.0000000000000000e+00 2.3891100409573980e+00 1.7039256686021375e+01 2.4572051582174765e+01 
1102 1103 2 1.0279999969903475e+00 2.7809146931811366e+01 1.0000000000000000e+00 5.2278548281078265e+00 1.6868112988732289e+01 2.4732880103527418e+01 
30 31 2 1.0279999991291418e+00 -7.7768867331482284e+02 1.0000000000000000e+00 3.3816007769306609e+00 1.8340490586495569e+01 2.3759477961146228e+01 
198 199 2 1.0279999999999996e+00 -1.1493948655571671e+03 1.0000000000000000e+00 3.3012797937510934e+00 3.0018824877968298e+00 2.5491150542704187e+01 
622 623 2 1.0279999999999996e+00 -6.2756783099814652e+02 1.0000000000000000e+00 4.2806140931662844e+00 2.4375235264372845e+00 2.5318592407048769e+01 
4 5 2 1.0280000023631033e+00 -3.4159984864712430e+02 1.0000000000000000e+00 2.4107248250848183e+00 5.4813360022986144e+00 2.5286964083653125e+01 
335 336 2 1.0279999980137409e+00 3.0819235907570317e+01 1.0000000000000000e+00 3.0537264214415751e+00 6.1560858142352952e+00 2.6234449275933404e+01 
1292 1293 2 1.0280000017530786e+00 7.8716609445903691e+02 1.0000000000000000e+00 6.5987056841509989e-02 7.8144774516681546e+00 2.5602754392402083e+01 
1143 1144 2 1.0280000016056037e+00 9.1865172203583461e+02 1.0000000000000000e+00 1.6523693964981867e+00 6.8862772741734526e+00 2.6069639831826375e+01 
1227 1228 2 1.0280000071193687e+00 6.3476398330062102e+02 1.0000000000000000e+00 1.9796840536705653e+00 1.1164139389921267e+01 2.5011811278070514e+01 
1321 1322 2 1.0280000049510889e+00 1.0786049975604412e+03 1.0000000000000000e+00 2.6707993883716930e-01 1.2670373032810385e+01 2.5062936705063237e+01 
850 851 2 1.0279999946469862e+00 -1.4455379722081875e+03 1.0000000000000000e+00 3.7497315549502440e-02 1.2824814567045445e+01 2.6248301206555070e+01 
1180 1181 2 1.0280000018677895e+00 -5.9767435703747526e+02 1.0000000000000000e+00 1.8413964535090730e+00 1.2528389582336706e+01 2.5942461857051622e+01 
1223 1224 2 1.0280000014321924e+00 -7.3845625902014206e+02 1.0000000000000000e+00 4.2538055720537136e+00 1.2222166122859843e+01 2.5899352788186725e+01 
789 790 2 1.0279999966720439e+00 1.3719253994660226e+03 1.0000000000000000e+00 3.2334710869343892e+00 1.3833322837655682e+01 2.5295743729276889e+01 
1246 1247 2 1.0279999989098882e+00 -1.6478806046158261e+03 1.0000000000000000e+00 4.6464847505641700e+00 1.3551675384253656e+01 2.6294948473402002e+01 
48 49 2 1.0279999889391289e+00 3.8880731968184813e+02 1.0000000000000000e+00 8.5079863475350820e-02 1.6553845631460906e+01 2.6638904381721140e+01 
1229 1230 2 1.0279999963202819e+00 7.3416869300571977e+02 1.0000000000000000e+00 3.4120377891133407e+00 1.6042062447534370e+01 2.6188049437475232e+01 
1070 1071 2 1.0280000031104501e+00 3.9053010728151253e+02 1.0000000000000000e+00 4.0014534286074150e+00 1.7255064776161699e+01 2.5844650411164853e+01 
1058 1059 2 1.0279999984351897e+00 1.8168174059457340e+02 1.0000000000000000e+00 5.1947756924774904e+00 1.8952734365777967e+01 2.5384030494107488e+01 
910 911 2 1.0280000014652619e+00 2.3825200995370858e+02 1.0000000000000000e+00 5.6911510162484662e+00 1.8362696829359859e+01 2.6253935805154672e+01 
964 965 2 1.0280000000000005e+00 3.2865767670294736e+02 1.0000000000000000e+00 1.5541619573929246e+01 8.8497178732289079e+00 2.7401196025394320e+01 
754 755 2 1.0280000269187184e+00 -1.3393149626422976e+02 1.0000000000000000e+00 4.0718258698828828e-02 1.1763096033570790e+01 2.8043502341966207e+01 
301 302 2 1.0279999692150674e+00 -1.8029811131148648e+02 1.0000000000000000e+00 7.4593547227666013e-01 1.2635144509146997e+01 2.8320592672201144e+01 
1101 1102 2 1.0279999954009003e+00 -6.2001534213800471e+02 1.0000000000000000e+00 2.9845514370723367e+00 1.1916558384183865e+01 2.6765246919880568e+01 
1339 1340 2 1.0280000061802645e+00 -1.6689975786194479e+03 1.0000000000000000e+00 3.1765818880158290e+00 1.3550526668492033e+01 2.6925644305455194e+01 
8 9 2 1.0280000157357125e+00 1.0624781633631245e+02 1.0000000000000000e+00 1.9776903966437624e+00 1.4792449881905409e+01 2.7766621504980630e+01 
1376 1377 2 1.0279999897827181e+00 9.3560671391899788e+01 1.0000000000000000e+00 1.9952008107690367e+00 1.5951777707850857e+01 2.7522381523777469e+01 
47 48 2 1.0280000124640836e+00 -2.0103495322680527e+02 1.0000000000000000e+00 5.6325091605534139e-01 1.7527239101305511e+01 2.7013920173482322e+01 
1291 1292 2 1.0279999999999996e+00 -1.2295763543708772e+03 1.0000000000000000e+00 9.6417923807473258e+00 1.8273065936485235e+01 2.8296850675673902e+01 
1290 1291 2 1.0279999999999996e+00 -1.2325070329646455e+03 1.0000000000000000e+00 9.3595592332967446e+00 1.8361036230521922e+01 2.7192324218179117e+01 
832 833 2 1.0280000000000005e+00 6.5040237720654955e+02 1.0000000000000000e+00 1.6100338979407208e+01 8.9163557398153124e+00 2.8396567834387273e+01 
1009 1010 2 1.0279999994740510e+00 5.4891950055283678e+02 1.0000000000000000e+00 6.2588216526157991e-01 1.4390989415111598e+01 2.9512625799617759e+01 
1320 1321 2 1.0279999999999971e+00 9.7957458670352094e+02 1.0000000000000000e+00 7.5753210651114200e+00 3.3034315087287816e+00 3.1465533439973971e+01 
41 42 2 1.0280000000000000e+00 4.8130276092035501e+02 1.0000000000000000e+00 5.2283900586819809e-01 7.5219211345831276e+00 3.0453445179209659e+01 
325 326 2 1.0280000000000000e+00 4.2662426709427996e+02 1.0000000000000000e+00 1.3346521916112895e+00 6.7474172017863872e+00 3.0673617900033051e+01 
1468 1469 2 1.0280000000000000e+00 4.2861836521932344e+02 1.0000000000000000e+00 2.6652660688329073e+00 1.0253358789989818e+01 3.0114581248742944e+01 
963 964 2 1.0280000000000000e+00 2.6332656651771651e+02 1.0000000000000000e+00 3.2097991093742992e+00 1.1200649678335870e+01 3.0451474047826029e+01 
965 966 2 1.0279999999999991e+00 4.3538363637814882e+02 1.0000000000000000e+00 8.1189791233519735e+00 1.3256217713032296e+01 3.1421755669637676e+01 
280 281 2 1.0279999975807816e+00 6.8812059401761516e+01 1.0000000000000000e+00 1.5414326078026692e+00 1.4495793154169897e+01 3.0648763404904397e+01 
742 743 2 1.0279999866744802e+00 -1.5244351100960821e+03 1.0000000000000000e+00 3.1677072934870640e+00 1.3601953737444514e+01 3.1592514352517455e+01 
769 770 2 1.0279999999999991e+00 -9.3681832276913099e+02 1.0000000000000000e+00 8.6984996553545439e+00 1.3452497810685616e+01 3.0455834816921779e+01 
1012 1013 2 1.0279999986638906e+00 5.6194366014051934e+02 1.0000000000000000e+00 7.4396843856779760e-01 1.5647126073431089e+01 3.0216405201462926e+01 
1317 1318 2 1.0279999999999971e+00 9.7520062473862095e+02 1.0000000000000000e+00 8.5157299228509071e+00 3.1788618656893100e+00 3.2103880212329628e+01 
1507 1508 2 1.0279999999999967e+00 8.8749556104555859e+02 1.0000000000000000e+00 7.6747958389401649e-01 1.0331515876331460e+01 3.3233158052766662e+01 
894 895 2 1.0280000132293685e+00 -1.4582191925748048e+03 1.0000000000000000e+00 3.0323912642131829e+00 1.4502232855258857e+01 3.2304328719839134e+01 
108 109 2 1.0280000003601932e+00 4.1351999262832572e+02 1.0000000000000000e+00 1.2755409507409283e+00 1.5664571979049283e+01 3.2363980617796315e+01 
235 236 2 1.0279999995361719e+00 -1.1566575990403683e+03 1.0000000000000000e+00 1.0348351011035835e+00 1.7005523749908836e+01 3.1817707731631405e+01 
1171 1172 2 1.0279999999999967e+00 -1.3857353181306809e+01 1.0000000000000000e+00 1.2506366319175322e+00 9.6477875651730454e+00 3.4011905688990630e+01 
1 2 2 1.0279999992280158e+00 -3.3811600279504205e+02 1.0000000000000000e+00 1.0330905066855292e+00 1.3011721105450327e+01 3.4561980670533245e+01 
1256 1257 2 1.0279999999999887e+00 5.0372001105278446e+02 1.0000000000000000e+00 7.9392924708983843e+00 1.2212336432212924e+01 3.4095993770677737e+01 
1440 1441 2 1.0279999999999887e+00 5.9858644467475995e+02 1.0000000000000000e+00 8.1040010826721094e+00 1.3019401258716940e+01 3.4889019909267383e+01 
334 335 2 1.0280000001505596e+00 5.7083429481636436e+01 1.0000000000000000e+00 1.0786948368426985e-01 1.3570878338151442e+01 3.3610061000243334e+01 
441 442 2 1.0280000014511403e+00 1.1429265531058525e+03 1.0000000000000000e+00 1.2977876120511802e+00 1.4318189313123661e+01 3.3982306501345292e+01 
1457 1458 2 1.0279999999999994e+00 5.2177602816486274e+02 1.0000000000000000e+00 4.9854049543970040e+00 1.6305265133691496e+01 3.4943138976713087e+01 
107 108 2 1.0280000002085197e+00 -3.7052152464566211e+02 1.0000000000000000e+00 8.8111633419080082e-01 1.6923485176473090e+01 3.3334014816523293e+01 
1287 1288 2 1.0279999999999985e+00 -1.2096004653508639e+03 1.0000000000000000e+00 1.1048457572896606e+01 5.6193518842949235e+00 3.5443153378420590e+01 
1286 1287 2 1.0279999999999985e+00 -1.1641732445750908e+03 1.0000000000000000e+00 1.0848903842594215e+01 5.4729229823784733e+00 3.6559446307209754e+01 
1354 1355 2 1.0279999999999994e+00 2.7036179037968606e+02 1.0000000000000000e+00 4.6968389521586564e+00 1.6134160790409830e+01 3.6036219935984207e+01 
393 394 2 1.0280000000000113e+00 -1.6611956853686064e+02 1.0000000000000000e+00 1.3786210383579789e+01 1.7798072562626945e+01 3.5987376065172903e+01 
629 630 2 1.0280000000000014e+00 5.6621283783045635e+02 1.0000000000000000e+00 1.8507436086032019e+01 1.0816411079004260e+00 3.6998699063348042e+01 
478 479 2 1.0280000000000014e+00 -8.3928346188323712e+02 1.0000000000000000e+00 1.9556609015642223e+01 6.5011490318942444e-01 3.7141507732131117e+01 
396 397 2 1.0280000000000113e+00 -2.3008118656483828e+02 1.0000000000000000e+00 1.4132353929453650e+01 1.7918861770808753e+01 3.7070412366639928e+01 
130 131 2 1.0279999999999936e+00 6.4959313542178245e+02 1.0000000000000000e+00 1.1322635348331282e+01 1.3572598321591798e+01 4.1014254025703849e+01 
857 858 2 1.0280000000000009e+00 1.5465076593443234e+02 1.0000000000000000e+00 3.8262109226501648e+00 1.9773962846848008e+01 4.0629046833325894e+01 
861 862 2 1.0280000000000009e+00 1.5346226206749816e+02 1.0000000000000000e+00 3.6489375693770163e+00 1.8764061535480796e+01 4.1135057225488758e+01 
618 619 2 1.0280000000000007e+00 -7.0587759374163647e+02 1.0000000000000000e+00 1.6683669411141263e+01 4.7674184720949100e+00 4.1700306076351623e+01 
989 990 2 1.0280000000000031e+00 1.2893830704541897e+03 1.0000000000000000e+00 5.9844531467922684e+00 5.8328713857697885e+00 4.1927923582512676e+01 
997 998 2 1.0280000000000031e+00 4.3734330414882379e+02 1.0000000000000000e+00 5.1825683733140746e+00 5.4980762987061844e+00 4.2671069649716578e+01 
466 467 2 1.0280000000000007e+00 -1.3272547103599190e+03 1.0000000000000000e+00 1.6217694241567663e+01 5.7928935894287115e+00 4.1896879071772709e+01 
134 135 2 1.0279999999999936e+00 3.9814643094645561e+01 1.0000000000000000e+00 1.1541759011168072e+01 1.3079211997689892e+01 4.2022186450636354e+01 