LAMMPS data file via write_data, version 30 Jul 2016, timestep = 1000000

2080 atoms
8 atom types

0.0000000000000000e+00 4.0000000000000000e+01 xlo xhi
0.0000000000000000e+00 4.0000000000000000e+01 ylo yhi
0.0000000000000000e+00 1.0000000000000000e+02 zlo zhi

Masses

1 3.896
2 10.72
3 1058.08
4 8.378
5 8.378
6 8.378
7 8.378
8 8.378

Atoms # meso-molecular

1 2 4 2.2559723595316457e+00 2.8246642219411817e+00 4.2000000000000000e+03 0.0000000000000000e+00 0.0000000000000000e+00 2.5000000000000000e+00 
2 2 4 2.2559723595316457e+00 2.0988650781751641e+00 4.2000000000000000e+03 0.0000000000000000e+00 2.0000000000000000e+00 2.5000000000000000e+00 
21 2 4 2.2559723595316457e+00 1.3945918387590464e+00 4.2000000000000000e+03 2.0000000000000000e+00 0.0000000000000000e+00 2.5000000000000000e+00 
22 2 4 2.2559723595316457e+00 6.0055452731748386e-02 4.2000000000000000e+03 2.0000000000000000e+00 2.0000000000000000e+00 2.5000000000000000e+00 
41 2 4 2.2559723595320778e+00 -1.2079345261766641e+00 4.2000000000000000e+03 4.0000000000000000e+00 0.0000000000000000e+00 2.5000000000000000e+00 
42 2 4 2.2559723595316457e+00 1.0354545226045793e+00 4.2000000000000000e+03 4.0000000000000000e+00 2.0000000000000000e+00 2.5000000000000000e+00 
61 2 4 2.2559723595316465e+00 1.0013621079426849e+00 4.2000000000000000e+03 6.0000000000000000e+00 0.0000000000000000e+00 2.5000000000000000e+00 
62 2 4 2.2559723595316457e+00 1.0000033188965833e+00 4.2000000000000000e+03 6.0000000000000000e+00 2.0000000000000000e+00 2.5000000000000000e+00 
81 2 4 2.2559723595316457e+00 7.2997592204907469e-01 4.2000000000000000e+03 8.0000000000000000e+00 0.0000000000000000e+00 2.5000000000000000e+00 
82 2 4 2.2559723595317585e+00 9.9998924934938649e-01 4.2000000000000000e+03 8.0000000000000000e+00 2.0000000000000000e+00 2.5000000000000000e+00 
101 2 4 2.2559723595316457e+00 1.1285494957110433e+00 4.2000000000000000e+03 1.0000000000000000e+01 0.0000000000000000e+00 2.5000000000000000e+00 
102 2 4 2.2559723595316457e+00 1.0000053531736546e+00 4.2000000000000000e+03 1.0000000000000000e+01 2.0000000000000000e+00 2.5000000000000000e+00 
121 2 4 2.2559723595316457e+00 9.9984840736909875e-01 4.2000000000000000e+03 1.2000000000000000e+01 0.0000000000000000e+00 2.5000000000000000e+00 
122 2 4 2.2559723595338270e+00 1.0000552768979887e+00 4.2000000000000000e+03 1.2000000000000000e+01 2.0000000000000000e+00 2.5000000000000000e+00 
141 2 4 2.2559723595316457e+00 9.9982846695637850e-01 4.2000000000000000e+03 1.4000000000000000e+01 0.0000000000000000e+00 2.5000000000000000e+00 
142 2 4 2.2559723595316457e+00 1.0000046738373667e+00 4.2000000000000000e+03 1.4000000000000000e+01 2.0000000000000000e+00 2.5000000000000000e+00 
161 2 4 2.2559723595316457e+00 1.0000000820486881e+00 4.2000000000000000e+03 1.6000000000000000e+01 0.0000000000000000e+00 2.5000000000000000e+00 
162 2 4 2.2559723595516057e+00 1.0010278939704935e+00 4.2000000000000000e+03 1.6000000000000000e+01 2.0000000000000000e+00 2.5000000000000000e+00 
181 2 4 2.2559723595316457e+00 9.7080223932545884e-01 4.2000000000000000e+03 1.8000000000000000e+01 0.0000000000000000e+00 2.5000000000000000e+00 
182 2 4 2.2559723595316457e+00 1.0041830313985081e+00 4.2000000000000000e+03 1.8000000000000000e+01 2.0000000000000000e+00 2.5000000000000000e+00 
3 2 4 2.2559723595316457e+00 9.4302249890649126e-01 4.2000000000000000e+03 0.0000000000000000e+00 4.0000000000000000e+00 2.5000000000000000e+00 
23 2 4 2.2559723595316457e+00 1.0000001346829346e+00 4.2000000000000000e+03 2.0000000000000000e+00 4.0000000000000000e+00 2.5000000000000000e+00 
43 2 4 2.2559723595316457e+00 1.5535251404710304e-01 4.2000000000000000e+03 4.0000000000000000e+00 4.0000000000000000e+00 2.5000000000000000e+00 
63 2 4 2.2559723595316457e+00 9.7534217606969920e-01 4.2000000000000000e+03 6.0000000000000000e+00 4.0000000000000000e+00 2.5000000000000000e+00 
83 2 4 2.2559723595316457e+00 1.0000002949746851e+00 4.2000000000000000e+03 8.0000000000000000e+00 4.0000000000000000e+00 2.5000000000000000e+00 
103 2 4 2.2559723595325774e+00 1.0000861169112474e+00 4.2000000000000000e+03 1.0000000000000000e+01 4.0000000000000000e+00 2.5000000000000000e+00 
123 2 4 2.2559723595316457e+00 9.9991279440101288e-01 4.2000000000000000e+03 1.2000000000000000e+01 4.0000000000000000e+00 2.5000000000000000e+00 
143 2 4 2.2559723595333647e+00 1.0002126566733525e+00 4.2000000000000000e+03 1.4000000000000000e+01 4.0000000000000000e+00 2.5000000000000000e+00 
163 2 4 2.2559723595316457e+00 1.0205080496281314e+00 4.2000000000000000e+03 1.6000000000000000e+01 4.0000000000000000e+00 2.5000000000000000e+00 
183 2 4 2.2559723595316457e+00 1.0786197121463972e+00 4.2000000000000000e+03 1.8000000000000000e+01 4.0000000000000000e+00 2.5000000000000000e+00 
4 2 4 2.2559723595316457e+00 9.9617276099878649e-01 4.2000000000000000e+03 0.0000000000000000e+00 6.0000000000000000e+00 2.5000000000000000e+00 
5 2 4 2.2559723595316457e+00 1.0000008924443509e+00 4.2000000000000000e+03 0.0000000000000000e+00 8.0000000000000000e+00 2.5000000000000000e+00 
24 2 4 2.2559723595316949e+00 1.0012167310002875e+00 4.2000000000000000e+03 2.0000000000000000e+00 6.0000000000000000e+00 2.5000000000000000e+00 
25 2 4 2.2559723595316457e+00 1.0000000000000000e+00 4.2000000000000000e+03 2.0000000000000000e+00 8.0000000000000000e+00 2.5000000000000000e+00 
44 2 4 2.2559723595319783e+00 1.0000708173256505e+00 4.2000000000000000e+03 4.0000000000000000e+00 6.0000000000000000e+00 2.5000000000000000e+00 
45 2 4 2.2559723595316457e+00 1.0000001453193632e+00 4.2000000000000000e+03 4.0000000000000000e+00 8.0000000000000000e+00 2.5000000000000000e+00 
64 2 4 2.2559723595335881e+00 9.7174391833743090e-01 4.2000000000000000e+03 6.0000000000000000e+00 6.0000000000000000e+00 2.5000000000000000e+00 
65 2 4 2.2559723595316457e+00 1.0052409028720306e+00 4.2000000000000000e+03 6.0000000000000000e+00 8.0000000000000000e+00 2.5000000000000000e+00 
84 2 4 2.2559723595316457e+00 1.0167255794229679e+00 4.2000000000000000e+03 8.0000000000000000e+00 6.0000000000000000e+00 2.5000000000000000e+00 
85 2 4 2.2559723595316457e+00 9.7162936613576223e-01 4.2000000000000000e+03 8.0000000000000000e+00 8.0000000000000000e+00 2.5000000000000000e+00 
104 2 4 2.2559723595316457e+00 1.1650963032099171e+00 4.2000000000000000e+03 1.0000000000000000e+01 6.0000000000000000e+00 2.5000000000000000e+00 
105 2 4 2.2559723595332506e+00 7.1988074369693345e-01 4.2000000000000000e+03 1.0000000000000000e+01 8.0000000000000000e+00 2.5000000000000000e+00 
124 2 4 2.2559723595326058e+00 1.0001082576579332e+00 4.2000000000000000e+03 1.2000000000000000e+01 6.0000000000000000e+00 2.5000000000000000e+00 
125 2 4 2.2559723595316457e+00 1.0000008094726403e+00 4.2000000000000000e+03 1.2000000000000000e+01 8.0000000000000000e+00 2.5000000000000000e+00 
144 2 4 2.2559723595316457e+00 1.0000282474465925e+00 4.2000000000000000e+03 1.4000000000000000e+01 6.0000000000000000e+00 2.5000000000000000e+00 
145 2 4 2.2559723595316457e+00 1.0000001264451355e+00 4.2000000000000000e+03 1.4000000000000000e+01 8.0000000000000000e+00 2.5000000000000000e+00 
164 2 4 2.2559723595324006e+00 1.0018597276710384e+00 4.2000000000000000e+03 1.6000000000000000e+01 6.0000000000000000e+00 2.5000000000000000e+00 
165 2 4 2.2559723595316457e+00 1.0000001818208006e+00 4.2000000000000000e+03 1.6000000000000000e+01 8.0000000000000000e+00 2.5000000000000000e+00 
184 2 4 2.2559723595316457e+00 1.7607439571279604e+00 4.2000000000000000e+03 1.8000000000000000e+01 6.0000000000000000e+00 2.5000000000000000e+00 
185 2 4 2.2559723595317935e+00 1.0393792888119620e+00 4.2000000000000000e+03 1.8000000000000000e+01 8.0000000000000000e+00 2.5000000000000000e+00 
6 2 4 2.2559723595316457e+00 1.0173059240816809e+00 4.2000000000000000e+03 0.0000000000000000e+00 1.0000000000000000e+01 2.5000000000000000e+00 
26 2 4 2.2559723595316457e+00 9.5388585138822279e-01 4.2000000000000000e+03 2.0000000000000000e+00 1.0000000000000000e+01 2.5000000000000000e+00 
46 2 4 2.2559723595316457e+00 1.0000000000000000e+00 4.2000000000000000e+03 4.0000000000000000e+00 1.0000000000000000e+01 2.5000000000000000e+00 
66 2 4 2.2559723595352872e+00 9.9731992126370672e-01 4.2000000000000000e+03 6.0000000000000000e+00 1.0000000000000000e+01 2.5000000000000000e+00 
86 2 4 2.2559723595316457e+00 1.0000009522271549e+00 4.2000000000000000e+03 8.0000000000000000e+00 1.0000000000000000e+01 2.5000000000000000e+00 
106 2 4 2.2559723595316648e+00 1.0000060601590659e+00 4.2000000000000000e+03 1.0000000000000000e+01 1.0000000000000000e+01 2.5000000000000000e+00 
126 2 4 2.2559723595319396e+00 1.0000456564406335e+00 4.2000000000000000e+03 1.2000000000000000e+01 1.0000000000000000e+01 2.5000000000000000e+00 
146 2 4 2.2559723595316457e+00 1.0000009671105348e+00 4.2000000000000000e+03 1.4000000000000000e+01 1.0000000000000000e+01 2.5000000000000000e+00 
166 2 4 2.2559723595316457e+00 1.0000005836819010e+00 4.2000000000000000e+03 1.6000000000000000e+01 1.0000000000000000e+01 2.5000000000000000e+00 
186 2 4 2.2559723595330139e+00 9.9956408682550413e-01 4.2000000000000000e+03 1.8000000000000000e+01 1.0000000000000000e+01 2.5000000000000000e+00 
7 2 4 2.2559723595316457e+00 1.2127201128660867e+00 4.2000000000000000e+03 0.0000000000000000e+00 1.2000000000000000e+01 2.5000000000000000e+00 
8 2 4 2.2559723595316545e+00 1.0838670575272062e+00 4.2000000000000000e+03 0.0000000000000000e+00 1.4000000000000000e+01 2.5000000000000000e+00 
27 2 4 2.2559723595316457e+00 1.0334652372433388e+00 4.2000000000000000e+03 2.0000000000000000e+00 1.2000000000000000e+01 2.5000000000000000e+00 
28 2 4 2.2559723595316457e+00 1.0528652362682989e+00 4.2000000000000000e+03 2.0000000000000000e+00 1.4000000000000000e+01 2.5000000000000000e+00 
47 2 4 2.2559723595316457e+00 1.0000000000000000e+00 4.2000000000000000e+03 4.0000000000000000e+00 1.2000000000000000e+01 2.5000000000000000e+00 
48 2 4 2.2559723595316457e+00 2.0294521813494704e-01 4.2000000000000000e+03 4.0000000000000000e+00 1.4000000000000000e+01 2.5000000000000000e+00 
67 2 4 2.2559723595316457e+00 1.0000000000000000e+00 4.2000000000000000e+03 6.0000000000000000e+00 1.2000000000000000e+01 2.5000000000000000e+00 
68 2 4 2.2559723595316457e+00 9.9999694367384984e-01 4.2000000000000000e+03 6.0000000000000000e+00 1.4000000000000000e+01 2.5000000000000000e+00 
87 2 4 2.2559723595316457e+00 1.0000000000000000e+00 4.2000000000000000e+03 8.0000000000000000e+00 1.2000000000000000e+01 2.5000000000000000e+00 
88 2 4 2.2559723595553209e+00 1.0012329251598933e+00 4.2000000000000000e+03 8.0000000000000000e+00 1.4000000000000000e+01 2.5000000000000000e+00 
107 2 4 2.2559723595316457e+00 1.0000000000000000e+00 4.2000000000000000e+03 1.0000000000000000e+01 1.2000000000000000e+01 2.5000000000000000e+00 
108 2 4 2.2559723595316457e+00 1.0000007214788775e+00 4.2000000000000000e+03 1.0000000000000000e+01 1.4000000000000000e+01 2.5000000000000000e+00 
127 2 4 2.2559723595316457e+00 1.0000000000000000e+00 4.2000000000000000e+03 1.2000000000000000e+01 1.2000000000000000e+01 2.5000000000000000e+00 
128 2 4 2.2559723595316457e+00 9.9999871931544182e-01 4.2000000000000000e+03 1.2000000000000000e+01 1.4000000000000000e+01 2.5000000000000000e+00 
147 2 4 2.2559723595316457e+00 1.0079393893937314e+00 4.2000000000000000e+03 1.4000000000000000e+01 1.2000000000000000e+01 2.5000000000000000e+00 
148 2 4 2.2559723595322181e+00 1.0000741048240021e+00 4.2000000000000000e+03 1.4000000000000000e+01 1.4000000000000000e+01 2.5000000000000000e+00 
167 2 4 2.2559723595318264e+00 9.9430628768442597e-01 4.2000000000000000e+03 1.6000000000000000e+01 1.2000000000000000e+01 2.5000000000000000e+00 
168 2 4 2.2559723595316457e+00 9.9812204919188074e-01 4.2000000000000000e+03 1.6000000000000000e+01 1.4000000000000000e+01 2.5000000000000000e+00 
187 2 4 2.2559723595319094e+00 6.4709055020448691e-01 4.2000000000000000e+03 1.8000000000000000e+01 1.2000000000000000e+01 2.5000000000000000e+00 
188 2 4 2.2559723595316457e+00 3.7687663295720972e-02 4.2000000000000000e+03 1.8000000000000000e+01 1.4000000000000000e+01 2.5000000000000000e+00 
9 2 4 2.2559723595316457e+00 2.8683981402305898e+00 4.2000000000000000e+03 0.0000000000000000e+00 1.6000000000000000e+01 2.5000000000000000e+00 
29 2 4 2.2559723595316465e+00 2.0815254665722716e+00 4.2000000000000000e+03 2.0000000000000000e+00 1.6000000000000000e+01 2.5000000000000000e+00 
49 2 4 2.2559723595316457e+00 -2.5963381797040846e-01 4.2000000000000000e+03 4.0000000000000000e+00 1.6000000000000000e+01 2.5000000000000000e+00 
69 2 4 2.2559723595316457e+00 9.9860882701532172e-01 4.2000000000000000e+03 6.0000000000000000e+00 1.6000000000000000e+01 2.5000000000000000e+00 
89 2 4 2.2559723595316457e+00 9.9998616091351678e-01 4.2000000000000000e+03 8.0000000000000000e+00 1.6000000000000000e+01 2.5000000000000000e+00 
109 2 4 2.2559723595316483e+00 1.0000016324406318e+00 4.2000000000000000e+03 1.0000000000000000e+01 1.6000000000000000e+01 2.5000000000000000e+00 
129 2 4 2.2559723595316457e+00 9.9989439585211448e-01 4.2000000000000000e+03 1.2000000000000000e+01 1.6000000000000000e+01 2.5000000000000000e+00 
149 2 4 2.2559723595316457e+00 1.0738778621901557e+00 4.2000000000000000e+03 1.4000000000000000e+01 1.6000000000000000e+01 2.5000000000000000e+00 
169 2 4 2.2559723595316457e+00 1.3545847080223425e+00 4.2000000000000000e+03 1.6000000000000000e+01 1.6000000000000000e+01 2.5000000000000000e+00 
189 2 4 2.2559723595317358e+00 -1.2116075463449121e+00 4.2000000000000000e+03 1.8000000000000000e+01 1.6000000000000000e+01 2.5000000000000000e+00 
10 2 4 2.2559723595316457e+00 9.7351715663487859e-01 4.2000000000000000e+03 0.0000000000000000e+00 1.8000000000000000e+01 2.5000000000000000e+00 
30 2 4 2.2559723595316616e+00 3.3323809602189508e-01 4.2000000000000000e+03 2.0000000000000000e+00 1.8000000000000000e+01 2.5000000000000000e+00 
50 2 4 2.2559723595316479e+00 9.0987180380272492e-01 4.2000000000000000e+03 4.0000000000000000e+00 1.8000000000000000e+01 2.5000000000000000e+00 
70 2 4 2.2559723595316457e+00 9.9999948347639378e-01 4.2000000000000000e+03 6.0000000000000000e+00 1.8000000000000000e+01 2.5000000000000000e+00 
90 2 4 2.2559723595316457e+00 1.0000000000000000e+00 4.2000000000000000e+03 8.0000000000000000e+00 1.8000000000000000e+01 2.5000000000000000e+00 
110 2 4 2.2559723595316457e+00 1.0000646620148759e+00 4.2000000000000000e+03 1.0000000000000000e+01 1.8000000000000000e+01 2.5000000000000000e+00 
130 2 4 2.2559723595316457e+00 9.6660550078339869e-01 4.2000000000000000e+03 1.2000000000000000e+01 1.8000000000000000e+01 2.5000000000000000e+00 
150 2 4 2.2559723595329575e+00 1.0270658267484423e+00 4.2000000000000000e+03 1.4000000000000000e+01 1.8000000000000000e+01 2.5000000000000000e+00 
170 2 4 2.2559723595316457e+00 7.0877347910192379e-01 4.2000000000000000e+03 1.6000000000000000e+01 1.8000000000000000e+01 2.5000000000000000e+00 
190 2 4 2.2559723595316457e+00 -2.5677629720084223e+00 4.2000000000000000e+03 1.8000000000000000e+01 1.8000000000000000e+01 2.5000000000000000e+00 
984 586 2 1.0279998813365536e+00 8.0128734134171491e+03 4.2000000000000000e+03 4.4442934065208439e-01 1.2541136571160028e+01 6.4834913717782783e+00 
990 592 2 1.0280002971606368e+00 -3.5688849449600070e+03 4.2000000000000000e+03 1.5610566377877078e-01 1.3675771819209565e+01 7.8838118394674126e+00 
834 436 2 1.0279997447980946e+00 -7.4618078278460007e+03 4.2000000000000000e+03 1.2013419472537726e-01 1.2345823203707011e+01 6.8665905896238302e+00 
781 383 2 1.0280000340819910e+00 1.0194300688790680e+03 4.2000000000000000e+03 5.7743908695411843e+00 1.3163842507886706e+01 6.4143706012459623e+00 
632 234 2 1.0280001227368802e+00 2.6348529908790420e+03 4.2000000000000000e+03 6.0176222121344285e+00 1.3126602855820549e+01 6.9798044161077257e+00 
1409 1011 2 1.0279995018514154e+00 1.2709158745644393e+03 4.2000000000000000e+03 1.5994604443710527e+00 1.4562300991604731e+01 6.5264065712093950e+00 
1242 844 2 1.0279984377061653e+00 1.2690290191589115e+03 4.2000000000000000e+03 2.6648768994472398e+00 1.5753562147761512e+01 6.4362018683833329e+00 
1285 887 2 1.0279999240959614e+00 3.3220101920453289e+03 4.2000000000000000e+03 4.6034505714019935e-01 1.4863362342684553e+01 6.3776710265428243e+00 
602 204 2 1.0280027672166301e+00 -3.3579315529284845e+03 4.2000000000000000e+03 2.6520699726147638e+00 1.7120794340402920e+01 8.3301658375873942e+00 
625 227 2 1.0279987368730987e+00 1.6003968098362802e+03 4.2000000000000000e+03 4.5427414225488887e+00 1.4340340297604346e+01 6.4490874770792246e+00 
1160 762 2 1.0279981941260992e+00 1.5811175942182456e+03 4.2000000000000000e+03 3.2139223014191853e+00 1.7077176299277717e+01 6.3113128727538248e+00 
782 384 2 1.0280002543876590e+00 -4.1149519729516078e+03 4.2000000000000000e+03 5.7583410586817463e+00 1.4961760056659724e+01 6.4202129422831131e+00 
653 255 2 1.0279999495692000e+00 1.5832800750073072e+03 4.2000000000000000e+03 9.7537295493973062e+00 1.6136940629233582e+01 6.4895547653628096e+00 
649 251 2 1.0279999442362984e+00 1.4912505743294789e+03 4.2000000000000000e+03 9.8012084797900503e+00 1.6148238967180649e+01 6.4918075415539080e+00 
985 587 2 1.0280011278637731e+00 7.1021297993771850e+03 4.2000000000000000e+03 9.5403427065157356e+00 1.6467186009928273e+01 7.7056526295659067e+00 
1641 1243 2 1.0280001046101217e+00 3.2024642902192886e+03 4.2000000000000000e+03 1.8448379556414892e+01 1.4884272832205706e+01 7.9898247580225528e+00 
1486 1088 2 1.0279990622457473e+00 -3.1850983329112319e+03 4.2000000000000000e+03 2.0736602059995226e+00 1.8904775097387542e+01 6.3946895880667398e+00 
982 584 2 1.0279994335951108e+00 -3.1851039732619947e+03 4.2000000000000000e+03 2.1025885699609006e+00 1.9002642021786730e+01 6.3712275555738032e+00 
1321 923 2 1.0280008247698720e+00 4.5220021877131529e+02 4.2000000000000000e+03 4.9028097537445516e+00 1.9048643556006823e+01 6.2786973260998913e+00 
1153 755 2 1.0280008194621217e+00 4.5220057759935014e+02 4.2000000000000000e+03 4.9020122930192862e+00 1.9048204613233146e+01 6.2787933845755175e+00 
986 588 2 1.0279990974721658e+00 -5.2815627680966581e+03 4.2000000000000000e+03 6.8855699540446524e+00 1.9448742924765398e+01 7.2037791642653479e+00 
1490 1092 2 1.0279992505310005e+00 -5.2815465304793524e+03 4.2000000000000000e+03 6.9011450444545481e+00 1.9441903300142279e+01 7.2034655114172299e+00 
1658 1260 2 1.0279991303181757e+00 -3.9124566196595588e+03 4.2000000000000000e+03 9.3935127211943676e+00 1.8760096991755880e+01 6.3917069318620321e+00 
818 420 2 1.0279991302976259e+00 -3.9124591540332444e+03 4.2000000000000000e+03 9.3937276582057923e+00 1.8760850106610246e+01 6.3915546781613255e+00 
1165 767 2 1.0280000638738611e+00 4.2570366239337127e+03 4.2000000000000000e+03 1.3313773652769794e+00 9.6517463604530163e-01 1.0630935282609961e+01 
998 600 2 1.0280000379197582e+00 -3.7394225902279522e+03 4.2000000000000000e+03 1.9820550286904657e+00 2.3477448052518093e+00 1.0852407323669111e+01 
830 432 2 1.0280000095614716e+00 -7.3493754859894634e+03 4.2000000000000000e+03 1.8370585016859009e+00 2.3097400060921496e+00 1.0845194396628413e+01 
761 363 2 1.0280000441984132e+00 -6.6646878986382114e+02 4.2000000000000000e+03 4.6573673893819656e+00 2.4487104612365571e+00 1.0387322329342629e+01 
1942 1544 2 1.0279999305263867e+00 4.7400229586948268e+02 4.2000000000000000e+03 3.7151248933624825e+00 1.0194689757291764e+00 1.0324644828843565e+01 
1090 692 2 1.0280000123092077e+00 -1.3907687468482609e+03 4.2000000000000000e+03 5.3435001596403700e+00 3.3256477266272872e+00 9.3616889139510668e+00 
597 199 2 1.0279999646686344e+00 2.4715502350933825e+03 4.2000000000000000e+03 5.3004551943332494e+00 4.6954578449920321e+00 1.0975932156707961e+01 
585 187 2 1.0280000218787282e+00 1.5134709064510009e+03 4.2000000000000000e+03 5.8997354482713380e+00 4.2031134900649914e+00 9.6168628584828522e+00 
447 49 2 1.0279991732993998e+00 1.4629670689626039e+03 4.2000000000000000e+03 2.0161645388473670e+00 1.5557543935225651e+01 1.0645310902495840e+01 
785 387 2 1.0279991514254625e+00 2.6302609905856411e+02 4.2000000000000000e+03 1.9425335315684820e+00 1.5550776203662103e+01 1.0640642653768547e+01 
432 34 2 1.0280011260118180e+00 2.0426421956300946e+03 4.2000000000000000e+03 2.5752331836537605e+00 1.6926093331106490e+01 8.4872838790778946e+00 
950 552 2 1.0280005435657238e+00 -5.5580976914167604e+03 4.2000000000000000e+03 5.2616966439670421e+00 1.5084621388422208e+01 8.5921239597235406e+00 
770 372 2 1.0280000026454357e+00 -5.1268986460478282e+03 4.2000000000000000e+03 6.1896887243644922e+00 1.4939121509694596e+01 9.1085652372067134e+00 
1108 710 2 1.0279993223784361e+00 4.2028557156780635e+03 4.2000000000000000e+03 6.7805474338430471e+00 1.5011570088908464e+01 8.6353086455759946e+00 
462 64 2 1.0280001831997334e+00 9.7571803732236390e+02 4.2000000000000000e+03 8.2124426648226478e+00 1.6838111459627520e+01 9.6673112868950319e+00 
1320 922 2 1.0279986798968976e+00 -5.1172099349639751e+02 4.2000000000000000e+03 1.5703857821806993e+01 1.7061682643727568e+01 8.9558188272419859e+00 
1309 911 2 1.0280000737614741e+00 5.7094247740343621e+02 4.2000000000000000e+03 1.5211778905731554e+01 1.6740206488008756e+01 9.6785793709942105e+00 
1147 749 2 1.0280001672335735e+00 -2.2317948967411203e+03 4.2000000000000000e+03 1.8268878244468855e+01 1.4862865848994645e+01 8.4743403879373531e+00 
1814 1416 2 1.0280005052908736e+00 -1.8510873806815985e+03 4.2000000000000000e+03 1.8617830576306101e+01 1.6289679491346469e+01 8.9698119757586170e+00 
1806 1408 2 1.0279995577389565e+00 -2.7873801217989521e+03 4.2000000000000000e+03 8.9139143175210105e+00 1.7368059644147390e+01 1.0226673284112163e+01 
643 245 2 1.0279994126494520e+00 3.3613739985425121e+02 4.2000000000000000e+03 8.9939648723238932e+00 1.7438179280698989e+01 1.0143035839996019e+01 
1301 903 2 1.0279955138182757e+00 3.6412867847853940e+03 4.2000000000000000e+03 1.3382943759881893e+01 1.7237507800595782e+01 1.1065485680527917e+01 
1145 747 2 1.0280001968982631e+00 2.7522146979096865e+03 4.2000000000000000e+03 1.5121076598688742e+01 1.7382016422124540e+01 9.0462917244187313e+00 
1315 917 2 1.0280003243158802e+00 -2.2311022902847067e+03 4.2000000000000000e+03 1.6719364335082425e+01 1.9851866075560373e+01 1.0777380253585861e+01 
1419 1021 2 1.0280009215932782e+00 -1.8670503088070839e+03 4.2000000000000000e+03 1.7790402025477793e+01 1.8775789579003703e+01 8.9562072742938224e+00 
915 517 2 1.0279992410565377e+00 -1.8630562321526331e+03 4.2000000000000000e+03 1.8913395559316644e+01 1.9041169087446196e+01 9.1033102148839973e+00 
638 240 2 1.0280000406085574e+00 -1.8504089830536118e+03 4.2000000000000000e+03 1.8337759776462892e+01 1.8753596863619496e+01 1.0622136940211799e+01 
442 44 2 1.0279999560741975e+00 7.3687568685647602e+02 4.2000000000000000e+03 5.2090519088759013e+00 4.1670285331176888e+00 1.1325550089894429e+01 
930 532 2 1.0280001190674941e+00 -2.2741206441625704e+03 4.2000000000000000e+03 1.9606573129614191e+01 1.1392187706127693e+01 1.2177053231898094e+01 
931 533 2 1.0279999386095868e+00 -2.2746525553178617e+03 4.2000000000000000e+03 1.8558932673804097e+01 1.1452357438688887e+01 1.2127041108491968e+01 
814 416 2 1.0280001554143101e+00 -5.9516276490134089e+02 4.2000000000000000e+03 1.7949961218417073e+01 1.2965819577382232e+01 1.2645600294014463e+01 
1822 1424 2 1.0280001499467446e+00 -1.1040347656720876e+03 4.2000000000000000e+03 1.8023187753247054e+01 1.2843745937473530e+01 1.2961221223937866e+01 
1753 1355 2 1.0280015274086458e+00 3.7131491026386670e+03 4.2000000000000000e+03 1.2839152356343796e+01 1.6964629338773697e+01 1.1428842032010827e+01 
1541 1143 2 1.0280012088078843e+00 5.2907259780755294e+03 4.2000000000000000e+03 1.9734131648224547e+01 1.4948272660060550e+01 1.1237361060707496e+01 
1544 1146 2 1.0280008883855918e+00 5.2907787811262688e+03 4.2000000000000000e+03 1.9640040039335357e+01 1.4970790358459869e+01 1.1275726333956596e+01 
486 88 2 1.0279995918423355e+00 5.3097243545533118e+01 4.2000000000000000e+03 1.9767812752011160e+01 1.5732547978812548e+01 1.3457818314400631e+01 
487 89 2 1.0279996101834907e+00 5.3130144605439945e+01 4.2000000000000000e+03 1.9743546821464129e+01 1.5731428839995834e+01 1.3459439983523374e+01 
622 224 2 1.0279999065874490e+00 -2.6763714921100836e+03 4.2000000000000000e+03 2.5066973663122396e+00 1.7206310807237024e+01 1.1118853083067515e+01 
450 52 2 1.0280006822547676e+00 1.4701683100839139e+03 4.2000000000000000e+03 8.1541533551433032e-01 1.7242256194255102e+01 1.1220418637563096e+01 
823 425 2 1.0279991472934846e+00 -6.2916740547066365e+03 4.2000000000000000e+03 1.8422521275220434e+00 1.9058339931814945e+01 1.2312472415442180e+01 
1663 1265 2 1.0279991680431970e+00 -6.2916740427416507e+03 4.2000000000000000e+03 1.8427126186527727e+00 1.9011038268052875e+01 1.2312843199003705e+01 
1048 650 2 1.0280010035316749e+00 -2.0041280001174152e+03 4.2000000000000000e+03 1.0882594679750024e+01 1.9767568441296898e+01 1.3619783606055600e+01 
1152 754 2 1.0280008240670935e+00 -4.7153323904948070e+02 4.2000000000000000e+03 1.1010917993754862e+01 1.9826339844132470e+01 1.3639864548405111e+01 
1141 743 2 1.0279972474483448e+00 5.5971804506964281e+02 4.2000000000000000e+03 1.1995297967797615e+01 1.8990647840517475e+01 1.2869626405300190e+01 
1552 1154 2 1.0279998128306851e+00 -1.9828104546964455e+03 4.2000000000000000e+03 1.2612382522900866e+01 1.7427767905911224e+01 1.2166755638731473e+01 
408 10 2 1.0279981772334819e+00 1.4691824916011822e+03 4.2000000000000000e+03 1.9332493171271548e+01 1.7538296608198333e+01 1.3256825529737714e+01 
405 7 2 1.0279973943337750e+00 1.4711775595455556e+03 4.2000000000000000e+03 1.8081346111154200e+01 1.8688061357308708e+01 1.4482842636110883e+01 
929 531 2 1.0280015606582791e+00 -1.0598279517504780e+03 4.2000000000000000e+03 1.8513726020868493e+01 1.8851559170022639e+01 1.5490068742004619e+01 
932 534 2 1.0280016215607004e+00 -1.0598767546357544e+03 4.2000000000000000e+03 1.8564350769708739e+01 1.8846380821953371e+01 1.5489823893376048e+01 
933 535 2 1.0280000000000322e+00 2.8379125369372068e+03 4.2000000000000000e+03 1.6934021613226932e+01 4.1022837880649661e+00 1.8463534944895233e+01 
762 364 2 1.0279999999997234e+00 -4.0898652671269447e+03 4.2000000000000000e+03 1.6979972402705940e+01 4.4001218029830618e+00 1.8474883812571775e+01 
1096 698 2 1.0280000000000777e+00 6.8797546488019907e+03 4.2000000000000000e+03 1.7688736176131670e+01 4.1282642871171138e+00 1.8438345008057649e+01 
751 353 2 1.0279999993544469e+00 -2.7065951032479215e+03 4.2000000000000000e+03 1.7578510561299494e+00 1.0301957193611868e+01 1.7240745176488208e+01 
590 192 2 1.0279999990602999e+00 -2.0102582411058172e+03 4.2000000000000000e+03 2.0763573100147159e+00 1.0582931751457956e+01 1.7309546707112808e+01 
1457 1059 2 1.0280000054474199e+00 7.5048574988511764e+03 4.2000000000000000e+03 4.4793858071618103e-01 9.8580598537336392e+00 1.8852853782067520e+01 
634 236 2 1.0280000042601896e+00 -2.6390827619313054e+03 4.2000000000000000e+03 4.4297429985424525e-01 1.0258442134946531e+01 1.9068511801674440e+01 
938 540 2 1.0279999983007468e+00 -3.4453673817748722e+03 4.2000000000000000e+03 2.7182708805407136e+00 1.0504922772340480e+01 1.9305113635031407e+01 
445 47 2 1.0279999982698786e+00 2.1864228378946809e+03 4.2000000000000000e+03 2.7166040549494834e+00 1.0509177138215906e+01 1.9306276945311343e+01 
592 194 2 1.0279999480192104e+00 2.0844631547871893e+02 4.2000000000000000e+03 1.7907689193768501e+01 1.6293748306286084e+01 3.0197734722162792e+01 
434 36 2 1.0280003865812146e+00 2.2730016768857595e+03 4.2000000000000000e+03 1.8301123911677241e+01 1.6897476376767724e+01 3.0547812405436051e+01 
422 24 2 1.0279998963363777e+00 6.6652805401467208e+02 4.2000000000000000e+03 1.8464648148406301e+01 1.4968663273547465e+01 3.1035047833742567e+01 
1945 1547 2 1.0279998903146648e+00 2.5408564703635257e+03 4.2000000000000000e+03 1.8505576440317025e+01 1.4985152504183489e+01 3.1075383581534897e+01 
581 183 2 1.0279989833656202e+00 2.0995906935274998e+03 4.2000000000000000e+03 1.8595757570212335e+01 1.7207809535890533e+01 3.3324512720715525e+01 
598 200 2 1.0280006987416168e+00 -2.8360362059171575e+03 4.2000000000000000e+03 1.8668661008000559e+01 1.7478237080773766e+01 3.2650873073918788e+01 
426 28 2 1.0279998891168907e+00 2.0112794098915044e+03 4.2000000000000000e+03 1.7584793270650120e+01 1.6218656036022278e+01 3.5889203208646649e+01 
1772 1374 2 1.0279998773033061e+00 4.5609266090072997e+03 4.2000000000000000e+03 1.8304040075172935e+01 1.6913238545983013e+01 3.4410818123104200e+01 
1609 1211 2 1.0280000145088355e+00 -8.0354722346905737e+02 4.2000000000000000e+03 1.6910473021315479e+01 1.9625184459787359e+01 3.6083651483767461e+01 
769 371 2 1.0280000455656273e+00 -8.0351659843203265e+02 4.2000000000000000e+03 1.7290465059748499e+01 1.7896496069450158e+01 3.6066236408441149e+01 
595 197 2 1.0279999707005592e+00 -1.3560129644101251e+03 4.2000000000000000e+03 1.7403863635768705e+01 1.6290497161725501e+01 3.7106911495608941e+01 
757 359 2 1.0279999443432073e+00 5.4134271808261900e+01 4.2000000000000000e+03 1.8952521169626632e+01 1.7007905799838777e+01 3.7925624194217278e+01 
773 375 2 1.0280000503775069e+00 7.4558908241033669e+02 4.2000000000000000e+03 1.8453320544890506e+01 1.7453018350430710e+01 3.8030243940746210e+01 
1613 1215 2 1.0280000172494175e+00 7.4593670561807653e+02 4.2000000000000000e+03 1.8066878942401033e+01 1.9978857561875010e+01 3.8025192807451447e+01 
1087 689 2 1.0279999999999767e+00 -9.2512225293482140e+02 4.2000000000000000e+03 1.7628630324854971e+01 3.9710868122969893e+00 4.0884570442845636e+01 
421 23 2 1.0279999999999652e+00 1.3202593541906324e+03 4.2000000000000000e+03 1.7530171437298243e+01 3.9995642484713394e+00 4.0923095121030286e+01 
906 508 2 1.0280000000000458e+00 -2.8348848830010869e+01 4.2000000000000000e+03 1.7551446306393046e+01 4.5944140232974613e+00 4.2702891777107730e+01 
910 512 2 1.0279999999999911e+00 -4.8555740516061487e+03 4.2000000000000000e+03 1.7608320343853265e+01 4.5839341139225542e+00 4.2733859079271902e+01 