LAMMPS data file via write_data, version 30 Jul 2016, timestep = 50400000

3234 atoms
8 atom types

0.0000000000000000e+00 1.0000000000000000e+02 xlo xhi
0.0000000000000000e+00 4.0000000000000000e+01 ylo yhi
0.0000000000000000e+00 4.0000000000000000e+01 zlo zhi

Masses

1 3.896
2 5.36
3 20.064
4 8.378
5 8.378
6 8.378
7 8.378
8 8.378

Atoms # meso-molecular

366 367 2 1.0280000057702163e+00 -2.6328170316671903e+03 1.0000000000000000e+00 8.6495532059287927e-01 1.0000000000000000e+01 1.5616938744794822e+00 
282 283 2 1.0280000238052804e+00 4.9726497897136613e+02 1.0000000000000000e+00 1.7993563924863030e+00 1.0000000000000000e+01 3.8241463455793817e-01 
457 458 2 1.0280000520883426e+00 1.0981912911334200e+03 1.0000000000000000e+00 2.7872522258470327e+00 1.0000000000000000e+01 1.4649380968706927e+00 
334 335 2 1.0280000253627066e+00 1.7324529687881277e+03 1.0000000000000000e+00 4.0389011024620451e+00 1.0000000000000000e+01 1.7039982823907949e+00 
416 417 2 1.0279999066435628e+00 -2.0834783984468510e+02 1.0000000000000000e+00 6.3620101082481861e+00 1.0000000000000000e+01 7.5543867006906362e-01 
336 337 2 1.0279998459818129e+00 -8.7137911249030719e+02 1.0000000000000000e+00 9.1859477034859278e+00 1.0000000000000000e+01 1.3577684341040746e+00 
351 352 2 1.0280000764079971e+00 -2.2771798363357070e+03 1.0000000000000000e+00 1.0295499571577743e+01 1.0000000000000000e+01 1.0682305771171996e+00 
304 305 2 1.0279998362400977e+00 -1.5786648123761904e+03 1.0000000000000000e+00 1.2231847031230984e+01 1.0000000000000000e+01 1.1339042382718461e+00 
103 104 2 1.0280000586494993e+00 -2.4383618770620806e+03 1.0000000000000000e+00 1.3792097448074241e+01 1.0000000000000000e+01 8.6302663098888932e-01 
68 69 2 1.0279998311036054e+00 -2.0677703959133675e+02 1.0000000000000000e+00 1.6639006634273127e+01 1.0000000000000000e+01 1.6543154008092686e+00 
59 60 2 1.0280001749922116e+00 8.0923811162221597e+01 1.0000000000000000e+00 1.6324626061244413e+01 1.0000000000000000e+01 6.9507512860395604e-01 
828 829 2 1.0279999991711377e+00 -2.6314876227199538e+03 1.0000000000000000e+00 4.4089611816321622e-02 1.3000000000000000e+01 6.3780996654156519e-01 
791 792 2 1.0280000011460950e+00 2.2165729342716013e+03 1.0000000000000000e+00 2.7894174096851088e+00 1.3000000000000000e+01 1.3284974747191280e+00 
838 839 2 1.0280000000985934e+00 2.5034253849817187e+03 1.0000000000000000e+00 2.0816669268229648e+00 1.3000000000000000e+01 6.3255402485854562e-01 
711 712 2 1.0279999980541159e+00 -1.3122442258316833e+03 1.0000000000000000e+00 5.2289625101589818e+00 1.3000000000000000e+01 4.9151153931446917e-01 
630 631 2 1.0279999997808364e+00 -9.1873330893439254e+02 1.0000000000000000e+00 6.4803411484049320e+00 1.3000000000000000e+01 1.1325016893297131e+00 
845 846 2 1.0280000014274067e+00 -2.6527886308677705e+02 1.0000000000000000e+00 8.3322483659849542e+00 1.3000000000000000e+01 5.7468031641060013e-01 
810 811 2 1.0279999985730353e+00 -1.6078375499149356e+03 1.0000000000000000e+00 1.0092709121523598e+01 1.3000000000000000e+01 1.6899400282635795e+00 
811 812 2 1.0279999986753403e+00 -2.6621802813885261e+03 1.0000000000000000e+00 9.5729452890747790e+00 1.3000000000000000e+01 4.8810235315455414e-01 
729 730 2 1.0279999980799386e+00 -7.9785951963418279e+02 1.0000000000000000e+00 1.2325695783140331e+01 1.3000000000000000e+01 1.8162053952355810e+00 
727 728 2 1.0280000035082371e+00 5.5984185575040647e+02 1.0000000000000000e+00 1.1615417457098925e+01 1.3000000000000000e+01 1.0305260423420652e+00 
864 865 2 1.0280000019669795e+00 3.9821301970881473e+02 1.0000000000000000e+00 1.5190711055761048e+01 1.3000000000000000e+01 6.8496122424067363e-01 
821 822 2 1.0279999998022624e+00 1.9796494794695018e+03 1.0000000000000000e+00 1.6328145346688011e+01 1.3000000000000000e+01 6.6601491725729611e-01 
1353 1354 2 1.0280000000819356e+00 2.8398057605699108e+02 1.0000000000000000e+00 7.4105496686868522e-01 1.6000000000000000e+01 5.2695758751514876e-01 
1059 1060 2 1.0280000003089964e+00 6.6140594121122172e+02 1.0000000000000000e+00 1.9316888726575174e+00 1.6000000000000000e+01 9.5226786499523963e-01 
1097 1098 2 1.0279999997423344e+00 3.1266777492400543e+03 1.0000000000000000e+00 3.5309701227545154e+00 1.6000000000000000e+01 7.7959131586627806e-01 
1234 1235 2 1.0280000003187755e+00 1.0062743148096675e+02 1.0000000000000000e+00 5.1788430089673456e+00 1.6000000000000000e+01 1.4488896899647463e+00 
1192 1193 2 1.0279999999164655e+00 -7.0088483302357849e+02 1.0000000000000000e+00 6.3993162702361079e+00 1.6000000000000000e+01 4.5866630107897266e-01 
1109 1110 2 1.0280000000187461e+00 -7.7987667353087477e+02 1.0000000000000000e+00 7.0388338601944014e+00 1.6000000000000000e+01 1.7579324133215746e+00 
1061 1062 2 1.0279999998760356e+00 -6.2822397511434886e+01 1.0000000000000000e+00 8.8661563368891869e+00 1.6000000000000000e+01 3.4727066088990122e-01 
984 985 2 1.0280000009115211e+00 1.2890291629260437e+03 1.0000000000000000e+00 1.0319709305483119e+01 1.6000000000000000e+01 1.1926916671552517e+00 
1070 1071 2 1.0279999995607401e+00 3.2930760955728758e+01 1.0000000000000000e+00 1.2018593909924126e+01 1.6000000000000000e+01 1.1818259433095959e+00 
953 954 2 1.0280000000279617e+00 2.0146788285848716e+03 1.0000000000000000e+00 1.3380253880452013e+01 1.6000000000000000e+01 1.7499955323164319e-02 
1640 1641 2 1.0280000087329975e+00 -1.5879031341445670e+03 1.0000000000000000e+00 1.2388071891136461e-01 1.9000000000000000e+01 1.6450489184299524e+00 
1808 1809 2 1.0279999918318159e+00 -8.4238861768197137e+02 1.0000000000000000e+00 1.0947363308635150e+00 1.9000000000000000e+01 4.8790879913110902e-01 
1776 1777 2 1.0280000088734544e+00 1.3679180838457680e+03 1.0000000000000000e+00 2.7960611724361755e+00 1.9000000000000000e+01 1.1255965319948702e+00 
1732 1733 2 1.0279999889280049e+00 9.4673875768490495e+02 1.0000000000000000e+00 4.0675053614441996e+00 1.9000000000000000e+01 1.0178207906854946e+00 
1770 1771 2 1.0280000038364803e+00 -1.5782841073520713e+03 1.0000000000000000e+00 5.2329338123938918e+00 1.9000000000000000e+01 1.9115198315009846e-01 
1774 1775 2 1.0279999967936913e+00 5.3717176395395677e+02 1.0000000000000000e+00 7.2803094117488456e+00 1.9000000000000000e+01 5.2182029188867218e-01 
1654 1655 2 1.0280000022439821e+00 -7.0445265938392527e+02 1.0000000000000000e+00 8.6347381213033554e+00 1.9000000000000000e+01 9.8853432415317322e-01 
1649 1650 2 1.0280000060910293e+00 -2.6058892414361430e+03 1.0000000000000000e+00 1.1896467513064074e+01 1.9000000000000000e+01 1.1311723542891470e+00 
1607 1608 2 1.0280000011450734e+00 -3.0627859836962248e+03 1.0000000000000000e+00 1.1257825562865305e+01 1.9000000000000000e+01 4.0418290001451440e-01 
283 284 2 1.0279999871783621e+00 -2.9050848289781669e+02 1.0000000000000000e+00 1.8925104918411195e+00 1.0000000000000000e+01 3.5026412412889680e+00 
330 331 2 1.0279999505547679e+00 -9.1285501777262402e+02 1.0000000000000000e+00 4.6505185982933410e+00 1.0000000000000000e+01 3.2402907837980321e+00 
210 211 2 1.0280000711747568e+00 1.4669048775005822e+03 1.0000000000000000e+00 7.1946509727597423e+00 1.0000000000000000e+01 2.0278349943053202e+00 
286 287 2 1.0280000577452495e+00 -4.6038243689600728e+02 1.0000000000000000e+00 5.6365141444122226e+00 1.0000000000000000e+01 2.3212736304895700e+00 
412 413 2 1.0280000157863374e+00 1.0896482799031435e+03 1.0000000000000000e+00 8.0423511709501323e+00 1.0000000000000000e+01 3.0598244122799501e+00 
298 299 2 1.0280000705573391e+00 5.5536018805608828e+03 1.0000000000000000e+00 9.4612686167348823e+00 1.0000000000000000e+01 3.2804231661391663e+00 
391 392 2 1.0280001180375204e+00 -1.1204236841514286e+02 1.0000000000000000e+00 1.1126627283493761e+01 1.0000000000000000e+01 2.6124135564361985e+00 
352 353 2 1.0280000844299113e+00 -2.4567884998471850e+03 1.0000000000000000e+00 1.2095038601653341e+01 1.0000000000000000e+01 3.2369526488654530e+00 
223 224 2 1.0279999669944624e+00 -2.4029976160723118e+03 1.0000000000000000e+00 1.3403204479314038e+01 1.0000000000000000e+01 2.4797875761555739e+00 
222 223 2 1.0280001456443137e+00 -7.2443515097077116e+03 1.0000000000000000e+00 1.4975684304354855e+01 1.0000000000000000e+01 2.2810624064711256e+00 
152 153 2 1.0279999898673073e+00 5.1570665126087715e+03 1.0000000000000000e+00 1.5839386816527460e+01 1.0000000000000000e+01 3.2476636534930376e+00 
154 155 2 1.0279999392698569e+00 2.1418992929106794e+03 1.0000000000000000e+00 1.8603494191286831e+01 1.0000000000000000e+01 3.5738854208833093e+00 
621 622 2 1.0279999999529024e+00 -1.5246838286558664e+03 1.0000000000000000e+00 4.4355464916346887e-01 1.3000000000000000e+01 1.9256683310520366e+00 
534 535 2 1.0280000011124852e+00 -1.8731507157719733e+02 1.0000000000000000e+00 1.3763798213001093e+00 1.3000000000000000e+01 2.7671811658030827e+00 
751 752 2 1.0279999989682935e+00 -1.5263911330520141e+03 1.0000000000000000e+00 2.8991611543612681e+00 1.3000000000000000e+01 3.0499754082650479e+00 
753 754 2 1.0280000003600736e+00 2.9839818877138021e+02 1.0000000000000000e+00 4.2371283043833987e+00 1.3000000000000000e+01 3.0016377619259420e+00 
747 748 2 1.0280000002691605e+00 -2.2430773273081149e+03 1.0000000000000000e+00 5.5278003282373085e+00 1.3000000000000000e+01 3.3409884691118541e+00 
675 676 2 1.0279999995006919e+00 2.6158166291975922e+03 1.0000000000000000e+00 7.4326025822210218e+00 1.3000000000000000e+01 1.8693901704435389e+00 
674 675 2 1.0280000015455975e+00 -4.4846676214584677e+03 1.0000000000000000e+00 7.4490803976829421e+00 1.3000000000000000e+01 3.5316012659770983e+00 
850 851 2 1.0280000009646448e+00 5.3656286013671979e+02 1.0000000000000000e+00 1.0067233355566971e+01 1.3000000000000000e+01 3.2719530409527025e+00 
892 893 2 1.0280000013301966e+00 4.0575969146783409e+03 1.0000000000000000e+00 1.1542822880550002e+01 1.3000000000000000e+01 3.0963526752300439e+00 
930 931 2 1.0280000003319387e+00 1.1646674161320877e+03 1.0000000000000000e+00 7.5398475198844817e-01 1.6000000000000000e+01 3.1335230105340313e+00 
1015 1016 2 1.0279999997679661e+00 -1.5051432573422826e+03 1.0000000000000000e+00 1.9969063983089042e+00 1.6000000000000000e+01 2.6739023777009381e+00 
1140 1141 2 1.0280000001412326e+00 3.3342517351619790e+03 1.0000000000000000e+00 3.4255709674423676e+00 1.6000000000000000e+01 2.0266485188687491e+00 
1022 1023 2 1.0279999995262601e+00 -2.3704691914272471e+03 1.0000000000000000e+00 5.6997902060032164e+00 1.6000000000000000e+01 2.7152148315911497e+00 
1106 1107 2 1.0280000002952066e+00 -3.6066174759220223e+02 1.0000000000000000e+00 7.6861197518739885e+00 1.6000000000000000e+01 3.1124426557285640e+00 
1066 1067 2 1.0279999994184479e+00 2.5838247062429923e+02 1.0000000000000000e+00 9.0546175832771372e+00 1.6000000000000000e+01 1.9206874578602011e+00 
1366 1367 2 1.0279999992513345e+00 4.3019366777982677e+03 1.0000000000000000e+00 1.0363523284533144e+01 1.6000000000000000e+01 2.8122997549366735e+00 
942 943 2 1.0280000000583986e+00 2.2492264494831069e+01 1.0000000000000000e+00 1.1892025085255215e+01 1.6000000000000000e+01 2.2910433114375448e+00 
1028 1029 2 1.0280000000547480e+00 2.1656423159484334e+03 1.0000000000000000e+00 1.4416417072562922e+01 1.6000000000000000e+01 2.4071949205711167e+00 
1067 1068 2 1.0280000002526346e+00 5.3861598629369382e+03 1.0000000000000000e+00 1.3550247806599652e+01 1.6000000000000000e+01 3.5907327995998970e+00 
1031 1032 2 1.0279999997940290e+00 2.1031329616315006e+03 1.0000000000000000e+00 1.5032659577895899e+01 1.6000000000000000e+01 3.2813870454732155e+00 
1683 1684 2 1.0279999921116099e+00 1.6505890705489533e+03 1.0000000000000000e+00 2.0650216481992185e+00 1.9000000000000000e+01 2.5293191376486162e+00 
1725 1726 2 1.0280000038299599e+00 2.3899484605618691e+03 1.0000000000000000e+00 3.1973618385056684e+00 1.9000000000000000e+01 3.1136851276186204e+00 
1730 1731 2 1.0279999880753381e+00 2.8667316111325727e+03 1.0000000000000000e+00 4.9949840251388773e+00 1.9000000000000000e+01 3.2783635055802889e+00 
1772 1773 2 1.0280000168304659e+00 1.4897799539311009e+03 1.0000000000000000e+00 5.5424601543112537e+00 1.9000000000000000e+01 2.0028288341302138e+00 
1647 1648 2 1.0279999950662346e+00 -5.4737291897431419e+02 1.0000000000000000e+00 6.6485220632178459e+00 1.9000000000000000e+01 2.9172163418959864e+00 
1696 1697 2 1.0279999999908080e+00 9.9106428618105156e+01 1.0000000000000000e+00 8.3014011323721455e+00 1.9000000000000000e+01 2.2368796976909362e+00 
1650 1651 2 1.0280000024923617e+00 -2.5140397354146202e+02 1.0000000000000000e+00 8.9835946379242433e+00 1.9000000000000000e+01 3.6126632230109075e+00 
1779 1780 2 1.0279999965125812e+00 8.9848751769349201e+02 1.0000000000000000e+00 1.0180845136424193e+01 1.9000000000000000e+01 2.8326250937430584e+00 
1693 1694 2 1.0279999963372246e+00 7.3189004884249493e+02 1.0000000000000000e+00 1.1734303047358502e+01 1.9000000000000000e+01 3.0035551172914476e+00 
1698 1699 2 1.0280000023620386e+00 -9.4029640165264232e+02 1.0000000000000000e+00 1.3172105497880352e+01 1.9000000000000000e+01 2.3703804460618096e+00 
1659 1660 2 1.0279999989285571e+00 -8.4249482156361594e+01 1.0000000000000000e+00 1.3825598494627219e+01 1.9000000000000000e+01 3.3018063232527481e+00 
199 200 2 1.0280000298492504e+00 -2.5111710038606549e+02 1.0000000000000000e+00 3.2020671650379151e-01 1.0000000000000000e+01 4.1103345218390430e+00 
325 326 2 1.0279999966049083e+00 3.8313848259405499e+03 1.0000000000000000e+00 1.1853435654424520e+00 1.0000000000000000e+01 5.0034673899070947e+00 
114 115 2 1.0280000473537589e+00 -2.7018604053092063e+03 1.0000000000000000e+00 2.9730339549300515e+00 1.0000000000000000e+01 3.9379173667745340e+00 
249 250 2 1.0280000280290431e+00 -1.3095418897831496e+03 1.0000000000000000e+00 4.9754112791663498e+00 1.0000000000000000e+01 4.7982496454356038e+00 
290 291 2 1.0280000094709520e+00 3.3013983057477935e+03 1.0000000000000000e+00 6.2193051799171712e+00 1.0000000000000000e+01 4.8112268304134442e+00 
294 295 2 1.0279999327786509e+00 1.4737883054187294e+03 1.0000000000000000e+00 8.8615724456796841e+00 1.0000000000000000e+01 4.5575764126748970e+00 
348 349 2 1.0279999083758118e+00 -1.6079269877667739e+03 1.0000000000000000e+00 1.0557121989860251e+01 1.0000000000000000e+01 4.8836400784901297e+00 
312 313 2 1.0280000477392413e+00 -9.3841157510054086e+02 1.0000000000000000e+00 1.3796498908497925e+01 1.0000000000000000e+01 4.2535145769993958e+00 
65 66 2 1.0280000215400054e+00 -1.6042107763247034e+03 1.0000000000000000e+00 1.4838873250476659e+01 1.0000000000000000e+01 4.7248669463430941e+00 
281 282 2 1.0280002250479943e+00 -2.6528077546477510e+02 1.0000000000000000e+00 1.6967752886294843e+01 1.0000000000000000e+01 4.3369263856536682e+00 
361 362 2 1.0279998409234965e+00 -1.4420836570735355e+03 1.0000000000000000e+00 1.7630798492832774e+01 1.0000000000000000e+01 5.3519928252454969e+00 
155 156 2 1.0280000657318067e+00 8.2966117215409508e+02 1.0000000000000000e+00 1.9079052675675570e+01 1.0000000000000000e+01 4.3410013056024281e+00 
153 154 2 1.0280000000000180e+00 2.9684729727945330e+02 1.0000000000000000e+00 2.1748891194129143e+01 1.0000000000000000e+01 5.1029805083866364e+00 
193 194 2 1.0280000000000180e+00 -7.3537397656296639e+02 1.0000000000000000e+00 2.2414429107913698e+01 1.0000000000000000e+01 5.3427763826051802e+00 
833 834 2 1.0279999989354660e+00 2.9250249695109524e+03 1.0000000000000000e+00 1.3519510548258711e+00 1.3000000000000000e+01 4.6454258387383565e+00 
712 713 2 1.0280000017616853e+00 2.4213000595548538e+03 1.0000000000000000e+00 3.6200095699846297e+00 1.3000000000000000e+01 4.7078858480213706e+00 
715 716 2 1.0279999991444655e+00 1.4537412605823547e+03 1.0000000000000000e+00 6.2852955283043412e+00 1.3000000000000000e+01 4.3711173901003617e+00 
561 562 2 1.0280000001825393e+00 -2.2565206073680356e+03 1.0000000000000000e+00 8.8485530381719979e+00 1.3000000000000000e+01 3.8487253028444326e+00 
517 518 2 1.0280000006698606e+00 -1.0635262526456546e+02 1.0000000000000000e+00 9.1704516057909107e+00 1.3000000000000000e+01 5.4429345187326499e+00 
644 645 2 1.0279999991493391e+00 -3.7168161023520770e+02 1.0000000000000000e+00 1.1893780206746628e+01 1.3000000000000000e+01 4.5689413647407751e+00 
1023 1024 2 1.0279999998160032e+00 -2.2587729652029820e+03 1.0000000000000000e+00 1.8424100038527857e-01 1.6000000000000000e+01 4.4868496564336846e+00 
1265 1266 2 1.0280000001068530e+00 2.8794722600092780e+02 1.0000000000000000e+00 2.9623664658657152e+00 1.6000000000000000e+01 4.1687446033210094e+00 
1013 1014 2 1.0279999995714606e+00 2.8249438557009000e+02 1.0000000000000000e+00 2.3930448203420074e+00 1.6000000000000000e+01 5.2732888985975217e+00 
1155 1156 2 1.0279999996668316e+00 2.6264138682977091e+02 1.0000000000000000e+00 4.4651905593554968e+00 1.6000000000000000e+01 4.2518145277973822e+00 
1026 1027 2 1.0280000001043847e+00 -1.3870931237255750e+03 1.0000000000000000e+00 5.7325476188246078e+00 1.6000000000000000e+01 4.2641390579607563e+00 
1277 1278 2 1.0279999997555247e+00 -4.5799384537291189e+02 1.0000000000000000e+00 7.9719264376076708e+00 1.6000000000000000e+01 4.3319105753056508e+00 
1369 1370 2 1.0280000000038247e+00 9.1642530284423742e+01 1.0000000000000000e+00 9.6357150567993255e+00 1.6000000000000000e+01 4.1781192312562627e+00 
1367 1368 2 1.0280000001424174e+00 2.0876590253885324e+03 1.0000000000000000e+00 1.0499037633075803e+01 1.6000000000000000e+01 5.1826296195197390e+00 
1365 1366 2 1.0280000003745655e+00 4.2199696472294363e+03 1.0000000000000000e+00 1.1822931659959849e+01 1.6000000000000000e+01 4.3783021466967282e+00 
944 945 2 1.0279999996231530e+00 2.1088225882116212e+03 1.0000000000000000e+00 1.2811252292247891e+01 1.6000000000000000e+01 5.0282751123639127e+00 
989 990 2 1.0280000001812886e+00 -1.6282555384518391e+03 1.0000000000000000e+00 1.4688121414783883e+01 1.6000000000000000e+01 5.3381930990182020e+00 
1729 1730 2 1.0280000094771942e+00 -1.5129515000313422e+03 1.0000000000000000e+00 9.8662016703677535e-01 1.9000000000000000e+01 3.9112560796460700e+00 
1467 1468 2 1.0279999967424152e+00 -2.2354201481521313e+03 1.0000000000000000e+00 6.7413398429581683e-01 1.9000000000000000e+01 5.3398144116322719e+00 
1773 1774 2 1.0279999935312263e+00 1.1220142840712520e+03 1.0000000000000000e+00 2.4518558486081279e+00 1.9000000000000000e+01 4.4238341446895593e+00 
1771 1772 2 1.0280000158442923e+00 -4.8957513823329066e+02 1.0000000000000000e+00 4.2942546971028825e+00 1.9000000000000000e+01 4.9203684409370663e+00 
1688 1689 2 1.0280000119464683e+00 2.3099016009557317e+03 1.0000000000000000e+00 6.3023608004751965e+00 1.9000000000000000e+01 4.3802522199182468e+00 
1727 1728 2 1.0279999949362000e+00 2.8536134201201776e+02 1.0000000000000000e+00 7.7646737531045948e+00 1.9000000000000000e+01 4.7023434881487649e+00 
1819 1820 2 1.0280000035409977e+00 2.5325582185847552e+03 1.0000000000000000e+00 1.0880168790366053e+01 1.9000000000000000e+01 4.1413414128861614e+00 
1692 1693 2 1.0279999987365001e+00 3.8609653863261747e+03 1.0000000000000000e+00 9.7654188226893837e+00 1.9000000000000000e+01 5.3486004481633662e+00 
1658 1659 2 1.0280000044583713e+00 -8.5673173122422577e+02 1.0000000000000000e+00 1.3890701397716068e+01 1.9000000000000000e+01 4.7237673863358651e+00 
203 204 2 1.0280000071650157e+00 -4.1361750025875181e+03 1.0000000000000000e+00 1.5287340441723343e+00 1.0000000000000000e+01 6.5652714088507942e+00 
198 199 2 1.0280000205931521e+00 5.2872840134578189e+02 1.0000000000000000e+00 3.3246132565346298e-01 1.0000000000000000e+01 7.2187758953882533e+00 
415 416 2 1.0279999729412652e+00 -1.5199708612648437e+03 1.0000000000000000e+00 3.3751157163881866e+00 1.0000000000000000e+01 5.4787427195710485e+00 
413 414 2 1.0280000104666489e+00 1.4344174874795215e+03 1.0000000000000000e+00 4.0646280053290873e+00 1.0000000000000000e+01 6.5348117469688285e+00 
168 169 2 1.0280000029643586e+00 -9.2325121367305667e+02 1.0000000000000000e+00 7.1112237056956680e+00 1.0000000000000000e+01 5.7406225869819183e+00 
285 286 2 1.0280000228493651e+00 -2.2305266996646046e+03 1.0000000000000000e+00 8.0224842004910482e+00 1.0000000000000000e+01 6.6266848162378853e+00 
299 300 2 1.0280000667691351e+00 -1.2030624436728285e+03 1.0000000000000000e+00 9.4715600411965717e+00 1.0000000000000000e+01 6.0111146300707183e+00 
265 266 2 1.0279999098411177e+00 5.6081085603195197e+02 1.0000000000000000e+00 1.2664051393365186e+01 1.0000000000000000e+01 5.4641106550426120e+00 
388 389 2 1.0280001114102233e+00 5.3572070437646937e+02 1.0000000000000000e+00 1.1294518029495030e+01 1.0000000000000000e+01 5.9409474105143056e+00 
267 268 2 1.0279999757650009e+00 -7.9741329937646935e+02 1.0000000000000000e+00 1.3337973858120483e+01 1.0000000000000000e+01 6.6635150756631738e+00 
402 403 2 1.0280000397082272e+00 3.9842980231261288e+02 1.0000000000000000e+00 1.5600571379978211e+01 1.0000000000000000e+01 6.1408715373097795e+00 
359 360 2 1.0280000048128024e+00 1.9796317383881683e+03 1.0000000000000000e+00 1.6541473430978748e+01 1.0000000000000000e+01 6.4938574777236067e+00 
920 921 2 1.0280000014857338e+00 1.2443451628678656e+03 1.0000000000000000e+00 1.4956572934061321e+00 1.3000000000000000e+01 7.0518167996523013e+00 
871 872 2 1.0280000003516625e+00 1.4065327760994210e+03 1.0000000000000000e+00 2.1704626423129576e+00 1.3000000000000000e+01 5.5058874877588977e+00 
843 844 2 1.0279999982460870e+00 -2.0747290408254466e+03 1.0000000000000000e+00 4.1772160258410480e+00 1.3000000000000000e+01 5.7848785604690125e+00 
757 758 2 1.0280000020396469e+00 -9.5638208942531162e+02 1.0000000000000000e+00 3.8738568753934799e+00 1.3000000000000000e+01 7.2382971065676109e+00 
681 682 2 1.0279999991972697e+00 -8.9199501667331447e+02 1.0000000000000000e+00 7.3859840016419431e+00 1.3000000000000000e+01 5.6941046183230455e+00 
719 720 2 1.0280000013652451e+00 3.2412108195278297e+03 1.0000000000000000e+00 6.5571745930929799e+00 1.3000000000000000e+01 7.1572738936157716e+00 
679 680 2 1.0280000000849026e+00 4.2762338087885182e+03 1.0000000000000000e+00 8.0313280042169577e+00 1.3000000000000000e+01 6.7778355772153152e+00 
650 651 2 1.0279999991625450e+00 -9.8684498454022832e+02 1.0000000000000000e+00 1.0002640204623759e+01 1.3000000000000000e+01 6.3819214808415472e+00 
522 523 2 1.0280000016218573e+00 1.2902199186795242e+03 1.0000000000000000e+00 1.1685600016308367e+01 1.3000000000000000e+01 5.6207165055593578e+00 
608 609 2 1.0279999990249453e+00 1.9115954299867340e+01 1.0000000000000000e+00 1.3200700388933793e+01 1.3000000000000000e+01 6.2687624568755762e+00 
480 481 2 1.0280000007882435e+00 2.9969898939806342e+01 1.0000000000000000e+00 1.3651676670796910e+01 1.3000000000000000e+01 7.1284349583850162e+00 
1182 1183 2 1.0280000002628542e+00 -1.3539061075608060e+03 1.0000000000000000e+00 7.6940802636869809e-01 1.6000000000000000e+01 6.6885107560563695e+00 
1110 1111 2 1.0280000002505580e+00 -7.1934460047922289e+02 1.0000000000000000e+00 3.4283161850880233e+00 1.6000000000000000e+01 6.2211356807563449e+00 
1225 1226 2 1.0280000001176437e+00 -1.0280663825275979e+03 1.0000000000000000e+00 1.8918288919424155e+00 1.6000000000000000e+01 7.1423091800610345e+00 
1069 1070 2 1.0280000004071714e+00 -1.1979106926276922e+03 1.0000000000000000e+00 4.7471491307234723e+00 1.6000000000000000e+01 6.0367625962053832e+00 
1364 1365 2 1.0279999996936955e+00 2.2453723840756611e+03 1.0000000000000000e+00 6.4625388115265787e+00 1.6000000000000000e+01 5.8136043410726401e+00 
1286 1287 2 1.0279999997779916e+00 -6.7566635141344852e+02 1.0000000000000000e+00 5.9597586770698312e+00 1.6000000000000000e+01 7.0908134608235391e+00 
1280 1281 2 1.0280000004445602e+00 2.2767323695522186e+03 1.0000000000000000e+00 8.0578714800598945e+00 1.6000000000000000e+01 5.9080350334365495e+00 
1321 1322 2 1.0279999996962190e+00 4.0593696483707856e+02 1.0000000000000000e+00 9.2888463849077834e+00 1.6000000000000000e+01 6.1564610002217632e+00 
1025 1026 2 1.0279999999895408e+00 -5.2076367189962912e+02 1.0000000000000000e+00 1.2420894781804702e+01 1.6000000000000000e+01 7.2543572253599340e+00 
986 987 2 1.0280000002338414e+00 -1.8191954815057825e+03 1.0000000000000000e+00 1.3566817701699092e+01 1.6000000000000000e+01 6.7162160856203306e+00 
1076 1077 2 1.0279999996201785e+00 5.1561757162135200e+03 1.0000000000000000e+00 1.5155959490198363e+01 1.6000000000000000e+01 6.2579963023910263e+00 
1766 1767 2 1.0279999932601211e+00 5.6737852718620488e+03 1.0000000000000000e+00 9.6335318333472619e-01 1.9000000000000000e+01 7.1656541196215464e+00 
1425 1426 2 1.0280000030732546e+00 -4.7304978626990135e+02 1.0000000000000000e+00 2.0635800544179381e+00 1.9000000000000000e+01 6.0672045278927422e+00 
1689 1690 2 1.0279999959470472e+00 6.5097296837388410e+02 1.0000000000000000e+00 3.5753704322525612e+00 1.9000000000000000e+01 6.1609107628420974e+00 
1815 1816 2 1.0279999831276572e+00 2.7392238358474435e+02 1.0000000000000000e+00 5.3014842724733571e+00 1.9000000000000000e+01 5.9238162086328003e+00 
1521 1522 2 1.0280000042181161e+00 6.6225285280140520e+02 1.0000000000000000e+00 7.2336936127798106e+00 1.9000000000000000e+01 6.0717628172106455e+00 
1475 1476 2 1.0279999997373348e+00 2.7620939937705464e+02 1.0000000000000000e+00 9.0040345202182070e+00 1.9000000000000000e+01 6.1274189993173502e+00 
1656 1657 2 1.0280000064443537e+00 -7.0730116937652815e+02 1.0000000000000000e+00 1.2037279806740859e+01 1.9000000000000000e+01 5.7968293860055997e+00 
1566 1567 2 1.0279999945262690e+00 -2.5820125627104414e+02 1.0000000000000000e+00 1.1415846432573192e+01 1.9000000000000000e+01 6.8385921113191648e+00 
1733 1734 2 1.0279999941418105e+00 -2.3264124231279965e+02 1.0000000000000000e+00 1.3438267209444474e+01 1.9000000000000000e+01 5.7624400593736187e+00 
72 73 2 1.0279999875017980e+00 -1.8536546755242367e+02 1.0000000000000000e+00 2.8165835530122163e-01 1.0000000000000000e+01 8.8986990486444668e+00 
376 377 2 1.0280000256047666e+00 2.5029349869300181e+03 1.0000000000000000e+00 2.7748098710694915e+00 1.0000000000000000e+01 7.3370191953047286e+00 
289 290 2 1.0279999716270769e+00 -1.5220589414806561e+03 1.0000000000000000e+00 3.9473876914550048e+00 1.0000000000000000e+01 8.2889868725486426e+00 
291 292 2 1.0280000362431609e+00 2.9887522197009378e+02 1.0000000000000000e+00 5.3520988028817511e+00 1.0000000000000000e+01 8.6750456419188477e+00 
250 251 2 1.0280000573351291e+00 2.4186552208416165e+03 1.0000000000000000e+00 6.7269903370990320e+00 1.0000000000000000e+01 8.2643693625976429e+00 
383 384 2 1.0279998978288309e+00 -2.7331122109782439e+02 1.0000000000000000e+00 9.1508851343945707e+00 1.0000000000000000e+01 7.8146168562728047e+00 
99 100 2 1.0280000398634046e+00 -2.2599192581877710e+03 1.0000000000000000e+00 1.0388179651045441e+01 1.0000000000000000e+01 8.1378206106285820e+00 
430 431 2 1.0279999471380756e+00 4.0561446291570360e+03 1.0000000000000000e+00 1.2478536624177471e+01 1.0000000000000000e+01 7.5947679915497295e+00 
55 56 2 1.0279999463940781e+00 -1.0631328354148003e+02 1.0000000000000000e+00 1.1296883985993000e+01 1.0000000000000000e+01 9.0668588022609349e+00 
347 348 2 1.0279998917798925e+00 -2.2911429513733083e+02 1.0000000000000000e+00 1.4544680503861986e+01 1.0000000000000000e+01 8.3572049851467689e+00 
307 308 2 1.0280000619879719e+00 7.3322605383632231e+02 1.0000000000000000e+00 1.3478712436258187e+01 1.0000000000000000e+01 8.7066783931892537e+00 
880 881 2 1.0279999989639403e+00 -2.0612614997865612e+03 1.0000000000000000e+00 2.0725187172569566e+00 1.3000000000000000e+01 7.9981716943439318e+00 
718 719 2 1.0279999994373927e+00 7.0776436325587133e+02 1.0000000000000000e+00 4.9885330295813848e+00 1.3000000000000000e+01 7.4715076469143931e+00 
764 765 2 1.0279999997651990e+00 2.3119483126304076e+03 1.0000000000000000e+00 6.6868176714056142e+00 1.3000000000000000e+01 8.6708383927823025e+00 
809 810 2 1.0280000002896956e+00 -2.3004102594959730e+02 1.0000000000000000e+00 8.9356702720935228e+00 1.3000000000000000e+01 8.9801782215123485e+00 
482 483 2 1.0280000007691048e+00 2.1107991568439643e+03 1.0000000000000000e+00 1.0061895117295540e+01 1.3000000000000000e+01 7.9006614721174673e+00 
903 904 2 1.0279999992598434e+00 4.2105843864421659e+03 1.0000000000000000e+00 1.1437158378839456e+01 1.3000000000000000e+01 7.8063929719606477e+00 
907 908 2 1.0280000002495926e+00 9.2799956812552068e+01 1.0000000000000000e+00 1.1900997393357589e+01 1.3000000000000000e+01 8.9448537790905220e+00 
566 567 2 1.0280000000615381e+00 2.1828559254444826e+03 1.0000000000000000e+00 1.4018560971322383e+01 1.3000000000000000e+01 8.6974247865357732e+00 
1279 1280 2 1.0279999995299662e+00 -2.6049882887368522e+03 1.0000000000000000e+00 8.0104909994864193e-02 1.6000000000000000e+01 7.9619961228442806e+00 
1108 1109 2 1.0279999998665388e+00 -6.7851585846751800e+02 1.0000000000000000e+00 2.9603925604740700e+00 1.6000000000000000e+01 8.4258838414365531e+00 
1152 1153 2 1.0280000001914162e+00 -5.7803680634088801e+02 1.0000000000000000e+00 4.4170514614939282e+00 1.6000000000000000e+01 8.9547234769195683e+00 
1278 1279 2 1.0280000006232319e+00 -1.5072707413341964e+03 1.0000000000000000e+00 7.2598815671057899e+00 1.6000000000000000e+01 8.1202700427177952e+00 
1193 1194 2 1.0279999996612359e+00 -8.6251861195241622e+02 1.0000000000000000e+00 6.1054077892510037e+00 1.6000000000000000e+01 8.8105573876807313e+00 
1190 1191 2 1.0279999999352307e+00 -3.3446523390522509e+02 1.0000000000000000e+00 8.5696915704292209e+00 1.6000000000000000e+01 8.6670041297169291e+00 
1064 1065 2 1.0280000002439762e+00 9.1647197063025010e+02 1.0000000000000000e+00 9.5907398004182056e+00 1.6000000000000000e+01 7.8966217574763435e+00 
1065 1066 2 1.0280000002481715e+00 2.0669840898314937e+03 1.0000000000000000e+00 1.1063822563577622e+01 1.6000000000000000e+01 7.3494976639272034e+00 
941 942 2 1.0279999998828264e+00 1.9980740876984889e+03 1.0000000000000000e+00 1.1165305786695686e+01 1.6000000000000000e+01 8.8586880309300469e+00 
990 991 2 1.0280000000199780e+00 5.2651603307578239e+02 1.0000000000000000e+00 1.4830963229386345e+01 1.6000000000000000e+01 8.2433707347934462e+00 