LAMMPS data file via write_data, version 30 Jul 2016, timestep = 50000000

3234 atoms
8 atom types

0.0000000000000000e+00 1.0000000000000000e+02 xlo xhi
0.0000000000000000e+00 4.0000000000000000e+01 ylo yhi
0.0000000000000000e+00 4.0000000000000000e+01 zlo zhi

Masses

1 3.896
2 5.36
3 20.064
4 8.378
5 8.378
6 8.378
7 8.378
8 8.378

Atoms # meso-molecular

366 367 2 1.0280000000223979e+00 -2.6328170324305802e+03 1.0000000000000000e+00 8.6678615483225641e-01 1.0000000000000000e+01 1.5034922466740659e+00 
282 283 2 1.0279999999886438e+00 4.9726497875606037e+02 1.0000000000000000e+00 1.8017885917332541e+00 1.0000000000000000e+01 3.2543363815275422e-01 
457 458 2 1.0279999999966474e+00 1.0981912898939188e+03 1.0000000000000000e+00 2.7900976759835499e+00 1.0000000000000000e+01 1.4065647935274341e+00 
334 335 2 1.0279999999857157e+00 1.7324529665291718e+03 1.0000000000000000e+00 4.0422608390758548e+00 1.0000000000000000e+01 1.6461191022123389e+00 
416 417 2 1.0279999999920839e+00 -2.0834784277932107e+02 1.0000000000000000e+00 6.3683176409241131e+00 1.0000000000000000e+01 6.9889369853249794e-01 
336 337 2 1.0280000000100931e+00 -8.7137912443478217e+02 1.0000000000000000e+00 9.1983622617324734e+00 1.0000000000000000e+01 1.3038064493956005e+00 
351 352 2 1.0279999999922194e+00 -2.2771798535803109e+03 1.0000000000000000e+00 1.0309138092429443e+01 1.0000000000000000e+01 1.0169434939437627e+00 
304 305 2 1.0280000000173548e+00 -1.5786648132925557e+03 1.0000000000000000e+00 1.2247824994676558e+01 1.0000000000000000e+01 1.0902435699762574e+00 
103 104 2 1.0279999999969545e+00 -2.4383620677742583e+03 1.0000000000000000e+00 1.3812450915726304e+01 1.0000000000000000e+01 8.2950781084633085e-01 
68 69 2 1.0280000000016403e+00 -2.0677711931160962e+02 1.0000000000000000e+00 1.6650576086491569e+01 1.0000000000000000e+01 1.6239540916626423e+00 
59 60 2 1.0279999999861531e+00 8.0923819466697637e+01 1.0000000000000000e+00 1.6320872222323310e+01 1.0000000000000000e+01 6.6329101353206166e-01 
828 829 2 1.0279999984671313e+00 -2.6314876227199538e+03 1.0000000000000000e+00 4.2738206356192611e-02 1.3000000000000000e+01 6.1621126881864385e-01 
791 792 2 1.0280000038751527e+00 2.2165729342716013e+03 1.0000000000000000e+00 2.7877764486858152e+00 1.3000000000000000e+01 1.3066920668668507e+00 
838 839 2 1.0280000005008305e+00 2.5034253849817187e+03 1.0000000000000000e+00 2.0803797966399422e+00 1.3000000000000000e+01 6.1070315447385037e-01 
711 712 2 1.0279999955875607e+00 -1.3122442258316833e+03 1.0000000000000000e+00 5.2275938976431986e+00 1.3000000000000000e+01 4.6974849762867554e-01 
630 631 2 1.0279999962012292e+00 -9.1873330893439254e+02 1.0000000000000000e+00 6.4791789377243809e+00 1.3000000000000000e+01 1.1107751396816175e+00 
845 846 2 1.0280000017319564e+00 -2.6527886313559969e+02 1.0000000000000000e+00 8.3309369271978095e+00 1.3000000000000000e+01 5.5263723893225380e-01 
810 811 2 1.0279999983978552e+00 -1.6078375499149356e+03 1.0000000000000000e+00 1.0091176857090357e+01 1.3000000000000000e+01 1.6679111304288843e+00 
811 812 2 1.0279999968041671e+00 -2.6621802813885261e+03 1.0000000000000000e+00 9.5715116307074553e+00 1.3000000000000000e+01 4.6582929816482510e-01 
729 730 2 1.0279999963394619e+00 -7.9785951963418279e+02 1.0000000000000000e+00 1.2323789666858822e+01 1.3000000000000000e+01 1.7938454598377596e+00 
727 728 2 1.0280000077916456e+00 5.5984185567430768e+02 1.0000000000000000e+00 1.1613767886148050e+01 1.3000000000000000e+01 1.0083614586409220e+00 
864 865 2 1.0280000060541166e+00 3.9821301970881473e+02 1.0000000000000000e+00 1.5190490180985625e+01 1.3000000000000000e+01 6.6146620560331526e-01 
821 822 2 1.0279999984614157e+00 1.9796494794695018e+03 1.0000000000000000e+00 1.6327912195052978e+01 1.3000000000000000e+01 6.4259195335350527e-01 
1353 1354 2 1.0280000002614509e+00 2.8398057605699108e+02 1.0000000000000000e+00 7.3994340457814844e-01 1.6000000000000000e+01 5.3809490545545990e-01 
1059 1060 2 1.0280000008488619e+00 6.6140594121122172e+02 1.0000000000000000e+00 1.9305952106672242e+00 1.6000000000000000e+01 9.6335511320831613e-01 
1097 1098 2 1.0279999993595019e+00 3.1266777492400543e+03 1.0000000000000000e+00 3.5299057239509888e+00 1.6000000000000000e+01 7.9063610189724709e-01 
1234 1235 2 1.0280000009617680e+00 1.0062743148096675e+02 1.0000000000000000e+00 5.1778340249197594e+00 1.6000000000000000e+01 1.4598747492327553e+00 
1192 1193 2 1.0279999996782430e+00 -7.0088483302357849e+02 1.0000000000000000e+00 6.3982499366927508e+00 1.6000000000000000e+01 4.6970402943981426e-01 
1109 1110 2 1.0280000001771599e+00 -7.7987667353087477e+02 1.0000000000000000e+00 7.0378737405088030e+00 1.6000000000000000e+01 1.7689225309711720e+00 
1061 1062 2 1.0279999994164184e+00 -6.2822397517721953e+01 1.0000000000000000e+00 8.8651512421366370e+00 1.6000000000000000e+01 3.5833692732003380e-01 
984 985 2 1.0280000023651528e+00 1.2890291629260437e+03 1.0000000000000000e+00 1.0318824520448677e+01 1.6000000000000000e+01 1.2036516562518860e+00 
1070 1071 2 1.0279999989306925e+00 3.2930760955231683e+01 1.0000000000000000e+00 1.2017683184424850e+01 1.6000000000000000e+01 1.1926665479218284e+00 
953 954 2 1.0280000002670915e+00 2.0146788285848716e+03 1.0000000000000000e+00 1.3379270557955865e+01 1.6000000000000000e+01 2.8274336585578576e-02 
1640 1641 2 1.0280000163074208e+00 -1.5879031343161353e+03 1.0000000000000000e+00 1.2776656708925660e-01 1.9000000000000000e+01 1.6312202234341875e+00 
1808 1809 2 1.0279999859662829e+00 -8.4238861783426034e+02 1.0000000000000000e+00 1.0980582553959903e+00 1.9000000000000000e+01 4.7452184492672206e-01 
1776 1777 2 1.0280000193165721e+00 1.3679180836638691e+03 1.0000000000000000e+00 2.7991527143456074e+00 1.9000000000000000e+01 1.1135380884395334e+00 
1732 1733 2 1.0279999786751044e+00 9.4673875759395548e+02 1.0000000000000000e+00 4.0709058526812427e+00 1.9000000000000000e+01 1.0067819846856525e+00 
1770 1771 2 1.0280000111862155e+00 -1.5782841075715419e+03 1.0000000000000000e+00 5.2362005879749667e+00 1.9000000000000000e+01 1.8028168668169942e-01 
1774 1775 2 1.0279999788105065e+00 5.3717176395395677e+02 1.0000000000000000e+00 7.2821218207174274e+00 1.9000000000000000e+01 5.1164218195680577e-01 
1654 1655 2 1.0280000148992148e+00 -7.0445265940739444e+02 1.0000000000000000e+00 8.6365569961838613e+00 1.9000000000000000e+01 9.7827602248348189e-01 
1649 1650 2 1.0280000082707514e+00 -2.6058892414361430e+03 1.0000000000000000e+00 1.1897655341260318e+01 1.9000000000000000e+01 1.1214940231796613e+00 
1607 1608 2 1.0279999981227927e+00 -3.0627859836962248e+03 1.0000000000000000e+00 1.1259178000535096e+01 1.9000000000000000e+01 3.9449042743509799e-01 
283 284 2 1.0280000000018585e+00 -2.9050848326722462e+02 1.0000000000000000e+00 1.8943610555653685e+00 1.0000000000000000e+01 3.4442441961440542e+00 
330 331 2 1.0279999999904472e+00 -9.1285501942904648e+02 1.0000000000000000e+00 4.6543413324643996e+00 1.0000000000000000e+01 3.1818151297388262e+00 
210 211 2 1.0279999999872751e+00 1.4669048701654406e+03 1.0000000000000000e+00 7.1986244745731609e+00 1.0000000000000000e+01 1.9720172594427641e+00 
286 287 2 1.0280000000254494e+00 -4.6038243812415419e+02 1.0000000000000000e+00 5.6413723090538905e+00 1.0000000000000000e+01 2.2637338606083288e+00 
412 413 2 1.0279999999816105e+00 1.0896482684147422e+03 1.0000000000000000e+00 8.0510939326626705e+00 1.0000000000000000e+01 2.9998736143482891e+00 
298 299 2 1.0280000000269880e+00 5.5536018497422447e+03 1.0000000000000000e+00 9.4708761132101049e+00 1.0000000000000000e+01 3.2223172209749102e+00 
391 392 2 1.0279999999880662e+00 -1.1204238494606281e+02 1.0000000000000000e+00 1.1146045282150483e+01 1.0000000000000000e+01 2.5674247887835269e+00 
352 353 2 1.0280000000101726e+00 -2.4567885477620057e+03 1.0000000000000000e+00 1.2110962147815503e+01 1.0000000000000000e+01 3.1858206052091242e+00 
223 224 2 1.0279999999890765e+00 -2.4029977182804664e+03 1.0000000000000000e+00 1.3436454314379038e+01 1.0000000000000000e+01 2.4415041931739991e+00 
222 223 2 1.0280000000139831e+00 -7.2443516975995153e+03 1.0000000000000000e+00 1.5003682863482915e+01 1.0000000000000000e+01 2.2525917310918842e+00 
152 153 2 1.0279999999851734e+00 5.1570660663538965e+03 1.0000000000000000e+00 1.5875732472212244e+01 1.0000000000000000e+01 3.2320417065691962e+00 
154 155 2 1.0280000000020415e+00 2.1418987237815845e+03 1.0000000000000000e+00 1.8667831216453799e+01 1.0000000000000000e+01 3.5673371845282840e+00 
621 622 2 1.0280000012001915e+00 -1.5246838286558664e+03 1.0000000000000000e+00 4.4203114467276655e-01 1.3000000000000000e+01 1.9042075629131752e+00 
534 535 2 1.0280000005055185e+00 -1.8731507160004622e+02 1.0000000000000000e+00 1.3745606334740590e+00 1.3000000000000000e+01 2.7456165895933964e+00 
751 752 2 1.0279999987847890e+00 -1.5263911330520141e+03 1.0000000000000000e+00 2.8971735349924153e+00 1.3000000000000000e+01 3.0283864945536689e+00 
753 754 2 1.0279999985809898e+00 2.9839818877138021e+02 1.0000000000000000e+00 4.2351186802653755e+00 1.3000000000000000e+01 2.9800859493184939e+00 
747 748 2 1.0280000002715892e+00 -2.2430773273081149e+03 1.0000000000000000e+00 5.5257735340576355e+00 1.3000000000000000e+01 3.3193305045586938e+00 
675 676 2 1.0280000035509209e+00 2.6158166291975922e+03 1.0000000000000000e+00 7.4312742955347959e+00 1.3000000000000000e+01 1.8475991056742889e+00 
674 675 2 1.0280000009525436e+00 -4.4846676214584677e+03 1.0000000000000000e+00 7.4471221489121211e+00 1.3000000000000000e+01 3.5098227452921233e+00 
850 851 2 1.0280000008765846e+00 5.3656286013671979e+02 1.0000000000000000e+00 1.0065253370233997e+01 1.3000000000000000e+01 3.2500463708019773e+00 
892 893 2 1.0280000025798242e+00 4.0575969146783409e+03 1.0000000000000000e+00 1.1540559902840645e+01 1.3000000000000000e+01 3.0742701563209365e+00 
930 931 2 1.0280000009121419e+00 1.1646674161320877e+03 1.0000000000000000e+00 7.5294007738312840e-01 1.6000000000000000e+01 3.1445835882663307e+00 
1015 1016 2 1.0279999994666034e+00 -1.5051432573422826e+03 1.0000000000000000e+00 1.9958626788859566e+00 1.6000000000000000e+01 2.6849404409121909e+00 
1140 1141 2 1.0280000003668468e+00 3.3342517351619790e+03 1.0000000000000000e+00 3.4245353759217916e+00 1.6000000000000000e+01 2.0376733843136452e+00 
1022 1023 2 1.0279999987222237e+00 -2.3704691914272471e+03 1.0000000000000000e+00 5.6988582572102446e+00 1.6000000000000000e+01 2.7261788719952862e+00 
1106 1107 2 1.0280000007339334e+00 -3.6066174759220223e+02 1.0000000000000000e+00 7.6852460503694555e+00 1.6000000000000000e+01 3.1233814796613797e+00 
1066 1067 2 1.0279999987066990e+00 2.5838247062429923e+02 1.0000000000000000e+00 9.0537146171692804e+00 1.6000000000000000e+01 1.9316291031710084e+00 
1366 1367 2 1.0279999979788570e+00 4.3019366777982677e+03 1.0000000000000000e+00 1.0362753120331838e+01 1.6000000000000000e+01 2.8232181225769213e+00 
942 943 2 1.0280000000352674e+00 2.2492264492992664e+01 1.0000000000000000e+00 1.1891212652628409e+01 1.6000000000000000e+01 2.3019200892154301e+00 
1028 1029 2 1.0280000001411831e+00 2.1656423159484334e+03 1.0000000000000000e+00 1.4415762093384574e+01 1.6000000000000000e+01 2.4179378985419460e+00 
1067 1068 2 1.0280000006668866e+00 5.3861598629369382e+03 1.0000000000000000e+00 1.3549610516278740e+01 1.6000000000000000e+01 3.6014608328046109e+00 
1031 1032 2 1.0279999994435978e+00 2.1031329616315006e+03 1.0000000000000000e+00 1.5032035280391542e+01 1.6000000000000000e+01 3.2921289112165888e+00 
1683 1684 2 1.0279999942276312e+00 1.6505890705489533e+03 1.0000000000000000e+00 2.0687600978836551e+00 1.9000000000000000e+01 2.5164516549904041e+00 
1725 1726 2 1.0280000028797804e+00 2.3899484601679578e+03 1.0000000000000000e+00 3.2013749999166117e+00 1.9000000000000000e+01 3.1016920161804413e+00 
1730 1731 2 1.0279999694564517e+00 2.8667316109277099e+03 1.0000000000000000e+00 4.9982203102982510e+00 1.9000000000000000e+01 3.2678320193081940e+00 
1772 1773 2 1.0280000468130894e+00 1.4897799539311009e+03 1.0000000000000000e+00 5.5458390887255327e+00 1.9000000000000000e+01 1.9918884279173708e+00 
1647 1648 2 1.0279999917474949e+00 -5.4737291916516995e+02 1.0000000000000000e+00 6.6513942509359012e+00 1.9000000000000000e+01 2.9064313412096641e+00 
1696 1697 2 1.0280000025946985e+00 9.9106428444558460e+01 1.0000000000000000e+00 8.3038592168662255e+00 1.9000000000000000e+01 2.2267866359546784e+00 
1650 1651 2 1.0280000211163209e+00 -2.5140397370350087e+02 1.0000000000000000e+00 8.9860559186957207e+00 1.9000000000000000e+01 3.6031855252763747e+00 
1779 1780 2 1.0279999758782365e+00 8.9848751759672359e+02 1.0000000000000000e+00 1.0182412209387879e+01 1.9000000000000000e+01 2.8231282485857330e+00 
1693 1694 2 1.0280000011685284e+00 7.3189004872899318e+02 1.0000000000000000e+00 1.1735963942751095e+01 1.9000000000000000e+01 2.9943795458364937e+00 
1698 1699 2 1.0279999962508894e+00 -9.4029640171316794e+02 1.0000000000000000e+00 1.3172946869109738e+01 1.9000000000000000e+01 2.3608190244152429e+00 
1659 1660 2 1.0279999909689326e+00 -8.4249482225160691e+01 1.0000000000000000e+00 1.3826401332965977e+01 1.9000000000000000e+01 3.2928975354258414e+00 
199 200 2 1.0279999999828726e+00 -2.5111710044912377e+02 1.0000000000000000e+00 3.2120444547283378e-01 1.0000000000000000e+01 4.0519980178427968e+00 
325 326 2 1.0280000000104021e+00 3.8313848256492538e+03 1.0000000000000000e+00 1.1860765607675767e+00 1.0000000000000000e+01 4.9446210382116078e+00 
114 115 2 1.0280000000013676e+00 -2.7018604061441765e+03 1.0000000000000000e+00 2.9745397026409885e+00 1.0000000000000000e+01 3.8789078087668365e+00 
415 416 2 1.0279999999743432e+00 -1.5199708613353605e+03 1.0000000000000000e+00 3.3767596995429314e+00 1.0000000000000000e+01 5.4188945284203660e+00 
249 250 2 1.0280000000239293e+00 -1.3095418911566380e+03 1.0000000000000000e+00 4.9771232635771812e+00 1.0000000000000000e+01 4.7392617069564285e+00 
290 291 2 1.0279999999718650e+00 3.3013983039010182e+03 1.0000000000000000e+00 6.2216611839356251e+00 1.0000000000000000e+01 4.7527612110993740e+00 
294 295 2 1.0279999999823670e+00 1.4737883053956084e+03 1.0000000000000000e+00 8.8694099074724182e+00 1.0000000000000000e+01 4.4978035898206965e+00 
348 349 2 1.0279999999810767e+00 -1.6079269973109344e+03 1.0000000000000000e+00 1.0566240811078114e+01 1.0000000000000000e+01 4.8236816101264619e+00 
265 266 2 1.0280000000131839e+00 5.6081080372798340e+02 1.0000000000000000e+00 1.2673443873753550e+01 1.0000000000000000e+01 5.4039860111471567e+00 
312 313 2 1.0279999999946403e+00 -9.3841171108886647e+02 1.0000000000000000e+00 1.3819016877528126e+01 1.0000000000000000e+01 4.2044645588365217e+00 
65 66 2 1.0280000000078215e+00 -1.6042110336060741e+03 1.0000000000000000e+00 1.4868243192833901e+01 1.0000000000000000e+01 4.6727352022331043e+00 
281 282 2 1.0280000000037399e+00 -2.6528132164022577e+02 1.0000000000000000e+00 1.7011468763037904e+01 1.0000000000000000e+01 4.3104423092052615e+00 
361 362 2 1.0279999999947624e+00 -1.4420839469924390e+03 1.0000000000000000e+00 1.7676331854353286e+01 1.0000000000000000e+01 5.3158149736799896e+00 
155 156 2 1.0280000000005238e+00 8.2965962854992631e+02 1.0000000000000000e+00 1.9139625466794708e+01 1.0000000000000000e+01 4.3362952242660064e+00 
833 834 2 1.0279999984427062e+00 2.9250249695109524e+03 1.0000000000000000e+00 1.3498420760129863e+00 1.3000000000000000e+01 4.6241987732776222e+00 
712 713 2 1.0280000039313566e+00 2.4213000595548538e+03 1.0000000000000000e+00 3.6177566907949035e+00 1.3000000000000000e+01 4.6864010473672035e+00 
715 716 2 1.0279999989728641e+00 1.4537412605823547e+03 1.0000000000000000e+00 6.2832414837577000e+00 1.3000000000000000e+01 4.3494398646547756e+00 
561 562 2 1.0279999997270637e+00 -2.2565206073680356e+03 1.0000000000000000e+00 8.8464066413734770e+00 1.3000000000000000e+01 3.8268875639408630e+00 
517 518 2 1.0280000006545547e+00 -1.0635262527182950e+02 1.0000000000000000e+00 9.1679769572917014e+00 1.3000000000000000e+01 5.4211533801630454e+00 
644 645 2 1.0280000016718807e+00 -3.7168161023520770e+02 1.0000000000000000e+00 1.1891136517296269e+01 1.3000000000000000e+01 4.5469553626747468e+00 
1023 1024 2 1.0279999994551619e+00 -2.2587729652029820e+03 1.0000000000000000e+00 1.8322924709003602e-01 1.6000000000000000e+01 4.4979232512410157e+00 
1265 1266 2 1.0280000004262519e+00 2.8794722600092780e+02 1.0000000000000000e+00 2.9614869960746724e+00 1.6000000000000000e+01 4.1797016976177748e+00 
1013 1014 2 1.0279999987973620e+00 2.8249438557009000e+02 1.0000000000000000e+00 2.3922014212639433e+00 1.6000000000000000e+01 5.2842407003967509e+00 
1155 1156 2 1.0279999991450375e+00 2.6264138682977091e+02 1.0000000000000000e+00 4.4643347648562068e+00 1.6000000000000000e+01 4.2627988413738285e+00 
1026 1027 2 1.0280000003686280e+00 -1.3870931237255750e+03 1.0000000000000000e+00 5.7317216937434585e+00 1.6000000000000000e+01 4.2751195094055383e+00 
1277 1278 2 1.0279999993872420e+00 -4.5799384537291189e+02 1.0000000000000000e+00 7.9711423736986031e+00 1.6000000000000000e+01 4.3428179896940318e+00 
1369 1370 2 1.0279999999692233e+00 9.1642530284423742e+01 1.0000000000000000e+00 9.6350012032344949e+00 1.6000000000000000e+01 4.1890468371700491e+00 
1367 1368 2 1.0280000003963607e+00 2.0876590253885324e+03 1.0000000000000000e+00 1.0498400656730505e+01 1.6000000000000000e+01 5.1934533167974379e+00 
1365 1366 2 1.0280000009623522e+00 4.2199696472294363e+03 1.0000000000000000e+00 1.1822273736830827e+01 1.6000000000000000e+01 4.3890830996683299e+00 
944 945 2 1.0279999989143693e+00 2.1088225882116212e+03 1.0000000000000000e+00 1.2810634528272869e+01 1.6000000000000000e+01 5.0389970127109809e+00 
989 990 2 1.0280000004423009e+00 -1.6282555384518391e+03 1.0000000000000000e+00 1.4687579582739957e+01 1.6000000000000000e+01 5.3488334824652197e+00 
1729 1730 2 1.0280000180763007e+00 -1.5129515000893334e+03 1.0000000000000000e+00 9.9125831522987162e-01 1.9000000000000000e+01 3.8983793348499960e+00 
1467 1468 2 1.0280000004363838e+00 -2.2354201481521313e+03 1.0000000000000000e+00 6.7932362713623318e-01 1.9000000000000000e+01 5.3262255354259320e+00 
1773 1774 2 1.0279999844630534e+00 1.1220142838966626e+03 1.0000000000000000e+00 2.4569620951752205e+00 1.9000000000000000e+01 4.4117769171389707e+00 
1771 1772 2 1.0280000557357309e+00 -4.8957513821516761e+02 1.0000000000000000e+00 4.2988148425459860e+00 1.9000000000000000e+01 4.9095381824680544e+00 
1688 1689 2 1.0280000332361157e+00 2.3099016004648875e+03 1.0000000000000000e+00 6.3061864066959537e+00 1.9000000000000000e+01 4.3703649809353129e+00 
1727 1728 2 1.0279999798684827e+00 2.8536134189635783e+02 1.0000000000000000e+00 7.7673318167678449e+00 1.9000000000000000e+01 4.6931776382055865e+00 
1819 1820 2 1.0280000079522134e+00 2.5325582185847552e+03 1.0000000000000000e+00 1.0881999168240169e+01 1.9000000000000000e+01 4.1327431326603632e+00 
1692 1693 2 1.0280000072647977e+00 3.8609653861633615e+03 1.0000000000000000e+00 9.7684782347281764e+00 1.9000000000000000e+01 5.3396345934811178e+00 
1658 1659 2 1.0280000204361199e+00 -8.5673173125363292e+02 1.0000000000000000e+00 1.3890682504640527e+01 1.9000000000000000e+01 4.7144746441176490e+00 
203 204 2 1.0279999999953700e+00 -4.1361750025739739e+03 1.0000000000000000e+00 1.5295324837262660e+00 1.0000000000000000e+01 6.5067686821446378e+00 
198 199 2 1.0280000000164797e+00 5.2872840130012605e+02 1.0000000000000000e+00 3.3323449434620012e-01 1.0000000000000000e+01 7.1600624554709063e+00 
413 414 2 1.0280000000207070e+00 1.4344174873411880e+03 1.0000000000000000e+00 4.0656657215249048e+00 1.0000000000000000e+01 6.4757530815910540e+00 
168 169 2 1.0280000000074392e+00 -9.2325121827505063e+02 1.0000000000000000e+00 7.1148973967553770e+00 1.0000000000000000e+01 5.6801039051907454e+00 
285 286 2 1.0279999999781237e+00 -2.2305267065422122e+03 1.0000000000000000e+00 8.0281005405889605e+00 1.0000000000000000e+01 6.5637243702630785e+00 
299 300 2 1.0280000000347602e+00 -1.2030624488797243e+03 1.0000000000000000e+00 9.4788353527600382e+00 1.0000000000000000e+01 5.9512278251966677e+00 
388 389 2 1.0279999999950302e+00 5.3572069714685404e+02 1.0000000000000000e+00 1.1302025024178388e+01 1.0000000000000000e+01 5.8818846510802167e+00 
267 268 2 1.0279999999862475e+00 -7.9741332037079792e+02 1.0000000000000000e+00 1.3341495042783171e+01 1.0000000000000000e+01 6.6027502602928863e+00 
402 403 2 1.0279999999891118e+00 3.9842990053797894e+02 1.0000000000000000e+00 1.5624293724480808e+01 1.0000000000000000e+01 6.1023628652558495e+00 
359 360 2 1.0280000000089893e+00 1.9796317948736601e+03 1.0000000000000000e+00 1.6556267549786089e+01 1.0000000000000000e+01 6.4508084491081910e+00 
920 921 2 1.0280000013932240e+00 1.2443451628678656e+03 1.0000000000000000e+00 1.4934537900918350e+00 1.3000000000000000e+01 7.0306874375116282e+00 
871 872 2 1.0279999986819974e+00 1.4065327760994210e+03 1.0000000000000000e+00 2.1683536505521981e+00 1.3000000000000000e+01 5.4846733309115274e+00 
843 844 2 1.0279999987300372e+00 -2.0747290408254466e+03 1.0000000000000000e+00 4.1748667141780071e+00 1.3000000000000000e+01 5.7633638345195957e+00 
757 758 2 1.0280000020974460e+00 -9.5638208942531162e+02 1.0000000000000000e+00 3.8715082887856327e+00 1.3000000000000000e+01 7.2169215253408066e+00 
681 682 2 1.0280000037326538e+00 -8.9199501667331447e+02 1.0000000000000000e+00 7.3836189093866675e+00 1.3000000000000000e+01 5.6724925435773397e+00 
719 720 2 1.0279999997219524e+00 3.2412108195278297e+03 1.0000000000000000e+00 6.5547917765529293e+00 1.3000000000000000e+01 7.1358251875525260e+00 
679 680 2 1.0279999962825521e+00 4.2762338087885182e+03 1.0000000000000000e+00 8.0288544070248982e+00 1.3000000000000000e+01 6.7562758599181363e+00 
650 651 2 1.0279999998873512e+00 -9.8684498454022832e+02 1.0000000000000000e+00 1.0000072516091441e+01 1.3000000000000000e+01 6.3601453562673038e+00 
522 523 2 1.0280000007427084e+00 1.2902199186795242e+03 1.0000000000000000e+00 1.1682909703375666e+01 1.3000000000000000e+01 5.5987714898783212e+00 
608 609 2 1.0280000007684045e+00 1.9115954295050106e+01 1.0000000000000000e+00 1.3197809393513282e+01 1.3000000000000000e+01 6.2470304134966357e+00 
480 481 2 1.0280000008788686e+00 2.9969898938970644e+01 1.0000000000000000e+00 1.3648766153987395e+01 1.3000000000000000e+01 7.1067841975997927e+00 
1182 1183 2 1.0280000009012864e+00 -1.3539061075608060e+03 1.0000000000000000e+00 7.6860248084764959e-01 1.6000000000000000e+01 6.6994407257097066e+00 
1110 1111 2 1.0280000006976657e+00 -7.1934460047922289e+02 1.0000000000000000e+00 3.4275637999608453e+00 1.6000000000000000e+01 6.2320696232419035e+00 
1225 1226 2 1.0280000004336698e+00 -1.0280663825275979e+03 1.0000000000000000e+00 1.8910460827378182e+00 1.6000000000000000e+01 7.1532025560408492e+00 
1069 1070 2 1.0280000010575598e+00 -1.1979106926276922e+03 1.0000000000000000e+00 4.7463612526748502e+00 1.6000000000000000e+01 6.0476807031436985e+00 
1364 1365 2 1.0279999992256565e+00 2.2453723840756611e+03 1.0000000000000000e+00 6.4618226199809703e+00 1.6000000000000000e+01 5.8244849637076204e+00 
1286 1287 2 1.0279999994359017e+00 -6.7566635141344852e+02 1.0000000000000000e+00 5.9590705778706923e+00 1.6000000000000000e+01 7.1016890970329793e+00 
1280 1281 2 1.0280000012033665e+00 2.2767323695522186e+03 1.0000000000000000e+00 8.0571695626740105e+00 1.6000000000000000e+01 5.9189015928599131e+00 
1321 1322 2 1.0279999991545921e+00 4.0593696483707856e+02 1.0000000000000000e+00 9.2881733089733647e+00 1.6000000000000000e+01 6.1673131615517391e+00 
1025 1026 2 1.0279999999910121e+00 -5.2076367189962912e+02 1.0000000000000000e+00 1.2420384030523264e+01 1.6000000000000000e+01 7.2650192212978428e+00 
986 987 2 1.0280000006519199e+00 -1.8191954815057825e+03 1.0000000000000000e+00 1.3566303740844832e+01 1.6000000000000000e+01 6.7268680065252457e+00 
1076 1077 2 1.0279999989641115e+00 5.1561757162135200e+03 1.0000000000000000e+00 1.5155479815552086e+01 1.6000000000000000e+01 6.2686161054661911e+00 
1766 1767 2 1.0279999755448872e+00 5.6737852718355816e+03 1.0000000000000000e+00 9.6993519925387417e-01 1.9000000000000000e+01 7.1535055784582307e+00 
1425 1426 2 1.0280000136686516e+00 -4.7304978651115556e+02 1.0000000000000000e+00 2.0692342841992843e+00 1.9000000000000000e+01 6.0546527161790760e+00 
1689 1690 2 1.0279999886527491e+00 6.5097296830939854e+02 1.0000000000000000e+00 3.5809231017465502e+00 1.9000000000000000e+01 6.1497694231942113e+00 
1815 1816 2 1.0279999488542191e+00 2.7392238319217671e+02 1.0000000000000000e+00 5.3072370061673970e+00 1.9000000000000000e+01 5.9136196843773030e+00 
1521 1522 2 1.0280000396190183e+00 6.6225285201886993e+02 1.0000000000000000e+00 7.2383323935679416e+00 1.9000000000000000e+01 6.0631776619102276e+00 
1475 1476 2 1.0279999845126928e+00 2.7620939929755110e+02 1.0000000000000000e+00 9.0073119837335902e+00 1.9000000000000000e+01 6.1194699891371629e+00 
1656 1657 2 1.0280000360719663e+00 -7.0730116945669113e+02 1.0000000000000000e+00 1.2037854956868600e+01 1.9000000000000000e+01 5.7882100577945783e+00 
1566 1567 2 1.0279999719779549e+00 -2.5820125656572071e+02 1.0000000000000000e+00 1.1416731744038845e+01 1.9000000000000000e+01 6.8310859387891307e+00 
1733 1734 2 1.0279999718621380e+00 -2.3264124233456255e+02 1.0000000000000000e+00 1.3438392162414496e+01 1.9000000000000000e+01 5.7536312793252877e+00 
72 73 2 1.0279999999894815e+00 -1.8536546764663962e+02 1.0000000000000000e+00 2.8219427845934481e-01 1.0000000000000000e+01 8.8397658882261165e+00 
376 377 2 1.0280000000073783e+00 2.5029349867853748e+03 1.0000000000000000e+00 2.7758027877335523e+00 1.0000000000000000e+01 7.2772326010940009e+00 
289 290 2 1.0279999999760994e+00 -1.5220589416581965e+03 1.0000000000000000e+00 3.9487142253959324e+00 1.0000000000000000e+01 8.2297130851483722e+00 
291 292 2 1.0280000000171035e+00 2.9887522178548267e+02 1.0000000000000000e+00 5.3530825958159989e+00 1.0000000000000000e+01 8.6152283051034697e+00 
250 251 2 1.0280000000135867e+00 2.4186552202483108e+03 1.0000000000000000e+00 6.7280668040826788e+00 1.0000000000000000e+01 8.2054718321878113e+00 
383 384 2 1.0279999999934026e+00 -2.7331122536910630e+02 1.0000000000000000e+00 9.1541244536225239e+00 1.0000000000000000e+01 7.7518392739664641e+00 
99 100 2 1.0279999999943747e+00 -2.2599192590312678e+03 1.0000000000000000e+00 1.0391281600126939e+01 1.0000000000000000e+01 8.0758804047422910e+00 
430 431 2 1.0280000000058716e+00 4.0561446204456224e+03 1.0000000000000000e+00 1.2480203150907583e+01 1.0000000000000000e+01 7.5353702670022145e+00 
55 56 2 1.0280000000013445e+00 -1.0631328621722568e+02 1.0000000000000000e+00 1.1298385305840021e+01 1.0000000000000000e+01 9.0066513162595143e+00 
347 348 2 1.0280000000004852e+00 -2.2911430494525735e+02 1.0000000000000000e+00 1.4544638931924025e+01 1.0000000000000000e+01 8.2996725854788043e+00 
307 308 2 1.0279999999974196e+00 7.3322605246544413e+02 1.0000000000000000e+00 1.3477826305479498e+01 1.0000000000000000e+01 8.6482552632218699e+00 
153 154 2 1.0280000000000000e+00 2.9684623022768687e+02 1.0000000000000000e+00 2.1394443019734243e+01 1.0000000000000000e+01 7.2887099176555976e+00 
193 194 2 1.0280000000000000e+00 -7.3537400253933538e+02 1.0000000000000000e+00 2.2057782024420792e+01 1.0000000000000000e+01 7.5345231411372904e+00 
880 881 2 1.0279999981645846e+00 -2.0612614997865612e+03 1.0000000000000000e+00 2.0703981952961650e+00 1.3000000000000000e+01 7.9770107835132436e+00 
718 719 2 1.0279999979523438e+00 7.0776436325587133e+02 1.0000000000000000e+00 4.9861295121862339e+00 1.3000000000000000e+01 7.4501080450369859e+00 
764 765 2 1.0280000051034148e+00 2.3119483126304076e+03 1.0000000000000000e+00 6.6844917656943670e+00 1.3000000000000000e+01 8.6492975590987182e+00 
809 810 2 1.0280000028046283e+00 -2.3004102595444914e+02 1.0000000000000000e+00 8.9332134007889188e+00 1.3000000000000000e+01 8.9585704069081942e+00 
482 483 2 1.0280000008067030e+00 2.1107991568439643e+03 1.0000000000000000e+00 1.0059239343411768e+01 1.3000000000000000e+01 7.8790051788528368e+00 
903 904 2 1.0279999986858372e+00 4.2105843864421659e+03 1.0000000000000000e+00 1.1434488692639313e+01 1.3000000000000000e+01 7.7847128024825771e+00 
907 908 2 1.0280000016169284e+00 9.2799956809836786e+01 1.0000000000000000e+00 1.1898350824115738e+01 1.3000000000000000e+01 8.9231656836716198e+00 
566 567 2 1.0280000033238625e+00 2.1828559254444826e+03 1.0000000000000000e+00 1.4015721130715619e+01 1.3000000000000000e+01 8.6756881096725689e+00 
1279 1280 2 1.0279999984396186e+00 -2.6049882887368522e+03 1.0000000000000000e+00 7.9302739243663337e-02 1.6000000000000000e+01 7.9729216836149810e+00 
1108 1109 2 1.0279999998867240e+00 -6.7851585846751800e+02 1.0000000000000000e+00 2.9596952727281538e+00 1.6000000000000000e+01 8.4367225422772609e+00 
1152 1153 2 1.0280000005706409e+00 -5.7803680634088801e+02 1.0000000000000000e+00 4.4163842697071072e+00 1.6000000000000000e+01 8.9655610743096350e+00 
1278 1279 2 1.0280000016339550e+00 -1.5072707413341964e+03 1.0000000000000000e+00 7.2592806819228022e+00 1.6000000000000000e+01 8.1310744897702332e+00 
1193 1194 2 1.0279999991425288e+00 -8.6251861195241622e+02 1.0000000000000000e+00 6.1048053207975475e+00 1.6000000000000000e+01 8.8213669428781820e+00 
1190 1191 2 1.0279999998345537e+00 -3.3446523390522509e+02 1.0000000000000000e+00 8.5690929517120935e+00 1.6000000000000000e+01 8.6777546920186950e+00 
1064 1065 2 1.0280000006508270e+00 9.1647197063025010e+02 1.0000000000000000e+00 9.5901802776413216e+00 1.6000000000000000e+01 7.9073718018591848e+00 
1065 1066 2 1.0280000006702827e+00 2.0669840898314937e+03 1.0000000000000000e+00 1.1063281171204558e+01 1.6000000000000000e+01 7.3602099736786579e+00 
941 942 2 1.0279999996476401e+00 1.9980740876984889e+03 1.0000000000000000e+00 1.1164793734691111e+01 1.6000000000000000e+01 8.8693365697553812e+00 
990 991 2 1.0280000000068115e+00 5.2651603307578239e+02 1.0000000000000000e+00 1.4830536882253099e+01 1.6000000000000000e+01 8.2539035920898733e+00 