LAMMPS data file via write_data, version 30 Jul 2016, timestep = 100400000

631 atoms
8 atom types

0.0000000000000000e+00 2.0000000000000000e+01 xlo xhi
0.0000000000000000e+00 2.0000000000000000e+01 ylo yhi
0.0000000000000000e+00 2.0000000000000000e+01 zlo zhi

Masses

1 3.896
2 5.36
3 20.064
4 8.378
5 8.378
6 8.378
7 8.378
8 8.378

Atoms # meso-molecular

1 2 4 2.6344617151905663e+00 -1.5539474063079151e+01 1.0000000000000000e+00 0.0000000000000000e+00 0.0000000000000000e+00 5.0000000000000000e-01 
2 2 4 3.0129510708494869e+00 -3.3361425168329561e+01 1.0000000000000000e+00 0.0000000000000000e+00 1.2000000000000000e+00 5.0000000000000000e-01 
3 2 4 3.0129510708494869e+00 -8.6330009544953086e+00 1.0000000000000000e+00 0.0000000000000000e+00 2.3999999999999999e+00 5.0000000000000000e-01 
18 2 4 2.6344617151905663e+00 -2.9428726506442052e+02 1.0000000000000000e+00 2.0000000000000000e+00 0.0000000000000000e+00 5.0000000000000000e-01 
19 2 4 3.0129510708494869e+00 -1.0112250089173339e+03 1.0000000000000000e+00 2.0000000000000000e+00 1.2000000000000000e+00 5.0000000000000000e-01 
20 2 4 3.0129510708494869e+00 -1.1450499835888959e+03 1.0000000000000000e+00 2.0000000000000000e+00 2.3999999999999999e+00 5.0000000000000000e-01 
35 2 4 2.6344617151905663e+00 -7.5792281979980476e+02 1.0000000000000000e+00 4.0000000000000000e+00 0.0000000000000000e+00 5.0000000000000000e-01 
36 2 4 3.0129510708494869e+00 -2.9441357179541533e+03 1.0000000000000000e+00 4.0000000000000000e+00 1.2000000000000000e+00 5.0000000000000000e-01 
37 2 4 3.0129510708494869e+00 -3.6218873803672068e+03 1.0000000000000000e+00 4.0000000000000000e+00 2.3999999999999999e+00 5.0000000000000000e-01 
52 2 4 2.6344617151905663e+00 -7.9315683875336549e+02 1.0000000000000000e+00 6.0000000000000000e+00 0.0000000000000000e+00 5.0000000000000000e-01 
53 2 4 3.0129510708494869e+00 -3.2889224508241250e+03 1.0000000000000000e+00 6.0000000000000000e+00 1.2000000000000000e+00 5.0000000000000000e-01 
54 2 4 3.0129510708494869e+00 -4.1359391643101717e+03 1.0000000000000000e+00 6.0000000000000000e+00 2.3999999999999999e+00 5.0000000000000000e-01 
4 2 4 3.0129510708494873e+00 -3.7946988949716093e+01 1.0000000000000000e+00 0.0000000000000000e+00 3.6000000000000001e+00 5.0000000000000000e-01 
5 2 4 3.0129510708494873e+00 -3.0281614577399210e+01 1.0000000000000000e+00 0.0000000000000000e+00 4.7999999999999998e+00 5.0000000000000000e-01 
6 2 4 3.0129510708494869e+00 -1.0088465028269324e+01 1.0000000000000000e+00 0.0000000000000000e+00 6.0000000000000000e+00 5.0000000000000000e-01 
21 2 4 3.0129510708494873e+00 -1.2069483886792877e+03 1.0000000000000000e+00 2.0000000000000000e+00 3.6000000000000001e+00 5.0000000000000000e-01 
22 2 4 3.0129510708494873e+00 -1.2233513939247957e+03 1.0000000000000000e+00 2.0000000000000000e+00 4.7999999999999998e+00 5.0000000000000000e-01 
23 2 4 3.0129510708494869e+00 -1.1639109500879704e+03 1.0000000000000000e+00 2.0000000000000000e+00 6.0000000000000000e+00 5.0000000000000000e-01 
38 2 4 3.0129510708494873e+00 -3.7057167477535800e+03 1.0000000000000000e+00 4.0000000000000000e+00 3.6000000000000001e+00 5.0000000000000000e-01 
39 2 4 3.0129510708494873e+00 -3.7100632140503767e+03 1.0000000000000000e+00 4.0000000000000000e+00 4.7999999999999998e+00 5.0000000000000000e-01 
40 2 4 3.0129510708494869e+00 -3.6693566394541594e+03 1.0000000000000000e+00 4.0000000000000000e+00 6.0000000000000000e+00 5.0000000000000000e-01 
55 2 4 3.0129510708494873e+00 -4.1338811489301006e+03 1.0000000000000000e+00 6.0000000000000000e+00 3.6000000000000001e+00 5.0000000000000000e-01 
56 2 4 3.0129510708494873e+00 -4.1495624419965352e+03 1.0000000000000000e+00 6.0000000000000000e+00 4.7999999999999998e+00 5.0000000000000000e-01 
57 2 4 3.0129510708494869e+00 -4.1864885993609387e+03 1.0000000000000000e+00 6.0000000000000000e+00 6.0000000000000000e+00 5.0000000000000000e-01 
7 2 4 3.0129510708494869e+00 -4.0207367263973616e+01 1.0000000000000000e+00 0.0000000000000000e+00 7.2000000000000002e+00 5.0000000000000000e-01 
8 2 4 3.0129510708494878e+00 -2.6310959305428586e+01 1.0000000000000000e+00 0.0000000000000000e+00 8.4000000000000004e+00 5.0000000000000000e-01 
9 2 4 3.0129510708494864e+00 -1.2644239745139835e+01 1.0000000000000000e+00 0.0000000000000000e+00 9.5999999999999996e+00 5.0000000000000000e-01 
24 2 4 3.0129510708494869e+00 -1.2182308808290027e+03 1.0000000000000000e+00 2.0000000000000000e+00 7.2000000000000002e+00 5.0000000000000000e-01 
25 2 4 3.0129510708500495e+00 -1.2145216600945384e+03 1.0000000000000000e+00 2.0000000000000000e+00 8.4000000000000004e+00 5.0000000000000000e-01 
26 2 4 3.0129510708494864e+00 -1.1618642108375359e+03 1.0000000000000000e+00 2.0000000000000000e+00 9.5999999999999996e+00 5.0000000000000000e-01 
41 2 4 3.0129510708494869e+00 -3.7194459570284907e+03 1.0000000000000000e+00 4.0000000000000000e+00 7.2000000000000002e+00 5.0000000000000000e-01 
42 2 4 3.0129510708494878e+00 -3.7004831219071170e+03 1.0000000000000000e+00 4.0000000000000000e+00 8.4000000000000004e+00 5.0000000000000000e-01 
43 2 4 3.0129510708494864e+00 -3.6670862236166799e+03 1.0000000000000000e+00 4.0000000000000000e+00 9.5999999999999996e+00 5.0000000000000000e-01 
58 2 4 3.0129510708494869e+00 -4.1384846259391625e+03 1.0000000000000000e+00 6.0000000000000000e+00 7.2000000000000002e+00 5.0000000000000000e-01 
59 2 4 3.0129510708494878e+00 -4.1528425794936566e+03 1.0000000000000000e+00 6.0000000000000000e+00 8.4000000000000004e+00 5.0000000000000000e-01 
60 2 4 3.0129510708494864e+00 -4.1780328980348877e+03 1.0000000000000000e+00 6.0000000000000000e+00 9.5999999999999996e+00 5.0000000000000000e-01 
440 2 1 1.0280005881672760e+00 -2.7721245299612818e+01 1.0000000000000000e+00 3.1039544899592291e+00 5.1801587724890563e+00 5.5352001247930493e+00 
636 2 1 1.0279966657533166e+00 -2.3728767023674436e+01 1.0000000000000000e+00 3.5773781192378844e+00 4.9704002224420849e+00 4.4938418922942880e+00 
351 2 1 1.0279999129611799e+00 -5.5910791978637207e+01 1.0000000000000000e+00 3.6876215412101541e+00 4.8527140173909116e+00 4.5051553699197875e+00 
299 2 1 1.0279984054440423e+00 -4.7709643924111379e+02 1.0000000000000000e+00 3.6547516166926313e+00 4.8735912950471025e+00 4.5083842523777742e+00 
584 2 1 1.0279969126468567e+00 -3.8951709488190424e+01 1.0000000000000000e+00 3.5571217820050287e+00 4.9541534515747596e+00 4.5165208267774846e+00 
778 2 1 1.0279908346358460e+00 -8.1191865594238788e+00 1.0000000000000000e+00 4.9169074964139634e+00 4.8744215578968149e+00 4.4306251078956187e+00 
612 2 1 1.0280005489639192e+00 -3.9763072138799437e+01 1.0000000000000000e+00 5.1862425920231976e+00 4.9912477934489790e+00 4.4214530078375027e+00 
515 2 1 1.0280223732663292e+00 -2.0335843916380103e+01 1.0000000000000000e+00 6.6068079428916588e+00 4.7387773511014215e+00 4.4894730930531326e+00 
634 2 1 1.0280070950614728e+00 -3.4379350466682141e+01 1.0000000000000000e+00 3.7914837661339060e+00 4.5922901452001810e+00 6.4328962040476503e+00 
673 2 1 1.0279800451368495e+00 -2.9846617344364468e+01 1.0000000000000000e+00 5.8992149796299653e+00 5.8701930378954019e+00 4.5488761572665144e+00 
496 2 1 1.0279926160260766e+00 -5.9487185493725924e+01 1.0000000000000000e+00 6.1400347293382849e+00 4.1946450082466278e+00 6.5871263957865160e+00 
606 2 1 1.0280016937823708e+00 -3.7302690843976578e+01 1.0000000000000000e+00 3.6421767277735451e+00 4.8010064206306584e+00 6.4946736692051177e+00 
593 2 1 1.0280649554457593e+00 -2.6541650768335391e+01 1.0000000000000000e+00 5.5049691656525317e+00 6.6126495431506331e+00 5.4810585544863475e+00 
397 2 1 1.0279928133912151e+00 -4.8651725502645554e+01 1.0000000000000000e+00 3.5939000023898746e+00 5.2932496367155073e+00 6.6531332782019836e+00 
659 2 1 1.0280212572119540e+00 -4.4773865524826846e+01 1.0000000000000000e+00 2.3097625842538405e+00 8.5547109295287314e+00 4.4820992708519771e+00 
670 2 1 1.0280053443687236e+00 -1.2154893009914735e+01 1.0000000000000000e+00 2.6360289407851911e+00 7.9432734121188737e+00 4.4830969154384475e+00 
735 2 1 1.0280071181706694e+00 -5.6133239005282029e+01 1.0000000000000000e+00 1.8209119288973903e+00 9.8939497560123222e+00 4.8139435552077190e+00 
800 2 1 1.0280020719048373e+00 9.5789101407985449e+00 1.0000000000000000e+00 2.5735491928276391e+00 7.9353427562263192e+00 4.5793667379273941e+00 
394 2 1 1.0280092001043459e+00 -4.5825658332154234e+01 1.0000000000000000e+00 1.5268498767066225e+00 9.7690164045111505e+00 5.8754014674907671e+00 
679 2 1 1.0280094124363206e+00 -2.5380107748142507e+01 1.0000000000000000e+00 1.5825277225421284e+00 9.7807497791878202e+00 6.0942709313138748e+00 
423 2 1 1.0280044469172531e+00 -4.4222436085982075e+01 1.0000000000000000e+00 2.7801244786838772e+00 7.5729071361381113e+00 4.7423019051295716e+00 
756 2 1 1.0280544027267637e+00 3.2951867363693381e+00 1.0000000000000000e+00 3.1836446500277025e+00 7.1867779148852087e+00 4.5138255857000962e+00 
588 2 1 1.0279702220140241e+00 -2.7138445192657016e+01 1.0000000000000000e+00 2.3385103533621630e+00 9.1798469003944696e+00 6.5768348220901043e+00 
405 2 1 1.0280449368486695e+00 -2.2330574013910386e+01 1.0000000000000000e+00 3.1967918616219153e+00 6.9193563230193522e+00 4.6071139813376645e+00 
471 2 1 1.0279916225401453e+00 -6.5769055788287460e+01 1.0000000000000000e+00 1.9998013624409248e+00 9.8293286472024430e+00 6.6415794807087574e+00 
321 2 1 1.0280032913781454e+00 -4.5583251360102946e+02 1.0000000000000000e+00 4.2947191911669469e+00 8.7800260164526271e+00 4.4990383904976472e+00 
290 2 1 1.0280002142655618e+00 -4.5191792279727014e+02 1.0000000000000000e+00 4.3482922845398493e+00 8.5809063038635287e+00 4.5035794464148475e+00 
329 2 1 1.0279954903938453e+00 -2.6343435261450577e+02 1.0000000000000000e+00 4.2723941620875836e+00 8.9057808227812139e+00 4.5155593668147276e+00 
565 2 1 1.0277216158856732e+00 -1.6787532190364363e+01 1.0000000000000000e+00 4.8251608767579803e+00 7.7077837013728487e+00 5.7042489282773516e+00 
656 2 1 1.0281602746484158e+00 -4.9766629573110571e+01 1.0000000000000000e+00 6.3994889242659907e+00 6.8962157449045476e+00 5.2775933765720664e+00 
628 2 1 1.0280003505902162e+00 -1.0766230597173960e+01 1.0000000000000000e+00 3.9886988396715806e+00 4.6934646620468419e+00 6.7973740136179170e+00 
597 2 1 1.0280174379083111e+00 -3.0276488809812960e+01 1.0000000000000000e+00 4.7158900386190172e+00 4.7434945336333056e+00 7.4329441842380071e+00 
752 2 1 1.0280224730851131e+00 -2.0617078166658533e+01 1.0000000000000000e+00 5.9985797273062547e+00 5.2446377096068773e+00 8.1521844164284314e+00 
662 2 1 1.0280169956742222e+00 -3.4677000390490548e+01 1.0000000000000000e+00 6.0757886242290864e+00 5.3321766776818667e+00 8.2087681310197045e+00 
641 2 1 1.0280130340959186e+00 -3.7030867069077061e+01 1.0000000000000000e+00 5.8092800014295083e+00 4.3098245618170807e+00 6.8551246165109943e+00 
743 2 1 1.0279820970156861e+00 -7.4145614256095671e+00 1.0000000000000000e+00 4.3560814392743827e+00 6.3530856834807450e+00 8.1257538968589476e+00 
463 2 1 1.0279791715189266e+00 -3.5197619099957038e+01 1.0000000000000000e+00 4.3481245010878906e+00 6.3915651957669821e+00 8.1382831798760602e+00 
487 2 1 1.0279813797145172e+00 -3.9556794683926171e+01 1.0000000000000000e+00 4.2953455766591535e+00 6.5558563865136712e+00 8.1438498921002971e+00 
462 2 1 1.0280213214176583e+00 -2.4106324871473500e+01 1.0000000000000000e+00 6.4699526706560899e+00 5.0695392398881207e+00 7.7215270987789566e+00 
672 2 1 1.0279775434214844e+00 -1.9451907986407679e+01 1.0000000000000000e+00 2.3575047415721042e+00 9.9568297928098684e+00 6.8445968017878736e+00 
798 2 1 1.0278491680384243e+00 1.6381259241642685e+01 1.0000000000000000e+00 6.5209617137650859e+00 8.4750742834288761e+00 7.9138473131337799e+00 
805 2 1 1.0279679160738673e+00 -2.0838702321704510e+01 1.0000000000000000e+00 4.3819177915589167e+00 9.7059659462195089e+00 9.0253017516830809e+00 
352 2 1 1.0279799359582424e+00 -3.0880618782367716e+01 1.0000000000000000e+00 3.9061093196650782e+00 7.8778920838273789e+00 9.3320864178915244e+00 
620 2 1 1.0279770633010206e+00 -3.1070376508765349e+01 1.0000000000000000e+00 3.8811922278195712e+00 7.6662366445527264e+00 9.0819170986216999e+00 
427 2 1 1.0277465792610465e+00 -3.2396885177443487e+01 1.0000000000000000e+00 4.3876796715564783e+00 9.4137074152350788e+00 6.8900536506219066e+00 
426 2 1 1.0288126949676937e+00 -3.3593409488117594e+01 1.0000000000000000e+00 4.3625731846326730e+00 8.9459183546663414e+00 7.0035584529370620e+00 
466 2 1 1.0277478527318391e+00 -4.3325231851743936e+01 1.0000000000000000e+00 4.4140988493053843e+00 8.5128715107026576e+00 7.0419265274108138e+00 
660 2 1 1.0278336434274957e+00 -5.7175432170523280e+01 1.0000000000000000e+00 6.3708859251656342e+00 9.6169884265311065e+00 7.5742786548325620e+00 
615 2 1 1.0280715885666318e+00 -2.2791514714551287e+01 1.0000000000000000e+00 4.8121539761618015e+00 7.6898781121189836e+00 7.0280127775552756e+00 
285 2 1 1.0279816598871854e+00 -4.7844568693606584e+02 1.0000000000000000e+00 3.9130564356623556e+00 8.0541565600577876e+00 9.4227635237914367e+00 
811 2 1 1.0279922841806670e+00 -5.2920651947307420e+01 1.0000000000000000e+00 4.1753606775447381e+00 8.8922882831204735e+00 9.5660851362464729e+00 
650 2 1 1.0280025703694968e+00 -5.0773390964994206e+01 1.0000000000000000e+00 4.6034481007481824e+00 9.7305801600663937e+00 9.2948360539061365e+00 
353 2 1 1.0279921232406783e+00 -4.5335950135562413e+01 1.0000000000000000e+00 4.1504711888123120e+00 8.8209620340494368e+00 9.5814616125198544e+00 
617 2 1 1.0280968179877554e+00 -3.5612726002828794e+01 1.0000000000000000e+00 6.4532352897923762e+00 7.0457158747336743e+00 7.0915587435086564e+00 
372 2 1 1.0280133530941200e+00 -4.6501377774915724e+01 1.0000000000000000e+00 6.3291439675223833e+00 6.8571542767340983e+00 9.7846822822432724e+00 
409 2 1 1.0280129207131599e+00 -6.5292423934085733e+01 1.0000000000000000e+00 6.3394348863722882e+00 6.8629171289650968e+00 9.7878220441683403e+00 
727 2 1 1.0280132759431853e+00 -4.8254962758733356e+01 1.0000000000000000e+00 6.3994874958850492e+00 6.9631735743541459e+00 9.8549534018668403e+00 
519 2 1 1.0278735300395678e+00 -1.9282489743998827e+01 1.0000000000000000e+00 6.4650104165257423e+00 9.4386711047961231e+00 7.0532238367790754e+00 
736 2 1 1.0280259273073784e+00 -7.2954369119345301e+01 1.0000000000000000e+00 5.6115249038427013e+00 9.8766321740672680e+00 9.9548760700271881e+00 
553 2 1 1.0280181360437717e+00 -1.6527760133407511e+01 1.0000000000000000e+00 4.7614943236167404e+00 7.9868674540691726e+00 1.0022584831906130e+01 
10 2 4 3.0129510708494864e+00 -4.1691195434196175e+01 1.0000000000000000e+00 0.0000000000000000e+00 1.0800000000000001e+01 5.0000000000000000e-01 
11 2 4 3.0129510708494887e+00 -2.2162982911090563e+01 1.0000000000000000e+00 0.0000000000000000e+00 1.2000000000000000e+01 5.0000000000000000e-01 
12 2 4 3.0129510708494864e+00 -1.6086997534085359e+01 1.0000000000000000e+00 0.0000000000000000e+00 1.3199999999999999e+01 5.0000000000000000e-01 
27 2 4 3.0129510708494864e+00 -1.2277247142573660e+03 1.0000000000000000e+00 2.0000000000000000e+00 1.0800000000000001e+01 5.0000000000000000e-01 
28 2 4 3.0129510708494887e+00 -1.2053751838892431e+03 1.0000000000000000e+00 2.0000000000000000e+00 1.2000000000000000e+01 5.0000000000000000e-01 
29 2 4 3.0129510708494864e+00 -1.1619171427300680e+03 1.0000000000000000e+00 2.0000000000000000e+00 1.3199999999999999e+01 5.0000000000000000e-01 
44 2 4 3.0129510708494864e+00 -3.7298341164978683e+03 1.0000000000000000e+00 4.0000000000000000e+00 1.0800000000000001e+01 5.0000000000000000e-01 
45 2 4 3.0129510708494887e+00 -3.6925435558603581e+03 1.0000000000000000e+00 4.0000000000000000e+00 1.2000000000000000e+01 5.0000000000000000e-01 
46 2 4 3.0129510708494864e+00 -3.6656445905924888e+03 1.0000000000000000e+00 4.0000000000000000e+00 1.3199999999999999e+01 5.0000000000000000e-01 
61 2 4 3.0129510708494864e+00 -4.1417257510379959e+03 1.0000000000000000e+00 6.0000000000000000e+00 1.0800000000000001e+01 5.0000000000000000e-01 
62 2 4 3.0129510708494887e+00 -4.1585813336591918e+03 1.0000000000000000e+00 6.0000000000000000e+00 1.2000000000000000e+01 5.0000000000000000e-01 
63 2 4 3.0129510708494864e+00 -4.1674807237338800e+03 1.0000000000000000e+00 6.0000000000000000e+00 1.3199999999999999e+01 5.0000000000000000e-01 
13 2 4 3.0129510708494864e+00 -4.2336690728561862e+01 1.0000000000000000e+00 0.0000000000000000e+00 1.4400000000000000e+01 5.0000000000000000e-01 
14 2 4 3.0129510708494864e+00 -1.8030322926181512e+01 1.0000000000000000e+00 0.0000000000000000e+00 1.5600000000000000e+01 5.0000000000000000e-01 
30 2 4 3.0129510708494864e+00 -1.2350009977899381e+03 1.0000000000000000e+00 2.0000000000000000e+00 1.4400000000000000e+01 5.0000000000000000e-01 
31 2 4 3.0129510708494864e+00 -1.1967140395767692e+03 1.0000000000000000e+00 2.0000000000000000e+00 1.5600000000000000e+01 5.0000000000000000e-01 
47 2 4 3.0129510708494864e+00 -3.7366764620337349e+03 1.0000000000000000e+00 4.0000000000000000e+00 1.4400000000000000e+01 5.0000000000000000e-01 
48 2 4 3.0129510708494864e+00 -3.6869882077871562e+03 1.0000000000000000e+00 4.0000000000000000e+00 1.5600000000000000e+01 5.0000000000000000e-01 
64 2 4 3.0129510708494864e+00 -4.1441492378513976e+03 1.0000000000000000e+00 6.0000000000000000e+00 1.4400000000000000e+01 5.0000000000000000e-01 
65 2 4 3.0129510708494864e+00 -4.1666016041198736e+03 1.0000000000000000e+00 6.0000000000000000e+00 1.5600000000000000e+01 5.0000000000000000e-01 
15 2 4 3.0129510708494864e+00 -2.0094891491445576e+01 1.0000000000000000e+00 0.0000000000000000e+00 1.6800000000000001e+01 5.0000000000000000e-01 
16 2 4 3.0129510708494887e+00 -4.2059400418886483e+01 1.0000000000000000e+00 0.0000000000000000e+00 1.8000000000000000e+01 5.0000000000000000e-01 
17 2 4 2.6344617151905672e+00 -7.1024195826123524e+00 1.0000000000000000e+00 0.0000000000000000e+00 1.9199999999999999e+01 5.0000000000000000e-01 
32 2 4 3.0129510708494864e+00 -1.1638625253574407e+03 1.0000000000000000e+00 2.0000000000000000e+00 1.6800000000000001e+01 5.0000000000000000e-01 
33 2 4 3.0129510708494887e+00 -1.1861207731713530e+03 1.0000000000000000e+00 2.0000000000000000e+00 1.8000000000000000e+01 5.0000000000000000e-01 
34 2 4 2.6344617151905672e+00 -3.8946442064346923e+02 1.0000000000000000e+00 2.0000000000000000e+00 1.9199999999999999e+01 5.0000000000000000e-01 
49 2 4 3.0129510708495699e+00 -3.6535044365463536e+03 1.0000000000000000e+00 4.0000000000000000e+00 1.6800000000000001e+01 5.0000000000000000e-01 
50 2 4 3.0129510708494887e+00 -3.4027435866730193e+03 1.0000000000000000e+00 4.0000000000000000e+00 1.8000000000000000e+01 5.0000000000000000e-01 
51 2 4 2.6344617151905672e+00 -1.0887738496580378e+03 1.0000000000000000e+00 4.0000000000000000e+00 1.9199999999999999e+01 5.0000000000000000e-01 
66 2 4 3.0129510708494864e+00 -4.1429112213629178e+03 1.0000000000000000e+00 6.0000000000000000e+00 1.6800000000000001e+01 5.0000000000000000e-01 
67 2 4 3.0129510708494887e+00 -3.7597474865836548e+03 1.0000000000000000e+00 6.0000000000000000e+00 1.8000000000000000e+01 5.0000000000000000e-01 
68 2 4 2.6344617151905672e+00 -1.2245493213781247e+03 1.0000000000000000e+00 6.0000000000000000e+00 1.9199999999999999e+01 5.0000000000000000e-01 
733 2 1 1.0280030964191835e+00 -6.5799788608701604e+01 1.0000000000000000e+00 9.4858709145287112e-01 1.2990241999272085e+01 4.4215461272861400e+00 
753 2 1 1.0280025408605200e+00 2.0479454607186653e+00 1.0000000000000000e+00 9.5034719543727930e-01 1.3039554384000613e+01 4.3949531383478062e+00 
591 2 1 1.0280033514401012e+00 -4.7069224422882030e+01 1.0000000000000000e+00 9.5178316469574065e-01 1.3030031019568515e+01 4.3903893587446738e+00 
526 2 1 1.0280060171541623e+00 -2.0374857617331600e+01 1.0000000000000000e+00 1.1137635902335794e+00 1.2510412612864585e+01 4.3978729278714370e+00 
348 2 1 1.0280023966663170e+00 -3.4299248093127339e+01 1.0000000000000000e+00 9.5663529897737232e-01 1.2969756454446182e+01 4.3909907706725697e+00 
676 2 1 1.0280153200384126e+00 -1.0234259790115837e+01 1.0000000000000000e+00 1.8111396735909986e+00 1.1391890299869877e+01 4.6738094486506103e+00 
393 2 1 1.0280099798324986e+00 -3.8441631424900095e+01 1.0000000000000000e+00 1.5035954919149246e+00 1.1810071635860446e+01 4.7630042951809948e+00 
488 2 1 1.0279879066966404e+00 -2.8554323753130106e+01 1.0000000000000000e+00 3.0442386702503290e+00 1.0184864934304469e+01 4.3713219879531087e+00 
257 2 1 1.0279567717429332e+00 -4.7802394720703535e+02 1.0000000000000000e+00 3.1197069238232258e+00 1.1687749268913342e+01 4.5651504914224788e+00 
255 2 1 1.0279984133590683e+00 -4.5969257849031766e+02 1.0000000000000000e+00 1.9472078990873958e+00 1.0099703859762400e+01 6.6149494893423819e+00 
470 2 1 1.0279953788778575e+00 -2.7748843976971653e+01 1.0000000000000000e+00 3.4472966505437199e+00 1.0295949251741808e+01 4.4842936796798547e+00 
669 2 1 1.0279863486735179e+00 -3.0488292067427174e+01 1.0000000000000000e+00 4.9900239395777719e+00 1.2165246269555883e+01 4.4078447100556284e+00 
629 2 1 1.0280077249027111e+00 -2.2170442348585805e+01 1.0000000000000000e+00 6.2296410217185727e+00 1.3229995907528137e+01 4.6001934505122630e+00 
794 2 1 1.0279795794692717e+00 -1.5202281981993920e+01 1.0000000000000000e+00 4.5170330971616579e+00 1.1799700584279064e+01 4.5385479176367083e+00 
809 2 1 1.0279938358793281e+00 -5.8844015080151379e+01 1.0000000000000000e+00 5.8225961341553898e+00 1.2649911820115125e+01 4.4742869212558780e+00 
269 2 1 1.0280105752926125e+00 -4.5378231821073746e+02 1.0000000000000000e+00 5.9141443149844948e+00 1.2557820247250371e+01 4.4977008300796006e+00 
420 2 1 1.0279454444077751e+00 -3.2633047131320666e+01 1.0000000000000000e+00 4.2112121710929751e+00 1.2619329079492765e+01 4.4566654030401001e+00 
418 2 1 1.0280796125472742e+00 -4.0564992390395524e+01 1.0000000000000000e+00 4.5595872394770414e+00 1.0959981608191390e+01 5.0992485069999631e+00 
367 2 1 1.0280082974274356e+00 -5.3954187603913319e+01 1.0000000000000000e+00 5.8194478827322795e+00 1.2569234911085195e+01 4.4749231497120876e+00 
694 2 1 1.0283915105540760e+00 -3.7159981196872934e+01 1.0000000000000000e+00 6.5917255901915572e+00 1.0541378925540384e+01 5.8447152633717510e+00 
566 2 1 1.0283968207301468e+00 -3.6372495259717027e+01 1.0000000000000000e+00 3.7793124939184937e+00 1.2376872841228993e+01 6.3957024704820871e+00 
814 2 1 1.0279971047736556e+00 -6.6658429684966009e+01 1.0000000000000000e+00 1.7088953754291787e+00 1.4177522941551747e+01 4.7655629982942402e+00 
266 2 1 1.0279812743721908e+00 -4.4656365667198548e+02 1.0000000000000000e+00 2.8964997792617670e+00 1.4348568710653151e+01 4.3989841468463275e+00 
514 2 1 1.0279965699679154e+00 -1.9400830305545743e+01 1.0000000000000000e+00 1.9782086296427197e+00 1.4313135865025751e+01 4.5532175918543825e+00 
602 2 1 1.0279833410302364e+00 -1.3704350776063684e+01 1.0000000000000000e+00 2.3203778264809216e+00 1.4395781296246270e+01 4.4868464426109789e+00 
362 2 1 1.0280089602842513e+00 -4.3896898903634536e+01 1.0000000000000000e+00 2.9281107868959437e+00 1.4331857818270503e+01 4.3944021522204437e+00 
697 2 1 1.0280118560408451e+00 -3.4649715678164888e+01 1.0000000000000000e+00 5.3695518392655899e+00 1.3861686142035390e+01 5.8780377891304516e+00 
682 2 1 1.0279934163657289e+00 -3.2771032253921760e+01 1.0000000000000000e+00 3.8010967848425845e+00 1.5852685926268721e+01 4.6221355618930229e+00 
558 2 1 1.0280058169860695e+00 -1.3761949669870555e+01 1.0000000000000000e+00 4.6150612773561779e+00 1.6184583942275619e+01 4.4333597151903756e+00 
741 2 1 1.0280171142306933e+00 -1.7597313600457230e+01 1.0000000000000000e+00 4.5971840174206946e+00 1.6378904114299246e+01 4.4308684067339827e+00 
547 2 1 1.0280202429996872e+00 -2.2827882967628852e+01 1.0000000000000000e+00 3.7310110149709237e+00 1.4496848560777700e+01 4.5615729340245750e+00 
548 2 1 1.0280101389432172e+00 -4.3382133057464031e+01 1.0000000000000000e+00 4.7023171080552553e+00 1.5821739364255745e+01 4.4730236808001402e+00 
398 2 1 1.0279260829688452e+00 -3.1372077303928968e+01 1.0000000000000000e+00 4.4944154838660877e+00 1.4677589653034628e+01 6.0713099196573701e+00 
343 2 1 1.0279999020883155e+00 -4.2733565078183084e+01 1.0000000000000000e+00 5.0070922292598912e+00 1.6688928971371698e+01 4.4011453613908129e+00 
740 2 1 1.0279963240366978e+00 -4.8217141413959759e+00 1.0000000000000000e+00 4.4443270188151995e+00 1.7180389547514427e+01 4.5875503662034083e+00 
702 2 1 1.0279928517598156e+00 -2.8240206497761502e+01 1.0000000000000000e+00 4.8790454894083837e+00 1.8372189717474786e+01 5.3742836126007472e+00 
469 2 1 1.0280012312438911e+00 -2.4051589978093247e+01 1.0000000000000000e+00 5.9402527651342423e+00 1.8853074193153262e+01 5.8182138956133382e+00 
664 2 1 1.0279980276753307e+00 -1.0130280730009796e+01 1.0000000000000000e+00 6.6016480126064572e+00 1.8280102450721238e+01 4.4881857843366983e+00 
512 2 1 1.0280013571320763e+00 -1.4140304300082738e+01 1.0000000000000000e+00 3.4577496405835522e+00 1.7726278099064906e+01 6.2129980045116131e+00 
382 2 1 1.0279990301290263e+00 -5.3983825631159185e+01 1.0000000000000000e+00 3.4614404333358975e+00 1.7734356171930582e+01 6.2149126520834885e+00 
683 2 1 1.0280003796505168e+00 -3.3132630695833775e+01 1.0000000000000000e+00 3.4547716185838375e+00 1.7718688032162060e+01 6.2156823517890087e+00 
475 2 1 1.0280004305911234e+00 -3.8708784781362233e+01 1.0000000000000000e+00 3.5781052315222368e+00 1.7917265542655734e+01 6.3067627852456285e+00 
654 2 1 1.0279974058691470e+00 -6.0647345962168735e+01 1.0000000000000000e+00 3.4493518522240452e+00 1.7085647941350803e+01 6.5792909304683862e+00 
762 2 1 1.0279971375200896e+00 1.0511391720420853e+01 1.0000000000000000e+00 2.5865422334182258e+00 1.0943047655739813e+01 6.7190341901904107e+00 
477 2 1 1.0279872969122335e+00 -2.2875467255290271e+01 1.0000000000000000e+00 2.7780816615132418e+00 1.2783030984176378e+01 7.8451556273891407e+00 
757 2 1 1.0274227702199152e+00 1.6484981202877183e+01 1.0000000000000000e+00 5.9520698769530958e+00 1.0990284057380926e+01 6.9141103504010895e+00 
429 2 1 1.0276591080715691e+00 -5.6449879320165131e+01 1.0000000000000000e+00 3.6458849316189497e+00 1.1917146796430607e+01 6.8860102526344455e+00 
725 2 1 1.0279078514730466e+00 -6.1459648336044751e+01 1.0000000000000000e+00 4.5658555751816801e+00 1.1944215652181684e+01 6.8464110451647437e+00 
300 2 1 1.0284406198829896e+00 -4.7430698537875219e+02 1.0000000000000000e+00 5.0508848263000550e+00 1.1488468671297552e+01 7.7796829876012197e+00 
611 2 1 1.0279923903145278e+00 -2.3747584428194550e+01 1.0000000000000000e+00 3.5477409847322585e+00 1.2309300569241973e+01 9.1764083346136971e+00 
784 2 1 1.0279959642236249e+00 1.7090157879897429e+01 1.0000000000000000e+00 3.6030579336209803e+00 1.2216686743695046e+01 9.1404862054145219e+00 
286 2 1 1.0279947396949589e+00 -4.8593352750540373e+02 1.0000000000000000e+00 3.5684382981627150e+00 1.2261631174358950e+01 9.1527158944545199e+00 
306 2 1 1.0279928342993458e+00 -4.5116635034428032e+02 1.0000000000000000e+00 3.6325119102068588e+00 1.2210597994762555e+01 9.1570000617947631e+00 
580 2 1 1.0279444755483680e+00 -3.6188582464906325e+01 1.0000000000000000e+00 5.3091130633181516e+00 1.1238082424472884e+01 7.9869738445689018e+00 
318 2 1 1.0278581300008298e+00 -4.5494078897668390e+02 1.0000000000000000e+00 5.2408451519791850e+00 1.2402749459592338e+01 9.4287683298335612e+00 
616 2 1 1.0278768478878884e+00 -7.7365752025659242e+00 1.0000000000000000e+00 6.3309523324569570e+00 1.2810163235038564e+01 9.6859813184748749e+00 
767 2 1 1.0279679816269844e+00 -3.9195260280532560e+00 1.0000000000000000e+00 6.5981684908376126e+00 1.2865058784149333e+01 9.8795238616999743e+00 
339 2 1 1.0279749652430306e+00 -6.2250392666201130e+01 1.0000000000000000e+00 2.7314723104090870e+00 1.3725469713199576e+01 7.1913335220563006e+00 
506 2 1 1.0279855231343138e+00 -5.3121146840373498e+01 1.0000000000000000e+00 2.8828909285045969e+00 1.4637466499432074e+01 7.4711263151520892e+00 
750 2 1 1.0279793739720577e+00 -3.6662095585271359e+00 1.0000000000000000e+00 2.8333757191712219e+00 1.4543185254988556e+01 7.4276288623864124e+00 
360 2 1 1.0279886642942822e+00 -7.0199154957333576e+01 1.0000000000000000e+00 2.6103327944199717e+00 1.4108252422116871e+01 7.7061619862178841e+00 
264 2 1 1.0280982099532339e+00 -4.5394824885371276e+02 1.0000000000000000e+00 4.9507053348040433e+00 1.4264855995473475e+01 6.9105797286576101e+00 
356 2 1 1.0279813513903602e+00 -4.3842654420934473e+01 1.0000000000000000e+00 3.4310770105772956e+00 1.5128645522140909e+01 7.8108001193515770e+00 
624 2 1 1.0279910088370674e+00 -2.5237011976622078e+01 1.0000000000000000e+00 3.4834979769218202e+00 1.5136100123809479e+01 7.9237757567425025e+00 
501 2 1 1.0280012830948495e+00 -2.4338140491323660e+01 1.0000000000000000e+00 5.0427350487499147e+00 1.4826875294066523e+01 8.4611245170859810e+00 
309 2 1 1.0279988616242208e+00 -4.6418886942021828e+02 1.0000000000000000e+00 5.3464556319319234e+00 1.4124831878206299e+01 9.1222162973949850e+00 
500 2 1 1.0280134385041846e+00 -3.0378202239245372e+01 1.0000000000000000e+00 3.4324559466831195e+00 1.4001241468808622e+01 9.3883068027392760e+00 
585 2 1 1.0280532377349818e+00 -2.7429765353690890e+01 1.0000000000000000e+00 5.7088633925024350e+00 1.4038673552357325e+01 9.0881818583432175e+00 
630 2 1 1.0280130396375444e+00 -2.0200095773611643e+01 1.0000000000000000e+00 3.7863420328271693e+00 1.4174222294837968e+01 9.4153305602065807e+00 
280 2 1 1.0280082893787676e+00 -4.5504879825666882e+02 1.0000000000000000e+00 3.7392782558817426e+00 1.4111640725445177e+01 9.4392845968472443e+00 
507 2 1 1.0279271800071172e+00 -4.1312840816198133e+01 1.0000000000000000e+00 6.3627994469506897e+00 1.4811518552674086e+01 6.7473520292567004e+00 
380 2 1 1.0280086251192817e+00 -3.8333451653939640e+01 1.0000000000000000e+00 5.7724116025423857e+00 1.7042235748887769e+01 7.2228640765271441e+00 