LAMMPS data file via write_data, version 30 Jul 2016, timestep = 100000000

631 atoms
8 atom types

0.0000000000000000e+00 2.0000000000000000e+01 xlo xhi
0.0000000000000000e+00 2.0000000000000000e+01 ylo yhi
0.0000000000000000e+00 2.0000000000000000e+01 zlo zhi

Masses

1 3.896
2 5.36
3 20.064
4 8.378
5 8.378
6 8.378
7 8.378
8 8.378

Atoms # meso-molecular

1 2 4 2.6344617151905663e+00 -1.5539474063079151e+01 1.0000000000000000e+00 0.0000000000000000e+00 0.0000000000000000e+00 5.0000000000000000e-01 
2 2 4 3.0129510708494869e+00 -3.3361425168329561e+01 1.0000000000000000e+00 0.0000000000000000e+00 1.2000000000000000e+00 5.0000000000000000e-01 
3 2 4 3.0129510708494869e+00 -8.6330009544953086e+00 1.0000000000000000e+00 0.0000000000000000e+00 2.3999999999999999e+00 5.0000000000000000e-01 
18 2 4 2.6344617151905663e+00 -2.9428726506442052e+02 1.0000000000000000e+00 2.0000000000000000e+00 0.0000000000000000e+00 5.0000000000000000e-01 
19 2 4 3.0129510708494869e+00 -1.0112250089173339e+03 1.0000000000000000e+00 2.0000000000000000e+00 1.2000000000000000e+00 5.0000000000000000e-01 
20 2 4 3.0129510708494869e+00 -1.1450499835888959e+03 1.0000000000000000e+00 2.0000000000000000e+00 2.3999999999999999e+00 5.0000000000000000e-01 
35 2 4 2.6344617151905663e+00 -7.5792281979980476e+02 1.0000000000000000e+00 4.0000000000000000e+00 0.0000000000000000e+00 5.0000000000000000e-01 
36 2 4 3.0129510708494869e+00 -2.9441357179541533e+03 1.0000000000000000e+00 4.0000000000000000e+00 1.2000000000000000e+00 5.0000000000000000e-01 
37 2 4 3.0129510708494869e+00 -3.6218873803672068e+03 1.0000000000000000e+00 4.0000000000000000e+00 2.3999999999999999e+00 5.0000000000000000e-01 
52 2 4 2.6344617151905663e+00 -7.9315683875336549e+02 1.0000000000000000e+00 6.0000000000000000e+00 0.0000000000000000e+00 5.0000000000000000e-01 
53 2 4 3.0129510708494869e+00 -3.2889224508241250e+03 1.0000000000000000e+00 6.0000000000000000e+00 1.2000000000000000e+00 5.0000000000000000e-01 
54 2 4 3.0129510708494869e+00 -4.1359391643101717e+03 1.0000000000000000e+00 6.0000000000000000e+00 2.3999999999999999e+00 5.0000000000000000e-01 
4 2 4 3.0129510708494873e+00 -3.7946988949716093e+01 1.0000000000000000e+00 0.0000000000000000e+00 3.6000000000000001e+00 5.0000000000000000e-01 
5 2 4 3.0129510708494873e+00 -3.0281614577399210e+01 1.0000000000000000e+00 0.0000000000000000e+00 4.7999999999999998e+00 5.0000000000000000e-01 
6 2 4 3.0129510708494869e+00 -1.0088465028269324e+01 1.0000000000000000e+00 0.0000000000000000e+00 6.0000000000000000e+00 5.0000000000000000e-01 
21 2 4 3.0129510708494873e+00 -1.2069483886792877e+03 1.0000000000000000e+00 2.0000000000000000e+00 3.6000000000000001e+00 5.0000000000000000e-01 
22 2 4 3.0129510708494873e+00 -1.2233513939247957e+03 1.0000000000000000e+00 2.0000000000000000e+00 4.7999999999999998e+00 5.0000000000000000e-01 
23 2 4 3.0129510708494869e+00 -1.1639109500879704e+03 1.0000000000000000e+00 2.0000000000000000e+00 6.0000000000000000e+00 5.0000000000000000e-01 
38 2 4 3.0129510708494873e+00 -3.7057167477535800e+03 1.0000000000000000e+00 4.0000000000000000e+00 3.6000000000000001e+00 5.0000000000000000e-01 
39 2 4 3.0129510708494873e+00 -3.7100632140503767e+03 1.0000000000000000e+00 4.0000000000000000e+00 4.7999999999999998e+00 5.0000000000000000e-01 
40 2 4 3.0129510708494869e+00 -3.6693566394541594e+03 1.0000000000000000e+00 4.0000000000000000e+00 6.0000000000000000e+00 5.0000000000000000e-01 
55 2 4 3.0129510708494873e+00 -4.1338811489301006e+03 1.0000000000000000e+00 6.0000000000000000e+00 3.6000000000000001e+00 5.0000000000000000e-01 
56 2 4 3.0129510708494873e+00 -4.1495624419965352e+03 1.0000000000000000e+00 6.0000000000000000e+00 4.7999999999999998e+00 5.0000000000000000e-01 
57 2 4 3.0129510708494869e+00 -4.1864885993609387e+03 1.0000000000000000e+00 6.0000000000000000e+00 6.0000000000000000e+00 5.0000000000000000e-01 
7 2 4 3.0129510708494869e+00 -4.0207367263973616e+01 1.0000000000000000e+00 0.0000000000000000e+00 7.2000000000000002e+00 5.0000000000000000e-01 
8 2 4 3.0129510708494878e+00 -2.6310959305428586e+01 1.0000000000000000e+00 0.0000000000000000e+00 8.4000000000000004e+00 5.0000000000000000e-01 
9 2 4 3.0129510708494864e+00 -1.2644239745139835e+01 1.0000000000000000e+00 0.0000000000000000e+00 9.5999999999999996e+00 5.0000000000000000e-01 
24 2 4 3.0129510708494869e+00 -1.2182308808290027e+03 1.0000000000000000e+00 2.0000000000000000e+00 7.2000000000000002e+00 5.0000000000000000e-01 
25 2 4 3.0129510708494878e+00 -1.2145216624712405e+03 1.0000000000000000e+00 2.0000000000000000e+00 8.4000000000000004e+00 5.0000000000000000e-01 
26 2 4 3.0129510708494864e+00 -1.1618642108375359e+03 1.0000000000000000e+00 2.0000000000000000e+00 9.5999999999999996e+00 5.0000000000000000e-01 
41 2 4 3.0129510708494869e+00 -3.7194459570284907e+03 1.0000000000000000e+00 4.0000000000000000e+00 7.2000000000000002e+00 5.0000000000000000e-01 
42 2 4 3.0129510708494878e+00 -3.7004831219071871e+03 1.0000000000000000e+00 4.0000000000000000e+00 8.4000000000000004e+00 5.0000000000000000e-01 
43 2 4 3.0129510708494864e+00 -3.6670862236166799e+03 1.0000000000000000e+00 4.0000000000000000e+00 9.5999999999999996e+00 5.0000000000000000e-01 
58 2 4 3.0129510708494869e+00 -4.1384846259391625e+03 1.0000000000000000e+00 6.0000000000000000e+00 7.2000000000000002e+00 5.0000000000000000e-01 
59 2 4 3.0129510708494878e+00 -4.1528425794936566e+03 1.0000000000000000e+00 6.0000000000000000e+00 8.4000000000000004e+00 5.0000000000000000e-01 
60 2 4 3.0129510708494864e+00 -4.1780328980348877e+03 1.0000000000000000e+00 6.0000000000000000e+00 9.5999999999999996e+00 5.0000000000000000e-01 
440 2 1 1.0280024386514959e+00 -2.7721248061696816e+01 1.0000000000000000e+00 3.1370889806616056e+00 5.1879954187961248e+00 5.5738019238613719e+00 
636 2 1 1.0279994707070670e+00 -2.3728769925525860e+01 1.0000000000000000e+00 3.6270261691075794e+00 4.9970436675856726e+00 4.4800560512162848e+00 
351 2 1 1.0280049863906893e+00 -5.5910793943119955e+01 1.0000000000000000e+00 3.6869326652855876e+00 4.8487554211711101e+00 4.5410522502485282e+00 
299 2 1 1.0280016313485907e+00 -4.7709644190721048e+02 1.0000000000000000e+00 3.6804444182353695e+00 4.8935546244506272e+00 4.5127305898398493e+00 
584 2 1 1.0279992161385554e+00 -3.8951712076168604e+01 1.0000000000000000e+00 3.5897160179070218e+00 4.9707127268982232e+00 4.5185169654207362e+00 
778 2 1 1.0279922297109139e+00 -8.1191905182035597e+00 1.0000000000000000e+00 4.9178474704450155e+00 4.9026239746694937e+00 4.4280490543318249e+00 
612 2 1 1.0279923397033497e+00 -3.9763077372491274e+01 1.0000000000000000e+00 5.2113517295459406e+00 4.9983537272521117e+00 4.4334620752424705e+00 
515 2 1 1.0279898793896383e+00 -2.0335852254484436e+01 1.0000000000000000e+00 6.6059083070360121e+00 4.7756371531567678e+00 4.4877050049616969e+00 
634 2 1 1.0280001435664179e+00 -3.4379352835761686e+01 1.0000000000000000e+00 3.8070443503279616e+00 4.6156063733087773e+00 6.4582789307001134e+00 
673 2 1 1.0279595689838399e+00 -2.9846625866218137e+01 1.0000000000000000e+00 5.9061464146173366e+00 5.9029256621071040e+00 4.5620178538049023e+00 
496 2 1 1.0280712948184039e+00 -5.9487189315320741e+01 1.0000000000000000e+00 6.1553881893919389e+00 4.2157795996762637e+00 6.6089389876820723e+00 
606 2 1 1.0279945496938145e+00 -3.7302693738510577e+01 1.0000000000000000e+00 3.6634620768831727e+00 4.8190688853591119e+00 6.5173517447385940e+00 
593 2 1 1.0280136031329503e+00 -2.6541641116414283e+01 1.0000000000000000e+00 5.5124461487217502e+00 6.6152725973307875e+00 5.5240622892478628e+00 
659 2 1 1.0279994068997877e+00 -4.4773862134517479e+01 1.0000000000000000e+00 2.3193283417280450e+00 8.5729457031744420e+00 4.5098761488195649e+00 
670 2 1 1.0279979788030640e+00 -1.2154886162708880e+01 1.0000000000000000e+00 2.6528627504306388e+00 7.9597602323185006e+00 4.5034065263098304e+00 
735 2 1 1.0280033812002549e+00 -5.6133229719898260e+01 1.0000000000000000e+00 1.8334613763102381e+00 9.8984017626627434e+00 4.8435423887203441e+00 
800 2 1 1.0279928490400783e+00 9.5789178868292755e+00 1.0000000000000000e+00 2.5911172713937782e+00 7.9500251888154958e+00 4.6066529653829722e+00 
394 2 1 1.0280036318202450e+00 -4.5825648850199485e+01 1.0000000000000000e+00 1.5486223057192716e+00 9.7711570507632288e+00 5.9046372475642857e+00 
679 2 1 1.0279997615751388e+00 -2.5380097516569649e+01 1.0000000000000000e+00 1.6043279180958707e+00 9.7815175324653918e+00 6.1190279886416672e+00 
423 2 1 1.0279889606675277e+00 -4.4222427329551913e+01 1.0000000000000000e+00 2.8209139743426794e+00 7.5945222800775039e+00 4.7004127367622797e+00 
756 2 1 1.0279974162093279e+00 3.2951919707278714e+00 1.0000000000000000e+00 3.2062130848477834e+00 7.1808868230648546e+00 4.5333373957231125e+00 
588 2 1 1.0279906712294449e+00 -2.7138427905651717e+01 1.0000000000000000e+00 2.3595944559646620e+00 9.2017839780175343e+00 6.5952413108604855e+00 
405 2 1 1.0280071304634832e+00 -2.2330569957011875e+01 1.0000000000000000e+00 3.2404902882955313e+00 6.9204310079285651e+00 4.5962527156198139e+00 
471 2 1 1.0279912552258295e+00 -6.5769041711169407e+01 1.0000000000000000e+00 2.0209550253457373e+00 9.8325866047574539e+00 6.6633570146143590e+00 
321 2 1 1.0279970066713451e+00 -4.5583250753840082e+02 1.0000000000000000e+00 4.2932505355189141e+00 8.7712733062928674e+00 4.4792927916177838e+00 
290 2 1 1.0279928262355014e+00 -4.5191790889544359e+02 1.0000000000000000e+00 4.4270977658327579e+00 8.5888786193440492e+00 4.5338007735261820e+00 
329 2 1 1.0279948247000190e+00 -2.6343435205963107e+02 1.0000000000000000e+00 4.2609776664802839e+00 8.8959805768838667e+00 4.4882664685484688e+00 
565 2 1 1.0279651950730644e+00 -1.6787478706678709e+01 1.0000000000000000e+00 4.8536754095187371e+00 7.7464712705054639e+00 5.7152543861932745e+00 
656 2 1 1.0282298948901831e+00 -4.9766616387028094e+01 1.0000000000000000e+00 6.4322692627425626e+00 6.9252713756124749e+00 5.2981524486781328e+00 
628 2 1 1.0279994014468736e+00 -1.0766233396584786e+01 1.0000000000000000e+00 3.9996826810888617e+00 4.7116020764607223e+00 6.8184674004505892e+00 
397 2 1 1.0279976911087187e+00 -4.8651729370377566e+01 1.0000000000000000e+00 3.6177806063548239e+00 5.3011144083474191e+00 6.6744336551012982e+00 
597 2 1 1.0280008282752577e+00 -3.0276491556175486e+01 1.0000000000000000e+00 4.7269794716276436e+00 4.7519398928959449e+00 7.4598723159650886e+00 
752 2 1 1.0280136414138907e+00 -2.0617082153327139e+01 1.0000000000000000e+00 5.9997361052986120e+00 5.2470383292261973e+00 8.1883853516142491e+00 
662 2 1 1.0280077159235930e+00 -3.4677004160133983e+01 1.0000000000000000e+00 6.0769988994003326e+00 5.3338723906872696e+00 8.2455289043983306e+00 
641 2 1 1.0279904657932240e+00 -3.7030868899458333e+01 1.0000000000000000e+00 5.8209573683867193e+00 4.3232416933729496e+00 6.8825817881984683e+00 
743 2 1 1.0280068213819842e+00 -7.4145383301564820e+00 1.0000000000000000e+00 4.3620371353823684e+00 6.3568678957667100e+00 8.1592869196991540e+00 
463 2 1 1.0280101147504983e+00 -3.5197594461255605e+01 1.0000000000000000e+00 4.3537869970684033e+00 6.3957509226284390e+00 8.1717782591010035e+00 
487 2 1 1.0280009547064319e+00 -3.9556762399119243e+01 1.0000000000000000e+00 4.2999176117729281e+00 6.5623177144826759e+00 8.1757032365717830e+00 
462 2 1 1.0280042159987364e+00 -2.4106329192308824e+01 1.0000000000000000e+00 6.5011859746970533e+00 5.0712159433554840e+00 7.7510667945111589e+00 
672 2 1 1.0279833356714048e+00 -1.9451892816361632e+01 1.0000000000000000e+00 2.3833778758672906e+00 9.9651617856125885e+00 6.8701972030445546e+00 
798 2 1 1.0279754940870538e+00 1.6381335812095820e+01 1.0000000000000000e+00 6.5292529309674974e+00 8.4975982297964521e+00 7.9591374488539399e+00 
805 2 1 1.0279873626940907e+00 -2.0838657107426243e+01 1.0000000000000000e+00 4.3707475395809379e+00 9.7188947497937050e+00 9.0502578252119203e+00 
352 2 1 1.0279950409218810e+00 -3.0880597151672159e+01 1.0000000000000000e+00 3.9164972640131248e+00 7.8724109966254483e+00 9.3683558722842406e+00 
620 2 1 1.0279987786760216e+00 -3.1070347324781395e+01 1.0000000000000000e+00 3.8910480923134672e+00 7.6640604564894987e+00 9.1190549285699820e+00 
427 2 1 1.0281753518470178e+00 -3.2396832788063278e+01 1.0000000000000000e+00 4.4380061098088053e+00 9.4244710457279108e+00 6.9066677371772141e+00 
426 2 1 1.0279631676952083e+00 -3.3593409320279072e+01 1.0000000000000000e+00 4.3830534164403012e+00 8.9038614442127955e+00 7.0452575268217155e+00 
466 2 1 1.0280995178039052e+00 -4.3325145125276720e+01 1.0000000000000000e+00 4.4736296170966936e+00 8.5284650969198736e+00 7.0779265032723631e+00 
660 2 1 1.0280110010851180e+00 -5.7175325897790401e+01 1.0000000000000000e+00 6.3498047330048770e+00 9.6207415408167716e+00 7.6516976054487547e+00 
615 2 1 1.0279195194529263e+00 -2.2791416134350175e+01 1.0000000000000000e+00 4.8472926708514299e+00 7.7239717036379814e+00 7.0591552733078027e+00 
285 2 1 1.0279927197704521e+00 -4.7844566785548932e+02 1.0000000000000000e+00 3.9222045208867762e+00 8.0484453732864765e+00 9.4577108187921972e+00 
811 2 1 1.0279966786537540e+00 -5.2920631615684442e+01 1.0000000000000000e+00 4.1765085660391161e+00 8.9027510667996790e+00 9.5929253199308757e+00 
650 2 1 1.0280033483390059e+00 -5.0773349533268345e+01 1.0000000000000000e+00 4.5912952017837538e+00 9.7459815961269225e+00 9.3284830998049006e+00 
353 2 1 1.0279925823196903e+00 -4.5335930910077174e+01 1.0000000000000000e+00 4.1521296219866475e+00 8.8303118426306746e+00 9.6090388895345367e+00 
617 2 1 1.0280498644507226e+00 -3.5612652009341041e+01 1.0000000000000000e+00 6.4522866172828159e+00 7.0556375961957860e+00 7.1084542554587751e+00 
372 2 1 1.0280039412037338e+00 -4.6501358522411721e+01 1.0000000000000000e+00 6.3189653945288891e+00 6.8475088705618967e+00 9.8199390297508966e+00 
409 2 1 1.0280037432523284e+00 -6.5292404358871565e+01 1.0000000000000000e+00 6.3294575866912561e+00 6.8531665801219539e+00 9.8230869080178209e+00 
727 2 1 1.0280009729144317e+00 -4.8254941058201410e+01 1.0000000000000000e+00 6.3897670134560940e+00 6.9534058702496555e+00 9.8907182389713562e+00 
519 2 1 1.0276829307021624e+00 -1.9282486176332654e+01 1.0000000000000000e+00 6.5277870572396948e+00 9.4554006904834917e+00 7.0543537501893692e+00 
782 2 1 1.0280017706366993e+00 2.9875795148581448e+00 1.0000000000000000e+00 6.6472990255563804e+00 9.9924867221162579e+00 1.0612240049412010e+01 
553 2 1 1.0280041927174528e+00 -1.6527746698272576e+01 1.0000000000000000e+00 4.7630379720051792e+00 7.9771482570090066e+00 1.0054120699092920e+01 
736 2 1 1.0280149010668449e+00 -7.2954333584118899e+01 1.0000000000000000e+00 5.5958179445291618e+00 9.8847030639427036e+00 1.0001678439022655e+01 
10 2 4 3.0129510708494864e+00 -4.1691195434196175e+01 1.0000000000000000e+00 0.0000000000000000e+00 1.0800000000000001e+01 5.0000000000000000e-01 
11 2 4 3.0129510708494887e+00 -2.2162982911090563e+01 1.0000000000000000e+00 0.0000000000000000e+00 1.2000000000000000e+01 5.0000000000000000e-01 
12 2 4 3.0129510708494864e+00 -1.6086997534083753e+01 1.0000000000000000e+00 0.0000000000000000e+00 1.3199999999999999e+01 5.0000000000000000e-01 
27 2 4 3.0129510708494864e+00 -1.2277247142573660e+03 1.0000000000000000e+00 2.0000000000000000e+00 1.0800000000000001e+01 5.0000000000000000e-01 
28 2 4 3.0129510708494887e+00 -1.2053751838892431e+03 1.0000000000000000e+00 2.0000000000000000e+00 1.2000000000000000e+01 5.0000000000000000e-01 
29 2 4 3.0129510708494864e+00 -1.1619171427300680e+03 1.0000000000000000e+00 2.0000000000000000e+00 1.3199999999999999e+01 5.0000000000000000e-01 
44 2 4 3.0129510708494864e+00 -3.7298341164978683e+03 1.0000000000000000e+00 4.0000000000000000e+00 1.0800000000000001e+01 5.0000000000000000e-01 
45 2 4 3.0129510708494887e+00 -3.6925435558603581e+03 1.0000000000000000e+00 4.0000000000000000e+00 1.2000000000000000e+01 5.0000000000000000e-01 
46 2 4 3.0129510708494864e+00 -3.6656445905924888e+03 1.0000000000000000e+00 4.0000000000000000e+00 1.3199999999999999e+01 5.0000000000000000e-01 
61 2 4 3.0129510708494864e+00 -4.1417257510379959e+03 1.0000000000000000e+00 6.0000000000000000e+00 1.0800000000000001e+01 5.0000000000000000e-01 
62 2 4 3.0129510708494887e+00 -4.1585813336591918e+03 1.0000000000000000e+00 6.0000000000000000e+00 1.2000000000000000e+01 5.0000000000000000e-01 
63 2 4 3.0129510708494864e+00 -4.1674807237338800e+03 1.0000000000000000e+00 6.0000000000000000e+00 1.3199999999999999e+01 5.0000000000000000e-01 
13 2 4 3.0129510708494864e+00 -4.2336690728561862e+01 1.0000000000000000e+00 0.0000000000000000e+00 1.4400000000000000e+01 5.0000000000000000e-01 
14 2 4 3.0129510708494864e+00 -1.8030322926181512e+01 1.0000000000000000e+00 0.0000000000000000e+00 1.5600000000000000e+01 5.0000000000000000e-01 
30 2 4 3.0129510708494864e+00 -1.2350009977932732e+03 1.0000000000000000e+00 2.0000000000000000e+00 1.4400000000000000e+01 5.0000000000000000e-01 
31 2 4 3.0129510708494864e+00 -1.1967140395767692e+03 1.0000000000000000e+00 2.0000000000000000e+00 1.5600000000000000e+01 5.0000000000000000e-01 
47 2 4 3.0129510708494864e+00 -3.7366764620337349e+03 1.0000000000000000e+00 4.0000000000000000e+00 1.4400000000000000e+01 5.0000000000000000e-01 
48 2 4 3.0129510708494864e+00 -3.6869882077871562e+03 1.0000000000000000e+00 4.0000000000000000e+00 1.5600000000000000e+01 5.0000000000000000e-01 
64 2 4 3.0129510708494864e+00 -4.1441492378513976e+03 1.0000000000000000e+00 6.0000000000000000e+00 1.4400000000000000e+01 5.0000000000000000e-01 
65 2 4 3.0129510708494864e+00 -4.1666016041198736e+03 1.0000000000000000e+00 6.0000000000000000e+00 1.5600000000000000e+01 5.0000000000000000e-01 
15 2 4 3.0129510708494864e+00 -2.0094891491445576e+01 1.0000000000000000e+00 0.0000000000000000e+00 1.6800000000000001e+01 5.0000000000000000e-01 
16 2 4 3.0129510708494887e+00 -4.2059400418886483e+01 1.0000000000000000e+00 0.0000000000000000e+00 1.8000000000000000e+01 5.0000000000000000e-01 
17 2 4 2.6344617151905672e+00 -7.1024195826123524e+00 1.0000000000000000e+00 0.0000000000000000e+00 1.9199999999999999e+01 5.0000000000000000e-01 
32 2 4 3.0129510708494864e+00 -1.1638625253574407e+03 1.0000000000000000e+00 2.0000000000000000e+00 1.6800000000000001e+01 5.0000000000000000e-01 
33 2 4 3.0129510708494887e+00 -1.1861207731713530e+03 1.0000000000000000e+00 2.0000000000000000e+00 1.8000000000000000e+01 5.0000000000000000e-01 
34 2 4 2.6344617151905672e+00 -3.8946442064346923e+02 1.0000000000000000e+00 2.0000000000000000e+00 1.9199999999999999e+01 5.0000000000000000e-01 
49 2 4 3.0129510708495366e+00 -3.6535044367271994e+03 1.0000000000000000e+00 4.0000000000000000e+00 1.6800000000000001e+01 5.0000000000000000e-01 
50 2 4 3.0129510708494887e+00 -3.4027435866730193e+03 1.0000000000000000e+00 4.0000000000000000e+00 1.8000000000000000e+01 5.0000000000000000e-01 
51 2 4 2.6344617151905672e+00 -1.0887738496580378e+03 1.0000000000000000e+00 4.0000000000000000e+00 1.9199999999999999e+01 5.0000000000000000e-01 
66 2 4 3.0129510708494864e+00 -4.1429112213629178e+03 1.0000000000000000e+00 6.0000000000000000e+00 1.6800000000000001e+01 5.0000000000000000e-01 
67 2 4 3.0129510708494887e+00 -3.7597474865836548e+03 1.0000000000000000e+00 6.0000000000000000e+00 1.8000000000000000e+01 5.0000000000000000e-01 
68 2 4 2.6344617151905672e+00 -1.2245493213781247e+03 1.0000000000000000e+00 6.0000000000000000e+00 1.9199999999999999e+01 5.0000000000000000e-01 
733 2 1 1.0279964594628599e+00 -6.5799783674152920e+01 1.0000000000000000e+00 9.7497159033164404e-01 1.2992494887303263e+01 4.4076344143885455e+00 
753 2 1 1.0279979938003283e+00 2.0479498243075609e+00 1.0000000000000000e+00 9.7618880074482439e-01 1.3039495153301438e+01 4.3866425188279186e+00 
591 2 1 1.0279975705546884e+00 -4.7069219971892537e+01 1.0000000000000000e+00 9.7796938662811161e-01 1.3030515367097472e+01 4.3812328452596345e+00 
526 2 1 1.0279959944868715e+00 -2.0374848935916354e+01 1.0000000000000000e+00 1.1451003697995337e+00 1.2512599199895641e+01 4.3877618677442713e+00 
348 2 1 1.0279989611852567e+00 -3.4299243111034954e+01 1.0000000000000000e+00 9.8524389420475333e-01 1.2973819510371586e+01 4.3723899725833011e+00 
676 2 1 1.0280039708942530e+00 -1.0234246882234805e+01 1.0000000000000000e+00 1.8282881859835840e+00 1.1390685481933991e+01 4.7070362245014463e+00 
393 2 1 1.0280069989904024e+00 -3.8441616925915525e+01 1.0000000000000000e+00 1.5289353388677924e+00 1.1817848023511054e+01 4.8012086479577363e+00 
488 2 1 1.0280046127183184e+00 -2.8554320679521073e+01 1.0000000000000000e+00 3.0767674860194543e+00 1.0183878840175566e+01 4.3898459177781444e+00 
257 2 1 1.0279713133273620e+00 -4.7802396117413116e+02 1.0000000000000000e+00 3.1389034470379924e+00 1.1672406861628426e+01 4.5848298412258712e+00 
255 2 1 1.0279879896096640e+00 -4.5969256393164397e+02 1.0000000000000000e+00 1.9687430329092066e+00 1.0098347403492115e+01 6.6415969062636648e+00 
470 2 1 1.0279957153949901e+00 -2.7748850003827606e+01 1.0000000000000000e+00 3.4655664359674168e+00 1.0294468023804063e+01 4.5001595831636232e+00 
669 2 1 1.0279822357471846e+00 -3.0488302611363221e+01 1.0000000000000000e+00 4.9963677081738940e+00 1.2136473097588759e+01 4.4210577769707724e+00 
629 2 1 1.0279836712761252e+00 -2.2170333779194667e+01 1.0000000000000000e+00 6.2443662893276475e+00 1.3226523641316982e+01 4.5870982207651778e+00 
794 2 1 1.0279721585621826e+00 -1.5202317556951957e+01 1.0000000000000000e+00 4.5135547349949485e+00 1.1810406158758038e+01 4.5442847464840357e+00 
809 2 1 1.0279814257929374e+00 -5.8843959224502207e+01 1.0000000000000000e+00 5.8236040917524390e+00 1.2654604233915101e+01 4.4711401865022351e+00 
269 2 1 1.0279812973058717e+00 -4.5378226225598377e+02 1.0000000000000000e+00 5.9207882712676323e+00 1.2557440217430324e+01 4.4949805104109677e+00 
420 2 1 1.0280023994893608e+00 -3.2633060401199039e+01 1.0000000000000000e+00 4.2207783026632342e+00 1.2615671886082129e+01 4.4718977423875117e+00 
418 2 1 1.0279650222462240e+00 -4.0565029634302121e+01 1.0000000000000000e+00 4.6229382292919095e+00 1.0927023776827642e+01 5.1459281450649863e+00 
367 2 1 1.0279789329100955e+00 -5.3954137149985115e+01 1.0000000000000000e+00 5.8169157058782464e+00 1.2540513411391919e+01 4.4728592534247689e+00 
694 2 1 1.0280156785949099e+00 -3.7159989630519213e+01 1.0000000000000000e+00 6.5691298944074177e+00 1.0530235294967349e+01 5.8561869711562391e+00 
566 2 1 1.0282657484791877e+00 -3.6372477173713342e+01 1.0000000000000000e+00 3.7894339852687500e+00 1.2404702381101952e+01 6.4153080017036324e+00 
814 2 1 1.0280051381654947e+00 -6.6658419931842772e+01 1.0000000000000000e+00 1.7256391723153315e+00 1.4169166684603677e+01 4.8003254565133950e+00 
266 2 1 1.0279890820849615e+00 -4.4656364078266461e+02 1.0000000000000000e+00 2.8983959417637650e+00 1.4355272549138830e+01 4.4025843103978586e+00 
514 2 1 1.0279969668853264e+00 -1.9400821307337100e+01 1.0000000000000000e+00 1.9909711834580199e+00 1.4315730557332129e+01 4.5901783937854619e+00 
602 2 1 1.0279924731570622e+00 -1.3704340173672072e+01 1.0000000000000000e+00 2.3361800991157762e+00 1.4410470928797213e+01 4.5278413871675562e+00 
362 2 1 1.0280005306846745e+00 -4.3896883192118338e+01 1.0000000000000000e+00 2.9612798748696600e+00 1.4304624742240115e+01 4.3840944177371624e+00 
697 2 1 1.0281342778946658e+00 -3.4649621463883278e+01 1.0000000000000000e+00 5.3750776286488726e+00 1.3845645978063247e+01 5.8942772329981583e+00 
682 2 1 1.0280266631066743e+00 -3.2771015589536418e+01 1.0000000000000000e+00 3.8494221874498300e+00 1.5843412513640684e+01 4.6074648162600207e+00 
558 2 1 1.0280229705773234e+00 -1.3761937795540439e+01 1.0000000000000000e+00 4.6089879985758202e+00 1.6190874147635832e+01 4.4326765349498709e+00 
741 2 1 1.0280212137587923e+00 -1.7597306256251233e+01 1.0000000000000000e+00 4.6012603153073401e+00 1.6390723826984356e+01 4.4317147039667946e+00 
547 2 1 1.0280670728454078e+00 -2.2827849715431846e+01 1.0000000000000000e+00 3.7478824752837214e+00 1.4521360394104855e+01 4.5665216218469364e+00 
548 2 1 1.0280499209612273e+00 -4.3382106844105913e+01 1.0000000000000000e+00 4.6921527167586277e+00 1.5815814919176448e+01 4.4696250704779645e+00 
398 2 1 1.0276691975769134e+00 -3.1371991047196428e+01 1.0000000000000000e+00 4.4843926327415584e+00 1.4690226100467683e+01 6.0920341302978160e+00 
343 2 1 1.0280082714086904e+00 -4.2733560398327462e+01 1.0000000000000000e+00 5.0739112689331112e+00 1.6676159031805803e+01 4.3904289070964024e+00 
740 2 1 1.0279972368880101e+00 -4.8217122801414787e+00 1.0000000000000000e+00 4.4596807867047286e+00 1.7165754703013061e+01 4.5947403968885396e+00 
702 2 1 1.0279900565272462e+00 -2.8240206573969044e+01 1.0000000000000000e+00 4.8936411781960576e+00 1.8354613785467350e+01 5.3862990297336069e+00 
469 2 1 1.0279934801430761e+00 -2.4051598888650631e+01 1.0000000000000000e+00 5.9481039242401019e+00 1.8839893620779087e+01 5.8353034498542948e+00 
664 2 1 1.0280026463221423e+00 -1.0130271114712929e+01 1.0000000000000000e+00 6.5823196503167098e+00 1.8276496400561953e+01 4.5001271686093833e+00 
512 2 1 1.0280023280442740e+00 -1.4140304413241106e+01 1.0000000000000000e+00 3.4749928980275735e+00 1.7704218280240852e+01 6.2516229227472122e+00 
382 2 1 1.0280007036374623e+00 -5.3983825759270715e+01 1.0000000000000000e+00 3.4786820140534442e+00 1.7712228353220446e+01 6.2535660847748593e+00 
683 2 1 1.0280014116451841e+00 -3.3132630801616649e+01 1.0000000000000000e+00 3.4720084413912251e+00 1.7696702485248508e+01 6.2542585418489729e+00 
475 2 1 1.0279987123152330e+00 -3.8708785063312206e+01 1.0000000000000000e+00 3.5942391604001185e+00 1.7892851066267035e+01 6.3452382916557308e+00 
654 2 1 1.0280148199168546e+00 -6.0647342932509574e+01 1.0000000000000000e+00 3.4575773640282659e+00 1.7067564981948848e+01 6.6130229109046752e+00 
762 2 1 1.0280045177030319e+00 1.0511403596216129e+01 1.0000000000000000e+00 2.6155580402441267e+00 1.0949645594018312e+01 6.7625073774445728e+00 
477 2 1 1.0280070937799488e+00 -2.2875490112650258e+01 1.0000000000000000e+00 2.7978961270757865e+00 1.2757201946885312e+01 7.8759102783214496e+00 
757 2 1 1.0283433204277506e+00 1.6485028885030562e+01 1.0000000000000000e+00 5.9491335937964891e+00 1.0974007602732952e+01 6.9277947777879065e+00 
429 2 1 1.0278972865081411e+00 -5.6449963953758115e+01 1.0000000000000000e+00 3.6227778722312944e+00 1.1927836519490667e+01 6.9198645974899078e+00 
725 2 1 1.0277679564263740e+00 -6.1459691983330643e+01 1.0000000000000000e+00 4.5592080573560452e+00 1.1934622558823976e+01 6.8582890445174929e+00 
300 2 1 1.0278034835122289e+00 -4.7430697125830136e+02 1.0000000000000000e+00 5.0547106386587757e+00 1.1496310598689162e+01 7.7984109776837407e+00 
611 2 1 1.0280180153371801e+00 -2.3747571797891222e+01 1.0000000000000000e+00 3.5514401341574287e+00 1.2307363753857597e+01 9.2141752562499697e+00 
784 2 1 1.0280205345322218e+00 1.7090174990259754e+01 1.0000000000000000e+00 3.6031921776261231e+00 1.2216298732302576e+01 9.1785843630060100e+00 
286 2 1 1.0280197580186974e+00 -4.8593351278222684e+02 1.0000000000000000e+00 3.5702888968520030e+00 1.2261664316009643e+01 9.1915102947342771e+00 
306 2 1 1.0280206510546810e+00 -4.5116633239997435e+02 1.0000000000000000e+00 3.6317741980656204e+00 1.2210721940943284e+01 9.1952628015785596e+00 
580 2 1 1.0281160547703059e+00 -3.6188501498945882e+01 1.0000000000000000e+00 5.3007863179610286e+00 1.1228043503106532e+01 8.0144360791263658e+00 
318 2 1 1.0280022035801224e+00 -4.5494073423478699e+02 1.0000000000000000e+00 5.2386658847112528e+00 1.2391035278620445e+01 9.4803596427625880e+00 
616 2 1 1.0279907381721041e+00 -7.7364854171508544e+00 1.0000000000000000e+00 6.3134600563384620e+00 1.2824175218852632e+01 9.7260614480744785e+00 
767 2 1 1.0279614212664252e+00 -3.9194361662363577e+00 1.0000000000000000e+00 6.5816038263627625e+00 1.2883351177193004e+01 9.9093822947526000e+00 
339 2 1 1.0279925157947245e+00 -6.2250424107755066e+01 1.0000000000000000e+00 2.7591250484719803e+00 1.3715800237591163e+01 7.1971248446745539e+00 
506 2 1 1.0279955547271904e+00 -5.3121139926517849e+01 1.0000000000000000e+00 2.9084933656518395e+00 1.4650877915433647e+01 7.4962964748905243e+00 
750 2 1 1.0279990874473104e+00 -3.6662069456890602e+00 1.0000000000000000e+00 2.8597309840556844e+00 1.4556417498876863e+01 7.4488928352996524e+00 
360 2 1 1.0279904296274853e+00 -7.0199165495347444e+01 1.0000000000000000e+00 2.6296298859173111e+00 1.4117305982013749e+01 7.7364472087507492e+00 
677 2 1 1.0278815582883130e+00 -6.8394140549968441e+00 1.0000000000000000e+00 6.6558998288006705e+00 1.3742122110381061e+01 6.9255774511254575e+00 
264 2 1 1.0281867824236783e+00 -4.5394820538318243e+02 1.0000000000000000e+00 4.9554737578311716e+00 1.4246182433952356e+01 6.9230139302956850e+00 
356 2 1 1.0280143385311786e+00 -4.3842633006556078e+01 1.0000000000000000e+00 3.4386159704575183e+00 1.5134878028287924e+01 7.8492225936377871e+00 
624 2 1 1.0280055490344335e+00 -2.5236991900613255e+01 1.0000000000000000e+00 3.4901258571347094e+00 1.5139699940486510e+01 7.9654118203208260e+00 
501 2 1 1.0280144655385979e+00 -2.4338131279005633e+01 1.0000000000000000e+00 5.0536414016468658e+00 1.4822729234999574e+01 8.4940965443664496e+00 
309 2 1 1.0279763900532870e+00 -4.6418886479274909e+02 1.0000000000000000e+00 5.3549107427986824e+00 1.4123373382018116e+01 9.1563968358250438e+00 
500 2 1 1.0279849352779635e+00 -3.0378205163092467e+01 1.0000000000000000e+00 3.4459883854272295e+00 1.3997885876320105e+01 9.4198807704831733e+00 
585 2 1 1.0279977702184586e+00 -2.7429747460660096e+01 1.0000000000000000e+00 5.7392549798896404e+00 1.4053801703001033e+01 9.1093955482357121e+00 
630 2 1 1.0279851297724236e+00 -2.0200097715879000e+01 1.0000000000000000e+00 3.7840384777105180e+00 1.4166663961087904e+01 9.4457258497574834e+00 
280 2 1 1.0279860433702068e+00 -4.5504880068765686e+02 1.0000000000000000e+00 3.7391815186323965e+00 1.4105529011521510e+01 9.4689340675932545e+00 