LAMMPS data file via write_data, version 30 Jul 2016, timestep = 50000000

4620 atoms
8 atom types

0.0000000000000000e+00 1.0000000000000000e+02 xlo xhi
0.0000000000000000e+00 4.0000000000000000e+01 ylo yhi
0.0000000000000000e+00 4.0000000000000000e+01 zlo zhi

Masses

1 3.896
2 5.36
3 20.064
4 8.378
5 8.378
6 8.378
7 8.378
8 8.378

Atoms # meso-molecular

1 2 2 1.4432836558517188e+00 -5.1576596756151806e-11 1.0000000000000000e+00 6.9743803276132788e+00 1.0000000000000000e+01 2.9743803276149969e+00 
2 3 2 1.4432836558517188e+00 -7.7364895269014121e-11 1.0000000000000000e+00 8.9746487300814284e+00 1.0000000000000000e+01 2.9743803276149969e+00 
463 464 2 1.4432836558517188e+00 -5.1576596756151806e-11 1.0000000000000000e+00 6.9743803276132788e+00 1.2199999999999999e+01 2.9743803276149969e+00 
464 465 2 1.4432836558517188e+00 -7.7364895269014121e-11 1.0000000000000000e+00 8.9746487300814284e+00 1.2199999999999999e+01 2.9743803276149969e+00 
3 4 2 1.4432836558517188e+00 -7.7364893927254996e-11 1.0000000000000000e+00 1.0974687114538749e+01 1.0000000000000000e+01 2.9743803276149969e+00 
465 466 2 1.4432836558517188e+00 -7.7364893927254996e-11 1.0000000000000000e+00 1.0974687114538749e+01 1.2199999999999999e+01 2.9743803276149969e+00 
4 5 2 1.4432836558517188e+00 -7.7364891617845140e-11 1.0000000000000000e+00 1.2974703446507879e+01 1.0000000000000000e+01 2.9743803276149969e+00 
5 6 2 1.4432836558517188e+00 -7.7364885380497163e-11 1.0000000000000000e+00 1.4974718510242706e+01 1.0000000000000000e+01 2.9743803276149969e+00 
466 467 2 1.4432836558517188e+00 -7.7364891617845140e-11 1.0000000000000000e+00 1.2974703446507879e+01 1.2199999999999999e+01 2.9743803276149969e+00 
467 468 2 1.4432836558517188e+00 -7.7364885380497163e-11 1.0000000000000000e+00 1.4974718510242706e+01 1.2199999999999999e+01 2.9743803276149969e+00 
6 7 2 1.4432836558517188e+00 -7.7364885899325742e-11 1.0000000000000000e+00 1.6974745186972019e+01 1.0000000000000000e+01 2.9743803276149969e+00 
468 469 2 1.4432836558517188e+00 -7.7364885899325742e-11 1.0000000000000000e+00 1.6974745186972019e+01 1.2199999999999999e+01 2.9743803276149969e+00 
7 8 2 1.4432836558517188e+00 -7.7364891168126829e-11 1.0000000000000000e+00 1.8974796985139413e+01 1.0000000000000000e+01 2.9743803276149969e+00 
8 9 2 1.4432836558517188e+00 -7.7364889279519803e-11 1.0000000000000000e+00 2.0974891572767316e+01 1.0000000000000000e+01 2.9743803276149969e+00 
469 470 2 1.4432836558517188e+00 -7.7364891168126829e-11 1.0000000000000000e+00 1.8974796985139413e+01 1.2199999999999999e+01 2.9743803276149969e+00 
470 471 2 1.4432836558517188e+00 -7.7364889279519803e-11 1.0000000000000000e+00 2.0974891572767316e+01 1.2199999999999999e+01 2.9743803276149969e+00 
9 10 2 1.4432836558517188e+00 -7.7364892296674244e-11 1.0000000000000000e+00 2.2975053411369593e+01 1.0000000000000000e+01 2.9743803276149969e+00 
471 472 2 1.4432836558517188e+00 -7.7364892296674244e-11 1.0000000000000000e+00 2.2975053411369593e+01 1.2199999999999999e+01 2.9743803276149969e+00 
10 11 2 1.4432836558517188e+00 -7.7364894002111960e-11 1.0000000000000000e+00 2.4975314557407973e+01 1.0000000000000000e+01 2.9743803276149969e+00 
11 12 2 1.4432836558517188e+00 -7.7364894338362016e-11 1.0000000000000000e+00 2.6975714671099730e+01 1.0000000000000000e+01 2.9743803276149969e+00 
472 473 2 1.4432836558517188e+00 -7.7364894002111960e-11 1.0000000000000000e+00 2.4975314557407973e+01 1.2199999999999999e+01 2.9743803276149969e+00 
473 474 2 1.4432836558517188e+00 -7.7364894338362016e-11 1.0000000000000000e+00 2.6975714671099730e+01 1.2199999999999999e+01 2.9743803276149969e+00 
12 13 2 1.4432836558517188e+00 -7.7364898069684592e-11 1.0000000000000000e+00 2.8976301372414969e+01 1.0000000000000000e+01 2.9743803276149969e+00 
474 475 2 1.4432836558517188e+00 -7.7364898069684592e-11 1.0000000000000000e+00 2.8976301372414969e+01 1.2199999999999999e+01 2.9743803276149969e+00 
13 14 2 1.4432836558517188e+00 -7.7364864829326249e-11 1.0000000000000000e+00 3.0977129892076039e+01 1.0000000000000000e+01 2.9743803276149969e+00 
14 15 2 1.4432836558517188e+00 -7.7364868333086256e-11 1.0000000000000000e+00 3.2978260079445420e+01 1.0000000000000000e+01 2.9743803276149969e+00 
475 476 2 1.4432836558517188e+00 -7.7364864829326249e-11 1.0000000000000000e+00 3.0977129892076039e+01 1.2199999999999999e+01 2.9743803276149969e+00 
476 477 2 1.4432836558517188e+00 -7.7364868333086256e-11 1.0000000000000000e+00 3.2978260079445420e+01 1.2199999999999999e+01 2.9743803276149969e+00 
925 926 2 1.4432836558517188e+00 -5.1576596756151806e-11 1.0000000000000000e+00 6.9743803276132788e+00 1.4400000000000000e+01 2.9743803276149969e+00 
926 927 2 1.4432836558517188e+00 -7.7364895269014121e-11 1.0000000000000000e+00 8.9746487300814284e+00 1.4400000000000000e+01 2.9743803276149969e+00 
1387 1388 2 1.4432836558517188e+00 -5.1576596756151806e-11 1.0000000000000000e+00 6.9743803276132788e+00 1.6600000000000001e+01 2.9743803276149969e+00 
1388 1389 2 1.4432836558517188e+00 -7.7364895269014121e-11 1.0000000000000000e+00 8.9746487300814284e+00 1.6600000000000001e+01 2.9743803276149969e+00 
927 928 2 1.4432836558517188e+00 -7.7364893927254996e-11 1.0000000000000000e+00 1.0974687114538749e+01 1.4400000000000000e+01 2.9743803276149969e+00 
1389 1390 2 1.4432836558517188e+00 -7.7364893927254996e-11 1.0000000000000000e+00 1.0974687114538749e+01 1.6600000000000001e+01 2.9743803276149969e+00 
928 929 2 1.4432836558517188e+00 -7.7364891617845140e-11 1.0000000000000000e+00 1.2974703446507879e+01 1.4400000000000000e+01 2.9743803276149969e+00 
929 930 2 1.4432836558517188e+00 -7.7364885380497163e-11 1.0000000000000000e+00 1.4974718510242706e+01 1.4400000000000000e+01 2.9743803276149969e+00 
1390 1391 2 1.4432836558517188e+00 -7.7364891617845140e-11 1.0000000000000000e+00 1.2974703446507879e+01 1.6600000000000001e+01 2.9743803276149969e+00 
1391 1392 2 1.4432836558517188e+00 -7.7364885380497163e-11 1.0000000000000000e+00 1.4974718510242706e+01 1.6600000000000001e+01 2.9743803276149969e+00 
930 931 2 1.4432836558517188e+00 -7.7364885899325742e-11 1.0000000000000000e+00 1.6974745186972019e+01 1.4400000000000000e+01 2.9743803276149969e+00 
1392 1393 2 1.4432836558517188e+00 -7.7364885899325742e-11 1.0000000000000000e+00 1.6974745186972019e+01 1.6600000000000001e+01 2.9743803276149969e+00 
931 932 2 1.4432836558517188e+00 -7.7364891168126829e-11 1.0000000000000000e+00 1.8974796985139413e+01 1.4400000000000000e+01 2.9743803276149969e+00 
932 933 2 1.4432836558517188e+00 -7.7364889279519803e-11 1.0000000000000000e+00 2.0974891572767316e+01 1.4400000000000000e+01 2.9743803276149969e+00 
1393 1394 2 1.4432836558517188e+00 -7.7364891168126829e-11 1.0000000000000000e+00 1.8974796985139413e+01 1.6600000000000001e+01 2.9743803276149969e+00 
1394 1395 2 1.4432836558517188e+00 -7.7364889279519803e-11 1.0000000000000000e+00 2.0974891572767316e+01 1.6600000000000001e+01 2.9743803276149969e+00 
933 934 2 1.4432836558517188e+00 -7.7364892296674244e-11 1.0000000000000000e+00 2.2975053411369593e+01 1.4400000000000000e+01 2.9743803276149969e+00 
1395 1396 2 1.4432836558517188e+00 -7.7364892296674244e-11 1.0000000000000000e+00 2.2975053411369593e+01 1.6600000000000001e+01 2.9743803276149969e+00 
934 935 2 1.4432836558517188e+00 -7.7364894002111960e-11 1.0000000000000000e+00 2.4975314557407973e+01 1.4400000000000000e+01 2.9743803276149969e+00 
935 936 2 1.4432836558517188e+00 -7.7364894338362016e-11 1.0000000000000000e+00 2.6975714671099730e+01 1.4400000000000000e+01 2.9743803276149969e+00 
1396 1397 2 1.4432836558517188e+00 -7.7364894002111960e-11 1.0000000000000000e+00 2.4975314557407973e+01 1.6600000000000001e+01 2.9743803276149969e+00 
1397 1398 2 1.4432836558517188e+00 -7.7364894338362016e-11 1.0000000000000000e+00 2.6975714671099730e+01 1.6600000000000001e+01 2.9743803276149969e+00 
936 937 2 1.4432836558517188e+00 -7.7364898069684592e-11 1.0000000000000000e+00 2.8976301372414969e+01 1.4400000000000000e+01 2.9743803276149969e+00 
1398 1399 2 1.4432836558517188e+00 -7.7364898069684592e-11 1.0000000000000000e+00 2.8976301372414969e+01 1.6600000000000001e+01 2.9743803276149969e+00 
937 938 2 1.4432836558517188e+00 -7.7364864829326249e-11 1.0000000000000000e+00 3.0977129892076039e+01 1.4400000000000000e+01 2.9743803276149969e+00 
938 939 2 1.4432836558517188e+00 -7.7364868333086256e-11 1.0000000000000000e+00 3.2978260079445420e+01 1.4400000000000000e+01 2.9743803276149969e+00 
1399 1400 2 1.4432836558517188e+00 -7.7364864829326249e-11 1.0000000000000000e+00 3.0977129892076039e+01 1.6600000000000001e+01 2.9743803276149969e+00 
1400 1401 2 1.4432836558517188e+00 -7.7364868333086256e-11 1.0000000000000000e+00 3.2978260079445420e+01 1.6600000000000001e+01 2.9743803276149969e+00 
1849 1850 2 1.4432836558517188e+00 -5.1576596756151806e-11 1.0000000000000000e+00 6.9743803276132788e+00 1.8800000000000001e+01 2.9743803276149969e+00 
1850 1851 2 1.4432836558517188e+00 -7.7364895269014121e-11 1.0000000000000000e+00 8.9746487300814284e+00 1.8800000000000001e+01 2.9743803276149969e+00 
1851 1852 2 1.4432836558517188e+00 -7.7364893927254996e-11 1.0000000000000000e+00 1.0974687114538749e+01 1.8800000000000001e+01 2.9743803276149969e+00 
1852 1853 2 1.4432836558517188e+00 -7.7364891617845140e-11 1.0000000000000000e+00 1.2974703446507879e+01 1.8800000000000001e+01 2.9743803276149969e+00 
1853 1854 2 1.4432836558517188e+00 -7.7364885380497163e-11 1.0000000000000000e+00 1.4974718510242706e+01 1.8800000000000001e+01 2.9743803276149969e+00 
1854 1855 2 1.4432836558517188e+00 -7.7364885899325742e-11 1.0000000000000000e+00 1.6974745186972019e+01 1.8800000000000001e+01 2.9743803276149969e+00 
1855 1856 2 1.4432836558517188e+00 -7.7364891168126829e-11 1.0000000000000000e+00 1.8974796985139413e+01 1.8800000000000001e+01 2.9743803276149969e+00 
1856 1857 2 1.4432836558517188e+00 -7.7364889279519803e-11 1.0000000000000000e+00 2.0974891572767316e+01 1.8800000000000001e+01 2.9743803276149969e+00 
1857 1858 2 1.4432836558517188e+00 -7.7364892296674244e-11 1.0000000000000000e+00 2.2975053411369593e+01 1.8800000000000001e+01 2.9743803276149969e+00 
1858 1859 2 1.4432836558517188e+00 -7.7364894002111960e-11 1.0000000000000000e+00 2.4975314557407973e+01 1.8800000000000001e+01 2.9743803276149969e+00 
1859 1860 2 1.4432836558517188e+00 -7.7364894338362016e-11 1.0000000000000000e+00 2.6975714671099730e+01 1.8800000000000001e+01 2.9743803276149969e+00 
1860 1861 2 1.4432836558517188e+00 -7.7364898069684592e-11 1.0000000000000000e+00 2.8976301372414969e+01 1.8800000000000001e+01 2.9743803276149969e+00 
1861 1862 2 1.4432836558517188e+00 -7.7364864829326249e-11 1.0000000000000000e+00 3.0977129892076039e+01 1.8800000000000001e+01 2.9743803276149969e+00 
1862 1863 2 1.4432836558517188e+00 -7.7364868333086256e-11 1.0000000000000000e+00 3.2978260079445420e+01 1.8800000000000001e+01 2.9743803276149969e+00 
43 44 2 1.4432836558517188e+00 -7.7364894372198498e-11 1.0000000000000000e+00 6.9743803276132788e+00 1.0000000000000000e+01 4.9747700612111840e+00 
44 45 2 1.4432836558517188e+00 -1.0315319288506778e-10 1.0000000000000000e+00 8.9746487300814284e+00 1.0000000000000000e+01 4.9747700612111840e+00 
505 506 2 1.4432836558517188e+00 -7.7364894372198498e-11 1.0000000000000000e+00 6.9743803276132788e+00 1.2199999999999999e+01 4.9747700612111840e+00 
506 507 2 1.4432836558517188e+00 -1.0315319288506778e-10 1.0000000000000000e+00 8.9746487300814284e+00 1.2199999999999999e+01 4.9747700612111840e+00 
45 46 2 1.4432836558517188e+00 -1.0315319154330581e-10 1.0000000000000000e+00 1.0974687114538749e+01 1.0000000000000000e+01 4.9747700612111840e+00 
507 508 2 1.4432836558517188e+00 -1.0315319154330581e-10 1.0000000000000000e+00 1.0974687114538749e+01 1.2199999999999999e+01 4.9747700612111840e+00 
46 47 2 1.4432836558517188e+00 -1.0315318923389646e-10 1.0000000000000000e+00 1.2974703446507879e+01 1.0000000000000000e+01 4.9747700612111840e+00 
47 48 2 1.4432836558517188e+00 -1.0315318299654497e-10 1.0000000000000000e+00 1.4974718510242706e+01 1.0000000000000000e+01 4.9747700612111840e+00 
508 509 2 1.4432836558517188e+00 -1.0315318923389646e-10 1.0000000000000000e+00 1.2974703446507879e+01 1.2199999999999999e+01 4.9747700612111840e+00 
509 510 2 1.4432836558517188e+00 -1.0315318299654497e-10 1.0000000000000000e+00 1.4974718510242706e+01 1.2199999999999999e+01 4.9747700612111840e+00 
48 49 2 1.4432836558517188e+00 -1.0315318351537280e-10 1.0000000000000000e+00 1.6974745186972019e+01 1.0000000000000000e+01 4.9747700612111840e+00 
510 511 2 1.4432836558517188e+00 -1.0315318351537280e-10 1.0000000000000000e+00 1.6974745186972019e+01 1.2199999999999999e+01 4.9747700612111840e+00 
49 50 2 1.4432836558517188e+00 -1.0315318878417683e-10 1.0000000000000000e+00 1.8974796985139413e+01 1.0000000000000000e+01 4.9747700612111840e+00 
50 51 2 1.4432836558517188e+00 -1.0315318689557102e-10 1.0000000000000000e+00 2.0974891572767316e+01 1.0000000000000000e+01 4.9747700612111840e+00 
511 512 2 1.4432836558517188e+00 -1.0315318878417683e-10 1.0000000000000000e+00 1.8974796985139413e+01 1.2199999999999999e+01 4.9747700612111840e+00 
512 513 2 1.4432836558517188e+00 -1.0315318689557102e-10 1.0000000000000000e+00 2.0974891572767316e+01 1.2199999999999999e+01 4.9747700612111840e+00 
51 52 2 1.4432836558517188e+00 -1.0315318991272390e-10 1.0000000000000000e+00 2.2975053411369593e+01 1.0000000000000000e+01 4.9747700612111840e+00 
513 514 2 1.4432836558517188e+00 -1.0315318991272390e-10 1.0000000000000000e+00 2.2975053411369593e+01 1.2199999999999999e+01 4.9747700612111840e+00 
52 53 2 1.4432836558517188e+00 -1.0315319161816398e-10 1.0000000000000000e+00 2.4975314557407973e+01 1.0000000000000000e+01 4.9747700612111840e+00 
53 54 2 1.4432836558517188e+00 -1.0315319195441530e-10 1.0000000000000000e+00 2.6975714671099730e+01 1.0000000000000000e+01 4.9747700612111840e+00 
514 515 2 1.4432836558517188e+00 -1.0315319161816398e-10 1.0000000000000000e+00 2.4975314557407973e+01 1.2199999999999999e+01 4.9747700612111840e+00 
515 516 2 1.4432836558517188e+00 -1.0315319195441530e-10 1.0000000000000000e+00 2.6975714671099730e+01 1.2199999999999999e+01 4.9747700612111840e+00 
54 55 2 1.4432836558517188e+00 -1.0315319568573264e-10 1.0000000000000000e+00 2.8976301372414969e+01 1.0000000000000000e+01 4.9747700612111840e+00 
516 517 2 1.4432836558517188e+00 -1.0315319568573264e-10 1.0000000000000000e+00 2.8976301372414969e+01 1.2199999999999999e+01 4.9747700612111840e+00 
55 56 2 1.4432836558517188e+00 -1.0315316244537940e-10 1.0000000000000000e+00 3.0977129892076039e+01 1.0000000000000000e+01 4.9747700612111840e+00 
56 57 2 1.4432836558517188e+00 -1.0315316594913729e-10 1.0000000000000000e+00 3.2978260079445420e+01 1.0000000000000000e+01 4.9747700612111840e+00 
517 518 2 1.4432836558517188e+00 -1.0315316244537940e-10 1.0000000000000000e+00 3.0977129892076039e+01 1.2199999999999999e+01 4.9747700612111840e+00 
518 519 2 1.4432836558517188e+00 -1.0315316594913729e-10 1.0000000000000000e+00 3.2978260079445420e+01 1.2199999999999999e+01 4.9747700612111840e+00 
967 968 2 1.4432836558517188e+00 -7.7364894372198498e-11 1.0000000000000000e+00 6.9743803276132788e+00 1.4400000000000000e+01 4.9747700612111840e+00 
968 969 2 1.4432836558517188e+00 -1.0315319288506778e-10 1.0000000000000000e+00 8.9746487300814284e+00 1.4400000000000000e+01 4.9747700612111840e+00 
1429 1430 2 1.4432836558517188e+00 -7.7364894372198498e-11 1.0000000000000000e+00 6.9743803276132788e+00 1.6600000000000001e+01 4.9747700612111840e+00 
1430 1431 2 1.4432836558517188e+00 -1.0315319288506778e-10 1.0000000000000000e+00 8.9746487300814284e+00 1.6600000000000001e+01 4.9747700612111840e+00 
969 970 2 1.4432836558517188e+00 -1.0315319154330581e-10 1.0000000000000000e+00 1.0974687114538749e+01 1.4400000000000000e+01 4.9747700612111840e+00 
1431 1432 2 1.4432836558517188e+00 -1.0315319154330581e-10 1.0000000000000000e+00 1.0974687114538749e+01 1.6600000000000001e+01 4.9747700612111840e+00 
970 971 2 1.4432836558517188e+00 -1.0315318923389646e-10 1.0000000000000000e+00 1.2974703446507879e+01 1.4400000000000000e+01 4.9747700612111840e+00 
971 972 2 1.4432836558517188e+00 -1.0315318299654497e-10 1.0000000000000000e+00 1.4974718510242706e+01 1.4400000000000000e+01 4.9747700612111840e+00 
1432 1433 2 1.4432836558517188e+00 -1.0315318923389646e-10 1.0000000000000000e+00 1.2974703446507879e+01 1.6600000000000001e+01 4.9747700612111840e+00 
1433 1434 2 1.4432836558517188e+00 -1.0315318299654497e-10 1.0000000000000000e+00 1.4974718510242706e+01 1.6600000000000001e+01 4.9747700612111840e+00 
972 973 2 1.4432836558517188e+00 -1.0315318351537280e-10 1.0000000000000000e+00 1.6974745186972019e+01 1.4400000000000000e+01 4.9747700612111840e+00 
1434 1435 2 1.4432836558517188e+00 -1.0315318351537280e-10 1.0000000000000000e+00 1.6974745186972019e+01 1.6600000000000001e+01 4.9747700612111840e+00 
973 974 2 1.4432836558517188e+00 -1.0315318878417683e-10 1.0000000000000000e+00 1.8974796985139413e+01 1.4400000000000000e+01 4.9747700612111840e+00 
974 975 2 1.4432836558517188e+00 -1.0315318689557102e-10 1.0000000000000000e+00 2.0974891572767316e+01 1.4400000000000000e+01 4.9747700612111840e+00 
1435 1436 2 1.4432836558517188e+00 -1.0315318878417683e-10 1.0000000000000000e+00 1.8974796985139413e+01 1.6600000000000001e+01 4.9747700612111840e+00 
1436 1437 2 1.4432836558517188e+00 -1.0315318689557102e-10 1.0000000000000000e+00 2.0974891572767316e+01 1.6600000000000001e+01 4.9747700612111840e+00 
975 976 2 1.4432836558517188e+00 -1.0315318991272390e-10 1.0000000000000000e+00 2.2975053411369593e+01 1.4400000000000000e+01 4.9747700612111840e+00 
1437 1438 2 1.4432836558517188e+00 -1.0315318991272390e-10 1.0000000000000000e+00 2.2975053411369593e+01 1.6600000000000001e+01 4.9747700612111840e+00 
976 977 2 1.4432836558517188e+00 -1.0315319161816398e-10 1.0000000000000000e+00 2.4975314557407973e+01 1.4400000000000000e+01 4.9747700612111840e+00 
977 978 2 1.4432836558517188e+00 -1.0315319195441530e-10 1.0000000000000000e+00 2.6975714671099730e+01 1.4400000000000000e+01 4.9747700612111840e+00 
1438 1439 2 1.4432836558517188e+00 -1.0315319161816398e-10 1.0000000000000000e+00 2.4975314557407973e+01 1.6600000000000001e+01 4.9747700612111840e+00 
1439 1440 2 1.4432836558517188e+00 -1.0315319195441530e-10 1.0000000000000000e+00 2.6975714671099730e+01 1.6600000000000001e+01 4.9747700612111840e+00 
978 979 2 1.4432836558517188e+00 -1.0315319568573264e-10 1.0000000000000000e+00 2.8976301372414969e+01 1.4400000000000000e+01 4.9747700612111840e+00 
1440 1441 2 1.4432836558517188e+00 -1.0315319568573264e-10 1.0000000000000000e+00 2.8976301372414969e+01 1.6600000000000001e+01 4.9747700612111840e+00 
979 980 2 1.4432836558517188e+00 -1.0315316244537940e-10 1.0000000000000000e+00 3.0977129892076039e+01 1.4400000000000000e+01 4.9747700612111840e+00 
980 981 2 1.4432836558517188e+00 -1.0315316594913729e-10 1.0000000000000000e+00 3.2978260079445420e+01 1.4400000000000000e+01 4.9747700612111840e+00 
1441 1442 2 1.4432836558517188e+00 -1.0315316244537940e-10 1.0000000000000000e+00 3.0977129892076039e+01 1.6600000000000001e+01 4.9747700612111840e+00 
1442 1443 2 1.4432836558517188e+00 -1.0315316594913729e-10 1.0000000000000000e+00 3.2978260079445420e+01 1.6600000000000001e+01 4.9747700612111840e+00 
1891 1892 2 1.4432836558517188e+00 -7.7364894372198498e-11 1.0000000000000000e+00 6.9743803276132788e+00 1.8800000000000001e+01 4.9747700612111840e+00 
1892 1893 2 1.4432836558517188e+00 -1.0315319288506778e-10 1.0000000000000000e+00 8.9746487300814284e+00 1.8800000000000001e+01 4.9747700612111840e+00 
1893 1894 2 1.4432836558517188e+00 -1.0315319154330581e-10 1.0000000000000000e+00 1.0974687114538749e+01 1.8800000000000001e+01 4.9747700612111840e+00 
1894 1895 2 1.4432836558517188e+00 -1.0315318923389646e-10 1.0000000000000000e+00 1.2974703446507879e+01 1.8800000000000001e+01 4.9747700612111840e+00 
1895 1896 2 1.4432836558517188e+00 -1.0315318299654497e-10 1.0000000000000000e+00 1.4974718510242706e+01 1.8800000000000001e+01 4.9747700612111840e+00 
1896 1897 2 1.4432836558517188e+00 -1.0315318351537280e-10 1.0000000000000000e+00 1.6974745186972019e+01 1.8800000000000001e+01 4.9747700612111840e+00 
1897 1898 2 1.4432836558517188e+00 -1.0315318878417683e-10 1.0000000000000000e+00 1.8974796985139413e+01 1.8800000000000001e+01 4.9747700612111840e+00 
1898 1899 2 1.4432836558517188e+00 -1.0315318689557102e-10 1.0000000000000000e+00 2.0974891572767316e+01 1.8800000000000001e+01 4.9747700612111840e+00 
1899 1900 2 1.4432836558517188e+00 -1.0315318991272390e-10 1.0000000000000000e+00 2.2975053411369593e+01 1.8800000000000001e+01 4.9747700612111840e+00 
1900 1901 2 1.4432836558517188e+00 -1.0315319161816398e-10 1.0000000000000000e+00 2.4975314557407973e+01 1.8800000000000001e+01 4.9747700612111840e+00 
1901 1902 2 1.4432836558517188e+00 -1.0315319195441530e-10 1.0000000000000000e+00 2.6975714671099730e+01 1.8800000000000001e+01 4.9747700612111840e+00 
1902 1903 2 1.4432836558517188e+00 -1.0315319568573264e-10 1.0000000000000000e+00 2.8976301372414969e+01 1.8800000000000001e+01 4.9747700612111840e+00 
1903 1904 2 1.4432836558517188e+00 -1.0315316244537940e-10 1.0000000000000000e+00 3.0977129892076039e+01 1.8800000000000001e+01 4.9747700612111840e+00 
1904 1905 2 1.4432836558517188e+00 -1.0315316594913729e-10 1.0000000000000000e+00 3.2978260079445420e+01 1.8800000000000001e+01 4.9747700612111840e+00 
85 86 2 1.4432836558517188e+00 -7.7364891377830013e-11 1.0000000000000000e+00 6.9743803276132788e+00 1.0000000000000000e+01 6.9760528347201847e+00 
86 87 2 1.4432836558517188e+00 -1.0315318989069423e-10 1.0000000000000000e+00 8.9746487300814284e+00 1.0000000000000000e+01 6.9760528347201847e+00 
127 128 2 1.4432836558517188e+00 -7.7364891155275376e-11 1.0000000000000000e+00 6.9743803276132788e+00 1.0000000000000000e+01 8.9800637252474829e+00 
128 129 2 1.4432836558517188e+00 -1.0315318966813352e-10 1.0000000000000000e+00 8.9746487300814284e+00 1.0000000000000000e+01 8.9800637252474829e+00 
547 548 2 1.4432836558517188e+00 -7.7364891377830013e-11 1.0000000000000000e+00 6.9743803276132788e+00 1.2199999999999999e+01 6.9760528347201847e+00 
548 549 2 1.4432836558517188e+00 -1.0315318989069423e-10 1.0000000000000000e+00 8.9746487300814284e+00 1.2199999999999999e+01 6.9760528347201847e+00 
589 590 2 1.4432836558517188e+00 -7.7364891155275376e-11 1.0000000000000000e+00 6.9743803276132788e+00 1.2199999999999999e+01 8.9800637252474829e+00 
590 591 2 1.4432836558517188e+00 -1.0315318966813352e-10 1.0000000000000000e+00 8.9746487300814284e+00 1.2199999999999999e+01 8.9800637252474829e+00 
87 88 2 1.4432836558517188e+00 -1.0315318854893033e-10 1.0000000000000000e+00 1.0974687114538749e+01 1.0000000000000000e+01 6.9760528347201847e+00 
129 130 2 1.4432836558517188e+00 -1.0315318832637396e-10 1.0000000000000000e+00 1.0974687114538749e+01 1.0000000000000000e+01 8.9800637252474829e+00 
549 550 2 1.4432836558517188e+00 -1.0315318854893033e-10 1.0000000000000000e+00 1.0974687114538749e+01 1.2199999999999999e+01 6.9760528347201847e+00 
591 592 2 1.4432836558517188e+00 -1.0315318832637396e-10 1.0000000000000000e+00 1.0974687114538749e+01 1.2199999999999999e+01 8.9800637252474829e+00 
88 89 2 1.4432836558517188e+00 -1.0315318623952698e-10 1.0000000000000000e+00 1.2974703446507879e+01 1.0000000000000000e+01 6.9760528347201847e+00 
89 90 2 1.4432836558517188e+00 -1.0315318000217803e-10 1.0000000000000000e+00 1.4974718510242706e+01 1.0000000000000000e+01 6.9760528347201847e+00 
130 131 2 1.4432836558517188e+00 -1.0315318601696939e-10 1.0000000000000000e+00 1.2974703446507879e+01 1.0000000000000000e+01 8.9800637252474829e+00 
131 132 2 1.4432836558517188e+00 -1.0315317977961590e-10 1.0000000000000000e+00 1.4974718510242706e+01 1.0000000000000000e+01 8.9800637252474829e+00 
550 551 2 1.4432836558517188e+00 -1.0315318623952698e-10 1.0000000000000000e+00 1.2974703446507879e+01 1.2199999999999999e+01 6.9760528347201847e+00 
551 552 2 1.4432836558517188e+00 -1.0315318000217803e-10 1.0000000000000000e+00 1.4974718510242706e+01 1.2199999999999999e+01 6.9760528347201847e+00 
592 593 2 1.4432836558517188e+00 -1.0315318601696939e-10 1.0000000000000000e+00 1.2974703446507879e+01 1.2199999999999999e+01 8.9800637252474829e+00 
593 594 2 1.4432836558517188e+00 -1.0315317977961590e-10 1.0000000000000000e+00 1.4974718510242706e+01 1.2199999999999999e+01 8.9800637252474829e+00 
90 91 2 1.4432836558517188e+00 -1.0315318052099954e-10 1.0000000000000000e+00 1.6974745186972019e+01 1.0000000000000000e+01 6.9760528347201847e+00 
132 133 2 1.4432836558517188e+00 -1.0315318029844276e-10 1.0000000000000000e+00 1.6974745186972019e+01 1.0000000000000000e+01 8.9800637252474829e+00 
552 553 2 1.4432836558517188e+00 -1.0315318052099954e-10 1.0000000000000000e+00 1.6974745186972019e+01 1.2199999999999999e+01 6.9760528347201847e+00 
594 595 2 1.4432836558517188e+00 -1.0315318029844276e-10 1.0000000000000000e+00 1.6974745186972019e+01 1.2199999999999999e+01 8.9800637252474829e+00 
91 92 2 1.4432836558517188e+00 -1.0315318578980160e-10 1.0000000000000000e+00 1.8974796985139413e+01 1.0000000000000000e+01 6.9760528347201847e+00 
92 93 2 1.4432836558517188e+00 -1.0315318390119480e-10 1.0000000000000000e+00 2.0974891572767316e+01 1.0000000000000000e+01 6.9760528347201847e+00 
133 134 2 1.4432836558517188e+00 -1.0315318556724476e-10 1.0000000000000000e+00 1.8974796985139413e+01 1.0000000000000000e+01 8.9800637252474829e+00 
134 135 2 1.4432836558517188e+00 -1.0315318367863517e-10 1.0000000000000000e+00 2.0974891572767316e+01 1.0000000000000000e+01 8.9800637252474829e+00 
553 554 2 1.4432836558517188e+00 -1.0315318578980160e-10 1.0000000000000000e+00 1.8974796985139413e+01 1.2199999999999999e+01 6.9760528347201847e+00 
554 555 2 1.4432836558517188e+00 -1.0315318390119480e-10 1.0000000000000000e+00 2.0974891572767316e+01 1.2199999999999999e+01 6.9760528347201847e+00 
595 596 2 1.4432836558517188e+00 -1.0315318556724476e-10 1.0000000000000000e+00 1.8974796985139413e+01 1.2199999999999999e+01 8.9800637252474829e+00 
596 597 2 1.4432836558517188e+00 -1.0315318367863517e-10 1.0000000000000000e+00 2.0974891572767316e+01 1.2199999999999999e+01 8.9800637252474829e+00 
93 94 2 1.4432836558517188e+00 -1.0315318691835069e-10 1.0000000000000000e+00 2.2975053411369593e+01 1.0000000000000000e+01 6.9760528347201847e+00 
135 136 2 1.4432836558517188e+00 -1.0315318669579436e-10 1.0000000000000000e+00 2.2975053411369593e+01 1.0000000000000000e+01 8.9800637252474829e+00 
555 556 2 1.4432836558517188e+00 -1.0315318691835069e-10 1.0000000000000000e+00 2.2975053411369593e+01 1.2199999999999999e+01 6.9760528347201847e+00 
597 598 2 1.4432836558517188e+00 -1.0315318669579436e-10 1.0000000000000000e+00 2.2975053411369593e+01 1.2199999999999999e+01 8.9800637252474829e+00 
94 95 2 1.4432836558517188e+00 -1.0315318862379071e-10 1.0000000000000000e+00 2.4975314557407973e+01 1.0000000000000000e+01 6.9760528347201847e+00 
95 96 2 1.4432836558517188e+00 -1.0315318896004077e-10 1.0000000000000000e+00 2.6975714671099730e+01 1.0000000000000000e+01 6.9760528347201847e+00 
136 137 2 1.4432836558517188e+00 -1.0315318840123195e-10 1.0000000000000000e+00 2.4975314557407973e+01 1.0000000000000000e+01 8.9800637252474829e+00 
137 138 2 1.4432836558517188e+00 -1.0315318873748239e-10 1.0000000000000000e+00 2.6975714671099730e+01 1.0000000000000000e+01 8.9800637252474829e+00 
556 557 2 1.4432836558517188e+00 -1.0315318862379071e-10 1.0000000000000000e+00 2.4975314557407973e+01 1.2199999999999999e+01 6.9760528347201847e+00 
557 558 2 1.4432836558517188e+00 -1.0315318896004077e-10 1.0000000000000000e+00 2.6975714671099730e+01 1.2199999999999999e+01 6.9760528347201847e+00 
598 599 2 1.4432836558517188e+00 -1.0315318840123195e-10 1.0000000000000000e+00 2.4975314557407973e+01 1.2199999999999999e+01 8.9800637252474829e+00 
599 600 2 1.4432836558517188e+00 -1.0315318873748239e-10 1.0000000000000000e+00 2.6975714671099730e+01 1.2199999999999999e+01 8.9800637252474829e+00 
96 97 2 1.4432836558517188e+00 -1.0315319269135942e-10 1.0000000000000000e+00 2.8976301372414969e+01 1.0000000000000000e+01 6.9760528347201847e+00 
138 139 2 1.4432836558517188e+00 -1.0315319246880271e-10 1.0000000000000000e+00 2.8976301372414969e+01 1.0000000000000000e+01 8.9800637252474829e+00 
558 559 2 1.4432836558517188e+00 -1.0315319269135942e-10 1.0000000000000000e+00 2.8976301372414969e+01 1.2199999999999999e+01 6.9760528347201847e+00 
600 601 2 1.4432836558517188e+00 -1.0315319246880271e-10 1.0000000000000000e+00 2.8976301372414969e+01 1.2199999999999999e+01 8.9800637252474829e+00 
97 98 2 1.4432836558517188e+00 -1.0315315945100766e-10 1.0000000000000000e+00 3.0977129892076039e+01 1.0000000000000000e+01 6.9760528347201847e+00 
98 99 2 1.4432836558517188e+00 -1.0315316295476437e-10 1.0000000000000000e+00 3.2978260079445420e+01 1.0000000000000000e+01 6.9760528347201847e+00 
139 140 2 1.4432836558517188e+00 -1.0315315922844942e-10 1.0000000000000000e+00 3.0977129892076039e+01 1.0000000000000000e+01 8.9800637252474829e+00 
140 141 2 1.4432836558517188e+00 -1.0315316273220631e-10 1.0000000000000000e+00 3.2978260079445420e+01 1.0000000000000000e+01 8.9800637252474829e+00 
559 560 2 1.4432836558517188e+00 -1.0315315945100766e-10 1.0000000000000000e+00 3.0977129892076039e+01 1.2199999999999999e+01 6.9760528347201847e+00 
560 561 2 1.4432836558517188e+00 -1.0315316295476437e-10 1.0000000000000000e+00 3.2978260079445420e+01 1.2199999999999999e+01 6.9760528347201847e+00 
601 602 2 1.4432836558517188e+00 -1.0315315922844942e-10 1.0000000000000000e+00 3.0977129892076039e+01 1.2199999999999999e+01 8.9800637252474829e+00 
602 603 2 1.4432836558517188e+00 -1.0315316273220631e-10 1.0000000000000000e+00 3.2978260079445420e+01 1.2199999999999999e+01 8.9800637252474829e+00 
1009 1010 2 1.4432836558517188e+00 -7.7364891377830013e-11 1.0000000000000000e+00 6.9743803276132788e+00 1.4400000000000000e+01 6.9760528347201847e+00 