LAMMPS data file via write_data, version 30 Jul 2016, timestep = 50000000

180 atoms
2 atom types

0.0000000000000000e+00 2.0000000000000000e+01 xlo xhi
0.0000000000000000e+00 2.0000000000000000e+01 ylo yhi
0.0000000000000000e+00 2.0000000000000000e+01 zlo zhi

Masses

1 3.896
2 4.31

Atoms # meso-molecular

140 1 2 1.4999990867906523e+00 -3.0711918573888403e+02 1.0000000000000000e+00 6.0198221069381219e+00 2.2522365756365481e+00 1.4616524562145795e+01 
9 1 2 1.4999990868715909e+00 -3.0198623495243118e+02 1.0000000000000000e+00 6.0198220751126836e+00 2.2521976145907323e+00 1.4616530636969015e+01 
165 1 2 1.4999990868650208e+00 -2.7977326357716828e+02 1.0000000000000000e+00 6.0198220773882927e+00 2.2522007676780214e+00 1.4616530145471213e+01 
126 1 2 1.4999990869017408e+00 -3.7377415906788741e+02 1.0000000000000000e+00 6.0198220701694867e+00 2.2521831035715172e+00 1.4616532895393870e+01 
42 1 2 1.5000008188434850e+00 -2.5852723893338617e+02 1.0000000000000000e+00 6.4037630175773437e+00 1.1940951848072121e+00 1.4957796911925572e+01 
138 1 2 1.5000008189350245e+00 -3.2365485124153173e+02 1.0000000000000000e+00 6.4038879709435435e+00 1.1940281559601202e+00 1.4957819194006010e+01 
37 1 2 1.5000009729031367e+00 -2.5766974075946331e+02 1.0000000000000000e+00 6.2708145644602311e+00 1.1357721581184350e+00 1.5028669357282746e+01 
69 1 2 1.5000006066287570e+00 -2.8202412343855787e+02 1.0000000000000000e+00 5.4702699542677600e+00 3.1452174484089572e+00 1.6496966727432568e+01 
96 1 2 1.5000006066287075e+00 -4.0695361461840633e+02 1.0000000000000000e+00 5.4702699503311374e+00 3.1452174518376101e+00 1.6496966723526647e+01 
102 1 2 1.5000006066287570e+00 -3.5069913649131087e+02 1.0000000000000000e+00 5.4702699537370982e+00 3.1452174488666005e+00 1.6496966726909214e+01 
90 1 2 1.5000006066287552e+00 -2.8750062322931984e+02 1.0000000000000000e+00 5.4702699547631264e+00 3.1452174481141375e+00 1.6496966727828024e+01 
164 1 2 1.5000006066287344e+00 -3.2390139745776850e+02 1.0000000000000000e+00 5.4702699569630884e+00 3.1452174460532079e+00 1.6496966730112874e+01 
74 1 2 1.5000006066287090e+00 -2.2930893885526169e+02 1.0000000000000000e+00 5.4702699503175207e+00 3.1452174518468090e+00 1.6496966723515001e+01 
55 1 2 1.5000006066286775e+00 -3.4386240856545970e+02 1.0000000000000000e+00 5.4702698783948254e+00 3.1452175026214118e+00 1.6496966660495204e+01 
84 1 2 1.5000006066287102e+00 -3.8638249023837301e+02 1.0000000000000000e+00 5.4702699503176833e+00 3.1452174518470684e+00 1.6496966723514877e+01 
97 1 2 1.5000006066287259e+00 -3.4487767914736304e+02 1.0000000000000000e+00 5.4702699514592545e+00 3.1452174508567228e+00 1.6496966724644782e+01 
50 1 2 1.5000009153359635e+00 -3.8961112777392276e+02 1.0000000000000000e+00 5.9659303622964543e+00 1.7547008375941363e+01 1.3006659910590015e+01 
103 1 2 1.5000009153359630e+00 -2.8909082532312209e+02 1.0000000000000000e+00 5.9659303631845688e+00 1.7547008377429862e+01 1.3006659910024279e+01 
105 1 2 1.5000009153359484e+00 -4.5543682608279937e+02 1.0000000000000000e+00 5.9659303646180843e+00 1.7547008379826590e+01 1.3006659909134738e+01 
144 1 2 1.5000009153359424e+00 -3.2514752434526520e+02 1.0000000000000000e+00 5.9659303641582957e+00 1.7547008379039333e+01 1.3006659909493056e+01 
4 1 2 1.5000009153360130e+00 -3.0642451489879898e+02 1.0000000000000000e+00 5.9659303531708829e+00 1.7547008360646952e+01 1.3006659916400082e+01 
168 1 2 1.5000009153360223e+00 -3.5475743522487727e+02 1.0000000000000000e+00 5.9659303520902771e+00 1.7547008358843772e+01 1.3006659917056950e+01 
17 1 2 1.5000009153359433e+00 -3.6708969844467254e+02 1.0000000000000000e+00 5.9659303641937029e+00 1.7547008379102284e+01 1.3006659909456353e+01 
40 1 2 1.5000009153360911e+00 -2.0618410538607566e+02 1.0000000000000000e+00 5.9659303423991581e+00 1.7547008342630143e+01 1.3006659923114215e+01 
1 1 2 1.5000009153359473e+00 -3.3758215436839976e+02 1.0000000000000000e+00 5.9659303639988712e+00 1.7547008378780671e+01 1.3006659909561010e+01 
64 1 2 1.5000009153359501e+00 -3.5702015814628936e+02 1.0000000000000000e+00 5.9659303643914168e+00 1.7547008379446368e+01 1.3006659909280327e+01 
106 1 2 1.4999999967036921e+00 -4.2181259862749340e+02 1.0000000000000000e+00 1.2376474058912386e+01 9.5818879232881926e+00 9.9014389959563864e+00 
76 1 2 1.4999999967036926e+00 -2.9823081123597888e+02 1.0000000000000000e+00 1.2376474058912356e+01 9.5818879232881589e+00 9.9014389959563456e+00 
43 1 2 1.4999999966803479e+00 -2.4701131511985278e+02 1.0000000000000000e+00 1.2376361865598483e+01 9.5820141922906537e+00 9.9014316687219477e+00 
29 1 2 1.4999999966986097e+00 -3.4272503493656768e+02 1.0000000000000000e+00 1.2376449619518002e+01 9.5819153423180872e+00 9.9014373665756050e+00 
158 1 2 1.4999999967036930e+00 -3.7689872539414648e+02 1.0000000000000000e+00 1.2376474058979580e+01 9.5818879232147758e+00 9.9014389959619429e+00 
86 1 2 1.4999999967036926e+00 -3.8910667976220361e+02 1.0000000000000000e+00 1.2376474058912509e+01 9.5818879232880061e+00 9.9014389959563669e+00 
108 1 2 1.4999999967036926e+00 -3.7827265953943134e+02 1.0000000000000000e+00 1.2376474058912267e+01 9.5818879232883294e+00 9.9014389959563793e+00 
48 1 2 1.4999999967036921e+00 -3.9887539579097518e+02 1.0000000000000000e+00 1.2376474058913926e+01 9.5818879232864145e+00 9.9014389959564628e+00 
142 1 2 1.4999999967036926e+00 -3.8130265062308888e+02 1.0000000000000000e+00 1.2376474058912365e+01 9.5818879232881962e+00 9.9014389959563722e+00 
118 1 2 1.4999999967036921e+00 -2.8105044364606488e+02 1.0000000000000000e+00 1.2376474058912807e+01 9.5818879232877077e+00 9.9014389959564078e+00 
145 1 2 1.5000002687286620e+00 -2.3305926250788059e+02 1.0000000000000000e+00 7.2171370152432237e+00 3.2347061083910149e+00 1.2898875222400562e+01 
150 1 2 1.5000002682740530e+00 -3.9996361395275710e+02 1.0000000000000000e+00 7.2203526911043223e+00 3.2360432905419829e+00 1.2896333761319223e+01 
160 1 2 1.5000002658819218e+00 -4.3442823306904518e+02 1.0000000000000000e+00 7.2449253829521174e+00 3.2454361347988092e+00 1.2879759771974918e+01 
22 1 2 1.5000002657109033e+00 -3.2174016267231531e+02 1.0000000000000000e+00 7.2476171849299869e+00 3.2463829654812959e+00 1.2878229748765614e+01 
16 1 2 1.5000002657108955e+00 -3.8101936219330378e+02 1.0000000000000000e+00 7.2476171928793010e+00 3.2463829682565013e+00 1.2878229744323413e+01 
15 1 2 1.5000002657109055e+00 -3.2433763649559472e+02 1.0000000000000000e+00 7.2476171764238924e+00 3.2463829625041973e+00 1.2878229753532191e+01 
58 1 2 1.5000002657109024e+00 -2.6945153413145522e+02 1.0000000000000000e+00 7.2476171892052763e+00 3.2463829669745690e+00 1.2878229746375274e+01 
41 1 2 1.5000002655794813e+00 -3.0005431303066223e+02 1.0000000000000000e+00 7.2498194350073817e+00 3.2471457853347365e+00 1.2877018580839918e+01 
13 1 2 1.4999998425729466e+00 -2.5900090994208938e+02 1.0000000000000000e+00 7.8749316737186303e+00 5.5574967419425736e+00 1.2794789478880912e+01 
14 1 2 1.4999998425729462e+00 -3.1675307376593207e+02 1.0000000000000000e+00 7.8749316738862154e+00 5.5574967418856094e+00 1.2794789478592087e+01 
7 1 2 1.4999998425729471e+00 -2.4377534316074264e+02 1.0000000000000000e+00 7.8749316736000159e+00 5.5574967419829084e+00 1.2794789479085768e+01 
68 1 2 1.4999998425716916e+00 -3.7710213422729072e+02 1.0000000000000000e+00 7.8749329145437548e+00 5.5574963241111623e+00 1.2794787444046269e+01 
123 1 2 1.4999998425773149e+00 -3.0850877769187156e+02 1.0000000000000000e+00 7.8749275182500460e+00 5.5574981489191408e+00 1.2794796497447550e+01 
60 1 2 1.4999998425716896e+00 -2.4567203057244703e+02 1.0000000000000000e+00 7.8749329136202739e+00 5.5574963240766770e+00 1.2794787436502242e+01 
152 1 2 1.4999998425756813e+00 -3.8945630738248838e+02 1.0000000000000000e+00 7.8749291303042357e+00 5.5574976053604672e+00 1.2794793833431243e+01 
23 1 2 1.4999998425716874e+00 -4.1895990778847033e+02 1.0000000000000000e+00 7.8749329164493842e+00 5.5574963235493264e+00 1.2794787443015306e+01 
77 1 2 1.4999998425792482e+00 -3.4123655182974443e+02 1.0000000000000000e+00 7.8749255679658905e+00 5.5574988032652630e+00 1.2794799635711319e+01 
107 1 2 1.5000020539005052e+00 -3.7658229343071577e+02 1.0000000000000000e+00 6.9603299947303823e+00 4.5274828953604251e-01 1.5615239579255338e+01 
26 1 2 1.5000003464801990e+00 -2.5261830523054346e+02 1.0000000000000000e+00 8.9739394724968466e+00 1.8075326328306740e+01 1.4775583383414659e+00 
130 1 2 1.5000003464802036e+00 -3.3658826168824561e+02 1.0000000000000000e+00 8.9739394725763919e+00 1.8075326327738097e+01 1.4775583385891999e+00 
18 1 2 1.5000003464801992e+00 -3.5763606871457210e+02 1.0000000000000000e+00 8.9739394724968342e+00 1.8075326328306733e+01 1.4775583383414375e+00 
54 1 2 1.5000003464802001e+00 -2.7635129312886733e+02 1.0000000000000000e+00 8.9739394724967791e+00 1.8075326328307256e+01 1.4775583383412469e+00 
25 1 2 1.5000003464801999e+00 -2.8117712673507492e+02 1.0000000000000000e+00 8.9739394724968324e+00 1.8075326328306815e+01 1.4775583383414201e+00 
151 1 2 1.5000003464802003e+00 -2.0836516429647278e+02 1.0000000000000000e+00 8.9739394724967632e+00 1.8075326328307426e+01 1.4775583383411890e+00 
19 1 2 1.5000003464801999e+00 -3.2420561586386225e+02 1.0000000000000000e+00 8.9739394724968751e+00 1.8075326328306851e+01 1.4775583383415112e+00 
93 1 2 1.5000003464802023e+00 -3.4358817513217485e+02 1.0000000000000000e+00 8.9739394725719155e+00 1.8075326327726465e+01 1.4775583385802034e+00 
20 1 2 1.5000003464801988e+00 -3.6805668664805142e+02 1.0000000000000000e+00 8.9739394724968040e+00 1.8075326328306829e+01 1.4775583383413640e+00 
99 1 2 1.4999998670067289e+00 -5.7749992720220632e+02 1.0000000000000000e+00 1.1839972180284819e+01 1.8923340688346084e+01 2.6226874790855885e+00 
46 1 2 1.4999998245594808e+00 -4.3939344600328144e+02 1.0000000000000000e+00 1.1741666308062056e+01 1.9062870973167044e+01 2.5060211359068219e+00 
24 1 2 1.4999997877778626e+00 -3.9607937269982301e+02 1.0000000000000000e+00 1.1564225826862984e+01 1.9198013200305120e+01 2.3495814519678198e+00 
32 1 2 1.4999997922487061e+00 -3.2797513842060721e+02 1.0000000000000000e+00 1.1440077221398329e+01 1.9244550503982889e+01 2.2599867235134079e+00 
117 1 2 1.4999997981055730e+00 -3.7069525646442776e+02 1.0000000000000000e+00 1.1397776589185103e+01 1.9254193591157737e+01 2.2315293713412867e+00 
63 1 2 1.4999997981204052e+00 -3.8534942119938148e+02 1.0000000000000000e+00 1.1397682861894577e+01 1.9254211928545061e+01 2.2314673128239537e+00 
95 1 2 1.4999997981355664e+00 -2.4951428604665134e+02 1.0000000000000000e+00 1.1397587379696347e+01 1.9254230594446515e+01 2.2314040912452628e+00 
65 1 2 1.4999997981286097e+00 -3.6200740004248314e+02 1.0000000000000000e+00 1.1397630864321275e+01 1.9254222095565407e+01 2.2314328842400180e+00 
8 1 2 1.4999998260249683e+00 -2.4663721420840082e+02 1.0000000000000000e+00 1.1546084991996763e+01 1.9121126935073011e+01 2.1245888230788537e+00 
128 1 2 1.5000001722710425e+00 -3.0330366103858620e+02 1.0000000000000000e+00 1.1131769263957208e+01 1.6899795213516743e+01 3.3891779664261565e+00 
170 1 2 1.5000001723932446e+00 -3.5195223871849203e+02 1.0000000000000000e+00 1.1131393968332461e+01 1.6899744335344970e+01 3.3891451172201630e+00 
166 1 2 1.5000001723932423e+00 -4.1764354898569269e+02 1.0000000000000000e+00 1.1131393968029318e+01 1.6899744335394686e+01 3.3891451173397500e+00 
173 1 2 1.5000001723932437e+00 -3.1683970881499397e+02 1.0000000000000000e+00 1.1131393968046856e+01 1.6899744335391809e+01 3.3891451173328231e+00 
80 1 2 1.5000001723932450e+00 -3.7385781597532019e+02 1.0000000000000000e+00 1.1131393968041536e+01 1.6899744335392651e+01 3.3891451173348668e+00 
137 1 2 1.5000001723932432e+00 -2.6898118852283807e+02 1.0000000000000000e+00 1.1131393968047474e+01 1.6899744335391578e+01 3.3891451173323723e+00 
167 1 2 1.5000001723932421e+00 -2.8091433732709663e+02 1.0000000000000000e+00 1.1131393968047748e+01 1.6899744335391532e+01 3.3891451173322675e+00 
172 1 2 1.5000001723932437e+00 -3.5786815740289182e+02 1.0000000000000000e+00 1.1131393968046977e+01 1.6899744335391794e+01 3.3891451173327840e+00 
73 1 2 1.5000001723932428e+00 -3.3287591218121986e+02 1.0000000000000000e+00 1.1131393968050425e+01 1.6899744335391166e+01 3.3891451173313270e+00 
131 1 2 1.4999996763873080e+00 -3.6655340842833800e+02 1.0000000000000000e+00 7.8195078508176348e+00 1.5090865492019162e+01 8.7293927166548695e+00 
83 1 2 1.4999997174153459e+00 -4.5094974143395564e+02 1.0000000000000000e+00 7.8051185326886063e+00 1.5229843131880660e+01 8.7255175997957917e+00 
38 1 2 1.4999997299523418e+00 -3.2735568782959706e+02 1.0000000000000000e+00 7.8696384459573068e+00 1.4993563249521834e+01 8.7423572840849815e+00 
127 1 2 1.5000003108736315e+00 -4.2631227898522775e+02 1.0000000000000000e+00 7.9856278454818046e+00 1.5588344680010886e+01 8.8426611863126663e+00 
67 1 2 1.4999975144403903e+00 -2.4428777662073034e+02 1.0000000000000000e+00 7.7667534194619590e+00 1.4419225985883822e+01 9.6966086335635708e+00 
88 1 2 1.4999973204196546e+00 -4.2972454087421511e+02 1.0000000000000000e+00 7.6773213028083998e+00 1.4414920987290891e+01 9.6955849407552499e+00 
89 1 2 1.4999973361421139e+00 -4.5884165120345904e+02 1.0000000000000000e+00 7.6839359522394544e+00 1.4414135557425578e+01 9.6925240220158031e+00 
53 1 2 1.4999973411595136e+00 -3.2677353853851929e+02 1.0000000000000000e+00 7.6956956348738190e+00 1.4420061292744633e+01 9.7120167578865590e+00 
119 1 2 1.4999973187802182e+00 -3.6563224542899155e+02 1.0000000000000000e+00 7.6795353601669092e+00 1.4416639125405762e+01 9.7015918211220722e+00 
52 1 2 1.4999975018406417e+00 -3.1522875065068712e+02 1.0000000000000000e+00 7.7635474184057829e+00 1.4420698405527149e+01 9.7020817453801609e+00 
177 1 2 1.5000026739952803e+00 -4.1359967332943182e+02 1.0000000000000000e+00 1.0698627954929423e+01 1.4899148473978215e+01 8.7083470370896894e+00 
91 1 2 1.5000026739734638e+00 -2.8690393824559732e+02 1.0000000000000000e+00 1.0698627827286288e+01 1.4899153744367254e+01 8.7083458932441822e+00 
161 1 2 1.5000026739959227e+00 -4.6285241485712896e+02 1.0000000000000000e+00 1.0698627779299965e+01 1.4899150346079709e+01 8.7083457296261972e+00 
121 1 2 1.5000026739938546e+00 -3.3361189213547010e+02 1.0000000000000000e+00 1.0698627934864493e+01 1.4899148949526216e+01 8.7083468747255299e+00 
153 1 2 1.5000026739991372e+00 -3.0519071417581227e+02 1.0000000000000000e+00 1.0698627970415288e+01 1.4899147619684806e+01 8.7083471865971855e+00 
148 1 2 1.5000026739994010e+00 -3.8469786673111133e+02 1.0000000000000000e+00 1.0698627969962688e+01 1.4899147580536038e+01 8.7083471854114975e+00 
178 1 2 1.5000026740000547e+00 -4.3462373989047711e+02 1.0000000000000000e+00 1.0698627953283818e+01 1.4899147656182503e+01 8.7083470663053362e+00 
143 1 2 1.5000026740286856e+00 -3.8489558197369212e+02 1.0000000000000000e+00 1.0698627165413779e+01 1.4899151524473792e+01 8.7083414261406578e+00 
101 1 2 1.5000026739805392e+00 -3.4113345587652782e+02 1.0000000000000000e+00 1.0698628341668297e+01 1.4899146695632215e+01 8.7083498001879072e+00 
147 1 2 1.5000026740000567e+00 -3.2105477195211705e+02 1.0000000000000000e+00 1.0698627953277921e+01 1.4899147656006063e+01 8.7083470662733351e+00 
132 1 2 1.5000040976509694e+00 -3.1591377155664463e+02 1.0000000000000000e+00 6.7699596448743620e+00 1.6492872981659168e+01 1.0146504188842401e+01 
109 1 2 1.5000040976969311e+00 -3.4036076076702352e+02 1.0000000000000000e+00 6.7699768786045791e+00 1.6492882318704631e+01 1.0146506574696527e+01 
11 1 2 1.5000040976969260e+00 -2.8719364618282407e+02 1.0000000000000000e+00 6.7699768746025883e+00 1.6492882316534423e+01 1.0146506574151159e+01 
10 1 2 1.5000040976969238e+00 -2.8917743196817617e+02 1.0000000000000000e+00 6.7699768745996645e+00 1.6492882316532533e+01 1.0146506574152067e+01 
47 1 2 1.5000040976969262e+00 -3.0311117888179058e+02 1.0000000000000000e+00 6.7699768746003608e+00 1.6492882316533244e+01 1.0146506574150740e+01 
12 1 2 1.5000040976969262e+00 -3.1209579388401994e+02 1.0000000000000000e+00 6.7699768746033682e+00 1.6492882316534622e+01 1.0146506574152205e+01 
125 1 2 1.5000040978412441e+00 -4.1079405103516945e+02 1.0000000000000000e+00 6.7699633781288711e+00 1.6492873226892012e+01 1.0146512166362616e+01 
61 1 2 1.5000040953341121e+00 -2.5755301329719549e+02 1.0000000000000000e+00 6.7696300784511649e+00 1.6492708363856881e+01 1.0146399282537528e+01 
75 1 2 1.4999999037833194e+00 -1.8720301183464790e+02 1.0000000000000000e+00 7.5146936473456032e+00 1.5838333053798356e+01 1.5288253892500808e+01 
169 1 2 1.4999998964730192e+00 -5.1422176110000532e+02 1.0000000000000000e+00 7.5139647075390394e+00 1.5838479179302423e+01 1.5286537564987899e+01 
136 1 2 1.4999998578904568e+00 -2.8444757732800406e+02 1.0000000000000000e+00 7.5094102521661412e+00 1.5839588540130778e+01 1.5277994221577044e+01 
133 1 2 1.4999998567648587e+00 -3.7664177219198234e+02 1.0000000000000000e+00 7.5092851936875018e+00 1.5839619552076575e+01 1.5277744142696916e+01 
174 1 2 1.4999998493318529e+00 -4.7827218046313988e+02 1.0000000000000000e+00 7.5084554697827155e+00 1.5839828071548224e+01 1.5276098410122962e+01 
180 1 2 1.4999998435768225e+00 -4.7101964735489184e+02 1.0000000000000000e+00 7.5078304686007167e+00 1.5839985402813582e+01 1.5274818954619507e+01 
139 1 2 1.4999998433671944e+00 -3.7905890501039670e+02 1.0000000000000000e+00 7.5078074100141539e+00 1.5839991290761438e+01 1.5274772590265449e+01 
175 1 2 1.4999999396483068e+00 -4.0023039866001631e+02 1.0000000000000000e+00 7.5190440854125518e+00 1.5837383436619847e+01 1.5296407781752189e+01 
129 1 2 1.4999989292932310e+00 -4.4620015817412906e+02 1.0000000000000000e+00 9.1957103360098014e+00 1.7457706742203072e+01 1.4017232072211506e+01 
59 1 2 1.4999988468119339e+00 -2.3119986479272893e+02 1.0000000000000000e+00 9.1878372138025259e+00 1.7469685508293946e+01 1.4016135153160475e+01 
72 1 2 1.4999988457094906e+00 -2.7240059082294181e+02 1.0000000000000000e+00 9.1878662820760102e+00 1.7469414339010701e+01 1.4015964475052456e+01 
66 1 2 1.4999988457095237e+00 -3.2898033820474126e+02 1.0000000000000000e+00 9.1878662826092405e+00 1.7469414338705857e+01 1.4015964475492082e+01 
62 1 2 1.4999988460449465e+00 -3.5018406083105060e+02 1.0000000000000000e+00 9.1878835693171439e+00 1.7469414105981713e+01 1.4015986096928454e+01 
79 1 2 1.4999988457097035e+00 -3.7479858240156670e+02 1.0000000000000000e+00 9.1878662934308863e+00 1.7469414332626410e+01 1.4015964484493615e+01 
3 1 2 1.4999988457007727e+00 -2.4447627792691276e+02 1.0000000000000000e+00 9.1878657327132789e+00 1.7469414650151432e+01 1.4015964020013376e+01 
39 1 2 1.4999988457091589e+00 -2.2385230306613289e+02 1.0000000000000000e+00 9.1878662576528249e+00 1.7469414352747162e+01 1.4015964454749525e+01 
70 1 2 1.4999988457087052e+00 -2.8323730232502953e+02 1.0000000000000000e+00 9.1878662287488115e+00 1.7469414369002440e+01 1.4015964430720372e+01 
149 1 2 1.5000044589253916e+00 -3.8436090339293935e+02 1.0000000000000000e+00 8.5418781888813822e+00 1.7389742891496507e+01 1.5737210793410513e+01 
141 1 2 1.5000109665243524e+00 -2.7792970481089378e+02 1.0000000000000000e+00 7.0679871561353433e+00 1.9628167517966126e+01 1.5919420808161641e+01 
154 1 2 1.5000036435021251e+00 -3.0509230772376395e+02 1.0000000000000000e+00 8.2402943892725897e+00 1.7609480266932952e+01 1.6500928352110012e+01 
110 1 2 1.5000013103538095e+00 -4.0118904232879225e+02 1.0000000000000000e+00 7.1982940037594139e+00 1.6701767767319648e+01 1.6579657241880657e+01 
163 1 2 1.4999971490217683e+00 -4.0379954704887962e+02 1.0000000000000000e+00 7.0503146745751586e+00 1.9765163788290895e+01 1.5942554333101695e+01 
159 1 2 1.4999971409487403e+00 -3.6156481299755058e+02 1.0000000000000000e+00 7.0503408594616079e+00 1.9765006403786639e+01 1.5942758427100330e+01 
28 1 2 1.4999973404868407e+00 -2.9128889190190858e+02 1.0000000000000000e+00 7.0495242950961741e+00 1.9769446136788453e+01 1.5937453014413137e+01 
21 1 2 1.4999978402108716e+00 -3.1371396068041679e+02 1.0000000000000000e+00 7.0468254819715659e+00 1.9782183798008607e+01 1.5923593815872243e+01 
27 1 2 1.4999986883749756e+00 -3.6715166658513721e+02 1.0000000000000000e+00 7.0381443061740327e+00 1.9818657656261607e+01 1.5893196848304434e+01 
71 1 2 1.4999987518302835e+00 -3.4212286491451283e+02 1.0000000000000000e+00 7.0369584905207168e+00 1.9823716254959905e+01 1.5889801473538606e+01 
157 1 2 1.4999994034620381e+00 -3.7661599870328087e+02 1.0000000000000000e+00 6.8855769251663634e+00 1.7903168258186525e+01 1.7285143380457512e+01 
81 1 2 1.4999994098313936e+00 -3.4746369873213780e+02 1.0000000000000000e+00 6.8835934659786995e+00 1.7902714969431226e+01 1.7278205161659038e+01 
33 1 2 1.4999994115811095e+00 -3.3185076014370304e+02 1.0000000000000000e+00 6.8833283886482217e+00 1.7902091149563905e+01 1.7277267224373048e+01 
44 1 2 1.4999994138661645e+00 -2.2175883225081120e+02 1.0000000000000000e+00 6.8829381846347673e+00 1.7901364228582636e+01 1.7275881853885611e+01 
146 1 2 1.4999995974782085e+00 -3.1617753630869134e+02 1.0000000000000000e+00 7.0297103162659234e+00 1.7611894292529964e+01 1.7622527457943907e+01 
176 1 2 1.4999996187680140e+00 -3.6468401207249229e+02 1.0000000000000000e+00 7.0476993694062307e+00 1.7583178119335113e+01 1.7650511245420962e+01 
155 1 2 1.5000001431596148e+00 -3.0177719900845705e+02 1.0000000000000000e+00 8.6664121675709769e+00 1.7571402597309799e+01 1.8809091305660868e+01 
78 1 2 1.5000001413491233e+00 -3.4260497613219803e+02 1.0000000000000000e+00 8.6666759364569241e+00 1.7572419113865443e+01 1.8809917149742613e+01 
57 1 2 1.5000001413493009e+00 -2.4524124476427960e+02 1.0000000000000000e+00 8.6666758995344235e+00 1.7572418978701034e+01 1.8809917082870673e+01 
82 1 2 1.5000001413492488e+00 -2.4590088764126955e+02 1.0000000000000000e+00 8.6666759103647291e+00 1.7572419018278655e+01 1.8809917102052975e+01 
156 1 2 1.5000001413493913e+00 -3.7237806051495267e+02 1.0000000000000000e+00 8.6666757570091555e+00 1.7572418494418351e+01 1.8809917058141636e+01 
120 1 2 1.5000001413493700e+00 -3.2727070057471593e+02 1.0000000000000000e+00 8.6666758820059133e+00 1.7572418914813408e+01 1.8809917052869142e+01 
104 1 2 1.5000001413602075e+00 -5.0083420949098371e+02 1.0000000000000000e+00 8.6666746159802130e+00 1.7572413847340275e+01 1.8809912062747646e+01 
31 1 2 1.5000001420195468e+00 -2.8365548515941805e+02 1.0000000000000000e+00 8.6666003397858535e+00 1.7572115303020734e+01 1.8809608993794843e+01 
5 1 2 1.5000069937155309e+00 -4.2162114623688808e+02 1.0000000000000000e+00 1.6657501191775783e+01 2.6745545827178279e+00 1.0905693840997094e+01 
35 1 2 1.5000069937162941e+00 -3.2630209877502364e+02 1.0000000000000000e+00 1.6657517542051906e+01 2.6745073761507969e+00 1.0905712840517058e+01 
30 1 2 1.5000069937158684e+00 -2.8705600370973190e+02 1.0000000000000000e+00 1.6657506839984382e+01 2.6745281793380404e+00 1.0905706578488278e+01 
6 1 2 1.5000069937162555e+00 -4.0228348503335451e+02 1.0000000000000000e+00 1.6657515383875541e+01 2.6745138792672432e+00 1.0905710165231564e+01 
36 1 2 1.5000069937155318e+00 -3.7014296056295098e+02 1.0000000000000000e+00 1.6657500766744835e+01 2.6745512372108107e+00 1.0905696143897380e+01 
111 1 2 1.5000069937189893e+00 -3.0925828518699097e+02 1.0000000000000000e+00 1.6657576144289131e+01 2.6745220831872021e+00 1.0905668449859172e+01 
2 1 2 1.5000069937047007e+00 -3.5684028123254802e+02 1.0000000000000000e+00 1.6657626774205852e+01 2.6747587555078627e+00 1.0905493383005954e+01 
179 1 2 1.5000069936092739e+00 -3.2376424886691461e+02 1.0000000000000000e+00 1.6658237854571709e+01 2.6747007930391042e+00 1.0905161824914446e+01 
134 1 2 1.5000069934432523e+00 -3.3153405324728135e+02 1.0000000000000000e+00 1.6658391407410544e+01 2.6750918529136269e+00 1.0904832781245458e+01 
87 1 2 1.5000069933073792e+00 -3.4985523600795483e+02 1.0000000000000000e+00 1.6658832381149576e+01 2.6748125080682965e+00 1.0904739924523554e+01 
49 1 2 1.4999929959629212e+00 -3.1336895646216635e+02 1.0000000000000000e+00 1.8035664838959534e+01 4.0721521142464052e+00 1.3203043353966766e+01 
85 1 2 1.4999929961526564e+00 -3.3010413580801355e+02 1.0000000000000000e+00 1.8035660993999414e+01 4.0720157470861622e+00 1.3203125352292776e+01 
34 1 2 1.4999929934550962e+00 -4.2327026959205466e+02 1.0000000000000000e+00 1.8037058614720099e+01 4.0736009408542238e+00 1.3201369346196177e+01 
114 1 2 1.4999929934559821e+00 -3.2732830477556843e+02 1.0000000000000000e+00 1.8037057806778552e+01 4.0735999016486284e+00 1.3201370447870669e+01 
113 1 2 1.4999929934651113e+00 -3.9869328780789135e+02 1.0000000000000000e+00 1.8037049272617448e+01 4.0735893076225818e+00 1.3201381853948318e+01 
116 1 2 1.4999929934625129e+00 -3.7614739486781491e+02 1.0000000000000000e+00 1.8037051743356066e+01 4.0735923141351735e+00 1.3201378588284278e+01 
162 1 2 1.4999929933440259e+00 -4.6012522197444594e+02 1.0000000000000000e+00 1.8037186050790694e+01 4.0737294407670293e+00 1.3201216656935751e+01 
100 1 2 1.4999929954446536e+00 -3.9799632569929406e+02 1.0000000000000000e+00 1.8039817212373727e+01 4.0764074844342497e+00 1.3197972974348131e+01 
112 1 2 1.4999929954586031e+00 -2.7978034503683682e+02 1.0000000000000000e+00 1.8039822548702176e+01 4.0764137370884379e+00 1.3197965728410555e+01 
94 1 2 1.4999930143876439e+00 -3.5168599032047058e+02 1.0000000000000000e+00 1.8043081225678911e+01 4.0808903186056167e+00 1.3192958769844022e+01 
135 1 2 1.4999999985648911e+00 -3.3283582071143138e+02 1.0000000000000000e+00 1.3935151355424738e+01 1.0836613343822652e+01 7.6371800758786348e+00 
171 1 2 1.4999999985648738e+00 -2.8940924561063673e+02 1.0000000000000000e+00 1.3935151019219262e+01 1.0836613069506004e+01 7.6371796924297373e+00 
122 1 2 1.4999999985648702e+00 -2.5861006832302382e+02 1.0000000000000000e+00 1.3935151069937170e+01 1.0836613067325485e+01 7.6371797261349341e+00 
98 1 2 1.4999999985648680e+00 -5.2596410785109845e+02 1.0000000000000000e+00 1.3935151134817058e+01 1.0836613085085499e+01 7.6371797806388546e+00 
45 1 2 1.4999999985648711e+00 -2.9392359068950657e+02 1.0000000000000000e+00 1.3935151083324955e+01 1.0836613070750623e+01 7.6371797372489043e+00 
92 1 2 1.4999999985648966e+00 -3.3635814352260741e+02 1.0000000000000000e+00 1.3935151467004134e+01 1.0836613501274872e+01 7.6371802399392719e+00 
115 1 2 1.4999999985648949e+00 -3.5612877717526214e+02 1.0000000000000000e+00 1.3935151531975871e+01 1.0836613516502483e+01 7.6371802931034871e+00 
124 1 2 1.4999999985648951e+00 -4.4189370711999197e+02 1.0000000000000000e+00 1.3935151531825372e+01 1.0836613516183739e+01 7.6371802928232571e+00 
56 1 2 1.4999999985648795e+00 -4.0314050511832397e+02 1.0000000000000000e+00 1.3935151074929720e+01 1.0836613131792758e+01 7.6371797652954170e+00 
51 1 2 1.4999999985648969e+00 -2.7824269384205695e+02 1.0000000000000000e+00 1.3935151529544644e+01 1.0836613533915058e+01 7.6371803010788666e+00 

Velocities

140 -5.5529158526152943e-02 -3.8293298945737658e-02 3.6940181982001286e-01
9 -5.5529160346703375e-02 -3.8293293138964096e-02 3.6940181903729413e-01
165 -5.5529160199340698e-02 -3.8293293608878815e-02 3.6940181910060399e-01
126 -5.5529161025403825e-02 -3.8293290976518658e-02 3.6940181874661882e-01
42 -5.5548995336033344e-02 -3.8246665116603525e-02 3.6945045544762478e-01
138 -5.5548980367411148e-02 -3.8246660982512774e-02 3.6945046761237083e-01
37 -5.5569093139149990e-02 -3.8255197440364902e-02 3.6945293075084262e-01
69 -5.5553374480218347e-02 -3.8238864095766295e-02 3.6939384074890397e-01
96 -5.5553374480852784e-02 -3.8238864095320055e-02 3.6939384074796372e-01
102 -5.5553374480292565e-02 -3.8238864095728152e-02 3.6939384074874937e-01
90 -5.5553374480132971e-02 -3.8238864095809129e-02 3.6939384074898940e-01
164 -5.5553374479764051e-02 -3.8238864096107911e-02 3.6939384074950099e-01
74 -5.5553374480858765e-02 -3.8238864095312027e-02 3.6939384074797049e-01
55 -5.5553374492430849e-02 -3.8238864089333281e-02 3.6939384073227710e-01
84 -5.5553374480861534e-02 -3.8238864095306510e-02 3.6939384074797615e-01
97 -5.5553374480682323e-02 -3.8238864095426470e-02 3.6939384074825998e-01
50 -5.7614253514045428e-02 -3.6685089209436486e-02 3.7189329139100596e-01
103 -5.7614253513681921e-02 -3.6685089209003326e-02 3.7189329139088051e-01
105 -5.7614253513065761e-02 -3.6685089208325812e-02 3.7189329139067706e-01
144 -5.7614253513030567e-02 -3.6685089208685052e-02 3.7189329139072996e-01
4 -5.7614253517776104e-02 -3.6685089213881403e-02 3.7189329139229993e-01
168 -5.7614253518297069e-02 -3.6685089214357439e-02 3.7189329139245753e-01
17 -5.7614253513060078e-02 -3.6685089208641102e-02 3.7189329139072702e-01
40 -5.7614253522228917e-02 -3.6685089219087572e-02 3.7189329139382571e-01
1 -5.7614253513179357e-02 -3.6685089208711420e-02 3.7189329139075661e-01
64 -5.7614253513124387e-02 -3.6685089208455673e-02 3.7189329139070704e-01
106 -5.7570041110922496e-02 -4.5911806162099007e-02 3.7720301757772728e-01
76 -5.7570041110922995e-02 -4.5911806162099354e-02 3.7720301757772817e-01
43 -5.7570040704214780e-02 -4.5911805874639000e-02 3.7720301701829551e-01
29 -5.7570041022604157e-02 -4.5911806099501649e-02 3.7720301745613766e-01
158 -5.7570041110923884e-02 -4.5911806162099812e-02 3.7720301757772851e-01
86 -5.7570041110923814e-02 -4.5911806162100138e-02 3.7720301757772934e-01
108 -5.7570041110922884e-02 -4.5911806162099285e-02 3.7720301757772817e-01
48 -5.7570041110922364e-02 -4.5911806162099007e-02 3.7720301757772801e-01
142 -5.7570041110922121e-02 -4.5911806162098737e-02 3.7720301757772590e-01
118 -5.7570041110923620e-02 -4.5911806162100131e-02 3.7720301757772939e-01
145 -5.5655503085270362e-02 -3.8439741542837358e-02 3.6923049536707286e-01
150 -5.5655325673637027e-02 -3.8439738481766524e-02 3.6923019727464368e-01
160 -5.5653934236988348e-02 -3.8439722938991269e-02 3.6922817448494161e-01
22 -5.5653778128200028e-02 -3.8439721695768814e-02 3.6922797859848483e-01
16 -5.5653778127736024e-02 -3.8439721695801815e-02 3.6922797859788942e-01
15 -5.5653778128693841e-02 -3.8439721695775281e-02 3.6922797859909856e-01