LAMMPS data file via write_data, version 30 Jul 2016, timestep = 50400000

180 atoms
2 atom types

0.0000000000000000e+00 2.0000000000000000e+01 xlo xhi
0.0000000000000000e+00 2.0000000000000000e+01 ylo yhi
0.0000000000000000e+00 2.0000000000000000e+01 zlo zhi

Masses

1 3.896
2 4.31

Atoms # meso-molecular

160 1 2 1.5000001615267031e+00 -4.3442823288714624e+02 1.0000000000000000e+00 5.0185775069163832e+00 1.7093343286494007e+00 7.6514187333674100e+00 
58 1 2 1.5000001612039660e+00 -2.6945153394955628e+02 1.0000000000000000e+00 5.0212746929238641e+00 1.7102804524341182e+00 7.6498816843173332e+00 
15 1 2 1.5000001612039624e+00 -3.2433763631369578e+02 1.0000000000000000e+00 5.0212746801171004e+00 1.7102804479671172e+00 7.6498816915071783e+00 
16 1 2 1.5000001612039604e+00 -3.8101936201140484e+02 1.0000000000000000e+00 5.0212746966052375e+00 1.7102804537150569e+00 7.6498816822560620e+00 
22 1 2 1.5000001612039653e+00 -3.2174016249041637e+02 1.0000000000000000e+00 5.0212746886401725e+00 1.7102804509420306e+00 7.6498816867185910e+00 
41 1 2 1.5000001609546187e+00 -3.0005431284876329e+02 1.0000000000000000e+00 5.0234813464953501e+00 1.7110426950286373e+00 7.6486648938291779e+00 
145 1 2 1.5000001665116101e+00 -2.3305926232235615e+02 1.0000000000000000e+00 4.9907342646953827e+00 1.6986118312271026e+00 7.6706166327223455e+00 
150 1 2 1.5000001657512523e+00 -3.9996361377085816e+02 1.0000000000000000e+00 4.9939562348381692e+00 1.6999481346994321e+00 7.6680646449052707e+00 
140 1 2 1.4999990441207365e+00 -3.0711918521011057e+02 1.0000000000000000e+00 3.7973655012527456e+00 7.2306488286725101e-01 9.3949987704115845e+00 
9 1 2 1.4999990442190763e+00 -3.0198623442365317e+02 1.0000000000000000e+00 3.7973653642114900e+00 7.2302616438877465e-01 9.3950047979120743e+00 
165 1 2 1.4999990442111264e+00 -2.7977326304839062e+02 1.0000000000000000e+00 3.7973653750033707e+00 7.2302929784638303e-01 9.3950043102425109e+00 
126 1 2 1.4999990442556856e+00 -3.7377415853910770e+02 1.0000000000000000e+00 3.7973653200590496e+00 7.2301174370071120e-01 9.3950070387488474e+00 
123 1 2 1.4999999525903347e+00 -3.0850877767507529e+02 1.0000000000000000e+00 5.6486540671516776e+00 4.0212435899176810e+00 7.5631080259269581e+00 
77 1 2 1.4999999525929861e+00 -3.4123655181294782e+02 1.0000000000000000e+00 5.6486521203455569e+00 4.0212442478278465e+00 7.5631111603384262e+00 
152 1 2 1.4999999525880725e+00 -3.8945630736569234e+02 1.0000000000000000e+00 5.6486556763052498e+00 4.0212430433218449e+00 7.5631053651818361e+00 
13 1 2 1.4999999525843994e+00 -2.5900090992529391e+02 1.0000000000000000e+00 5.6486582150869227e+00 4.0212421749144731e+00 7.5631010159778294e+00 
60 1 2 1.4999999525826655e+00 -2.4567203054970966e+02 1.0000000000000000e+00 5.6486594527599703e+00 4.0212417547213173e+00 7.5630989761070122e+00 
23 1 2 1.4999999525826797e+00 -4.1895990777167509e+02 1.0000000000000000e+00 5.6486594555881231e+00 4.0212417542031940e+00 7.5630989826121811e+00 
68 1 2 1.4999999525826826e+00 -3.7710213421049548e+02 1.0000000000000000e+00 5.6486594536851591e+00 4.0212417547658541e+00 7.5630989836418561e+00 
7 1 2 1.4999999525844003e+00 -2.4377534313800527e+02 1.0000000000000000e+00 5.6486582149685312e+00 4.0212421749550398e+00 7.5631010161824186e+00 
14 1 2 1.4999999525843997e+00 -3.1675307374913660e+02 1.0000000000000000e+00 5.6486582152541693e+00 4.0212421748571838e+00 7.5631010156893348e+00 
164 1 2 1.5000006012051605e+00 -3.2390139740556822e+02 1.0000000000000000e+00 3.2468563023409631e+00 1.6183619110506884e+00 1.1275161688111828e+01 
74 1 2 1.5000006012051414e+00 -2.2930893878704958e+02 1.0000000000000000e+00 3.2468562956537816e+00 1.6183619168728527e+00 1.1275161681447152e+01 
55 1 2 1.5000006012050588e+00 -3.4386240851325942e+02 1.0000000000000000e+00 3.2468562232727032e+00 1.6183619678878356e+00 1.1275161617793044e+01 
84 1 2 1.5000006012051412e+00 -3.8638249018617273e+02 1.0000000000000000e+00 3.2468562956539389e+00 1.6183619168731174e+00 1.1275161681447024e+01 
97 1 2 1.5000006012051490e+00 -3.4487767909516276e+02 1.0000000000000000e+00 3.2468562968025352e+00 1.6183619158779210e+00 1.1275161682588330e+01 
96 1 2 1.5000006012051414e+00 -4.0695361456620606e+02 1.0000000000000000e+00 3.2468562956674876e+00 1.6183619168636449e+00 1.1275161681458885e+01 
69 1 2 1.5000006012051406e+00 -2.8202412338635759e+02 1.0000000000000000e+00 3.2468562996286101e+00 1.6183619134181493e+00 1.1275161685404436e+01 
102 1 2 1.5000006012051452e+00 -3.5069913643911059e+02 1.0000000000000000e+00 3.2468562990946142e+00 1.6183619138781311e+00 1.1275161684875703e+01 
90 1 2 1.5000006012051439e+00 -2.8750062317711956e+02 1.0000000000000000e+00 3.2468563001272774e+00 1.6183619131219797e+00 1.1275161685803884e+01 
88 1 2 1.4999980788148501e+00 -4.2972454054514532e+02 1.0000000000000000e+00 5.2954278018523535e+00 1.2957099115700592e+01 4.5785797561496580e+00 
89 1 2 1.4999980905096697e+00 -4.5884165086078468e+02 1.0000000000000000e+00 5.3018995361702483e+00 1.2956294562282741e+01 4.5756203603908521e+00 
119 1 2 1.4999980781191748e+00 -3.6563224509566965e+02 1.0000000000000000e+00 5.2975988243643339e+00 1.2958782447463676e+01 4.5844664046801489e+00 
67 1 2 1.4999982253099482e+00 -2.4428777609848663e+02 1.0000000000000000e+00 5.3830217224549779e+00 1.2960860216143322e+01 4.5801001691036980e+00 
53 1 2 1.4999980960385970e+00 -3.2677353817144558e+02 1.0000000000000000e+00 5.3134237299297631e+00 1.2962075803409276e+01 4.5947508342645857e+00 
52 1 2 1.4999982162878984e+00 -3.1522875013640669e+02 1.0000000000000000e+00 5.3798828434458432e+00 1.2962329532113683e+01 4.5854376832458286e+00 
131 1 2 1.4999997527796198e+00 -3.6655340758058713e+02 1.0000000000000000e+00 5.4348636972011573e+00 1.3622527744944504e+01 3.6190508451616750e+00 
83 1 2 1.4999997864715562e+00 -4.5094974052976261e+02 1.0000000000000000e+00 5.4210824604029817e+00 1.3761109471740536e+01 3.6140038209172674e+00 
38 1 2 1.4999997914335230e+00 -3.2735568693694933e+02 1.0000000000000000e+00 5.4841877039174332e+00 1.3525719148869133e+01 3.6327775379482778e+00 
127 1 2 1.5000002543178441e+00 -4.2631227750044997e+02 1.0000000000000000e+00 5.6025285049815565e+00 1.4121427118151377e+01 3.7279879352832976e+00 
132 1 2 1.5000030032427547e+00 -3.1591376508810794e+02 1.0000000000000000e+00 4.3874506967540636e+00 1.5044680323204942e+01 5.0300030883196216e+00 
109 1 2 1.5000030032848382e+00 -3.4036075429846784e+02 1.0000000000000000e+00 4.3874686141426489e+00 1.5044690122907168e+01 5.0300055771057774e+00 
125 1 2 1.5000030033873164e+00 -4.1079404456648939e+02 1.0000000000000000e+00 4.3874544932700230e+00 1.5044680842787614e+01 5.0300113562649003e+00 
12 1 2 1.5000030032848097e+00 -3.1209578741546426e+02 1.0000000000000000e+00 4.3874686099825908e+00 1.5044690120630001e+01 5.0300055765381115e+00 
47 1 2 1.5000030032848088e+00 -3.0311117241323490e+02 1.0000000000000000e+00 4.3874686099794742e+00 1.5044690120628514e+01 5.0300055765366132e+00 
10 1 2 1.5000030032848093e+00 -2.8917742549962048e+02 1.0000000000000000e+00 4.3874686099787299e+00 1.5044690120627813e+01 5.0300055765379685e+00 
11 1 2 1.5000030032848100e+00 -2.8719363971426839e+02 1.0000000000000000e+00 4.3874686099817772e+00 1.5044690120629744e+01 5.0300055765370644e+00 
61 1 2 1.5000030013578076e+00 -2.5755300683012263e+02 1.0000000000000000e+00 4.3871087393945114e+00 1.5044505461123212e+01 5.0298940848113967e+00 
50 1 2 1.5000005040643081e+00 -3.8961111451436409e+02 1.0000000000000000e+00 3.6599428379046377e+00 1.6078059248529570e+01 7.8826655893272850e+00 
64 1 2 1.5000005040642956e+00 -3.5702014488673069e+02 1.0000000000000000e+00 3.6599428400247676e+00 1.6078059252065152e+01 7.8826655880078942e+00 
1 1 2 1.5000005040643010e+00 -3.3758214110884109e+02 1.0000000000000000e+00 3.6599428396310163e+00 1.6078059251391259e+01 7.8826655882899708e+00 
40 1 2 1.5000005040642583e+00 -2.0618409212653810e+02 1.0000000000000000e+00 3.6599428177767650e+00 1.6078059214925037e+01 7.8826656019411905e+00 
17 1 2 1.5000005040642961e+00 -3.6708968518511386e+02 1.0000000000000000e+00 3.6599428398299758e+00 1.6078059251714659e+01 7.8826655881842624e+00 
168 1 2 1.5000005040642912e+00 -3.5475742196531860e+02 1.0000000000000000e+00 3.6599428275853243e+00 1.6078059231279642e+01 7.8826655958397911e+00 
4 1 2 1.5000005040642932e+00 -3.0642450163924030e+02 1.0000000000000000e+00 3.6599428286808551e+00 1.6078059233097267e+01 7.8826655951777997e+00 
144 1 2 1.5000005040642967e+00 -3.2514751108570653e+02 1.0000000000000000e+00 3.6599428397956220e+00 1.6078059251650242e+01 7.8826655882209451e+00 
105 1 2 1.5000005040642930e+00 -4.5543681282324070e+02 1.0000000000000000e+00 3.6599428402537280e+00 1.6078059252448874e+01 7.8826655878613421e+00 
103 1 2 1.5000005040643045e+00 -2.8909081206356342e+02 1.0000000000000000e+00 3.6599428388023401e+00 1.6078059250031760e+01 7.8826655887575026e+00 
138 1 2 1.5000009643930119e+00 -3.2365485023449395e+02 1.0000000000000000e+00 4.1797985892702432e+00 1.9666645046312535e+01 9.7381749063638932e+00 
37 1 2 1.5000011253174816e+00 -2.5766973978061446e+02 1.0000000000000000e+00 4.0457649895674850e+00 1.9608013160875863e+01 9.8091556490147411e+00 
42 1 2 1.5000009643091436e+00 -2.5852723792642627e+02 1.0000000000000000e+00 4.1796730229910581e+00 1.9666711903301639e+01 9.7381521075955906e+00 
176 1 2 1.4999994700010266e+00 -3.6468401166321968e+02 1.0000000000000000e+00 4.8178333850475941e+00 1.6072708926352863e+01 1.2461294860827985e+01 
146 1 2 1.4999994529069363e+00 -3.1617753589941873e+02 1.0000000000000000e+00 4.7999426498640476e+00 1.6101327773884801e+01 1.2433227126309434e+01 
157 1 2 1.4999993188655460e+00 -3.7661599806663457e+02 1.0000000000000000e+00 4.6567016167454973e+00 1.6391334939823327e+01 1.2095218570452033e+01 
81 1 2 1.4999993274896883e+00 -3.4746369809549151e+02 1.0000000000000000e+00 4.6546981032107864e+00 1.6390878594807710e+01 1.2088301566771392e+01 
33 1 2 1.4999993296313157e+00 -3.3185075950705675e+02 1.0000000000000000e+00 4.6544270824405478e+00 1.6390256633063604e+01 1.2087369152316919e+01 
44 1 2 1.4999993324659524e+00 -2.2175883160928788e+02 1.0000000000000000e+00 4.6540291720800822e+00 1.6389531652084852e+01 1.2085991000557524e+01 
110 1 2 1.5000013375917052e+00 -4.0118904165066016e+02 1.0000000000000000e+00 4.9621198035910012e+00 1.5185620344871595e+01 1.1395124551751914e+01 
154 1 2 1.5000033321755568e+00 -3.0509230488611865e+02 1.0000000000000000e+00 6.0206567569286502e+00 1.6099611555200639e+01 1.1313231749310306e+01 
149 1 2 1.5000038235609627e+00 -3.8436089865878250e+02 1.0000000000000000e+00 6.3243110451660263e+00 1.5880126415774843e+01 1.0553077276925606e+01 
175 1 2 1.4999998570772914e+00 -4.0023039362153804e+02 1.0000000000000000e+00 5.2826173944231583e+00 1.4325595787491944e+01 1.0113852590437967e+01 
75 1 2 1.4999998253528619e+00 -1.8720300668582027e+02 1.0000000000000000e+00 5.2782489939339028e+00 1.4326668443743570e+01 1.0105748185959586e+01 
169 1 2 1.4999998188818033e+00 -5.1422175592971894e+02 1.0000000000000000e+00 5.2775168774125971e+00 1.4326839524244246e+01 1.0104041856681816e+01 
136 1 2 1.4999997848528077e+00 -2.8444757203918505e+02 1.0000000000000000e+00 5.2729456536559383e+00 1.4328079629363115e+01 1.0095553864965760e+01 
133 1 2 1.4999997838607286e+00 -3.7664176689979774e+02 1.0000000000000000e+00 5.2728201454401962e+00 1.4328114442302541e+01 1.0095305419494856e+01 
174 1 2 1.4999997773112443e+00 -4.7827217514866214e+02 1.0000000000000000e+00 5.2719874793614254e+00 1.4328348050902461e+01 1.0093670534068540e+01 
139 1 2 1.4999997720561320e+00 -3.7905889967764858e+02 1.0000000000000000e+00 5.2713371231980233e+00 1.4328531403386439e+01 1.0092353457259170e+01 
180 1 2 1.4999997722407359e+00 -4.7101964202278572e+02 1.0000000000000000e+00 5.2713602623064597e+00 1.4328524808306641e+01 1.0092399512846384e+01 
159 1 2 1.4999964675669670e+00 -3.6156481131282692e+02 1.0000000000000000e+00 4.8225623919285683e+00 1.8245291570001303e+01 1.0738138282272226e+01 
163 1 2 1.4999964785855433e+00 -4.0379954536301875e+02 1.0000000000000000e+00 4.8225405932853285e+00 1.8245449207114923e+01 1.0737937522798381e+01 
28 1 2 1.4999967395459217e+00 -2.9128889019269042e+02 1.0000000000000000e+00 4.8218565648698997e+00 1.8249732556595038e+01 1.0732909193738116e+01 
21 1 2 1.4999974192941175e+00 -3.1371395890826574e+02 1.0000000000000000e+00 4.8194466692476015e+00 1.8262462113889789e+01 1.0719193836364182e+01 
141 1 2 1.5000144025005386e+00 -2.7792969975478746e+02 1.0000000000000000e+00 4.8466209016007378e+00 1.8108061522456413e+01 1.0715628237234457e+01 
27 1 2 1.4999985594004948e+00 -3.6715166471464732e+02 1.0000000000000000e+00 4.8113042650783475e+00 1.8298827879710494e+01 1.0688832034332240e+01 
71 1 2 1.4999986414694924e+00 -3.4212286303887055e+02 1.0000000000000000e+00 4.8101638856626900e+00 1.8303863203295567e+01 1.0685419015370124e+01 
107 1 2 1.5000018819648586e+00 -3.7658229206831783e+02 1.0000000000000000e+00 4.7386102473597029e+00 1.8930644879805559e+01 1.0405089260807303e+01 
155 1 2 1.5000001030840642e+00 -3.0177719874216524e+02 1.0000000000000000e+00 6.4357686186570069e+00 1.6063516800686170e+01 1.3621007891361870e+01 
31 1 2 1.5000001031510082e+00 -2.8365548489310612e+02 1.0000000000000000e+00 6.4359554522693685e+00 1.6064231771972800e+01 1.3621524751875098e+01 
120 1 2 1.5000001031435739e+00 -3.2727070030839923e+02 1.0000000000000000e+00 6.4360301340851631e+00 1.6064536494077501e+01 1.3621832359505085e+01 
156 1 2 1.5000001031433983e+00 -3.7237806024863596e+02 1.0000000000000000e+00 6.4360300088567204e+00 1.6064536072870315e+01 1.3621832364915351e+01 
82 1 2 1.5000001031435708e+00 -2.4590088737531815e+02 1.0000000000000000e+00 6.4360301623346938e+00 1.6064536597827537e+01 1.3621832408597745e+01 
57 1 2 1.5000001031435706e+00 -2.4524124449832820e+02 1.0000000000000000e+00 6.4360301515473850e+00 1.6064536558140151e+01 1.3621832389450493e+01 
78 1 2 1.5000001031436054e+00 -3.4260497586588133e+02 1.0000000000000000e+00 6.4360301883180249e+00 1.6064536693680328e+01 1.3621832456200890e+01 
104 1 2 1.5000001031436225e+00 -5.0083420922466723e+02 1.0000000000000000e+00 6.4360288819298841e+00 1.6064531408337341e+01 1.3621827376749369e+01 
135 1 2 1.5000000014461827e+00 -3.3283582071143138e+02 1.0000000000000000e+00 1.1632570188717402e+01 8.9997831608044887e+00 2.7252798695962888e+00 
51 1 2 1.5000000014461876e+00 -2.7824269384205695e+02 1.0000000000000000e+00 1.1632570362844056e+01 8.9997833509028151e+00 2.7252800947924172e+00 
56 1 2 1.5000000014461803e+00 -4.0314050511832397e+02 1.0000000000000000e+00 1.1632569908215860e+01 8.9997829487696368e+00 2.7252795590140630e+00 
124 1 2 1.5000000014461865e+00 -4.4189370711999197e+02 1.0000000000000000e+00 1.1632570365123923e+01 8.9997833331705657e+00 2.7252800865379530e+00 
115 1 2 1.5000000014461863e+00 -3.5612877717526214e+02 1.0000000000000000e+00 1.1632570365274420e+01 8.9997833334893329e+00 2.7252800868181701e+00 
92 1 2 1.5000000014461878e+00 -3.3635814352260741e+02 1.0000000000000000e+00 1.1632570300302781e+01 8.9997833182622760e+00 2.7252800336521861e+00 
45 1 2 1.5000000014461761e+00 -2.9392359068950657e+02 1.0000000000000000e+00 1.1632569916608178e+01 8.9997828877244004e+00 2.7252795309716329e+00 
98 1 2 1.5000000014461774e+00 -5.2596410785109845e+02 1.0000000000000000e+00 1.1632569968100329e+01 8.9997829020589837e+00 2.7252795743628995e+00 
122 1 2 1.5000000014461770e+00 -2.5861006832302382e+02 1.0000000000000000e+00 1.1632569903220389e+01 8.9997828842993357e+00 2.7252795198573003e+00 
171 1 2 1.5000000014461790e+00 -2.8940924561063673e+02 1.0000000000000000e+00 1.1632569852503211e+01 8.9997828864808938e+00 2.7252794861498293e+00 
29 1 2 1.4999999995816224e+00 -3.4272503493656768e+02 1.0000000000000000e+00 1.0073709930420087e+01 7.7453373172175874e+00 4.9895677212522571e+00 
43 1 2 1.4999999995768529e+00 -2.4701131511985278e+02 1.0000000000000000e+00 1.0073622184185442e+01 7.7454361713588824e+00 4.9895620138215842e+00 
76 1 2 1.4999999995829305e+00 -2.9823081123597888e+02 1.0000000000000000e+00 1.0073734367681812e+01 7.7453098970273091e+00 4.9895693532934589e+00 
106 1 2 1.4999999995829305e+00 -4.2181259862749340e+02 1.0000000000000000e+00 1.0073734367681840e+01 7.7453098970273357e+00 4.9895693532934935e+00 
118 1 2 1.4999999995829305e+00 -2.8105044364606488e+02 1.0000000000000000e+00 1.0073734367682253e+01 7.7453098970268579e+00 4.9895693532935139e+00 
142 1 2 1.4999999995829305e+00 -3.8130265062308888e+02 1.0000000000000000e+00 1.0073734367681814e+01 7.7453098970273375e+00 4.9895693532934766e+00 
48 1 2 1.4999999995829305e+00 -3.9887539579097518e+02 1.0000000000000000e+00 1.0073734367683395e+01 7.7453098970255638e+00 4.9895693532935823e+00 
108 1 2 1.4999999995829301e+00 -3.7827265953943134e+02 1.0000000000000000e+00 1.0073734367681718e+01 7.7453098970274787e+00 4.9895693532934917e+00 
86 1 2 1.4999999995829305e+00 -3.8910667976220361e+02 1.0000000000000000e+00 1.0073734367681968e+01 7.7453098970271474e+00 4.9895693532934784e+00 
158 1 2 1.4999999995829305e+00 -3.7689872539414648e+02 1.0000000000000000e+00 1.0073734367749019e+01 7.7453098969539109e+00 4.9895693532990517e+00 
101 1 2 1.5000020588913476e+00 -3.4113345495106427e+02 1.0000000000000000e+00 8.3203755324553086e+00 1.3446253117273548e+01 3.6252408091618209e+00 
147 1 2 1.5000020589054124e+00 -3.2105477102665770e+02 1.0000000000000000e+00 8.3203751513089816e+00 1.3446254107294905e+01 3.6252379880863161e+00 
177 1 2 1.5000020589020837e+00 -4.1359967240397191e+02 1.0000000000000000e+00 8.3203751488624018e+00 1.3446254950549898e+01 3.6252379587937407e+00 
161 1 2 1.5000020589027530e+00 -4.6285241393167041e+02 1.0000000000000000e+00 8.3203749693922848e+00 1.3446256880500503e+01 3.6252366110825194e+00 
121 1 2 1.5000020589011229e+00 -3.3361189121001019e+02 1.0000000000000000e+00 8.3203751270640822e+00 1.3446255440795575e+01 3.6252377916792113e+00 
178 1 2 1.5000020589054102e+00 -4.3462373896501776e+02 1.0000000000000000e+00 8.3203751513138275e+00 1.3446254107476816e+01 3.6252379881195362e+00 
148 1 2 1.5000020589049636e+00 -3.8469786580565199e+02 1.0000000000000000e+00 8.3203751678515978e+00 1.3446254029494169e+01 3.6252381109877958e+00 
153 1 2 1.5000020589048009e+00 -3.0519071325035293e+02 1.0000000000000000e+00 8.3203751680964775e+00 1.3446254069852770e+01 3.6252381122522293e+00 
143 1 2 1.5000020589263945e+00 -3.8489558104823982e+02 1.0000000000000000e+00 8.3203743686240390e+00 1.3446258095261149e+01 3.6252321700545287e+00 
91 1 2 1.5000020588869709e+00 -2.8690393732013649e+02 1.0000000000000000e+00 8.3203749990779592e+00 1.3446260383830010e+01 3.6252367834320682e+00 
129 1 2 1.4999992268643498e+00 -4.4620015424853250e+02 1.0000000000000000e+00 6.9569204449694739e+00 1.5942866752675537e+01 8.8364477435983044e+00 
59 1 2 1.4999991649874005e+00 -2.3119986075997710e+02 1.0000000000000000e+00 6.9489732761683403e+00 1.5954685942368151e+01 8.8354691554142732e+00 
3 1 2 1.4999991640524215e+00 -2.4447627389419117e+02 1.0000000000000000e+00 6.9489993011164595e+00 1.5954417126022710e+01 8.8353017084438861e+00 
70 1 2 1.4999991640585548e+00 -2.8323729829227420e+02 1.0000000000000000e+00 6.9489998069751486e+00 1.5954416852085028e+01 8.8353021036461605e+00 
39 1 2 1.4999991640589310e+00 -2.2385229903341920e+02 1.0000000000000000e+00 6.9489998364532362e+00 1.5954416836248495e+01 8.8353021267694007e+00 
72 1 2 1.4999991640592458e+00 -2.7240058679018671e+02 1.0000000000000000e+00 6.9489998613610684e+00 1.5954416822867044e+01 8.8353021463074786e+00 
66 1 2 1.4999991640592623e+00 -3.2898033417198616e+02 1.0000000000000000e+00 6.9489998619048059e+00 1.5954416822570067e+01 8.8353021467304576e+00 
62 1 2 1.4999991643224448e+00 -3.5018405679857335e+02 1.0000000000000000e+00 6.9490176057074819e+00 1.5954416779893107e+01 8.8353230560806146e+00 
79 1 2 1.4999991640593937e+00 -3.7479857836881172e+02 1.0000000000000000e+00 6.9489998729412301e+00 1.5954416816647999e+01 8.8353021553928066e+00 
26 1 2 1.5000002211666494e+00 -2.5261830509880787e+02 1.0000000000000000e+00 6.7369910264826736e+00 1.6574589717619375e+01 1.6289746026879044e+01 
20 1 2 1.5000002211666499e+00 -3.6805668651540947e+02 1.0000000000000000e+00 6.7369910264826371e+00 1.6574589717619467e+01 1.6289746026878948e+01 
93 1 2 1.5000002211666508e+00 -3.4358817499953290e+02 1.0000000000000000e+00 6.7369910265559998e+00 1.6574589717037480e+01 1.6289746027118795e+01 
19 1 2 1.5000002211666501e+00 -3.2420561573122029e+02 1.0000000000000000e+00 6.7369910264827011e+00 1.6574589717619478e+01 1.6289746026879094e+01 
151 1 2 1.5000002211666501e+00 -2.0836516416473719e+02 1.0000000000000000e+00 6.7369910264825901e+00 1.6574589717620057e+01 1.6289746026878767e+01 
25 1 2 1.5000002211666501e+00 -2.8117712660243296e+02 1.0000000000000000e+00 6.7369910264826505e+00 1.6574589717619450e+01 1.6289746026878980e+01 
54 1 2 1.5000002211666499e+00 -2.7635129299622537e+02 1.0000000000000000e+00 6.7369910264826034e+00 1.6574589717619887e+01 1.6289746026878824e+01 
18 1 2 1.5000002211666497e+00 -3.5763606858193015e+02 1.0000000000000000e+00 6.7369910264826576e+00 1.6574589717619371e+01 1.6289746026879012e+01 
130 1 2 1.5000002211666508e+00 -3.3658826155560365e+02 1.0000000000000000e+00 6.7369910265604585e+00 1.6574589717049172e+01 1.6289746027127812e+01 
73 1 2 1.5000001554332623e+00 -3.3287591217391872e+02 1.0000000000000000e+00 8.8935981050065269e+00 1.5401328829921274e+01 1.8201385302745223e+01 
128 1 2 1.5000001553881590e+00 -3.0330366103130416e+02 1.0000000000000000e+00 8.8939739280473358e+00 1.5401380140678832e+01 1.8201417949854395e+01 
170 1 2 1.5000001554332607e+00 -3.5195223871119089e+02 1.0000000000000000e+00 8.8935981052890511e+00 1.5401328829875172e+01 1.8201385302633767e+01 
166 1 2 1.5000001554332616e+00 -4.1764354897839155e+02 1.0000000000000000e+00 8.8935981049853794e+00 1.5401328829924781e+01 1.8201385302753661e+01 
173 1 2 1.5000001554332594e+00 -3.1683970880769283e+02 1.0000000000000000e+00 8.8935981050029511e+00 1.5401328829921921e+01 1.8201385302746750e+01 
80 1 2 1.5000001554332605e+00 -3.7385781596801905e+02 1.0000000000000000e+00 8.8935981049976220e+00 1.5401328829922782e+01 1.8201385302748836e+01 
137 1 2 1.5000001554332627e+00 -2.6898118851553693e+02 1.0000000000000000e+00 8.8935981050035711e+00 1.5401328829921681e+01 1.8201385302746267e+01 
167 1 2 1.5000001554332596e+00 -2.8091433731979549e+02 1.0000000000000000e+00 8.8935981050038357e+00 1.5401328829921619e+01 1.8201385302746147e+01 
172 1 2 1.5000001554332631e+00 -3.5786815739559069e+02 1.0000000000000000e+00 8.8935981050030879e+00 1.5401328829921914e+01 1.8201385302746704e+01 
8 1 2 1.4999998138276800e+00 -2.4663721419706252e+02 1.0000000000000000e+00 9.3078537884113466e+00 1.7623174310196607e+01 1.6936506228142083e+01 
32 1 2 1.4999997922633408e+00 -3.2797513842060721e+02 1.0000000000000000e+00 9.2020246982634752e+00 1.7746279847492794e+01 1.7071655727207386e+01 
63 1 2 1.4999997895955659e+00 -3.8534942119938148e+02 1.0000000000000000e+00 9.1597368869102258e+00 1.7755916741056932e+01 1.7043198349982905e+01 
95 1 2 1.4999997895914203e+00 -2.4951428603855271e+02 1.0000000000000000e+00 9.1596416454655749e+00 1.7755935363018857e+01 1.7043135264088711e+01 
65 1 2 1.4999997895934132e+00 -3.6200740004248314e+02 1.0000000000000000e+00 9.1596850204461102e+00 1.7755926884141591e+01 1.7043163995289838e+01 
117 1 2 1.4999997895996779e+00 -3.7069525646442776e+02 1.0000000000000000e+00 9.1598303778728933e+00 1.7755898446852061e+01 1.7043260275300817e+01 
24 1 2 1.4999998112419330e+00 -3.9607937269982301e+02 1.0000000000000000e+00 9.3258785551671721e+00 1.7699880535307809e+01 1.7161053034499858e+01 
46 1 2 1.4999998711304103e+00 -4.3939344600129300e+02 1.0000000000000000e+00 9.5030304620636947e+00 1.7565131020806145e+01 1.7317200591334782e+01 
99 1 2 1.4999999183339752e+00 -5.7749992720220632e+02 1.0000000000000000e+00 9.6013031578182311e+00 1.7425917777174323e+01 1.7433727443569275e+01 
5 1 2 1.5000058906507181e+00 -4.2162114623688808e+02 1.0000000000000000e+00 1.5624862975515091e+01 3.0030238744113835e-01 6.1093434596679748e+00 
35 1 2 1.5000058906495231e+00 -3.2630209877502364e+02 1.0000000000000000e+00 1.5624880711068567e+01 3.0025118180972288e-01 6.1093640689684330e+00 
30 1 2 1.5000058906497242e+00 -2.8705600370973190e+02 1.0000000000000000e+00 1.5624869102417531e+01 3.0027374744195184e-01 6.1093572765455590e+00 
6 1 2 1.5000058906497729e+00 -4.0228348503335451e+02 1.0000000000000000e+00 1.5624878370003314e+01 3.0025823579396599e-01 6.1093611669519845e+00 
36 1 2 1.5000058906504607e+00 -3.7014296056295098e+02 1.0000000000000000e+00 1.5624862514553032e+01 3.0029875858998750e-01 6.1093459577861680e+00 
111 1 2 1.5000058906576044e+00 -3.0925828518699097e+02 1.0000000000000000e+00 1.5624944274954174e+01 3.0026713181608788e-01 6.1093159128980261e+00 
2 1 2 1.5000058906632618e+00 -3.5684028123254802e+02 1.0000000000000000e+00 1.5624999196233430e+01 3.0052385652863817e-01 6.1091260188549805e+00 
179 1 2 1.5000058906109646e+00 -3.2376424886691461e+02 1.0000000000000000e+00 1.5625662084037092e+01 3.0046102363331983e-01 6.1087664388647607e+00 
87 1 2 1.5000058903649258e+00 -3.4985523600795483e+02 1.0000000000000000e+00 1.5626307119924748e+01 3.0058235128361782e-01 6.1083090441443471e+00 
134 1 2 1.5000058904848979e+00 -3.3153405324728135e+02 1.0000000000000000e+00 1.5625828722404309e+01 3.0088529112866391e-01 6.1084096516971957e+00 
85 1 2 1.4999941105874053e+00 -3.3010413580801355e+02 1.0000000000000000e+00 1.7003100746425112e+01 1.6978698925885014e+00 8.4066719810588779e+00 
49 1 2 1.4999941104454959e+00 -3.1336895646216635e+02 1.0000000000000000e+00 1.7003104204991896e+01 1.6979953815056263e+00 8.4065963294261419e+00 
34 1 2 1.4999941085196822e+00 -4.2327026959205466e+02 1.0000000000000000e+00 1.7004386526584994e+01 1.6993283818281728e+00 8.4050529344118132e+00 
114 1 2 1.4999941085203747e+00 -3.2732830477556843e+02 1.0000000000000000e+00 1.7004385783015437e+01 1.6993274253123298e+00 8.4050539495426229e+00 
113 1 2 1.4999941085277830e+00 -3.9869328780789135e+02 1.0000000000000000e+00 1.7004377928753065e+01 1.6993176743363700e+00 8.4050644596341364e+00 
116 1 2 1.4999941085256578e+00 -3.7614739486781491e+02 1.0000000000000000e+00 1.7004380202663338e+01 1.6993204415819978e+00 8.4050614504912335e+00 
162 1 2 1.4999941084283386e+00 -4.6012522197444594e+02 1.0000000000000000e+00 1.7004503821261899e+01 1.6994466554922834e+00 8.4049122476902891e+00 
112 1 2 1.4999941096954168e+00 -2.7978034503683682e+02 1.0000000000000000e+00 1.7006932452731238e+01 1.7019193134017954e+00 8.4019201120322098e+00 
100 1 2 1.4999941096859499e+00 -3.9799632569929406e+02 1.0000000000000000e+00 1.7006927532729115e+01 1.7019135495346633e+00 8.4019267746310131e+00 
94 1 2 1.4999941228964602e+00 -3.5168599032047058e+02 1.0000000000000000e+00 1.7009941952164318e+01 1.7060505468212432e+00 8.3973223907685632e+00 

Velocities

160 -5.5669054968066484e-02 -3.8363136491890201e-02 3.6935626572576813e-01
58 -5.5668940408060349e-02 -3.8363171367703584e-02 3.6935610833394894e-01
15 -5.5668940408604407e-02 -3.8363171367532166e-02 3.6935610833469540e-01
16 -5.5668940407905591e-02 -3.8363171367711175e-02 3.6935610833376231e-01
22 -5.5668940408242516e-02 -3.8363171367640461e-02 3.6935610833420107e-01
41 -5.5668846754868079e-02 -3.8363199661041021e-02 3.6935598202762865e-01
145 -5.5670244034399893e-02 -3.8362760191594569e-02 3.6935809366652556e-01
150 -5.5670105426582447e-02 -3.8362804999353378e-02 3.6935786192827391e-01
140 -5.5597143756814307e-02 -3.8167335128675449e-02 3.6952222353734526e-01
9 -5.5597147053475932e-02 -3.8167328880341543e-02 3.6952222204568347e-01
165 -5.5597146786645416e-02 -3.8167329385982156e-02 3.6952222216636016e-01
126 -5.5597148281820684e-02 -3.8167326553513362e-02 3.6952222149107133e-01
123 -5.5653224894413510e-02 -3.8370965645987451e-02 3.6926852285306300e-01
77 -5.5653224833280543e-02 -3.8370965529747066e-02 3.6926852280501726e-01
152 -5.5653224945638603e-02 -3.8370965744559817e-02 3.6926852289384260e-01
13 -5.5653225027891357e-02 -3.8370965905218275e-02 3.6926852296047474e-01
60 -5.5653225067280050e-02 -3.8370965980989727e-02 3.6926852299174839e-01
23 -5.5653225067249144e-02 -3.8370965980727485e-02 3.6926852299164908e-01
68 -5.5653225067203695e-02 -3.8370965980664022e-02 3.6926852299163215e-01
7 -5.5653225027891336e-02 -3.8370965905224791e-02 3.6926852296047208e-01
14 -5.5653225027895450e-02 -3.8370965905224132e-02 3.6926852296047880e-01
164 -5.5621139775678043e-02 -3.8105530702801337e-02 3.6951553387773889e-01
74 -5.5621139776736397e-02 -3.8105530702021467e-02 3.6951553387615482e-01
55 -5.5621139787977947e-02 -3.8105530696154001e-02 3.6951553386003216e-01
84 -5.5621139776737376e-02 -3.8105530702019157e-02 3.6951553387615726e-01
97 -5.5621139776561475e-02 -3.8105530702140469e-02 3.6951553387644476e-01
96 -5.5621139776731894e-02 -3.8105530702026595e-02 3.6951553387615393e-01
69 -5.5621139776116629e-02 -3.8105530702466493e-02 3.6951553387711655e-01
102 -5.5621139776198467e-02 -3.8105530702408581e-02 3.6951553387698727e-01
90 -5.5621139776042022e-02 -3.8105530702492077e-02 3.6951553387722796e-01
88 -5.9372495541743529e-02 -3.6523906431937946e-02 3.7197556669837589e-01
89 -5.9375534427558156e-02 -3.6524327600229729e-02 3.7197768670273723e-01
119 -5.9373388364099867e-02 -3.6524654956640319e-02 3.7197306711542644e-01
67 -5.9411466759562596e-02 -3.6535636027222533e-02 3.7198600566675982e-01
53 -5.9380461108311577e-02 -3.6527433269650245e-02 3.7197016359715940e-01
52 -5.9410022769105737e-02 -3.6535697951735835e-02 3.7198318339107261e-01
131 -5.9431786708570668e-02 -3.6744855830511111e-02 3.7211430608445839e-01
83 -5.9418415432341130e-02 -3.6753226961796802e-02 3.7208944300016600e-01
38 -5.9449450101088749e-02 -3.6734495632286777e-02 3.7213016815811900e-01
127 -5.9397926138712413e-02 -3.6713610348756115e-02 3.7202041625046672e-01
132 -5.9363048085736565e-02 -3.6313189349053497e-02 3.7198954795802652e-01
109 -5.9363033188223766e-02 -3.6313179087388986e-02 3.7198955014394813e-01