LAMMPS data file via write_data, version 30 Jul 2016, timestep = 50000000

4620 atoms
8 atom types

0.0000000000000000e+00 1.0000000000000000e+02 xlo xhi
0.0000000000000000e+00 4.0000000000000000e+01 ylo yhi
0.0000000000000000e+00 4.0000000000000000e+01 zlo zhi

Masses

1 3.896
2 5.36
3 20.064
4 8.378
5 8.378
6 8.378
7 8.378
8 8.378

Atoms # meso-molecular

3065 3066 2 1.4218704307376302e+00 -1.3482296261624624e-01 1.0000000000000000e+00 6.6198989650933147e+00 2.2919974302313069e+00 7.6105700513814933e-02 
2344 2345 2 1.4218704307376302e+00 -1.1172098813182824e-01 1.0000000000000000e+00 2.0894298138404572e+01 1.8110786923399989e+00 8.9644219859898744e-01 
1424 1425 2 1.4218704307376302e+00 -1.1155964111362554e-01 1.0000000000000000e+00 3.1895393552453960e+01 1.9782424349486833e+00 1.4795229652768177e-01 
1254 1255 2 1.4218704307376302e+00 -1.3480279046332702e-01 1.0000000000000000e+00 8.7288384720264691e+00 2.7362329518885034e+00 4.6814229502414156e-01 
3464 3465 2 1.4218704307376302e+00 -1.3508957299453878e-01 1.0000000000000000e+00 1.6519022799265265e+01 3.4090344408503053e+00 1.2512558907546802e+00 
4166 4167 2 1.4218704307376302e+00 -8.9127975352458061e-02 1.0000000000000000e+00 9.3958749351189630e-01 6.1740412033705647e+00 3.2774646584717143e-01 
208 209 2 1.4218704307376302e+00 -1.1185108780384814e-01 1.0000000000000000e+00 3.2660800938191429e+01 6.3314589463259372e+00 5.4661565097062481e-01 
182 183 2 1.4218704307376302e+00 -1.1208283364602106e-01 1.0000000000000000e+00 2.0917603551386605e+01 7.4854433282638499e+00 8.7865760188260611e-01 
4532 4533 2 1.4218704307376302e+00 -1.1214131432534472e-01 1.0000000000000000e+00 2.3852911390454306e+01 8.1748991053669311e+00 1.1170125014223391e+00 
2727 2728 2 1.4218704307376302e+00 -1.3471226872333317e-01 1.0000000000000000e+00 2.1355149728453227e+00 9.5485454519231681e+00 2.2564157945952923e-01 
17 18 2 1.4218704307376302e+00 -8.9188007959193488e-02 1.0000000000000000e+00 1.0669389649546677e+01 9.9475990343221117e+00 1.1997833188147697e+00 
3092 3093 2 1.4218704307376302e+00 -1.3477370587361229e-01 1.0000000000000000e+00 1.2938869358356396e+01 1.0609864099355541e+01 4.2315766101015440e-01 
2561 2562 2 1.4218704307376302e+00 -1.3477021824298815e-01 1.0000000000000000e+00 3.1222322649441939e+01 1.0230908094015494e+01 6.9987292355974362e-01 
248 249 2 1.4218704307376302e+00 -1.1174454495756803e-01 1.0000000000000000e+00 2.7528031635633642e+01 1.2103019449000703e+01 5.0410407609005303e-01 
1268 1269 2 1.4218704307376302e+00 -1.3476822483155665e-01 1.0000000000000000e+00 2.3933014683335106e+01 1.4298513945951393e+01 1.0500899843221632e+00 
3806 3807 2 1.4218704307376302e+00 -1.3479570363335458e-01 1.0000000000000000e+00 1.0440762804787266e+01 1.5739554714088721e+01 1.1439480943328717e+00 
2607 2608 2 1.4218704307376302e+00 -1.3466008044178110e-01 1.0000000000000000e+00 1.3099137018317071e+01 1.5217638923807963e+01 2.7492295449393556e-01 
2032 2033 2 1.4218704307376302e+00 -1.3493645595589274e-01 1.0000000000000000e+00 1.7651838588190078e+01 1.5755927972933648e+01 2.7502672978761988e-01 
4023 4024 2 1.4218704307376302e+00 -1.3445883634873884e-01 1.0000000000000000e+00 1.5291214726278255e+01 1.6117784965612142e+01 1.2576305575398491e-01 
2540 2541 2 1.4218704307376302e+00 -1.3498546340640280e-01 1.0000000000000000e+00 2.6325449027466025e+01 1.6263237810079612e+01 2.2513224729111597e-01 
3908 3909 2 1.4218704307376302e+00 -1.3449934341878225e-01 1.0000000000000000e+00 3.3069903148035216e+01 1.6558983879680632e+01 9.8679032674552836e-01 
1618 1619 2 1.4218704307376302e+00 -1.3450386248384696e-01 1.0000000000000000e+00 4.2135663313432845e+00 1.7982181168380698e+01 5.0256196380702745e-01 
1450 1451 2 1.4218704307376302e+00 -1.3480963602685625e-01 1.0000000000000000e+00 3.0854649785856583e+00 1.2459070963376102e-01 1.9439611787047111e+00 
556 557 2 1.4218704307376302e+00 -1.3477092530318463e-01 1.0000000000000000e+00 3.0219029982273678e+01 4.9022942800171182e-01 1.6309585835848757e+00 
1430 1431 2 1.4218704307376302e+00 -1.3435942802610520e-01 1.0000000000000000e+00 9.2743797683562890e-01 3.9352409243781743e+00 2.5689109738782432e+00 
3248 3249 2 1.4218704307376302e+00 -1.1200868223969337e-01 1.0000000000000000e+00 2.8444835068692612e+01 3.5849100339760058e+00 1.5182014143292584e+00 
664 665 2 1.4218704307376302e+00 -1.3448168560891979e-01 1.0000000000000000e+00 5.5663889043561445e+00 4.9450120492766221e+00 2.3379817742670244e+00 
1426 1427 2 1.4218704307376302e+00 -1.1161119746387269e-01 1.0000000000000000e+00 1.3607044234011994e+01 5.6087517954141424e+00 2.0840501901865043e+00 
682 683 2 1.4218704307376302e+00 -1.3485733604613301e-01 1.0000000000000000e+00 2.0078683566851229e+01 5.9176538817956335e+00 2.0847421872249021e+00 
3807 3808 2 1.4218704307376302e+00 -1.3511289642358246e-01 1.0000000000000000e+00 9.6463068139840580e+00 7.4602122226189032e+00 1.7443276525377629e+00 
1361 1362 2 1.4218704307376302e+00 -1.1169105518993218e-01 1.0000000000000000e+00 1.7520304335522344e+01 7.6329872879502840e+00 1.7296584889607858e+00 
1812 1813 2 1.4218704307376302e+00 -1.1185458748364574e-01 1.0000000000000000e+00 1.2209725110650882e-01 8.5324898702045857e+00 1.5135110294995917e+00 
2314 2315 2 1.4218704307376302e+00 -1.1180813842544918e-01 1.0000000000000000e+00 6.4376148004607803e+00 8.2172256907624384e+00 1.9958181197348814e+00 
859 860 2 1.4218704307376302e+00 -1.3495419791252189e-01 1.0000000000000000e+00 2.1843092426684599e+01 8.5137097720988990e+00 2.4753374324428910e+00 
1726 1727 2 1.4218704307376302e+00 -1.3479969486408075e-01 1.0000000000000000e+00 1.2808369366580777e+01 1.0026689165087150e+01 2.5703452292567950e+00 
4015 4016 2 1.4218704307376302e+00 -1.3444091474103417e-01 1.0000000000000000e+00 2.5470895902377556e+01 1.0786429165872240e+01 1.7763831824249681e+00 
4273 4274 2 1.4218704307376302e+00 -1.1185777748895120e-01 1.0000000000000000e+00 5.5975294761559458e-01 1.2025423571377170e+01 2.5706978213087410e+00 
805 806 2 1.4218704307376302e+00 -1.3494242241526183e-01 1.0000000000000000e+00 3.2321407274197878e+00 1.2252300582419949e+01 2.0343754268037424e+00 
3122 3123 2 1.4218704307376302e+00 -1.3474324451369035e-01 1.0000000000000000e+00 6.6018305544752378e+00 1.2280273415522197e+01 1.3380225328530966e+00 
3315 3316 2 1.4218704307376302e+00 -1.3483443100232573e-01 1.0000000000000000e+00 1.0796545284915320e+01 1.2753274708564868e+01 1.7522276562120722e+00 
2033 2034 2 1.4218704307376302e+00 -1.3453835204330983e-01 1.0000000000000000e+00 1.9908536246790469e+01 1.2293894201374457e+01 1.9715445818121538e+00 
1767 1768 2 1.4218704307376302e+00 -1.3466760552269771e-01 1.0000000000000000e+00 2.2905293407368156e+01 1.2748633259868095e+01 2.2276273668822459e+00 
214 215 2 1.4218704307376302e+00 -1.1176683598043770e-01 1.0000000000000000e+00 3.1606583603417072e+01 1.2348462500425383e+01 1.7802759257254066e+00 
1715 1716 2 1.4218704307376302e+00 -1.3459142316823625e-01 1.0000000000000000e+00 7.8980571087960110e+00 1.3922980079466827e+01 1.6612521918989966e+00 
4575 4576 2 1.4218704307376302e+00 -1.1186785628915008e-01 1.0000000000000000e+00 1.5728011506085902e+01 1.5263847719892290e+01 1.9822630649492301e+00 
2692 2693 2 1.4218704307376302e+00 -1.3480199497454676e-01 1.0000000000000000e+00 9.1983024832314317e+00 1.8000759766699289e+01 1.6832117271413305e+00 
3077 3078 2 1.4218704307376302e+00 -1.3493188245104429e-01 1.0000000000000000e+00 2.4274549991292620e+01 1.7475369157729581e+01 1.3851363232097327e+00 
2380 2381 2 1.4218704307376302e+00 -1.3445951864710237e-01 1.0000000000000000e+00 2.3155166272309739e+01 1.9587597003320322e+01 2.3098892263895534e+00 
1219 1220 2 1.4218704307376302e+00 -1.1205677320230945e-01 1.0000000000000000e+00 2.7039508035840051e+01 1.9146532123871157e+01 2.0985027223867636e+00 
1448 1449 2 1.4218704307376302e+00 -1.3471535212824673e-01 1.0000000000000000e+00 1.9768608221199422e+01 7.0032983346600086e-01 3.1217624229790122e+00 
1755 1756 2 1.4218704307376302e+00 -1.3473725036522066e-01 1.0000000000000000e+00 2.4072840120670389e+01 4.0134980368250966e-01 2.7766504094585467e+00 
2080 2081 2 1.4218704307376302e+00 -1.3494222431895672e-01 1.0000000000000000e+00 1.5079732257479581e+00 1.5860467110316347e+00 3.6320220178426337e+00 
4378 4379 2 1.4218704307376302e+00 -1.1175944421672707e-01 1.0000000000000000e+00 1.7141206062100139e+01 2.2974649156449058e+00 2.9830872674286808e+00 
673 674 2 1.4218704307376302e+00 -1.1186760072645674e-01 1.0000000000000000e+00 1.3974473131264691e+01 3.5507838385744894e+00 3.8234902877878438e+00 
4343 4344 2 1.4218704307376302e+00 -1.1204352393505569e-01 1.0000000000000000e+00 2.4977270211339363e+01 3.5706595212441483e+00 3.6311155432329039e+00 
2518 2519 2 1.4218704307376302e+00 -1.3475058062490142e-01 1.0000000000000000e+00 1.8166535397827339e+01 4.0688598298473728e+00 3.4230607159787687e+00 
1066 1067 2 1.4218704307376302e+00 -1.3427047818467408e-01 1.0000000000000000e+00 1.3006074957130451e+00 6.7848696668987785e+00 3.0940887663040839e+00 
1768 1769 2 1.4218704307376302e+00 -1.3475313365394281e-01 1.0000000000000000e+00 1.3307319782128538e+01 7.8635823820798381e+00 3.6866787834121064e+00 
2835 2836 2 1.4218704307376302e+00 -1.3452640096567980e-01 1.0000000000000000e+00 2.3274843477856493e+01 7.1158365981236988e+00 2.9464745401004007e+00 
3642 3643 2 1.4218704307376302e+00 -1.3449343966622151e-01 1.0000000000000000e+00 2.5408725644911097e+01 7.1243965500883579e+00 3.6644684645123355e+00 
1381 1382 2 1.4218704307376302e+00 -1.1191856630588828e-01 1.0000000000000000e+00 1.5189914871927092e+01 8.7393569354235332e+00 2.6710810088487142e+00 
3567 3568 2 1.4218704307376302e+00 -1.3463765411160197e-01 1.0000000000000000e+00 1.6135664931454716e+01 1.0348969281725440e+01 3.5890083113609754e+00 
1532 1533 2 1.4218704307376302e+00 -1.3472796005324242e-01 1.0000000000000000e+00 1.9830773848433783e+01 1.0475641802897391e+01 2.9929897939849117e+00 
1484 1485 2 1.4218704307376302e+00 -1.3473173210626443e-01 1.0000000000000000e+00 2.8523008390128190e+01 9.5460338965150129e+00 3.3359419411133344e+00 
1664 1665 2 1.4218704307376302e+00 -1.3493837401046330e-01 1.0000000000000000e+00 3.1373146688617879e+01 1.0244628438382671e+01 2.7684774879910075e+00 
1053 1054 2 1.4218704307376302e+00 -1.3443536678430101e-01 1.0000000000000000e+00 5.9266863295498373e+00 1.1367035302595314e+01 3.3360753042588862e+00 
2530 2531 2 1.4218704307376302e+00 -1.3455980253144029e-01 1.0000000000000000e+00 8.4217648511276337e+00 1.1439535390768496e+01 2.7046452251869151e+00 
382 383 2 1.4218704307376302e+00 -1.1168682198308207e-01 1.0000000000000000e+00 1.0307802613363929e+01 1.1853038799943993e+01 3.7476859096125614e+00 
3654 3655 2 1.4218704307376302e+00 -1.1126885146725507e-01 1.0000000000000000e+00 1.5510473496495282e+01 1.3259703483217326e+01 3.7139870035618459e+00 
3057 3058 2 1.4218704307376302e+00 -1.3473843781380440e-01 1.0000000000000000e+00 2.5152640970214776e+01 1.2308658754930965e+01 3.5405000954578907e+00 
1263 1264 2 1.4218704307376302e+00 -1.3484218318986563e-01 1.0000000000000000e+00 2.9959443080422368e+01 1.3024065732077380e+01 3.8848192409464062e+00 
2477 2478 2 1.4218704307376302e+00 -1.3459813672087967e-01 1.0000000000000000e+00 1.8088540355816182e+01 1.4594640556707404e+01 3.9938093398390277e+00 
965 966 2 1.4218704307376302e+00 -1.1160434471350578e-01 1.0000000000000000e+00 2.6429597641060301e+01 1.5539339398300010e+01 3.2474817745419977e+00 
371 372 2 1.4218704307376302e+00 -1.1201950786189246e-01 1.0000000000000000e+00 1.8524533402560984e+01 1.7607478119332178e+01 3.2023601051617883e+00 
1152 1153 2 1.4218704307376302e+00 -1.3475353517836491e-01 1.0000000000000000e+00 2.7968613761482054e+01 1.8099093758489872e+01 3.8766691378609002e+00 
2396 2397 2 1.4218704307376302e+00 -1.3454259095953497e-01 1.0000000000000000e+00 7.9705314857303688e-01 1.9244212462058151e+01 3.4949169466036425e+00 
3803 3804 2 1.4218704307376302e+00 -1.3480214568215421e-01 1.0000000000000000e+00 1.5288995298026705e+01 1.9055862618605023e+01 3.3855165781334802e+00 
563 564 2 1.4218704307376302e+00 -1.3455164645303835e-01 1.0000000000000000e+00 2.0901469199661371e+01 1.9762156289429164e+01 2.7539064032795020e+00 
2811 2812 2 1.4218704307376302e+00 -1.1162744443955519e-01 1.0000000000000000e+00 1.0328481947341523e+01 7.6433098644407227e-01 4.0547848247240932e+00 
1718 1719 2 1.4218704307376302e+00 -1.3467801326684495e-01 1.0000000000000000e+00 7.7003792307420014e+00 1.6414294549783919e+00 4.3050411096475365e+00 
3015 3016 2 1.4218704307376302e+00 -1.3466813180707912e-01 1.0000000000000000e+00 1.6651455381037763e+01 1.3647850554708576e+00 5.1042822009198572e+00 
3619 3620 2 1.4218704307376302e+00 -1.3463226557999541e-01 1.0000000000000000e+00 2.7661277297786349e+01 1.6419633476760813e+00 5.2606338053068509e+00 
1475 1476 2 1.4218704307376302e+00 -1.3459227564505577e-01 1.0000000000000000e+00 2.5546901803639122e+00 3.6597666885774975e+00 4.7662022487206679e+00 
3759 3760 2 1.4218704307376302e+00 -1.3461797898866620e-01 1.0000000000000000e+00 1.1379559984806823e+01 3.8352453488269074e+00 4.3753354768651098e+00 
3485 3486 2 1.4218704307376302e+00 -1.3473673445623771e-01 1.0000000000000000e+00 1.9990905979488446e+01 5.1298892050758091e+00 4.1541743787214518e+00 
872 873 2 1.4218704307376302e+00 -1.3449198087100006e-01 1.0000000000000000e+00 3.0252570662212651e+01 5.3025248177412765e+00 4.6126457648755439e+00 
4471 4472 2 1.4218704307376302e+00 -1.1189832835687630e-01 1.0000000000000000e+00 3.7892014095336952e+00 5.4043906663252947e+00 4.1235308875854306e+00 
1908 1909 2 1.4218704307376302e+00 -1.3457304082561347e-01 1.0000000000000000e+00 1.4576997024964307e+01 5.6905639080972712e+00 5.0591197583699499e+00 
89 90 2 1.4218704307376302e+00 -1.1205531895079243e-01 1.0000000000000000e+00 1.1304350275309503e+01 7.7207144743964653e+00 4.4160440154399767e+00 
2863 2864 2 1.4218704307376302e+00 -1.3503066500089206e-01 1.0000000000000000e+00 1.7086876744827704e+00 8.8100825998168837e+00 4.9603455083575598e+00 
485 486 2 1.4218704307376302e+00 -1.1183035548511792e-01 1.0000000000000000e+00 4.4477789179853238e+00 1.1435237972128906e+01 5.0415789087555511e+00 
2145 2146 2 1.4218704307376302e+00 -1.3469285155811409e-01 1.0000000000000000e+00 3.1953504732090675e+01 1.1783980981148312e+01 4.3643922721314405e+00 
1047 1048 2 1.4218704307376302e+00 -1.3469047509141560e-01 1.0000000000000000e+00 3.1351918180912108e-01 1.2889373528996963e+01 4.8205226991234733e+00 
4428 4429 2 1.4218704307376302e+00 -1.1178301186949136e-01 1.0000000000000000e+00 5.4331581881315723e+00 1.3839993646065690e+01 5.1139375109991008e+00 
913 914 2 1.4218704307376302e+00 -1.1185949499190238e-01 1.0000000000000000e+00 1.4166668443735220e+00 1.6289889651786041e+01 4.2116509756011133e+00 
3320 3321 2 1.4218704307376302e+00 -1.3449731467430487e-01 1.0000000000000000e+00 3.9141384008970306e+00 1.6749781308258527e+01 4.1081085098150929e+00 
4608 4609 2 1.4218704307376302e+00 -8.9077060171284611e-02 1.0000000000000000e+00 3.1754951677243554e+01 1.6140001836799570e+01 4.4574075663452426e+00 
1533 1534 2 1.4218704307376302e+00 -1.3479565827897597e-01 1.0000000000000000e+00 2.2171662170864085e+01 1.7466884815047354e+01 5.2804271919828807e+00 
619 620 2 1.4218704307200878e+00 -1.3425890795744244e-01 1.0000000000000000e+00 6.6304019425469631e+00 1.9044237785570900e+01 4.1815860090111645e+00 
584 585 2 1.4218704307376302e+00 -1.3467327648764557e-01 1.0000000000000000e+00 1.0639357079473069e+01 1.8808901581271954e+01 5.2023403456469755e+00 
4330 4331 2 1.4218704312551012e+00 -1.0948083385674004e-01 1.0000000000000000e+00 2.7112681984451665e+01 1.9902187273602589e+01 4.8468313639489908e+00 
3532 3533 2 1.4218704307376302e+00 -1.3452736765187845e-01 1.0000000000000000e+00 3.0473546436811873e+01 1.9850118477417023e+01 4.1461598522169139e+00 
3330 3331 2 1.4218704307376302e+00 -1.3465477501898848e-01 1.0000000000000000e+00 3.0759984561704692e+00 6.8840121730223081e-01 5.6085019408262857e+00 
1751 1752 2 1.4218704307376302e+00 -1.3493975879205228e-01 1.0000000000000000e+00 7.0633279960860138e+00 3.8223877505501536e-01 6.0243783033290068e+00 
2211 2212 2 1.4218704307376302e+00 -1.3458759023747666e-01 1.0000000000000000e+00 2.5390131597987121e+01 1.2934582439451185e+00 6.0885111273245807e+00 
843 844 2 1.4218704307376302e+00 -1.3419589712389338e-01 1.0000000000000000e+00 2.6192530896069042e+00 2.4283825779778319e+00 6.5372000504246506e+00 
289 290 2 1.4218704307376302e+00 -1.1195671861145601e-01 1.0000000000000000e+00 1.3767959485848248e+01 1.8681433057559256e+00 6.1044786189209690e+00 
2665 2666 2 1.4218704307376302e+00 -1.3454007425236442e-01 1.0000000000000000e+00 1.9628598582089953e+01 1.4746983901700899e+00 6.5928238780154018e+00 
4137 4138 2 1.4218704307376302e+00 -1.1165534111991338e-01 1.0000000000000000e+00 2.0326625710540565e+01 3.5454449874065248e+00 5.6379937603720025e+00 
1801 1802 2 1.4218704307376302e+00 -1.3484225629694427e-01 1.0000000000000000e+00 3.0718256692505424e+01 3.5198634283361949e+00 6.5293648022676098e+00 
3295 3296 2 1.4218704307376302e+00 -1.3488486219897558e-01 1.0000000000000000e+00 6.4011101793458751e+00 4.1219778088216286e+00 6.3964690197871610e+00 
4470 4471 2 1.4218704307376302e+00 -1.1162688288241511e-01 1.0000000000000000e+00 1.2940172793452984e+01 4.6954290794527020e+00 5.9611364362977151e+00 
955 956 2 1.4218704307376302e+00 -1.1182425657809200e-01 1.0000000000000000e+00 2.4276536274864490e+01 4.5508107634404480e+00 5.5931607942023245e+00 
3138 3139 2 1.4218704307376302e+00 -1.3479079674675395e-01 1.0000000000000000e+00 9.0512805491603459e+00 6.1082949180982489e+00 5.5016989436243664e+00 
3242 3243 2 1.4218704307376302e+00 -1.1201877869653451e-01 1.0000000000000000e+00 1.9359851911866080e+01 6.1345342465166111e+00 6.0570959469079826e+00 
3808 3809 2 1.4218704307376302e+00 -1.3472951509268732e-01 1.0000000000000000e+00 2.3720775829440647e+01 6.9316847990123707e+00 6.4294620501871034e+00 
2417 2418 2 1.4218704307376302e+00 -1.3489461039061046e-01 1.0000000000000000e+00 8.9718781816982105e+00 8.7950918805258844e+00 6.1553073599303438e+00 
1187 1188 2 1.4218704307376302e+00 -1.3469645798357793e-01 1.0000000000000000e+00 1.8200294235966041e+01 8.2550767847425703e+00 6.3650986113946697e+00 
3690 3691 2 1.4218704307376302e+00 -1.1196703310723036e-01 1.0000000000000000e+00 2.8550708876443775e+01 8.2699711493645616e+00 6.0517033579731816e+00 
1437 1438 2 1.4218704307376302e+00 -1.3457602136137525e-01 1.0000000000000000e+00 1.5100529378547305e+01 1.0615007052075642e+01 6.5254891247645590e+00 
4269 4270 2 1.4218704307801757e+00 -1.1147682564488980e-01 1.0000000000000000e+00 2.6417043433452360e+01 9.4046024823799339e+00 6.2064075435859101e+00 
4226 4227 2 1.4218704307376302e+00 -1.1203222651373915e-01 1.0000000000000000e+00 6.4853602747554344e+00 1.1068442203327530e+01 5.7664202008067891e+00 
1419 1420 2 1.4218704307376302e+00 -1.1206030803047778e-01 1.0000000000000000e+00 1.6367264251990189e+01 1.1784929440401850e+01 5.4534827075824959e+00 
2372 2373 2 1.4218704307376302e+00 -1.3489208409316747e-01 1.0000000000000000e+00 2.9770903469395847e+01 1.1326575546719436e+01 6.5135781691904171e+00 
3348 3349 2 1.4218704307376302e+00 -1.3468201037135988e-01 1.0000000000000000e+00 1.0897639010810671e+01 1.2067845974288552e+01 6.1153211781068162e+00 
2925 2926 2 1.4218704307376302e+00 -1.3482456409827331e-01 1.0000000000000000e+00 3.2698594927322802e+01 1.3709274678969647e+01 6.1356918977308945e+00 
3217 3218 2 1.4218704307376302e+00 -1.1192571820968067e-01 1.0000000000000000e+00 1.3816137542628432e+01 1.5827726501141882e+01 6.0582296802879787e+00 
2119 2120 2 1.4218704307376302e+00 -1.3498295057811099e-01 1.0000000000000000e+00 2.4858690515804703e+01 1.7088739394092734e+01 6.3582488455621391e+00 
3195 3196 2 1.4218704307376302e+00 -1.1169813551212227e-01 1.0000000000000000e+00 2.9268221868587172e+01 1.7238708774885730e+01 5.9024196793209356e+00 
3453 3454 2 1.4218704307376302e+00 -1.3452972892042483e-01 1.0000000000000000e+00 1.4648026569581358e+01 1.7664736261620252e+01 5.6623619232451592e+00 
1917 1918 2 1.4218704307376302e+00 -1.3463112947642183e-01 1.0000000000000000e+00 2.5765510268014031e+00 1.8706451326471399e+01 5.8749935859575677e+00 
3312 3313 2 1.4218704307376302e+00 -1.3481186997404160e-01 1.0000000000000000e+00 4.6311294344510987e+00 1.9381842098827239e+01 6.2831189512596275e+00 
4373 4374 2 1.4218704307376302e+00 -1.1180636089730746e-01 1.0000000000000000e+00 1.5015201847818423e+01 1.9645457176000093e+01 5.9225141649054045e+00 
3093 3094 2 1.4218704307376302e+00 -1.3461268643502045e-01 1.0000000000000000e+00 2.4422285902386093e+01 5.1114997569027698e-01 7.8988701555387362e+00 
4026 4027 2 1.4218704307376302e+00 -1.3497703283027218e-01 1.0000000000000000e+00 3.0598275983114707e+01 7.0853487046226926e-01 6.9033649883144204e+00 
3633 3634 2 1.4218704307376302e+00 -1.3453023832126287e-01 1.0000000000000000e+00 8.7322372183582830e-01 5.1502053989853325e+00 7.1921796576946395e+00 
189 190 2 1.4218704307376302e+00 -1.1171259252236519e-01 1.0000000000000000e+00 1.4443276511502994e+01 6.9681974522074643e+00 7.3206890530189721e+00 
3753 3754 2 1.4218704307801757e+00 -1.3448977057332273e-01 1.0000000000000000e+00 2.5627551358115799e+01 7.6209473351243648e+00 6.6814454942099104e+00 
2753 2754 2 1.4218704307376302e+00 -1.1176098702440987e-01 1.0000000000000000e+00 2.7614478015668670e+01 6.6790291144612155e+00 7.1012246379270998e+00 
1653 1654 2 1.4218704307376302e+00 -1.3501350724389991e-01 1.0000000000000000e+00 3.1770410198047127e+01 7.1825127185724913e+00 7.1280366415031837e+00 
321 322 2 1.4218704307376302e+00 -1.1162435223387657e-01 1.0000000000000000e+00 7.4136983260881220e+00 8.0260341281671579e+00 7.3906428466057204e+00 
2084 2085 2 1.4218704307480206e+00 -1.3506899220574697e-01 1.0000000000000000e+00 1.3441609460741262e+00 9.4188160092960338e+00 7.9097031326052738e+00 
1273 1274 2 1.4218704307376302e+00 -1.3468509825588723e-01 1.0000000000000000e+00 1.7470101386091699e+01 9.9525274717409786e+00 7.7100425697381398e+00 
2588 2589 2 1.4218704307376302e+00 -1.3481819249880453e-01 1.0000000000000000e+00 2.0924666239417522e+01 9.5890934100882284e+00 7.6618250187249917e+00 
3679 3680 2 1.4218704307376302e+00 -1.1171518198779329e-01 1.0000000000000000e+00 9.7271358375695520e+00 1.1071573771541063e+01 7.4553592706236351e+00 
284 285 2 1.4218704307376302e+00 -1.1193454250420636e-01 1.0000000000000000e+00 1.2816802728910606e+01 1.0732373029995580e+01 7.8339378500718331e+00 
2485 2486 2 1.4218704307376302e+00 -1.3501655893359613e-01 1.0000000000000000e+00 2.4158840957872425e+01 1.1624665775986813e+01 7.8336559677073385e+00 
1585 1586 2 1.4218704307376302e+00 -1.3486274159858361e-01 1.0000000000000000e+00 4.4220734862448801e+00 1.4341784417712336e+01 7.0628457667054958e+00 
729 730 2 1.4218704307376302e+00 -1.3476810845208151e-01 1.0000000000000000e+00 1.9318546682660202e+01 1.3438159308407608e+01 7.0259481359579379e+00 
3255 3256 2 1.4218704307376302e+00 -1.1170578326900897e-01 1.0000000000000000e+00 4.5467581534384499e-01 1.5706514487662416e+01 7.0528377810815996e+00 
2845 2846 2 1.4218704307376302e+00 -1.3473818264792881e-01 1.0000000000000000e+00 2.6960412800064233e+01 1.8691837820890949e+01 6.9200470817603694e+00 
246 247 2 1.4218704307376302e+00 -1.1159490518505219e-01 1.0000000000000000e+00 6.9192564320130101e+00 5.3851990453876641e-01 8.8444105103710324e+00 
3069 3070 2 1.4218704307376302e+00 -1.3471048961361534e-01 1.0000000000000000e+00 9.0868154463244935e+00 3.4041729853957281e-01 9.0931243434586868e+00 
2947 2948 2 1.4218704307376302e+00 -1.3465306101364544e-01 1.0000000000000000e+00 2.0736188731809762e+01 2.4975296075232092e+00 9.2957410243309315e+00 
653 654 2 1.4218704307376302e+00 -1.3465246227899888e-01 1.0000000000000000e+00 2.7464696723271196e+01 1.9287442293225372e+00 8.9819356672983499e+00 
218 219 2 1.4218704307376302e+00 -1.1183083457558030e-01 1.0000000000000000e+00 2.9554782766884607e+01 2.5390488561681899e+00 8.7989630722569050e+00 
3300 3301 2 1.4218704307376302e+00 -1.3458421310936677e-01 1.0000000000000000e+00 1.4473246737587768e+01 2.7747400310663344e+00 8.2231205022270952e+00 
738 739 2 1.4218704307376302e+00 -1.3463371754400921e-01 1.0000000000000000e+00 2.9189337714475028e+00 4.7030481804474080e+00 8.5485053496323058e+00 
2738 2739 2 1.4218704307376302e+00 -1.1157427428149774e-01 1.0000000000000000e+00 3.1128165909978691e+01 4.7530621086222409e+00 8.7785213225741163e+00 
869 870 2 1.4218704307376302e+00 -1.3464691792588365e-01 1.0000000000000000e+00 6.7958032325956621e+00 6.2937105894476062e+00 9.0358286391902300e+00 
776 777 2 1.4218704307376302e+00 -1.3471742783400401e-01 1.0000000000000000e+00 9.0788665759071545e+00 6.5203727705262384e+00 9.1096615286123654e+00 
2744 2745 2 1.4218704307376302e+00 -1.1199505520632647e-01 1.0000000000000000e+00 1.1350411212297333e+01 6.1354919238055849e+00 8.6791867894569759e+00 
3591 3592 2 1.4218704307376302e+00 -1.3476221149722731e-01 1.0000000000000000e+00 2.0522408547001145e+01 6.2866214529298974e+00 9.1268588403209616e+00 
2666 2667 2 1.4218704307376302e+00 -1.3471692663275839e-01 1.0000000000000000e+00 2.4005567483457263e+01 5.4007896049378834e+00 8.0186853417214703e+00 
3257 3258 2 1.4218704307376302e+00 -1.1181653570333505e-01 1.0000000000000000e+00 2.7154472489726587e+01 6.3777801123472280e+00 9.1744774483637261e+00 
3491 3492 2 1.4218704307376302e+00 -1.3467852880848441e-01 1.0000000000000000e+00 5.0763726551299069e+00 7.4899105968769621e+00 9.1178565151820337e+00 
4403 4404 2 1.4218704307376302e+00 -1.1164830776511880e-01 1.0000000000000000e+00 2.2076423139816999e+01 7.9985126217491160e+00 8.5319991144878511e+00 
242 243 2 1.4218704307376302e+00 -1.1193542606824976e-01 1.0000000000000000e+00 8.4327791202697870e+00 8.8083602595135826e+00 8.9441558535913064e+00 
3351 3352 2 1.4218704307376302e+00 -1.3480283172673255e-01 1.0000000000000000e+00 2.8607186886197049e+01 8.6525077489727931e+00 8.1752303485355249e+00 
824 825 2 1.4218704307376302e+00 -1.3470360451700025e-01 1.0000000000000000e+00 1.0677320671310184e+01 1.0280925347720929e+01 9.2855943120329165e+00 
1236 1237 2 1.4218704307376302e+00 -1.3521723456718884e-01 1.0000000000000000e+00 2.5329967120272656e+01 9.4529790088061549e+00 8.6900015611644221e+00 
2740 2741 2 1.4218704307376302e+00 -1.1181286025456720e-01 1.0000000000000000e+00 3.2437158845576711e+01 9.4918042418330142e+00 8.2760535228591543e+00 
498 499 2 1.4218704307376302e+00 -1.1200106720779635e-01 1.0000000000000000e+00 1.9611677616384199e+01 1.1284465398832099e+01 9.1297326747691496e+00 
3507 3508 2 1.4218704307376302e+00 -1.3475024053086559e-01 1.0000000000000000e+00 2.2066428265947639e+01 1.1467528550183797e+01 8.3544162281982715e+00 
3968 3969 2 1.4218704307376302e+00 -1.3484135788209151e-01 1.0000000000000000e+00 3.1122471124705617e+00 1.2622459526706288e+01 8.8580331095527800e+00 
3066 3067 2 1.4218704307376302e+00 -1.1165000899640753e-01 1.0000000000000000e+00 1.7333718346311901e+01 1.2302071685573374e+01 8.5569009805947083e+00 
2810 2811 2 1.4218704307376302e+00 -1.1170647133108458e-01 1.0000000000000000e+00 3.1998045834346883e+01 1.2534203139082130e+01 8.3705520187123046e+00 
2283 2284 2 1.4218704307376302e+00 -1.1159138802841090e-01 1.0000000000000000e+00 1.6372726912462692e+01 1.4456819343435548e+01 8.3365818038519173e+00 
3994 3995 2 1.4218704307376302e+00 -1.3472705292661133e-01 1.0000000000000000e+00 2.2684272396668987e+01 1.3559915436603804e+01 8.7690634612783036e+00 
1514 1515 2 1.4218704307376302e+00 -1.3462472944056536e-01 1.0000000000000000e+00 2.8331777471561495e+00 1.5861373640558725e+01 9.0578919283037926e+00 
378 379 2 1.4218704307376302e+00 -8.9007969651582836e-02 1.0000000000000000e+00 2.8846348303833675e+01 1.6904870701253664e+01 8.9466512073277951e+00 
793 794 2 1.4218704307376302e+00 -1.3434382606372566e-01 1.0000000000000000e+00 2.1883931459464709e+00 1.8297751966495174e+01 8.2543073657040029e+00 
3412 3413 2 1.4218704307376302e+00 -1.3488041869327622e-01 1.0000000000000000e+00 9.8074024372874717e+00 1.7543152932336106e+01 9.3195783757158246e+00 
2318 2319 2 1.4218704307376302e+00 -1.1123333438437416e-01 1.0000000000000000e+00 2.6515754511210648e+01 1.7341213499370991e+01 8.7011653582446922e+00 
1942 1943 2 1.4218704307376302e+00 -1.3485981401264391e-01 1.0000000000000000e+00 3.2612066861098796e+01 1.7810100014329826e+01 8.8740387396599125e+00 
2949 2950 2 1.4218704307376302e+00 -1.3479220518868909e-01 1.0000000000000000e+00 1.4193754284590387e+01 1.8940848841986913e+01 8.9446009611096411e+00 
2946 2947 2 1.4218704307376302e+00 -1.3477484051327213e-01 1.0000000000000000e+00 2.4233735663357951e+01 1.9843168681021091e+01 8.9051392858541156e+00 
445 446 2 1.4218704307376302e+00 -8.8785161015448824e-02 1.0000000000000000e+00 6.4638533400038938e+00 2.4710188208811079e+00 1.0425490039221987e+01 
1058 1059 2 1.4218704307376302e+00 -1.3461717387524041e-01 1.0000000000000000e+00 3.2042941579412036e+00 2.7541853928112445e+00 9.5702944719059957e+00 
3313 3314 2 1.4218704307376302e+00 -1.3451632450060289e-01 1.0000000000000000e+00 8.3635736788978896e+00 4.0682603591816520e+00 1.0510420664641233e+01 
143 144 2 1.4218704307376302e+00 -1.1192825555114505e-01 1.0000000000000000e+00 1.7070235054992274e+01 5.0089479574284939e+00 9.3449194597261638e+00 
1947 1948 2 1.4218704307376302e+00 -1.3453554816301297e-01 1.0000000000000000e+00 1.7405278525924917e+01 7.0395360889674077e+00 9.7395350862628636e+00 
3070 3071 2 1.4218704307376302e+00 -1.3409753624919579e-01 1.0000000000000000e+00 2.8902735392692879e+01 7.5076636325299928e+00 1.0286691096536094e+01 
2438 2439 2 1.4218704307376302e+00 -1.3456190116354153e-01 1.0000000000000000e+00 1.1658983285757820e+00 8.6659930343815059e+00 1.0051707613747096e+01 
433 434 2 1.4218704307376302e+00 -8.9030285578016316e-02 1.0000000000000000e+00 2.7682798925585921e+01 9.3292805340084701e+00 1.0312263519894413e+01 