LAMMPS data file via write_data, version 30 Jul 2016, timestep = 600000

2080 atoms
8 atom types

0.0000000000000000e+00 4.0000000000000000e+01 xlo xhi
0.0000000000000000e+00 4.0000000000000000e+01 ylo yhi
0.0000000000000000e+00 1.0000000000000000e+02 zlo zhi

Masses

1 3.896
2 4.306
3 20.064
4 8.378
5 8.378
6 8.378
7 8.378
8 8.378

Atoms # meso-molecular

1 2 4 2.2559723595316457e+00 0.0000000000000000e+00 1.0000000000000000e+00 0.0000000000000000e+00 0.0000000000000000e+00 2.5000000000000000e+00 
2 2 4 2.2559723595316457e+00 0.0000000000000000e+00 1.0000000000000000e+00 0.0000000000000000e+00 2.0000000000000000e+00 2.5000000000000000e+00 
3 2 4 2.2559723595316457e+00 0.0000000000000000e+00 1.0000000000000000e+00 0.0000000000000000e+00 4.0000000000000000e+00 2.5000000000000000e+00 
4 2 4 2.2559723595316457e+00 0.0000000000000000e+00 1.0000000000000000e+00 0.0000000000000000e+00 6.0000000000000000e+00 2.5000000000000000e+00 
5 2 4 2.2559723595316457e+00 0.0000000000000000e+00 1.0000000000000000e+00 0.0000000000000000e+00 8.0000000000000000e+00 2.5000000000000000e+00 
21 2 4 2.2559723595316457e+00 0.0000000000000000e+00 1.0000000000000000e+00 2.0000000000000000e+00 0.0000000000000000e+00 2.5000000000000000e+00 
22 2 4 2.2559723595316457e+00 0.0000000000000000e+00 1.0000000000000000e+00 2.0000000000000000e+00 2.0000000000000000e+00 2.5000000000000000e+00 
23 2 4 2.2559723595316457e+00 0.0000000000000000e+00 1.0000000000000000e+00 2.0000000000000000e+00 4.0000000000000000e+00 2.5000000000000000e+00 
24 2 4 2.2559723595316457e+00 0.0000000000000000e+00 1.0000000000000000e+00 2.0000000000000000e+00 6.0000000000000000e+00 2.5000000000000000e+00 
25 2 4 2.2559723595316457e+00 0.0000000000000000e+00 1.0000000000000000e+00 2.0000000000000000e+00 8.0000000000000000e+00 2.5000000000000000e+00 
41 2 4 2.2559723595316457e+00 0.0000000000000000e+00 1.0000000000000000e+00 4.0000000000000000e+00 0.0000000000000000e+00 2.5000000000000000e+00 
42 2 4 2.2559723595316457e+00 0.0000000000000000e+00 1.0000000000000000e+00 4.0000000000000000e+00 2.0000000000000000e+00 2.5000000000000000e+00 
43 2 4 2.2559723595316457e+00 0.0000000000000000e+00 1.0000000000000000e+00 4.0000000000000000e+00 4.0000000000000000e+00 2.5000000000000000e+00 
44 2 4 2.2559723595316457e+00 0.0000000000000000e+00 1.0000000000000000e+00 4.0000000000000000e+00 6.0000000000000000e+00 2.5000000000000000e+00 
45 2 4 2.2559723595316457e+00 -3.1790017223578953e-05 1.0000000000000000e+00 4.0000000000000000e+00 8.0000000000000000e+00 2.5000000000000000e+00 
61 2 4 2.2559723595316457e+00 0.0000000000000000e+00 1.0000000000000000e+00 6.0000000000000000e+00 0.0000000000000000e+00 2.5000000000000000e+00 
62 2 4 2.2559723595316457e+00 0.0000000000000000e+00 1.0000000000000000e+00 6.0000000000000000e+00 2.0000000000000000e+00 2.5000000000000000e+00 
63 2 4 2.2559723595316457e+00 -1.5884837563374030e-01 1.0000000000000000e+00 6.0000000000000000e+00 4.0000000000000000e+00 2.5000000000000000e+00 
64 2 4 2.2559723595316457e+00 -3.0528945209766261e+00 1.0000000000000000e+00 6.0000000000000000e+00 6.0000000000000000e+00 2.5000000000000000e+00 
65 2 4 2.2559723595316457e+00 -1.1694648989785955e+01 1.0000000000000000e+00 6.0000000000000000e+00 8.0000000000000000e+00 2.5000000000000000e+00 
81 2 4 2.2559723595316457e+00 0.0000000000000000e+00 1.0000000000000000e+00 8.0000000000000000e+00 0.0000000000000000e+00 2.5000000000000000e+00 
82 2 4 2.2559723595316457e+00 -6.9390344522458813e-01 1.0000000000000000e+00 8.0000000000000000e+00 2.0000000000000000e+00 2.5000000000000000e+00 
83 2 4 2.2559723595316457e+00 -1.1832337158328452e+01 1.0000000000000000e+00 8.0000000000000000e+00 4.0000000000000000e+00 2.5000000000000000e+00 
84 2 4 2.2559723595316457e+00 -5.3698630499759290e+01 1.0000000000000000e+00 8.0000000000000000e+00 6.0000000000000000e+00 2.5000000000000000e+00 
85 2 4 2.2559723595316457e+00 -1.3844399932851152e+02 1.0000000000000000e+00 8.0000000000000000e+00 8.0000000000000000e+00 2.5000000000000000e+00 
101 2 4 2.2559723595316457e+00 -1.5886102855292833e-01 1.0000000000000000e+00 1.0000000000000000e+01 0.0000000000000000e+00 2.5000000000000000e+00 
102 2 4 2.2559723595316457e+00 -1.1803812120859035e+01 1.0000000000000000e+00 1.0000000000000000e+01 2.0000000000000000e+00 2.5000000000000000e+00 
103 2 4 2.2559723595316457e+00 -8.1009153630034646e+01 1.0000000000000000e+00 1.0000000000000000e+01 4.0000000000000000e+00 2.5000000000000000e+00 
104 2 4 2.2559723595316457e+00 -2.7265136450357107e+02 1.0000000000000000e+00 1.0000000000000000e+01 6.0000000000000000e+00 2.5000000000000000e+00 
105 2 4 2.2559723595316457e+00 -6.1243895516433008e+02 1.0000000000000000e+00 1.0000000000000000e+01 8.0000000000000000e+00 2.5000000000000000e+00 
121 2 4 2.2559723595316457e+00 -3.0455692884094949e+00 1.0000000000000000e+00 1.2000000000000000e+01 0.0000000000000000e+00 2.5000000000000000e+00 
122 2 4 2.2559723595316457e+00 -5.3054794042651494e+01 1.0000000000000000e+00 1.2000000000000000e+01 2.0000000000000000e+00 2.5000000000000000e+00 
123 2 4 2.2559723595316457e+00 -2.6978987983641014e+02 1.0000000000000000e+00 1.2000000000000000e+01 4.0000000000000000e+00 2.5000000000000000e+00 
124 2 4 2.2559723595316457e+00 -7.9399644631007220e+02 1.0000000000000000e+00 1.2000000000000000e+01 6.0000000000000000e+00 2.5000000000000000e+00 
125 2 4 2.2559723595316457e+00 -1.6671778061156342e+03 1.0000000000000000e+00 1.2000000000000000e+01 8.0000000000000000e+00 2.5000000000000000e+00 
141 2 4 2.2559723595316457e+00 -1.1510854671656020e+01 1.0000000000000000e+00 1.4000000000000000e+01 0.0000000000000000e+00 2.5000000000000000e+00 
142 2 4 2.2559723595316457e+00 -1.3431772763923394e+02 1.0000000000000000e+00 1.4000000000000000e+01 2.0000000000000000e+00 2.5000000000000000e+00 
143 2 4 2.2559723595316457e+00 -5.9440566711953500e+02 1.0000000000000000e+00 1.4000000000000000e+01 4.0000000000000000e+00 2.5000000000000000e+00 
144 2 4 2.2559723595316457e+00 -1.6341165402225784e+03 1.0000000000000000e+00 1.4000000000000000e+01 6.0000000000000000e+00 2.5000000000000000e+00 
145 2 4 2.2559723595316457e+00 -3.3144590831609976e+03 1.0000000000000000e+00 1.4000000000000000e+01 8.0000000000000000e+00 2.5000000000000000e+00 
161 2 4 2.2559723595316457e+00 -2.3490683502408100e+01 1.0000000000000000e+00 1.6000000000000000e+01 0.0000000000000000e+00 2.5000000000000000e+00 
162 2 4 2.2559723595316457e+00 -2.3557335116395305e+02 1.0000000000000000e+00 1.6000000000000000e+01 2.0000000000000000e+00 2.5000000000000000e+00 
163 2 4 2.2559723595316457e+00 -9.7267374207446392e+02 1.0000000000000000e+00 1.6000000000000000e+01 4.0000000000000000e+00 2.5000000000000000e+00 
164 2 4 2.2559723595316457e+00 -2.5783429565849065e+03 1.0000000000000000e+00 1.6000000000000000e+01 6.0000000000000000e+00 2.5000000000000000e+00 
165 2 4 2.2559723595316457e+00 -5.1344739817450709e+03 1.0000000000000000e+00 1.6000000000000000e+01 8.0000000000000000e+00 2.5000000000000000e+00 
181 2 4 2.2559723595316457e+00 -3.2592257163051940e+01 1.0000000000000000e+00 1.8000000000000000e+01 0.0000000000000000e+00 2.5000000000000000e+00 
182 2 4 2.2559723595316457e+00 -3.0844508277360694e+02 1.0000000000000000e+00 1.8000000000000000e+01 2.0000000000000000e+00 2.5000000000000000e+00 
183 2 4 2.2559723595316457e+00 -1.2346716622031172e+03 1.0000000000000000e+00 1.8000000000000000e+01 4.0000000000000000e+00 2.5000000000000000e+00 
184 2 4 2.2559723595316457e+00 -3.2187064594762019e+03 1.0000000000000000e+00 1.8000000000000000e+01 6.0000000000000000e+00 2.5000000000000000e+00 
185 2 4 2.2559723595316457e+00 -6.3580759088353661e+03 1.0000000000000000e+00 1.8000000000000000e+01 8.0000000000000000e+00 2.5000000000000000e+00 
6 2 4 2.2559723595316457e+00 0.0000000000000000e+00 1.0000000000000000e+00 0.0000000000000000e+00 1.0000000000000000e+01 2.5000000000000000e+00 
7 2 4 2.2559723595316457e+00 0.0000000000000000e+00 1.0000000000000000e+00 0.0000000000000000e+00 1.2000000000000000e+01 2.5000000000000000e+00 
8 2 4 2.2559723595316457e+00 0.0000000000000000e+00 1.0000000000000000e+00 0.0000000000000000e+00 1.4000000000000000e+01 2.5000000000000000e+00 
9 2 4 2.2559723595316457e+00 0.0000000000000000e+00 1.0000000000000000e+00 0.0000000000000000e+00 1.6000000000000000e+01 2.5000000000000000e+00 
10 2 4 2.2559723595316457e+00 0.0000000000000000e+00 1.0000000000000000e+00 0.0000000000000000e+00 1.8000000000000000e+01 2.5000000000000000e+00 
26 2 4 2.2559723595316457e+00 0.0000000000000000e+00 1.0000000000000000e+00 2.0000000000000000e+00 1.0000000000000000e+01 2.5000000000000000e+00 
27 2 4 2.2559723595316457e+00 0.0000000000000000e+00 1.0000000000000000e+00 2.0000000000000000e+00 1.2000000000000000e+01 2.5000000000000000e+00 
28 2 4 2.2559723595316457e+00 0.0000000000000000e+00 1.0000000000000000e+00 2.0000000000000000e+00 1.4000000000000000e+01 2.5000000000000000e+00 
29 2 4 2.2559723595316457e+00 0.0000000000000000e+00 1.0000000000000000e+00 2.0000000000000000e+00 1.6000000000000000e+01 2.5000000000000000e+00 
30 2 4 2.2559723595316457e+00 0.0000000000000000e+00 1.0000000000000000e+00 2.0000000000000000e+00 1.8000000000000000e+01 2.5000000000000000e+00 
46 2 4 2.2559723595316457e+00 -8.1499479620890606e-03 1.0000000000000000e+00 4.0000000000000000e+00 1.0000000000000000e+01 2.5000000000000000e+00 
47 2 4 2.2559723595316457e+00 -9.5246728270737720e-03 1.0000000000000000e+00 4.0000000000000000e+00 1.2000000000000000e+01 2.5000000000000000e+00 
48 2 4 2.2559723595316457e+00 -1.0196636598004729e-02 1.0000000000000000e+00 4.0000000000000000e+00 1.4000000000000000e+01 2.5000000000000000e+00 
49 2 4 2.2559723595316457e+00 -1.0481415256464741e-02 1.0000000000000000e+00 4.0000000000000000e+00 1.6000000000000000e+01 2.5000000000000000e+00 
50 2 4 2.2559723595316457e+00 -1.0566241095071580e-02 1.0000000000000000e+00 4.0000000000000000e+00 1.8000000000000000e+01 2.5000000000000000e+00 
66 2 4 2.2559723595316457e+00 -2.4466566933851613e+01 1.0000000000000000e+00 6.0000000000000000e+00 1.0000000000000000e+01 2.5000000000000000e+00 
67 2 4 2.2559723595316457e+00 -3.5714075894795329e+01 1.0000000000000000e+00 6.0000000000000000e+00 1.2000000000000000e+01 2.5000000000000000e+00 
68 2 4 2.2559723595316457e+00 -4.1659586311142434e+01 1.0000000000000000e+00 6.0000000000000000e+00 1.4000000000000000e+01 2.5000000000000000e+00 
69 2 4 2.2559723595316457e+00 -4.3700484447854159e+01 1.0000000000000000e+00 6.0000000000000000e+00 1.6000000000000000e+01 2.5000000000000000e+00 
70 2 4 2.2559723595316457e+00 -4.4411926960881004e+01 1.0000000000000000e+00 6.0000000000000000e+00 1.8000000000000000e+01 2.5000000000000000e+00 
86 2 4 2.2559723595316457e+00 -2.5101488761529438e+02 1.0000000000000000e+00 8.0000000000000000e+00 1.0000000000000000e+01 2.5000000000000000e+00 
87 2 4 2.2559723595316457e+00 -3.5560513825193459e+02 1.0000000000000000e+00 8.0000000000000000e+00 1.2000000000000000e+01 2.5000000000000000e+00 
88 2 4 2.2559723595316457e+00 -4.2390591326641481e+02 1.0000000000000000e+00 8.0000000000000000e+00 1.4000000000000000e+01 2.5000000000000000e+00 
89 2 4 2.2559723595316457e+00 -4.5491830518223588e+02 1.0000000000000000e+00 8.0000000000000000e+00 1.6000000000000000e+01 2.5000000000000000e+00 
90 2 4 2.2559723595316457e+00 -4.6497765007326575e+02 1.0000000000000000e+00 8.0000000000000000e+00 1.8000000000000000e+01 2.5000000000000000e+00 
106 2 4 2.2559723595316457e+00 -1.0431402409799125e+03 1.0000000000000000e+00 1.0000000000000000e+01 1.0000000000000000e+01 2.5000000000000000e+00 
107 2 4 2.2559723595316457e+00 -1.4485084547520069e+03 1.0000000000000000e+00 1.0000000000000000e+01 1.2000000000000000e+01 2.5000000000000000e+00 
108 2 4 2.2559723595316457e+00 -1.7316627164208176e+03 1.0000000000000000e+00 1.0000000000000000e+01 1.4000000000000000e+01 2.5000000000000000e+00 
109 2 4 2.2559723595316457e+00 -1.8747660939457735e+03 1.0000000000000000e+00 1.0000000000000000e+01 1.6000000000000000e+01 2.5000000000000000e+00 
110 2 4 2.2559723595316457e+00 -1.9238125055128824e+03 1.0000000000000000e+00 1.0000000000000000e+01 1.8000000000000000e+01 2.5000000000000000e+00 
126 2 4 2.2559723595316457e+00 -2.7507928527960175e+03 1.0000000000000000e+00 1.2000000000000000e+01 1.0000000000000000e+01 2.5000000000000000e+00 
127 2 4 2.2559723595316457e+00 -3.7780825821032113e+03 1.0000000000000000e+00 1.2000000000000000e+01 1.2000000000000000e+01 2.5000000000000000e+00 
128 2 4 2.2559723595316457e+00 -4.5182314846249410e+03 1.0000000000000000e+00 1.2000000000000000e+01 1.4000000000000000e+01 2.5000000000000000e+00 
129 2 4 2.2559723595316457e+00 -4.9109667960946863e+03 1.0000000000000000e+00 1.2000000000000000e+01 1.6000000000000000e+01 2.5000000000000000e+00 
130 2 4 2.2559723595316457e+00 -5.0500640557268061e+03 1.0000000000000000e+00 1.2000000000000000e+01 1.8000000000000000e+01 2.5000000000000000e+00 
146 2 4 2.2559723595316457e+00 -5.3840394653594885e+03 1.0000000000000000e+00 1.4000000000000000e+01 1.0000000000000000e+01 2.5000000000000000e+00 
147 2 4 2.2559723595316457e+00 -7.3611169275578377e+03 1.0000000000000000e+00 1.4000000000000000e+01 1.2000000000000000e+01 2.5000000000000000e+00 
148 2 4 2.2559723595316457e+00 -8.8120054453387693e+03 1.0000000000000000e+00 1.4000000000000000e+01 1.4000000000000000e+01 2.5000000000000000e+00 
149 2 4 2.2559723595316457e+00 -9.5998046410240022e+03 1.0000000000000000e+00 1.4000000000000000e+01 1.6000000000000000e+01 2.5000000000000000e+00 
150 2 4 2.2559723595316457e+00 -9.8834048213055794e+03 1.0000000000000000e+00 1.4000000000000000e+01 1.8000000000000000e+01 2.5000000000000000e+00 
166 2 4 2.2559723595316457e+00 -8.2787102174757219e+03 1.0000000000000000e+00 1.6000000000000000e+01 1.0000000000000000e+01 2.5000000000000000e+00 
167 2 4 2.2559723595316457e+00 -1.1305189434949172e+04 1.0000000000000000e+00 1.6000000000000000e+01 1.2000000000000000e+01 2.5000000000000000e+00 
168 2 4 2.2559723595316457e+00 -1.3557184321409897e+04 1.0000000000000000e+00 1.6000000000000000e+01 1.4000000000000000e+01 2.5000000000000000e+00 
169 2 4 2.2559723595316457e+00 -1.4799731807916374e+04 1.0000000000000000e+00 1.6000000000000000e+01 1.6000000000000000e+01 2.5000000000000000e+00 
170 2 4 2.2559723595316457e+00 -1.5249470049273208e+04 1.0000000000000000e+00 1.6000000000000000e+01 1.8000000000000000e+01 2.5000000000000000e+00 
186 2 4 2.2559723595316457e+00 -1.0222186724609821e+04 1.0000000000000000e+00 1.8000000000000000e+01 1.0000000000000000e+01 2.5000000000000000e+00 
187 2 4 2.2559723595316457e+00 -1.3960027761170002e+04 1.0000000000000000e+00 1.8000000000000000e+01 1.2000000000000000e+01 2.5000000000000000e+00 
188 2 4 2.2559723595316457e+00 -1.6763172737438053e+04 1.0000000000000000e+00 1.8000000000000000e+01 1.4000000000000000e+01 2.5000000000000000e+00 
189 2 4 2.2559723595316457e+00 -1.8323735286645366e+04 1.0000000000000000e+00 1.8000000000000000e+01 1.6000000000000000e+01 2.5000000000000000e+00 
190 2 4 2.2559723595316457e+00 -1.8891235571729692e+04 1.0000000000000000e+00 1.8000000000000000e+01 1.8000000000000000e+01 2.5000000000000000e+00 
1094 696 2 1.0267431704370125e+00 7.2704893784223414e+03 1.0000000000000000e+00 9.9572981730515266e+00 1.9284786524683884e+01 2.2065713704961098e+01 
817 419 2 1.0249345041067572e+00 -3.5068584390709948e+03 1.0000000000000000e+00 9.8193014495903661e+00 1.8899789787525389e+01 2.2162641910519621e+01 
1419 1021 2 1.0289612289141625e+00 -2.3428672614680752e+02 1.0000000000000000e+00 1.4222191118267050e+01 1.7298560537634941e+01 1.9415066091724004e+01 
410 12 2 1.0268188079701130e+00 -1.0644247304400064e+04 1.0000000000000000e+00 1.6518980782160082e+01 1.8494977644914165e+01 2.0394168158320639e+01 
948 550 2 1.0286392829755884e+00 5.7394546433224059e+03 1.0000000000000000e+00 1.5761856416881569e+01 1.8191052554498871e+01 2.0516822879230187e+01 
1418 1020 2 1.0298813503928252e+00 -2.3649181798043389e+02 1.0000000000000000e+00 1.4042704808338216e+01 1.7315314077663896e+01 1.9062554502746124e+01 
727 329 2 1.0273661396236065e+00 9.6395370079533041e+03 1.0000000000000000e+00 1.9971927389700792e+01 1.7587965878750868e+01 1.7986502651181638e+01 
1260 862 2 1.0287935897647689e+00 -4.6314449827942717e+03 1.0000000000000000e+00 1.3116466054455152e+01 1.8173295910488136e+01 1.7936413928794117e+01 
411 13 2 1.0296807658522704e+00 -1.0643029898397492e+04 1.0000000000000000e+00 1.4517758146812577e+01 1.7295936523914577e+01 1.9433749157211736e+01 
1413 1015 2 1.0280065335548083e+00 4.0987712949756624e+03 1.0000000000000000e+00 1.3461143957936130e+01 1.8077929892484459e+01 1.7761197317524921e+01 
1722 1324 2 1.0290828311294180e+00 1.7259355586924314e+03 1.0000000000000000e+00 1.2989865132178508e+01 1.8184131382173273e+01 1.8034285158721019e+01 
1585 1187 2 1.0274967351243876e+00 -3.2641307181090956e+03 1.0000000000000000e+00 1.6494388845683147e+01 1.8235666223956908e+01 2.0246043472848967e+01 
756 358 2 1.0261281355579563e+00 -9.0567830066258909e+02 1.0000000000000000e+00 1.8449386515086573e+01 1.9419672119439216e+01 1.9762702665377699e+01 
1793 1395 2 1.0303981276003358e+00 7.2744143913602602e+03 1.0000000000000000e+00 1.2889539510792950e+01 1.9631207491895257e+01 1.7728850091399586e+01 
1395 997 2 1.0272049652549355e+00 7.8814343634220484e+02 1.0000000000000000e+00 1.6643013705920829e+01 1.8662424269539081e+01 2.0405903515466974e+01 
833 435 2 1.0290860232423298e+00 -2.5106132728017737e+03 1.0000000000000000e+00 1.3862658094977157e+01 1.7623636489089453e+01 1.8098344941379750e+01 
589 191 2 1.0275945475522956e+00 -2.2757806240350660e+03 1.0000000000000000e+00 1.7177312551936680e+01 1.9276832863918035e+01 2.0278004880408670e+01 
1339 941 2 1.0294417295673015e+00 -8.8329865592962324e+03 1.0000000000000000e+00 1.5337805001343169e+01 1.7720990075888757e+01 2.0213771952313149e+01 
1010 612 2 1.0280126373379077e+00 6.9546409987930429e+03 1.0000000000000000e+00 1.6272835240840564e+01 1.8340420878573024e+01 2.0406332382867934e+01 
1699 1301 2 1.0291578358817863e+00 2.3516586981930609e+03 1.0000000000000000e+00 1.3164268177443214e+01 1.8114377590291827e+01 1.7959261143845858e+01 
1361 963 2 1.0263516197361353e+00 5.9729594589264980e+03 1.0000000000000000e+00 1.9670943558597024e+01 1.7582029735206042e+01 1.7817012082568937e+01 
1163 765 2 1.0264430794695198e+00 -2.4400999457166336e+03 1.0000000000000000e+00 1.8839814737405526e+01 1.9753442872703943e+01 1.9564216552130819e+01 
731 333 2 1.0313273399157175e+00 5.9401989846358611e+03 1.0000000000000000e+00 1.0393279750944297e+01 1.9121637904004206e+01 2.1447249723000382e+01 
818 420 2 1.0278901329084638e+00 6.7494119405060346e+01 1.0000000000000000e+00 1.7711805805562300e+01 1.9534592957229322e+01 2.0020729622141097e+01 
651 253 2 1.0305091679907945e+00 -3.2706363421113292e+03 1.0000000000000000e+00 1.4059698376991292e+01 1.7328182695373023e+01 1.8935078125259896e+01 
1188 790 2 1.0272170189324887e+00 3.6565999285755288e+03 1.0000000000000000e+00 1.7651053234435608e+01 1.9484947533383380e+01 2.0061287806324039e+01 
2073 1675 2 1.0291432078727147e+00 -2.4260802833101402e+03 1.0000000000000000e+00 1.4388535220902028e+01 1.7277869543907645e+01 1.9296212438834779e+01 
1659 1261 2 1.0274243639786960e+00 7.3497388466167095e+01 1.0000000000000000e+00 1.5398993546092161e+01 1.7794090462433086e+01 2.0311927475881323e+01 
1791 1393 2 1.0255529395498941e+00 7.6306819410103244e+03 1.0000000000000000e+00 1.5745805590683720e+01 1.8814292354710254e+01 1.6532643377229338e+01 
1225 827 2 1.0278178055865166e+00 7.0207906773917684e+03 1.0000000000000000e+00 1.5967893033762611e+01 1.7342182666750830e+01 1.8092826687925154e+01 
851 453 2 1.0282867811180763e+00 -2.1574106922284511e+02 1.0000000000000000e+00 1.5094587628663987e+01 1.7275547583916300e+01 1.8409742706243104e+01 
1927 1529 2 1.0274021864003289e+00 -8.9816256597256834e+03 1.0000000000000000e+00 1.9314768010420291e+01 1.8215646494021801e+01 1.9114585239294126e+01 
1381 983 2 1.0297977680041137e+00 1.6195568677300953e+04 1.0000000000000000e+00 1.4835975707647680e+01 1.7572198643766136e+01 1.7733587624887299e+01 
1553 1155 2 1.0292498724643604e+00 1.2375378658327560e+04 1.0000000000000000e+00 1.2819015355192368e+01 1.9388622334398296e+01 1.7731131451022470e+01 
1792 1394 2 1.0255834320470780e+00 4.6807962666232688e+03 1.0000000000000000e+00 1.1569455600725387e+01 1.9996539690257620e+01 1.9400902485817980e+01 
937 539 2 1.0264415815519663e+00 -3.5645977103174400e+03 1.0000000000000000e+00 1.7819014661711105e+01 1.9938096241290626e+01 1.9876263593326687e+01 
1140 742 2 1.0289174367890690e+00 -5.3723639487867476e+03 1.0000000000000000e+00 1.5002124315122240e+01 1.7290768666153866e+01 1.8386694597075756e+01 
836 438 2 1.0268144461786162e+00 -2.5091883629416361e+03 1.0000000000000000e+00 1.7744902495702853e+01 1.7825157863571132e+01 1.9203374973172643e+01 
1088 690 2 1.0289189147610509e+00 6.3995744820718210e+02 1.0000000000000000e+00 1.4704600622213498e+01 1.8867600818386165e+01 1.6792722062125055e+01 
650 252 2 1.0259403975451518e+00 -3.2821844848918840e+03 1.0000000000000000e+00 1.6806509685690656e+01 1.7570510289347599e+01 1.7489905841816249e+01 
1414 1016 2 1.0261339048217784e+00 1.1604706587596600e+04 1.0000000000000000e+00 1.8179878762336511e+01 1.8348773278822247e+01 1.9570877816400245e+01 
1676 1278 2 1.0295694086545821e+00 -2.5113133030577897e+03 1.0000000000000000e+00 1.3750117027468621e+01 1.8321441526186462e+01 1.7420023088981992e+01 
1923 1525 2 1.0268847340517366e+00 -1.0639398333822122e+04 1.0000000000000000e+00 1.7092283087791312e+01 1.8614512494022058e+01 2.0186840635327997e+01 
657 259 2 1.0288847862511759e+00 -4.3638385686760939e+03 1.0000000000000000e+00 1.7978524322704690e+01 1.7595977756780499e+01 1.7784961479182090e+01 
1584 1186 2 1.0251737624934012e+00 -2.0658290668021577e+03 1.0000000000000000e+00 1.7086347478198007e+01 1.8310353303425899e+01 2.0047708590816526e+01 
1729 1331 2 1.0284988697272022e+00 1.4553170643274239e+03 1.0000000000000000e+00 1.5663941033447021e+01 1.9819134663979813e+01 1.6584168538464212e+01 
1018 620 2 1.0271950595467481e+00 4.2886676654979068e+00 1.0000000000000000e+00 1.8688022414879157e+01 1.9533227039919080e+01 1.6177911738364458e+01 
1222 824 2 1.0293210754914521e+00 -1.4256352642321342e+03 1.0000000000000000e+00 1.7964298257012977e+01 1.8750224197115109e+01 1.6363385137759444e+01 
1416 1018 2 1.0289248954958354e+00 4.0931300650368230e+03 1.0000000000000000e+00 1.9742827285866525e+01 1.9915789177950000e+01 1.6102863092879492e+01 
1968 1570 2 1.0282610348738666e+00 -4.2595641571350643e+03 1.0000000000000000e+00 1.8862163052430599e+01 1.9567936681052824e+01 1.6168134413419292e+01 
1800 1402 2 1.0281487271840490e+00 2.4483648726576785e+03 1.0000000000000000e+00 1.9079958768214755e+01 1.9679688224375962e+01 1.6154071868168423e+01 
1980 1582 2 1.0285673872502934e+00 -2.4036160803963030e+03 1.0000000000000000e+00 1.9802020326873183e+01 1.7999315984030808e+01 1.6501859542661119e+01 
1808 1410 2 1.0281485619950363e+00 4.4741903640497878e+02 1.0000000000000000e+00 1.9553190490401732e+01 1.8332116850973044e+01 1.6268963303602668e+01 
741 343 2 1.0277298262488346e+00 -2.0667860863487927e+03 1.0000000000000000e+00 1.9648519553759844e+01 1.8869438915359392e+01 1.5994459495469965e+01 
1332 934 2 1.0288226680156980e+00 -4.0777963902181314e+03 1.0000000000000000e+00 1.9337183135439279e+01 1.8644564856431852e+01 1.6163074204317258e+01 
479 81 2 1.0284015598195639e+00 1.6332048774905718e+03 1.0000000000000000e+00 1.9979008341700908e+01 1.7575929711285102e+01 1.7406472527788484e+01 
1844 1446 2 1.0277871568907317e+00 -5.1018762124795439e+03 1.0000000000000000e+00 1.9671164164446004e+01 1.8144826396839672e+01 1.6379887004869282e+01 
735 337 2 1.0283690746114424e+00 3.1167120096220106e+03 1.0000000000000000e+00 1.9971154951731286e+01 1.7712206791222794e+01 1.6895373319520584e+01 
2008 1610 2 1.0276680982618376e+00 -7.8054823122683765e+03 1.0000000000000000e+00 1.9721381007898056e+01 1.9162409472919730e+01 1.5933584389855927e+01 
475 77 2 1.0286405414560162e+00 -7.9310491300025860e+03 1.0000000000000000e+00 1.9884613038933288e+01 1.9360802030294128e+01 1.5904390708076622e+01 
1171 773 2 1.0274416322791819e+00 -8.8333539724232523e+03 1.0000000000000000e+00 1.7501679588048788e+01 1.8671108910267918e+01 2.0017233188662392e+01 
617 219 2 1.0302229723177989e+00 7.2727111313594251e+03 1.0000000000000000e+00 1.9592957528271619e+01 1.9721778834862537e+01 1.6077976240691317e+01 
946 548 2 1.0282354938693457e+00 5.1955436880906984e+02 1.0000000000000000e+00 1.9750450193792268e+01 1.8260086260197646e+01 1.6262975263426828e+01 
1074 676 2 1.0284758598525856e+00 -2.1796267737886061e+04 1.0000000000000000e+00 1.9895212685296777e+01 1.9265945416126279e+01 1.5893677570939690e+01 
1987 1589 2 1.0295170498860007e+00 -7.9289669238163151e+03 1.0000000000000000e+00 1.9715332611611171e+01 1.9316183438292011e+01 1.5958368150936884e+01 
1811 1413 2 1.0320957768710388e+00 6.2296218363558573e+03 1.0000000000000000e+00 1.1955693269997381e+01 1.9640354007704918e+01 1.8710653376440714e+01 
770 372 2 1.0317114320616438e+00 4.0480708133963421e+03 1.0000000000000000e+00 1.1483145381882236e+01 1.9829198194283421e+01 1.9556016714272833e+01 
1469 1071 2 1.0289040905682656e+00 5.2984689023060548e+02 1.0000000000000000e+00 1.9457578566857919e+01 1.9179617930248032e+01 1.6016385771047336e+01 
2031 1633 2 1.0271852077362682e+00 -2.8140439744513478e+03 1.0000000000000000e+00 1.8883306649986167e+01 1.8516287766955863e+01 1.6304245296832597e+01 
794 396 2 1.0280469576130060e+00 8.9048878514214430e+03 1.0000000000000000e+00 1.9453554283171837e+01 1.8922038158540197e+01 1.6038217783692684e+01 
2007 1609 2 1.0269625037297825e+00 -3.2291813434669252e+03 1.0000000000000000e+00 1.8937697132270408e+01 1.8207065043469655e+01 1.6504729491125364e+01 
624 226 2 1.0290126073282566e+00 2.4528583987692500e+03 1.0000000000000000e+00 1.9471719080079961e+01 1.8328277919092365e+01 1.6307330283066126e+01 
1331 933 2 1.0265669860426494e+00 -2.4379262964228187e+03 1.0000000000000000e+00 1.8930339818246619e+01 1.8708291580324587e+01 1.9509825921074341e+01 
1812 1414 2 1.0298086946863396e+00 1.8106348268638342e+03 1.0000000000000000e+00 1.9240000011441925e+01 1.8595901353518542e+01 1.6221178667898368e+01 
1257 859 2 1.0301141809603638e+00 -4.6365406954377640e+03 1.0000000000000000e+00 1.9238835577566977e+01 1.9031181690170349e+01 1.6096007072528284e+01 
1242 844 2 1.0292406384603952e+00 -2.1797758315293137e+04 1.0000000000000000e+00 1.9240072934235290e+01 1.9239540856187684e+01 1.6070594739480139e+01 
1066 668 2 1.0282368676949420e+00 -1.7772846125210967e+02 1.0000000000000000e+00 1.8517461758820705e+01 1.8561374974706574e+01 1.6358503023736947e+01 
1965 1567 2 1.0209794625560937e+00 -4.2303447474317099e+03 1.0000000000000000e+00 1.5565758965081782e+01 1.9639634236214455e+01 1.6486622934108954e+01 
602 204 2 1.0293868184550816e+00 2.2630786974400125e+03 1.0000000000000000e+00 1.8864265137798490e+01 1.9816794850873269e+01 1.6255702316895491e+01 
516 118 2 1.0274224974166182e+00 -4.7594225877421968e+03 1.0000000000000000e+00 1.8873144825961472e+01 1.8247153453782488e+01 1.6490497959711064e+01 
965 567 2 1.0286429094631315e+00 5.2809862907565332e+02 1.0000000000000000e+00 1.9037599723203979e+01 1.8851358647717110e+01 1.6158722643534510e+01 
996 598 2 1.0280174499038599e+00 -8.7859761986241501e+03 1.0000000000000000e+00 1.8847469310727007e+01 1.9540245359276593e+01 1.6162313374086615e+01 
1514 1116 2 1.0266712003992560e+00 6.9529841165513008e+03 1.0000000000000000e+00 1.7293090817756386e+01 1.9327366386678356e+01 2.0235923979535904e+01 
830 432 2 1.0281307473621737e+00 -6.1875845050180797e+03 1.0000000000000000e+00 1.8766836288983434e+01 1.9296268676529110e+01 1.6151714057348212e+01 
1167 769 2 1.0280781702417381e+00 -7.6833546729725394e+03 1.0000000000000000e+00 1.8835549607696187e+01 1.8718114453134987e+01 1.6234274692160060e+01 
1670 1272 2 1.0280846664707119e+00 -6.1878562380404264e+03 1.0000000000000000e+00 1.8756848975733085e+01 1.9195272817743277e+01 1.6153574413861236e+01 
1508 1110 2 1.0270044031016456e+00 -1.4734968426572464e+03 1.0000000000000000e+00 1.8643537706925855e+01 1.8389659406652342e+01 1.6420682085622033e+01 
1450 1052 2 1.0271949153317184e+00 5.2471703388898686e+02 1.0000000000000000e+00 1.8434706862255599e+01 1.9730841916020520e+01 1.6262444258780416e+01 
1853 1455 2 1.0255875633942926e+00 -1.9228185024352885e+02 1.0000000000000000e+00 1.7554591171967107e+01 1.8891058626686135e+01 1.6319611632899441e+01 
863 465 2 1.0258887433711217e+00 2.1483408414895175e+03 1.0000000000000000e+00 1.7501146459892034e+01 1.8827776325916197e+01 1.6344149297385883e+01 
1390 992 2 1.0252872728627664e+00 -1.4256497973169303e+03 1.0000000000000000e+00 1.7359598538523581e+01 1.9416416967042462e+01 1.6292583839034986e+01 
1227 829 2 1.0270220225698137e+00 7.8731699000871322e+02 1.0000000000000000e+00 1.7486092835171462e+01 1.9105598604556057e+01 2.0136783356958080e+01 
828 430 2 1.0259661343143676e+00 -4.6934422285024248e+03 1.0000000000000000e+00 1.7122366266686495e+01 1.9840961502965918e+01 1.6403404631493501e+01 
751 353 2 1.0240870945198584e+00 -1.0907934114177556e+03 1.0000000000000000e+00 1.6875035260030376e+01 1.9677421125620125e+01 1.6359147630219450e+01 
1461 1063 2 1.0274064255578903e+00 2.4751869843717395e+03 1.0000000000000000e+00 1.7105582824513817e+01 1.8571649708083395e+01 1.6486816693653854e+01 
1973 1575 2 1.0265985165340994e+00 -5.7901698633187289e+03 1.0000000000000000e+00 1.7181951049392161e+01 1.9232193484307089e+01 1.6318261969300302e+01 
1004 606 2 1.0248372296092232e+00 -1.4699743287761507e+03 1.0000000000000000e+00 1.6840981091414950e+01 1.9462736671930596e+01 1.6336985962539917e+01 
1089 691 2 1.0241121784912981e+00 -4.6328649805576788e+03 1.0000000000000000e+00 1.6409884348293023e+01 1.8689398370654839e+01 1.6467063467785376e+01 
1151 753 2 1.0249379010154018e+00 1.3483062492168312e+03 1.0000000000000000e+00 1.6262181149752248e+01 1.9814662937835870e+01 1.6462437673136744e+01 