LAMMPS data file via write_data, version 30 Jul 2016, timestep = 1000000

2080 atoms
8 atom types

0.0000000000000000e+00 4.0000000000000000e+01 xlo xhi
0.0000000000000000e+00 4.0000000000000000e+01 ylo yhi
0.0000000000000000e+00 1.0000000000000000e+02 zlo zhi

Masses

1 3.896
2 4.306
3 20.064
4 8.378
5 8.378
6 8.378
7 8.378
8 8.378

Atoms # meso-molecular

1 2 4 2.2559723595316457e+00 0.0000000000000000e+00 1.0000000000000000e+00 0.0000000000000000e+00 0.0000000000000000e+00 2.5000000000000000e+00 
2 2 4 2.2559723595316457e+00 0.0000000000000000e+00 1.0000000000000000e+00 0.0000000000000000e+00 2.0000000000000000e+00 2.5000000000000000e+00 
3 2 4 2.2559723595316457e+00 0.0000000000000000e+00 1.0000000000000000e+00 0.0000000000000000e+00 4.0000000000000000e+00 2.5000000000000000e+00 
4 2 4 2.2559723595316457e+00 0.0000000000000000e+00 1.0000000000000000e+00 0.0000000000000000e+00 6.0000000000000000e+00 2.5000000000000000e+00 
5 2 4 2.2559723595316457e+00 0.0000000000000000e+00 1.0000000000000000e+00 0.0000000000000000e+00 8.0000000000000000e+00 2.5000000000000000e+00 
21 2 4 2.2559723595316457e+00 0.0000000000000000e+00 1.0000000000000000e+00 2.0000000000000000e+00 0.0000000000000000e+00 2.5000000000000000e+00 
22 2 4 2.2559723595316457e+00 0.0000000000000000e+00 1.0000000000000000e+00 2.0000000000000000e+00 2.0000000000000000e+00 2.5000000000000000e+00 
23 2 4 2.2559723595316457e+00 0.0000000000000000e+00 1.0000000000000000e+00 2.0000000000000000e+00 4.0000000000000000e+00 2.5000000000000000e+00 
24 2 4 2.2559723595316457e+00 0.0000000000000000e+00 1.0000000000000000e+00 2.0000000000000000e+00 6.0000000000000000e+00 2.5000000000000000e+00 
25 2 4 2.2559723595316457e+00 0.0000000000000000e+00 1.0000000000000000e+00 2.0000000000000000e+00 8.0000000000000000e+00 2.5000000000000000e+00 
41 2 4 2.2559723595316457e+00 0.0000000000000000e+00 1.0000000000000000e+00 4.0000000000000000e+00 0.0000000000000000e+00 2.5000000000000000e+00 
42 2 4 2.2559723595316457e+00 0.0000000000000000e+00 1.0000000000000000e+00 4.0000000000000000e+00 2.0000000000000000e+00 2.5000000000000000e+00 
43 2 4 2.2559723595316457e+00 0.0000000000000000e+00 1.0000000000000000e+00 4.0000000000000000e+00 4.0000000000000000e+00 2.5000000000000000e+00 
44 2 4 2.2559723595316457e+00 0.0000000000000000e+00 1.0000000000000000e+00 4.0000000000000000e+00 6.0000000000000000e+00 2.5000000000000000e+00 
45 2 4 2.2559723595316457e+00 -3.1790017223578953e-05 1.0000000000000000e+00 4.0000000000000000e+00 8.0000000000000000e+00 2.5000000000000000e+00 
61 2 4 2.2559723595316457e+00 0.0000000000000000e+00 1.0000000000000000e+00 6.0000000000000000e+00 0.0000000000000000e+00 2.5000000000000000e+00 
62 2 4 2.2559723595316457e+00 0.0000000000000000e+00 1.0000000000000000e+00 6.0000000000000000e+00 2.0000000000000000e+00 2.5000000000000000e+00 
63 2 4 2.2559723595316457e+00 -1.5884837563374030e-01 1.0000000000000000e+00 6.0000000000000000e+00 4.0000000000000000e+00 2.5000000000000000e+00 
64 2 4 2.2559723595316457e+00 -3.0528945209766261e+00 1.0000000000000000e+00 6.0000000000000000e+00 6.0000000000000000e+00 2.5000000000000000e+00 
65 2 4 2.2559723595316457e+00 -1.1694648989785955e+01 1.0000000000000000e+00 6.0000000000000000e+00 8.0000000000000000e+00 2.5000000000000000e+00 
81 2 4 2.2559723595316457e+00 0.0000000000000000e+00 1.0000000000000000e+00 8.0000000000000000e+00 0.0000000000000000e+00 2.5000000000000000e+00 
82 2 4 2.2559723595316457e+00 -6.9390344522458813e-01 1.0000000000000000e+00 8.0000000000000000e+00 2.0000000000000000e+00 2.5000000000000000e+00 
83 2 4 2.2559723595316457e+00 -1.1832337158328452e+01 1.0000000000000000e+00 8.0000000000000000e+00 4.0000000000000000e+00 2.5000000000000000e+00 
84 2 4 2.2559723595316457e+00 -5.3698630499759290e+01 1.0000000000000000e+00 8.0000000000000000e+00 6.0000000000000000e+00 2.5000000000000000e+00 
85 2 4 2.2559723595316457e+00 -1.3844399932851152e+02 1.0000000000000000e+00 8.0000000000000000e+00 8.0000000000000000e+00 2.5000000000000000e+00 
101 2 4 2.2559723595316457e+00 -1.5886102855292833e-01 1.0000000000000000e+00 1.0000000000000000e+01 0.0000000000000000e+00 2.5000000000000000e+00 
102 2 4 2.2559723595316457e+00 -1.1803812120859035e+01 1.0000000000000000e+00 1.0000000000000000e+01 2.0000000000000000e+00 2.5000000000000000e+00 
103 2 4 2.2559723595316457e+00 -8.1009153630034646e+01 1.0000000000000000e+00 1.0000000000000000e+01 4.0000000000000000e+00 2.5000000000000000e+00 
104 2 4 2.2559723595316457e+00 -2.7265136450357107e+02 1.0000000000000000e+00 1.0000000000000000e+01 6.0000000000000000e+00 2.5000000000000000e+00 
105 2 4 2.2559723595316457e+00 -6.1243895516433008e+02 1.0000000000000000e+00 1.0000000000000000e+01 8.0000000000000000e+00 2.5000000000000000e+00 
121 2 4 2.2559723595316457e+00 -3.0455692884094949e+00 1.0000000000000000e+00 1.2000000000000000e+01 0.0000000000000000e+00 2.5000000000000000e+00 
122 2 4 2.2559723595316457e+00 -5.3054794042651494e+01 1.0000000000000000e+00 1.2000000000000000e+01 2.0000000000000000e+00 2.5000000000000000e+00 
123 2 4 2.2559723595316457e+00 -2.6978987983641014e+02 1.0000000000000000e+00 1.2000000000000000e+01 4.0000000000000000e+00 2.5000000000000000e+00 
124 2 4 2.2559723595316457e+00 -7.9399644631007220e+02 1.0000000000000000e+00 1.2000000000000000e+01 6.0000000000000000e+00 2.5000000000000000e+00 
125 2 4 2.2559723595316457e+00 -1.6671778061156342e+03 1.0000000000000000e+00 1.2000000000000000e+01 8.0000000000000000e+00 2.5000000000000000e+00 
141 2 4 2.2559723595316457e+00 -1.1510854671656020e+01 1.0000000000000000e+00 1.4000000000000000e+01 0.0000000000000000e+00 2.5000000000000000e+00 
142 2 4 2.2559723595316457e+00 -1.3431772763923394e+02 1.0000000000000000e+00 1.4000000000000000e+01 2.0000000000000000e+00 2.5000000000000000e+00 
143 2 4 2.2559723595316457e+00 -5.9440566711953500e+02 1.0000000000000000e+00 1.4000000000000000e+01 4.0000000000000000e+00 2.5000000000000000e+00 
144 2 4 2.2559723595316457e+00 -1.6341165402225784e+03 1.0000000000000000e+00 1.4000000000000000e+01 6.0000000000000000e+00 2.5000000000000000e+00 
145 2 4 2.2559723595316457e+00 -3.3144590831609976e+03 1.0000000000000000e+00 1.4000000000000000e+01 8.0000000000000000e+00 2.5000000000000000e+00 
161 2 4 2.2559723595316457e+00 -2.3490683502408100e+01 1.0000000000000000e+00 1.6000000000000000e+01 0.0000000000000000e+00 2.5000000000000000e+00 
162 2 4 2.2559723595316457e+00 -2.3557335116395305e+02 1.0000000000000000e+00 1.6000000000000000e+01 2.0000000000000000e+00 2.5000000000000000e+00 
163 2 4 2.2559723595316457e+00 -9.7267374207446392e+02 1.0000000000000000e+00 1.6000000000000000e+01 4.0000000000000000e+00 2.5000000000000000e+00 
164 2 4 2.2559723595316457e+00 -2.5783429565849065e+03 1.0000000000000000e+00 1.6000000000000000e+01 6.0000000000000000e+00 2.5000000000000000e+00 
165 2 4 2.2559723595316457e+00 -5.1344739817450709e+03 1.0000000000000000e+00 1.6000000000000000e+01 8.0000000000000000e+00 2.5000000000000000e+00 
181 2 4 2.2559723595316457e+00 -3.2592257163051940e+01 1.0000000000000000e+00 1.8000000000000000e+01 0.0000000000000000e+00 2.5000000000000000e+00 
182 2 4 2.2559723595316457e+00 -3.0844508277360694e+02 1.0000000000000000e+00 1.8000000000000000e+01 2.0000000000000000e+00 2.5000000000000000e+00 
183 2 4 2.2559723595316457e+00 -1.2346716622031172e+03 1.0000000000000000e+00 1.8000000000000000e+01 4.0000000000000000e+00 2.5000000000000000e+00 
184 2 4 2.2559723595316457e+00 -3.2187064594762019e+03 1.0000000000000000e+00 1.8000000000000000e+01 6.0000000000000000e+00 2.5000000000000000e+00 
185 2 4 2.2559723595316457e+00 -6.3580759088353661e+03 1.0000000000000000e+00 1.8000000000000000e+01 8.0000000000000000e+00 2.5000000000000000e+00 
6 2 4 2.2559723595316457e+00 0.0000000000000000e+00 1.0000000000000000e+00 0.0000000000000000e+00 1.0000000000000000e+01 2.5000000000000000e+00 
7 2 4 2.2559723595316457e+00 0.0000000000000000e+00 1.0000000000000000e+00 0.0000000000000000e+00 1.2000000000000000e+01 2.5000000000000000e+00 
8 2 4 2.2559723595316457e+00 0.0000000000000000e+00 1.0000000000000000e+00 0.0000000000000000e+00 1.4000000000000000e+01 2.5000000000000000e+00 
9 2 4 2.2559723595316457e+00 1.8236449965998452e-04 1.0000000000000000e+00 0.0000000000000000e+00 1.6000000000000000e+01 2.5000000000000000e+00 
10 2 4 2.2559723595316457e+00 -6.4111094639603591e-05 1.0000000000000000e+00 0.0000000000000000e+00 1.8000000000000000e+01 2.5000000000000000e+00 
26 2 4 2.2559723595316457e+00 0.0000000000000000e+00 1.0000000000000000e+00 2.0000000000000000e+00 1.0000000000000000e+01 2.5000000000000000e+00 
27 2 4 2.2559723595316457e+00 0.0000000000000000e+00 1.0000000000000000e+00 2.0000000000000000e+00 1.2000000000000000e+01 2.5000000000000000e+00 
28 2 4 2.2559723595316457e+00 0.0000000000000000e+00 1.0000000000000000e+00 2.0000000000000000e+00 1.4000000000000000e+01 2.5000000000000000e+00 
29 2 4 2.2559723595316457e+00 3.1944593835222076e-05 1.0000000000000000e+00 2.0000000000000000e+00 1.6000000000000000e+01 2.5000000000000000e+00 
30 2 4 2.2559723595316457e+00 -1.3377908371514977e-04 1.0000000000000000e+00 2.0000000000000000e+00 1.8000000000000000e+01 2.5000000000000000e+00 
46 2 4 2.2559723595316457e+00 -8.1499479620890606e-03 1.0000000000000000e+00 4.0000000000000000e+00 1.0000000000000000e+01 2.5000000000000000e+00 
47 2 4 2.2559723595316457e+00 -9.5246728270737720e-03 1.0000000000000000e+00 4.0000000000000000e+00 1.2000000000000000e+01 2.5000000000000000e+00 
48 2 4 2.2559723595316457e+00 -1.0196636598004729e-02 1.0000000000000000e+00 4.0000000000000000e+00 1.4000000000000000e+01 2.5000000000000000e+00 
49 2 4 2.2559723595316457e+00 -1.0481414103845786e-02 1.0000000000000000e+00 4.0000000000000000e+00 1.6000000000000000e+01 2.5000000000000000e+00 
50 2 4 2.2559723595316457e+00 -1.0583216814812477e-02 1.0000000000000000e+00 4.0000000000000000e+00 1.8000000000000000e+01 2.5000000000000000e+00 
66 2 4 2.2559723595316457e+00 -2.4466566933851613e+01 1.0000000000000000e+00 6.0000000000000000e+00 1.0000000000000000e+01 2.5000000000000000e+00 
67 2 4 2.2559723595316457e+00 -3.5714075894795329e+01 1.0000000000000000e+00 6.0000000000000000e+00 1.2000000000000000e+01 2.5000000000000000e+00 
68 2 4 2.2559723595316457e+00 -4.1659586311142434e+01 1.0000000000000000e+00 6.0000000000000000e+00 1.4000000000000000e+01 2.5000000000000000e+00 
69 2 4 2.2559723595316457e+00 -4.3700484494786004e+01 1.0000000000000000e+00 6.0000000000000000e+00 1.6000000000000000e+01 2.5000000000000000e+00 
70 2 4 2.2559723595316457e+00 -4.4411951162401053e+01 1.0000000000000000e+00 6.0000000000000000e+00 1.8000000000000000e+01 2.5000000000000000e+00 
86 2 4 2.2559723595316457e+00 -2.5101488761529438e+02 1.0000000000000000e+00 8.0000000000000000e+00 1.0000000000000000e+01 2.5000000000000000e+00 
87 2 4 2.2559723595316457e+00 -3.5560513825193459e+02 1.0000000000000000e+00 8.0000000000000000e+00 1.2000000000000000e+01 2.5000000000000000e+00 
88 2 4 2.2559723595316457e+00 -4.2390591326641481e+02 1.0000000000000000e+00 8.0000000000000000e+00 1.4000000000000000e+01 2.5000000000000000e+00 
89 2 4 2.2559723595316457e+00 -4.5491830516686929e+02 1.0000000000000000e+00 8.0000000000000000e+00 1.6000000000000000e+01 2.5000000000000000e+00 
90 2 4 2.2559723595316457e+00 -4.6497766374068237e+02 1.0000000000000000e+00 8.0000000000000000e+00 1.8000000000000000e+01 2.5000000000000000e+00 
106 2 4 2.2559723595316457e+00 -1.0431402409799125e+03 1.0000000000000000e+00 1.0000000000000000e+01 1.0000000000000000e+01 2.5000000000000000e+00 
107 2 4 2.2559723595316457e+00 -1.4485084547520069e+03 1.0000000000000000e+00 1.0000000000000000e+01 1.2000000000000000e+01 2.5000000000000000e+00 
108 2 4 2.2559723595316457e+00 -1.7316627164208176e+03 1.0000000000000000e+00 1.0000000000000000e+01 1.4000000000000000e+01 2.5000000000000000e+00 
109 2 4 2.2559723595316457e+00 -1.8747660939457799e+03 1.0000000000000000e+00 1.0000000000000000e+01 1.6000000000000000e+01 2.5000000000000000e+00 
110 2 4 2.2559723595316457e+00 -1.9238125096869073e+03 1.0000000000000000e+00 1.0000000000000000e+01 1.8000000000000000e+01 2.5000000000000000e+00 
126 2 4 2.2559723595316457e+00 -2.7507928527960175e+03 1.0000000000000000e+00 1.2000000000000000e+01 1.0000000000000000e+01 2.5000000000000000e+00 
127 2 4 2.2559723595316457e+00 -3.7780825821032113e+03 1.0000000000000000e+00 1.2000000000000000e+01 1.2000000000000000e+01 2.5000000000000000e+00 
128 2 4 2.2559723595316457e+00 -4.5182314846249410e+03 1.0000000000000000e+00 1.2000000000000000e+01 1.4000000000000000e+01 2.5000000000000000e+00 
129 2 4 2.2559723595316457e+00 -4.9109667960946863e+03 1.0000000000000000e+00 1.2000000000000000e+01 1.6000000000000000e+01 2.5000000000000000e+00 
130 2 4 2.2559723595316457e+00 -5.0500640269157220e+03 1.0000000000000000e+00 1.2000000000000000e+01 1.8000000000000000e+01 2.5000000000000000e+00 
146 2 4 2.2559723595316457e+00 -5.3840394653594885e+03 1.0000000000000000e+00 1.4000000000000000e+01 1.0000000000000000e+01 2.5000000000000000e+00 
147 2 4 2.2559723595316457e+00 -7.3611169275578377e+03 1.0000000000000000e+00 1.4000000000000000e+01 1.2000000000000000e+01 2.5000000000000000e+00 
148 2 4 2.2559723595316457e+00 -8.8120054453387693e+03 1.0000000000000000e+00 1.4000000000000000e+01 1.4000000000000000e+01 2.5000000000000000e+00 
149 2 4 2.2559723595316457e+00 -9.5998046408993687e+03 1.0000000000000000e+00 1.4000000000000000e+01 1.6000000000000000e+01 2.5000000000000000e+00 
150 2 4 2.2559723595316457e+00 -9.8834047964720594e+03 1.0000000000000000e+00 1.4000000000000000e+01 1.8000000000000000e+01 2.5000000000000000e+00 
166 2 4 2.2559723595316457e+00 -8.2787102174757219e+03 1.0000000000000000e+00 1.6000000000000000e+01 1.0000000000000000e+01 2.5000000000000000e+00 
167 2 4 2.2559723595316457e+00 -1.1305189434949172e+04 1.0000000000000000e+00 1.6000000000000000e+01 1.2000000000000000e+01 2.5000000000000000e+00 
168 2 4 2.2559723595316457e+00 -1.3557184321409897e+04 1.0000000000000000e+00 1.6000000000000000e+01 1.4000000000000000e+01 2.5000000000000000e+00 
169 2 4 2.2559723595316457e+00 -1.4799731806520882e+04 1.0000000000000000e+00 1.6000000000000000e+01 1.6000000000000000e+01 2.5000000000000000e+00 
170 2 4 2.2559723595316457e+00 -1.5249470021955149e+04 1.0000000000000000e+00 1.6000000000000000e+01 1.8000000000000000e+01 2.5000000000000000e+00 
186 2 4 2.2559723595316457e+00 -1.0222186724609821e+04 1.0000000000000000e+00 1.8000000000000000e+01 1.0000000000000000e+01 2.5000000000000000e+00 
187 2 4 2.2559723595316457e+00 -1.3960027761170002e+04 1.0000000000000000e+00 1.8000000000000000e+01 1.2000000000000000e+01 2.5000000000000000e+00 
188 2 4 2.2559723595316457e+00 -1.6763172737438053e+04 1.0000000000000000e+00 1.8000000000000000e+01 1.4000000000000000e+01 2.5000000000000000e+00 
189 2 4 2.2559723595316457e+00 -1.8323735277314292e+04 1.0000000000000000e+00 1.8000000000000000e+01 1.6000000000000000e+01 2.5000000000000000e+00 
190 2 4 2.2559723595316457e+00 -1.8891235558853103e+04 1.0000000000000000e+00 1.8000000000000000e+01 1.8000000000000000e+01 2.5000000000000000e+00 
940 542 2 1.0278469536213513e+00 -3.5490680190094972e+03 1.0000000000000000e+00 6.0625631236691673e+00 1.8942840288632457e+01 1.8001201046353447e+01 
638 240 2 1.0280234019925831e+00 -7.6488097668720975e+03 1.0000000000000000e+00 6.0782851137605522e+00 1.9178966136631384e+01 1.8058394464273949e+01 
1266 868 2 1.0279996270390883e+00 6.3303343086599134e+03 1.0000000000000000e+00 6.3837254544414543e+00 1.9041899379037353e+01 1.7947519105041632e+01 
440 42 2 1.0278701374922148e+00 -1.2150834617102541e+04 1.0000000000000000e+00 8.0216836873560400e+00 1.9545864632565170e+01 1.7674468964907483e+01 
405 7 2 1.0278364314171822e+00 2.0504420519743658e+03 1.0000000000000000e+00 7.5271769367948291e+00 1.8772510415872652e+01 1.7680601109304707e+01 
2013 1615 2 1.0279880679831477e+00 -6.7393680386467649e+03 1.0000000000000000e+00 6.8030117926138809e+00 1.8952860040205739e+01 1.7837386753122491e+01 
1342 944 2 1.0283573515138074e+00 -4.3267676540126877e+03 1.0000000000000000e+00 7.3444746862451789e+00 1.7769090787535809e+01 1.7914464732122408e+01 
1192 794 2 1.0279761163324721e+00 5.7647381637861527e+03 1.0000000000000000e+00 6.5036108818354963e+00 1.7421168110335135e+01 1.8140317565991477e+01 
664 266 2 1.0281407519907673e+00 -5.4703227576877780e+03 1.0000000000000000e+00 7.2925484190152643e+00 1.9609049151319784e+01 1.7887138275643068e+01 
616 218 2 1.0278846916593063e+00 4.6845542306362595e+03 1.0000000000000000e+00 6.1784107189371369e+00 1.9488656526587238e+01 1.8146871431569608e+01 
1614 1216 2 1.0280252204211726e+00 1.3721184541509465e+03 1.0000000000000000e+00 8.0419953685301184e+00 1.8953019091699851e+01 1.7586016209617988e+01 
1692 1294 2 1.0278167737202510e+00 -1.7838123989946748e+03 1.0000000000000000e+00 6.0894741505583676e+00 1.7527874686624656e+01 1.8131305940978137e+01 
902 504 2 1.0278433402599318e+00 9.9844444781480206e+01 1.0000000000000000e+00 5.8471385398796629e+00 1.9584621703047617e+01 1.8293325283947468e+01 
671 273 2 1.0279097224091884e+00 -5.9655520394976720e+03 1.0000000000000000e+00 5.6314197934062964e+00 1.9401842302586935e+01 1.8265518555793857e+01 
1524 1126 2 1.0278667195943669e+00 6.8194594122868227e+02 1.0000000000000000e+00 6.7818396800820890e+00 1.9469107146001637e+01 1.7970041190736982e+01 
1744 1346 2 1.0280662345164471e+00 -1.8854648921960921e+04 1.0000000000000000e+00 7.6421381140631803e+00 1.7857183548321927e+01 1.7848012417661344e+01 
1291 893 2 1.0281799593086092e+00 -4.3142900578357944e+02 1.0000000000000000e+00 5.6204528398800218e+00 1.8734380494171827e+01 1.8068429061190379e+01 
909 511 2 1.0280302478629679e+00 4.1219256627549521e+03 1.0000000000000000e+00 5.3990774283315091e+00 1.7349035403179599e+01 1.8280300241008653e+01 
471 73 2 1.0279228857307463e+00 -6.0245890554235320e+03 1.0000000000000000e+00 6.2871103902817387e+00 1.7153390078830466e+01 1.8300944740878506e+01 
1821 1423 2 1.0280044065410852e+00 -2.5780294162263349e+03 1.0000000000000000e+00 5.7584819707720394e+00 1.8608717616656829e+01 1.8022328922942236e+01 
1847 1449 2 1.0281599935582486e+00 -5.9649440157000618e+03 1.0000000000000000e+00 6.4097755624187949e+00 1.7555888628909493e+01 1.8089930046385621e+01 
1652 1254 2 1.0282966216957328e+00 -3.3546297497151600e+03 1.0000000000000000e+00 6.0129100600069618e+00 1.7768590290476066e+01 1.8063095521979324e+01 
1893 1495 2 1.0280738341656162e+00 1.6955891286789536e+03 1.0000000000000000e+00 5.2520042047848259e+00 1.7339587696172195e+01 1.8300950288144058e+01 
1173 775 2 1.0279489741453429e+00 -1.3658477035266122e+02 1.0000000000000000e+00 6.4954189259444650e+00 1.9986314975244696e+01 1.8336458713622140e+01 
1882 1484 2 1.0280439690036176e+00 1.8041343764287260e+04 1.0000000000000000e+00 5.6673232467765464e+00 1.7833772926484560e+01 1.8092321416662887e+01 
1929 1531 2 1.0280269500324499e+00 -6.4206305196005887e+03 1.0000000000000000e+00 5.5494139505199289e+00 1.7644832700936803e+01 1.8157451109980308e+01 
1983 1585 2 1.0279736192108333e+00 -6.0243097690008390e+03 1.0000000000000000e+00 4.8454465670340694e+00 1.7452147780323166e+01 1.8308846006522909e+01 
486 88 2 1.0278971521293139e+00 -1.7139141225748745e+03 1.0000000000000000e+00 4.2916205189804613e+00 1.8410591594509992e+01 1.8307537678870002e+01 
717 319 2 1.0281906210479628e+00 1.6971166351800669e+03 1.0000000000000000e+00 5.2006791572757241e+00 1.8382767363563005e+01 1.8123820192545153e+01 
1123 725 2 1.0279150554112959e+00 -4.2678940682431079e+02 1.0000000000000000e+00 8.7848582363499244e+00 1.8191370807318549e+01 1.7595463367126648e+01 
1473 1075 2 1.0279502037600228e+00 6.3490576369139296e+02 1.0000000000000000e+00 8.3134773742807635e+00 1.9425626275770465e+01 1.7576445936467859e+01 
1400 1002 2 1.0283414752114743e+00 2.1243923141693826e+03 1.0000000000000000e+00 8.5940547515212735e+00 1.9237484551902767e+01 1.7490421886140521e+01 
1136 738 2 1.0279092319322558e+00 3.4766789384440262e+03 1.0000000000000000e+00 5.1101880954807806e+00 1.9271007907770688e+01 1.8353696894934668e+01 
769 371 2 1.0279826502776865e+00 -1.7374881874725809e+03 1.0000000000000000e+00 4.1356375004497385e+00 1.7900788253323107e+01 1.8326406905245740e+01 
574 176 2 1.0281732650812314e+00 -1.1884942603433512e+03 1.0000000000000000e+00 4.3308551357923672e+00 1.8405089269133136e+01 1.8301224925535870e+01 
1512 1114 2 1.0278413427933477e+00 2.7264446481897130e+02 1.0000000000000000e+00 8.1466724127584360e+00 1.7788574109996659e+01 1.7829941952946157e+01 
417 19 2 1.0279893082285187e+00 -6.4255017586733511e+03 1.0000000000000000e+00 3.3645874331996710e+00 1.8246811365309298e+01 1.8463204652370099e+01 
2012 1614 2 1.0281146276634479e+00 -1.0026595394933061e+04 1.0000000000000000e+00 3.0690488321330944e+00 1.8230323991160933e+01 1.8511545476482965e+01 
1750 1352 2 1.0279835736565586e+00 -1.1898596929809298e+03 1.0000000000000000e+00 2.8540570848486508e+00 1.7426315010412505e+01 1.8573602299605607e+01 
1682 1284 2 1.0280227933287325e+00 1.0162432856565923e+04 1.0000000000000000e+00 8.0494621453662969e+00 1.7496121661517204e+01 1.7998066436644848e+01 
530 132 2 1.0279790090454892e+00 2.4736367181180281e+03 1.0000000000000000e+00 2.2934837100208849e+00 1.8269305235053036e+01 1.8631036678841067e+01 
446 48 2 1.0279423341932175e+00 -1.7584557366107045e+01 1.0000000000000000e+00 2.3944577114788261e+00 1.7416579257576000e+01 1.8626422628169053e+01 
1124 726 2 1.0279257681910934e+00 4.2477109419622320e+03 1.0000000000000000e+00 2.3863014375191796e+00 1.7305326183188061e+01 1.8650388378128557e+01 
1292 894 2 1.0279863667396887e+00 4.2470591195216730e+03 1.0000000000000000e+00 2.3046634419404590e+00 1.8115906898415616e+01 1.8608993243789946e+01 
1080 682 2 1.0279299850769563e+00 5.3819182483671430e+03 1.0000000000000000e+00 2.3091904094350588e+00 1.7195041672283040e+01 1.8686099975529480e+01 
1536 1138 2 1.0282568689469878e+00 2.9436233391107548e+03 1.0000000000000000e+00 8.6738345122111706e+00 1.8598408628906636e+01 1.7505056521577806e+01 
1958 1560 2 1.0279696778639806e+00 -1.6168449866195814e+01 1.0000000000000000e+00 2.2825563323388969e+00 1.7588662402309350e+01 1.8613353799923537e+01 
1311 913 2 1.0279429306588432e+00 4.3161254856132537e+03 1.0000000000000000e+00 2.2600723983113924e+00 1.8027191839188827e+01 1.8606733673327835e+01 
1573 1175 2 1.0280122901063942e+00 -1.6809847192779282e+04 1.0000000000000000e+00 2.1401870391022357e+00 1.7048708611997505e+01 1.8746893584435320e+01 
722 324 2 1.0279990026988077e+00 3.6665303042786995e+03 1.0000000000000000e+00 2.1720123715794113e+00 1.8033238836043591e+01 1.8618485403132432e+01 
1020 622 2 1.0279869413464362e+00 6.8091569125029991e+02 1.0000000000000000e+00 2.2167607121177850e+00 1.7443462704604560e+01 1.8640601489191692e+01 
695 297 2 1.0279509766937147e+00 -2.7476600448231106e+03 1.0000000000000000e+00 2.1616931238988659e+00 1.8031024876705580e+01 1.8619196845544792e+01 
509 111 2 1.0280358306968456e+00 -7.9468329353427071e+03 1.0000000000000000e+00 2.2149409408474030e+00 1.7846194070512613e+01 1.8607058661550457e+01 
1299 901 2 1.0279739570843556e+00 -1.3810187162209745e+03 1.0000000000000000e+00 1.9930596745960680e+00 1.8476593573328973e+01 1.8714943547290261e+01 
2019 1621 2 1.0280040282777207e+00 -1.0941986706700205e+04 1.0000000000000000e+00 2.1438950557057517e+00 1.7956082606627678e+01 1.8617395417384621e+01 
1069 671 2 1.0280170505452837e+00 -1.6805813150288242e+04 1.0000000000000000e+00 2.0814087394552465e+00 1.8131365976966066e+01 1.8638994253961663e+01 
1040 642 2 1.0280200972384030e+00 1.7904683196391812e+04 1.0000000000000000e+00 2.1476412991055556e+00 1.7380050212453298e+01 1.8659201414594818e+01 
1819 1421 2 1.0280390930186660e+00 -5.6917377328096509e+03 1.0000000000000000e+00 2.0905699424754922e+00 1.7243823135571368e+01 1.8694660390616779e+01 
467 69 2 1.0280477193475521e+00 -1.9112917429229276e+03 1.0000000000000000e+00 2.0985206549930706e+00 1.7481220820025083e+01 1.8647216286000113e+01 
645 247 2 1.0280178116076406e+00 -2.5776156288462771e+03 1.0000000000000000e+00 2.0926787559135458e+00 1.7476191251808071e+01 1.8648311509829412e+01 
1742 1344 2 1.0280351027213677e+00 9.9509378376811512e+01 1.0000000000000000e+00 2.1093467381904527e+00 1.7732884121789343e+01 1.8621799284544757e+01 
1814 1416 2 1.0280476377028189e+00 -7.6573598778136147e+03 1.0000000000000000e+00 2.0886144086339118e+00 1.7352347295913546e+01 1.8670610363008478e+01 
1039 641 2 1.0280387465100640e+00 2.0415210596903118e+04 1.0000000000000000e+00 2.0636471114837152e+00 1.7602419837374420e+01 1.8635969419981986e+01 
1544 1146 2 1.0280103837411232e+00 1.7906466524365853e+04 1.0000000000000000e+00 2.0978224605357005e+00 1.7420898333568122e+01 1.8656623638855994e+01 
2057 1659 2 1.0280103672370242e+00 1.0665756793244018e+03 1.0000000000000000e+00 2.0131648965094464e+00 1.8354071547677528e+01 1.8683696037986909e+01 
1960 1562 2 1.0280479727708964e+00 -4.3056208887576213e+03 1.0000000000000000e+00 2.0516204553639406e+00 1.6947881238820891e+01 1.8790602964848741e+01 
1871 1473 2 1.0280458074247996e+00 -2.7501450927852334e+03 1.0000000000000000e+00 2.0532534162519522e+00 1.7332937372810711e+01 1.8677937310144124e+01 
1199 801 2 1.0279999670358111e+00 -1.2080749560130272e+02 1.0000000000000000e+00 2.0203859067850205e+00 1.6744568788622978e+01 1.8879840244971344e+01 
598 200 2 1.0278439915206308e+00 1.7332638275713039e+03 1.0000000000000000e+00 6.0311538320887177e+00 1.7126859326075291e+01 1.8332741854733346e+01 
643 245 2 1.0280058002646693e+00 -5.6911033749801118e+03 1.0000000000000000e+00 1.9928903009546131e+00 1.6602985647031211e+01 1.8955046666353564e+01 
964 566 2 1.0280272566004944e+00 1.1041255186399937e+03 1.0000000000000000e+00 1.8802599532042650e+00 1.6087817549340539e+01 1.9332034213228503e+01 
930 532 2 1.0280090133660971e+00 3.1384175342270846e+03 1.0000000000000000e+00 2.0327517219957327e+00 1.7610475092079600e+01 1.8638191275650524e+01 
1643 1245 2 1.0280314514027289e+00 7.6216284650376001e+03 1.0000000000000000e+00 1.9663147161691796e+00 1.6441095609940302e+01 1.9054566519076207e+01 
1498 1100 2 1.0280234920274653e+00 -5.1060456431961056e+03 1.0000000000000000e+00 1.9487651291842083e+00 1.6335608721247798e+01 1.9127836341813676e+01 
1489 1091 2 1.0280221857311709e+00 -4.9111947812978960e+03 1.0000000000000000e+00 1.8623718939758664e+00 1.6089239205564017e+01 1.9331218417470037e+01 
1367 969 2 1.0280138651087738e+00 -1.2129624842277173e+02 1.0000000000000000e+00 1.9954261257431380e+00 1.6868079134638254e+01 1.8826429187776771e+01 
1277 879 2 1.0279340104254939e+00 4.4743201229014485e+03 1.0000000000000000e+00 1.2408920835813486e+00 1.8422182359408968e+01 1.8784202780060841e+01 
1898 1500 2 1.0279901107872307e+00 3.6668779917814568e+03 1.0000000000000000e+00 1.8018036753736384e+00 1.8393764367571933e+01 1.8718021474572385e+01 
1543 1145 2 1.0280603579247913e+00 2.0416603458768761e+04 1.0000000000000000e+00 1.8709752922133618e+00 1.6063698733130813e+01 1.9354909120703059e+01 
507 109 2 1.0280352982722449e+00 -1.0945066926806463e+04 1.0000000000000000e+00 1.9127040934228465e+00 1.7515273356007143e+01 1.8660918428765285e+01 
1434 1036 2 1.0280277714257025e+00 3.1387037026836638e+03 1.0000000000000000e+00 1.8425863625330448e+00 1.5970597696343061e+01 1.9446217959524226e+01 
994 596 2 1.0280185560957331e+00 -5.1087895688203189e+03 1.0000000000000000e+00 1.6794818738112300e+00 1.5669001869213549e+01 1.9808434641924855e+01 
666 268 2 1.0280229330269892e+00 -4.4724037740723234e+03 1.0000000000000000e+00 1.8797052041847611e+00 1.6240035275509150e+01 1.9202935610551712e+01 
824 426 2 1.0280216401448219e+00 -2.9196151878944588e+03 1.0000000000000000e+00 1.7813315958439648e+00 1.5825242614593362e+01 1.9606981948572578e+01 
1842 1444 2 1.0280137304074208e+00 -4.4723369237507031e+03 1.0000000000000000e+00 1.9029811563897316e+00 1.6570976203472433e+01 1.8978660550304962e+01 
1528 1130 2 1.0280063601237968e+00 4.0717349495661974e+03 1.0000000000000000e+00 1.8974488290487521e+00 1.7747099782532654e+01 1.8643739463975404e+01 
692 294 2 1.0280521274236893e+00 -1.2114781581114687e+03 1.0000000000000000e+00 1.9347272142046414e+00 1.6431951500559602e+01 1.9062426546540426e+01 
1868 1470 2 1.0280382207500480e+00 -1.2110581016819294e+03 1.0000000000000000e+00 1.9404653763117581e+00 1.6512752879926470e+01 1.9010947389831763e+01 
1043 645 2 1.0280115561887895e+00 1.7376173270742271e+04 1.0000000000000000e+00 1.8570547314294990e+00 1.7383186629020475e+01 1.8686243835704353e+01 
1109 711 2 1.0279054885311496e+00 4.4842129895174057e+03 1.0000000000000000e+00 1.7116537011510273e+00 1.9355984206071312e+01 1.9172820791115132e+01 
785 387 2 1.0280639864327306e+00 4.5970497673341542e+03 1.0000000000000000e+00 1.2604440680501043e+00 1.5423261272620273e+01 2.0198054823966107e+01 
1758 1360 2 1.0280201636803179e+00 -5.2437402215759303e+03 1.0000000000000000e+00 1.7939967577461342e+00 1.6367920947897552e+01 1.9112362084372389e+01 
1979 1581 2 1.0280531897975409e+00 -1.9121426265139437e+03 1.0000000000000000e+00 1.5041268344561369e+00 1.8707793120471724e+01 1.8847887693497324e+01 
582 184 2 1.0280187448931803e+00 -5.2446325239824728e+03 1.0000000000000000e+00 1.3423698058979250e+00 1.5214858142768950e+01 2.0717922562103897e+01 
1547 1149 2 1.0280619346899293e+00 1.7376857926331966e+04 1.0000000000000000e+00 1.4656268886389041e+00 1.5390493504252104e+01 2.0276802254860268e+01 
2021 1623 2 1.0279895673190147e+00 -7.9540966258586514e+03 1.0000000000000000e+00 1.8037290625038922e+00 1.7643580466655163e+01 1.8658512913685314e+01 
1024 626 2 1.0280682191420716e+00 4.0705238322073060e+03 1.0000000000000000e+00 1.2859335768510749e+00 1.5286020660343857e+01 2.0504104295437475e+01 
1664 1266 2 1.0279970238292593e+00 -2.9202369149124111e+03 1.0000000000000000e+00 1.7758995647603197e+00 1.7938606110582231e+01 1.8657810423189563e+01 
1149 751 2 1.0280122681560933e+00 -8.5816532370375171e+02 1.0000000000000000e+00 1.6355250928575422e+00 1.5625942022252124e+01 1.9869863240558502e+01 