LAMMPS data file via write_data, version 30 Jul 2016, timestep = 50000000

4620 atoms
8 atom types

0.0000000000000000e+00 1.0000000000000000e+02 xlo xhi
0.0000000000000000e+00 4.0000000000000000e+01 ylo yhi
0.0000000000000000e+00 4.0000000000000000e+01 zlo zhi

Masses

1 3.896
2 5.36
3 20.064
4 8.378
5 8.378
6 8.378
7 8.378
8 8.378

Atoms # meso-molecular

1087 1088 2 1.0280000015376263e+00 -8.3613974942202617e+02 1.0000000000000000e+00 7.3342143756733247e-01 1.4517967416876794e+00 3.2611525260484719e-01 
3397 3398 2 1.0280000010621644e+00 -8.2749334660657860e+02 1.0000000000000000e+00 8.2913992958496985e-01 1.3353748419632816e+00 4.6338921110691289e-01 
2343 2344 2 1.0280000012449724e+00 -6.0318895426992458e+02 1.0000000000000000e+00 4.1712380774946221e+00 5.4432963533273648e-01 2.5823121621712947e-01 
833 834 2 1.0279999997085165e+00 -1.7252781170624839e+03 1.0000000000000000e+00 6.1863550965406624e+00 1.1626874396837621e+00 4.7464185534452763e-01 
1210 1211 2 1.0279999996491600e+00 -7.9271967133927092e+01 1.0000000000000000e+00 7.1694079509913538e+00 1.3065693649700636e+00 9.9263650480979893e-01 
3841 3842 2 1.0280000000101470e+00 3.8847006303751123e+03 1.0000000000000000e+00 2.8333446593782526e+01 1.9349056051347711e+00 9.9410801560483730e-01 
3000 3001 2 1.0279999997654901e+00 5.9914157931819373e+03 1.0000000000000000e+00 3.0066392391611039e+01 8.9931284068730288e-01 1.2239317117268362e+00 
2538 2539 2 1.0280000002534753e+00 -6.3515162723621347e+02 1.0000000000000000e+00 2.9796735925776222e+01 3.5980462516300071e-01 8.2625280947740087e-01 
2996 2997 2 1.0279999999875633e+00 7.5832134638870721e+03 1.0000000000000000e+00 3.2956686847022119e+01 1.1013685429467004e+00 3.6309596034726715e-01 
1923 1924 2 1.0279999979133407e+00 -2.4524889210593283e+03 1.0000000000000000e+00 1.8214726570126634e+00 2.7605517580320251e+00 1.3752403722876203e+00 
132 133 2 1.0280000013899186e+00 2.6560078369272396e+03 1.0000000000000000e+00 3.0098541332071465e+00 3.0037478270683815e+00 1.7064089424796369e+00 
1924 1925 2 1.0279999992882640e+00 -1.6702745087853214e+03 1.0000000000000000e+00 3.9287344686896635e+00 2.3226305516690635e+00 2.8189903021314044e-01 
882 883 2 1.0279999965684115e+00 -2.5522567447272667e+02 1.0000000000000000e+00 4.9733421223829382e+00 3.6938134068996091e+00 5.6859689757671228e-01 
3654 3655 2 1.0280000036697450e+00 -1.3160834092225136e+03 1.0000000000000000e+00 5.4177979549009310e+00 3.7661761212948357e+00 1.3095880542437008e+00 
4614 4615 2 1.0280000000899996e+00 -2.0525008678014678e+03 1.0000000000000000e+00 4.8709544306360257e+00 2.0827272137351471e+00 1.4406788209109325e+00 
1153 1154 2 1.0279999999767606e+00 9.1661590624438613e+03 1.0000000000000000e+00 2.7615030788451389e+01 2.8858560328930500e+00 1.1403848900170397e+00 
4009 4010 2 1.0280000000176091e+00 3.8882478165408975e+03 1.0000000000000000e+00 2.8195680765313789e+01 2.9331620534889535e+00 2.8107001718546171e-01 
2411 2412 2 1.0280000001141594e+00 1.5570371543454371e+03 1.0000000000000000e+00 2.9863791136939870e+01 3.0780296736923303e+00 9.9860744630853227e-01 
2533 2534 2 1.0279999999905862e+00 -4.7390983742210628e+03 1.0000000000000000e+00 3.1075396089040524e+01 2.1014175172022549e+00 9.7694063625223271e-01 
2071 2072 2 1.0280000002047440e+00 -4.7527500117525224e+03 1.0000000000000000e+00 3.1795422199054709e+01 3.1692814379950827e+00 1.7857539276433987e+00 
681 682 2 1.0279999994949198e+00 -2.4807167260655042e+03 1.0000000000000000e+00 3.2569013802511215e+01 2.5152845272954796e+00 1.0512897100945073e+00 
2225 2226 2 1.0280000001485574e+00 -4.6927138790693938e+01 1.0000000000000000e+00 6.3679200844430257e+00 5.2657122258649762e+00 7.8746141979006723e-01 
3725 3726 2 1.0280000003298289e+00 -1.6789774193592525e+03 1.0000000000000000e+00 8.6750813424429971e+00 5.3753819189512075e+00 1.0579318431588154e+00 
2177 2178 2 1.0279999976522907e+00 1.5905280111939337e+03 1.0000000000000000e+00 9.5266667162911549e+00 5.5262264002097909e+00 1.3679198271056863e+00 
1949 1950 2 1.0280000001947962e+00 1.5726234878993732e+03 1.0000000000000000e+00 2.9483221650263701e+01 4.7862477912802532e+00 1.9690186283776485e+00 
1609 1610 2 1.0279999998886424e+00 6.1445449717432002e+03 1.0000000000000000e+00 3.2142292929736684e+01 5.1555541959503097e+00 1.2261706779721186e+00 
223 224 2 1.0279999995694353e+00 3.1757085606744624e+02 1.0000000000000000e+00 3.1906238810584206e+01 5.2466798565366863e+00 6.5652108892677874e-01 
3211 3212 2 1.0280000002924938e+00 7.9010940193405915e+01 1.0000000000000000e+00 4.9306243232912363e+00 6.3062911821756247e+00 4.6409896677652107e-01 
3216 3217 2 1.0280000011611772e+00 2.2855970829955922e+01 1.0000000000000000e+00 4.9259370691452586e+00 6.2452466283247317e+00 9.5670974930336306e-01 
411 412 2 1.0280000012957924e+00 -1.6493038957244921e+03 1.0000000000000000e+00 1.0083320460509789e+01 7.2964750816788602e+00 1.3053700016118752e+00 
748 749 2 1.0279999995059654e+00 1.7185958132077899e+03 1.0000000000000000e+00 1.0230471090528535e+01 7.7625634024726793e+00 1.5553082887646932e+00 
2226 2227 2 1.0279999989371731e+00 -6.7994058787753715e+02 1.0000000000000000e+00 1.1859447316211245e+01 7.2668312539096300e+00 4.0338819115499880e-01 
2140 2141 2 1.0279999990704645e+00 2.3957695142545322e+03 1.0000000000000000e+00 1.2418597848474755e+01 7.5139108204309970e+00 7.0900757297213168e-01 
3799 3800 2 1.0279999996852327e+00 9.2570445387499558e+02 1.0000000000000000e+00 2.8908164237922097e+01 7.4218418625216689e+00 1.7715629631476311e+00 
3496 3497 2 1.0279999991026285e+00 -1.4217829974569219e+02 1.0000000000000000e+00 2.8953154693945674e+01 7.5592138834195088e+00 1.6310707857852003e+00 
1564 1565 2 1.0280000002720397e+00 -9.6937163342055737e+02 1.0000000000000000e+00 3.1247752791487159e+01 7.7685230773038896e+00 1.0123105858249033e+00 
1615 1616 2 1.0279999999388472e+00 6.2316191383802143e+03 1.0000000000000000e+00 3.2276994650257912e+01 7.4416951807885710e+00 1.5339883185677374e+00 
1648 1649 2 1.0279999994593740e+00 -9.6642547538161625e+02 1.0000000000000000e+00 3.1039348267425090e+01 9.4234542591977117e+00 5.4948148348984704e-01 
2991 2992 2 1.0279999998110236e+00 1.1224484876136714e+04 1.0000000000000000e+00 3.0451402435426154e+01 8.6835605215783147e+00 2.6848103743649188e-01 
451 452 2 1.0279999960606199e+00 3.5736243501105264e+02 1.0000000000000000e+00 9.9914625959488550e+00 1.0324956519676237e+01 1.8506793835081952e+00 
744 745 2 1.0279999961395043e+00 5.9625826822369663e+03 1.0000000000000000e+00 9.9935464141180450e+00 1.0327228139766781e+01 1.8510188114834645e+00 
2187 2188 2 1.0280000016726423e+00 1.3980318182424212e+03 1.0000000000000000e+00 3.2317683859482379e+01 1.1922499576142510e+01 1.8494590196987180e+00 
1345 1346 2 1.0279999980430337e+00 -1.7267139322321950e+03 1.0000000000000000e+00 3.2363019810215924e+01 1.2217763741834489e+01 1.1688806751727161e+00 
1592 1593 2 1.0280000000835121e+00 -8.5409917568378842e+02 1.0000000000000000e+00 1.9128883966671800e+01 1.5983722434905106e+01 1.0246549355344949e+00 
1676 1677 2 1.0279999999899694e+00 -8.5271183441801463e+02 1.0000000000000000e+00 1.9209552081497563e+01 1.5855647931944574e+01 1.3163469133414256e+00 
821 822 2 1.0279999830750171e+00 1.6358429606838536e+03 1.0000000000000000e+00 3.0525857143863949e+01 1.5034645656066418e+01 1.8916628466090946e+00 
1449 1450 2 1.0280000195936432e+00 -1.7730068831469771e+03 1.0000000000000000e+00 2.9632106879252156e+01 1.5376053970451959e+01 1.6401976379318659e+00 
484 485 2 1.0280000161704488e+00 -1.0660137817902134e+03 1.0000000000000000e+00 3.0616468023796894e+01 1.5050241774794252e+01 1.2073003213711454e-01 
710 711 2 1.0279999999359475e+00 -8.3333794907731613e+02 1.0000000000000000e+00 1.9790010566774757e+01 1.7489268800338483e+01 1.2287890389825029e+00 
3191 3192 2 1.0280000000011840e+00 -1.7666638549174054e+03 1.0000000000000000e+00 2.2259844536721630e+01 1.6721656919223737e+01 1.6915894391894253e+00 
1045 1046 2 1.0280000056351650e+00 -2.6976471701452842e+03 1.0000000000000000e+00 2.7824098482504059e+01 1.6903605060877020e+01 1.6683042109833466e+00 
3899 3900 2 1.0279999969861511e+00 2.6113368406703562e+03 1.0000000000000000e+00 2.8144500954274992e+01 1.6579793622649415e+01 9.6347514230529563e-01 
993 994 2 1.0279999994614184e+00 1.4582784434091225e+03 1.0000000000000000e+00 3.2643270165238036e+01 1.7480008694020984e+01 4.4215637040764266e-01 
1995 1996 2 1.0280000020979503e+00 8.0044158840317107e+02 1.0000000000000000e+00 3.2321914884764745e+01 1.6944128677795021e+01 1.2736423034200833e-01 
1167 1168 2 1.0279999998830567e+00 1.2788439320171463e+04 1.0000000000000000e+00 1.9767441116478750e+01 1.9201698748592836e+01 9.9939854357609736e-01 
708 709 2 1.0280000000657132e+00 -1.3169455182020611e+03 1.0000000000000000e+00 2.0442560729274035e+01 1.8315905668220477e+01 1.1316102720842804e+00 
1412 1413 2 1.0279999998473561e+00 -1.4326087583200223e+02 1.0000000000000000e+00 2.8704088722422675e+01 1.8216134572434129e+01 2.8271168826552040e-01 
1035 1036 2 1.0279999998371609e+00 1.6691343067025837e+03 1.0000000000000000e+00 2.8703387573046033e+01 1.8214633534776461e+01 2.7972849201859135e-01 
3138 3139 2 1.0279999999323226e+00 1.1239298049061381e+03 1.0000000000000000e+00 1.4082935305471649e+00 1.8522520252038952e+00 2.9686819544235061e+00 
581 582 2 1.0280000002631247e+00 -1.7129115008443296e+03 1.0000000000000000e+00 5.5611724219736827e+00 4.0772143395543642e-01 2.6568816432724147e+00 
3688 3689 2 1.0279999980200905e+00 3.0496539495968154e+03 1.0000000000000000e+00 4.7912069409335309e+00 1.8587448778765658e+00 3.0595556422429357e+00 
1881 1882 2 1.0279999992280495e+00 -6.6555987939733700e+02 1.0000000000000000e+00 4.0804850301446196e+00 3.1264858930905132e-01 3.9865440322653378e+00 
1126 1127 2 1.0279999988977979e+00 -6.7470472413088117e+01 1.0000000000000000e+00 6.4596952748404055e+00 4.9188751751255927e-01 2.0296421579708737e+00 
3489 3490 2 1.0280000002956839e+00 -2.2759540992663233e+03 1.0000000000000000e+00 9.6586739248949272e+00 1.9377152507205058e+00 3.0879274896968747e+00 
3660 3661 2 1.0280000000838938e+00 2.1672995496575404e+03 1.0000000000000000e+00 9.5178854840993434e+00 6.8690296132921225e-01 3.4464689640268618e+00 
1177 1178 2 1.0279999996921956e+00 3.3131997230720863e+03 1.0000000000000000e+00 1.1200449598921974e+01 1.7050719977637618e+00 2.1976472616938603e+00 
1642 1643 2 1.0280000003193219e+00 -9.2464763213792457e+02 1.0000000000000000e+00 1.1318299058737955e+01 1.9580007492753888e+00 2.6645289732215667e+00 
2886 2887 2 1.0280000007521484e+00 1.1731258645865164e+03 1.0000000000000000e+00 1.7753099284034262e+00 2.0081392401113214e+00 3.3661832493277273e+00 
1393 1394 2 1.0279999995308189e+00 -1.8191508544756000e+03 1.0000000000000000e+00 3.2499756554369106e+00 2.1229223020787140e+00 2.4984132946622406e+00 
3601 3602 2 1.0279999999761609e+00 -2.4689399051922792e+03 1.0000000000000000e+00 6.6566485480629414e+00 2.4384235904718530e+00 3.5504051271505883e+00 
2639 2640 2 1.0280000013488277e+00 1.5587255714085468e+03 1.0000000000000000e+00 6.9567054537212991e+00 2.2567965432244463e+00 3.8568219329974500e+00 
1765 1766 2 1.0280000014492783e+00 -2.6077338742167630e+01 1.0000000000000000e+00 1.2444324844538839e+01 3.2604985019712887e+00 3.8441436504036472e+00 
3917 3918 2 1.0280000000386067e+00 1.4820139221293362e+03 1.0000000000000000e+00 2.8652509687221418e+01 3.8120675021301924e+00 2.4861930196211799e+00 
2663 2664 2 1.0279999999610256e+00 1.5599738782893342e+03 1.0000000000000000e+00 2.9814867964880026e+01 2.9421711318725032e+00 2.3413795221842051e+00 
1610 1611 2 1.0280000003438881e+00 7.5608727132723325e+03 1.0000000000000000e+00 3.3010166045690475e+01 3.7964893345008330e+00 2.9258344533148137e+00 
555 556 2 1.0279999953643553e+00 -4.7596579914495260e+02 1.0000000000000000e+00 5.9963707851067873e+00 5.1525866422415207e+00 2.1711999063201808e+00 
347 348 2 1.0280000010835517e+00 -6.7171826348596244e+02 1.0000000000000000e+00 7.1308068764986920e+00 5.1021293442034326e+00 3.3535250766922728e+00 
811 812 2 1.0280000003478169e+00 -2.4803486282648552e+02 1.0000000000000000e+00 6.0192630315018807e+00 4.5760719364703526e+00 3.4486068142614030e+00 
3219 3220 2 1.0279999988825759e+00 -2.6602017639424764e+02 1.0000000000000000e+00 8.7349212540064443e+00 5.2213737020811388e+00 2.8642487263502501e+00 
3407 3408 2 1.0279999996316711e+00 -8.7121664563286640e+02 1.0000000000000000e+00 1.1588630867458072e+01 5.3997604816492641e+00 2.7315149833663028e+00 
2651 2652 2 1.0280000003137839e+00 1.0783066092927315e+03 1.0000000000000000e+00 1.1202732184370095e+01 5.3978122886165805e+00 3.0248397056207197e+00 
683 684 2 1.0280000000014065e+00 1.4655701706423556e+03 1.0000000000000000e+00 2.9180608092427811e+01 4.6806385795975372e+00 3.8705950481231617e+00 
2074 2075 2 1.0279999994961673e+00 1.0105288592128306e+03 1.0000000000000000e+00 3.0586220890756127e+01 4.4867970560622483e+00 2.3622714782413192e+00 
2201 2202 2 1.0279999999736742e+00 1.5678710547145301e+03 1.0000000000000000e+00 2.9766719678046055e+01 4.4909256903734338e+00 3.9393009740931508e+00 
687 688 2 1.0279999996669711e+00 1.6331757010158062e+03 1.0000000000000000e+00 3.2968059736625762e+01 4.9213572786392525e+00 2.8861913769317451e+00 
4186 4187 2 1.0279999998192195e+00 -1.0140211744815206e+03 1.0000000000000000e+00 7.4018087436515065e+00 7.2025421595895525e+00 3.3858576008106520e+00 
4311 4312 2 1.0280000009628516e+00 -2.3240133098066799e+03 1.0000000000000000e+00 8.2786878965385693e+00 6.6625413802688858e+00 2.7273251783161139e+00 
1670 1671 2 1.0279999997656766e+00 -1.3221392752774832e+03 1.0000000000000000e+00 1.1869973471817408e+01 7.6775944391618021e+00 2.1202795272588495e+00 
1641 1642 2 1.0279999995518119e+00 -4.1838002532294086e+03 1.0000000000000000e+00 1.2971176280510887e+01 6.6716246510260842e+00 2.6058948774827062e+00 
2145 2146 2 1.0279999996103928e+00 -2.0629107596704544e+03 1.0000000000000000e+00 1.3677300918651270e+01 7.7240936926989781e+00 2.7354253171891898e+00 
2563 2564 2 1.0279999992567559e+00 6.7240636080700780e+00 1.0000000000000000e+00 1.4468444576882248e+01 7.6681660158260252e+00 3.4399967927670199e+00 
1612 1613 2 1.0280000005405512e+00 6.6120696606738093e+03 1.0000000000000000e+00 3.3138836513608929e+01 7.0674960613280033e+00 2.2100392801016850e+00 
1611 1612 2 1.0280000002126184e+00 6.4206919859966229e+03 1.0000000000000000e+00 3.2814235978785135e+01 6.8950108757822539e+00 3.9014648209474090e+00 
2513 2514 2 1.0280000008000070e+00 -4.5447611453243244e+03 1.0000000000000000e+00 1.0652810951855621e+01 8.2116864778980627e+00 3.6085539987730226e+00 
791 792 2 1.0279999969704210e+00 4.0511158859469515e+03 1.0000000000000000e+00 1.0337827744123011e+01 9.7941160496877213e+00 3.8022321621312209e+00 
1936 1937 2 1.0280000001919405e+00 4.4127205462424911e+02 1.0000000000000000e+00 1.5750820901051879e+01 8.0312313588447442e+00 3.9165195516322941e+00 
4051 4052 2 1.0280000005006757e+00 9.5220630873990353e+02 1.0000000000000000e+00 2.7507156887338390e+01 8.4747670012641017e+00 2.6254509623868696e+00 
3412 3413 2 1.0280000004921648e+00 -6.9145935130139691e+01 1.0000000000000000e+00 2.7497707912007250e+01 8.4553392355441677e+00 2.6314007204124974e+00 
693 694 2 1.0279999991744346e+00 -4.2634702804827987e+02 1.0000000000000000e+00 3.3197106183745383e+01 8.0954421160524372e+00 3.8047976594427424e+00 
4085 4086 2 1.0279999991077275e+00 -3.9471590235714189e+03 1.0000000000000000e+00 3.2027773775111037e+01 1.1566650497277156e+01 3.4221930038762145e+00 
1149 1150 2 1.0280000037030881e+00 8.4499416438173048e+03 1.0000000000000000e+00 9.8126881826679870e+00 1.2816665505752091e+01 2.2848135638649163e+00 
1146 1147 2 1.0280000035930745e+00 7.5422271267371671e+03 1.0000000000000000e+00 9.9204744370216584e+00 1.2838451446664203e+01 2.2855875530745515e+00 
1685 1686 2 1.0280000001850025e+00 3.5097418311150852e+02 1.0000000000000000e+00 1.6072576113413064e+01 1.2606195903298477e+01 3.6949470813550906e+00 
467 468 2 1.0279999994821871e+00 -3.2551816328155146e+03 1.0000000000000000e+00 1.6651144648957974e+01 1.3004258857163403e+01 3.9705086827862783e+00 
1032 1033 2 1.0279999948605327e+00 -2.9344841558722992e+03 1.0000000000000000e+00 2.5651159881710655e+01 1.2817959182185238e+01 3.3784049888564933e+00 
925 926 2 1.0279999923823486e+00 -1.7186096278000703e+03 1.0000000000000000e+00 3.1275030576260004e+01 1.3852429991592874e+01 3.4696116275712479e+00 
348 349 2 1.0280000018853159e+00 3.3473754282799100e+03 1.0000000000000000e+00 3.1308013381171968e+01 1.3641342451353722e+01 3.4224760075883025e+00 
3459 3460 2 1.0279999963586841e+00 8.4489987672615935e+03 1.0000000000000000e+00 9.5055640254666436e+00 1.4756106763922132e+01 2.3692419277794223e+00 
3456 3457 2 1.0279999963586517e+00 7.5403474736543831e+03 1.0000000000000000e+00 9.5065803598354179e+00 1.4756291230817077e+01 2.3693697235222295e+00 
1343 1344 2 1.0279999998001661e+00 1.6411537680658842e+03 1.0000000000000000e+00 2.0651486093171588e+01 1.5848814531981725e+01 3.5486471460794728e+00 
2896 2897 2 1.0280000000766940e+00 1.0392117821108016e+03 1.0000000000000000e+00 2.2613727799534477e+01 1.5962638616204023e+01 2.8409940792636572e+00 
1576 1577 2 1.0280000015877546e+00 -3.0846835718537109e+03 1.0000000000000000e+00 2.5566376613568803e+01 1.4082913347392452e+01 3.5180820905547123e+00 
2835 2836 2 1.0280000065597630e+00 -1.4296819292613541e+03 1.0000000000000000e+00 2.7553838445154252e+01 1.5692413263053369e+01 3.5727625923191439e+00 
4052 4053 2 1.0280000376227771e+00 6.9339553970298550e+02 1.0000000000000000e+00 2.7484048684145375e+01 1.5814269177760986e+01 3.6354286230643886e+00 
1117 1118 2 1.0280000155937310e+00 1.5825436773133316e+02 1.0000000000000000e+00 3.0441119995620248e+01 1.5667491330773743e+01 3.2975273405771408e+00 
4073 4074 2 1.0279999997616500e+00 2.1664685750922940e+03 1.0000000000000000e+00 2.0698896926197762e+01 1.6341259667394549e+01 2.7128228372052399e+00 
4272 4273 2 1.0279999998470288e+00 4.8966827668448138e+02 1.0000000000000000e+00 2.3016339075002605e+01 1.7141953361227721e+01 2.1998820246409996e+00 
755 756 2 1.0280000002247072e+00 1.6678896309740230e+02 1.0000000000000000e+00 2.2035660926144740e+01 1.7046401137623388e+01 3.4928614383535108e+00 
1586 1587 2 1.0280000149293285e+00 -1.3556649365882904e+03 1.0000000000000000e+00 2.5616704735714702e+01 1.6926724821532638e+01 3.9773639782077215e+00 
1113 1114 2 1.0279999884683160e+00 1.4016699063130629e+00 1.0000000000000000e+00 2.8930077262987471e+01 1.6507951161740891e+01 2.5411963649314049e+00 
415 416 2 1.0280000010950177e+00 -2.6956633764597464e+03 1.0000000000000000e+00 1.8913087593917304e+01 1.8518715698102341e+01 3.9648332077465276e+00 
375 376 2 1.0279999998787785e+00 -2.3618650290345040e+03 1.0000000000000000e+00 2.0931003345985697e+01 1.8686791151549595e+01 3.2548114270966737e+00 
123 124 2 1.0279999998901423e+00 -2.3024727212402636e+03 1.0000000000000000e+00 2.0933540868353425e+01 1.8684677170014144e+01 3.2580207861787280e+00 
3560 3561 2 1.0280000011753427e+00 1.9398255567664074e+02 1.0000000000000000e+00 4.9082842750783149e+00 1.1591816047702235e+00 4.2697474245907951e+00 
3060 3061 2 1.0280000008393568e+00 3.3042826846467724e+03 1.0000000000000000e+00 8.7572224875475086e+00 4.3607475911721999e-01 4.2938153325590118e+00 
3391 3392 2 1.0279999975140466e+00 2.5399072896168673e+02 1.0000000000000000e+00 8.1363918992863180e+00 2.5657876444030982e-02 5.5022177446376901e+00 
3986 3987 2 1.0279999983082349e+00 -1.4862130273530482e+02 1.0000000000000000e+00 1.2957150487559248e+01 1.3260134437257123e+00 5.3114806520279600e+00 
3437 3438 2 1.0279999991203088e+00 1.1795863503415660e+03 1.0000000000000000e+00 1.4004426349440072e+01 1.0716997992893802e-01 4.8867680213465885e+00 
853 854 2 1.0280000000820373e+00 -3.7559312070393362e+03 1.0000000000000000e+00 1.7062261513176498e+01 2.6798926429390990e-01 4.4437658619723388e+00 
1819 1820 2 1.0280000001395861e+00 -2.8889681659704854e+02 1.0000000000000000e+00 1.7054726485638575e+01 2.6475090987180477e-01 4.4444350127255658e+00 
837 838 2 1.0280000003913083e+00 -9.4398418189302129e+02 1.0000000000000000e+00 4.4622217261186012e+00 3.9544139331966406e+00 4.0360683442381600e+00 
1409 1410 2 1.0279999966390341e+00 2.1640834670370468e+03 1.0000000000000000e+00 6.3965196254652437e+00 3.1572008555219959e+00 5.2271895859634228e+00 
3218 3219 2 1.0280000001544458e+00 -1.7237368786457245e+02 1.0000000000000000e+00 6.8101047522255627e+00 3.6664987300411371e+00 5.6869646276780541e+00 
1376 1377 2 1.0279999997507456e+00 1.3741072484134738e+03 1.0000000000000000e+00 9.0305309965673235e+00 2.6166708550333562e+00 4.1097822893519593e+00 
3686 3687 2 1.0280000015285873e+00 1.3781991563728729e+03 1.0000000000000000e+00 9.4485185389222544e+00 3.7207737997855448e+00 4.3044301392848725e+00 
4611 4612 2 1.0279999996129674e+00 -2.5249832150215634e+03 1.0000000000000000e+00 8.7953258708397133e+00 3.1088500756577866e+00 5.7433192039838445e+00 
2605 2606 2 1.0279999994228886e+00 -2.5663569740044477e+02 1.0000000000000000e+00 1.0504336464867094e+01 2.9304045879864185e+00 5.9326513949018143e+00 
2310 2311 2 1.0279999969882565e+00 -2.4281015758910435e+03 1.0000000000000000e+00 1.2660791617814137e+01 2.4040864530404855e+00 4.8186938559083652e+00 
298 299 2 1.0280000020338569e+00 -1.9143854805493181e+01 1.0000000000000000e+00 1.2840961671292876e+01 3.8173452673913584e+00 5.5866875170641981e+00 
585 586 2 1.0280000000256801e+00 -9.4408087965157051e+02 1.0000000000000000e+00 4.4819424715946559e+00 4.0389720053653040e+00 4.1157040023306957e+00 
997 998 2 1.0279999964193365e+00 3.2012767954384850e+02 1.0000000000000000e+00 8.5816016844126555e+00 4.9322523859325278e+00 4.2462865602149575e+00 
2175 2176 2 1.0279999998904978e+00 1.7795443834554821e+03 1.0000000000000000e+00 8.6903105461526096e+00 4.7422174968008219e+00 5.8553369810068236e+00 
283 284 2 1.0280000033951389e+00 4.2931185903195103e+02 1.0000000000000000e+00 1.0448512394238579e+01 5.8620260752025581e+00 4.9181817634345917e+00 
1679 1680 2 1.0279999968452180e+00 -1.3154345343390692e+03 1.0000000000000000e+00 1.2296821388629438e+01 4.2340423949355808e+00 4.0911947863737455e+00 
1235 1236 2 1.0280000001374934e+00 -6.6089534857436615e+02 1.0000000000000000e+00 3.2610400052626076e+01 4.6108486554142054e+00 5.5936880733699974e+00 
1829 1830 2 1.0279999990280793e+00 2.2204077699454442e+03 1.0000000000000000e+00 7.8879849379107627e+00 7.1297428225078185e+00 4.1555295076712406e+00 
374 375 2 1.0279999997538896e+00 1.9830680835030930e+03 1.0000000000000000e+00 9.2151782064948442e+00 7.6459590363464631e+00 5.3592447437644282e+00 
1674 1675 2 1.0279999997998124e+00 3.3160359134165719e+03 1.0000000000000000e+00 9.8966743945773175e+00 6.0566816574971591e+00 5.4786109587405027e+00 
1968 1969 2 1.0279999968749884e+00 4.8364160083700585e+02 1.0000000000000000e+00 1.1022755790941748e+01 7.3226876180164631e+00 4.0377227992810338e+00 
1220 1221 2 1.0280000013979529e+00 -1.2901297774740597e+03 1.0000000000000000e+00 1.2759928292100225e+01 6.6462016017738756e+00 4.2326740171497761e+00 
1381 1382 2 1.0279999986203545e+00 2.1366977458672459e+03 1.0000000000000000e+00 1.2326302059801058e+01 6.1815113507972521e+00 4.8307259961740865e+00 
2537 2538 2 1.0280000002433314e+00 1.2087922599143913e+03 1.0000000000000000e+00 3.2152378036823784e+01 6.4949397773751105e+00 5.5544712567499595e+00 
2073 2074 2 1.0279999998515472e+00 -3.5968974764189977e+02 1.0000000000000000e+00 3.2573371229831260e+01 7.1672121657819359e+00 5.7089458683579926e+00 
1800 1801 2 1.0280000016323689e+00 -3.1685284500402393e+01 1.0000000000000000e+00 9.3452724090828632e+00 8.1400774709151573e+00 4.9528713632409724e+00 
452 453 2 1.0279999994263000e+00 -3.3047982545830837e+03 1.0000000000000000e+00 1.0611186064184656e+01 9.9251630031790707e+00 4.4486429671637291e+00 
2631 2632 2 1.0280000018440534e+00 1.2815973077329654e+03 1.0000000000000000e+00 1.1632408504532874e+01 8.7981696140376329e+00 5.5328694836279180e+00 
1252 1253 2 1.0279999946482661e+00 1.2410349176652639e+03 1.0000000000000000e+00 1.1287755723494742e+01 9.2647423612556388e+00 5.9761419407311340e+00 
716 717 2 1.0280000012492363e+00 2.2415351270420467e+02 1.0000000000000000e+00 1.3074920414294176e+01 9.6575975279848087e+00 5.3075095357085980e+00 
1259 1260 2 1.0279999998813105e+00 -1.2625412233793236e+03 1.0000000000000000e+00 1.3806382863282405e+01 9.4104863308882933e+00 4.7012751673570445e+00 
842 843 2 1.0279999981053745e+00 3.2868764860827660e+03 1.0000000000000000e+00 1.4904397627453964e+01 9.2014443035410984e+00 5.4430978104189300e+00 
843 844 2 1.0279999996292801e+00 1.1042200973047647e+03 1.0000000000000000e+00 1.5802973441744461e+01 8.6845118971533548e+00 4.2351423636711676e+00 
1644 1645 2 1.0279999987268478e+00 8.8054639384437814e+02 1.0000000000000000e+00 3.1573861612609331e+01 9.9614822797556819e+00 5.8287721155626420e+00 
845 846 2 1.0280000000362230e+00 8.2198331761595557e+02 1.0000000000000000e+00 1.5286719691915378e+01 1.1857296639932850e+01 5.4386415179999448e+00 
1639 1640 2 1.0280000008615864e+00 -1.9995034127228860e+03 1.0000000000000000e+00 1.6457291082485675e+01 1.1892526985945610e+01 4.8579983976852654e+00 
3457 3458 2 1.0280000041866686e+00 8.6141449156812014e+03 1.0000000000000000e+00 2.5710293116022406e+01 1.1201928648425652e+01 4.0057189282272123e+00 
1148 1149 2 1.0280000041866142e+00 9.2703180294188423e+03 1.0000000000000000e+00 2.5710151667973147e+01 1.1201947507789690e+01 4.0057854216337567e+00 
463 464 2 1.0279999991190187e+00 -1.5569181869166528e+03 1.0000000000000000e+00 3.0440192341057752e+01 1.0413701469940104e+01 4.0349581945031394e+00 
844 845 2 1.0279999993572537e+00 3.5802278916247758e+02 1.0000000000000000e+00 3.0393365335367704e+01 1.0430006059135920e+01 4.1151210810343519e+00 
758 759 2 1.0280000011459702e+00 3.9338024858383176e+02 1.0000000000000000e+00 3.1830308132081420e+01 1.0154075104252591e+01 5.4548973326426928e+00 
1684 1685 2 1.0279999972895739e+00 6.5633028169931345e+02 1.0000000000000000e+00 1.5929752713783390e+01 1.3717269636164298e+01 5.7062233092607544e+00 
1967 1968 2 1.0280000070251856e+00 -1.1531318399334845e+02 1.0000000000000000e+00 2.3665635990977336e+01 1.2769797428242395e+01 5.6181911886235714e+00 
2219 2220 2 1.0280000056676366e+00 -1.1532429130231164e+02 1.0000000000000000e+00 2.3651396219669589e+01 1.2765072008354380e+01 5.6345138009267481e+00 
1411 1412 2 1.0280000070484074e+00 -1.2969202551462713e+03 1.0000000000000000e+00 2.5321568810491225e+01 1.3780349610806349e+01 4.1872732233956427e+00 
559 560 2 1.0280000021250744e+00 -2.8062508706023652e+02 1.0000000000000000e+00 3.2379717146620997e+01 1.2093451024220943e+01 4.0402355327557045e+00 
1616 1617 2 1.0279999981360950e+00 5.3467529888642894e+03 1.0000000000000000e+00 3.2927969103477047e+01 1.3782992518799480e+01 5.1352442346390408e+00 
1222 1223 2 1.0280000001653364e+00 2.1994816096629988e+03 1.0000000000000000e+00 1.8707096817476966e+01 1.5691151910679475e+01 5.8300897101981102e+00 
3656 3657 2 1.0280000000975535e+00 -2.2171114739549275e+03 1.0000000000000000e+00 1.9984752620255826e+01 1.5295917268383079e+01 4.8347359486600325e+00 
114 115 2 1.0279999983479817e+00 3.4194032488587766e+02 1.0000000000000000e+00 2.1098009968667384e+01 1.5015479140896080e+01 5.6398848523452614e+00 
989 990 2 1.0279999994608691e+00 -3.1655692521638309e+02 1.0000000000000000e+00 2.9548430482095867e+01 1.5291110384655683e+01 4.8664801213796123e+00 
2078 2079 2 1.0280000034215495e+00 -1.0415311921221387e+03 1.0000000000000000e+00 3.0462590532728392e+01 1.4207089697520365e+01 5.8372022249345870e+00 
231 232 2 1.0280000018273807e+00 -6.4402639331830045e+01 1.0000000000000000e+00 3.2932076539179583e+01 1.4152423772681056e+01 5.4004012369522689e+00 
794 795 2 1.0279999998822080e+00 2.1938200831440427e+03 1.0000000000000000e+00 1.8298374542942735e+01 1.6127061554721543e+01 4.7026229803374928e+00 
291 292 2 1.0279999997481433e+00 -1.9322795687509674e+03 1.0000000000000000e+00 1.8930999279753035e+01 1.6611922044598856e+01 4.1398073608304991e+00 
2463 2464 2 1.0279999951180512e+00 1.2943101105426629e+03 1.0000000000000000e+00 2.4767322681000493e+01 1.7361618515640505e+01 4.1985967183717579e+00 
1964 1965 2 1.0279999949951268e+00 1.6670392302802821e+02 1.0000000000000000e+00 2.5945808579616546e+01 1.7087222969697937e+01 5.1514080411113792e+00 
101 102 2 1.0279999884335937e+00 -4.3148430784013084e+02 1.0000000000000000e+00 2.9666005945935236e+01 1.6136870685176884e+01 4.1384030427387977e+00 
1722 1723 2 1.0279999979443590e+00 -4.0714747011385327e+02 1.0000000000000000e+00 1.8726112942840867e+01 1.8446127141278531e+01 4.3564610984886487e+00 
2726 2727 2 1.0280000009997867e+00 -2.8088010505831244e+03 1.0000000000000000e+00 1.9285390651665232e+01 1.9875155266950795e+01 5.5629040233700815e+00 
2932 2933 2 1.0279999924667584e+00 4.1196740962851782e+03 1.0000000000000000e+00 2.5411619802074906e+01 1.8859207648501521e+01 4.8692956306572457e+00 
1963 1964 2 1.0280000232800417e+00 1.7787814126636054e+03 1.0000000000000000e+00 2.4982198193341880e+01 1.8835508436606865e+01 5.2618598710884390e+00 
2633 2634 2 1.0280000027304923e+00 1.1032617011431578e+03 1.0000000000000000e+00 6.8727084230130355e+00 1.1511019159979947e+00 6.8600759863008518e+00 
827 828 2 1.0279999983484600e+00 -4.2019474392552991e+02 1.0000000000000000e+00 6.6379164616854087e+00 9.1688741299591403e-01 7.1297430236810202e+00 
1589 1590 2 1.0279999993454574e+00 9.7291921853943435e+01 1.0000000000000000e+00 8.8719771189224854e+00 6.6142272776135103e-01 6.4433275601271882e+00 
2181 2182 2 1.0280000002653182e+00 1.2291662995449001e+03 1.0000000000000000e+00 1.0068080970507435e+01 2.0842761567022658e-01 6.4384809793635789e+00 
2106 2107 2 1.0280000004008814e+00 3.2207278051845260e+03 1.0000000000000000e+00 1.2698182516539926e+01 3.2835107636007316e-01 6.1111011625222158e+00 
258 259 2 1.0279999991716688e+00 -9.8976532906685611e+02 1.0000000000000000e+00 1.3606346002937983e+01 1.6181350789919455e+00 7.6910236882049769e+00 