LAMMPS data file via write_data, version 30 Jul 2016, timestep = 50000000

180 atoms
2 atom types

0.0000000000000000e+00 2.0000000000000000e+01 xlo xhi
0.0000000000000000e+00 2.0000000000000000e+01 ylo yhi
0.0000000000000000e+00 2.0000000000000000e+01 zlo zhi

Masses

1 3.896
2 4.31

Atoms # meso-molecular

7 1 2 1.0279999999999911e+00 -3.7776933080543677e+02 1.0000000000000000e+00 6.2867474723318333e+00 6.5302304086163279e+00 2.1618483892763960e+00 
50 1 2 1.0279999999999898e+00 -4.8374668801771747e+02 1.0000000000000000e+00 6.3088353087185878e+00 6.5389566076508290e+00 2.1799640262864290e+00 
8 1 2 1.0279999999999876e+00 -3.7581485102714981e+02 1.0000000000000000e+00 6.3019120333772420e+00 6.5367111865277661e+00 2.1754061997122940e+00 
43 1 2 1.0280000000000078e+00 -3.7184706402322524e+02 1.0000000000000000e+00 6.3748743442229676e+00 6.5078291074200170e+00 2.1298404477947597e+00 
13 1 2 1.0280000000000042e+00 -4.0298312936496831e+02 1.0000000000000000e+00 6.3851260007580262e+00 7.3873934147469615e+00 1.6537990197545176e+00 
19 1 2 1.0280000000000022e+00 -2.8782796354513761e+02 1.0000000000000000e+00 6.3662482918255074e+00 7.3852980262548682e+00 1.6485612683350785e+00 
55 1 2 1.0280000000000071e+00 -2.6392981799607350e+02 1.0000000000000000e+00 6.3661498588337846e+00 7.3852824724830981e+00 1.6485304299330379e+00 
49 1 2 1.0280000000000022e+00 -4.3992518052262534e+02 1.0000000000000000e+00 6.4408822042224347e+00 7.3453795310554133e+00 1.6027640863069157e+00 
2 1 2 2.9014206462107284e-01 -1.4703789316053775e+02 1.0000000000000000e+00 4.9702584977797706e+00 1.4375882509017917e+00 6.0051329839228638e+00 
3 1 2 2.9014206462107284e-01 -1.4065924614592839e+02 1.0000000000000000e+00 4.9702584977797741e+00 1.4375882509017919e+00 6.0051329839228673e+00 
9 1 2 4.3521309693160926e-01 -2.5588507410916691e+02 1.0000000000000000e+00 4.8513031869586589e+00 5.3738272930365012e+00 9.2112122299973009e+00 
10 1 2 4.3521309693160926e-01 -2.5275261223862458e+02 1.0000000000000000e+00 4.8513031869586580e+00 5.3738272930365039e+00 9.2112122299973169e+00 
16 1 2 4.3521309693160926e-01 -2.5171440899504884e+02 1.0000000000000000e+00 4.8513031869586536e+00 5.3738272930365065e+00 9.2112122299973169e+00 
52 1 2 1.0154972261737549e+00 -2.5729032531185993e+02 1.0000000000000000e+00 6.3396656766809247e+00 8.8895967489900247e+00 7.2997394968728289e+00 
14 1 2 1.0154972261737549e+00 -2.2460792921372479e+02 1.0000000000000000e+00 6.3396656766807364e+00 8.8895967489894634e+00 7.2997394968722693e+00 
20 1 2 1.0154972261737549e+00 -2.4048900475404093e+02 1.0000000000000000e+00 6.3396656766810553e+00 8.8895967489893479e+00 7.2997394968728333e+00 
15 1 2 1.0154972261737549e+00 -2.9178537384227570e+02 1.0000000000000000e+00 6.3396656766810811e+00 8.8895967489896091e+00 7.2997394968723253e+00 
21 1 2 1.0154972261737549e+00 -3.4454555499283651e+02 1.0000000000000000e+00 6.3396656766810917e+00 8.8895967489903267e+00 7.2997394968725757e+00 
22 1 2 1.0154972261737549e+00 -3.3934793942744261e+02 1.0000000000000000e+00 6.3396656766808741e+00 8.8895967489903818e+00 7.2997394968722151e+00 
51 1 2 1.0154972261737549e+00 -2.7064243982100038e+02 1.0000000000000000e+00 6.3396656766807666e+00 8.8895967489901935e+00 7.2997394968724869e+00 
17 1 2 5.8028412924214567e-01 -2.9473777622576426e+02 1.0000000000000000e+00 6.4648170892932031e+00 8.1330561783514508e+00 1.4719330256477459e+01 
18 1 2 5.8028412924214567e-01 -3.1974618149833253e+02 1.0000000000000000e+00 6.4648170892932031e+00 8.1330561783514508e+00 1.4719330256477466e+01 
54 1 2 5.8028412924214567e-01 -3.0798627728732953e+02 1.0000000000000000e+00 6.4648170892931951e+00 8.1330561783514348e+00 1.4719330256477466e+01 
53 1 2 5.8028412924214567e-01 -2.7359962699662015e+02 1.0000000000000000e+00 6.4648170892931951e+00 8.1330561783514348e+00 1.4719330256477459e+01 
25 1 2 7.2535516155268209e-01 -3.7509933097467155e+02 1.0000000000000000e+00 5.6464698731245875e+00 1.5565122948090316e+01 2.2888314966961119e+00 
26 1 2 7.2535516155268209e-01 -3.0650042016128384e+02 1.0000000000000000e+00 5.6464698731245875e+00 1.5565122948090355e+01 2.2888314966961101e+00 
31 1 2 7.2535516155268209e-01 -4.1957094830315395e+02 1.0000000000000000e+00 5.6464698731245901e+00 1.5565122948090314e+01 2.2888314966961092e+00 
61 1 2 7.2535516155268209e-01 -2.3551064403303442e+02 1.0000000000000000e+00 5.6464698731245875e+00 1.5565122948090352e+01 2.2888314966961119e+00 
32 1 2 7.2535516155268209e-01 -3.5476260904409844e+02 1.0000000000000000e+00 5.6464698731245893e+00 1.5565122948090314e+01 2.2888314966961114e+00 
28 1 2 5.8028412924214567e-01 -3.4754891943306086e+02 1.0000000000000000e+00 5.1710061095865871e+00 1.5029420369293485e+01 1.1672219425067428e+01 
34 1 2 5.8028412924214567e-01 -3.3630618646859284e+02 1.0000000000000000e+00 5.1710061095865685e+00 1.5029420369293506e+01 1.1672219425067434e+01 
35 1 2 5.8028412924214567e-01 -3.2116584332611558e+02 1.0000000000000000e+00 5.1710061095865774e+00 1.5029420369293447e+01 1.1672219425067423e+01 
64 1 2 5.8028412924214567e-01 -3.0358042731232837e+02 1.0000000000000000e+00 5.1710061095865782e+00 1.5029420369293447e+01 1.1672219425067439e+01 
36 1 2 1.4507103231053642e-01 1.1827816801955136e+01 1.0000000000000000e+00 4.7623457097620321e+00 1.6409051510898035e+01 1.7305384639735287e+01 
37 1 2 4.3521309693160926e-01 -3.0255183297029839e+02 1.0000000000000000e+00 9.3658276575537283e+00 4.8439052606053540e-01 3.4107609191239918e+00 
38 1 2 4.3521309693160926e-01 -2.9002510809370335e+02 1.0000000000000000e+00 9.3658276575537194e+00 4.8439052606053362e-01 3.4107609191239923e+00 
74 1 2 4.3521309693160926e-01 -2.9322576882641772e+02 1.0000000000000000e+00 9.3658276575537194e+00 4.8439052606053318e-01 3.4107609191239905e+00 
44 1 2 8.7042619386321851e-01 -2.8408248278607851e+02 1.0000000000000000e+00 9.8269516645968302e+00 3.3711290225634367e+00 7.1057848807650341e+00 
39 1 2 8.7042619386321851e-01 -3.1150215308460633e+02 1.0000000000000000e+00 9.8269516645967698e+00 3.3711290225634309e+00 7.1057848807650608e+00 
46 1 2 8.7042619386321851e-01 -3.3697939818952324e+02 1.0000000000000000e+00 9.8269516645967538e+00 3.3711290225634336e+00 7.1057848807650670e+00 
80 1 2 8.7042619386321851e-01 -2.8095362493304930e+02 1.0000000000000000e+00 9.8269516645968302e+00 3.3711290225634394e+00 7.1057848807650137e+00 
45 1 2 8.7042619386321851e-01 -3.1126414144317590e+02 1.0000000000000000e+00 9.8269516645968302e+00 3.3711290225634456e+00 7.1057848807650288e+00 
81 1 2 8.7042619386321851e-01 -3.1822235343067155e+02 1.0000000000000000e+00 9.8269516645968249e+00 3.3711290225634376e+00 7.1057848807650599e+00 
40 1 2 1.0279999999999934e+00 -2.8031313390193509e+02 1.0000000000000000e+00 8.6593049480994289e+00 2.2300195051393503e+00 1.2956803481659989e+01 
41 1 2 1.0279999999999871e+00 -3.6289107784475618e+02 1.0000000000000000e+00 8.5285007471318810e+00 1.7912961816258182e+00 1.2036178272501884e+01 
76 1 2 1.0280000000000264e+00 -2.9663673477562656e+02 1.0000000000000000e+00 8.6593046450069977e+00 2.2300195675138479e+00 1.2956803797842110e+01 
77 1 2 1.0280000000000078e+00 -2.5324118801185404e+02 1.0000000000000000e+00 8.6593044187846804e+00 2.2300196672930221e+00 1.2956804005961422e+01 
83 1 2 1.0280000000000054e+00 -2.5018572429533441e+02 1.0000000000000000e+00 8.6593043752566494e+00 2.2300196557276597e+00 1.2956804062116962e+01 
47 1 2 1.0280000000000002e+00 -3.9319284990058492e+02 1.0000000000000000e+00 7.5156892583418200e+00 1.8257714776919696e+00 1.2210058930599526e+01 
4 1 2 1.0279999999999987e+00 -3.6593602793144186e+02 1.0000000000000000e+00 7.5158482410542540e+00 1.8256108701272442e+00 1.2209817107997893e+01 
11 1 2 1.0279999999999940e+00 -4.2970662496284967e+02 1.0000000000000000e+00 7.5156890029220991e+00 1.8257044106206299e+00 1.2210097536419797e+01 
5 1 2 1.0280000000000014e+00 -3.0891365124021598e+02 1.0000000000000000e+00 7.5156512167775666e+00 1.8256282340333019e+00 1.2210220036785350e+01 
82 1 2 7.2535516155268209e-01 -2.8992459476079370e+02 1.0000000000000000e+00 1.2467809503199836e+01 6.1833677993333591e+00 1.0578251640386647e+01 
88 1 2 7.2535516155268209e-01 -3.3240074203018401e+02 1.0000000000000000e+00 1.2467809503199835e+01 6.1833677993333707e+00 1.0578251640386647e+01 
89 1 2 7.2535516155268209e-01 -2.9709671188439989e+02 1.0000000000000000e+00 1.2467809503199902e+01 6.1833677993333556e+00 1.0578251640386643e+01 
118 1 2 7.2535516155268209e-01 -2.7420424360989540e+02 1.0000000000000000e+00 1.2467809503199836e+01 6.1833677993333547e+00 1.0578251640386648e+01 
87 1 2 7.2535516155268209e-01 -2.7733342794356406e+02 1.0000000000000000e+00 1.2467809503199904e+01 6.1833677993333556e+00 1.0578251640386652e+01 
78 1 2 8.7042619386321851e-01 -2.6898050087904807e+02 1.0000000000000000e+00 6.8092962058338218e+00 2.0531056884875678e+00 1.7529067023130523e+01 
42 1 2 8.7042619386321851e-01 -3.3822152215086805e+02 1.0000000000000000e+00 6.8092962058338173e+00 2.0531056884875634e+00 1.7529067023130455e+01 
48 1 2 8.7042619386321851e-01 -3.4242968207212709e+02 1.0000000000000000e+00 6.8092962058338298e+00 2.0531056884875469e+00 1.7529067023130523e+01 
6 1 2 8.7042619386321851e-01 -3.5065254650541851e+02 1.0000000000000000e+00 6.8092962058338173e+00 2.0531056884875638e+00 1.7529067023130409e+01 
12 1 2 8.7042619386321851e-01 -3.6168772821088965e+02 1.0000000000000000e+00 6.8092962058338218e+00 2.0531056884875571e+00 1.7529067023130366e+01 
1 1 2 8.7042619386321851e-01 -2.8111614503946339e+02 1.0000000000000000e+00 6.8092962058338218e+00 2.0531056884875696e+00 1.7529067023130285e+01 
73 1 2 8.7042619386321851e-01 -3.9295349526819962e+02 1.0000000000000000e+00 1.1641117796184703e+01 5.3160691873498953e+00 1.9057443744910600e+01 
90 1 2 8.7042619386321851e-01 -3.7692804185442424e+02 1.0000000000000000e+00 1.1641117796184620e+01 5.3160691873498580e+00 1.9057443744910838e+01 
84 1 2 8.7042619386321851e-01 -4.3424628619893258e+02 1.0000000000000000e+00 1.1641117796184671e+01 5.3160691873498900e+00 1.9057443744910685e+01 
79 1 2 8.7042619386321851e-01 -3.8792313298925029e+02 1.0000000000000000e+00 1.1641117796184634e+01 5.3160691873499104e+00 1.9057443744910604e+01 
126 1 2 8.7042619386321851e-01 -3.9039321428927258e+02 1.0000000000000000e+00 1.1641117796184600e+01 5.3160691873498953e+00 1.9057443744910831e+01 
85 1 2 8.7042619386321851e-01 -3.2009150717969948e+02 1.0000000000000000e+00 1.1641117796184647e+01 5.3160691873498855e+00 1.9057443744910596e+01 
98 1 2 7.2535516155268209e-01 -2.0243460763769420e+02 1.0000000000000000e+00 1.2947623416765035e+01 1.1848601240324792e+01 2.8449091955195187e+00 
97 1 2 7.2535516155268209e-01 -2.1971149395885425e+02 1.0000000000000000e+00 1.2947623416765092e+01 1.1848601240324792e+01 2.8449091955195152e+00 
92 1 2 7.2535516155268209e-01 -2.8067959813016563e+02 1.0000000000000000e+00 1.2947623416765044e+01 1.1848601240324772e+01 2.8449091955195156e+00 
127 1 2 7.2535516155268209e-01 -3.2644670039575090e+02 1.0000000000000000e+00 1.2947623416765056e+01 1.1848601240324800e+01 2.8449091955195152e+00 
128 1 2 7.2535516155268209e-01 -2.6657698326628542e+02 1.0000000000000000e+00 1.2947623416765056e+01 1.1848601240324861e+01 2.8449091955195183e+00 
103 1 2 4.3521309693160926e-01 -2.9930874047402017e+02 1.0000000000000000e+00 1.3286159446989354e+01 1.5914954744971455e+01 1.3300837086161832e+00 
133 1 2 4.3521309693160926e-01 -2.9423865202015719e+02 1.0000000000000000e+00 1.3286159446989359e+01 1.5914954744971450e+01 1.3300837086161832e+00 
139 1 2 4.3521309693160926e-01 -2.9740242745611664e+02 1.0000000000000000e+00 1.3286159446989364e+01 1.5914954744971460e+01 1.3300837086161814e+00 
93 1 2 1.0279242489340732e+00 -4.3048395912290448e+02 1.0000000000000000e+00 1.1412692943442643e+01 1.3326092560079406e+01 7.9158089316707114e+00 
69 1 2 1.0279242489279441e+00 -3.8440673821411451e+02 1.0000000000000000e+00 1.1412693068217768e+01 1.3326092840810462e+01 7.9158091099694241e+00 
33 1 2 1.0279242489279441e+00 -3.6992898834967650e+02 1.0000000000000000e+00 1.1412693068217768e+01 1.3326092840810462e+01 7.9158091099694241e+00 
70 1 2 1.0279242489279441e+00 -3.4242428615210525e+02 1.0000000000000000e+00 1.1412693068217768e+01 1.3326092840810462e+01 7.9158091099694241e+00 
27 1 2 1.0279242489279441e+00 -3.6575247410646546e+02 1.0000000000000000e+00 1.1412693068217768e+01 1.3326092840810462e+01 7.9158091099694241e+00 
129 1 2 1.0279242498362617e+00 -2.5751944805725464e+02 1.0000000000000000e+00 1.1412696790358256e+01 1.3326095489048322e+01 7.9157987767243458e+00 
135 1 2 1.0279242498362617e+00 -2.7571951293212578e+02 1.0000000000000000e+00 1.1412696790358256e+01 1.3326095489048322e+01 7.9157987767243458e+00 
56 1 2 1.0279242490949680e+00 -3.5489992654477078e+02 1.0000000000000000e+00 8.6324314983367589e+00 1.4937474633132970e+01 7.3225164151069464e+00 
57 1 2 1.0279242491110028e+00 -3.6264380540140849e+02 1.0000000000000000e+00 8.6324314509399382e+00 1.4937474622848098e+01 7.3225166107138184e+00 
63 1 2 1.0279242490364646e+00 -3.4685252917477084e+02 1.0000000000000000e+00 8.6324317655302707e+00 1.4937474858510322e+01 7.3225157698737222e+00 
99 1 2 1.0279242492801626e+00 -3.5884334767719190e+02 1.0000000000000000e+00 8.6324337292251521e+00 1.4937480048846318e+01 7.3225206864771497e+00 
62 1 2 1.0279242492806575e+00 -2.9241657428954687e+02 1.0000000000000000e+00 8.6324337308820294e+00 1.4937480054698595e+01 7.3225206946537282e+00 
68 1 2 1.0279242492806575e+00 -2.5455475962108045e+02 1.0000000000000000e+00 8.6324337308820329e+00 1.4937480054698593e+01 7.3225206946537194e+00 
104 1 2 1.0279242492806571e+00 -2.6547206359068241e+02 1.0000000000000000e+00 8.6324337308820329e+00 1.4937480054698600e+01 7.3225206946537051e+00 
105 1 2 4.3521309693160926e-01 -3.0006233614879011e+02 1.0000000000000000e+00 1.2433227626588748e+01 1.9833658171024222e+01 7.4451249735733098e+00 
75 1 2 4.3521309693160926e-01 -3.0246710160611042e+02 1.0000000000000000e+00 1.2433227626588755e+01 1.9833658171024222e+01 7.4451249735733125e+00 
111 1 2 4.3521309693160926e-01 -2.6916503353193275e+02 1.0000000000000000e+00 1.2433227626588765e+01 1.9833658171024091e+01 7.4451249735733098e+00 
58 1 2 5.8028412924214567e-01 -1.8421196307583693e+02 1.0000000000000000e+00 9.8065584564488670e+00 1.0350933543571873e+01 1.2505482935054353e+01 
59 1 2 5.8028412924214567e-01 -1.8225128998697724e+02 1.0000000000000000e+00 9.8065584564488670e+00 1.0350933543571880e+01 1.2505482935054344e+01 
94 1 2 5.8028412924214567e-01 -2.0548586780723755e+02 1.0000000000000000e+00 9.8065584564488741e+00 1.0350933543571873e+01 1.2505482935054347e+01 
95 1 2 5.8028412924214567e-01 -2.3204873709434213e+02 1.0000000000000000e+00 9.8065584564488741e+00 1.0350933543571880e+01 1.2505482935054347e+01 
100 1 2 5.8028412924214567e-01 -3.7588585127598651e+02 1.0000000000000000e+00 1.1749860463165323e+01 1.5598349614909413e+01 1.2382460391623896e+01 
106 1 2 5.8028412924214567e-01 -2.9659039082974607e+02 1.0000000000000000e+00 1.1749860463165360e+01 1.5598349614909409e+01 1.2382460391623896e+01 
107 1 2 5.8028412924214567e-01 -3.9278801463524428e+02 1.0000000000000000e+00 1.1749860463165341e+01 1.5598349614909409e+01 1.2382460391623880e+01 
101 1 2 5.8028412924214567e-01 -2.8950949774680203e+02 1.0000000000000000e+00 1.1749860463165341e+01 1.5598349614909413e+01 1.2382460391623880e+01 
23 1 2 1.0154972261737549e+00 -3.6864129808382705e+02 1.0000000000000000e+00 6.6985423103965367e+00 1.2264032208198298e+01 1.5370694312008681e+01 
29 1 2 1.0154972261737549e+00 -3.3833495626513809e+02 1.0000000000000000e+00 6.6985423103967969e+00 1.2264032208198316e+01 1.5370694312008524e+01 
24 1 2 1.0154972261737549e+00 -3.4652520207829019e+02 1.0000000000000000e+00 6.6985423103971282e+00 1.2264032208198460e+01 1.5370694312008943e+01 
60 1 2 1.0154972261737549e+00 -2.3209501484511284e+02 1.0000000000000000e+00 6.6985423103965287e+00 1.2264032208199216e+01 1.5370694312008158e+01 
66 1 2 1.0154972261737549e+00 -4.1252974434071314e+02 1.0000000000000000e+00 6.6985423103970865e+00 1.2264032208198572e+01 1.5370694312008530e+01 
65 1 2 1.0154972261737549e+00 -4.0312023953979940e+02 1.0000000000000000e+00 6.6985423103969151e+00 1.2264032208198536e+01 1.5370694312007966e+01 
30 1 2 1.0154972261737549e+00 -4.4053260966710656e+02 1.0000000000000000e+00 6.6985423103969701e+00 1.2264032208199366e+01 1.5370694312008400e+01 
96 1 2 2.9014206462107284e-01 -2.2498923353234036e+02 1.0000000000000000e+00 1.0389799543596387e+01 1.0993886764462237e+01 1.9227594041659703e+01 
91 1 2 2.9014206462107284e-01 -2.1491731511446727e+02 1.0000000000000000e+00 1.0389799543596386e+01 1.0993886764462236e+01 1.9227594041659717e+01 
71 1 2 5.8028412924214567e-01 -2.3374356733534523e+02 1.0000000000000000e+00 8.9907620381028064e+00 1.6700229510805208e+01 1.7755351774645330e+01 
108 1 2 5.8028412924214567e-01 -3.7336260242255543e+02 1.0000000000000000e+00 8.9907620381028135e+00 1.6700229510805258e+01 1.7755351774645256e+01 
72 1 2 5.8028412924214567e-01 -3.7060888319562713e+02 1.0000000000000000e+00 8.9907620381028135e+00 1.6700229510805176e+01 1.7755351774645256e+01 
67 1 2 5.8028412924214567e-01 -2.6631404938059410e+02 1.0000000000000000e+00 8.9907620381028064e+00 1.6700229510805176e+01 1.7755351774645259e+01 
121 1 2 4.3521309693160926e-01 -1.7180325584923094e+02 1.0000000000000000e+00 1.3497433608481264e+01 6.4186627122350028e+00 2.7885792984783073e+00 
122 1 2 4.3521309693160926e-01 -1.4161320563773305e+02 1.0000000000000000e+00 1.3497433608481256e+01 6.4186627122350055e+00 2.7885792984783091e+00 
86 1 2 4.3521309693160926e-01 -1.6535888696582646e+02 1.0000000000000000e+00 1.3497433608481264e+01 6.4186627122350322e+00 2.7885792984783082e+00 
163 1 2 2.9014206462107284e-01 -2.0272404472682706e+02 1.0000000000000000e+00 1.7056484438908011e+01 9.8182726035243526e+00 2.0826394882370707e+00 
164 1 2 2.9014206462107284e-01 -1.9445028545560825e+02 1.0000000000000000e+00 1.7056484438907997e+01 9.8182726035243597e+00 2.0826394882370725e+00 
109 1 2 8.7042619386321851e-01 -3.0932635819961536e+02 1.0000000000000000e+00 1.6009287477829940e+01 3.0940012660048115e+00 3.6665478365429536e+00 
110 1 2 8.7042619386321851e-01 -3.7861096281399199e+02 1.0000000000000000e+00 1.6009287477830163e+01 3.0940012660048031e+00 3.6665478365429611e+00 
146 1 2 8.7042619386321851e-01 -4.2586034581506624e+02 1.0000000000000000e+00 1.6009287477830053e+01 3.0940012660047991e+00 3.6665478365429434e+00 
152 1 2 8.7042619386321851e-01 -4.2048389641704637e+02 1.0000000000000000e+00 1.6009287477830028e+01 3.0940012660048035e+00 3.6665478365429718e+00 
116 1 2 8.7042619386321851e-01 -4.2577442407543003e+02 1.0000000000000000e+00 1.6009287477830046e+01 3.0940012660048057e+00 3.6665478365429434e+00 
158 1 2 8.7042619386321851e-01 -2.4614289451622352e+02 1.0000000000000000e+00 1.6009287477830014e+01 3.0940012660048044e+00 3.6665478365429718e+00 
147 1 2 1.4507103231053642e-01 3.4593192823004154e-01 1.0000000000000000e+00 1.8788059911022554e+01 5.4066436386073458e-01 7.6458511377412863e+00 
153 1 2 1.0279999999999858e+00 -3.2964966268064603e+02 1.0000000000000000e+00 1.6167917786720018e+01 7.4478144574181471e+00 8.8302207727938740e+00 
117 1 2 1.0279999999999991e+00 -3.6839412716799495e+02 1.0000000000000000e+00 1.6159223374043854e+01 7.4518446488080654e+00 8.8335571367286008e+00 
123 1 2 1.0280000000000138e+00 -3.7384298211160490e+02 1.0000000000000000e+00 1.6148904901772401e+01 7.4569425863992924e+00 8.8362707394789659e+00 
160 1 2 1.0279999999999865e+00 -3.7065494366571056e+02 1.0000000000000000e+00 1.6663651160586234e+01 8.6789078295002398e+00 9.2015428074838255e+00 
124 1 2 1.0279999999999831e+00 -3.4392241677968491e+02 1.0000000000000000e+00 1.6050300625488092e+01 7.5283285713993067e+00 8.9570245189040474e+00 
130 1 2 1.0280000000000105e+00 -3.2229017330238605e+02 1.0000000000000000e+00 1.6299398615621403e+01 8.6738936115912395e+00 9.1685927244670165e+00 
159 1 2 1.0279999999999634e+00 -3.6285855944310617e+02 1.0000000000000000e+00 1.7020811648117459e+01 8.2927402915847157e+00 8.4910023344564429e+00 
166 1 2 1.0280000000000191e+00 -3.9054614786590071e+02 1.0000000000000000e+00 1.6905104698364752e+01 8.6652175611010147e+00 8.8221253530161974e+00 
165 1 2 1.0280000000000336e+00 -3.1628111749943059e+02 1.0000000000000000e+00 1.6937240052109654e+01 8.5970375882025554e+00 8.6669788259988962e+00 
112 1 2 5.8028412924214567e-01 -2.5027033164217394e+02 1.0000000000000000e+00 1.6155108563569563e+01 1.1005497883970028e+00 1.2424224897284516e+01 
113 1 2 5.8028412924214567e-01 -2.8614386603200495e+02 1.0000000000000000e+00 1.6155108563569645e+01 1.1005497883970028e+00 1.2424224897284466e+01 
148 1 2 5.8028412924214567e-01 -3.3826031244307154e+02 1.0000000000000000e+00 1.6155108563569563e+01 1.1005497883970061e+00 1.2424224897284530e+01 
149 1 2 5.8028412924214567e-01 -2.9437616251875181e+02 1.0000000000000000e+00 1.6155108563569588e+01 1.1005497883970061e+00 1.2424224897284493e+01 
154 1 2 7.2535516155268209e-01 -2.7853180334726778e+02 1.0000000000000000e+00 1.6605289466676084e+01 5.6029037732679701e+00 1.3286165615712447e+01 
161 1 2 7.2535516155268209e-01 -2.9103399863776770e+02 1.0000000000000000e+00 1.6605289466676219e+01 5.6029037732679781e+00 1.3286165615712440e+01 
155 1 2 7.2535516155268209e-01 -2.7060051062967068e+02 1.0000000000000000e+00 1.6605289466676236e+01 5.6029037732679807e+00 1.3286165615712511e+01 
125 1 2 7.2535516155268209e-01 -2.5785429761262128e+02 1.0000000000000000e+00 1.6605289466676208e+01 5.6029037732679781e+00 1.3286165615712461e+01 
119 1 2 7.2535516155268209e-01 -2.6930021450229435e+02 1.0000000000000000e+00 1.6605289466676208e+01 5.6029037732679825e+00 1.3286165615712461e+01 
150 1 2 1.0280000000000007e+00 -4.0316554908886798e+02 1.0000000000000000e+00 1.6253882577987991e+01 3.7860112407466855e+00 1.9269287326331398e+01 
145 1 2 1.0280000000000376e+00 -3.9848474478877813e+02 1.0000000000000000e+00 1.6253897114534563e+01 3.7859970002349814e+00 1.9269312487468426e+01 
120 1 2 1.0279999999999965e+00 -3.8242999446936506e+02 1.0000000000000000e+00 1.6250929075035764e+01 3.7916418585327474e+00 1.9266441406068555e+01 
114 1 2 1.0280000000000402e+00 -3.7841411795117904e+02 1.0000000000000000e+00 1.6250984642597349e+01 3.7915062414154885e+00 1.9266471728804692e+01 
115 1 2 1.0280000000000118e+00 -3.0261251866071342e+02 1.0000000000000000e+00 1.6816071003149894e+01 4.6337214413642309e+00 1.9108187951803675e+01 
151 1 2 1.0279999999999743e+00 -3.1371487705990921e+02 1.0000000000000000e+00 1.7558929665282534e+01 4.0248282865316538e+00 1.8750076958414226e+01 
156 1 2 1.0279999999999374e+00 -2.9851450742983064e+02 1.0000000000000000e+00 1.7559084997179923e+01 4.0181846457636583e+00 1.8749950283568356e+01 
162 1 2 1.0279999999999345e+00 -2.9627992100926616e+02 1.0000000000000000e+00 1.7559085474828994e+01 4.0181874105858020e+00 1.8749951621716455e+01 
157 1 2 1.0279999999999685e+00 -2.4734124172146593e+02 1.0000000000000000e+00 1.7559093092303488e+01 4.0182330969662017e+00 1.8749973066663991e+01 
169 1 2 2.9014206462107284e-01 -2.4561488407740177e+02 1.0000000000000000e+00 1.7682645294310429e+01 1.6146745785897743e+01 1.2582908395610815e+00 
175 1 2 2.9014206462107284e-01 -2.5163359413775618e+02 1.0000000000000000e+00 1.7682645294310433e+01 1.6146745785897757e+01 1.2582908395610806e+00 
134 1 2 8.7042619386321851e-01 -2.6466077263371892e+02 1.0000000000000000e+00 1.6147046146586867e+01 1.5811441674095963e+01 5.2446427962639737e+00 
140 1 2 8.7042619386321851e-01 -3.7151779633159731e+02 1.0000000000000000e+00 1.6147046146586586e+01 1.5811441674096040e+01 5.2446427962639763e+00 
170 1 2 8.7042619386321851e-01 -3.3412427420760247e+02 1.0000000000000000e+00 1.6147046146586696e+01 1.5811441674096123e+01 5.2446427962639524e+00 
176 1 2 8.7042619386321851e-01 -4.2120527733109321e+02 1.0000000000000000e+00 1.6147046146586618e+01 1.5811441674096047e+01 5.2446427962639746e+00 
141 1 2 8.7042619386321851e-01 -3.7075357625695085e+02 1.0000000000000000e+00 1.6147046146586781e+01 1.5811441674096042e+01 5.2446427962639763e+00 
177 1 2 8.7042619386321851e-01 -3.4152362813882888e+02 1.0000000000000000e+00 1.6147046146586749e+01 1.5811441674096056e+01 5.2446427962639461e+00 
172 1 2 2.9014206462107284e-01 -1.7082586511422627e+02 1.0000000000000000e+00 1.7469532768559034e+01 1.3996787761963935e+01 8.8944699669771214e+00 
171 1 2 2.9014206462107284e-01 -1.4929405818049690e+02 1.0000000000000000e+00 1.7469532768559031e+01 1.3996787761963937e+01 8.8944699669771143e+00 
136 1 2 8.7042619386321851e-01 -2.4271347181627948e+02 1.0000000000000000e+00 1.6022543785496417e+01 1.5760188412383400e+01 1.2374934044897158e+01 
137 1 2 8.7042619386321851e-01 -2.7801327374771461e+02 1.0000000000000000e+00 1.6022543785496428e+01 1.5760188412383405e+01 1.2374934044897158e+01 
142 1 2 8.7042619386321851e-01 -3.7854468827009714e+02 1.0000000000000000e+00 1.6022543785496339e+01 1.5760188412383403e+01 1.2374934044897142e+01 
143 1 2 8.7042619386321851e-01 -3.8733256734740746e+02 1.0000000000000000e+00 1.6022543785496321e+01 1.5760188412383400e+01 1.2374934044897065e+01 
178 1 2 8.7042619386321851e-01 -3.9213453461119576e+02 1.0000000000000000e+00 1.6022543785496332e+01 1.5760188412383410e+01 1.2374934044897214e+01 
179 1 2 8.7042619386321851e-01 -3.6452130971682391e+02 1.0000000000000000e+00 1.6022543785496360e+01 1.5760188412383403e+01 1.2374934044897081e+01 
131 1 2 1.0279999999999989e+00 -3.6662553709688666e+02 1.0000000000000000e+00 1.5074910262608075e+01 1.2101856058426197e+01 1.6095690033474916e+01 
167 1 2 1.0280000000000080e+00 -4.1709619068578394e+02 1.0000000000000000e+00 1.6050998118054785e+01 1.2139039075652850e+01 1.6306675941469361e+01 
173 1 2 1.0280000000000546e+00 -3.9669164731263896e+02 1.0000000000000000e+00 1.6055961082583984e+01 1.2130505776949503e+01 1.6255904184090710e+01 
132 1 2 1.0280000000000074e+00 -3.8639218633877567e+02 1.0000000000000000e+00 1.5059477188790002e+01 1.2159327862476589e+01 1.6163750233219410e+01 
138 1 2 1.0280000000000244e+00 -3.8424821137153469e+02 1.0000000000000000e+00 1.5059642378696424e+01 1.2151098715900567e+01 1.6160624532253674e+01 
102 1 2 1.0279999999999820e+00 -3.1399456378654736e+02 1.0000000000000000e+00 1.5059733497091708e+01 1.2146990162375991e+01 1.6159477872875019e+01 
174 1 2 1.0280000000000140e+00 -3.1040508609707842e+02 1.0000000000000000e+00 1.6044111162096076e+01 1.2155936742493584e+01 1.6340645568694494e+01 
168 1 2 1.0279999999999525e+00 -3.2073675772095510e+02 1.0000000000000000e+00 1.6044028434230263e+01 1.2155518272540535e+01 1.6341044711392414e+01 
144 1 2 2.9014206462107284e-01 -1.9927934249494479e+02 1.0000000000000000e+00 1.6468298084340610e+01 1.6645440752262253e+01 1.6531337536614551e+01 
180 1 2 2.9014206462107284e-01 -2.2054368389148007e+02 1.0000000000000000e+00 1.6468298084340606e+01 1.6645440752262250e+01 1.6531337536614565e+01 

Velocities

7 2.0560419758678703e-13 1.0764031406760324e-12 -6.4117601383018945e-13
50 9.3817999300966577e-14 1.2248576448796387e-12 -8.9399330496590519e-13
8 1.9291647484499101e-13 1.6122903613539358e-12 -1.1155555934403130e-12
43 -5.7506406354835267e-14 -1.8279291809779783e-12 1.0259604753602780e-12
13 -1.2162286538486880e-13 -3.1320848444021395e-13 2.8158315481763686e-13
19 -1.7020282888932396e-13 -6.3224430042546820e-13 4.4722617453167054e-13
55 -1.6277447075312787e-13 1.9261237192906083e-13 -2.1751437164753217e-14
49 -6.6175059154356289e-14 -6.9484822123043829e-13 3.8741046488746310e-13
2 2.6661472581581800e-13 1.6663420363488625e-14 2.6661472581581800e-13
3 -2.6661472581581800e-13 -1.6663420363488625e-14 -2.6661472581581800e-13
9 -3.2246270348664248e-13 4.0146604829776388e-13 1.6078923858909836e-12
10 -1.8817123807556630e-13 -1.4083479354473233e-15 -8.0935399150827901e-13
16 4.8328608897978049e-13 -4.0428274416865819e-13 -8.0935399150827911e-13
52 1.7670120595401291e-13 -1.2439813183162404e-12 -4.0981212752882751e-12
14 2.6136083955722396e-12 6.0207608696023327e-12 3.1436312221621020e-12
20 -1.5130410434510960e-12 7.5150907500285911e-12 -4.1555955014584669e-12
15 -1.8463915552385436e-12 4.1356062512183311e-12 2.4194559724170433e-12
21 -1.9843296980470126e-12 -5.1522286978925128e-12 -8.2209038358449423e-13
22 8.3190738429476059e-13 -5.8649091024037349e-12 3.8448167814391309e-12
51 2.2227836576145562e-12 -3.4280019127853048e-12 3.2739413982032356e-13
17 -6.0052742003325186e-13 -1.2010548400665037e-12 5.3380215114064414e-13
18 -6.0052742003325186e-13 -1.2010548400665037e-12 -5.3380215114064414e-13
54 6.0052742003325186e-13 1.2010548400665037e-12 -5.3380215114064414e-13
53 6.0052742003325186e-13 1.2010548400665037e-12 5.3380215114064414e-13
25 1.2592070164683560e-13 2.2491180569116701e-12 -1.3887327415217472e-13
26 1.2592070164683568e-13 -3.2648457041273725e-12 1.1176144225868659e-13
31 -2.5003137296946287e-13 2.4997527733225037e-12 2.3707880046411421e-13
61 1.2592070164683568e-13 -2.7635762713056152e-12 -1.3887327415217477e-13
32 -1.2471401476403032e-13 2.4997527733225037e-12 -7.6214595049459292e-14
28 -1.6745697481335799e-12 -2.1534096617802135e-12 4.0047203423473288e-13
34 1.1278915453549100e-12 -5.3562225686243659e-12 -4.0023119247627215e-13
35 -2.0661383249674991e-13 3.4515129251968082e-12 1.2011752609457343e-12
64 -3.4006437028192114e-13 3.4515129251968082e-12 -1.2009344191872735e-12
36 0.0000000000000000e+00 0.0000000000000000e+00 0.0000000000000000e+00
37 -8.9488806184704827e-13 -1.9555423765854391e-13 -4.3717374196644515e-14
38 4.4802659226368944e-13 7.3028693163596519e-14 -1.1086310690218254e-13
74 4.4802659226368944e-13 1.4017442586913156e-13 1.5771982391996446e-13
44 -2.4800630394460967e-12 9.3519319944771228e-14 1.0482105891150546e-12
39 4.0056756988814449e-12 7.1347964052020131e-13 -1.8131447366176931e-12
46 5.7224888943211890e-12 4.2734410794692535e-13 -2.4807943126219942e-12
80 -2.4800630394460967e-12 -1.9261621262850948e-13 3.2419163388435121e-12
45 -2.4800630394460967e-12 -8.6026578863283134e-13 1.6204816542616322e-12