LAMMPS data file via write_data, version 30 Jul 2016, timestep = 50000000

180 atoms
2 atom types

0.0000000000000000e+00 2.0000000000000000e+01 xlo xhi
0.0000000000000000e+00 2.0000000000000000e+01 ylo yhi
0.0000000000000000e+00 2.0000000000000000e+01 zlo zhi

Masses

1 3.896
2 10

Atoms # meso-molecular

126 1 2 1.0280000001226874e+00 -1.0522537054726949e+02 1.0000000000000000e+00 1.4334182299466539e-01 8.1057365413222815e+00 3.2679421187094442e+00 
132 1 2 1.0280000001226874e+00 -1.2583486250132466e+02 1.0000000000000000e+00 1.4334182398484277e-01 8.1057365417355651e+00 3.2679421207790251e+00 
30 1 2 1.0279999999436433e+00 -1.9156717095204789e+02 1.0000000000000000e+00 4.6344331342895989e-01 4.8487566498098404e+00 5.4561919335115698e+00 
36 1 2 1.0279999999436431e+00 -1.8794175349449313e+02 1.0000000000000000e+00 4.6344358118084633e-01 4.8487574534896920e+00 5.4561912514706483e+00 
93 1 2 1.0279999999765457e+00 -1.2680206199445138e+02 1.0000000000000000e+00 3.8382120376323354e+00 1.1544739047437866e+00 9.6959274186078428e+00 
92 1 2 1.0279999999765499e+00 -9.6126213359377815e+01 1.0000000000000000e+00 3.8382072676359940e+00 1.1544879042281868e+00 9.6958731871993997e+00 
66 1 2 1.0280000000866161e+00 -1.4672201699630091e+02 1.0000000000000000e+00 1.2916833015635960e+00 2.1084043089791549e+00 1.5319600874016119e+01 
144 1 2 1.0280000000968192e+00 -1.1633633353062035e+02 1.0000000000000000e+00 1.2821270079798246e+00 1.7852369383380036e+00 1.5351333048091952e+01 
137 1 2 1.0279999995599953e+00 -4.9079215849389342e+01 1.0000000000000000e+00 9.1315432156204759e-02 5.2934161736211671e-01 1.5554677830860880e+01 
63 1 2 1.0279999999665697e+00 -1.7102689670974752e+02 1.0000000000000000e+00 1.9985627784871046e-01 3.6959743018310389e+00 1.6327938921025769e+01 
99 1 2 1.0279999999665697e+00 -1.7176708722406721e+02 1.0000000000000000e+00 1.9985629071838126e-01 3.6959742897844152e+00 1.6327938916823260e+01 
52 1 2 1.0280000000540470e+00 -6.2781414236003911e+01 1.0000000000000000e+00 2.0327067851635774e+00 3.8244660974828881e-01 1.7599287866630391e+01 
53 1 2 1.0280000000536214e+00 -1.2253132663035842e+02 1.0000000000000000e+00 1.6595279009603428e+00 4.2762300455155133e-01 1.7980085991923630e+01 
59 1 2 1.0280000000536200e+00 -1.1488203445049263e+02 1.0000000000000000e+00 1.6595262777713056e+00 4.2762166895184017e-01 1.7980085843474704e+01 
158 1 2 1.0280000000659144e+00 -5.9817616840485556e+01 1.0000000000000000e+00 1.7205659100656814e-01 1.5985860555853128e+01 2.5313321477181230e+00 
122 1 2 1.0280000000659149e+00 -8.4365686088808133e+01 1.0000000000000000e+00 1.7205659106393587e-01 1.5985860555117290e+01 2.5313321476512525e+00 
133 1 2 1.0280000000053473e+00 -6.5057919767962801e+01 1.0000000000000000e+00 6.8398736055648202e-01 1.4826429967420118e+01 5.9936856508140934e+00 
29 1 2 1.0280000000025078e+00 -1.2074718964037493e+02 1.0000000000000000e+00 6.7476702568948699e-01 1.4780478591567405e+01 6.0110923417175934e+00 
141 1 2 1.0279999999793585e+00 -8.5299637081523372e+01 1.0000000000000000e+00 3.2558498956886289e-01 1.7266102464625654e+01 5.4765989778594308e+00 
97 1 2 1.0279999998108174e+00 -1.4184030054115306e+02 1.0000000000000000e+00 6.8318132325310965e-01 1.8069353402825442e+01 6.3102181692015424e+00 
148 1 2 1.0279999999247404e+00 -2.2135725505436341e+02 1.0000000000000000e+00 3.1731937500387968e+00 1.7711540600170942e+01 9.1727440443959125e+00 
157 1 2 1.0280000000258658e+00 -1.4872382439516235e+02 1.0000000000000000e+00 2.6960460801819353e+00 1.9229534276666193e+01 8.3950437531518851e+00 
84 1 2 1.0279999999886624e+00 -8.1773678108171850e+01 1.0000000000000000e+00 8.6373285258427790e-01 1.8583762140507471e+01 7.3239501272074925e+00 
16 1 2 1.0280000000258662e+00 -1.1384259365529819e+02 1.0000000000000000e+00 2.6960459685289453e+00 1.9229535016155104e+01 8.3950440703292184e+00 
48 1 2 1.0280000000264278e+00 -7.6018577438280516e+01 1.0000000000000000e+00 5.1401909565425123e+00 1.9938411478903920e+01 9.6091828684439857e+00 
67 1 2 1.0280000000264276e+00 -1.6338448068151416e+02 1.0000000000000000e+00 5.1401909518190152e+00 1.9938411345137123e+01 9.6091820813045015e+00 
69 1 2 1.0280000000027421e+00 -7.3635021515546811e+01 1.0000000000000000e+00 2.1465855999692707e+00 1.6547407033557565e+01 1.0952358574016904e+01 
33 1 2 1.0280000000027432e+00 -7.3127705456887867e+01 1.0000000000000000e+00 2.1465842386698286e+00 1.6547404443622963e+01 1.0952337867327019e+01 
64 1 2 1.0280000001331655e+00 -1.5397673037554233e+02 1.0000000000000000e+00 1.1920381992107340e-01 1.7850780052187623e+01 1.1647104946524497e+01 
41 1 2 1.0280000001329177e+00 -1.7034381036036677e+02 1.0000000000000000e+00 1.1880641582987769e-01 1.7849095258111081e+01 1.1645500329188899e+01 
4 1 2 1.0280000000929235e+00 -1.3414258220043106e+02 1.0000000000000000e+00 3.9622318605668427e+00 1.7459615810341905e+01 1.0866210573268582e+01 
11 1 2 1.0280000000823020e+00 -1.5101803426801737e+02 1.0000000000000000e+00 4.0256922763906422e+00 1.7350306324801906e+01 1.0758125105638388e+01 
173 1 2 1.0280000000001055e+00 -1.0859557924928905e+02 1.0000000000000000e+00 3.7375406278275680e-01 1.1184383701673625e+01 1.6429290282918490e+01 
174 1 2 1.0280000000000915e+00 -1.2101260523325161e+02 1.0000000000000000e+00 3.7375396716415044e-01 1.1184383646154902e+01 1.6429290250906419e+01 
17 1 2 1.0280000004043204e+00 -1.3248558872868711e+02 1.0000000000000000e+00 1.2207003009582657e+01 7.1699696848902827e-01 9.5814119076412112e+00 
37 1 2 1.0279999993459612e+00 -1.6231286942988430e+02 1.0000000000000000e+00 1.1703632004242234e+01 2.3934678857706801e+00 1.1837519570520410e+01 
80 1 2 1.0280000000750413e+00 -1.4402623430036192e+02 1.0000000000000000e+00 1.1738871613657372e+01 6.2966615613199006e-01 1.0487873874539790e+01 
44 1 2 1.0280000000750416e+00 -1.3498330520330370e+02 1.0000000000000000e+00 1.1738871613653314e+01 6.2966615613410237e-01 1.0487873874535634e+01 
177 1 2 1.0280000004752301e+00 -1.1573766134643230e+02 1.0000000000000000e+00 1.2074360053135200e+01 3.0579088436241659e+00 1.2559509252105766e+01 
56 1 2 1.0280000004752301e+00 -1.1805015767666416e+02 1.0000000000000000e+00 1.2074360053133161e+01 3.0579088436305040e+00 1.2559509252107045e+01 
31 1 2 1.0279999995469495e+00 -2.6639790668676021e+01 1.0000000000000000e+00 1.1179930785047043e+01 5.0848457829780696e+00 1.3252487609134022e+01 
2 1 2 1.0279999998570133e+00 -2.6162339591025312e+02 1.0000000000000000e+00 1.1439973493476716e+01 6.3333436218889778e+00 1.2986879520513698e+01 
8 1 2 1.0279999998571061e+00 -2.4017418629857860e+02 1.0000000000000000e+00 1.1440553524100773e+01 6.3346552902459123e+00 1.2987355270500865e+01 
3 1 2 1.0279999999702618e+00 -1.6085825134023321e+02 1.0000000000000000e+00 1.0191691062800846e+01 8.5423229249292660e+00 1.1203188608287475e+01 
100 1 2 1.0279999999702638e+00 -1.1613720445290869e+02 1.0000000000000000e+00 1.0191691200277917e+01 8.5423256082180732e+00 1.1203185956101786e+01 
156 1 2 1.0280000002427481e+00 -1.0957477581059166e+02 1.0000000000000000e+00 1.1668552263112556e+01 5.4705844398044912e+00 1.5385658037029586e+01 
162 1 2 1.0280000001449270e+00 -1.2044732518061082e+02 1.0000000000000000e+00 1.2042507666260018e+01 5.9393962565344189e+00 1.5715115315435998e+01 
152 1 2 1.0280000000621219e+00 -1.5258964145457634e+02 1.0000000000000000e+00 1.0699153193624676e+01 6.5647802833514586e+00 1.5652732877313435e+01 
165 1 2 1.0280000000470308e+00 -1.7806663388980391e+02 1.0000000000000000e+00 1.1739235005168753e+01 9.2341817968979800e+00 1.3418995913185453e+01 
163 1 2 1.0280000000477056e+00 -1.7569766676011267e+02 1.0000000000000000e+00 1.1739144519088818e+01 9.2344526841656407e+00 1.3418792034594865e+01 
143 1 2 1.0279999998282070e+00 -6.6611706498962036e+01 1.0000000000000000e+00 1.1531382706005083e+01 8.2042633310364206e+00 1.5931867618821782e+01 
6 1 2 1.0279999998523863e+00 -1.3319314675003966e+02 1.0000000000000000e+00 1.1605744932164740e+01 8.1787628929032792e+00 1.5986748283797080e+01 
128 1 2 1.0280000002028045e+00 -7.8558575257384817e+01 1.0000000000000000e+00 1.3031669103488866e+01 9.7996711089421780e+00 1.4811492775729690e+01 
1 1 2 1.0279999999794629e+00 -1.5734326611478835e+02 1.0000000000000000e+00 1.3095724891202915e+01 1.4569944215419024e+01 4.0631709328386938e+00 
161 1 2 1.0279999999794887e+00 -2.0267218597683208e+02 1.0000000000000000e+00 1.3104513389271050e+01 1.4562812125673039e+01 4.0776532884311854e+00 
136 1 2 1.0280000000419014e+00 -7.5906428697388691e+01 1.0000000000000000e+00 9.6369941761542712e+00 1.0049465725326231e+01 1.1868201925815804e+01 
55 1 2 1.0280000000404330e+00 -1.5335273690162484e+02 1.0000000000000000e+00 9.6458176338996573e+00 1.0056778140518556e+01 1.1867308487092087e+01 
142 1 2 1.0279999997608902e+00 -1.5934664491136419e+02 1.0000000000000000e+00 1.1561813190438627e+01 1.2094453668259520e+01 1.3604388096141900e+01 
164 1 2 1.0279999999185649e+00 -1.4798420451380861e+02 1.0000000000000000e+00 1.1227855602598028e+01 1.2173817135710424e+01 1.3813619879495826e+01 
114 1 2 1.0279999999948315e+00 -1.7207742266448122e+02 1.0000000000000000e+00 1.1248185917343275e+01 1.2039178400306827e+01 1.4067327304611423e+01 
87 1 2 1.0279999999796841e+00 -1.2149215716200568e+02 1.0000000000000000e+00 1.7994616445906189e+01 4.8112066363563173e+00 1.6466601707428932e+00 
20 1 2 1.0279999999810525e+00 -1.6667441484898160e+02 1.0000000000000000e+00 1.7987604047687267e+01 4.8246022795166610e+00 1.6443577584329403e+00 
121 1 2 1.0279999999266054e+00 -6.5293772070746257e+01 1.0000000000000000e+00 1.9038285080260820e+01 5.1881426557857635e+00 4.4987148702094043e-01 
45 1 2 1.0279999999761733e+00 -1.5050242066540719e+02 1.0000000000000000e+00 1.8973014792729582e+01 5.1014641822148441e+00 2.9397614026120666e-01 
77 1 2 1.0279999998401181e+00 -1.4174007964922311e+02 1.0000000000000000e+00 1.6558877404670731e+01 1.9169454098670955e+00 4.9143333798039848e+00 
73 1 2 1.0279999999549341e+00 -1.4215466942845694e+02 1.0000000000000000e+00 1.9248886171743827e+01 1.8268633152569431e+00 4.0738752975278532e+00 
79 1 2 1.0279999999549345e+00 -1.6908577119987817e+02 1.0000000000000000e+00 1.9248886170549795e+01 1.8268633136090602e+00 4.0738752983535056e+00 
112 1 2 1.0279999999446718e+00 -1.7851039649259224e+02 1.0000000000000000e+00 1.6739979301990957e+01 2.1950943208492792e+00 4.7220922160530376e+00 
91 1 2 1.0280000000407001e+00 -1.0119484469379978e+02 1.0000000000000000e+00 1.9862563901395696e+01 1.4426013624133647e+00 6.2897461683043367e+00 
85 1 2 1.0280000000406881e+00 -1.2427193745876370e+02 1.0000000000000000e+00 1.9862754800971896e+01 1.4426615750684035e+00 6.2892425799472340e+00 
116 1 2 1.0280000000705733e+00 -9.2077384455766520e+01 1.0000000000000000e+00 1.5814830401205720e+01 3.8247460310809220e+00 5.3086138753047720e+00 
71 1 2 1.0280000000705736e+00 -1.3521406775853600e+02 1.0000000000000000e+00 1.5814830401185798e+01 3.8247460311067272e+00 5.3086138753302938e+00 
9 1 2 1.0280000004149543e+00 -1.1367765158539916e+02 1.0000000000000000e+00 1.8943863183927977e+01 5.9334497045718262e+00 3.8905033695286728e+00 
125 1 2 1.0279999996016558e+00 -2.0866299281665141e+02 1.0000000000000000e+00 1.8711762467678390e+01 5.9481397055658203e+00 4.5190896516634833e+00 
47 1 2 1.0280000002849441e+00 -1.6635166536251450e+02 1.0000000000000000e+00 1.8700144522484905e+01 4.3630755418599261e+00 5.5341252748818155e+00 
150 1 2 1.0279999998870855e+00 -1.6991721734177406e+02 1.0000000000000000e+00 1.9818578452308063e+01 3.4212393376532027e+00 4.1041210631378897e+00 
39 1 2 1.0280000001239911e+00 -2.6718767651037973e+02 1.0000000000000000e+00 1.5532368753335788e+01 6.9069626648270095e+00 5.9938130112833434e+00 
102 1 2 1.0280000001239915e+00 -1.8875101146201354e+02 1.0000000000000000e+00 1.5532368708514907e+01 6.9069626781368294e+00 5.9938127903619707e+00 
105 1 2 1.0279999998019540e+00 -1.0335481743409389e+02 1.0000000000000000e+00 1.9518223556736785e+01 8.6417853728588216e+00 3.3474143636738676e+00 
49 1 2 1.0280000000459113e+00 -1.4993954179424748e+02 1.0000000000000000e+00 1.6791965586005961e+01 8.0417064551904947e+00 4.5480662716868423e+00 
18 1 2 1.0280000000459106e+00 -6.1968751466438064e+01 1.0000000000000000e+00 1.6791964061519451e+01 8.0417038652586115e+00 4.5480675210856649e+00 
151 1 2 1.0280000000104392e+00 -1.5243774952709677e+02 1.0000000000000000e+00 1.8412659117419974e+01 9.5067106209572749e+00 5.5509376952560894e+00 
5 1 2 1.0280000000104361e+00 -2.1048769106338375e+02 1.0000000000000000e+00 1.8412659116934499e+01 9.5067106214834745e+00 5.5509376959225438e+00 
81 1 2 1.0279999998851077e+00 -2.4925271889333160e+02 1.0000000000000000e+00 1.3787532459547476e+01 1.1810037386114975e+00 7.6698579434704595e+00 
46 1 2 1.0279999998851097e+00 -1.4192692592586437e+02 1.0000000000000000e+00 1.3787530166148002e+01 1.1810043498918670e+00 7.6698585991185553e+00 
159 1 2 1.0280000000166210e+00 -1.3150247294355674e+02 1.0000000000000000e+00 1.4236540598908180e+01 2.3124423449337210e+00 9.0256981002558536e+00 
153 1 2 1.0280000000166218e+00 -1.2834035110789591e+02 1.0000000000000000e+00 1.4236540598908222e+01 2.3124423449336908e+00 9.0256981002559069e+00 
42 1 2 1.0280000003175629e+00 -1.3500325793505263e+02 1.0000000000000000e+00 1.6474715390610605e+01 1.4985652031296698e-01 9.3628619538729456e+00 
160 1 2 1.0280000003167997e+00 -1.6107990859005184e+02 1.0000000000000000e+00 1.6476144284955446e+01 1.5054289218820760e-01 9.3590358763145343e+00 
76 1 2 1.0279999999970244e+00 -1.5502387203356960e+02 1.0000000000000000e+00 1.8127548284040255e+01 1.2868351665551807e+00 7.3759239190473354e+00 
40 1 2 1.0279999999970242e+00 -1.3869718604919285e+02 1.0000000000000000e+00 1.8127548284040223e+01 1.2868351665551523e+00 7.3759239190474135e+00 
147 1 2 1.0279999998416289e+00 -1.6371439560186104e+01 1.0000000000000000e+00 1.8555495138477397e+01 4.6901058818142094e-01 9.8499202664847409e+00 
108 1 2 1.0279999998416287e+00 -1.5271819778394763e+02 1.0000000000000000e+00 1.8555495138477404e+01 4.6901058818111357e-01 9.8499202664850447e+00 
168 1 2 1.0279999999034113e+00 -1.4875592054692896e+02 1.0000000000000000e+00 1.5015434217024541e+01 5.2252992748429712e+00 7.1154491677680376e+00 
83 1 2 1.0279999999033671e+00 -1.4149552604043211e+02 1.0000000000000000e+00 1.5015507718927953e+01 5.2256009961631209e+00 7.1155838055625784e+00 
22 1 2 1.0280000001065741e+00 -1.3420012698438666e+02 1.0000000000000000e+00 1.7526899641036472e+01 4.5318006042055519e+00 7.9868848411490916e+00 
61 1 2 1.0279999998808673e+00 -1.2839397065844889e+02 1.0000000000000000e+00 1.8100863753350104e+01 4.5731223946715165e+00 9.3112710795242997e+00 
166 1 2 1.0279999998986480e+00 -1.9655632135018462e+02 1.0000000000000000e+00 1.7406862705971943e+01 4.3108673209609538e+00 7.9510280897089958e+00 
145 1 2 1.0280000004851768e+00 -1.3369178923318640e+02 1.0000000000000000e+00 1.5011874722146660e+01 1.6263632925133444e+00 1.1943157915632650e+01 
86 1 2 1.0279999989300472e+00 -9.5662926028313052e+01 1.0000000000000000e+00 1.5396601664046349e+01 2.0678331084454000e+00 1.1540765467661396e+01 
140 1 2 1.0280000003179992e+00 -6.9630682766841090e+01 1.0000000000000000e+00 1.4983004644683515e+01 4.0419911009380112e+00 1.2143838490231360e+01 
176 1 2 1.0280000003180556e+00 -9.5960191376997358e+01 1.0000000000000000e+00 1.4982988830275382e+01 4.0419752269494209e+00 1.2143808587191083e+01 
109 1 2 1.0279999997810911e+00 -1.4847639825896889e+02 1.0000000000000000e+00 1.7031353799363512e+01 4.0760258525710906e+00 1.3291072349856421e+01 
135 1 2 1.0279999997461997e+00 -1.5548782556812236e+02 1.0000000000000000e+00 1.7043736194650190e+01 4.0741170623250635e+00 1.3279820627856330e+01 
167 1 2 1.0280000003167697e+00 -2.0281864066441395e+02 1.0000000000000000e+00 1.7027663226190736e+01 4.5692972368503071e+00 1.0548491489822219e+01 
57 1 2 1.0280000003167697e+00 -1.3072504044628630e+02 1.0000000000000000e+00 1.7027663226190061e+01 4.5692972368500842e+00 1.0548491489822696e+01 
75 1 2 1.0280000000431213e+00 -2.5279320515985461e+02 1.0000000000000000e+00 1.4814122878937962e+01 2.7652149408453028e+00 1.5941972250842673e+01 
90 1 2 1.0280000000259528e+00 -1.7927206095836172e+02 1.0000000000000000e+00 1.4766401700424773e+01 2.7950006529823903e+00 1.5826499944389660e+01 
54 1 2 1.0280000000259524e+00 -1.5013822871372042e+02 1.0000000000000000e+00 1.4766401700178911e+01 2.7950006536476155e+00 1.5826499943531079e+01 
58 1 2 1.0280000000499723e+00 -1.5082012136172582e+02 1.0000000000000000e+00 1.8873403693467683e+01 2.5380530122159635e+00 1.3917061977388260e+01 
82 1 2 1.0280000000499736e+00 -1.1448030195092157e+02 1.0000000000000000e+00 1.8873402819455098e+01 2.5380519033937321e+00 1.3917062223638061e+01 
38 1 2 1.0280000000507088e+00 -1.2873639770631223e+02 1.0000000000000000e+00 1.8487571064454187e+01 2.4011621945142454e+00 1.5448482763854834e+01 
51 1 2 1.0279999999010385e+00 -1.2805136487627243e+02 1.0000000000000000e+00 1.5784302685088443e+01 6.0475935936254057e+00 1.5906491863195246e+01 
155 1 2 1.0279999999010321e+00 -1.5790219869228946e+02 1.0000000000000000e+00 1.5784302855535801e+01 6.0475931496737756e+00 1.5906492202768804e+01 
89 1 2 1.0280000002905971e+00 -1.6235330443134825e+02 1.0000000000000000e+00 1.7028617582361093e+01 4.8747822474506517e+00 1.5467767960761494e+01 
106 1 2 1.0279999998127440e+00 -9.5576803011138196e+01 1.0000000000000000e+00 1.4720014018710353e+01 8.8794379851740715e+00 1.4285163027814546e+01 
107 1 2 1.0279999998127440e+00 -9.0887834265551533e+01 1.0000000000000000e+00 1.4720014018710678e+01 8.8794379851754801e+00 1.4285163027815051e+01 
13 1 2 1.0280000002241769e+00 -1.3261864569738691e+02 1.0000000000000000e+00 1.4156761282722082e+01 8.6795591207745844e+00 1.5871056917018679e+01 
111 1 2 1.0279999999625506e+00 -1.4371982010047722e+02 1.0000000000000000e+00 1.4989060451194943e+01 7.3791559866472953e+00 1.5918722070902440e+01 
23 1 2 1.0279999999692389e+00 -1.1261461968174824e+02 1.0000000000000000e+00 1.7603293213823790e+01 3.8211016013187424e+00 1.6803272048645500e+01 
35 1 2 1.0280000000930172e+00 -1.7857887677666747e+02 1.0000000000000000e+00 1.8420667798319702e+01 4.9048904234408424e+00 1.7608061575013195e+01 
94 1 2 1.0280000001154947e+00 -9.5814163505482540e+01 1.0000000000000000e+00 1.8317536479899751e+01 4.8751063764180529e+00 1.7638717881249988e+01 
68 1 2 1.0280000000065743e+00 -1.7087594000011973e+02 1.0000000000000000e+00 1.3452660783861493e+01 1.5573062787861806e+01 3.0762584963231761e+00 
60 1 2 1.0279999999391622e+00 -1.1481551607879061e+02 1.0000000000000000e+00 1.9697271165298037e+01 1.5566730449008032e+01 2.9816087775201265e+00 
129 1 2 1.0279999999187310e+00 -1.3902795911037845e+02 1.0000000000000000e+00 1.4504207024832223e+01 1.6921650238771800e+01 3.1252916520136940e+00 
134 1 2 1.0280000000341827e+00 -1.2221825603001980e+02 1.0000000000000000e+00 1.5430567833898499e+01 1.8639472661834059e+01 2.5728417184287133e+00 
98 1 2 1.0280000000341820e+00 -1.5176683989722022e+02 1.0000000000000000e+00 1.5430567833945558e+01 1.8639472661876518e+01 2.5728417184737924e+00 
26 1 2 1.0280000000094871e+00 -1.1602107526329817e+02 1.0000000000000000e+00 1.5910692637548600e+01 1.7321596599431956e+01 2.7932247871271154e+00 
72 1 2 1.0280000000641305e+00 -2.0510453983708817e+02 1.0000000000000000e+00 1.6202062727534624e+01 1.2997127122134341e+01 6.3278219272042326e+00 
74 1 2 1.0280000000540659e+00 -1.7807863664540440e+02 1.0000000000000000e+00 1.6194082388748278e+01 1.3000661629777314e+01 6.3425715545135990e+00 
130 1 2 1.0279999999285554e+00 -1.4613434692353644e+02 1.0000000000000000e+00 1.6682865357291856e+01 1.0637432414217447e+01 5.5138065504745617e+00 
88 1 2 1.0279999999285554e+00 -1.1008241029570779e+02 1.0000000000000000e+00 1.6682865357291931e+01 1.0637432414217448e+01 5.5138065504744356e+00 
32 1 2 1.0280000000386258e+00 -6.9841927506902863e+01 1.0000000000000000e+00 1.5458951862876757e+01 1.4380719712617424e+01 3.3383016180240066e+00 
101 1 2 1.0280000000353526e+00 -1.4856940725156892e+02 1.0000000000000000e+00 1.5430647763704796e+01 1.4329012018623819e+01 3.3685734155616411e+00 
25 1 2 1.0279999999709428e+00 -2.2664293335614627e+02 1.0000000000000000e+00 1.5145884193952774e+01 1.5604399088819008e+01 5.6042781659380285e+00 
120 1 2 1.0279999999513787e+00 -1.5782438172070914e+02 1.0000000000000000e+00 1.5170158809971319e+01 1.5906665653582667e+01 5.4319419695398752e+00 
170 1 2 1.0279999999844445e+00 -1.2498777831411584e+02 1.0000000000000000e+00 1.7209427259939631e+01 1.4953104952217354e+01 5.1529277066739549e+00 
171 1 2 1.0279999999844451e+00 -1.1720704189354807e+02 1.0000000000000000e+00 1.7209427259589400e+01 1.4953104958475613e+01 5.1529277122300376e+00 
127 1 2 1.0279999999835125e+00 -6.0847470848766349e+01 1.0000000000000000e+00 1.9908314324606433e+01 1.6632632244114191e+01 4.7868194449488088e+00 
113 1 2 1.0280000000619518e+00 -2.2077042678668050e+02 1.0000000000000000e+00 1.5490107997699768e+01 1.9879768465599309e+01 5.7663131883958680e+00 
15 1 2 1.0280000000619516e+00 -1.1549165967789889e+02 1.0000000000000000e+00 1.5490107997480832e+01 1.9879768464677202e+01 5.7663131883127106e+00 
146 1 2 1.0279999999135632e+00 -1.3309416614198665e+02 1.0000000000000000e+00 1.6555517586393677e+01 1.8447311871179984e+01 5.0726460858901659e+00 
65 1 2 1.0279999999136451e+00 -1.4339203325175043e+02 1.0000000000000000e+00 1.6555599163505846e+01 1.8447358793466716e+01 5.0724523743400640e+00 
117 1 2 1.0280000000573277e+00 -1.0025485605951064e+02 1.0000000000000000e+00 1.5605180400500405e+01 1.0173680136511910e+01 9.8825685276439241e+00 
115 1 2 1.0279999999726086e+00 -1.1508371112284100e+02 1.0000000000000000e+00 1.6005827453966962e+01 1.0859533513760391e+01 8.3985360708590076e+00 
12 1 2 1.0279999999727278e+00 -7.2529671083604129e+01 1.0000000000000000e+00 1.6007229174063596e+01 1.0860621624301439e+01 8.3984909963013692e+00 
172 1 2 1.0279999999784215e+00 -1.2780022128202964e+02 1.0000000000000000e+00 1.8994147893685263e+01 1.1569954951515303e+01 9.4460101642955436e+00 
21 1 2 1.0279999999784246e+00 -1.1136522502708790e+02 1.0000000000000000e+00 1.8994175989853709e+01 1.1569966552927182e+01 9.4460016211030418e+00 
169 1 2 1.0280000000336327e+00 -5.8698591054340753e+01 1.0000000000000000e+00 1.9426958732432205e+01 1.2377167795846006e+01 9.0000013862453692e+00 
28 1 2 1.0279999999864855e+00 -1.3646387552048782e+02 1.0000000000000000e+00 1.6793864532793823e+01 1.4318602692133327e+01 8.1931729164455902e+00 
62 1 2 1.0279999999864859e+00 -1.8651445410088263e+02 1.0000000000000000e+00 1.6793864516425071e+01 1.4318602619166535e+01 8.1931731422812710e+00 
103 1 2 1.0279999999763636e+00 -1.5615753483815243e+02 1.0000000000000000e+00 1.9477616325953189e+01 1.4056163631443733e+01 7.2875647885625767e+00 
139 1 2 1.0279999999763638e+00 -1.3711775101425519e+02 1.0000000000000000e+00 1.9477616326761812e+01 1.4056163633141807e+01 7.2875647895735760e+00 
179 1 2 1.0280000003933529e+00 -1.1361491429951172e+02 1.0000000000000000e+00 1.9624903881748697e+01 1.7803495650223823e+01 7.9248314818386216e+00 
104 1 2 1.0279999999297205e+00 -1.6337692059304396e+02 1.0000000000000000e+00 1.8305893088942312e+01 1.8278596585860779e+01 8.5753257004755650e+00 
149 1 2 1.0279999999401801e+00 -2.3059893196837407e+02 1.0000000000000000e+00 1.8334443783986107e+01 1.8275838368189007e+01 8.5144178880964976e+00 
95 1 2 1.0279999999385825e+00 -1.3274809222719313e+02 1.0000000000000000e+00 1.5203388135406334e+01 1.1444655964569192e+01 1.0468008282869359e+01 
96 1 2 1.0279999999386498e+00 -1.3909264773606415e+02 1.0000000000000000e+00 1.5203269027585575e+01 1.1444766007067665e+01 1.0467822788071048e+01 
50 1 2 1.0280000000403799e+00 -1.7574897910327053e+02 1.0000000000000000e+00 1.7759950938028876e+01 1.2279324955144554e+01 1.1789551317987222e+01 
14 1 2 1.0280000000403822e+00 -1.9103270836276602e+02 1.0000000000000000e+00 1.7759950923964922e+01 1.2279324945956974e+01 1.1789551318804312e+01 
131 1 2 1.0280000000146476e+00 -1.3289505550908274e+02 1.0000000000000000e+00 1.6483602202568669e+01 1.3411203774411151e+01 1.3010218839391419e+01 
119 1 2 1.0279999999330744e+00 -1.7172703285780716e+02 1.0000000000000000e+00 1.6512193640726270e+01 1.3588973023619996e+01 1.3263005074117924e+01 
7 1 2 1.0280000000258163e+00 -1.2293221123689980e+02 1.0000000000000000e+00 1.7570020495838513e+01 1.4049725612357131e+01 1.0190638689549550e+01 
43 1 2 1.0280000000258163e+00 -1.1928139016567172e+02 1.0000000000000000e+00 1.7570020495836207e+01 1.4049725612355665e+01 1.0190638689553191e+01 
123 1 2 1.0280000000304623e+00 -2.0368005084475806e+02 1.0000000000000000e+00 1.4825890164903612e+01 1.9709637225461925e+01 1.1692953170296116e+01 
24 1 2 1.0280000000303906e+00 -1.5123017818958641e+02 1.0000000000000000e+00 1.4825847447826174e+01 1.9709696163993176e+01 1.1692968458382044e+01 
78 1 2 1.0280000000000520e+00 -1.0616979336267681e+02 1.0000000000000000e+00 1.6513967462923407e+01 1.9276354779891580e+01 1.2243654116391124e+01 
110 1 2 1.0280000000473051e+00 -1.1757810288145382e+02 1.0000000000000000e+00 1.7685656431854490e+01 1.8452109979668425e+01 1.1800170790719136e+01 
19 1 2 1.0280000000450231e+00 -1.1132097817563655e+02 1.0000000000000000e+00 1.7683005558713180e+01 1.8452884720657060e+01 1.1798974654558883e+01 
180 1 2 1.0279999998654024e+00 -1.8254800814685342e+02 1.0000000000000000e+00 1.6548091161408877e+01 1.5245649515421572e+01 1.3416891514401954e+01 
175 1 2 1.0279999999044451e+00 -9.1031667167654575e+01 1.0000000000000000e+00 1.9736183877892241e+01 1.6416061811898928e+01 1.3370240302231908e+01 
10 1 2 1.0279999996531359e+00 -1.7018843012087058e+02 1.0000000000000000e+00 1.9011740242606759e+01 1.6030398511581147e+01 1.3504173817880730e+01 
34 1 2 1.0280000000242338e+00 -1.8106304329869670e+02 1.0000000000000000e+00 1.7305309304021652e+01 1.5698220305325895e+01 1.4628971288372625e+01 
70 1 2 1.0280000000242309e+00 -1.6252225425904226e+02 1.0000000000000000e+00 1.7305305523703485e+01 1.5698291647311232e+01 1.4628945795466132e+01 
178 1 2 1.0280000001749072e+00 -1.5883243400613253e+02 1.0000000000000000e+00 1.9649191368117787e+01 1.8376710232336627e+01 1.6199966632771638e+01 
138 1 2 1.0279999998195917e+00 -1.7760199946632230e+02 1.0000000000000000e+00 1.9147382618022707e+01 1.9089802194516761e+01 1.5365340213809070e+01 
118 1 2 1.0280000001749217e+00 -4.1169012127119558e+01 1.0000000000000000e+00 1.9649157527695461e+01 1.8376703319706760e+01 1.6199962132851393e+01 
124 1 2 1.0280000000297433e+00 -1.5326836214832417e+02 1.0000000000000000e+00 1.9870847820543773e+01 1.7673380408950681e+01 1.3830342327423011e+01 
27 1 2 1.0280000000001148e+00 -1.5941929482245860e+02 1.0000000000000000e+00 1.9957005300216263e+01 1.1051620047794508e+01 1.7904354627553275e+01 
154 1 2 1.0280000000000837e+00 -1.4223895027458786e+02 1.0000000000000000e+00 1.9957005300207118e+01 1.1051620047793900e+01 1.7904354627550738e+01 

Velocities

126 -1.4862180155559276e-01 -1.0355494011630297e-01 1.7024522924238572e-01
132 -1.4862180155559238e-01 -1.0355494011630295e-01 1.7024522924238447e-01
30 -1.4862177577595087e-01 -1.0355496452723453e-01 1.7024521651327340e-01
36 -1.4862177577595190e-01 -1.0355496452724272e-01 1.7024521651328503e-01
93 -1.4862185450765733e-01 -1.0355504737692464e-01 1.7024524985833986e-01
92 -1.4862185450768167e-01 -1.0355504737692484e-01 1.7024524985864475e-01
66 -1.4862153563573721e-01 -1.0355484565674780e-01 1.7024515781261731e-01
144 -1.4862154169115172e-01 -1.0355485176436563e-01 1.7024515800015189e-01
137 -1.4862157268154622e-01 -1.0355482390785155e-01 1.7024518388224855e-01
63 -1.4862149988933046e-01 -1.0355482074170874e-01 1.7024515632185988e-01
99 -1.4862149988933143e-01 -1.0355482074170859e-01 1.7024515632186035e-01
52 -1.4862156674427277e-01 -1.0355483455793008e-01 1.7024516264120476e-01
53 -1.4862157329428088e-01 -1.0355483247603579e-01 1.7024516823754285e-01
59 -1.4862157329431264e-01 -1.0355483247604581e-01 1.7024516823752892e-01
158 -1.4862195003757772e-01 -1.0355505132816777e-01 1.7024528012868506e-01
122 -1.4862195003757872e-01 -1.0355505132816763e-01 1.7024528012868501e-01
133 -1.4862195169451217e-01 -1.0355503942318350e-01 1.7024527422219368e-01
29 -1.4862195230224004e-01 -1.0355503948424161e-01 1.7024527433204506e-01
141 -1.4862190293265565e-01 -1.0355503318734424e-01 1.7024526520064232e-01
97 -1.4862187888862838e-01 -1.0355503378705873e-01 1.7024525420694592e-01
148 -1.4862184290527478e-01 -1.0355503455843143e-01 1.7024525123690348e-01
157 -1.4862185336132583e-01 -1.0355504186740816e-01 1.7024524631365692e-01
84 -1.4862185095989278e-01 -1.0355502144896356e-01 1.7024524150551532e-01
16 -1.4862185336133374e-01 -1.0355504186740298e-01 1.7024524631365209e-01
48 -1.4862184795533503e-01 -1.0355504307303991e-01 1.7024524984150100e-01
67 -1.4862184795533256e-01 -1.0355504307304228e-01 1.7024524984149614e-01
69 -1.4862182156096584e-01 -1.0355502600669494e-01 1.7024524904279564e-01
33 -1.4862182156103068e-01 -1.0355502600677161e-01 1.7024524904268049e-01
64 -1.4862179613109555e-01 -1.0355495123975693e-01 1.7024525344264718e-01
41 -1.4862179616498791e-01 -1.0355495131761608e-01 1.7024525341084010e-01
4 -1.4862182376579239e-01 -1.0355503649229290e-01 1.7024525804503962e-01
11 -1.4862182304509045e-01 -1.0355503893304939e-01 1.7024525502746582e-01
173 -1.4764303913212656e-01 -1.0242699709435224e-01 1.7028003358693966e-01
174 -1.4764303913185409e-01 -1.0242699709413060e-01 1.7028003358652996e-01
17 -1.4862171313991018e-01 -1.0355477161325832e-01 1.7024525528156140e-01
37 -1.4862156841373989e-01 -1.0355470457584243e-01 1.7024520866715642e-01
80 -1.4862170146353296e-01 -1.0355474124694583e-01 1.7024529730743981e-01
44 -1.4862170146353221e-01 -1.0355474124694374e-01 1.7024529730743915e-01
177 -1.4862154520627729e-01 -1.0355467392205304e-01 1.7024519884629927e-01
56 -1.4862154520627724e-01 -1.0355467392205314e-01 1.7024519884629974e-01
31 -1.4862119338060048e-01 -1.0355444611563541e-01 1.7024508855115625e-01
2 -1.4862113044548922e-01 -1.0355446656050822e-01 1.7024506531411773e-01