LAMMPS data file via write_data, version 30 Jul 2016, timestep = 50400000

180 atoms
2 atom types

0.0000000000000000e+00 2.0000000000000000e+01 xlo xhi
0.0000000000000000e+00 2.0000000000000000e+01 ylo yhi
0.0000000000000000e+00 2.0000000000000000e+01 zlo zhi

Masses

1 3.896
2 10

Atoms # meso-molecular

152 1 2 1.0280000000550320e+00 -1.5258964145457634e+02 1.0000000000000000e+00 4.7543083065734359e+00 2.4226023207565421e+00 2.4625341009830728e+00 
156 1 2 1.0280000002134611e+00 -1.0957477581059166e+02 1.0000000000000000e+00 5.7237072809855176e+00 1.3284047096715339e+00 2.1954593734898480e+00 
162 1 2 1.0280000001271601e+00 -1.2044732518061082e+02 1.0000000000000000e+00 6.0976634141470187e+00 1.7972174584348342e+00 2.5249168841192868e+00 
31 1 2 1.0279999996023623e+00 -2.6639790668676021e+01 1.0000000000000000e+00 5.2350818238359675e+00 9.4266687165990748e-01 6.2291429003979250e-02 
143 1 2 1.0279999998492482e+00 -6.6611706498962036e+01 1.0000000000000000e+00 5.5865393346705998e+00 4.0620847536193256e+00 2.7416686156734942e+00 
6 1 2 1.0279999998707638e+00 -1.3319314675003966e+02 1.0000000000000000e+00 5.6609014248299490e+00 4.0365843665549610e+00 2.7965492790081026e+00 
165 1 2 1.0280000000408234e+00 -1.7806663388980391e+02 1.0000000000000000e+00 5.7943934896612213e+00 5.0920039071086105e+00 2.2879718032967844e-01 
163 1 2 1.0280000000414105e+00 -1.7569766676011267e+02 1.0000000000000000e+00 5.7943030042078529e+00 5.0922747945993363e+00 2.2859330119336652e-01 
114 1 2 1.0279999999957297e+00 -1.7207742266448122e+02 1.0000000000000000e+00 5.3033468823503718e+00 7.8970021039100677e+00 8.7712739072008250e-01 
164 1 2 1.0279999999287479e+00 -1.4798420451380861e+02 1.0000000000000000e+00 5.2830167020259990e+00 8.0316406145981389e+00 6.2342008857414177e-01 
142 1 2 1.0279999997899776e+00 -1.5934664491136419e+02 1.0000000000000000e+00 5.6169736766123632e+00 7.9522769333295455e+00 4.1418872284605623e-01 
2 1 2 1.0279999998741283e+00 -2.6162339591025312e+02 1.0000000000000000e+00 5.4951268932707178e+00 2.1911639453070992e+00 1.9796682466434675e+01 
8 1 2 1.0279999998742584e+00 -2.4017418629857860e+02 1.0000000000000000e+00 5.4957069254879292e+00 2.1924756128605698e+00 1.9797158214605584e+01 
55 1 2 1.0280000000356024e+00 -1.5335273690162484e+02 1.0000000000000000e+00 3.7009778813052132e+00 5.9146017844842804e+00 1.8677109279123442e+01 
3 1 2 1.0279999999739371e+00 -1.6085825134023321e+02 1.0000000000000000e+00 4.2468510448553332e+00 4.4001460091009443e+00 1.8012989687551439e+01 
100 1 2 1.0279999999739375e+00 -1.1613720445290869e+02 1.0000000000000000e+00 4.2468511823340451e+00 4.4001486923906796e+00 1.8012987035365562e+01 
136 1 2 1.0280000000368883e+00 -7.5906428697388691e+01 1.0000000000000000e+00 3.6921544171292435e+00 5.9072893690125010e+00 1.8678002718130330e+01 
17 1 2 1.0280000003560719e+00 -1.3248558872868711e+02 1.0000000000000000e+00 6.2621345585649655e+00 1.6574805843879723e+01 1.6391221998664854e+01 
44 1 2 1.0280000000657943e+00 -1.3498330520330370e+02 1.0000000000000000e+00 5.7940036005606297e+00 1.6487476170261097e+01 1.7297685540857156e+01 
80 1 2 1.0280000000657954e+00 -1.4402623430036192e+02 1.0000000000000000e+00 5.7940036005646895e+00 1.6487476170258990e+01 1.7297685540861313e+01 
37 1 2 1.0279999994243709e+00 -1.6231286942988430e+02 1.0000000000000000e+00 5.7587689802490472e+00 1.8251279277828125e+01 1.8647327908370372e+01 
177 1 2 1.0280000004162524e+00 -1.1573766134643230e+02 1.0000000000000000e+00 6.1294979010720878e+00 1.8915721386646929e+01 1.9369317220672951e+01 
56 1 2 1.0280000004162526e+00 -1.1805015767666416e+02 1.0000000000000000e+00 6.1294979010700477e+00 1.8915721386653271e+01 1.9369317220674230e+01 
51 1 2 1.0279999999125538e+00 -1.2805136487627243e+02 1.0000000000000000e+00 9.8394497346534919e+00 1.9054080081685560e+00 2.7162955067504591e+00 
155 1 2 1.0279999999125480e+00 -1.5790219869228946e+02 1.0000000000000000e+00 9.8394499051019935e+00 1.9054075642150110e+00 2.7162958463224363e+00 
111 1 2 1.0279999999659934e+00 -1.4371982010047722e+02 1.0000000000000000e+00 9.0442126946416863e+00 3.2369729583388005e+00 2.7285246455653911e+00 
89 1 2 1.0280000002555134e+00 -1.6235330443134825e+02 1.0000000000000000e+00 1.1083760403743931e+01 7.3259305205393166e-01 2.2775721772569368e+00 
13 1 2 1.0280000001973137e+00 -1.3261864569738691e+02 1.0000000000000000e+00 8.2119169907191960e+00 4.5373786597154790e+00 2.6808598468857934e+00 
128 1 2 1.0280000001778988e+00 -7.8558575257384817e+01 1.0000000000000000e+00 7.0868267777356939e+00 5.6574929379941947e+00 1.6212946816461860e+00 
106 1 2 1.0279999998352363e+00 -9.5576803011138196e+01 1.0000000000000000e+00 8.7751699048005403e+00 4.7372573804110703e+00 1.0949657493518907e+00 
107 1 2 1.0279999998352360e+00 -9.0887834265551533e+01 1.0000000000000000e+00 8.7751699048008156e+00 4.7372573804124620e+00 1.0949657493523512e+00 
119 1 2 1.0279999999413409e+00 -1.7172703285780716e+02 1.0000000000000000e+00 1.0567319195840488e+01 9.4467742270734991e+00 7.2815380592778353e-02 
94 1 2 1.0280000001008651e+00 -9.5814163505482540e+01 1.0000000000000000e+00 1.2372677335529691e+01 7.3291502729843272e-01 4.4485246946342238e+00 
35 1 2 1.0280000000812755e+00 -1.7857887677666747e+02 1.0000000000000000e+00 1.2475808712325435e+01 7.6269903928084593e-01 4.4178683336917137e+00 
87 1 2 1.0279999999818696e+00 -1.2149215716200568e+02 1.0000000000000000e+00 1.2049750790910615e+01 6.6901077320530844e-01 8.4564670861894307e+00 
20 1 2 1.0279999999832838e+00 -1.6667441484898160e+02 1.0000000000000000e+00 1.2042738391886472e+01 6.8240641292510829e-01 8.4541646747114712e+00 
45 1 2 1.0279999999789422e+00 -1.5050242066540719e+02 1.0000000000000000e+00 1.3028150277173806e+01 9.5926914588068135e-01 7.1037835797729727e+00 
121 1 2 1.0279999999357630e+00 -6.5293772070746257e+01 1.0000000000000000e+00 1.3093420290406147e+01 1.0459474467081835e+00 7.2596788720209169e+00 
39 1 2 1.0280000001091454e+00 -2.6718767651037973e+02 1.0000000000000000e+00 9.5874964354561314e+00 2.7647635097860328e+00 1.2803622853465727e+01 
102 1 2 1.0280000001091456e+00 -1.8875101146201354e+02 1.0000000000000000e+00 9.5874963906351809e+00 2.7647635230957448e+00 1.2803622632544098e+01 
47 1 2 1.0280000002491669e+00 -1.6635166536251450e+02 1.0000000000000000e+00 1.2755273463884517e+01 2.2087731584875991e-01 1.2343934540208727e+01 
125 1 2 1.0279999996502134e+00 -2.0866299281665141e+02 1.0000000000000000e+00 1.2766892360494523e+01 1.8059413993970750e+00 1.1328898355159252e+01 
9 1 2 1.0280000003630685e+00 -1.1367765158539916e+02 1.0000000000000000e+00 1.2998992393622489e+01 1.7912519006989722e+00 1.0700311700009559e+01 
18 1 2 1.0280000000403278e+00 -6.1968751466438064e+01 1.0000000000000000e+00 1.0847091453615135e+01 3.8995050407668370e+00 1.1357876633647058e+01 
49 1 2 1.0280000000403284e+00 -1.4993954179424748e+02 1.0000000000000000e+00 1.0847092978099749e+01 3.8995076306990422e+00 1.1357875384246379e+01 
5 1 2 1.0280000000092320e+00 -2.1048769106338375e+02 1.0000000000000000e+00 1.2467785367236793e+01 5.3645116100225447e+00 1.2360747342551605e+01 
151 1 2 1.0280000000092304e+00 -1.5243774952709677e+02 1.0000000000000000e+00 1.2467785367722284e+01 5.3645116094963612e+00 1.2360747341885146e+01 
130 1 2 1.0279999999372726e+00 -1.4613434692353644e+02 1.0000000000000000e+00 1.0737990553765355e+01 6.4952323085252557e+00 1.2323616729906171e+01 
88 1 2 1.0279999999372711e+00 -1.1008241029570779e+02 1.0000000000000000e+00 1.0737990553765439e+01 6.4952323085252663e+00 1.2323616729906025e+01 
72 1 2 1.0280000000562490e+00 -2.0510453983708817e+02 1.0000000000000000e+00 1.0257185442683141e+01 8.8549259854568412e+00 1.3137632559462121e+01 
74 1 2 1.0280000000474288e+00 -1.7807863664540440e+02 1.0000000000000000e+00 1.0249205107231781e+01 8.8584605043864464e+00 1.3152382195264842e+01 
83 1 2 1.0279999999149982e+00 -1.4149552604043211e+02 1.0000000000000000e+00 9.0706367524811800e+00 1.0834018215948262e+00 1.3925393175439314e+01 
168 1 2 1.0279999999150917e+00 -1.4875592054692896e+02 1.0000000000000000e+00 9.0705632505818148e+00 1.0831001005408167e+00 1.3925258537815353e+01 
166 1 2 1.0279999999123330e+00 -1.9655632135018462e+02 1.0000000000000000e+00 1.1461994493026619e+01 1.6867012814764928e-01 1.4760835810290059e+01 
22 1 2 1.0280000000947105e+00 -1.3420012698438666e+02 1.0000000000000000e+00 1.1582031727285187e+01 3.8960347971547182e-01 1.4796692299858188e+01 
61 1 2 1.0279999998953124e+00 -1.2839397065844889e+02 1.0000000000000000e+00 1.2155997584347785e+01 4.3092597005904010e-01 1.6121077544120112e+01 
115 1 2 1.0279999999757587e+00 -1.1508371112284100e+02 1.0000000000000000e+00 1.0060950218087610e+01 6.7173322760748748e+00 1.5208346705232886e+01 
12 1 2 1.0279999999758713e+00 -7.2529671083604129e+01 1.0000000000000000e+00 1.0062351937911645e+01 6.7184203863096412e+00 1.5208301630540641e+01 
172 1 2 1.0279999999812319e+00 -1.2780022128202964e+02 1.0000000000000000e+00 1.3049270319859851e+01 7.4277537948385879e+00 1.6255820731565990e+01 
21 1 2 1.0279999999812328e+00 -1.1136522502708790e+02 1.0000000000000000e+00 1.3049298416024291e+01 7.4277653962432355e+00 1.6255812188374463e+01 
167 1 2 1.0280000002783567e+00 -2.0281864066441395e+02 1.0000000000000000e+00 1.1082798440543106e+01 4.2710191320863411e-01 1.7358299329881874e+01 
57 1 2 1.0280000002783567e+00 -1.3072504044628630e+02 1.0000000000000000e+00 1.1082798440542435e+01 4.2710191320841107e-01 1.7358299329882350e+01 
117 1 2 1.0280000000505656e+00 -1.0025485605951064e+02 1.0000000000000000e+00 9.6603029883818632e+00 6.0314786418574524e+00 1.6692379114314420e+01 
95 1 2 1.0279999999462852e+00 -1.3274809222719313e+02 1.0000000000000000e+00 9.2585109714700788e+00 7.3024545320943934e+00 1.7277818552294466e+01 
96 1 2 1.0279999999463403e+00 -1.3909264773606415e+02 1.0000000000000000e+00 9.2583918635901856e+00 7.3025645745651468e+00 1.7277633057681967e+01 
7 1 2 1.0280000000227352e+00 -1.2293221123689980e+02 1.0000000000000000e+00 1.1625143214377868e+01 9.9075250503133461e+00 1.7000449315736358e+01 
43 1 2 1.0280000000227347e+00 -1.1928139016567172e+02 1.0000000000000000e+00 1.1625143214375562e+01 9.9075250503118895e+00 1.7000449315739978e+01 
50 1 2 1.0280000000353844e+00 -1.7574897910327053e+02 1.0000000000000000e+00 1.1815074392000140e+01 8.1371244138479213e+00 1.8599362097933604e+01 
14 1 2 1.0280000000353844e+00 -1.9103270836276602e+02 1.0000000000000000e+00 1.1815074377936240e+01 8.1371244046603870e+00 1.8599362098750689e+01 
131 1 2 1.0280000000130607e+00 -1.3289505550908274e+02 1.0000000000000000e+00 1.0538727313915668e+01 9.2690047180197617e+00 1.9820029360584773e+01 
34 1 2 1.0280000000211733e+00 -1.8106304329869670e+02 1.0000000000000000e+00 1.1360437118287543e+01 1.1556022261987589e+01 1.4387804452039494e+00 
70 1 2 1.0280000000211749e+00 -1.6252225425904226e+02 1.0000000000000000e+00 1.1360433337992681e+01 1.1556093603980598e+01 1.4387549522898599e+00 
10 1 2 1.0279999996954869e+00 -1.7018843012087058e+02 1.0000000000000000e+00 1.3066867935324606e+01 1.1888202028375465e+01 3.1398385894054681e-01 
180 1 2 1.0279999998819009e+00 -1.8254800814685342e+02 1.0000000000000000e+00 1.0603218715058231e+01 1.1103450802269306e+01 2.2670159690679853e-01 
138 1 2 1.0279999998417548e+00 -1.7760199946632230e+02 1.0000000000000000e+00 1.3202517845875544e+01 1.4947609667700608e+01 2.1751483377403806e+00 
90 1 2 1.0280000000227585e+00 -1.7927206095836172e+02 1.0000000000000000e+00 8.8215451572793526e+00 1.8652811248042376e+01 2.6363042814977606e+00 
54 1 2 1.0280000000227583e+00 -1.5013822871372042e+02 1.0000000000000000e+00 8.8215451570334924e+00 1.8652811248707600e+01 2.6363042806391861e+00 
75 1 2 1.0280000000374796e+00 -2.5279320515985461e+02 1.0000000000000000e+00 8.8692663432450338e+00 1.8623025510461691e+01 2.7517766383564317e+00 
38 1 2 1.0280000000444272e+00 -1.2873639770631223e+02 1.0000000000000000e+00 1.2542710174261385e+01 1.8258968764331172e+01 2.2582891983026525e+00 
58 1 2 1.0280000000436964e+00 -1.5082012136172582e+02 1.0000000000000000e+00 1.2928541973575681e+01 1.8395859706089279e+01 7.2686809895383264e-01 
82 1 2 1.0280000000436968e+00 -1.1448030195092157e+02 1.0000000000000000e+00 1.2928541099562885e+01 1.8395858597266287e+01 7.2686834520337928e-01 
109 1 2 1.0279999998081206e+00 -1.4847639825896889e+02 1.0000000000000000e+00 1.1086491840211490e+01 1.9933831952027649e+01 1.0087970222564011e-01 
135 1 2 1.0279999997771234e+00 -1.5548782556812236e+02 1.0000000000000000e+00 1.1098874180376777e+01 1.9931923120074533e+01 8.9627992764268000e-02 
23 1 2 1.0279999999721658e+00 -1.1261461968174824e+02 1.0000000000000000e+00 1.1658434682312755e+01 1.9678910314249720e+01 3.6130779706537925e+00 
68 1 2 1.0280000000057286e+00 -1.7087594000011973e+02 1.0000000000000000e+00 7.5077827337094831e+00 1.1430862051758650e+01 9.8860698455291516e+00 
129 1 2 1.0279999999285638e+00 -1.3902795911037845e+02 1.0000000000000000e+00 8.5593294824176152e+00 1.2779449274135816e+01 9.9351032235733410e+00 
26 1 2 1.0280000000082490e+00 -1.1602107526329817e+02 1.0000000000000000e+00 9.9658151399662191e+00 1.3179395771974338e+01 9.6030363336082161e+00 
134 1 2 1.0280000000299956e+00 -1.2221825603001980e+02 1.0000000000000000e+00 9.4856904526542287e+00 1.4497271961682728e+01 9.3826531685131531e+00 
98 1 2 1.0280000000299956e+00 -1.5176683989722022e+02 1.0000000000000000e+00 9.4856904527012986e+00 1.4497271961725184e+01 9.3826531685582317e+00 
25 1 2 1.0279999999745844e+00 -2.2664293335614627e+02 1.0000000000000000e+00 9.2010064546161061e+00 1.1462198392287394e+01 1.2414088903771971e+01 
120 1 2 1.0279999999572860e+00 -1.5782438172070914e+02 1.0000000000000000e+00 9.2252811343388501e+00 1.1764464898717215e+01 1.2241752694001182e+01 
161 1 2 1.0279999999820355e+00 -2.0267218597683208e+02 1.0000000000000000e+00 7.1596353488365789e+00 1.0420611432109792e+01 1.0887464538910763e+01 
1 1 2 1.0279999999820140e+00 -1.5734326611478835e+02 1.0000000000000000e+00 7.1508468520270192e+00 1.0427743520411921e+01 1.0872982186457110e+01 
101 1 2 1.0280000000311684e+00 -1.4856940725156892e+02 1.0000000000000000e+00 9.4857697585991936e+00 1.0186811116904384e+01 1.0178384434868198e+01 
32 1 2 1.0280000000339837e+00 -6.9841927506902863e+01 1.0000000000000000e+00 9.5140738718395532e+00 1.0238518818275478e+01 1.0148112625495225e+01 
170 1 2 1.0279999999862668e+00 -1.2498777831411584e+02 1.0000000000000000e+00 1.1264549445697646e+01 1.0810904198821779e+01 1.1962738602038824e+01 
171 1 2 1.0279999999862650e+00 -1.1720704189354807e+02 1.0000000000000000e+00 1.1264549445347422e+01 1.0810904205080037e+01 1.1962738607594906e+01 
113 1 2 1.0280000000546756e+00 -2.2077042678668050e+02 1.0000000000000000e+00 9.5452339838520004e+00 1.5737570000576209e+01 1.2576123441350775e+01 
15 1 2 1.0280000000546765e+00 -1.1549165967789889e+02 1.0000000000000000e+00 9.5452339836330662e+00 1.5737569999654104e+01 1.2576123441267615e+01 
65 1 2 1.0279999999244123e+00 -1.4339203325175043e+02 1.0000000000000000e+00 1.0610723001592925e+01 1.4305158964268745e+01 1.1882262885505209e+01 
146 1 2 1.0279999999243286e+00 -1.3309416614198665e+02 1.0000000000000000e+00 1.0610641424412524e+01 1.4305112042086348e+01 1.1882456596834349e+01 
116 1 2 1.0280000000618272e+00 -9.2077384455766520e+01 1.0000000000000000e+00 9.8699586170066791e+00 1.9682546451669502e+01 1.2118423176085617e+01 
71 1 2 1.0280000000618279e+00 -1.3521406775853600e+02 1.0000000000000000e+00 9.8699586169867555e+00 1.9682546451695309e+01 1.2118423176111142e+01 
77 1 2 1.0279999998595333e+00 -1.4174007964922311e+02 1.0000000000000000e+00 1.0614005479993430e+01 1.7774746338056300e+01 1.1724143127659906e+01 
112 1 2 1.0279999999513518e+00 -1.7851039649259224e+02 1.0000000000000000e+00 1.0795107369020567e+01 1.8052894971389758e+01 1.1531901877888949e+01 
73 1 2 1.0279999999600364e+00 -1.4215466942845694e+02 1.0000000000000000e+00 1.3304014464022877e+01 1.7684664938173817e+01 1.0883684768978181e+01 
79 1 2 1.0279999999600375e+00 -1.6908577119987817e+02 1.0000000000000000e+00 1.3304014462828853e+01 1.7684664936525909e+01 1.0883684769803853e+01 
28 1 2 1.0279999999878493e+00 -1.3646387552048782e+02 1.0000000000000000e+00 1.0848987004139154e+01 1.0176401807032500e+01 1.5002983626177198e+01 
62 1 2 1.0279999999878491e+00 -1.8651445410088263e+02 1.0000000000000000e+00 1.0848986987770424e+01 1.0176401734065683e+01 1.5002983852012852e+01 
104 1 2 1.0279999999386042e+00 -1.6337692059304396e+02 1.0000000000000000e+00 1.2361020427533669e+01 1.4136398538058664e+01 1.5385136286627677e+01 
42 1 2 1.0280000002790353e+00 -1.3500325793505263e+02 1.0000000000000000e+00 1.0529843805967264e+01 1.6007660456636383e+01 1.6172671767407511e+01 
160 1 2 1.0280000002782927e+00 -1.6107990859005184e+02 1.0000000000000000e+00 1.0531272701713640e+01 1.6008346826617686e+01 1.6168845684125234e+01 
149 1 2 1.0279999999477378e+00 -2.3059893196837407e+02 1.0000000000000000e+00 1.2389571059516205e+01 1.4133640265575147e+01 1.5324228486031588e+01 
147 1 2 1.0279999998611593e+00 -1.6371439560186104e+01 1.0000000000000000e+00 1.2610623810767200e+01 1.6326812908999290e+01 1.6659729887029648e+01 
108 1 2 1.0279999998611580e+00 -1.5271819778394763e+02 1.0000000000000000e+00 1.2610623810767192e+01 1.6326812908998996e+01 1.6659729887029965e+01 
81 1 2 1.0279999998999971e+00 -2.4925271889333160e+02 1.0000000000000000e+00 7.8426634136526632e+00 1.7038810896807107e+01 1.4479668121350420e+01 
46 1 2 1.0279999998999969e+00 -1.4192692592586437e+02 1.0000000000000000e+00 7.8426611202571319e+00 1.7038811508088557e+01 1.4479668776997441e+01 
153 1 2 1.0280000000136420e+00 -1.2834035110789591e+02 1.0000000000000000e+00 8.2916722667334195e+00 1.8170249820620729e+01 1.5835508465764400e+01 
159 1 2 1.0280000000136413e+00 -1.3150247294355674e+02 1.0000000000000000e+00 8.2916722667333929e+00 1.8170249820620757e+01 1.5835508465764343e+01 
76 1 2 1.0279999999972680e+00 -1.5502387203356960e+02 1.0000000000000000e+00 1.2182677079362824e+01 1.7144637287713511e+01 1.4185733324871617e+01 
40 1 2 1.0279999999972678e+00 -1.3869718604919285e+02 1.0000000000000000e+00 1.2182677079362790e+01 1.7144637287713472e+01 1.4185733324871691e+01 
24 1 2 1.0280000000258709e+00 -1.5123017818958641e+02 1.0000000000000000e+00 8.8809780672113359e+00 1.5567502358200391e+01 1.8502779431621878e+01 
123 1 2 1.0280000000258618e+00 -2.0368005084475806e+02 1.0000000000000000e+00 8.8810207842121454e+00 1.5567443419586345e+01 1.8502764143549506e+01 
78 1 2 1.0280000000003400e+00 -1.0616979336267681e+02 1.0000000000000000e+00 1.0569097212650510e+01 1.5134159624223022e+01 1.9053465139287201e+01 
19 1 2 1.0280000000403957e+00 -1.1132097817563655e+02 1.0000000000000000e+00 1.1738134410067675e+01 1.4310688118533356e+01 1.8608785353261528e+01 
110 1 2 1.0280000000423646e+00 -1.1757810288145382e+02 1.0000000000000000e+00 1.1740785281487490e+01 1.4309913374334009e+01 1.8609981490550595e+01 
176 1 2 1.0280000002779348e+00 -9.5960191376997358e+01 1.0000000000000000e+00 9.0381239424176094e+00 1.9899781718507960e+01 1.8953617687668402e+01 
140 1 2 1.0280000002778644e+00 -6.9630682766841090e+01 1.0000000000000000e+00 9.0381397569443909e+00 1.9899797592464125e+01 1.8953647590770238e+01 
145 1 2 1.0280000004255971e+00 -1.3369178923318640e+02 1.0000000000000000e+00 9.0670079019506851e+00 1.7484170214602010e+01 1.8752968186761386e+01 
86 1 2 1.0279999990618207e+00 -9.5662926028313052e+01 1.0000000000000000e+00 9.4517338172118173e+00 1.7925639338008093e+01 1.8350575177581494e+01 
173 1 2 1.0279999999999681e+00 -1.0859557924928905e+02 1.0000000000000000e+00 1.4468032497661337e+01 7.0873038180584560e+00 3.2404916265165422e+00 
174 1 2 1.0280000000000649e+00 -1.2101260523325161e+02 1.0000000000000000e+00 1.4468032402043878e+01 7.0873037625397339e+00 3.2404915945051558e+00 
27 1 2 1.0280000000000971e+00 -1.5941929482245860e+02 1.0000000000000000e+00 1.4051283735102555e+01 6.9545401641678266e+00 4.7155559711527077e+00 
154 1 2 1.0279999999999379e+00 -1.4223895027458786e+02 1.0000000000000000e+00 1.4051283735093410e+01 6.9545401641672191e+00 4.7155559711505877e+00 
30 1 2 1.0279999999496605e+00 -1.9156717095204789e+02 1.0000000000000000e+00 1.4518572518147600e+01 7.0655829407553605e-01 1.2266000576712417e+01 
36 1 2 1.0279999999496585e+00 -1.8794175349449313e+02 1.0000000000000000e+00 1.4518572785899320e+01 7.0655909775506809e-01 1.2265999894671770e+01 
105 1 2 1.0279999998259881e+00 -1.0335481743409389e+02 1.0000000000000000e+00 1.3573351305815974e+01 4.4995873161712803e+00 1.0157224028742021e+01 
126 1 2 1.0280000001080840e+00 -1.0522537054726949e+02 1.0000000000000000e+00 1.4198470061073508e+01 3.9635391007642071e+00 1.0077751241850322e+01 
132 1 2 1.0280000001080849e+00 -1.2583486250132466e+02 1.0000000000000000e+00 1.4198470062063707e+01 3.9635391011774916e+00 1.0077751243919957e+01 
169 1 2 1.0280000000295826e+00 -5.8698591054340753e+01 1.0000000000000000e+00 1.3482081203807486e+01 8.2349665975114306e+00 1.5809811928360666e+01 
103 1 2 1.0279999999796583e+00 -1.5615753483815243e+02 1.0000000000000000e+00 1.3532738598630784e+01 9.9139624637644861e+00 1.4097375504641827e+01 
139 1 2 1.0279999999796585e+00 -1.3711775101425519e+02 1.0000000000000000e+00 1.3532738599439412e+01 9.9139624654625571e+00 1.4097375505652828e+01 
175 1 2 1.0279999999150102e+00 -9.1031667167654575e+01 1.0000000000000000e+00 1.3791311564705071e+01 1.2273864551339958e+01 1.8005042583214459e-01 
178 1 2 1.0280000001538399e+00 -1.5883243400613253e+02 1.0000000000000000e+00 1.3704325825380485e+01 1.4234517443239964e+01 3.0097748902581576e+00 
118 1 2 1.0280000001537983e+00 -4.1169012127119558e+01 1.0000000000000000e+00 1.3704291984902035e+01 1.4234510530575104e+01 3.0097703903157904e+00 
124 1 2 1.0280000000263352e+00 -1.5326836214832417e+02 1.0000000000000000e+00 1.3925977494562487e+01 1.3531183865016605e+01 6.4015201619202544e-01 
137 1 2 1.0279999996140028e+00 -4.9079215849389342e+01 1.0000000000000000e+00 1.4146452249934056e+01 1.6387148537558559e+01 2.3644852515575336e+00 
144 1 2 1.0280000000848954e+00 -1.1633633353062035e+02 1.0000000000000000e+00 1.5337264987340010e+01 1.7643042813467812e+01 2.1611394968510518e+00 
66 1 2 1.0280000000758407e+00 -1.4672201699630091e+02 1.0000000000000000e+00 1.5346821508009249e+01 1.7966210412893428e+01 2.1294073155586233e+00 
63 1 2 1.0279999999709424e+00 -1.7102689670974752e+02 1.0000000000000000e+00 1.4254995825146732e+01 1.9553781341647124e+01 3.1377453061394545e+00 
99 1 2 1.0279999999709424e+00 -1.7176708722406721e+02 1.0000000000000000e+00 1.4254995838016338e+01 1.9553781329600515e+01 3.1377453019369916e+00 
52 1 2 1.0280000000471474e+00 -6.2781414236003911e+01 1.0000000000000000e+00 1.6087843825148017e+01 1.6240253130759303e+01 4.4090944904418246e+00 
59 1 2 1.0280000000469283e+00 -1.1488203445049263e+02 1.0000000000000000e+00 1.5714663072226031e+01 1.6285428268002967e+01 4.7898926773137847e+00 
53 1 2 1.0280000000469285e+00 -1.2253132663035842e+02 1.0000000000000000e+00 1.5714664695416262e+01 1.6285429603603031e+01 4.7898928257631157e+00 
158 1 2 1.0280000000579359e+00 -5.9817616840485556e+01 1.0000000000000000e+00 1.4227179262549491e+01 1.1843658942924558e+01 9.3411431852887468e+00 
60 1 2 1.0279999999466829e+00 -1.1481551607879061e+02 1.0000000000000000e+00 1.3752393840333900e+01 1.1424528944228745e+01 9.7914200520917323e+00 
122 1 2 1.0280000000579357e+00 -8.4365686088808133e+01 1.0000000000000000e+00 1.4227179262606859e+01 1.1843658942188723e+01 9.3411431852218740e+00 
29 1 2 1.0280000000020642e+00 -1.2074718964037493e+02 1.0000000000000000e+00 1.4729889611951254e+01 1.0638277423690813e+01 1.2820903162498627e+01 
133 1 2 1.0280000000045297e+00 -6.5057919767962801e+01 1.0000000000000000e+00 1.4739109969575251e+01 1.0684228801790793e+01 1.2803496467484416e+01 
127 1 2 1.0279999999854572e+00 -6.0847470848766349e+01 1.0000000000000000e+00 1.3963437878405056e+01 1.2490431147212712e+01 1.1596630401129014e+01 
141 1 2 1.0279999999818938e+00 -8.5299637081523372e+01 1.0000000000000000e+00 1.4380709427246268e+01 1.3123901532895832e+01 1.2286409455124563e+01 
97 1 2 1.0279999998341038e+00 -1.4184030054115306e+02 1.0000000000000000e+00 1.4738306662572100e+01 1.3927152449438365e+01 1.3120028233874431e+01 
91 1 2 1.0280000000359584e+00 -1.0119484469379978e+02 1.0000000000000000e+00 1.3917692532795954e+01 1.7300402829587249e+01 1.3099555444939684e+01 
85 1 2 1.0280000000359237e+00 -1.2427193745876370e+02 1.0000000000000000e+00 1.3917883432397240e+01 1.7300463042238778e+01 1.3099051856372114e+01 
150 1 2 1.0279999998995970e+00 -1.6991721734177406e+02 1.0000000000000000e+00 1.3873707292094753e+01 1.9279040748654740e+01 1.0913930391857457e+01 
84 1 2 1.0279999999897580e+00 -8.1773678108171850e+01 1.0000000000000000e+00 1.4918859238513489e+01 1.4441561649787417e+01 1.4133759715479986e+01 
179 1 2 1.0280000003456247e+00 -1.1361491429951172e+02 1.0000000000000000e+00 1.3680030327007746e+01 1.3661295229230026e+01 1.4734642219988647e+01 
157 1 2 1.0280000000221956e+00 -1.4872382439516235e+02 1.0000000000000000e+00 1.6751172374633125e+01 1.5087333020496736e+01 1.5204853523247492e+01 
16 1 2 1.0280000000221945e+00 -1.1384259365529819e+02 1.0000000000000000e+00 1.6751172262979853e+01 1.5087333759985855e+01 1.5204853840424663e+01 
148 1 2 1.0279999999334697e+00 -2.2135725505436341e+02 1.0000000000000000e+00 1.7228320436292634e+01 1.3569339617748245e+01 1.5982553998572651e+01 
48 1 2 1.0280000000233243e+00 -7.6018577438280516e+01 1.0000000000000000e+00 1.9195317453581250e+01 1.5796210177391394e+01 1.6418992771626954e+01 
67 1 2 1.0280000000233278e+00 -1.6338448068151416e+02 1.0000000000000000e+00 1.9195317448857672e+01 1.5796210043624553e+01 1.6418991984487263e+01 
92 1 2 1.0279999999793685e+00 -9.6126213359377815e+01 1.0000000000000000e+00 1.7893333518830556e+01 1.7012286441114846e+01 1.6505683090951095e+01 
93 1 2 1.0279999999793632e+00 -1.2680206199445138e+02 1.0000000000000000e+00 1.7893338288827760e+01 1.7012272441629996e+01 1.6505737322347724e+01 
69 1 2 1.0280000000021379e+00 -7.3635021515546811e+01 1.0000000000000000e+00 1.6201713086337257e+01 1.2405206371914140e+01 1.7762168445637624e+01 
33 1 2 1.0280000000021350e+00 -7.3127705456887867e+01 1.0000000000000000e+00 1.6201711725035363e+01 1.2405203781976777e+01 1.7762147738943490e+01 
4 1 2 1.0280000000820018e+00 -1.3414258220043106e+02 1.0000000000000000e+00 1.8017359264252143e+01 1.3317414755481117e+01 1.7676020783174749e+01 
11 1 2 1.0280000000726359e+00 -1.5101803426801737e+02 1.0000000000000000e+00 1.8080819707124952e+01 1.3208105178459119e+01 1.7567935202475891e+01 
41 1 2 1.0280000001166612e+00 -1.7034381036036677e+02 1.0000000000000000e+00 1.4173934853662814e+01 1.3706897397939647e+01 1.8455310361592343e+01 
64 1 2 1.0280000001167104e+00 -1.5397673037554233e+02 1.0000000000000000e+00 1.4174332259026070e+01 1.3708582194937879e+01 1.8456914980119997e+01 

Velocities

152 -1.4862115801979042e-01 -1.0355447610341678e-01 1.7024504133666932e-01
156 -1.4862116021717331e-01 -1.0355451748094184e-01 1.7024504399511978e-01
162 -1.4862114313171279e-01 -1.0355449565936001e-01 1.7024504941907262e-01
31 -1.4862125337331245e-01 -1.0355449832002735e-01 1.7024510217579522e-01
143 -1.4862112252468945e-01 -1.0355449049929115e-01 1.7024503599807056e-01
6 -1.4862112570769365e-01 -1.0355448930347279e-01 1.7024503596315049e-01
165 -1.4862107907022087e-01 -1.0355447445298538e-01 1.7024504227539033e-01
163 -1.4862107905555166e-01 -1.0355447444776671e-01 1.7024504226262652e-01
114 -1.4862102101555166e-01 -1.0355443716698523e-01 1.7024501456113045e-01
164 -1.4862101786857113e-01 -1.0355444242376967e-01 1.7024501742785264e-01
142 -1.4862103221719100e-01 -1.0355444743853927e-01 1.7024502720292570e-01
2 -1.4862119808970617e-01 -1.0355451619121145e-01 1.7024508165987931e-01
8 -1.4862119805242680e-01 -1.0355451621001222e-01 1.7024508161716739e-01
55 -1.4862103779424682e-01 -1.0355443856590998e-01 1.7024503110585654e-01
3 -1.4862104399685544e-01 -1.0355445166736903e-01 1.7024503784563358e-01
100 -1.4862104399681642e-01 -1.0355445166734198e-01 1.7024503784562736e-01
136 -1.4862103794480622e-01 -1.0355443857250189e-01 1.7024503111253983e-01
17 -1.4862170948677697e-01 -1.0355478433461368e-01 1.7024524940517338e-01
44 -1.4862169923408244e-01 -1.0355475768152650e-01 1.7024528625541696e-01
80 -1.4862169923408364e-01 -1.0355475768152693e-01 1.7024528625541774e-01
37 -1.4862158247596680e-01 -1.0355472536633201e-01 1.7024520824802339e-01
177 -1.4862156202777563e-01 -1.0355469839380793e-01 1.7024519957529838e-01
56 -1.4862156202777591e-01 -1.0355469839380742e-01 1.7024519957528875e-01
51 -1.4862134671588395e-01 -1.0355465449608800e-01 1.7024509834275567e-01
155 -1.4862134671585450e-01 -1.0355465449613396e-01 1.7024509834271712e-01
111 -1.4862122515199316e-01 -1.0355459468339046e-01 1.7024507313278739e-01
89 -1.4862144564191482e-01 -1.0355473899542131e-01 1.7024511192643699e-01
13 -1.4862114405977569e-01 -1.0355453462064096e-01 1.7024508133471861e-01
128 -1.4862109804448551e-01 -1.0355448103663861e-01 1.7024505726670291e-01
106 -1.4862113991857345e-01 -1.0355453799820166e-01 1.7024507645922926e-01
107 -1.4862113991857417e-01 -1.0355453799820201e-01 1.7024507645923137e-01
119 -1.4862184964871678e-01 -1.0355496382862321e-01 1.7024525481440295e-01
94 -1.4862149165757108e-01 -1.0355478944824952e-01 1.7024517274212206e-01
35 -1.4862149029668453e-01 -1.0355479026400925e-01 1.7024517147147633e-01
87 -1.4862164395953503e-01 -1.0355489510827140e-01 1.7024517517782342e-01
20 -1.4862164397836378e-01 -1.0355489518915194e-01 1.7024517519736926e-01
45 -1.4862161733685539e-01 -1.0355487576184001e-01 1.7024518743914110e-01
121 -1.4862162374904631e-01 -1.0355487980524068e-01 1.7024518615879933e-01
39 -1.4862179990968855e-01 -1.0355497221198691e-01 1.7024524376861075e-01
102 -1.4862179990968949e-01 -1.0355497221198999e-01 1.7024524376860464e-01
47 -1.4862177042554509e-01 -1.0355495046646553e-01 1.7024523024097196e-01
125 -1.4862174815405321e-01 -1.0355495232267152e-01 1.7024521708673962e-01