LAMMPS data file via write_data, version 30 Jul 2016, timestep = 1000000

418 atoms
8 atom types

0.0000000000000000e+00 4.0000000000000000e+01 xlo xhi
0.0000000000000000e+00 4.0000000000000000e+01 ylo yhi
0.0000000000000000e+00 1.0000000000000000e+02 zlo zhi

Masses

1 3.896
2 670.206
3 20.064
4 8.378
5 8.378
6 8.378
7 8.378
8 8.378

Atoms # meso-molecular

1 2 4 2.2559723595316457e+00 0.0000000000000000e+00 1.0000000000000000e+00 0.0000000000000000e+00 0.0000000000000000e+00 2.5000000000000000e+00 
2 2 4 2.2559723595316457e+00 0.0000000000000000e+00 1.0000000000000000e+00 0.0000000000000000e+00 2.0000000000000000e+00 2.5000000000000000e+00 
3 2 4 2.2559723595316457e+00 0.0000000000000000e+00 1.0000000000000000e+00 0.0000000000000000e+00 4.0000000000000000e+00 2.5000000000000000e+00 
4 2 4 2.2559723595316457e+00 0.0000000000000000e+00 1.0000000000000000e+00 0.0000000000000000e+00 6.0000000000000000e+00 2.5000000000000000e+00 
5 2 4 2.2559723595316457e+00 0.0000000000000000e+00 1.0000000000000000e+00 0.0000000000000000e+00 8.0000000000000000e+00 2.5000000000000000e+00 
21 2 4 2.2559723595316457e+00 0.0000000000000000e+00 1.0000000000000000e+00 2.0000000000000000e+00 0.0000000000000000e+00 2.5000000000000000e+00 
22 2 4 2.2559723595316457e+00 0.0000000000000000e+00 1.0000000000000000e+00 2.0000000000000000e+00 2.0000000000000000e+00 2.5000000000000000e+00 
23 2 4 2.2559723595316457e+00 0.0000000000000000e+00 1.0000000000000000e+00 2.0000000000000000e+00 4.0000000000000000e+00 2.5000000000000000e+00 
24 2 4 2.2559723595316457e+00 0.0000000000000000e+00 1.0000000000000000e+00 2.0000000000000000e+00 6.0000000000000000e+00 2.5000000000000000e+00 
25 2 4 2.2559723595316457e+00 0.0000000000000000e+00 1.0000000000000000e+00 2.0000000000000000e+00 8.0000000000000000e+00 2.5000000000000000e+00 
41 2 4 2.2559723595316457e+00 0.0000000000000000e+00 1.0000000000000000e+00 4.0000000000000000e+00 0.0000000000000000e+00 2.5000000000000000e+00 
42 2 4 2.2559723595316457e+00 0.0000000000000000e+00 1.0000000000000000e+00 4.0000000000000000e+00 2.0000000000000000e+00 2.5000000000000000e+00 
43 2 4 2.2559723595316457e+00 0.0000000000000000e+00 1.0000000000000000e+00 4.0000000000000000e+00 4.0000000000000000e+00 2.5000000000000000e+00 
44 2 4 2.2559723595316457e+00 0.0000000000000000e+00 1.0000000000000000e+00 4.0000000000000000e+00 6.0000000000000000e+00 2.5000000000000000e+00 
45 2 4 2.2559723595316457e+00 0.0000000000000000e+00 1.0000000000000000e+00 4.0000000000000000e+00 8.0000000000000000e+00 2.5000000000000000e+00 
61 2 4 2.2559723595316457e+00 -5.1664229349297330e-01 1.0000000000000000e+00 6.0000000000000000e+00 0.0000000000000000e+00 2.5000000000000000e+00 
62 2 4 2.2559723595316457e+00 -2.2454682434231871e-01 1.0000000000000000e+00 6.0000000000000000e+00 2.0000000000000000e+00 2.5000000000000000e+00 
63 2 4 2.2559723595316457e+00 -9.7197932753671843e+00 1.0000000000000000e+00 6.0000000000000000e+00 4.0000000000000000e+00 2.5000000000000000e+00 
64 2 4 2.2559723595316457e+00 -4.9182034450048531e+02 1.0000000000000000e+00 6.0000000000000000e+00 6.0000000000000000e+00 2.5000000000000000e+00 
65 2 4 2.2559723595316457e+00 -1.5046165431551856e+03 1.0000000000000000e+00 6.0000000000000000e+00 8.0000000000000000e+00 2.5000000000000000e+00 
81 2 4 2.2559723595316457e+00 -8.9704336113523297e+01 1.0000000000000000e+00 8.0000000000000000e+00 0.0000000000000000e+00 2.5000000000000000e+00 
82 2 4 2.2559723595316457e+00 -1.4184454441797578e+02 1.0000000000000000e+00 8.0000000000000000e+00 2.0000000000000000e+00 2.5000000000000000e+00 
83 2 4 2.2559723595316457e+00 -2.0575280957182640e+03 1.0000000000000000e+00 8.0000000000000000e+00 4.0000000000000000e+00 2.5000000000000000e+00 
84 2 4 2.2559723595316457e+00 -6.8012601451967876e+03 1.0000000000000000e+00 8.0000000000000000e+00 6.0000000000000000e+00 2.5000000000000000e+00 
85 2 4 2.2559723595316457e+00 -1.2056810861222559e+04 1.0000000000000000e+00 8.0000000000000000e+00 8.0000000000000000e+00 2.5000000000000000e+00 
101 2 4 2.2559723595316457e+00 -8.3685802557082934e+02 1.0000000000000000e+00 1.0000000000000000e+01 0.0000000000000000e+00 2.5000000000000000e+00 
102 2 4 2.2559723595316457e+00 -2.6144059468466116e+03 1.0000000000000000e+00 1.0000000000000000e+01 2.0000000000000000e+00 2.5000000000000000e+00 
103 2 4 2.2559723595316457e+00 -1.0330811372086670e+04 1.0000000000000000e+00 1.0000000000000000e+01 4.0000000000000000e+00 2.5000000000000000e+00 
104 2 4 2.2559723595316457e+00 -2.3652654375253092e+04 1.0000000000000000e+00 1.0000000000000000e+01 6.0000000000000000e+00 2.5000000000000000e+00 
105 2 4 2.2559723595316457e+00 -3.7353676580630134e+04 1.0000000000000000e+00 1.0000000000000000e+01 8.0000000000000000e+00 2.5000000000000000e+00 
121 2 4 2.2559723595316457e+00 -3.0208517473541888e+03 1.0000000000000000e+00 1.2000000000000000e+01 0.0000000000000000e+00 2.5000000000000000e+00 
122 2 4 2.2559723595316457e+00 -8.5871916757562904e+03 1.0000000000000000e+00 1.2000000000000000e+01 2.0000000000000000e+00 2.5000000000000000e+00 
123 2 4 2.2559723595316457e+00 -2.4486371245959504e+04 1.0000000000000000e+00 1.2000000000000000e+01 4.0000000000000000e+00 2.5000000000000000e+00 
124 2 4 2.2559723595316457e+00 -5.0543298433982258e+04 1.0000000000000000e+00 1.2000000000000000e+01 6.0000000000000000e+00 2.5000000000000000e+00 
125 2 4 2.2559723595316457e+00 -7.8311179675637890e+04 1.0000000000000000e+00 1.2000000000000000e+01 8.0000000000000000e+00 2.5000000000000000e+00 
141 2 4 2.2559723595316457e+00 -5.9111376677664484e+03 1.0000000000000000e+00 1.4000000000000000e+01 0.0000000000000000e+00 2.5000000000000000e+00 
142 2 4 2.2559723595316457e+00 -1.5164096816319419e+04 1.0000000000000000e+00 1.4000000000000000e+01 2.0000000000000000e+00 2.5000000000000000e+00 
143 2 4 2.2559723595316457e+00 -3.8962147929616440e+04 1.0000000000000000e+00 1.4000000000000000e+01 4.0000000000000000e+00 2.5000000000000000e+00 
144 2 4 2.2559723595316457e+00 -7.8707987959006103e+04 1.0000000000000000e+00 1.4000000000000000e+01 6.0000000000000000e+00 2.5000000000000000e+00 
145 2 4 2.2559723595316457e+00 -1.2329485822900536e+05 1.0000000000000000e+00 1.4000000000000000e+01 8.0000000000000000e+00 2.5000000000000000e+00 
161 2 4 2.2559723595316457e+00 -7.2686549817515925e+03 1.0000000000000000e+00 1.6000000000000000e+01 0.0000000000000000e+00 2.5000000000000000e+00 
162 2 4 2.2559723595316457e+00 -1.8046391778251182e+04 1.0000000000000000e+00 1.6000000000000000e+01 2.0000000000000000e+00 2.5000000000000000e+00 
163 2 4 2.2559723595316457e+00 -4.5259787620715295e+04 1.0000000000000000e+00 1.6000000000000000e+01 4.0000000000000000e+00 2.5000000000000000e+00 
164 2 4 2.2559723595316457e+00 -9.1348311042283254e+04 1.0000000000000000e+00 1.6000000000000000e+01 6.0000000000000000e+00 2.5000000000000000e+00 
165 2 4 2.2559723595316457e+00 -1.4418125395514426e+05 1.0000000000000000e+00 1.6000000000000000e+01 8.0000000000000000e+00 2.5000000000000000e+00 
181 2 4 2.2559723595316457e+00 -5.9111376677664484e+03 1.0000000000000000e+00 1.8000000000000000e+01 0.0000000000000000e+00 2.5000000000000000e+00 
182 2 4 2.2559723595316457e+00 -1.5164096816319419e+04 1.0000000000000000e+00 1.8000000000000000e+01 2.0000000000000000e+00 2.5000000000000000e+00 
183 2 4 2.2559723595316457e+00 -3.8962147929616440e+04 1.0000000000000000e+00 1.8000000000000000e+01 4.0000000000000000e+00 2.5000000000000000e+00 
184 2 4 2.2559723595316457e+00 -7.8707987959006103e+04 1.0000000000000000e+00 1.8000000000000000e+01 6.0000000000000000e+00 2.5000000000000000e+00 
185 2 4 2.2559723595316457e+00 -1.2329485822900536e+05 1.0000000000000000e+00 1.8000000000000000e+01 8.0000000000000000e+00 2.5000000000000000e+00 
6 2 4 2.2559723595316457e+00 0.0000000000000000e+00 1.0000000000000000e+00 0.0000000000000000e+00 1.0000000000000000e+01 2.5000000000000000e+00 
7 2 4 2.2559723595316457e+00 0.0000000000000000e+00 1.0000000000000000e+00 0.0000000000000000e+00 1.2000000000000000e+01 2.5000000000000000e+00 
8 2 4 2.2559723595316457e+00 0.0000000000000000e+00 1.0000000000000000e+00 0.0000000000000000e+00 1.4000000000000000e+01 2.5000000000000000e+00 
9 2 4 2.2559723595316457e+00 0.0000000000000000e+00 1.0000000000000000e+00 0.0000000000000000e+00 1.6000000000000000e+01 2.5000000000000000e+00 
10 2 4 2.2559723595316457e+00 0.0000000000000000e+00 1.0000000000000000e+00 0.0000000000000000e+00 1.8000000000000000e+01 2.5000000000000000e+00 
26 2 4 2.2559723595316457e+00 0.0000000000000000e+00 1.0000000000000000e+00 2.0000000000000000e+00 1.0000000000000000e+01 2.5000000000000000e+00 
27 2 4 2.2559723595316457e+00 0.0000000000000000e+00 1.0000000000000000e+00 2.0000000000000000e+00 1.2000000000000000e+01 2.5000000000000000e+00 
28 2 4 2.2559723595316457e+00 0.0000000000000000e+00 1.0000000000000000e+00 2.0000000000000000e+00 1.4000000000000000e+01 2.5000000000000000e+00 
29 2 4 2.2559723595316457e+00 0.0000000000000000e+00 1.0000000000000000e+00 2.0000000000000000e+00 1.6000000000000000e+01 2.5000000000000000e+00 
30 2 4 2.2559723595316457e+00 0.0000000000000000e+00 1.0000000000000000e+00 2.0000000000000000e+00 1.8000000000000000e+01 2.5000000000000000e+00 
46 2 4 2.2559723595316457e+00 0.0000000000000000e+00 1.0000000000000000e+00 4.0000000000000000e+00 1.0000000000000000e+01 2.5000000000000000e+00 
47 2 4 2.2559723595316457e+00 0.0000000000000000e+00 1.0000000000000000e+00 4.0000000000000000e+00 1.2000000000000000e+01 2.5000000000000000e+00 
48 2 4 2.2559723595316457e+00 0.0000000000000000e+00 1.0000000000000000e+00 4.0000000000000000e+00 1.4000000000000000e+01 2.5000000000000000e+00 
49 2 4 2.2559723595316457e+00 0.0000000000000000e+00 1.0000000000000000e+00 4.0000000000000000e+00 1.6000000000000000e+01 2.5000000000000000e+00 
50 2 4 2.2559723595316457e+00 0.0000000000000000e+00 1.0000000000000000e+00 4.0000000000000000e+00 1.8000000000000000e+01 2.5000000000000000e+00 
66 2 4 2.2559723595316457e+00 -2.0338139439620154e+03 1.0000000000000000e+00 6.0000000000000000e+00 1.0000000000000000e+01 2.5000000000000000e+00 
67 2 4 2.2559723595316457e+00 -1.5044984297739556e+03 1.0000000000000000e+00 6.0000000000000000e+00 1.2000000000000000e+01 2.5000000000000000e+00 
68 2 4 2.2559723595316457e+00 -5.0131812675981496e+02 1.0000000000000000e+00 6.0000000000000000e+00 1.4000000000000000e+01 2.5000000000000000e+00 
69 2 4 2.2559723595316457e+00 -5.0131812713149174e+02 1.0000000000000000e+00 6.0000000000000000e+00 1.6000000000000000e+01 2.5000000000000000e+00 
70 2 4 2.2559723595316457e+00 -1.5045044055396611e+03 1.0000000000000000e+00 6.0000000000000000e+00 1.8000000000000000e+01 2.5000000000000000e+00 
86 2 4 2.2559723595316457e+00 -1.4345745785319577e+04 1.0000000000000000e+00 8.0000000000000000e+00 1.0000000000000000e+01 2.5000000000000000e+00 
87 2 4 2.2559723595316457e+00 -1.2104485464901321e+04 1.0000000000000000e+00 8.0000000000000000e+00 1.2000000000000000e+01 2.5000000000000000e+00 
88 2 4 2.2559723595316457e+00 -8.8479460736655383e+03 1.0000000000000000e+00 8.0000000000000000e+00 1.4000000000000000e+01 2.5000000000000000e+00 
89 2 4 2.2559723595316457e+00 -8.8582189963720266e+03 1.0000000000000000e+00 8.0000000000000000e+00 1.6000000000000000e+01 2.5000000000000000e+00 
90 2 4 2.2559723595316457e+00 -1.2133995357129614e+04 1.0000000000000000e+00 8.0000000000000000e+00 1.8000000000000000e+01 2.5000000000000000e+00 
106 2 4 2.2559723595316457e+00 -4.3292878487012116e+04 1.0000000000000000e+00 1.0000000000000000e+01 1.0000000000000000e+01 2.5000000000000000e+00 
107 2 4 2.2559723595316457e+00 -3.9624017046892339e+04 1.0000000000000000e+00 1.0000000000000000e+01 1.2000000000000000e+01 2.5000000000000000e+00 
108 2 4 2.2559723595316457e+00 -3.4651794601901129e+04 1.0000000000000000e+00 1.0000000000000000e+01 1.4000000000000000e+01 2.5000000000000000e+00 
109 2 4 2.2559723595316457e+00 -3.4701875587891853e+04 1.0000000000000000e+00 1.0000000000000000e+01 1.6000000000000000e+01 2.5000000000000000e+00 
110 2 4 2.2559723595316457e+00 -3.9730558828030713e+04 1.0000000000000000e+00 1.0000000000000000e+01 1.8000000000000000e+01 2.5000000000000000e+00 
126 2 4 2.2559723595316457e+00 -9.1704149096862704e+04 1.0000000000000000e+00 1.2000000000000000e+01 1.0000000000000000e+01 2.5000000000000000e+00 
127 2 4 2.2559723595316457e+00 -8.8178845655127225e+04 1.0000000000000000e+00 1.2000000000000000e+01 1.2000000000000000e+01 2.5000000000000000e+00 
128 2 4 2.2559723595316457e+00 -8.1023535096105086e+04 1.0000000000000000e+00 1.2000000000000000e+01 1.4000000000000000e+01 2.5000000000000000e+00 
129 2 4 2.2559723595316457e+00 -8.1132189748872712e+04 1.0000000000000000e+00 1.2000000000000000e+01 1.6000000000000000e+01 2.5000000000000000e+00 
130 2 4 2.2559723595316457e+00 -8.8326800514986127e+04 1.0000000000000000e+00 1.2000000000000000e+01 1.8000000000000000e+01 2.5000000000000000e+00 
146 2 4 2.2559723595316457e+00 -1.4731523132102424e+05 1.0000000000000000e+00 1.4000000000000000e+01 1.0000000000000000e+01 2.5000000000000000e+00 
147 2 4 2.2559723595316457e+00 -1.4478256973854732e+05 1.0000000000000000e+00 1.4000000000000000e+01 1.2000000000000000e+01 2.5000000000000000e+00 
148 2 4 2.2559723595316457e+00 -1.3515365081611040e+05 1.0000000000000000e+00 1.4000000000000000e+01 1.4000000000000000e+01 2.5000000000000000e+00 
149 2 4 2.2559723595316457e+00 -1.3539311341841085e+05 1.0000000000000000e+00 1.4000000000000000e+01 1.6000000000000000e+01 2.5000000000000000e+00 
150 2 4 2.2559723595316457e+00 -1.4507995293449459e+05 1.0000000000000000e+00 1.4000000000000000e+01 1.8000000000000000e+01 2.5000000000000000e+00 
166 2 4 2.2559723595316457e+00 -1.7385624594864470e+05 1.0000000000000000e+00 1.6000000000000000e+01 1.0000000000000000e+01 2.5000000000000000e+00 
167 2 4 2.2559723595316457e+00 -1.7193278752863419e+05 1.0000000000000000e+00 1.6000000000000000e+01 1.2000000000000000e+01 2.5000000000000000e+00 
168 2 4 2.2559723595316457e+00 -1.6106280978968533e+05 1.0000000000000000e+00 1.6000000000000000e+01 1.4000000000000000e+01 2.5000000000000000e+00 
169 2 4 2.2559723595316457e+00 -1.6138285782735475e+05 1.0000000000000000e+00 1.6000000000000000e+01 1.6000000000000000e+01 2.5000000000000000e+00 
170 2 4 2.2559723595316457e+00 -1.7233892432411277e+05 1.0000000000000000e+00 1.6000000000000000e+01 1.8000000000000000e+01 2.5000000000000000e+00 
186 2 4 2.2559723595316457e+00 -1.4731523132102424e+05 1.0000000000000000e+00 1.8000000000000000e+01 1.0000000000000000e+01 2.5000000000000000e+00 
187 2 4 2.2559723595316457e+00 -1.4478256973854732e+05 1.0000000000000000e+00 1.8000000000000000e+01 1.2000000000000000e+01 2.5000000000000000e+00 
188 2 4 2.2559723595316457e+00 -1.3515365081611040e+05 1.0000000000000000e+00 1.8000000000000000e+01 1.4000000000000000e+01 2.5000000000000000e+00 
189 2 4 2.2559723595316457e+00 -1.3539311341841085e+05 1.0000000000000000e+00 1.8000000000000000e+01 1.6000000000000000e+01 2.5000000000000000e+00 
190 2 4 2.2559723595316457e+00 -1.4507995293449459e+05 1.0000000000000000e+00 1.8000000000000000e+01 1.8000000000000000e+01 2.5000000000000000e+00 
405 7 2 1.0220000706259964e+00 2.2619012732090796e+06 1.0000000000000000e+00 1.6000000000000000e+01 1.0588996505739397e+01 2.2616864822390696e+01 
414 16 2 1.0220000706259964e+00 1.0208041718567820e+06 1.0000000000000000e+00 1.6000000000000000e+01 1.5795189622456949e+01 2.2414032179074720e+01 
410 12 2 1.0236134480262378e+00 -2.0518086922990154e+06 1.0000000000000000e+00 1.6000000000000000e+01 1.2151315143091226e+01 4.1433158212796677e+01 
417 19 2 1.0236414321483120e+00 1.3543831637096580e+06 1.0000000000000000e+00 1.6000000000000000e+01 1.6818294492299273e+01 4.3713378846605956e+01 
404 6 2 1.0293684425189211e+00 3.5028392269276432e+05 1.0000000000000000e+00 1.6000000000000000e+01 6.5396992259506881e+00 5.4143733031756653e+01 
412 14 2 1.0296429559439511e+00 9.7786818075902003e+05 1.0000000000000000e+00 1.6000000000000000e+01 2.1997003278325602e+00 5.6893961714733052e+01 
403 5 2 1.0285163650150932e+00 5.9998979274839181e+06 1.0000000000000000e+00 1.6000000000000000e+01 1.7908998622532042e+01 5.8849220292463436e+01 
401 3 2 1.0284935068892738e+00 -2.7887877471716772e+06 1.0000000000000000e+00 1.6000000000000000e+01 1.6350794429279539e+01 6.3754030629874805e+01 
11 2 4 2.2559723595316457e+00 0.0000000000000000e+00 1.0000000000000000e+00 0.0000000000000000e+00 2.0000000000000000e+01 2.5000000000000000e+00 
12 2 4 2.2559723595316457e+00 0.0000000000000000e+00 1.0000000000000000e+00 0.0000000000000000e+00 2.2000000000000000e+01 2.5000000000000000e+00 
13 2 4 2.2559723595316457e+00 0.0000000000000000e+00 1.0000000000000000e+00 0.0000000000000000e+00 2.4000000000000000e+01 2.5000000000000000e+00 
14 2 4 2.2559723595316457e+00 0.0000000000000000e+00 1.0000000000000000e+00 0.0000000000000000e+00 2.6000000000000000e+01 2.5000000000000000e+00 
15 2 4 2.2559723595316457e+00 0.0000000000000000e+00 1.0000000000000000e+00 0.0000000000000000e+00 2.8000000000000000e+01 2.5000000000000000e+00 
31 2 4 2.2559723595316457e+00 0.0000000000000000e+00 1.0000000000000000e+00 2.0000000000000000e+00 2.0000000000000000e+01 2.5000000000000000e+00 
32 2 4 2.2559723595316457e+00 0.0000000000000000e+00 1.0000000000000000e+00 2.0000000000000000e+00 2.2000000000000000e+01 2.5000000000000000e+00 
33 2 4 2.2559723595316457e+00 0.0000000000000000e+00 1.0000000000000000e+00 2.0000000000000000e+00 2.4000000000000000e+01 2.5000000000000000e+00 
34 2 4 2.2559723595316457e+00 0.0000000000000000e+00 1.0000000000000000e+00 2.0000000000000000e+00 2.6000000000000000e+01 2.5000000000000000e+00 
35 2 4 2.2559723595316457e+00 0.0000000000000000e+00 1.0000000000000000e+00 2.0000000000000000e+00 2.8000000000000000e+01 2.5000000000000000e+00 
51 2 4 2.2559723595316457e+00 0.0000000000000000e+00 1.0000000000000000e+00 4.0000000000000000e+00 2.0000000000000000e+01 2.5000000000000000e+00 
52 2 4 2.2559723595316457e+00 0.0000000000000000e+00 1.0000000000000000e+00 4.0000000000000000e+00 2.2000000000000000e+01 2.5000000000000000e+00 
53 2 4 2.2559723595316457e+00 0.0000000000000000e+00 1.0000000000000000e+00 4.0000000000000000e+00 2.4000000000000000e+01 2.5000000000000000e+00 
54 2 4 2.2559723595316457e+00 0.0000000000000000e+00 1.0000000000000000e+00 4.0000000000000000e+00 2.6000000000000000e+01 2.5000000000000000e+00 
55 2 4 2.2559723595316457e+00 0.0000000000000000e+00 1.0000000000000000e+00 4.0000000000000000e+00 2.8000000000000000e+01 2.5000000000000000e+00 
71 2 4 2.2559723595316457e+00 -2.0338349068249079e+03 1.0000000000000000e+00 6.0000000000000000e+00 2.0000000000000000e+01 2.5000000000000000e+00 
72 2 4 2.2559723595316457e+00 -1.5046164600259647e+03 1.0000000000000000e+00 6.0000000000000000e+00 2.2000000000000000e+01 2.5000000000000000e+00 
73 2 4 2.2559723595316457e+00 -4.9181568609033570e+02 1.0000000000000000e+00 6.0000000000000000e+00 2.4000000000000000e+01 2.5000000000000000e+00 
74 2 4 2.2559723595316457e+00 -9.7149959004624815e+00 1.0000000000000000e+00 6.0000000000000000e+00 2.6000000000000000e+01 2.5000000000000000e+00 
75 2 4 2.2559723595316457e+00 -3.6994758863801813e-01 1.0000000000000000e+00 6.0000000000000000e+00 2.8000000000000000e+01 2.5000000000000000e+00 
91 2 4 2.2559723595316457e+00 -1.4364035970900055e+04 1.0000000000000000e+00 8.0000000000000000e+00 2.0000000000000000e+01 2.5000000000000000e+00 
92 2 4 2.2559723595316457e+00 -1.2043115910612007e+04 1.0000000000000000e+00 8.0000000000000000e+00 2.2000000000000000e+01 2.5000000000000000e+00 
93 2 4 2.2559723595316457e+00 -6.7765637406303795e+03 1.0000000000000000e+00 8.0000000000000000e+00 2.4000000000000000e+01 2.5000000000000000e+00 
94 2 4 2.2559723595316457e+00 -2.0686412590553073e+03 1.0000000000000000e+00 8.0000000000000000e+00 2.6000000000000000e+01 2.5000000000000000e+00 
95 2 4 2.2559723595316457e+00 -2.0875289830117669e+02 1.0000000000000000e+00 8.0000000000000000e+00 2.8000000000000000e+01 2.5000000000000000e+00 
111 2 4 2.2559723595316457e+00 -4.3382259479763801e+04 1.0000000000000000e+00 1.0000000000000000e+01 2.0000000000000000e+01 2.5000000000000000e+00 
112 2 4 2.2559723595316457e+00 -3.7351154928350072e+04 1.0000000000000000e+00 1.0000000000000000e+01 2.2000000000000000e+01 2.5000000000000000e+00 
113 2 4 2.2559723595316457e+00 -2.3603060531496925e+04 1.0000000000000000e+00 1.0000000000000000e+01 2.4000000000000000e+01 2.5000000000000000e+00 
114 2 4 2.2559723595316457e+00 -1.0382934029138842e+04 1.0000000000000000e+00 1.0000000000000000e+01 2.6000000000000000e+01 2.5000000000000000e+00 
115 2 4 2.2559723595316457e+00 -2.9011766481527161e+03 1.0000000000000000e+00 1.0000000000000000e+01 2.8000000000000000e+01 2.5000000000000000e+00 
131 2 4 2.2559723595316457e+00 -9.1874377090556489e+04 1.0000000000000000e+00 1.2000000000000000e+01 2.0000000000000000e+01 2.5000000000000000e+00 
132 2 4 2.2559723595316457e+00 -7.8511283109974655e+04 1.0000000000000000e+00 1.2000000000000000e+01 2.2000000000000000e+01 2.5000000000000000e+00 
133 2 4 2.2559723595316457e+00 -5.0624110904566769e+04 1.0000000000000000e+00 1.2000000000000000e+01 2.4000000000000000e+01 2.5000000000000000e+00 
134 2 4 2.2559723595316457e+00 -2.4652798270462477e+04 1.0000000000000000e+00 1.2000000000000000e+01 2.6000000000000000e+01 2.5000000000000000e+00 
135 2 4 2.2559723595316457e+00 -9.1686131134279331e+03 1.0000000000000000e+00 1.2000000000000000e+01 2.8000000000000000e+01 2.5000000000000000e+00 
151 2 4 2.2559723595316457e+00 -1.4757178957671151e+05 1.0000000000000000e+00 1.4000000000000000e+01 2.0000000000000000e+01 2.5000000000000000e+00 
152 2 4 2.2559723595316457e+00 -1.2377599035737576e+05 1.0000000000000000e+00 1.4000000000000000e+01 2.2000000000000000e+01 2.5000000000000000e+00 
153 2 4 2.2559723595316457e+00 -7.9025126315645903e+04 1.0000000000000000e+00 1.4000000000000000e+01 2.4000000000000000e+01 2.5000000000000000e+00 
154 2 4 2.2559723595316457e+00 -3.9278822451216809e+04 1.0000000000000000e+00 1.4000000000000000e+01 2.6000000000000000e+01 2.5000000000000000e+00 
155 2 4 2.2559723595316457e+00 -1.5979716499508191e+04 1.0000000000000000e+00 1.4000000000000000e+01 2.8000000000000000e+01 2.5000000000000000e+00 
171 2 4 2.2559723595316457e+00 -1.7416943928412750e+05 1.0000000000000000e+00 1.6000000000000000e+01 2.0000000000000000e+01 2.5000000000000000e+00 
172 2 4 2.2559723595316457e+00 -1.4480023488631548e+05 1.0000000000000000e+00 1.6000000000000000e+01 2.2000000000000000e+01 2.5000000000000000e+00 
173 2 4 2.2559723595316457e+00 -9.1783123414025322e+04 1.0000000000000000e+00 1.6000000000000000e+01 2.4000000000000000e+01 2.5000000000000000e+00 
174 2 4 2.2559723595316457e+00 -4.5636972345018730e+04 1.0000000000000000e+00 1.6000000000000000e+01 2.6000000000000000e+01 2.5000000000000000e+00 
175 2 4 2.2559723595316457e+00 -1.8929030395233163e+04 1.0000000000000000e+00 1.6000000000000000e+01 2.8000000000000000e+01 2.5000000000000000e+00 
191 2 4 2.2559723595316457e+00 -1.4757178957671151e+05 1.0000000000000000e+00 1.8000000000000000e+01 2.0000000000000000e+01 2.5000000000000000e+00 
192 2 4 2.2559723595316457e+00 -1.2377599035737576e+05 1.0000000000000000e+00 1.8000000000000000e+01 2.2000000000000000e+01 2.5000000000000000e+00 
193 2 4 2.2559723595316457e+00 -7.9025126315645903e+04 1.0000000000000000e+00 1.8000000000000000e+01 2.4000000000000000e+01 2.5000000000000000e+00 
194 2 4 2.2559723595316457e+00 -3.9278822451216809e+04 1.0000000000000000e+00 1.8000000000000000e+01 2.6000000000000000e+01 2.5000000000000000e+00 
195 2 4 2.2559723595316457e+00 -1.5979716499508191e+04 1.0000000000000000e+00 1.8000000000000000e+01 2.8000000000000000e+01 2.5000000000000000e+00 
16 2 4 2.2559723595316457e+00 0.0000000000000000e+00 1.0000000000000000e+00 0.0000000000000000e+00 3.0000000000000000e+01 2.5000000000000000e+00 
17 2 4 2.2559723595316457e+00 0.0000000000000000e+00 1.0000000000000000e+00 0.0000000000000000e+00 3.2000000000000000e+01 2.5000000000000000e+00 
18 2 4 2.2559723595316457e+00 0.0000000000000000e+00 1.0000000000000000e+00 0.0000000000000000e+00 3.4000000000000000e+01 2.5000000000000000e+00 
19 2 4 2.2559723595316457e+00 0.0000000000000000e+00 1.0000000000000000e+00 0.0000000000000000e+00 3.6000000000000000e+01 2.5000000000000000e+00 
20 2 4 2.2559723595316457e+00 0.0000000000000000e+00 1.0000000000000000e+00 0.0000000000000000e+00 3.8000000000000000e+01 2.5000000000000000e+00 
36 2 4 2.2559723595316457e+00 0.0000000000000000e+00 1.0000000000000000e+00 2.0000000000000000e+00 3.0000000000000000e+01 2.5000000000000000e+00 
37 2 4 2.2559723595316457e+00 0.0000000000000000e+00 1.0000000000000000e+00 2.0000000000000000e+00 3.2000000000000000e+01 2.5000000000000000e+00 
38 2 4 2.2559723595316457e+00 0.0000000000000000e+00 1.0000000000000000e+00 2.0000000000000000e+00 3.4000000000000000e+01 2.5000000000000000e+00 
39 2 4 2.2559723595316457e+00 0.0000000000000000e+00 1.0000000000000000e+00 2.0000000000000000e+00 3.6000000000000000e+01 2.5000000000000000e+00 
40 2 4 2.2559723595316457e+00 0.0000000000000000e+00 1.0000000000000000e+00 2.0000000000000000e+00 3.8000000000000000e+01 2.5000000000000000e+00 
56 2 4 2.2559723595316457e+00 0.0000000000000000e+00 1.0000000000000000e+00 4.0000000000000000e+00 3.0000000000000000e+01 2.5000000000000000e+00 
57 2 4 2.2559723595316457e+00 0.0000000000000000e+00 1.0000000000000000e+00 4.0000000000000000e+00 3.2000000000000000e+01 2.5000000000000000e+00 
58 2 4 2.2559723595316457e+00 0.0000000000000000e+00 1.0000000000000000e+00 4.0000000000000000e+00 3.4000000000000000e+01 2.5000000000000000e+00 
59 2 4 2.2559723595316457e+00 0.0000000000000000e+00 1.0000000000000000e+00 4.0000000000000000e+00 3.6000000000000000e+01 2.5000000000000000e+00 
60 2 4 2.2559723595316457e+00 0.0000000000000000e+00 1.0000000000000000e+00 4.0000000000000000e+00 3.8000000000000000e+01 2.5000000000000000e+00 
76 2 4 2.2559723595316457e+00 -7.2215577634808970e-01 1.0000000000000000e+00 6.0000000000000000e+00 3.0000000000000000e+01 2.5000000000000000e+00 
77 2 4 2.2559723595316457e+00 -1.5690711362799389e-01 1.0000000000000000e+00 6.0000000000000000e+00 3.2000000000000000e+01 2.5000000000000000e+00 
78 2 4 2.2559723595316457e+00 -1.6306852223488592e-02 1.0000000000000000e+00 6.0000000000000000e+00 3.4000000000000000e+01 2.5000000000000000e+00 
79 2 4 2.2559723595316457e+00 -1.6064916575396410e-02 1.0000000000000000e+00 6.0000000000000000e+00 3.6000000000000000e+01 2.5000000000000000e+00 
80 2 4 2.2559723595316457e+00 -1.5596368673093272e-01 1.0000000000000000e+00 6.0000000000000000e+00 3.8000000000000000e+01 2.5000000000000000e+00 
96 2 4 2.2559723595316457e+00 -1.8914381234004523e+02 1.0000000000000000e+00 8.0000000000000000e+00 3.0000000000000000e+01 2.5000000000000000e+00 
97 2 4 2.2559723595316457e+00 -1.8488208912999704e+02 1.0000000000000000e+00 8.0000000000000000e+00 3.2000000000000000e+01 2.5000000000000000e+00 
98 2 4 2.2559723595316457e+00 -1.4633493442550369e+02 1.0000000000000000e+00 8.0000000000000000e+00 3.4000000000000000e+01 2.5000000000000000e+00 
99 2 4 2.2559723595316457e+00 -1.2519137750489236e+02 1.0000000000000000e+00 8.0000000000000000e+00 3.6000000000000000e+01 2.5000000000000000e+00 
100 2 4 2.2559723595316457e+00 -1.0960833533651319e+02 1.0000000000000000e+00 8.0000000000000000e+00 3.8000000000000000e+01 2.5000000000000000e+00 
116 2 4 2.2559723595316457e+00 -1.3306898839781093e+03 1.0000000000000000e+00 1.0000000000000000e+01 3.0000000000000000e+01 2.5000000000000000e+00 
117 2 4 2.2559723595316457e+00 -1.4864581640429392e+03 1.0000000000000000e+00 1.0000000000000000e+01 3.2000000000000000e+01 2.5000000000000000e+00 
118 2 4 2.2559723595316457e+00 -1.4159267201098464e+03 1.0000000000000000e+00 1.0000000000000000e+01 3.4000000000000000e+01 2.5000000000000000e+00 
119 2 4 2.2559723595316457e+00 -1.1887232985651526e+03 1.0000000000000000e+00 1.0000000000000000e+01 3.6000000000000000e+01 2.5000000000000000e+00 
120 2 4 2.2559723595316457e+00 -9.8548792505558754e+02 1.0000000000000000e+00 1.0000000000000000e+01 3.8000000000000000e+01 2.5000000000000000e+00 
136 2 4 2.2559723595316457e+00 -4.0376978397253865e+03 1.0000000000000000e+00 1.2000000000000000e+01 3.0000000000000000e+01 2.5000000000000000e+00 
137 2 4 2.2559723595316457e+00 -4.3290179612009224e+03 1.0000000000000000e+00 1.2000000000000000e+01 3.2000000000000000e+01 2.5000000000000000e+00 
138 2 4 2.2559723595316457e+00 -4.4281075007086938e+03 1.0000000000000000e+00 1.2000000000000000e+01 3.4000000000000000e+01 2.5000000000000000e+00 
139 2 4 2.2559723595316457e+00 -3.9044389176985615e+03 1.0000000000000000e+00 1.2000000000000000e+01 3.6000000000000000e+01 2.5000000000000000e+00 
140 2 4 2.2559723595316457e+00 -3.1905306941756307e+03 1.0000000000000000e+00 1.2000000000000000e+01 3.8000000000000000e+01 2.5000000000000000e+00 
156 2 4 2.2559723595316457e+00 -7.3308101338704528e+03 1.0000000000000000e+00 1.4000000000000000e+01 3.0000000000000000e+01 2.5000000000000000e+00 
157 2 4 2.2559723595316457e+00 -7.5330298196474669e+03 1.0000000000000000e+00 1.4000000000000000e+01 3.2000000000000000e+01 2.5000000000000000e+00 
158 2 4 2.2559723595316457e+00 -7.9790745248247658e+03 1.0000000000000000e+00 1.4000000000000000e+01 3.4000000000000000e+01 2.5000000000000000e+00 
159 2 4 2.2559723595316457e+00 -7.1716952365920843e+03 1.0000000000000000e+00 1.4000000000000000e+01 3.6000000000000000e+01 2.5000000000000000e+00 
160 2 4 2.2559723595316457e+00 -5.8356725061498673e+03 1.0000000000000000e+00 1.4000000000000000e+01 3.8000000000000000e+01 2.5000000000000000e+00 
176 2 4 2.2559723595316457e+00 -8.8204326466164021e+03 1.0000000000000000e+00 1.6000000000000000e+01 3.0000000000000000e+01 2.5000000000000000e+00 
177 2 4 2.2559723595316457e+00 -8.9522568037916390e+03 1.0000000000000000e+00 1.6000000000000000e+01 3.2000000000000000e+01 2.5000000000000000e+00 
178 2 4 2.2559723595316457e+00 -9.5906841366596127e+03 1.0000000000000000e+00 1.6000000000000000e+01 3.4000000000000000e+01 2.5000000000000000e+00 