LAMMPS data file via write_data, version 30 Jul 2016, timestep = 600000

2080 atoms
8 atom types

0.0000000000000000e+00 4.0000000000000000e+01 xlo xhi
0.0000000000000000e+00 4.0000000000000000e+01 ylo yhi
0.0000000000000000e+00 1.0000000000000000e+02 zlo zhi

Masses

1 3.896
2 50.36
3 1058.08
4 8.378
5 8.378
6 8.378
7 8.378
8 8.378

Atoms # meso-molecular

1 2 4 2.2559723595316457e+00 1.5211189762474125e+05 1.0000000000000000e+00 0.0000000000000000e+00 0.0000000000000000e+00 2.5000000000000000e+00 
2 2 4 2.2559723595316457e+00 1.5562833600704739e+05 1.0000000000000000e+00 0.0000000000000000e+00 2.0000000000000000e+00 2.5000000000000000e+00 
3 2 4 2.2559723595316457e+00 1.6448350214608380e+05 1.0000000000000000e+00 0.0000000000000000e+00 4.0000000000000000e+00 2.5000000000000000e+00 
4 2 4 2.2559723595316457e+00 1.6674001337396208e+05 1.0000000000000000e+00 0.0000000000000000e+00 6.0000000000000000e+00 2.5000000000000000e+00 
5 2 4 2.2559723595316457e+00 1.5268176382752252e+05 1.0000000000000000e+00 0.0000000000000000e+00 8.0000000000000000e+00 2.5000000000000000e+00 
21 2 4 2.2559723595316457e+00 1.5129802073432738e+05 1.0000000000000000e+00 2.0000000000000000e+00 0.0000000000000000e+00 2.5000000000000000e+00 
22 2 4 2.2559723595316457e+00 1.6008293574120547e+05 1.0000000000000000e+00 2.0000000000000000e+00 2.0000000000000000e+00 2.5000000000000000e+00 
23 2 4 2.2559723595316457e+00 1.7070511907136231e+05 1.0000000000000000e+00 2.0000000000000000e+00 4.0000000000000000e+00 2.5000000000000000e+00 
24 2 4 2.2559723595316457e+00 1.7149205607360834e+05 1.0000000000000000e+00 2.0000000000000000e+00 6.0000000000000000e+00 2.5000000000000000e+00 
25 2 4 2.2559723595316457e+00 1.5778737758859590e+05 1.0000000000000000e+00 2.0000000000000000e+00 8.0000000000000000e+00 2.5000000000000000e+00 
41 2 4 2.2559723595316457e+00 1.4432289196973317e+05 1.0000000000000000e+00 4.0000000000000000e+00 0.0000000000000000e+00 2.5000000000000000e+00 
42 2 4 2.2559723595316457e+00 1.5840454206010618e+05 1.0000000000000000e+00 4.0000000000000000e+00 2.0000000000000000e+00 2.5000000000000000e+00 
43 2 4 2.2559723595316457e+00 1.7305147057334421e+05 1.0000000000000000e+00 4.0000000000000000e+00 4.0000000000000000e+00 2.5000000000000000e+00 
44 2 4 2.2559723595316457e+00 1.7574333927474840e+05 1.0000000000000000e+00 4.0000000000000000e+00 6.0000000000000000e+00 2.5000000000000000e+00 
45 2 4 2.2559723595316457e+00 1.6404856582764100e+05 1.0000000000000000e+00 4.0000000000000000e+00 8.0000000000000000e+00 2.5000000000000000e+00 
61 2 4 2.2559723595316457e+00 1.3750572674242145e+05 1.0000000000000000e+00 6.0000000000000000e+00 0.0000000000000000e+00 2.5000000000000000e+00 
62 2 4 2.2559723595316457e+00 1.5516255571720243e+05 1.0000000000000000e+00 6.0000000000000000e+00 2.0000000000000000e+00 2.5000000000000000e+00 
63 2 4 2.2559723595316457e+00 1.7489862857711007e+05 1.0000000000000000e+00 6.0000000000000000e+00 4.0000000000000000e+00 2.5000000000000000e+00 
64 2 4 2.2559723595316457e+00 1.8080832840677915e+05 1.0000000000000000e+00 6.0000000000000000e+00 6.0000000000000000e+00 2.5000000000000000e+00 
65 2 4 2.2559723595316457e+00 1.7036321576258459e+05 1.0000000000000000e+00 6.0000000000000000e+00 8.0000000000000000e+00 2.5000000000000000e+00 
81 2 4 2.2559723595316457e+00 1.3580417407532170e+05 1.0000000000000000e+00 8.0000000000000000e+00 0.0000000000000000e+00 2.5000000000000000e+00 
82 2 4 2.2559723595316457e+00 1.5436554527380143e+05 1.0000000000000000e+00 8.0000000000000000e+00 2.0000000000000000e+00 2.5000000000000000e+00 
83 2 4 2.2559723595316457e+00 1.7453476810865756e+05 1.0000000000000000e+00 8.0000000000000000e+00 4.0000000000000000e+00 2.5000000000000000e+00 
84 2 4 2.2559723595316457e+00 1.8197409257846751e+05 1.0000000000000000e+00 8.0000000000000000e+00 6.0000000000000000e+00 2.5000000000000000e+00 
85 2 4 2.2559723595316457e+00 1.7391291792926902e+05 1.0000000000000000e+00 8.0000000000000000e+00 8.0000000000000000e+00 2.5000000000000000e+00 
101 2 4 2.2559723595316457e+00 1.3614981416151463e+05 1.0000000000000000e+00 1.0000000000000000e+01 0.0000000000000000e+00 2.5000000000000000e+00 
102 2 4 2.2559723595316457e+00 1.5264227702670236e+05 1.0000000000000000e+00 1.0000000000000000e+01 2.0000000000000000e+00 2.5000000000000000e+00 
103 2 4 2.2559723595316457e+00 1.7129410835999128e+05 1.0000000000000000e+00 1.0000000000000000e+01 4.0000000000000000e+00 2.5000000000000000e+00 
104 2 4 2.2559723595316457e+00 1.7989040751976898e+05 1.0000000000000000e+00 1.0000000000000000e+01 6.0000000000000000e+00 2.5000000000000000e+00 
105 2 4 2.2559723595316457e+00 1.7610280467571609e+05 1.0000000000000000e+00 1.0000000000000000e+01 8.0000000000000000e+00 2.5000000000000000e+00 
121 2 4 2.2559723595316457e+00 1.3267689620111196e+05 1.0000000000000000e+00 1.2000000000000000e+01 0.0000000000000000e+00 2.5000000000000000e+00 
122 2 4 2.2559723595316457e+00 1.4845213027838001e+05 1.0000000000000000e+00 1.2000000000000000e+01 2.0000000000000000e+00 2.5000000000000000e+00 
123 2 4 2.2559723595316457e+00 1.6671879029543477e+05 1.0000000000000000e+00 1.2000000000000000e+01 4.0000000000000000e+00 2.5000000000000000e+00 
124 2 4 2.2559723595316457e+00 1.7600289097965905e+05 1.0000000000000000e+00 1.2000000000000000e+01 6.0000000000000000e+00 2.5000000000000000e+00 
125 2 4 2.2559723595316457e+00 1.7506535203934513e+05 1.0000000000000000e+00 1.2000000000000000e+01 8.0000000000000000e+00 2.5000000000000000e+00 
141 2 4 2.2559723595316457e+00 1.2952338727157784e+05 1.0000000000000000e+00 1.4000000000000000e+01 0.0000000000000000e+00 2.5000000000000000e+00 
142 2 4 2.2559723595316457e+00 1.4423195839772362e+05 1.0000000000000000e+00 1.4000000000000000e+01 2.0000000000000000e+00 2.5000000000000000e+00 
143 2 4 2.2559723595316457e+00 1.6004436850135948e+05 1.0000000000000000e+00 1.4000000000000000e+01 4.0000000000000000e+00 2.5000000000000000e+00 
144 2 4 2.2559723595316457e+00 1.6779337304178841e+05 1.0000000000000000e+00 1.4000000000000000e+01 6.0000000000000000e+00 2.5000000000000000e+00 
145 2 4 2.2559723595316457e+00 1.6278228265920316e+05 1.0000000000000000e+00 1.4000000000000000e+01 8.0000000000000000e+00 2.5000000000000000e+00 
161 2 4 2.2559723595316457e+00 1.2105373379828036e+05 1.0000000000000000e+00 1.6000000000000000e+01 0.0000000000000000e+00 2.5000000000000000e+00 
162 2 4 2.2559723595316457e+00 1.3549489747867978e+05 1.0000000000000000e+00 1.6000000000000000e+01 2.0000000000000000e+00 2.5000000000000000e+00 
163 2 4 2.2559723595316457e+00 1.5052216004029237e+05 1.0000000000000000e+00 1.6000000000000000e+01 4.0000000000000000e+00 2.5000000000000000e+00 
164 2 4 2.2559723595316457e+00 1.5614288746722025e+05 1.0000000000000000e+00 1.6000000000000000e+01 6.0000000000000000e+00 2.5000000000000000e+00 
165 2 4 2.2559723595316457e+00 1.4177609020875930e+05 1.0000000000000000e+00 1.6000000000000000e+01 8.0000000000000000e+00 2.5000000000000000e+00 
181 2 4 2.2559723595316457e+00 1.1075397592714606e+05 1.0000000000000000e+00 1.8000000000000000e+01 0.0000000000000000e+00 2.5000000000000000e+00 
182 2 4 2.2559723595316457e+00 1.2526953596362463e+05 1.0000000000000000e+00 1.8000000000000000e+01 2.0000000000000000e+00 2.5000000000000000e+00 
183 2 4 2.2559723595316457e+00 1.4252925863526191e+05 1.0000000000000000e+00 1.8000000000000000e+01 4.0000000000000000e+00 2.5000000000000000e+00 
184 2 4 2.2559723595316457e+00 1.4740001664718497e+05 1.0000000000000000e+00 1.8000000000000000e+01 6.0000000000000000e+00 2.5000000000000000e+00 
185 2 4 2.2559723595316457e+00 1.2410405158173753e+05 1.0000000000000000e+00 1.8000000000000000e+01 8.0000000000000000e+00 2.5000000000000000e+00 
6 2 4 2.2559723595316457e+00 1.3511633590682806e+05 1.0000000000000000e+00 0.0000000000000000e+00 1.0000000000000000e+01 2.5000000000000000e+00 
7 2 4 2.2559723595316457e+00 1.2135289020861380e+05 1.0000000000000000e+00 0.0000000000000000e+00 1.2000000000000000e+01 2.5000000000000000e+00 
8 2 4 2.2559723595316457e+00 1.1182463020530634e+05 1.0000000000000000e+00 0.0000000000000000e+00 1.4000000000000000e+01 2.5000000000000000e+00 
9 2 4 2.2559723595316457e+00 1.1105689634789497e+05 1.0000000000000000e+00 0.0000000000000000e+00 1.6000000000000000e+01 2.5000000000000000e+00 
10 2 4 2.2559723595316457e+00 1.1658898079077128e+05 1.0000000000000000e+00 0.0000000000000000e+00 1.8000000000000000e+01 2.5000000000000000e+00 
26 2 4 2.2559723595316457e+00 1.3789054901114246e+05 1.0000000000000000e+00 2.0000000000000000e+00 1.0000000000000000e+01 2.5000000000000000e+00 
27 2 4 2.2559723595316457e+00 1.2071029772363824e+05 1.0000000000000000e+00 2.0000000000000000e+00 1.2000000000000000e+01 2.5000000000000000e+00 
28 2 4 2.2559723595316457e+00 1.1143569383160421e+05 1.0000000000000000e+00 2.0000000000000000e+00 1.4000000000000000e+01 2.5000000000000000e+00 
29 2 4 2.2559723595316457e+00 1.0997853316327199e+05 1.0000000000000000e+00 2.0000000000000000e+00 1.6000000000000000e+01 2.5000000000000000e+00 
30 2 4 2.2559723595316457e+00 1.1243719215578609e+05 1.0000000000000000e+00 2.0000000000000000e+00 1.8000000000000000e+01 2.5000000000000000e+00 
46 2 4 2.2559723595316457e+00 1.4329035314503062e+05 1.0000000000000000e+00 4.0000000000000000e+00 1.0000000000000000e+01 2.5000000000000000e+00 
47 2 4 2.2559723595316457e+00 1.2368452222592397e+05 1.0000000000000000e+00 4.0000000000000000e+00 1.2000000000000000e+01 2.5000000000000000e+00 
48 2 4 2.2559723595316457e+00 1.1285388281761401e+05 1.0000000000000000e+00 4.0000000000000000e+00 1.4000000000000000e+01 2.5000000000000000e+00 
49 2 4 2.2559723595316457e+00 1.0832557581985500e+05 1.0000000000000000e+00 4.0000000000000000e+00 1.6000000000000000e+01 2.5000000000000000e+00 
50 2 4 2.2559723595316457e+00 1.0671539991771031e+05 1.0000000000000000e+00 4.0000000000000000e+00 1.8000000000000000e+01 2.5000000000000000e+00 
66 2 4 2.2559723595316457e+00 1.4958036372539005e+05 1.0000000000000000e+00 6.0000000000000000e+00 1.0000000000000000e+01 2.5000000000000000e+00 
67 2 4 2.2559723595316457e+00 1.2934035686206733e+05 1.0000000000000000e+00 6.0000000000000000e+00 1.2000000000000000e+01 2.5000000000000000e+00 
68 2 4 2.2559723595316457e+00 1.1813138813576342e+05 1.0000000000000000e+00 6.0000000000000000e+00 1.4000000000000000e+01 2.5000000000000000e+00 
69 2 4 2.2559723595316457e+00 1.1451580444555255e+05 1.0000000000000000e+00 6.0000000000000000e+00 1.6000000000000000e+01 2.5000000000000000e+00 
70 2 4 2.2559723595316457e+00 1.1222478133811550e+05 1.0000000000000000e+00 6.0000000000000000e+00 1.8000000000000000e+01 2.5000000000000000e+00 
86 2 4 2.2559723595316457e+00 1.5612832640169922e+05 1.0000000000000000e+00 8.0000000000000000e+00 1.0000000000000000e+01 2.5000000000000000e+00 
87 2 4 2.2559723595316457e+00 1.3974521181224467e+05 1.0000000000000000e+00 8.0000000000000000e+00 1.2000000000000000e+01 2.5000000000000000e+00 
88 2 4 2.2559723595316457e+00 1.3410653761795431e+05 1.0000000000000000e+00 8.0000000000000000e+00 1.4000000000000000e+01 2.5000000000000000e+00 
89 2 4 2.2559723595316457e+00 1.3596106554256013e+05 1.0000000000000000e+00 8.0000000000000000e+00 1.6000000000000000e+01 2.5000000000000000e+00 
90 2 4 2.2559723595316457e+00 1.3611232457114919e+05 1.0000000000000000e+00 8.0000000000000000e+00 1.8000000000000000e+01 2.5000000000000000e+00 
106 2 4 2.2559723595316457e+00 1.6612380874027271e+05 1.0000000000000000e+00 1.0000000000000000e+01 1.0000000000000000e+01 2.5000000000000000e+00 
107 2 4 2.2559723595316457e+00 1.5996383924144116e+05 1.0000000000000000e+00 1.0000000000000000e+01 1.2000000000000000e+01 2.5000000000000000e+00 
108 2 4 2.2559723595316457e+00 1.6496258009830758e+05 1.0000000000000000e+00 1.0000000000000000e+01 1.4000000000000000e+01 2.5000000000000000e+00 
109 2 4 2.2559723595316457e+00 1.7452852569131047e+05 1.0000000000000000e+00 1.0000000000000000e+01 1.6000000000000000e+01 2.5000000000000000e+00 
110 2 4 2.2559723595316457e+00 1.7944380396600463e+05 1.0000000000000000e+00 1.0000000000000000e+01 1.8000000000000000e+01 2.5000000000000000e+00 
126 2 4 2.2559723595316457e+00 1.7023015584943141e+05 1.0000000000000000e+00 1.2000000000000000e+01 1.0000000000000000e+01 2.5000000000000000e+00 
127 2 4 2.2559723595316457e+00 1.6986334634454211e+05 1.0000000000000000e+00 1.2000000000000000e+01 1.2000000000000000e+01 2.5000000000000000e+00 
128 2 4 2.2559723595316457e+00 1.7787230900834617e+05 1.0000000000000000e+00 1.2000000000000000e+01 1.4000000000000000e+01 2.5000000000000000e+00 
129 2 4 2.2559723595316457e+00 1.9054074066596711e+05 1.0000000000000000e+00 1.2000000000000000e+01 1.6000000000000000e+01 2.5000000000000000e+00 
130 2 4 2.2559723595316457e+00 1.9839387513879564e+05 1.0000000000000000e+00 1.2000000000000000e+01 1.8000000000000000e+01 2.5000000000000000e+00 
146 2 4 2.2559723595316457e+00 1.4783245672466123e+05 1.0000000000000000e+00 1.4000000000000000e+01 1.0000000000000000e+01 2.5000000000000000e+00 
147 2 4 2.2559723595316457e+00 1.3179378187047684e+05 1.0000000000000000e+00 1.4000000000000000e+01 1.2000000000000000e+01 2.5000000000000000e+00 
148 2 4 2.2559723595316457e+00 1.2333391704446825e+05 1.0000000000000000e+00 1.4000000000000000e+01 1.4000000000000000e+01 2.5000000000000000e+00 
149 2 4 2.2559723595316457e+00 1.2534980476118939e+05 1.0000000000000000e+00 1.4000000000000000e+01 1.6000000000000000e+01 2.5000000000000000e+00 
150 2 4 2.2559723595316457e+00 1.3064826885796126e+05 1.0000000000000000e+00 1.4000000000000000e+01 1.8000000000000000e+01 2.5000000000000000e+00 
166 2 4 2.2559723595316457e+00 1.0099005241709869e+05 1.0000000000000000e+00 1.6000000000000000e+01 1.0000000000000000e+01 2.5000000000000000e+00 
167 2 4 2.2559723595316457e+00 4.3827372012669977e+04 1.0000000000000000e+00 1.6000000000000000e+01 1.2000000000000000e+01 2.5000000000000000e+00 
168 2 4 2.2559723595316457e+00 -5.8519185084449673e+03 1.0000000000000000e+00 1.6000000000000000e+01 1.4000000000000000e+01 2.5000000000000000e+00 
169 2 4 2.2559723595316457e+00 -3.2525946502561797e+04 1.0000000000000000e+00 1.6000000000000000e+01 1.6000000000000000e+01 2.5000000000000000e+00 
170 2 4 2.2559723595316457e+00 -3.9126807600500353e+04 1.0000000000000000e+00 1.6000000000000000e+01 1.8000000000000000e+01 2.5000000000000000e+00 
186 2 4 2.2559723595316457e+00 5.8862094909445514e+04 1.0000000000000000e+00 1.8000000000000000e+01 1.0000000000000000e+01 2.5000000000000000e+00 
187 2 4 2.2559723595316457e+00 -4.0138314733468782e+04 1.0000000000000000e+00 1.8000000000000000e+01 1.2000000000000000e+01 2.5000000000000000e+00 
188 2 4 2.2559723595316457e+00 -1.3338708355417353e+05 1.0000000000000000e+00 1.8000000000000000e+01 1.4000000000000000e+01 2.5000000000000000e+00 
189 2 4 2.2559723595316457e+00 -1.8898595699357637e+05 1.0000000000000000e+00 1.8000000000000000e+01 1.6000000000000000e+01 2.5000000000000000e+00 
190 2 4 2.2559723595316457e+00 -2.0837093344048219e+05 1.0000000000000000e+00 1.8000000000000000e+01 1.8000000000000000e+01 2.5000000000000000e+00 
781 383 2 1.0307361434368041e+00 7.0107908804002823e+06 1.0000000000000000e+00 9.0996026795608991e+00 6.3673293510182560e-01 2.2778170989738499e+01 
909 511 2 1.0276194746875296e+00 1.0044631235631423e+07 1.0000000000000000e+00 8.4086587096142882e+00 8.7236669593666194e-01 2.2996953546104528e+01 
758 360 2 1.0295887911907378e+00 -1.0088302578914816e+07 1.0000000000000000e+00 6.5236776661540912e+00 5.0548714912055248e-01 2.3662912917578513e+01 
675 277 2 1.0286891839565724e+00 7.7079929837419009e+06 1.0000000000000000e+00 8.6819419353282576e+00 1.0261109356758344e+00 2.2974882613773286e+01 
1689 1291 2 1.0261056726894220e+00 6.5727646328359265e+06 1.0000000000000000e+00 6.3993118849234616e+00 1.0302534294650370e+00 2.3874545274980260e+01 
1181 783 2 1.0290409787620414e+00 -2.1836926015818543e+06 1.0000000000000000e+00 8.4348905619799268e+00 1.4806251531507515e+00 2.3210083816202719e+01 
964 566 2 1.0277500641986206e+00 1.0621215944400623e+06 1.0000000000000000e+00 9.9602403714317966e-01 5.3413451734374096e-01 2.3309201162547190e+01 
1080 682 2 1.0249453444369110e+00 9.6245288501398657e+06 1.0000000000000000e+00 4.1862297044308230e+00 1.3451624596951741e+00 2.4580805080823485e+01 
1968 1570 2 1.0270761180509536e+00 1.5063137197566984e+07 1.0000000000000000e+00 7.3994899717631757e+00 5.9810692724328192e+00 2.4790228925893157e+01 
488 90 2 1.0293537973021221e+00 1.5157670567200340e+07 1.0000000000000000e+00 9.9736086113571776e-01 1.1953245765449019e+00 2.3382261699966545e+01 
518 120 2 1.0291545605361920e+00 1.4441617840247754e+07 1.0000000000000000e+00 6.0616740723047935e-01 3.2393796314601842e+00 2.2891803525822301e+01 
833 435 2 1.0268305320173374e+00 8.1310464985880926e+06 1.0000000000000000e+00 6.1780844829920936e+00 8.3310577746676078e+00 2.4442155191510274e+01 
701 303 2 1.0270841439463683e+00 1.2941939190720014e+07 1.0000000000000000e+00 6.2833239758602186e+00 8.6926810827032703e+00 2.4523890812286155e+01 
1993 1595 2 1.0309651832770002e+00 1.6440256703469189e+07 1.0000000000000000e+00 5.2711515668737903e+00 8.7220673596827414e+00 2.4098771618527053e+01 
1334 936 2 1.0266037674358934e+00 -3.6997471144264519e+07 1.0000000000000000e+00 4.2552191521257416e+00 8.9728493203540385e+00 2.3475145177256515e+01 
1763 1365 2 1.0273982826839370e+00 9.0176219508786201e+06 1.0000000000000000e+00 3.3641544158272891e+00 9.9322783601875990e+00 2.3117541763978732e+01 
1309 911 2 1.0252870136188426e+00 -3.2892589954896830e+06 1.0000000000000000e+00 1.0532036101051292e+01 6.1186914519687639e+00 2.4279810802235801e+01 
1367 969 2 1.0257189411583456e+00 -3.8576693241889372e+07 1.0000000000000000e+00 1.3098523504924936e+01 2.4378389871323858e+00 2.3409465675945690e+01 
1630 1232 2 1.0279881196433718e+00 -9.1095485430681054e+06 1.0000000000000000e+00 1.3353520537742144e+01 3.2566666763544232e+00 2.3797030407520111e+01 
1331 933 2 1.0267147201615472e+00 -3.8591284785614379e+07 1.0000000000000000e+00 1.5942080221319580e+01 1.0437576227185010e+00 2.4655607754301748e+01 
432 34 2 1.0267385744209256e+00 1.4268531497748598e+07 1.0000000000000000e+00 1.1108680487179946e+01 5.2623982602457566e+00 2.3961838984874525e+01 
681 283 2 1.0279608405801053e+00 1.2804755827581195e+07 1.0000000000000000e+00 1.5020704698940175e+01 3.2821209291658286e+00 2.4696665376732909e+01 
1520 1122 2 1.0277354947765585e+00 -8.1412345580660319e+05 1.0000000000000000e+00 1.5416301607713470e+01 1.1656832227819656e+00 2.4344860911450876e+01 
1231 833 2 1.0259202674628376e+00 -1.0847379516703030e+07 1.0000000000000000e+00 1.5682709432033532e+01 3.1008474312516604e-01 2.4318602638605984e+01 
1714 1316 2 1.0257935248729866e+00 -1.0971146460627554e+07 1.0000000000000000e+00 1.1659363230864674e+01 6.7856242227536141e+00 2.4577064870495221e+01 
1136 738 2 1.0275099971826895e+00 -4.2564138836614406e+06 1.0000000000000000e+00 1.5221254223272116e+01 2.4805324438407745e+00 2.4552472784381120e+01 
1912 1514 2 1.0246969412496874e+00 1.4228346939550707e+07 1.0000000000000000e+00 1.5818873881265459e+01 7.5746634658963208e-01 2.4470229307758764e+01 
1642 1244 2 1.0267189999747846e+00 -8.6807680921759978e+06 1.0000000000000000e+00 1.2587759238022739e+01 2.6113604568221122e-01 2.2710004920055770e+01 
936 538 2 1.0324888587522474e+00 -7.1002432774297218e+05 1.0000000000000000e+00 2.1645025353502971e+00 1.0433349867848667e+01 2.2681958731286475e+01 
792 394 2 1.0267543052590986e+00 7.7210393714863854e+06 1.0000000000000000e+00 4.7023178818542908e+00 1.1189728475450035e+01 2.4029704046783607e+01 
1088 690 2 1.0302533551316149e+00 3.3772605220659840e+04 1.0000000000000000e+00 2.7238153849757318e+00 1.2268325140629166e+01 2.3201711651463309e+01 
736 338 2 1.0261863215886435e+00 1.4246561482605243e+07 1.0000000000000000e+00 2.4443447864021528e+00 1.2982811246598580e+01 2.3151336303535988e+01 
1795 1397 2 1.0280989140911505e+00 9.0535437763843238e+06 1.0000000000000000e+00 4.6142896667165587e+00 1.4915173305267505e+01 2.4380263803445963e+01 
1216 818 2 1.0282707670465530e+00 -4.6777605468813973e+06 1.0000000000000000e+00 5.4631744217358964e+00 1.7577313352790860e+01 2.4134897963848012e+01 
2048 1650 2 1.0246772093040868e+00 1.5007861734468734e+07 1.0000000000000000e+00 3.8419044519826309e+00 1.5761629816419212e+01 2.3977578138251705e+01 
509 111 2 1.0271539213455572e+00 1.5021208966172438e+07 1.0000000000000000e+00 6.8318967451656043e+00 1.9383488888911021e+01 2.3749107020519702e+01 
2069 1671 2 1.0267411976072085e+00 1.5245853371481376e+07 1.0000000000000000e+00 5.1049077102409637e+00 1.9973003552442066e+01 2.3103394997261919e+01 
1387 989 2 1.0279080353274346e+00 -3.6080256984635949e+07 1.0000000000000000e+00 6.6819661485728803e+00 1.9562435668796109e+01 2.3676525773256074e+01 
1821 1423 2 1.0262058943544143e+00 1.4302850727881074e+07 1.0000000000000000e+00 3.7254864951664923e+00 1.9655536612183855e+01 2.2941173069987563e+01 
572 174 2 1.0279095691440612e+00 1.4563911284721101e+07 1.0000000000000000e+00 4.5316214626531721e+00 1.9952946329202959e+01 2.2991045869690474e+01 
2077 1679 2 1.0266473243698875e+00 1.4809339967969606e+07 1.0000000000000000e+00 5.7503515326488541e+00 1.9998442252785566e+01 2.3278450356952824e+01 
1051 653 2 1.0246328710829431e+00 -2.5828182973648246e+07 1.0000000000000000e+00 1.0223081635486414e+01 1.3838640653748497e+01 2.4678868259894617e+01 
874 476 2 1.0274290724768473e+00 -1.0988992923036855e+07 1.0000000000000000e+00 1.5895872464468495e+01 1.5781594219390199e+01 2.1535243053334543e+01 
1500 1102 2 1.0290303146852613e+00 1.2682948155941565e+06 1.0000000000000000e+00 1.5719626417354064e+01 1.7645780039200634e+01 2.1472925180251522e+01 
2010 1612 2 1.0225871069226129e+00 1.4796259105988422e+07 1.0000000000000000e+00 1.6408388047581539e+01 1.5761723670530060e+01 2.1505533022226306e+01 
1209 811 2 1.0264286199002721e+00 -3.4419225039100610e+06 1.0000000000000000e+00 1.4239456271513845e+01 1.4358757902182340e+01 2.2180613739938764e+01 
1359 961 2 1.0277246831529183e+00 -3.8349959618517093e+07 1.0000000000000000e+00 1.4443455370566408e+01 1.3153981911357354e+01 2.2509418527691615e+01 
469 71 2 1.0260600465458480e+00 1.5015724166610066e+07 1.0000000000000000e+00 1.2433406919868593e+01 1.1171275238234896e+01 2.4117156171060095e+01 
1780 1382 2 1.0256546201124819e+00 1.1992620808719873e+07 1.0000000000000000e+00 1.5283256648509354e+01 1.2344712380993057e+01 2.2591689523691254e+01 
1269 871 2 1.0261671243629391e+00 -3.4371350475210981e+06 1.0000000000000000e+00 1.6424035355637034e+01 1.1771755195181612e+01 2.2772536601440603e+01 
1959 1561 2 1.0275612376168242e+00 1.4107380509129908e+07 1.0000000000000000e+00 1.3797662784499817e+01 1.3457277979491865e+01 2.2656467297834720e+01 
1341 943 2 1.0299559861163996e+00 5.7413964939135010e+05 1.0000000000000000e+00 1.2924770567909322e+01 1.4777145720667821e+01 2.2804937432032197e+01 
704 306 2 1.0264483526715442e+00 1.2986580868090073e+07 1.0000000000000000e+00 1.5152083436898046e+01 1.1951208262381137e+01 2.2794118329560305e+01 
1402 1004 2 1.0286661194351412e+00 4.3558734464566633e+06 1.0000000000000000e+00 1.3505814155828270e+01 1.3654843867739434e+01 2.2752646830612278e+01 
561 163 2 1.0244854472795433e+00 1.5377680709589627e+07 1.0000000000000000e+00 1.2324575610132127e+01 1.2736533881189981e+01 2.3615917536856912e+01 
1755 1357 2 1.0290411910536754e+00 9.9987323587726131e+06 1.0000000000000000e+00 1.7345662570522542e+01 1.4447168287512476e+01 2.1987605581511595e+01 
1647 1249 2 1.0242917331795978e+00 -7.4309017748919278e+06 1.0000000000000000e+00 1.7705545740460739e+01 1.0894514932072671e+01 2.3227519731175185e+01 
477 79 2 1.0295427310442784e+00 1.5347858313209161e+07 1.0000000000000000e+00 1.7578183673710519e+01 1.1921678289943094e+01 2.2879892440416043e+01 
1235 837 2 1.0254868116115579e+00 4.3580987074229624e+06 1.0000000000000000e+00 1.9813925074402594e+01 1.0470731112398871e+01 2.3557553597325466e+01 
1967 1569 2 1.0289813090027677e+00 1.4540592940712640e+07 1.0000000000000000e+00 1.5241725227488310e+01 1.9129450600007083e+01 2.1694144181232407e+01 
511 113 2 1.0267554356726147e+00 1.5021005916072965e+07 1.0000000000000000e+00 1.2280435146234538e+01 1.9705278838630793e+01 2.2782282991874887e+01 
603 205 2 1.0293590422534251e+00 6.8707729468367454e+06 1.0000000000000000e+00 4.3734634696090318e+00 1.7205520157707948e+00 2.5143509963328000e+01 
752 354 2 1.0259544945635359e+00 7.3517988613751596e+06 1.0000000000000000e+00 9.1483287361514218e+00 7.8957549224298837e+00 2.5140329770547194e+01 
956 558 2 1.0256877156122193e+00 1.6824923520611287e+06 1.0000000000000000e+00 8.4444077490135747e+00 7.8603839460464728e+00 2.5073301876235472e+01 
824 426 2 1.0255072271756034e+00 6.3543107120719496e+06 1.0000000000000000e+00 8.0129353831024428e+00 9.7318892859944999e+00 2.5330919349954261e+01 
1924 1526 2 1.0272599980345720e+00 1.5132278269827597e+07 1.0000000000000000e+00 8.5605176633136661e+00 9.4217629853502132e+00 2.5544694281881949e+01 
799 401 2 1.0294952401982598e+00 -8.8637638530713171e+06 1.0000000000000000e+00 4.8800183627415015e+00 5.9073427363329758e+00 3.1508542107232657e+01 
1476 1078 2 1.0270123760426082e+00 -3.6003820228334988e+05 1.0000000000000000e+00 1.4418335920622751e+00 5.8829502641271647e+00 3.1548997073231138e+01 
1510 1112 2 1.0284796484500507e+00 -2.7141046994903140e+07 1.0000000000000000e+00 3.6949544371530214e+00 6.3920344470294035e+00 3.2377080437514927e+01 
1074 676 2 1.0265716083728871e+00 1.1890569222724043e+07 1.0000000000000000e+00 1.8083099578318989e+00 4.5314064600977826e+00 3.1023067411009254e+01 
1744 1346 2 1.0311800507088889e+00 1.2418940274352053e+07 1.0000000000000000e+00 5.3245342526276334e+00 6.3116992539974897e+00 3.1649453184169122e+01 
1728 1330 2 1.0286940831406031e+00 5.9338528652898753e+06 1.0000000000000000e+00 5.3897985627384033e+00 6.0032102630468032e+00 3.2015714763911681e+01 
1356 958 2 1.0278625365101350e+00 -3.6536804182890630e+06 1.0000000000000000e+00 5.1625587854976125e+00 7.1561708259465888e+00 3.2964960286911115e+01 
1047 649 2 1.0275641188646494e+00 -2.7687688466138266e+07 1.0000000000000000e+00 8.4255890713850423e+00 1.4600572507545790e+00 3.1377155350734295e+01 
1262 864 2 1.0276041273496890e+00 -3.7739843284210764e+07 1.0000000000000000e+00 9.4031663530174345e+00 1.0011754840741764e+00 3.2686773072818475e+01 
1846 1448 2 1.0315595436860663e+00 8.0667005494877249e+06 1.0000000000000000e+00 8.7809482392885858e+00 3.1314178166261843e+00 3.0498616640671340e+01 
1519 1121 2 1.0287648332440977e+00 -2.7490479645862393e+07 1.0000000000000000e+00 1.8476991693034845e+00 9.7881618043176299e+00 3.1427090479498730e+01 
1467 1069 2 1.0285531088274791e+00 -2.8265524947273012e+07 1.0000000000000000e+00 1.1754260623098030e+01 7.7339468556678259e+00 2.5104646671210016e+01 
755 357 2 1.0244439721325012e+00 -9.4466372781335171e+06 1.0000000000000000e+00 1.7279124449668632e+01 6.8466236372420850e+00 2.5865124080172198e+01 
539 141 2 1.0235098218206771e+00 1.4387882453194303e+07 1.0000000000000000e+00 1.7648213582037094e+01 3.6160366202365553e+00 2.6174507214887676e+01 
1978 1580 2 1.0263538962211964e+00 1.2980230001428353e+07 1.0000000000000000e+00 1.7091661850043629e+01 5.9432700661636853e+00 2.7156875491047458e+01 
1006 608 2 1.0288362900122534e+00 -2.7124437906617112e+07 1.0000000000000000e+00 1.4953467226442665e+01 4.5524861756185500e+00 3.1059761070055256e+01 
1079 681 2 1.0260218869086006e+00 3.5199755428115749e+06 1.0000000000000000e+00 1.4491785038908633e+01 4.9949090232248414e+00 2.9709464043476665e+01 
1251 853 2 1.0246802321401105e+00 -1.2560425871475685e+07 1.0000000000000000e+00 1.3229438055900111e+01 5.6361946192967105e-01 3.2080323921239994e+01 
433 35 2 1.0251085011869503e+00 1.4953005763454186e+07 1.0000000000000000e+00 1.8836832736759344e+01 2.1383574074546448e+00 3.3174608578283589e+01 
467 69 2 1.0249692357345193e+00 1.2915845679374350e+07 1.0000000000000000e+00 1.6546343567804978e+01 7.1112038111492151e+00 3.3211636528179156e+01 
1866 1468 2 1.0265019292773725e+00 7.3752676145978915e+06 1.0000000000000000e+00 1.2426158033050715e+01 4.3706175915840610e+00 3.3113703278198194e+01 
1494 1096 2 1.0293628436989057e+00 -2.6883768096832555e+07 1.0000000000000000e+00 1.3041413102979064e+01 2.9998043813110051e+00 3.3309234054825417e+01 
1797 1399 2 1.0250530852250146e+00 1.1986179876666760e+07 1.0000000000000000e+00 1.9486393571234501e+01 4.4500916393189121e+00 3.1776298753870716e+01 
1838 1440 2 1.0251798113185542e+00 7.8091890900298264e+06 1.0000000000000000e+00 1.9988547418495571e+01 2.8829380505102562e+00 3.2344743427709290e+01 
853 455 2 1.0247506677930176e+00 7.0837229062173832e+06 1.0000000000000000e+00 2.9390454599324597e-02 1.5717569081730241e+01 3.2674093836065481e+01 
954 556 2 1.0248130549047705e+00 -2.7686606884806469e+07 1.0000000000000000e+00 8.6184100022028236e+00 1.6195901215012469e+01 2.9892171772288062e+01 
547 149 2 1.0280204275215710e+00 1.4729406697122538e+07 1.0000000000000000e+00 9.8683111405338320e+00 1.9226819484658037e+01 3.1640161315244281e+01 
1290 892 2 1.0274027532339709e+00 -3.7061651184260808e+07 1.0000000000000000e+00 2.0652209746296681e+00 1.0966107011576335e+01 3.1611240337627084e+01 
1312 914 2 1.0271427563012656e+00 -3.2097274069410758e+06 1.0000000000000000e+00 4.3153041535395156e+00 1.4626078779561432e+01 3.0333369182406358e+01 
1589 1191 2 1.0231773562484723e+00 7.4119290246781139e+06 1.0000000000000000e+00 2.0897131361208290e+00 1.3918589047865154e+01 3.2907148424478031e+01 
656 258 2 1.0250335806549440e+00 1.3894453278603094e+07 1.0000000000000000e+00 7.1511594819000344e+00 1.4353214213165645e+01 3.2187646718360810e+01 
1140 742 2 1.0251486950769646e+00 -3.2856294425718812e+06 1.0000000000000000e+00 5.0236718786149259e+00 1.6003560232516133e+01 2.9781985080768276e+01 
1999 1601 2 1.0261926086712505e+00 1.3116417190606149e+07 1.0000000000000000e+00 6.9221248140774865e+00 1.9546487378128404e+01 3.2461934723293567e+01 