LAMMPS data file via write_data, version 30 Jul 2016, timestep = 600000

2080 atoms
8 atom types

0.0000000000000000e+00 4.0000000000000000e+01 xlo xhi
0.0000000000000000e+00 4.0000000000000000e+01 ylo yhi
0.0000000000000000e+00 1.0000000000000000e+02 zlo zhi

Masses

1 3.896
2 4.306
3 20.064
4 8.378
5 8.378
6 8.378
7 8.378
8 8.378

Atoms # meso-molecular

1 2 4 2.2559723595316457e+00 0.0000000000000000e+00 1.0000000000000000e+00 0.0000000000000000e+00 0.0000000000000000e+00 2.5000000000000000e+00 
2 2 4 2.2559723595316457e+00 0.0000000000000000e+00 1.0000000000000000e+00 0.0000000000000000e+00 2.0000000000000000e+00 2.5000000000000000e+00 
3 2 4 2.2559723595316457e+00 0.0000000000000000e+00 1.0000000000000000e+00 0.0000000000000000e+00 4.0000000000000000e+00 2.5000000000000000e+00 
4 2 4 2.2559723595316457e+00 0.0000000000000000e+00 1.0000000000000000e+00 0.0000000000000000e+00 6.0000000000000000e+00 2.5000000000000000e+00 
21 2 4 2.2559723595316457e+00 0.0000000000000000e+00 1.0000000000000000e+00 2.0000000000000000e+00 0.0000000000000000e+00 2.5000000000000000e+00 
22 2 4 2.2559723595316457e+00 0.0000000000000000e+00 1.0000000000000000e+00 2.0000000000000000e+00 2.0000000000000000e+00 2.5000000000000000e+00 
23 2 4 2.2559723595316457e+00 0.0000000000000000e+00 1.0000000000000000e+00 2.0000000000000000e+00 4.0000000000000000e+00 2.5000000000000000e+00 
24 2 4 2.2559723595316457e+00 0.0000000000000000e+00 1.0000000000000000e+00 2.0000000000000000e+00 6.0000000000000000e+00 2.5000000000000000e+00 
41 2 4 2.2559723595316457e+00 0.0000000000000000e+00 1.0000000000000000e+00 4.0000000000000000e+00 0.0000000000000000e+00 2.5000000000000000e+00 
42 2 4 2.2559723595316457e+00 0.0000000000000000e+00 1.0000000000000000e+00 4.0000000000000000e+00 2.0000000000000000e+00 2.5000000000000000e+00 
43 2 4 2.2559723595316457e+00 0.0000000000000000e+00 1.0000000000000000e+00 4.0000000000000000e+00 4.0000000000000000e+00 2.5000000000000000e+00 
44 2 4 2.2559723595316457e+00 0.0000000000000000e+00 1.0000000000000000e+00 4.0000000000000000e+00 6.0000000000000000e+00 2.5000000000000000e+00 
61 2 4 2.2559723595316457e+00 0.0000000000000000e+00 1.0000000000000000e+00 6.0000000000000000e+00 0.0000000000000000e+00 2.5000000000000000e+00 
62 2 4 2.2559723595316457e+00 0.0000000000000000e+00 1.0000000000000000e+00 6.0000000000000000e+00 2.0000000000000000e+00 2.5000000000000000e+00 
63 2 4 2.2559723595316457e+00 0.0000000000000000e+00 1.0000000000000000e+00 6.0000000000000000e+00 4.0000000000000000e+00 2.5000000000000000e+00 
64 2 4 2.2559723595316457e+00 0.0000000000000000e+00 1.0000000000000000e+00 6.0000000000000000e+00 6.0000000000000000e+00 2.5000000000000000e+00 
81 2 4 2.2559723595316457e+00 0.0000000000000000e+00 1.0000000000000000e+00 8.0000000000000000e+00 0.0000000000000000e+00 2.5000000000000000e+00 
82 2 4 2.2559723595316457e+00 0.0000000000000000e+00 1.0000000000000000e+00 8.0000000000000000e+00 2.0000000000000000e+00 2.5000000000000000e+00 
83 2 4 2.2559723595316457e+00 0.0000000000000000e+00 1.0000000000000000e+00 8.0000000000000000e+00 4.0000000000000000e+00 2.5000000000000000e+00 
84 2 4 2.2559723595316457e+00 0.0000000000000000e+00 1.0000000000000000e+00 8.0000000000000000e+00 6.0000000000000000e+00 2.5000000000000000e+00 
101 2 4 2.2559723595316457e+00 0.0000000000000000e+00 1.0000000000000000e+00 1.0000000000000000e+01 0.0000000000000000e+00 2.5000000000000000e+00 
102 2 4 2.2559723595316457e+00 0.0000000000000000e+00 1.0000000000000000e+00 1.0000000000000000e+01 2.0000000000000000e+00 2.5000000000000000e+00 
103 2 4 2.2559723595316457e+00 -3.7911629518799572e-01 1.0000000000000000e+00 1.0000000000000000e+01 4.0000000000000000e+00 2.5000000000000000e+00 
104 2 4 2.2559723595316457e+00 -1.9576549056772901e+01 1.0000000000000000e+00 1.0000000000000000e+01 6.0000000000000000e+00 2.5000000000000000e+00 
121 2 4 2.2559723595316457e+00 0.0000000000000000e+00 1.0000000000000000e+00 1.2000000000000000e+01 0.0000000000000000e+00 2.5000000000000000e+00 
122 2 4 2.2559723595316457e+00 0.0000000000000000e+00 1.0000000000000000e+00 1.2000000000000000e+01 2.0000000000000000e+00 2.5000000000000000e+00 
123 2 4 2.2559723595316457e+00 -1.9568477632338254e+01 1.0000000000000000e+00 1.2000000000000000e+01 4.0000000000000000e+00 2.5000000000000000e+00 
124 2 4 2.2559723595316457e+00 -1.7167736363068869e+02 1.0000000000000000e+00 1.2000000000000000e+01 6.0000000000000000e+00 2.5000000000000000e+00 
141 2 4 2.2559723595316457e+00 0.0000000000000000e+00 1.0000000000000000e+00 1.4000000000000000e+01 0.0000000000000000e+00 2.5000000000000000e+00 
142 2 4 2.2559723595316457e+00 -1.3396513928843046e+00 1.0000000000000000e+00 1.4000000000000000e+01 2.0000000000000000e+00 2.5000000000000000e+00 
143 2 4 2.2559723595316457e+00 -8.9596408597818140e+01 1.0000000000000000e+00 1.4000000000000000e+01 4.0000000000000000e+00 2.5000000000000000e+00 
144 2 4 2.2559723595316457e+00 -5.7364995268631117e+02 1.0000000000000000e+00 1.4000000000000000e+01 6.0000000000000000e+00 2.5000000000000000e+00 
161 2 4 2.2559723595316457e+00 0.0000000000000000e+00 1.0000000000000000e+00 1.6000000000000000e+01 0.0000000000000000e+00 2.5000000000000000e+00 
162 2 4 2.2559723595316457e+00 -4.8800369982393210e+00 1.0000000000000000e+00 1.6000000000000000e+01 2.0000000000000000e+00 2.5000000000000000e+00 
163 2 4 2.2559723595316457e+00 -1.9836207723838029e+02 1.0000000000000000e+00 1.6000000000000000e+01 4.0000000000000000e+00 2.5000000000000000e+00 
164 2 4 2.2559723595316457e+00 -1.1355910060077529e+03 1.0000000000000000e+00 1.6000000000000000e+01 6.0000000000000000e+00 2.5000000000000000e+00 
181 2 4 2.2559723595316457e+00 0.0000000000000000e+00 1.0000000000000000e+00 1.8000000000000000e+01 0.0000000000000000e+00 2.5000000000000000e+00 
182 2 4 2.2559723595316457e+00 -6.8671973298591427e+00 1.0000000000000000e+00 1.8000000000000000e+01 2.0000000000000000e+00 2.5000000000000000e+00 
183 2 4 2.2559723595316457e+00 -2.7989535978508570e+02 1.0000000000000000e+00 1.8000000000000000e+01 4.0000000000000000e+00 2.5000000000000000e+00 
184 2 4 2.2559723595316457e+00 -1.5581797234041701e+03 1.0000000000000000e+00 1.8000000000000000e+01 6.0000000000000000e+00 2.5000000000000000e+00 
5 2 4 2.2559723595316457e+00 0.0000000000000000e+00 1.0000000000000000e+00 0.0000000000000000e+00 8.0000000000000000e+00 2.5000000000000000e+00 
6 2 4 2.2559723595316457e+00 0.0000000000000000e+00 1.0000000000000000e+00 0.0000000000000000e+00 1.0000000000000000e+01 2.5000000000000000e+00 
7 2 4 2.2559723595316457e+00 0.0000000000000000e+00 1.0000000000000000e+00 0.0000000000000000e+00 1.2000000000000000e+01 2.5000000000000000e+00 
25 2 4 2.2559723595316457e+00 0.0000000000000000e+00 1.0000000000000000e+00 2.0000000000000000e+00 8.0000000000000000e+00 2.5000000000000000e+00 
26 2 4 2.2559723595316457e+00 0.0000000000000000e+00 1.0000000000000000e+00 2.0000000000000000e+00 1.0000000000000000e+01 2.5000000000000000e+00 
27 2 4 2.2559723595316457e+00 0.0000000000000000e+00 1.0000000000000000e+00 2.0000000000000000e+00 1.2000000000000000e+01 2.5000000000000000e+00 
45 2 4 2.2559723595316457e+00 0.0000000000000000e+00 1.0000000000000000e+00 4.0000000000000000e+00 8.0000000000000000e+00 2.5000000000000000e+00 
46 2 4 2.2559723595316457e+00 0.0000000000000000e+00 1.0000000000000000e+00 4.0000000000000000e+00 1.0000000000000000e+01 2.5000000000000000e+00 
47 2 4 2.2559723595316457e+00 0.0000000000000000e+00 1.0000000000000000e+00 4.0000000000000000e+00 1.2000000000000000e+01 2.5000000000000000e+00 
65 2 4 2.2559723595316457e+00 0.0000000000000000e+00 1.0000000000000000e+00 6.0000000000000000e+00 8.0000000000000000e+00 2.5000000000000000e+00 
66 2 4 2.2559723595316457e+00 0.0000000000000000e+00 1.0000000000000000e+00 6.0000000000000000e+00 1.0000000000000000e+01 2.5000000000000000e+00 
67 2 4 2.2559723595316457e+00 0.0000000000000000e+00 1.0000000000000000e+00 6.0000000000000000e+00 1.2000000000000000e+01 2.5000000000000000e+00 
85 2 4 2.2559723595316457e+00 -1.3397100920577079e+00 1.0000000000000000e+00 8.0000000000000000e+00 8.0000000000000000e+00 2.5000000000000000e+00 
86 2 4 2.2559723595316457e+00 -4.9132024023214589e+00 1.0000000000000000e+00 8.0000000000000000e+00 1.0000000000000000e+01 2.5000000000000000e+00 
87 2 4 2.2559723595316457e+00 -7.0856134341832488e+00 1.0000000000000000e+00 8.0000000000000000e+00 1.2000000000000000e+01 2.5000000000000000e+00 
105 2 4 2.2559723595316457e+00 -9.0081785959917255e+01 1.0000000000000000e+00 1.0000000000000000e+01 8.0000000000000000e+00 2.5000000000000000e+00 
106 2 4 2.2559723595316457e+00 -2.0204454235422520e+02 1.0000000000000000e+00 1.0000000000000000e+01 1.0000000000000000e+01 2.5000000000000000e+00 
107 2 4 2.2559723595316457e+00 -2.9540176700142632e+02 1.0000000000000000e+00 1.0000000000000000e+01 1.2000000000000000e+01 2.5000000000000000e+00 
125 2 4 2.2559723595316457e+00 -5.7700082982049139e+02 1.0000000000000000e+00 1.2000000000000000e+01 8.0000000000000000e+00 2.5000000000000000e+00 
126 2 4 2.2559723595316457e+00 -1.1589771750605976e+03 1.0000000000000000e+00 1.2000000000000000e+01 1.0000000000000000e+01 2.5000000000000000e+00 
127 2 4 2.2559723595316457e+00 -1.6598927187017212e+03 1.0000000000000000e+00 1.2000000000000000e+01 1.2000000000000000e+01 2.5000000000000000e+00 
145 2 4 2.2559723595316457e+00 -1.7149630169887610e+03 1.0000000000000000e+00 1.4000000000000000e+01 8.0000000000000000e+00 2.5000000000000000e+00 
146 2 4 2.2559723595316457e+00 -3.2916253404272256e+03 1.0000000000000000e+00 1.4000000000000000e+01 1.0000000000000000e+01 2.5000000000000000e+00 
147 2 4 2.2559723595316457e+00 -4.6645529390143010e+03 1.0000000000000000e+00 1.4000000000000000e+01 1.2000000000000000e+01 2.5000000000000000e+00 
165 2 4 2.2559723595316457e+00 -3.2459105487006564e+03 1.0000000000000000e+00 1.6000000000000000e+01 8.0000000000000000e+00 2.5000000000000000e+00 
166 2 4 2.2559723595316457e+00 -6.1302254860626545e+03 1.0000000000000000e+00 1.6000000000000000e+01 1.0000000000000000e+01 2.5000000000000000e+00 
167 2 4 2.2559723595316457e+00 -8.6619297192389367e+03 1.0000000000000000e+00 1.6000000000000000e+01 1.2000000000000000e+01 2.5000000000000000e+00 
185 2 4 2.2559723595316457e+00 -4.3929802202385390e+03 1.0000000000000000e+00 1.8000000000000000e+01 8.0000000000000000e+00 2.5000000000000000e+00 
186 2 4 2.2559723595316457e+00 -8.2596302564186699e+03 1.0000000000000000e+00 1.8000000000000000e+01 1.0000000000000000e+01 2.5000000000000000e+00 
187 2 4 2.2559723595316457e+00 -1.1672295428738202e+04 1.0000000000000000e+00 1.8000000000000000e+01 1.2000000000000000e+01 2.5000000000000000e+00 
8 2 4 2.2559723595316457e+00 0.0000000000000000e+00 1.0000000000000000e+00 0.0000000000000000e+00 1.4000000000000000e+01 2.5000000000000000e+00 
9 2 4 2.2559723595316457e+00 0.0000000000000000e+00 1.0000000000000000e+00 0.0000000000000000e+00 1.6000000000000000e+01 2.5000000000000000e+00 
10 2 4 2.2559723595316457e+00 0.0000000000000000e+00 1.0000000000000000e+00 0.0000000000000000e+00 1.8000000000000000e+01 2.5000000000000000e+00 
28 2 4 2.2559723595316457e+00 0.0000000000000000e+00 1.0000000000000000e+00 2.0000000000000000e+00 1.4000000000000000e+01 2.5000000000000000e+00 
29 2 4 2.2559723595316457e+00 0.0000000000000000e+00 1.0000000000000000e+00 2.0000000000000000e+00 1.6000000000000000e+01 2.5000000000000000e+00 
30 2 4 2.2559723595316457e+00 0.0000000000000000e+00 1.0000000000000000e+00 2.0000000000000000e+00 1.8000000000000000e+01 2.5000000000000000e+00 
48 2 4 2.2559723595316457e+00 0.0000000000000000e+00 1.0000000000000000e+00 4.0000000000000000e+00 1.4000000000000000e+01 2.5000000000000000e+00 
49 2 4 2.2559723595316457e+00 0.0000000000000000e+00 1.0000000000000000e+00 4.0000000000000000e+00 1.6000000000000000e+01 2.5000000000000000e+00 
50 2 4 2.2559723595316457e+00 0.0000000000000000e+00 1.0000000000000000e+00 4.0000000000000000e+00 1.8000000000000000e+01 2.5000000000000000e+00 
68 2 4 2.2559723595316457e+00 0.0000000000000000e+00 1.0000000000000000e+00 6.0000000000000000e+00 1.4000000000000000e+01 2.5000000000000000e+00 
69 2 4 2.2559723595316457e+00 0.0000000000000000e+00 1.0000000000000000e+00 6.0000000000000000e+00 1.6000000000000000e+01 2.5000000000000000e+00 
70 2 4 2.2559723595316457e+00 0.0000000000000000e+00 1.0000000000000000e+00 6.0000000000000000e+00 1.8000000000000000e+01 2.5000000000000000e+00 
88 2 4 2.2559723595316457e+00 -7.6557803109903677e+00 1.0000000000000000e+00 8.0000000000000000e+00 1.4000000000000000e+01 2.5000000000000000e+00 
89 2 4 2.2559723595316457e+00 -7.8089632633358441e+00 1.0000000000000000e+00 8.0000000000000000e+00 1.6000000000000000e+01 2.5000000000000000e+00 
90 2 4 2.2559723595316457e+00 -7.8261971921132307e+00 1.0000000000000000e+00 8.0000000000000000e+00 1.8000000000000000e+01 2.5000000000000000e+00 
108 2 4 2.2559723595316457e+00 -3.3710436676610362e+02 1.0000000000000000e+00 1.0000000000000000e+01 1.4000000000000000e+01 2.5000000000000000e+00 
109 2 4 2.2559723595316457e+00 -3.4750473607421065e+02 1.0000000000000000e+00 1.0000000000000000e+01 1.6000000000000000e+01 2.5000000000000000e+00 
110 2 4 2.2559723595316457e+00 -3.4946271972549857e+02 1.0000000000000000e+00 1.0000000000000000e+01 1.8000000000000000e+01 2.5000000000000000e+00 
128 2 4 2.2559723595316457e+00 -1.9150402527788565e+03 1.0000000000000000e+00 1.2000000000000000e+01 1.4000000000000000e+01 2.5000000000000000e+00 
129 2 4 2.2559723595316457e+00 -1.9876747843821729e+03 1.0000000000000000e+00 1.2000000000000000e+01 1.6000000000000000e+01 2.5000000000000000e+00 
130 2 4 2.2559723595316457e+00 -2.0023588850968340e+03 1.0000000000000000e+00 1.2000000000000000e+01 1.8000000000000000e+01 2.5000000000000000e+00 
148 2 4 2.2559723595316457e+00 -5.3987841042519058e+03 1.0000000000000000e+00 1.4000000000000000e+01 1.4000000000000000e+01 2.5000000000000000e+00 
149 2 4 2.2559723595316457e+00 -5.6169750705697215e+03 1.0000000000000000e+00 1.4000000000000000e+01 1.6000000000000000e+01 2.5000000000000000e+00 
150 2 4 2.2559723595316457e+00 -5.6575613875574736e+03 1.0000000000000000e+00 1.4000000000000000e+01 1.8000000000000000e+01 2.5000000000000000e+00 
168 2 4 2.2559723595316457e+00 -1.0037105491455686e+04 1.0000000000000000e+00 1.6000000000000000e+01 1.4000000000000000e+01 2.5000000000000000e+00 
169 2 4 2.2559723595316457e+00 -1.0445514058212724e+04 1.0000000000000000e+00 1.6000000000000000e+01 1.6000000000000000e+01 2.5000000000000000e+00 
170 2 4 2.2559723595316457e+00 -1.0512855515040023e+04 1.0000000000000000e+00 1.6000000000000000e+01 1.8000000000000000e+01 2.5000000000000000e+00 
188 2 4 2.2559723595316457e+00 -1.3535936393395446e+04 1.0000000000000000e+00 1.8000000000000000e+01 1.4000000000000000e+01 2.5000000000000000e+00 
189 2 4 2.2559723595316457e+00 -1.4077402781133347e+04 1.0000000000000000e+00 1.8000000000000000e+01 1.6000000000000000e+01 2.5000000000000000e+00 
190 2 4 2.2559723595316457e+00 -1.4159085035155300e+04 1.0000000000000000e+00 1.8000000000000000e+01 1.8000000000000000e+01 2.5000000000000000e+00 
497 99 2 1.0280245020362488e+00 -1.1595400848622092e+04 1.0000000000000000e+00 1.3265338800563558e+01 1.4235209168921294e+01 5.8146752011421263e+01 
1412 1014 2 1.0280359199674847e+00 1.7120743920354860e+04 1.0000000000000000e+00 1.3181462916780657e+01 1.4204364325874804e+01 5.8200803045515954e+01 
626 228 2 1.0280437302211025e+00 2.5689959179154716e+03 1.0000000000000000e+00 1.2919204706926111e+01 1.4514207537763602e+01 5.8216955665305527e+01 
1484 1086 2 1.0280216055547668e+00 8.0037233281540580e+02 1.0000000000000000e+00 1.3118581911869390e+01 1.4212488211492090e+01 5.8225733264558059e+01 
2041 1643 2 1.0280186041481667e+00 -6.2142228975364060e+02 1.0000000000000000e+00 1.3239038598985742e+01 1.4187548283045356e+01 5.8185685588159110e+01 
992 594 2 1.0280316997665151e+00 1.0111678646365103e+03 1.0000000000000000e+00 1.3278472022044900e+01 1.4158254777668350e+01 5.8188660263380697e+01 
1786 1388 2 1.0280228375753768e+00 7.5271873971164928e+02 1.0000000000000000e+00 1.3086290088058840e+01 1.4200434835150462e+01 5.8248982632466344e+01 
654 256 2 1.0280287564550199e+00 -7.1285596236611609e+03 1.0000000000000000e+00 1.3243571963807176e+01 1.4052222253452481e+01 5.8278030545736215e+01 
946 548 2 1.0280300361794052e+00 6.2087012242270166e+03 1.0000000000000000e+00 1.2922556574317369e+01 1.4298295393124983e+01 5.8293034845303055e+01 
410 12 2 1.0280439907571381e+00 -5.5094517818180429e+03 1.0000000000000000e+00 1.2836974423305907e+01 1.4323818563127327e+01 5.8339919750497415e+01 
726 328 2 1.0280318069539465e+00 1.8283204237566613e+02 1.0000000000000000e+00 1.3031778695221037e+01 1.4099909748893428e+01 5.8341537443204757e+01 
514 116 2 1.0280167475673074e+00 -5.3454872324590533e+03 1.0000000000000000e+00 1.3232991918542533e+01 1.4035407113071230e+01 5.8295309330906768e+01 
1467 1069 2 1.0280145265142930e+00 7.6733759108013810e+03 1.0000000000000000e+00 1.3260414601242370e+01 1.3965584301855396e+01 5.8344804006413327e+01 
1594 1196 2 1.0280450292947110e+00 1.3611892685765806e+03 1.0000000000000000e+00 1.2745104327641663e+01 1.4478355923656537e+01 5.8355271759905300e+01 
1312 914 2 1.0280289294596072e+00 7.2377896854281630e+02 1.0000000000000000e+00 1.2933139608344407e+01 1.4162292218157242e+01 5.8358642928266931e+01 
564 166 2 1.0280327041025528e+00 -7.5879239112060304e+03 1.0000000000000000e+00 1.2739419917438955e+01 1.4474741418455721e+01 5.8360730043777068e+01 
865 467 2 1.0280246738332837e+00 -2.2672015199755460e+03 1.0000000000000000e+00 1.3061978910853059e+01 1.4015856337630966e+01 5.8388348242023078e+01 
760 362 2 1.0280436192346354e+00 1.6252991877589159e+03 1.0000000000000000e+00 1.2721367548218522e+01 1.4321420465952279e+01 5.8429365432284705e+01 
1432 1034 2 1.0280245084739261e+00 6.4572283569958699e+03 1.0000000000000000e+00 1.2829036294882961e+01 1.4146999675118714e+01 5.8437445379507380e+01 
846 448 2 1.0280361659819828e+00 5.3077664602968207e+02 1.0000000000000000e+00 1.2689755348174490e+01 1.4301753072295252e+01 5.8464134102612192e+01 
1008 610 2 1.0280119449923109e+00 -2.9407183613569355e+03 1.0000000000000000e+00 1.3117648381304889e+01 1.3892934934452715e+01 5.8473022907912544e+01 
761 363 2 1.0280255185196183e+00 -8.2525320359288162e+02 1.0000000000000000e+00 1.2769233399608671e+01 1.4132349815050192e+01 5.8490982020840697e+01 
1249 851 2 1.0280229919405202e+00 -5.2236706112766005e+03 1.0000000000000000e+00 1.2605537041302821e+01 1.4418353630824042e+01 5.8494935990216305e+01 
1033 635 2 1.0280245730452560e+00 6.2196306112917746e+03 1.0000000000000000e+00 1.2798475140331982e+01 1.4093133070155412e+01 5.8494994958318969e+01 
1453 1055 2 1.0280272028752451e+00 9.4552458595017579e+03 1.0000000000000000e+00 1.2923081330134060e+01 1.3982530328305847e+01 5.8495009681981436e+01 
1652 1254 2 1.0280154025381412e+00 -3.4611735230325535e+03 1.0000000000000000e+00 1.2885274283979671e+01 1.4005779989439583e+01 5.8499766536187323e+01 
2049 1651 2 1.0280270867859382e+00 2.4983837314022758e+03 1.0000000000000000e+00 1.2588517004738017e+01 1.4430870853132557e+01 5.8507321319395089e+01 
1881 1483 2 1.0280231755870961e+00 -3.7180930012288600e+03 1.0000000000000000e+00 1.2924266255969055e+01 1.3942923163918929e+01 5.8529354128115934e+01 
1356 958 2 1.0280283833633759e+00 -2.3503634828900349e+03 1.0000000000000000e+00 1.2999676711681879e+01 1.3900071590258053e+01 5.8525901572232925e+01 
1234 836 2 1.0280436757908507e+00 9.9721181639618987e+02 1.0000000000000000e+00 1.2794970808104257e+01 1.4028329069026231e+01 5.8545759873594761e+01 
1518 1120 2 1.0280291599512486e+00 3.7755915757200910e+03 1.0000000000000000e+00 1.2730714267832477e+01 1.4081586307417192e+01 5.8555769986081586e+01 
1464 1066 2 1.0280308301694316e+00 1.3442661430901007e+03 1.0000000000000000e+00 1.2858831213276446e+01 1.3963814272431788e+01 5.8553624241728201e+01 
503 105 2 1.0280134081353312e+00 -5.1557281155565461e+03 1.0000000000000000e+00 1.2812797375231163e+01 1.3990968489990882e+01 5.8562548648935973e+01 
999 601 2 1.0280211895881679e+00 2.5305934489072278e+01 1.0000000000000000e+00 1.2789770615415691e+01 1.4008864233715979e+01 5.8564933679674475e+01 
1210 812 2 1.0280149774285221e+00 9.5083788849926459e+03 1.0000000000000000e+00 1.2624690266036318e+01 1.4198529260422573e+01 5.8573055561039517e+01 
1613 1215 2 1.0280347198269713e+00 3.8088581705050819e+03 1.0000000000000000e+00 1.2611855514219148e+01 1.4211697687216420e+01 5.8577997760927119e+01 
1059 661 2 1.0280143987954307e+00 4.1435314434272404e+03 1.0000000000000000e+00 1.2980217391917519e+01 1.3867974320619643e+01 5.8569867783617717e+01 
1061 663 2 1.0280309663179188e+00 6.8039179816795172e+02 1.0000000000000000e+00 1.2692644130213864e+01 1.4051921905357206e+01 5.8609420683973688e+01 
1250 852 2 1.0280277774524731e+00 9.4407760217751331e+02 1.0000000000000000e+00 1.2710118065318481e+01 1.4020564986546008e+01 5.8619117827543981e+01 
1668 1270 2 1.0280315767178205e+00 -7.0729559766427531e+02 1.0000000000000000e+00 1.2477181162246197e+01 1.4370769664265055e+01 5.8642858108440514e+01 
932 534 2 1.0280081664025329e+00 5.9138671011014385e+03 1.0000000000000000e+00 1.2755473434163182e+01 1.3949340670609246e+01 5.8643233646177094e+01 
1437 1039 2 1.0280091059402479e+00 -1.8472942612216792e+02 1.0000000000000000e+00 1.3050767462829333e+01 1.3769236235655876e+01 5.8648115630058889e+01 
697 299 2 1.0280258386036458e+00 1.6959100838925756e+03 1.0000000000000000e+00 1.2393635420136910e+01 1.4699937103461115e+01 5.8677274287346357e+01 
1716 1318 2 1.0280317622390189e+00 -4.1434483021926644e+03 1.0000000000000000e+00 1.2410130151445838e+01 1.4512774482947956e+01 5.8679597983381193e+01 
1078 680 2 1.0280335494841104e+00 -5.2241254836868411e+03 1.0000000000000000e+00 1.2569114719310882e+01 1.4103644157324275e+01 5.8686688716541433e+01 
744 346 2 1.0280364353811664e+00 1.7974603970342598e+03 1.0000000000000000e+00 1.2405109608946878e+01 1.4464436727463209e+01 5.8697396950941190e+01 
1784 1386 2 1.0280284718459696e+00 -1.0720397682090481e+03 1.0000000000000000e+00 1.2479830939339944e+01 1.4197700777350187e+01 5.8721303033619279e+01 
486 88 2 1.0280025255898046e+00 -9.1732076058515759e+03 1.0000000000000000e+00 1.2770847197800396e+01 1.3868740505159607e+01 5.8711949173501452e+01 
840 442 2 1.0280241190140831e+00 -4.6380077191882838e+03 1.0000000000000000e+00 1.2799896624322002e+01 1.3841115787686498e+01 5.8720457566636583e+01 
1296 898 2 1.0280287977036189e+00 1.1203421738693694e+03 1.0000000000000000e+00 1.2424699795804887e+01 1.4302360465629437e+01 5.8731247668558019e+01 
402 4 2 1.0280378899103828e+00 -2.6522402545499908e+03 1.0000000000000000e+00 1.2453761516384931e+01 1.4115801634993044e+01 5.8804507157055674e+01 
968 570 2 1.0280379369532398e+00 8.2455464270881009e+02 1.0000000000000000e+00 1.2311892878679581e+01 1.4335221789600277e+01 5.8863914700194726e+01 
1553 1155 2 1.0280291333034348e+00 1.7877005403957849e+03 1.0000000000000000e+00 1.2466654647520985e+01 1.4017089015100876e+01 5.8867910495330769e+01 
1152 754 2 1.0280239605095132e+00 4.6656512124940145e+03 1.0000000000000000e+00 1.2285201830560563e+01 1.4348399464127747e+01 5.8896730683907194e+01 
602 204 2 1.0280027337288227e+00 -1.6357588017501732e+03 1.0000000000000000e+00 1.2582271534636229e+01 1.3866760084924950e+01 5.8890008083615548e+01 
576 178 2 1.0280203359332234e+00 3.0565850947703200e+02 1.0000000000000000e+00 1.2376563398780407e+01 1.4104982905270843e+01 5.8909958417629042e+01 
1500 1102 2 1.0280098084023030e+00 -1.5966538651148119e+03 1.0000000000000000e+00 1.2583080816531323e+01 1.3815072910000334e+01 5.8954194964249943e+01 
523 125 2 1.0280164876979057e+00 2.8956466154636983e+03 1.0000000000000000e+00 1.2341584038777949e+01 1.4050450911767197e+01 5.9004533129604468e+01 
539 141 2 1.0280009127288408e+00 -4.6181673817528344e+03 1.0000000000000000e+00 1.2632802641732416e+01 1.3740951730913315e+01 5.9006438357697043e+01 
942 544 2 1.0280390285131473e+00 5.3824127544464627e+03 1.0000000000000000e+00 1.2300399560148820e+01 1.4089102604209634e+01 5.9033540712654855e+01 
1237 839 2 1.0280205563743123e+00 -1.0786728908715243e+03 1.0000000000000000e+00 1.2361459619638826e+01 1.3970298957837949e+01 5.9054615986676815e+01 
415 17 2 1.0280259953025501e+00 -7.6286572398922899e+03 1.0000000000000000e+00 1.2330614032116936e+01 1.4001518214019049e+01 5.9068604451582004e+01 
1380 982 2 1.0280289744367175e+00 6.9878864258467038e+03 1.0000000000000000e+00 1.2068276852924056e+01 1.4507462742798655e+01 5.9238698286480926e+01 
1506 1108 2 1.0280273766067596e+00 3.9638242795676301e+03 1.0000000000000000e+00 1.1923988757215950e+01 1.4390111654793355e+01 5.9708402421156038e+01 
1853 1455 2 1.0280091923134671e+00 -4.9270859016850127e+03 1.0000000000000000e+00 1.2058347549032920e+01 1.3952684981969373e+01 5.9795486715858111e+01 
1828 1430 2 1.0280278798836031e+00 -7.1599081622195190e+03 1.0000000000000000e+00 1.2040894285839768e+01 1.3979931649373304e+01 5.9804426038739280e+01 
772 374 2 1.0280143718029056e+00 4.8252045293291112e+03 1.0000000000000000e+00 1.1933848678963599e+01 1.4178265906420776e+01 5.9903861830882356e+01 
1905 1507 2 1.0279802979898709e+00 -2.6084429628056696e+03 1.0000000000000000e+00 1.9767709783495327e+01 1.5590491278038874e+01 5.6596127882074718e+01 
584 186 2 1.0280118429519263e+00 -6.8657060888766191e+03 1.0000000000000000e+00 1.9964613313340241e+01 1.5273890571651473e+01 5.6572211140235304e+01 
831 433 2 1.0280515071865288e+00 -2.5479376030284416e+03 1.0000000000000000e+00 1.9672077873081477e+01 1.5705722675562935e+01 5.6637254978008116e+01 
857 459 2 1.0280050881664069e+00 3.4655608031908428e+03 1.0000000000000000e+00 1.9474937170555442e+01 1.5974741455067839e+01 5.6704729766959090e+01 
1037 639 2 1.0280097017926804e+00 4.0972216218687981e+03 1.0000000000000000e+00 1.9564175788411163e+01 1.5765073874910486e+01 5.6719448639612438e+01 
1227 829 2 1.0280066492794044e+00 8.0139832957451645e+03 1.0000000000000000e+00 1.9916502703433089e+01 1.5215711493310668e+01 5.6704346198944130e+01 
1717 1319 2 1.0280282526716078e+00 1.9096232136456458e+03 1.0000000000000000e+00 1.9921815548219406e+01 1.5204104523329434e+01 5.6710651545732155e+01 
590 192 2 1.0279778462302971e+00 3.2034399766927572e+03 1.0000000000000000e+00 1.9783791003322218e+01 1.5375864566761150e+01 5.6749682044083983e+01 
1236 838 2 1.0279959778116601e+00 3.2749245402878064e+03 1.0000000000000000e+00 1.9354206282434212e+01 1.5972074011493246e+01 5.6832503810915853e+01 
729 331 2 1.0280079548692214e+00 -2.6074663721628972e+03 1.0000000000000000e+00 1.9505771390091518e+01 1.5750605043196243e+01 5.6808291619503244e+01 
1087 689 2 1.0280150783928514e+00 -1.3887283147467074e+03 1.0000000000000000e+00 1.9696664661712539e+01 1.5487596504867739e+01 5.6774669409015907e+01 
483 85 2 1.0280062050118035e+00 -1.0243036016309623e+04 1.0000000000000000e+00 1.9285286915364662e+01 1.6027579159414252e+01 5.6880838275640457e+01 
795 397 2 1.0280197247825904e+00 5.9488484061101508e+03 1.0000000000000000e+00 1.9523174791127673e+01 1.8584485546228223e+01 5.6972237302426230e+01 
1148 750 2 1.0280101058265934e+00 5.8005755061093832e+03 1.0000000000000000e+00 1.9169369532928300e+01 1.6132553843853152e+01 5.6956331522637498e+01 
844 446 2 1.0279953250338014e+00 -1.7000980354185199e+03 1.0000000000000000e+00 1.9420637371369686e+01 1.5783352838316519e+01 5.6938571338124447e+01 
1566 1168 2 1.0280302708725504e+00 6.1077222156982452e+03 1.0000000000000000e+00 1.9489612898556334e+01 1.8866095580271484e+01 5.6983642669736930e+01 
702 304 2 1.0280229273756043e+00 8.5522997407467074e+01 1.0000000000000000e+00 1.6998822400879067e+01 1.6903077503978235e+01 5.7085414780390188e+01 
1790 1392 2 1.0280135296908985e+00 4.3955328732867029e+03 1.0000000000000000e+00 1.7150608848143097e+01 1.6752205013119873e+01 5.7108402093668595e+01 
433 35 2 1.0279885704892930e+00 7.7201778228821956e+02 1.0000000000000000e+00 1.8095734256862283e+01 1.6859534595193590e+01 5.7146382330641600e+01 
670 272 2 1.0279548965661858e+00 -3.6922563443348093e+02 1.0000000000000000e+00 1.8775971922084636e+01 1.6528305251430520e+01 5.7132984039614755e+01 
882 484 2 1.0280361756872616e+00 4.9164332656975439e+03 1.0000000000000000e+00 1.9077799998667480e+01 1.8988784774254889e+01 5.7125568174679046e+01 
447 49 2 1.0280199574294517e+00 5.1146698422990403e+03 1.0000000000000000e+00 1.8688964472061162e+01 1.7837248636057556e+01 5.7148619686373159e+01 
1850 1452 2 1.0280167482518057e+00 -1.2918345388370624e+03 1.0000000000000000e+00 1.8296035510372537e+01 1.7841938598900335e+01 5.7155267389766344e+01 
1270 872 2 1.0280303102347257e+00 1.8006916902938053e+03 1.0000000000000000e+00 1.6231617411619133e+01 1.6096870994523208e+01 5.7231566487514044e+01 
581 183 2 1.0280378462644086e+00 -6.8680759774150338e+03 1.0000000000000000e+00 1.7008052780025114e+01 1.6233457543490093e+01 5.7262431227777071e+01 
1145 747 2 1.0280131010331650e+00 5.8221134850862391e+03 1.0000000000000000e+00 1.8296595301652260e+01 1.6703282797785054e+01 5.7261022989899296e+01 
1505 1107 2 1.0280579873898672e+00 1.2832707164037774e+03 1.0000000000000000e+00 1.8594091619496602e+01 1.9218589480499013e+01 5.7235925830671093e+01 
673 275 2 1.0280421483688611e+00 -8.4739319494028096e+03 1.0000000000000000e+00 1.8426375645014389e+01 1.9299818897331733e+01 5.7247634744689627e+01 
910 512 2 1.0280833290905043e+00 4.4507580663876934e+02 1.0000000000000000e+00 1.8977556040821451e+01 1.8351988788066286e+01 5.7200206543850385e+01 
1203 805 2 1.0280803619666545e+00 8.3477417514577173e+03 1.0000000000000000e+00 1.5586610359393024e+01 1.6675357949721366e+01 5.7218986314487196e+01 
1508 1110 2 1.0280459233827566e+00 1.2967091500806914e+03 1.0000000000000000e+00 1.8525788751096627e+01 1.9174636699701075e+01 5.7243609876778912e+01 
911 513 2 1.0280136173432641e+00 5.4140891379152197e+02 1.0000000000000000e+00 1.5979103289870631e+01 1.5754608088984721e+01 5.7334125275987745e+01 