LAMMPS data file via write_data, version 30 Jul 2016, timestep = 50000000

180 atoms
2 atom types

0.0000000000000000e+00 2.0000000000000000e+01 xlo xhi
0.0000000000000000e+00 2.0000000000000000e+01 ylo yhi
0.0000000000000000e+00 2.0000000000000000e+01 zlo zhi

Masses

1 3.896
2 4.31

Atoms # meso-molecular

144 1 2 1.0280000000000720e+00 1.4463271898087055e+02 1.0000000000000000e+00 1.2427644476263270e+01 9.8114445906542134e+00 9.7600295679701148e+00 
27 1 2 1.0280000000000746e+00 -1.7288286049825544e+02 1.0000000000000000e+00 1.2326847944692162e+01 9.8495984735203752e+00 9.9794165893626481e+00 
153 1 2 1.0280000000000955e+00 -1.7769304142763571e+02 1.0000000000000000e+00 1.2412638893829888e+01 9.8551692294018860e+00 9.8189997641480851e+00 
151 1 2 1.0280000000000733e+00 -2.0885519002188207e+02 1.0000000000000000e+00 1.2497663802248967e+01 9.8825017743208630e+00 9.6519382048824927e+00 
50 1 2 1.0280000000000507e+00 1.8462281832544693e+02 1.0000000000000000e+00 1.2534689486980076e+01 9.9057832418386766e+00 9.5820768157442586e+00 
77 1 2 1.0279999999999658e+00 -3.1223362632600612e+01 1.0000000000000000e+00 1.2562235748518598e+01 9.9200482223277184e+00 9.5272721622105365e+00 
100 1 2 1.0280000000000671e+00 -3.4845922539705484e+01 1.0000000000000000e+00 9.3653755217146628e+00 8.5617990987342800e+00 1.2485672443545683e+01 
160 1 2 1.0280000000000309e+00 -2.9746600489346804e+00 1.0000000000000000e+00 7.6866470169898395e+00 8.2093862775541844e+00 1.3986287930211496e+01 
156 1 2 1.0280000000000669e+00 -3.6838968775966762e+01 1.0000000000000000e+00 8.9466511463889766e+00 9.0834304862415038e+00 1.3516324519860461e+01 
122 1 2 1.0280000000000458e+00 3.8976206643833002e+01 1.0000000000000000e+00 7.8965170120182204e+00 8.3808656529714334e+00 1.3716302896935375e+01 
97 1 2 1.0280000000000342e+00 -3.2939216221956130e+01 1.0000000000000000e+00 7.8584871084205039e+00 8.0176443375154083e+00 1.3717511608485021e+01 
93 1 2 1.0280000000000282e+00 6.9783957387247867e+01 1.0000000000000000e+00 7.5776256187677449e+00 8.0512266852863839e+00 1.4161859396873258e+01 
30 1 2 1.0280000000000658e+00 -1.2208549643359336e+02 1.0000000000000000e+00 8.8811814175954105e+00 8.6655393885510730e+00 1.2797556512023206e+01 
91 1 2 1.0280000000000009e+00 2.1282912572326478e+02 1.0000000000000000e+00 7.8860150505494238e+00 7.3746922702741600e+00 1.4135570490415686e+01 
99 1 2 1.0280000000000307e+00 -5.0687258200922727e+01 1.0000000000000000e+00 7.6291668456657300e+00 7.6853920285292832e+00 1.4181337171529922e+01 
114 1 2 1.0280000000000336e+00 -1.1318020717274302e+02 1.0000000000000000e+00 8.2714422108414425e+00 8.1376672188233190e+00 1.3269310878433872e+01 
96 1 2 1.0280000000000282e+00 3.1008944475153885e+02 1.0000000000000000e+00 7.6449506530578537e+00 7.8922950669192860e+00 1.4055051955324213e+01 
21 1 2 1.0280000000000349e+00 -1.6338982079591267e+02 1.0000000000000000e+00 7.7551357745437413e+00 8.2530992748086582e+00 1.3882501278267702e+01 
8 1 2 1.0280000000000327e+00 -9.5029598999961763e+01 1.0000000000000000e+00 8.2135870090750327e+00 8.1426939241911160e+00 1.3318664459706005e+01 
74 1 2 1.0280000000000398e+00 4.0333342649083022e+01 1.0000000000000000e+00 8.1804758203634940e+00 8.5136117179128163e+00 1.3409703537932460e+01 
32 1 2 1.0280000000000353e+00 1.0439290599840621e+02 1.0000000000000000e+00 7.7104301342187913e+00 7.9493613446188007e+00 1.3935899981863711e+01 
130 1 2 1.0280000000000404e+00 1.3559699979470676e+02 1.0000000000000000e+00 8.5268507521159513e+00 8.2755240286382250e+00 1.3041187110266177e+01 
64 1 2 1.0280000000000455e+00 7.5979591738210459e+00 1.0000000000000000e+00 7.9008506740269988e+00 8.2890161141495078e+00 1.3673183014347746e+01 
85 1 2 1.0280000000000342e+00 -6.3221863298643072e+01 1.0000000000000000e+00 8.1002699611812510e+00 8.1464734583060139e+00 1.3426257570943310e+01 
23 1 2 1.0280000000000342e+00 -1.5742952343448059e+02 1.0000000000000000e+00 8.0345001103261620e+00 8.2639043880479850e+00 1.3498125054377844e+01 
124 1 2 1.0280000000000611e+00 1.4045751907433410e+02 1.0000000000000000e+00 9.0491911949081629e+00 8.4090150852556427e+00 1.2688969209151619e+01 
108 1 2 1.0280000000000453e+00 1.1526253358174125e+02 1.0000000000000000e+00 8.4349319583951452e+00 8.5589634765437470e+00 1.3154105007382840e+01 
152 1 2 1.0280000000000413e+00 -1.5969244218155831e+02 1.0000000000000000e+00 8.0484088653033989e+00 8.2993346082874186e+00 1.3487469623688094e+01 
173 1 2 1.0280000000000427e+00 -1.0154647202613467e+02 1.0000000000000000e+00 7.8191537394929851e+00 8.1340266488233883e+00 1.3761315463155178e+01 
31 1 2 1.0279999999996636e+00 3.1688224172749597e+02 1.0000000000000000e+00 9.9945804425620626e+00 8.7532161369130019e+00 1.2348585757777224e+01 
56 1 2 1.0279999999998293e+00 9.7496715589181573e+00 1.0000000000000000e+00 1.0275976233807260e+01 8.9534231630079049e+00 1.2016719826945220e+01 
37 1 2 1.0279999999995488e+00 3.6165834472288594e+01 1.0000000000000000e+00 1.0089025228794544e+01 8.8500337274537877e+00 1.2222691617187966e+01 
127 1 2 1.0279999999998124e+00 1.5960601945297100e+02 1.0000000000000000e+00 1.0239279469194832e+01 8.9376211126041465e+00 1.2048937536017576e+01 
35 1 2 1.0279999999996576e+00 -5.6368151055094316e+01 1.0000000000000000e+00 1.0357650102231409e+01 8.9338812832739816e+00 1.1753650366381310e+01 
60 1 2 1.0280000000003480e+00 2.6983725362511791e+02 1.0000000000000000e+00 1.0397149635226311e+01 9.1062434779861654e+00 1.1946084210799270e+01 
88 1 2 1.0279999999999179e+00 2.4098072801475944e+01 1.0000000000000000e+00 1.1753277250424036e+01 9.3677411014875869e+00 1.0619074160021610e+01 
119 1 2 1.0280000000000222e+00 -2.1884797486866799e+02 1.0000000000000000e+00 7.4672708796818181e+00 7.9198621909988693e+00 1.4416916147343779e+01 
92 1 2 1.0280000000000169e+00 9.1667137783601277e+01 1.0000000000000000e+00 7.4932669888648249e+00 7.7263674179583237e+00 1.4423922755214045e+01 
54 1 2 1.0279999999999296e+00 1.8706796176371842e+02 1.0000000000000000e+00 1.1032592431157289e+01 9.3245676668300792e+00 1.1483295761848979e+01 
14 1 2 1.0279999999999205e+00 -2.5661256144085053e+02 1.0000000000000000e+00 1.1457291535283350e+01 9.3573667295042249e+00 1.1072751960750079e+01 
163 1 2 1.0279999999998988e+00 9.0558489583885788e+01 1.0000000000000000e+00 1.1194404027186550e+01 9.3364164274200334e+00 1.1345260914970245e+01 
149 1 2 1.0280000000000602e+00 -2.4713914956074836e+02 1.0000000000000000e+00 1.0776899541717102e+01 9.4895769681437940e+00 1.0853515903407910e+01 
1 1 2 1.0279999999999168e+00 1.2252600470884809e+02 1.0000000000000000e+00 1.1373316534871986e+01 9.3781823182869353e+00 1.1177665969734798e+01 
79 1 2 1.0279999999999125e+00 2.2657392375716068e+02 1.0000000000000000e+00 1.1254940090489665e+01 9.3813198159376814e+00 1.1295454219629434e+01 
86 1 2 1.0279999999999567e+00 -1.4637933620309784e+01 1.0000000000000000e+00 1.1327404797657525e+01 9.4041833797109806e+00 1.1229471832391289e+01 
159 1 2 1.0280000000000706e+00 6.4682161459860055e+01 1.0000000000000000e+00 1.1151117997454824e+01 9.5682472163033321e+00 1.1313531040737457e+01 
9 1 2 1.0280000000000684e+00 -1.2455760981215684e+02 1.0000000000000000e+00 1.1685927942222122e+01 9.4859222480074799e+00 1.0849699753348871e+01 
143 1 2 1.0280000000000546e+00 -1.5401861039422482e+02 1.0000000000000000e+00 1.1633805392318051e+01 9.5157891722982146e+00 1.0921589528351882e+01 
44 1 2 1.0280000000000731e+00 2.9470802384686220e+02 1.0000000000000000e+00 1.1051741189746808e+01 9.7897193902290134e+00 1.0701699187470640e+01 
170 1 2 1.0280000000000584e+00 -1.9242565949325768e+02 1.0000000000000000e+00 1.1333795257348676e+01 9.7248398810649768e+00 1.1080738882742754e+01 
177 1 2 1.0280000000001925e+00 -3.0424349433264229e+02 1.0000000000000000e+00 1.2152256416389010e+01 9.6754513912561411e+00 1.0227827777453498e+01 
83 1 2 1.0280000000000749e+00 -1.0238704104628550e+02 1.0000000000000000e+00 1.1973141053671773e+01 9.6982122350639415e+00 1.0514998950488192e+01 
57 1 2 1.0280000000001586e+00 2.6250728668126104e+01 1.0000000000000000e+00 1.2073330575205352e+01 9.7674911602251733e+00 1.0375654210112534e+01 
104 1 2 1.0280000000000897e+00 -7.3743885262365211e+01 1.0000000000000000e+00 1.2047795818140377e+01 9.8305175088542622e+00 1.0395507319288006e+01 
167 1 2 1.0280000000002041e+00 -1.2754239863415771e+02 1.0000000000000000e+00 1.1355361413641953e+01 9.9484745552254736e+00 1.0650827193929416e+01 
90 1 2 1.0279999999999847e+00 -5.4084836090133734e+01 1.0000000000000000e+00 7.5465979356621986e+00 7.1276187901910344e+00 1.5574973816793053e+01 
25 1 2 1.0279999999999851e+00 -1.6527547103058902e+02 1.0000000000000000e+00 7.3183736396056185e+00 7.8444785041657648e+00 1.5033696339035375e+01 
13 1 2 1.0279999999999923e+00 -1.3841058925135013e+02 1.0000000000000000e+00 7.3595183409542990e+00 7.4731710148404531e+00 1.5390975859569808e+01 
134 1 2 1.0279999999999310e+00 -1.0279509286577262e+01 1.0000000000000000e+00 9.1761622195412826e+00 7.6391580201480753e+00 1.8036047878533633e+01 
59 1 2 1.0280000000002034e+00 6.5388470420776086e+00 1.0000000000000000e+00 1.0153145949506913e+01 8.2687176396788065e+00 1.8375628239995518e+01 
121 1 2 1.0279999999999865e+00 2.8005757083970138e+02 1.0000000000000000e+00 7.3221280289039941e+00 7.6509689316024181e+00 1.5586147196051460e+01 
66 1 2 1.0279999999999785e+00 1.0117604001525757e+01 1.0000000000000000e+00 8.3820339577653460e+00 6.8917679935944509e+00 1.6988036255004314e+01 
107 1 2 1.0279999999999905e+00 -5.4406706787439241e+00 1.0000000000000000e+00 8.0629987712237376e+00 6.7452257961041688e+00 1.5846395826012401e+01 
80 1 2 1.0279999999999581e+00 -4.2126707617399020e+01 1.0000000000000000e+00 8.3360884346202155e+00 7.2853562895386901e+00 1.7411987129886263e+01 
113 1 2 1.0279999999999558e+00 -1.1444275220608841e+02 1.0000000000000000e+00 8.4873012788577782e+00 7.3321752177573218e+00 1.7557505305183088e+01 
46 1 2 1.0279999999999514e+00 9.9906944237499914e+01 1.0000000000000000e+00 8.7246963200013656e+00 7.4152461116963000e+00 1.7749130222703542e+01 
61 1 2 1.0279999999999556e+00 -2.6484242556408356e+02 1.0000000000000000e+00 9.9868653555552100e+00 7.7282029824618350e+00 1.8178646340509523e+01 
28 1 2 1.0279999999999863e+00 5.1713586353369256e-01 1.0000000000000000e+00 7.5702454534760140e+00 7.4067696356476720e+00 1.6418808112091508e+01 
39 1 2 1.0279999999999851e+00 1.7234055388396257e+02 1.0000000000000000e+00 7.3294469436707512e+00 7.7129316047975767e+00 1.5033984636415179e+01 
117 1 2 1.0279999999999601e+00 4.8899685378054826e+01 1.0000000000000000e+00 8.9909294111319316e+00 7.3654396085147527e+00 1.7835963977002944e+01 
33 1 2 1.0279999999999807e+00 1.1849921136339977e+02 1.0000000000000000e+00 7.9504589656911051e+00 7.2802170648910094e+00 1.7000600465650635e+01 
126 1 2 1.0279999999996863e+00 1.6629398376647316e+01 1.0000000000000000e+00 1.0308911603171731e+01 8.1213550843214382e+00 1.8384896055480109e+01 
101 1 2 1.0279999999999800e+00 -5.0158119243124162e+01 1.0000000000000000e+00 7.9682977889344455e+00 7.1832515433439070e+00 1.6935699354923393e+01 
148 1 2 1.0279999999999245e+00 1.6528791475940511e+02 1.0000000000000000e+00 8.3301030761104453e+00 7.5966617768019962e+00 1.7546613534923338e+01 
87 1 2 1.0279999999998963e+00 2.7157686971402278e+01 1.0000000000000000e+00 8.9645673300640656e+00 7.6659776498230245e+00 1.7960802380643035e+01 
94 1 2 1.0280000000000977e+00 1.0715370157499936e+02 1.0000000000000000e+00 9.9631071835574065e+00 8.2807591367592703e+00 1.8316439958541594e+01 
72 1 2 1.0279999999999816e+00 -8.2539027577900782e+01 1.0000000000000000e+00 9.7600056150514067e+00 7.0621060624373309e+00 1.6962771548208519e+01 
45 1 2 1.0279999999999618e+00 6.0536288005497099e+01 1.0000000000000000e+00 8.0237608662228261e+00 7.2034504201261162e+00 1.7028337375355925e+01 
51 1 2 1.0279999999999716e+00 -2.1364082328764709e+01 1.0000000000000000e+00 8.7097954211668274e+00 7.1311446160129597e+00 1.7526651638045333e+01 
82 1 2 1.0279999999999554e+00 1.8935035886995848e+01 1.0000000000000000e+00 8.1812214928866354e+00 7.3154197409367621e+00 1.7291565706562221e+01 
150 1 2 1.0279999999999827e+00 -8.1364096033291247e+01 1.0000000000000000e+00 8.7668157273465788e+00 6.9538211533474197e+00 1.7323927930562974e+01 
110 1 2 1.0279999999999572e+00 5.0821749510629175e+01 1.0000000000000000e+00 8.4680870591088500e+00 7.3304163799049737e+00 1.7542915596938808e+01 
49 1 2 1.0280000000000191e+00 8.1386430634495795e+01 1.0000000000000000e+00 9.3826382378113191e+00 8.9582918529573856e+00 1.6496872982208071e+01 
63 1 2 1.0279999999999840e+00 2.0852600180708038e+01 1.0000000000000000e+00 8.5936945039978543e+00 6.7699032372423291e+00 1.6861012940979066e+01 
180 1 2 1.0279999999999170e+00 -1.7087258204287707e+02 1.0000000000000000e+00 9.1922455749705989e+00 7.7061051980072151e+00 1.8062124176416432e+01 
106 1 2 1.0279999999999736e+00 -4.2602248997957037e-01 1.0000000000000000e+00 9.0266826685586761e+00 7.1537123608172930e+00 1.7661564001373396e+01 
128 1 2 1.0279999999998817e+00 3.9049489489230226e+01 1.0000000000000000e+00 9.9285443396494113e+00 7.9536946578095389e+00 1.8301628062957963e+01 
75 1 2 1.0280000000002751e+00 -2.6394809039976359e+01 1.0000000000000000e+00 1.0238958437892155e+01 8.3384589149911257e+00 1.8384201737826800e+01 
136 1 2 1.0280000000004055e+00 -4.2964671427280550e+01 1.0000000000000000e+00 1.0410414296387792e+01 8.3521925988916408e+00 1.8426593224871176e+01 
103 1 2 1.0279999999997187e+00 4.1110009597318594e+01 1.0000000000000000e+00 1.0515389080215835e+01 8.3157849311331375e+00 1.8447179884372208e+01 
123 1 2 1.0280000000004335e+00 8.4196497042102521e+01 1.0000000000000000e+00 1.0402503683279859e+01 8.3841578598872619e+00 1.8416630812561795e+01 
178 1 2 1.0279999999996066e+00 7.6744888293678017e+01 1.0000000000000000e+00 1.0531573786095016e+01 8.2831944922198559e+00 1.8442065716439991e+01 
52 1 2 1.0280000000008016e+00 3.7791931774204329e+02 1.0000000000000000e+00 1.0693555214161435e+01 8.4341593041034706e+00 1.8470129453501198e+01 
95 1 2 1.0279999999998275e+00 -6.1808764327332298e+01 1.0000000000000000e+00 1.1253326775315649e+01 8.5232855475717049e+00 1.8700715811529705e+01 
18 1 2 1.0279999999999936e+00 -7.5306549516355545e+01 1.0000000000000000e+00 1.1341031317740280e+01 8.5887037488439830e+00 1.8656824642319766e+01 
78 1 2 1.0280000000002258e+00 -6.5843847290648057e+01 1.0000000000000000e+00 1.1459731212628899e+01 8.6493958163554865e+00 1.8663486792004406e+01 
19 1 2 1.0279999999998375e+00 -2.7361896761292890e+01 1.0000000000000000e+00 1.1613235648949445e+01 8.5613158669099469e+00 1.8801683409196151e+01 
4 1 2 1.0279999999998481e+00 3.1844742906573680e+02 1.0000000000000000e+00 1.1884681350442476e+01 8.6675425556928065e+00 1.8826342891222076e+01 
43 1 2 1.0280000000000067e+00 1.8478334009868149e+02 1.0000000000000000e+00 1.2154888002453220e+01 8.9821187976010446e+00 1.8810301513785305e+01 
2 1 2 1.0279999999998046e+00 -5.8805922884633659e+01 1.0000000000000000e+00 1.2381778170061024e+01 8.9271720842573803e+00 1.8925396853014384e+01 
102 1 2 1.0279999999998717e+00 2.1392517654357613e+02 1.0000000000000000e+00 1.2486470588600531e+01 9.0455469001591879e+00 1.8939559709663705e+01 
138 1 2 1.0279999999999345e+00 9.8499560782310851e+01 1.0000000000000000e+00 1.2632091418045581e+01 8.7280632750469351e+00 1.9309625907105907e+01 
155 1 2 1.0279999999998521e+00 -1.8827226728575397e+02 1.0000000000000000e+00 1.2943812188329266e+01 9.0660413743875328e+00 1.9233474815858600e+01 
38 1 2 1.0280000000000173e+00 3.2481854510378454e+01 1.0000000000000000e+00 1.3039220702470503e+01 9.7787361806591022e+00 1.9285746574208144e+01 
7 1 2 1.0279999999999223e+00 1.7325823760522724e+01 1.0000000000000000e+00 1.3313539809570173e+01 9.1974408444325189e+00 1.9523331352753043e+01 
10 1 2 1.0280000000000034e+00 -4.7733103148754935e+01 1.0000000000000000e+00 1.3315440766713426e+01 9.1630527074420982e+00 1.9554547809193505e+01 
70 1 2 1.0279999999999452e+00 3.2885494996792040e+01 1.0000000000000000e+00 1.3325322076092304e+01 9.5275570266167762e+00 1.9420022157853012e+01 
118 1 2 1.0279999999999672e+00 7.8117929629944626e+01 1.0000000000000000e+00 1.3217811223741968e+01 1.0455353870687807e+01 2.5207716530315842e+00 
162 1 2 1.0280000000000835e+00 -4.4138528702902935e+00 1.0000000000000000e+00 1.3125861019015955e+01 1.0675597726484403e+01 7.5674966618114292e-01 
141 1 2 1.0280000000000573e+00 6.8911487354572316e+01 1.0000000000000000e+00 1.3276379326599725e+01 1.1152217590858381e+01 6.5583749794219903e+00 
115 1 2 1.0279999999998506e+00 1.5697462183952885e+02 1.0000000000000000e+00 1.2764419138442873e+01 1.0024858550724732e+01 9.0998749138680370e+00 
26 1 2 1.0279999999998521e+00 7.0628061812373076e+01 1.0000000000000000e+00 1.3103084959631424e+01 1.0297064395996333e+01 8.4040317459454510e+00 
168 1 2 1.0279999999999678e+00 -3.5427659068144919e+01 1.0000000000000000e+00 1.2492073928338996e+01 1.0042505713699425e+01 8.1839851618644168e+00 
142 1 2 1.0279999999998517e+00 -6.4093761023243275e+01 1.0000000000000000e+00 1.3071209108386201e+01 1.0266375366938563e+01 8.4696616086040635e+00 
169 1 2 1.0280000000000189e+00 -9.7324388725503184e+01 1.0000000000000000e+00 1.3140702017562539e+01 1.1102104615350980e+01 6.6058726692560930e+00 
65 1 2 1.0279999999998510e+00 -4.2899402709587076e+00 1.0000000000000000e+00 1.2784509568826884e+01 1.0049213496532921e+01 9.0663705410721320e+00 
161 1 2 1.0280000000000171e+00 -2.0814906841547736e+02 1.0000000000000000e+00 1.2624377471110771e+01 1.0675693389607444e+01 7.6540229795849308e+00 
131 1 2 1.0279999999998515e+00 3.6636956039300244e+01 1.0000000000000000e+00 1.2747893113051100e+01 1.0026754703397584e+01 9.1441032823562942e+00 
166 1 2 1.0279999999998508e+00 1.8280319951420222e+02 1.0000000000000000e+00 1.3056270816657479e+01 1.0229191801210511e+01 8.4900355005200989e+00 
67 1 2 1.0280000000001472e+00 -8.7233116857707898e+01 1.0000000000000000e+00 1.1807246089341938e+01 1.0014704875154727e+01 1.0458220016937938e+01 
47 1 2 1.0280000000001692e+00 -5.9703981021168289e+01 1.0000000000000000e+00 1.1591727878261381e+01 1.0012539780862207e+01 1.0540379642582966e+01 
3 1 2 1.0280000000001936e+00 1.6379003248327493e+02 1.0000000000000000e+00 1.1470167222940070e+01 1.0000624924225775e+01 1.0544533446244520e+01 
6 1 2 1.0280000000000264e+00 1.0689039444407634e+02 1.0000000000000000e+00 1.4054231477396510e+01 9.8099975608942263e+00 8.2219634447845258e-01 
5 1 2 1.0280000000000378e+00 7.9095396544096204e+01 1.0000000000000000e+00 1.3776915741914054e+01 9.3743235564753817e+00 2.3272785670748872e-01 
146 1 2 1.0279999999999736e+00 -2.2185778055129589e+02 1.0000000000000000e+00 1.3501356667358879e+01 9.2284574706504543e+00 1.0626216311991448e+00 
116 1 2 1.0280000000000242e+00 4.9882384903083434e+01 1.0000000000000000e+00 1.4087930871334223e+01 9.9921092315086089e+00 9.1421754796738730e-01 
84 1 2 1.0280000000000300e+00 -8.6642072618221135e+01 1.0000000000000000e+00 1.3839997072930673e+01 9.4917516095190795e+00 2.3915838585986404e-01 
139 1 2 1.0279999999999847e+00 3.4713051098391315e+02 1.0000000000000000e+00 1.3929436523677406e+01 9.7634144827830003e+00 1.6912056510444888e+00 
58 1 2 1.0280000000000151e+00 -4.6257888423392004e+01 1.0000000000000000e+00 1.3810169750384881e+01 9.9893570576937591e+00 7.1822805850008331e-02 
158 1 2 1.0279999999998808e+00 5.8808930170043908e+01 1.0000000000000000e+00 1.3492846562619007e+01 9.5755003975604485e+00 1.9583056459983212e+01 
55 1 2 1.0280000000000054e+00 -2.0063356155473747e+02 1.0000000000000000e+00 1.3442892507172102e+01 9.8201242464703427e+00 1.9567994308016914e+01 
129 1 2 1.0280000000000513e+00 6.2719954667847446e+01 1.0000000000000000e+00 1.3802501572787788e+01 1.0717818767621120e+01 1.6107605797380267e+00 
12 1 2 1.0280000000000411e+00 9.0721873207696646e+01 1.0000000000000000e+00 1.3577682884930253e+01 1.0633435628570776e+01 6.8169212728076267e-01 
135 1 2 1.0279999999998832e+00 3.3512557119234691e+02 1.0000000000000000e+00 1.3719568681948251e+01 1.0755649862387882e+01 3.2835559232361278e+00 
120 1 2 1.0279999999999716e+00 -1.7909110771616054e+02 1.0000000000000000e+00 1.3592356924643115e+01 1.0792929559543561e+01 2.3178234150191517e+00 
179 1 2 1.0280000000000127e+00 -1.7225841100583438e+02 1.0000000000000000e+00 1.3597449869651689e+01 1.0790783561559246e+01 2.3808822435853352e+00 
175 1 2 1.0279999999998959e+00 -9.6276040244320143e+01 1.0000000000000000e+00 1.3717851497416197e+01 1.0755709040760228e+01 3.2517166788120937e+00 
154 1 2 1.0280000000000631e+00 -8.7023750099728318e+01 1.0000000000000000e+00 1.3754547094369100e+01 1.0783570548960558e+01 3.7245858384528425e+00 
42 1 2 1.0280000000000729e+00 -1.0161833394830472e+02 1.0000000000000000e+00 1.3764311525356138e+01 1.0795576888543886e+01 3.8076763665511355e+00 
40 1 2 1.0280000000000402e+00 3.2785695849250772e+02 1.0000000000000000e+00 1.3833415196787767e+01 1.0511510630386063e+01 7.6521954203457510e-01 
71 1 2 1.0280000000000171e+00 1.2343144546533114e+02 1.0000000000000000e+00 1.3440854011706918e+01 1.0441085211846666e+01 1.2498093868529440e-01 
76 1 2 1.0280000000000233e+00 1.7533700271975891e+02 1.0000000000000000e+00 1.3667117023819834e+01 1.0467808200585052e+01 3.9004758280899843e-01 
147 1 2 1.0279999999999960e+00 -3.9198093173868682e+02 1.0000000000000000e+00 1.3663287815913019e+01 1.0800051565412817e+01 3.7196889209269068e+00 
105 1 2 1.0279999999999714e+00 -2.0888618380681969e+01 1.0000000000000000e+00 1.3972909298631722e+01 1.0492165188581536e+01 1.1547096307500000e+00 
109 1 2 1.0280000000000222e+00 -3.5319854334021954e+01 1.0000000000000000e+00 1.3856691878233873e+01 1.0480344356882735e+01 7.4294735695157399e-01 
140 1 2 1.0279999999999365e+00 -7.5631243342551116e+01 1.0000000000000000e+00 1.3866468602916720e+01 1.0882497986220400e+01 4.4224842094983892e+00 
145 1 2 1.0280000000000304e+00 6.7382332085003796e+01 1.0000000000000000e+00 1.3815483698094596e+01 1.0868341753022014e+01 4.1986541726240620e+00 
62 1 2 1.0280000000000327e+00 -2.1790506545905640e+02 1.0000000000000000e+00 1.3830654446804546e+01 1.0431585482528314e+01 5.8327321033052004e-01 
20 1 2 1.0280000000000176e+00 -2.4324726101696689e+02 1.0000000000000000e+00 1.3755600570105704e+01 1.0413470856682460e+01 4.1837471619526689e-01 
16 1 2 1.0279999999999665e+00 -4.0409502266368861e+01 1.0000000000000000e+00 1.3856109325194206e+01 1.0923681089280347e+01 4.5075368044505479e+00 
172 1 2 1.0279999999999825e+00 -1.1636367228821487e+02 1.0000000000000000e+00 1.3881030704144164e+01 1.0967830305921050e+01 4.7796644165134934e+00 
89 1 2 1.0279999999999829e+00 -8.8368877486859219e+01 1.0000000000000000e+00 1.3805634483762381e+01 1.0965124522015477e+01 4.4956383620459031e+00 
15 1 2 1.0279999999999925e+00 -5.0154855551651650e+01 1.0000000000000000e+00 1.3763119628960775e+01 1.1092643525571464e+01 4.9727531512369936e+00 
41 1 2 1.0280000000000316e+00 -5.2998035405084167e+01 1.0000000000000000e+00 1.4064219883239948e+01 1.0202628118196865e+01 9.1128831318170478e-01 
176 1 2 1.0280000000000185e+00 -2.8714413449450069e+02 1.0000000000000000e+00 1.3921571456645905e+01 1.0209763675160845e+01 4.4895029540643894e-01 
53 1 2 1.0280000000000025e+00 -1.7312885395632819e+01 1.0000000000000000e+00 1.3438912888509199e+01 1.1062976427704537e+01 4.9937430985932032e+00 
125 1 2 1.0280000000000216e+00 -9.1274059619733976e+01 1.0000000000000000e+00 1.3992360997154035e+01 1.0030998347744834e+01 4.8877789633505392e-01 
11 1 2 1.0280000000000209e+00 -1.6983625647551526e+02 1.0000000000000000e+00 1.3914763066914864e+01 1.0002667494694677e+01 2.7651139153499665e-01 
164 1 2 1.0280000000000780e+00 -1.5849875290693512e+02 1.0000000000000000e+00 1.3570707791686162e+01 1.1203986732082933e+01 5.9453305446008082e+00 
165 1 2 1.0279999999999763e+00 -4.4358445410173957e+01 1.0000000000000000e+00 1.3911521779546318e+01 1.1003584443352302e+01 5.2597548857153082e+00 
137 1 2 1.0280000000000225e+00 -1.1947222117138966e+02 1.0000000000000000e+00 1.3967898165231430e+01 1.0833017098673311e+01 5.5631920502967827e+00 
68 1 2 1.0280000000000515e+00 -4.1765181722700170e+01 1.0000000000000000e+00 1.3964538913635369e+01 1.0801830416019699e+01 5.6567376887051077e+00 
22 1 2 1.0280000000000360e+00 -9.5493103085448929e+00 1.0000000000000000e+00 1.3934798634448970e+01 1.0962246543216430e+01 5.5478958013325981e+00 
171 1 2 1.0279999999999954e+00 1.8006279216744213e+02 1.0000000000000000e+00 1.3917455891008318e+01 1.0984726872364439e+01 5.6666250959587998e+00 
157 1 2 1.0280000000000120e+00 -8.3241606130787545e+01 1.0000000000000000e+00 1.3875257746399749e+01 1.1057130800363902e+01 5.4345354249939728e+00 
174 1 2 1.0280000000000520e+00 -7.6208720750267545e+01 1.0000000000000000e+00 1.3857662181042869e+01 1.1073284282646846e+01 5.3638533285215084e+00 
98 1 2 1.0279999999999554e+00 -4.9533043753860497e+01 1.0000000000000000e+00 1.3875594628713264e+01 1.0927993126152929e+01 6.1701840604709544e+00 
111 1 2 1.0280000000000313e+00 -3.8052502538660818e+01 1.0000000000000000e+00 1.3841530917441526e+01 1.1056187274245236e+01 5.9290973349993621e+00 
73 1 2 1.0280000000000229e+00 2.6267538720510851e+02 1.0000000000000000e+00 1.3832767300810794e+01 1.1039400358859986e+01 6.0604293720498594e+00 
24 1 2 1.0279999999999982e+00 1.5501867576701695e+01 1.0000000000000000e+00 1.3836141484879883e+01 1.0914450913719433e+01 6.3714286095770998e+00 
36 1 2 1.0280000000000074e+00 -1.8538103717625427e+02 1.0000000000000000e+00 1.3781547885183942e+01 1.1101415693652708e+01 6.0192124369839926e+00 
17 1 2 1.0279999999999934e+00 -1.1032740785423394e+02 1.0000000000000000e+00 1.3762160689675156e+01 1.0919015620730569e+01 6.6198555601951323e+00 
132 1 2 1.0279999999999903e+00 3.3699062441234253e+02 1.0000000000000000e+00 1.3715704386548360e+01 1.1040218170814137e+01 6.4941818321623481e+00 
69 1 2 1.0280000000000360e+00 5.0736465594153636e+01 1.0000000000000000e+00 1.3650187837610451e+01 1.1162298219295828e+01 6.1642376533331413e+00 
34 1 2 1.0280000000000216e+00 2.1453128157832737e+02 1.0000000000000000e+00 1.3555148157848778e+01 1.1189044517830512e+01 5.4722415492795582e+00 
81 1 2 1.0279999999999927e+00 7.9836494980432079e+01 1.0000000000000000e+00 1.3468569461712462e+01 1.0953775025745230e+01 7.1867955578916352e+00 
29 1 2 1.0280000000000118e+00 4.1387498149015926e+01 1.0000000000000000e+00 1.3448465138880531e+01 1.1119492077553103e+01 6.7425648806038341e+00 
48 1 2 1.0280000000000180e+00 -4.6037826434505845e+01 1.0000000000000000e+00 1.3438500773010640e+01 1.0859824003166807e+01 7.3996113063695388e+00 
112 1 2 1.0279999999999467e+00 -6.9645367023615051e+01 1.0000000000000000e+00 1.3426039266095833e+01 1.0876043837328222e+01 7.3928150798417800e+00 
133 1 2 1.0279999999999769e+00 8.4435774299980110e+01 1.0000000000000000e+00 1.3507217670953136e+01 1.0086936283586546e+01 1.9767309104273444e+01 

Velocities

144 2.2002050337988534e-12 -3.4576022231144876e-12 4.9786451884231974e-13
27 2.0183096627141844e-12 -2.4427382196949377e-12 1.8050423073495925e-12
153 3.4856715055768409e-12 -2.9504084503384312e-12 1.3638605720235646e-12
151 2.5623388656291696e-12 -2.8325889908218111e-12 2.2486942522464790e-13
50 1.4530560926056982e-12 -2.4718325397759671e-12 -3.5475321596933576e-13
77 -3.0405801336084448e-12 -1.5017112880573715e-12 -1.7986659610415892e-12
100 -1.1815602362062801e-13 -1.9709758010646567e-12 -6.1890282430505533e-12
160 -1.7491556067344309e-12 2.6281751961297108e-13 -4.9772555295497341e-12
156 1.1835662974585008e-12 7.3737814808393189e-12 -4.5942777010308605e-12
122 -2.6090746066108009e-12 1.5238948986208099e-12 -6.6442143012309301e-12
97 -1.2751302786033444e-12 -1.2218168223194390e-12 -6.2456696869707153e-12
93 -1.6981438221274183e-12 -5.3474330542045174e-13 -4.2824739496165391e-12
30 -9.5925068981884067e-13 1.2646232164154477e-12 -8.0026927118780325e-12
91 2.4770494705178870e-12 -1.2435248298999111e-12 -2.8582003152423330e-12
99 -1.3644672173434476e-12 -2.6165187752441115e-12 -4.4728511727558935e-12
114 6.0733041586357268e-14 -1.1815513405417898e-12 -7.1537127820359928e-12
96 -1.3007518611991044e-12 -1.4857685710332604e-12 -4.7267557788083459e-12
21 -1.9927699149553662e-12 5.2208843879177738e-13 -5.5473568985013536e-12
8 -6.5280545568796919e-14 -1.0354871018381498e-12 -7.0170138006255283e-12
74 -1.1032961566808144e-12 1.6249295559976426e-12 -6.9024064689090336e-12
32 -1.9036953398219927e-12 -1.4154533361502827e-12 -5.5779821248721885e-12
130 1.3902183393670979e-13 -9.6422985409626679e-13 -7.6505594181727466e-12
64 -2.4938822987448564e-12 7.0643835489521490e-13 -6.9160688698630616e-12
85 -5.5941689578505614e-13 -8.3794016750979742e-13 -6.9600963895476288e-12
23 -9.3205377908152685e-13 3.7913263397075609e-14 -6.6902402531335392e-12
124 2.2495716664207472e-13 -1.8738397630792230e-12 -7.8063103543524187e-12
108 -7.8648878702082889e-13 1.4364139962159264e-12 -7.4953108709850673e-12
152 -1.5159861489876962e-12 3.4811630226890141e-13 -7.1996009222632017e-12
173 -2.4234895852065060e-12 -3.9448811673867848e-13 -6.5855732889226530e-12
31 -7.5292032211537880e-12 4.1800378704645045e-12 8.8841872970870669e-13
56 -4.6382229853291478e-12 -5.3147816829858176e-13 -1.5790385296190798e-13
37 -7.8619081642271791e-12 3.2314440635024703e-12 -8.1638466269706386e-14
127 -4.5874940041801974e-12 -3.0383698654160026e-13 -1.7433869096396007e-13
35 -2.2585262423164372e-12 6.7958331853051772e-12 3.4082059432407406e-12
60 -1.0631686491477007e-12 -1.4950456986535486e-12 8.0893654539770586e-12
88 -7.6623179252789105e-12 -2.8977359420553947e-13 1.5900863629170342e-12
119 -1.1257645656560427e-12 -1.0398990676395760e-12 -3.1533956302910246e-12
92 -1.8345733138746913e-13 -1.6692720915886934e-12 -2.9333216920008868e-12
54 -7.0757121210054208e-12 -3.4829249084320250e-12 7.1344129338687284e-13
14 -8.2806619230201928e-12 -2.0259504617352086e-12 1.1186734041513405e-12
163 -8.4080910490812558e-12 -2.7192426282756105e-12 -2.6020360513772450e-13
149 -8.8628259148109808e-12 -2.9914156632889608e-12 1.7066972938873639e-12
1 -8.3294089234801824e-12 -2.6230341889014358e-12 6.9053208574656843e-13