LAMMPS data file via write_data, version 30 Jul 2016, timestep = 1000000

2080 atoms
8 atom types

0.0000000000000000e+00 4.0000000000000000e+01 xlo xhi
0.0000000000000000e+00 4.0000000000000000e+01 ylo yhi
0.0000000000000000e+00 1.0000000000000000e+02 zlo zhi

Masses

1 3.896
2 10.72
3 1058.08
4 8.378
5 8.378
6 8.378
7 8.378
8 8.378

Atoms # meso-molecular

1 2 4 2.2559723595316457e+00 1.0000000000000000e+00 4.2000000000000000e+03 0.0000000000000000e+00 0.0000000000000000e+00 2.5000000000000000e+00 
2 2 4 2.2559723595316457e+00 1.0000000000000000e+00 4.2000000000000000e+03 0.0000000000000000e+00 2.0000000000000000e+00 2.5000000000000000e+00 
3 2 4 2.2559723595316457e+00 1.0000000000000000e+00 4.2000000000000000e+03 0.0000000000000000e+00 4.0000000000000000e+00 2.5000000000000000e+00 
4 2 4 2.2559723595316457e+00 1.0000000000000000e+00 4.2000000000000000e+03 0.0000000000000000e+00 6.0000000000000000e+00 2.5000000000000000e+00 
21 2 4 2.2559723595316457e+00 1.0000000000000000e+00 4.2000000000000000e+03 2.0000000000000000e+00 0.0000000000000000e+00 2.5000000000000000e+00 
22 2 4 2.2559723595316457e+00 1.0000000000000000e+00 4.2000000000000000e+03 2.0000000000000000e+00 2.0000000000000000e+00 2.5000000000000000e+00 
23 2 4 2.2559723595316457e+00 1.0000000000000000e+00 4.2000000000000000e+03 2.0000000000000000e+00 4.0000000000000000e+00 2.5000000000000000e+00 
24 2 4 2.2559723595316457e+00 1.0000000000000000e+00 4.2000000000000000e+03 2.0000000000000000e+00 6.0000000000000000e+00 2.5000000000000000e+00 
41 2 4 2.2559723595316457e+00 1.0000000000000000e+00 4.2000000000000000e+03 4.0000000000000000e+00 0.0000000000000000e+00 2.5000000000000000e+00 
42 2 4 2.2559723595316457e+00 1.0000000000000000e+00 4.2000000000000000e+03 4.0000000000000000e+00 2.0000000000000000e+00 2.5000000000000000e+00 
43 2 4 2.2559723595316457e+00 1.0000000000000000e+00 4.2000000000000000e+03 4.0000000000000000e+00 4.0000000000000000e+00 2.5000000000000000e+00 
44 2 4 2.2559723595316457e+00 1.0000000000000000e+00 4.2000000000000000e+03 4.0000000000000000e+00 6.0000000000000000e+00 2.5000000000000000e+00 
61 2 4 2.2559723595316457e+00 1.0000000000000000e+00 4.2000000000000000e+03 6.0000000000000000e+00 0.0000000000000000e+00 2.5000000000000000e+00 
62 2 4 2.2559723595316457e+00 1.0000000000000000e+00 4.2000000000000000e+03 6.0000000000000000e+00 2.0000000000000000e+00 2.5000000000000000e+00 
63 2 4 2.2559723595316457e+00 1.0000000000000000e+00 4.2000000000000000e+03 6.0000000000000000e+00 4.0000000000000000e+00 2.5000000000000000e+00 
64 2 4 2.2559723595316457e+00 1.0000000000000000e+00 4.2000000000000000e+03 6.0000000000000000e+00 6.0000000000000000e+00 2.5000000000000000e+00 
81 2 4 2.2559723595316457e+00 1.0000000000000000e+00 4.2000000000000000e+03 8.0000000000000000e+00 0.0000000000000000e+00 2.5000000000000000e+00 
82 2 4 2.2559723595316457e+00 1.0000000000000000e+00 4.2000000000000000e+03 8.0000000000000000e+00 2.0000000000000000e+00 2.5000000000000000e+00 
83 2 4 2.2559723595316457e+00 1.0000000000000000e+00 4.2000000000000000e+03 8.0000000000000000e+00 4.0000000000000000e+00 2.5000000000000000e+00 
84 2 4 2.2559723595316457e+00 1.0001966875907065e+00 4.2000000000000000e+03 8.0000000000000000e+00 6.0000000000000000e+00 2.5000000000000000e+00 
101 2 4 2.2559723595316457e+00 1.0000000000000000e+00 4.2000000000000000e+03 1.0000000000000000e+01 0.0000000000000000e+00 2.5000000000000000e+00 
102 2 4 2.2559723595316457e+00 1.0000000000000000e+00 4.2000000000000000e+03 1.0000000000000000e+01 2.0000000000000000e+00 2.5000000000000000e+00 
103 2 4 2.2559723595316457e+00 -4.1120981678997032e-01 4.2000000000000000e+03 1.0000000000000000e+01 4.0000000000000000e+00 2.5000000000000000e+00 
104 2 4 2.2559723595316457e+00 -7.2205136474821273e+01 4.2000000000000000e+03 1.0000000000000000e+01 6.0000000000000000e+00 2.5000000000000000e+00 
121 2 4 2.2559723595316457e+00 1.0000000000000000e+00 4.2000000000000000e+03 1.2000000000000000e+01 0.0000000000000000e+00 2.5000000000000000e+00 
122 2 4 2.2559723595316457e+00 1.0000002137759982e+00 4.2000000000000000e+03 1.2000000000000000e+01 2.0000000000000000e+00 2.5000000000000000e+00 
123 2 4 2.2559723595316457e+00 -7.2208389225882428e+01 4.2000000000000000e+03 1.2000000000000000e+01 4.0000000000000000e+00 2.5000000000000000e+00 
124 2 4 2.2559723595316457e+00 -6.1362344274259181e+02 4.2000000000000000e+03 1.2000000000000000e+01 6.0000000000000000e+00 2.5000000000000000e+00 
141 2 4 2.2559723595316457e+00 9.9896605841567432e-01 4.2000000000000000e+03 1.4000000000000000e+01 0.0000000000000000e+00 2.5000000000000000e+00 
142 2 4 2.2559723595316457e+00 -4.0050038924663465e+00 4.2000000000000000e+03 1.4000000000000000e+01 2.0000000000000000e+00 2.5000000000000000e+00 
143 2 4 2.2559723595316457e+00 -3.2180436639436965e+02 4.2000000000000000e+03 1.4000000000000000e+01 4.0000000000000000e+00 2.5000000000000000e+00 
144 2 4 2.2559723595316457e+00 -1.9530944519146910e+03 4.2000000000000000e+03 1.4000000000000000e+01 6.0000000000000000e+00 2.5000000000000000e+00 
161 2 4 2.2559723595316457e+00 9.6832456964381808e-01 4.2000000000000000e+03 1.6000000000000000e+01 0.0000000000000000e+00 2.5000000000000000e+00 
162 2 4 2.2559723595316457e+00 -1.6498527794495601e+01 4.2000000000000000e+03 1.6000000000000000e+01 2.0000000000000000e+00 2.5000000000000000e+00 
163 2 4 2.2559723595316457e+00 -6.8357730300691662e+02 4.2000000000000000e+03 1.6000000000000000e+01 4.0000000000000000e+00 2.5000000000000000e+00 
164 2 4 2.2559723595316457e+00 -3.7377036496478740e+03 4.2000000000000000e+03 1.6000000000000000e+01 6.0000000000000000e+00 2.5000000000000000e+00 
181 2 4 2.2559723595316457e+00 8.0118091142671721e-01 4.2000000000000000e+03 1.8000000000000000e+01 0.0000000000000000e+00 2.5000000000000000e+00 
182 2 4 2.2559723595316457e+00 -2.2075911898379800e+01 4.2000000000000000e+03 1.8000000000000000e+01 2.0000000000000000e+00 2.5000000000000000e+00 
183 2 4 2.2559723595316457e+00 -9.4020656844868631e+02 4.2000000000000000e+03 1.8000000000000000e+01 4.0000000000000000e+00 2.5000000000000000e+00 
184 2 4 2.2559723595316457e+00 -5.0490341919057992e+03 4.2000000000000000e+03 1.8000000000000000e+01 6.0000000000000000e+00 2.5000000000000000e+00 
5 2 4 2.2559723595316457e+00 1.0000000000000000e+00 4.2000000000000000e+03 0.0000000000000000e+00 8.0000000000000000e+00 2.5000000000000000e+00 
6 2 4 2.2559723595316457e+00 1.0000000000000000e+00 4.2000000000000000e+03 0.0000000000000000e+00 1.0000000000000000e+01 2.5000000000000000e+00 
7 2 4 2.2559723595316457e+00 1.0000000000000000e+00 4.2000000000000000e+03 0.0000000000000000e+00 1.2000000000000000e+01 2.5000000000000000e+00 
25 2 4 2.2559723595316457e+00 1.0000000000000000e+00 4.2000000000000000e+03 2.0000000000000000e+00 8.0000000000000000e+00 2.5000000000000000e+00 
26 2 4 2.2559723595316457e+00 1.0000000000000000e+00 4.2000000000000000e+03 2.0000000000000000e+00 1.0000000000000000e+01 2.5000000000000000e+00 
27 2 4 2.2559723595316457e+00 1.0000000000000000e+00 4.2000000000000000e+03 2.0000000000000000e+00 1.2000000000000000e+01 2.5000000000000000e+00 
45 2 4 2.2559723595316457e+00 1.0000000000000000e+00 4.2000000000000000e+03 4.0000000000000000e+00 8.0000000000000000e+00 2.5000000000000000e+00 
46 2 4 2.2559723595316457e+00 1.0000000000000000e+00 4.2000000000000000e+03 4.0000000000000000e+00 1.0000000000000000e+01 2.5000000000000000e+00 
47 2 4 2.2559723595316457e+00 1.0000000000000000e+00 4.2000000000000000e+03 4.0000000000000000e+00 1.2000000000000000e+01 2.5000000000000000e+00 
65 2 4 2.2559723595316457e+00 1.0000061049393931e+00 4.2000000000000000e+03 6.0000000000000000e+00 8.0000000000000000e+00 2.5000000000000000e+00 
66 2 4 2.2559723595316457e+00 1.0001758340921887e+00 4.2000000000000000e+03 6.0000000000000000e+00 1.0000000000000000e+01 2.5000000000000000e+00 
67 2 4 2.2559723595316457e+00 1.0004204241846557e+00 4.2000000000000000e+03 6.0000000000000000e+00 1.2000000000000000e+01 2.5000000000000000e+00 
85 2 4 2.2559723595316457e+00 -4.0016868621973956e+00 4.2000000000000000e+03 8.0000000000000000e+00 8.0000000000000000e+00 2.5000000000000000e+00 
86 2 4 2.2559723595316457e+00 -1.6516285397312092e+01 4.2000000000000000e+03 8.0000000000000000e+00 1.0000000000000000e+01 2.5000000000000000e+00 
87 2 4 2.2559723595316457e+00 -2.2175040178819724e+01 4.2000000000000000e+03 8.0000000000000000e+00 1.2000000000000000e+01 2.5000000000000000e+00 
105 2 4 2.2559723595316457e+00 -3.2210898193906246e+02 4.2000000000000000e+03 1.0000000000000000e+01 8.0000000000000000e+00 2.5000000000000000e+00 
106 2 4 2.2559723595316457e+00 -6.8598494151514251e+02 4.2000000000000000e+03 1.0000000000000000e+01 1.0000000000000000e+01 2.5000000000000000e+00 
107 2 4 2.2559723595316457e+00 -9.5194742121770025e+02 4.2000000000000000e+03 1.0000000000000000e+01 1.2000000000000000e+01 2.5000000000000000e+00 
125 2 4 2.2559723595316457e+00 -1.9550587572753752e+03 4.2000000000000000e+03 1.2000000000000000e+01 8.0000000000000000e+00 2.5000000000000000e+00 
126 2 4 2.2559723595316457e+00 -3.7528744029730074e+03 4.2000000000000000e+03 1.2000000000000000e+01 1.0000000000000000e+01 2.5000000000000000e+00 
127 2 4 2.2559723595316457e+00 -5.1810183830302867e+03 4.2000000000000000e+03 1.2000000000000000e+01 1.2000000000000000e+01 2.5000000000000000e+00 
145 2 4 2.2559723595316457e+00 -5.5758627182269747e+03 4.2000000000000000e+03 1.4000000000000000e+01 8.0000000000000000e+00 2.5000000000000000e+00 
146 2 4 2.2559723595316457e+00 -1.0356753748809624e+04 4.2000000000000000e+03 1.4000000000000000e+01 1.0000000000000000e+01 2.5000000000000000e+00 
147 2 4 2.2559723595316457e+00 -1.4323566079389739e+04 4.2000000000000000e+03 1.4000000000000000e+01 1.2000000000000000e+01 2.5000000000000000e+00 
165 2 4 2.2559723595316457e+00 -1.0320190667125069e+04 4.2000000000000000e+03 1.6000000000000000e+01 8.0000000000000000e+00 2.5000000000000000e+00 
166 2 4 2.2559723595316457e+00 -1.9087484119094534e+04 4.2000000000000000e+03 1.6000000000000000e+01 1.0000000000000000e+01 2.5000000000000000e+00 
167 2 4 2.2559723595316457e+00 -2.6594174217969034e+04 4.2000000000000000e+03 1.6000000000000000e+01 1.2000000000000000e+01 2.5000000000000000e+00 
185 2 4 2.2559723595316457e+00 -1.3840468565588515e+04 4.2000000000000000e+03 1.8000000000000000e+01 8.0000000000000000e+00 2.5000000000000000e+00 
186 2 4 2.2559723595316457e+00 -2.5666055792075131e+04 4.2000000000000000e+03 1.8000000000000000e+01 1.0000000000000000e+01 2.5000000000000000e+00 
187 2 4 2.2559723595316457e+00 -3.5987755744656235e+04 4.2000000000000000e+03 1.8000000000000000e+01 1.2000000000000000e+01 2.5000000000000000e+00 
8 2 4 2.2559723595316457e+00 1.0000000000000000e+00 4.2000000000000000e+03 0.0000000000000000e+00 1.4000000000000000e+01 2.5000000000000000e+00 
9 2 4 2.2559723595316457e+00 1.0000000000000000e+00 4.2000000000000000e+03 0.0000000000000000e+00 1.6000000000000000e+01 2.5000000000000000e+00 
10 2 4 2.2559723595316457e+00 1.0000000000000000e+00 4.2000000000000000e+03 0.0000000000000000e+00 1.8000000000000000e+01 2.5000000000000000e+00 
28 2 4 2.2559723595316457e+00 1.0000000000000000e+00 4.2000000000000000e+03 2.0000000000000000e+00 1.4000000000000000e+01 2.5000000000000000e+00 
29 2 4 2.2559723595316457e+00 9.9865117699975592e-01 4.2000000000000000e+03 2.0000000000000000e+00 1.6000000000000000e+01 2.5000000000000000e+00 
30 2 4 2.2559723595316457e+00 9.9910148054386294e-01 4.2000000000000000e+03 2.0000000000000000e+00 1.8000000000000000e+01 2.5000000000000000e+00 
48 2 4 2.2559723595316457e+00 9.9980886001786295e-01 4.2000000000000000e+03 4.0000000000000000e+00 1.4000000000000000e+01 2.5000000000000000e+00 
49 2 4 2.2559723595316457e+00 9.8550151407762721e-01 4.2000000000000000e+03 4.0000000000000000e+00 1.6000000000000000e+01 2.5000000000000000e+00 
50 2 4 2.2559723595316457e+00 1.0001795773422568e+00 4.2000000000000000e+03 4.0000000000000000e+00 1.8000000000000000e+01 2.5000000000000000e+00 
68 2 4 2.2559723595316457e+00 9.9879474158818815e-01 4.2000000000000000e+03 6.0000000000000000e+00 1.4000000000000000e+01 2.5000000000000000e+00 
69 2 4 2.2559723595316457e+00 9.8791022956097296e-01 4.2000000000000000e+03 6.0000000000000000e+00 1.6000000000000000e+01 2.5000000000000000e+00 
70 2 4 2.2559723595316457e+00 1.0032655743797985e+00 4.2000000000000000e+03 6.0000000000000000e+00 1.8000000000000000e+01 2.5000000000000000e+00 
88 2 4 2.2559723595316457e+00 -2.2630745557899843e+01 4.2000000000000000e+03 8.0000000000000000e+00 1.4000000000000000e+01 2.5000000000000000e+00 
89 2 4 2.2559723595316457e+00 -2.2756793247384252e+01 4.2000000000000000e+03 8.0000000000000000e+00 1.6000000000000000e+01 2.5000000000000000e+00 
90 2 4 2.2559723595316457e+00 -2.2805287999361560e+01 4.2000000000000000e+03 8.0000000000000000e+00 1.8000000000000000e+01 2.5000000000000000e+00 
108 2 4 2.2559723595316457e+00 -1.0398767374560407e+03 4.2000000000000000e+03 1.0000000000000000e+01 1.4000000000000000e+01 2.5000000000000000e+00 
109 2 4 2.2559723595316457e+00 -1.0486146394040497e+03 4.2000000000000000e+03 1.0000000000000000e+01 1.6000000000000000e+01 2.5000000000000000e+00 
110 2 4 2.2559723595316457e+00 -1.0502704020623983e+03 4.2000000000000000e+03 1.0000000000000000e+01 1.8000000000000000e+01 2.5000000000000000e+00 
128 2 4 2.2559723595316457e+00 -5.8094598975923072e+03 4.2000000000000000e+03 1.2000000000000000e+01 1.4000000000000000e+01 2.5000000000000000e+00 
129 2 4 2.2559723595316457e+00 -5.9246055086387187e+03 4.2000000000000000e+03 1.2000000000000000e+01 1.6000000000000000e+01 2.5000000000000000e+00 
130 2 4 2.2559723595316457e+00 -5.9367813667030468e+03 4.2000000000000000e+03 1.2000000000000000e+01 1.8000000000000000e+01 2.5000000000000000e+00 
148 2 4 2.2559723595316457e+00 -1.6271591134046388e+04 4.2000000000000000e+03 1.4000000000000000e+01 1.4000000000000000e+01 2.5000000000000000e+00 
149 2 4 2.2559723595316457e+00 -1.6723224628055046e+04 4.2000000000000000e+03 1.4000000000000000e+01 1.6000000000000000e+01 2.5000000000000000e+00 
150 2 4 2.2559723595316457e+00 -1.6763035823388280e+04 4.2000000000000000e+03 1.4000000000000000e+01 1.8000000000000000e+01 2.5000000000000000e+00 
168 2 4 2.2559723595316457e+00 -3.0463104731951786e+04 4.2000000000000000e+03 1.6000000000000000e+01 1.4000000000000000e+01 2.5000000000000000e+00 
169 2 4 2.2559723595316457e+00 -3.1435074715241521e+04 4.2000000000000000e+03 1.6000000000000000e+01 1.6000000000000000e+01 2.5000000000000000e+00 
170 2 4 2.2559723595316457e+00 -3.1516677940418223e+04 4.2000000000000000e+03 1.6000000000000000e+01 1.8000000000000000e+01 2.5000000000000000e+00 
188 2 4 2.2559723595316457e+00 -4.1426787341823190e+04 4.2000000000000000e+03 1.8000000000000000e+01 1.4000000000000000e+01 2.5000000000000000e+00 
189 2 4 2.2559723595316457e+00 -4.2816139732759635e+04 4.2000000000000000e+03 1.8000000000000000e+01 1.6000000000000000e+01 2.5000000000000000e+00 
190 2 4 2.2559723595316457e+00 -4.2926926591010524e+04 4.2000000000000000e+03 1.8000000000000000e+01 1.8000000000000000e+01 2.5000000000000000e+00 
1938 1540 2 1.0279994714751519e+00 1.2495020030953390e+04 4.2000000000000000e+03 1.3036312776736731e+01 1.3039773209270997e+01 3.9789658289551170e+01 
949 551 2 1.0279992909564295e+00 2.2107527501400809e+03 4.2000000000000000e+03 1.3175508355839627e+01 1.1261922052995326e+01 3.9975504614953422e+01 
1055 657 2 1.0279983157628174e+00 -1.1897272118311002e+03 4.2000000000000000e+03 1.6623502298310189e+01 1.3141685246098028e+01 3.7965733232553866e+01 
1576 1178 2 1.0279980214317888e+00 -3.1371339588812511e+03 4.2000000000000000e+03 1.7288224752905546e+01 1.2627611261886379e+01 3.8026176939541379e+01 
1343 945 2 1.0279972167822844e+00 2.0416164042791534e+03 4.2000000000000000e+03 1.9551928982078103e+01 1.1509129926492577e+01 3.8189649646003012e+01 
1573 1175 2 1.0279971541098933e+00 -3.1448145273849841e+03 4.2000000000000000e+03 1.9699149995568952e+01 1.1229303906378084e+01 3.8238054674924079e+01 
1342 944 2 1.0279979352542652e+00 2.0501264275540480e+03 4.2000000000000000e+03 1.7069344886075250e+01 1.1269912614783832e+01 3.8285224426383685e+01 
840 442 2 1.0279970320857428e+00 3.6754215702403344e+03 4.2000000000000000e+03 1.9772679849035949e+01 1.0983817468447128e+01 3.8299295143365555e+01 
1346 948 2 1.0279979603894414e+00 8.5683269313941526e+02 4.2000000000000000e+03 1.6698414244917700e+01 1.1118032767839406e+01 3.8350635328545657e+01 
837 439 2 1.0279975307584568e+00 3.6738472971924389e+03 4.2000000000000000e+03 1.8275861985613211e+01 1.0891115706211909e+01 3.8409615140624616e+01 
2040 1642 2 1.0279987641281148e+00 2.7438781587485951e+03 4.2000000000000000e+03 1.4636904864810310e+01 1.2256014886829515e+01 3.8510402554966433e+01 
1737 1339 2 1.0279976104389310e+00 1.0539225659320820e+02 4.2000000000000000e+03 1.7969746748556830e+01 1.0707874364241155e+01 3.8487674627153744e+01 
1092 694 2 1.0279970865648997e+00 -1.2881800504322807e+03 4.2000000000000000e+03 1.9401664364767825e+01 1.0286281207408340e+01 3.8621145030237862e+01 
1089 691 2 1.0279972730965325e+00 -1.2878928610557250e+03 4.2000000000000000e+03 1.8797740496880269e+01 1.0216284748457060e+01 3.8708903976388818e+01 
1284 886 2 1.0279973169720562e+00 7.8012365740516807e+03 4.2000000000000000e+03 1.8335583042807809e+01 1.0203435498214537e+01 3.8739761875051570e+01 
1706 1308 2 1.0279974731159420e+00 1.5993266894799140e+03 4.2000000000000000e+03 1.7919317166625028e+01 1.0092142084568055e+01 3.8822049753554609e+01 
1296 898 2 1.0279986764849183e+00 -1.1010722418328926e+03 4.2000000000000000e+03 1.4343868497048996e+01 1.1306631583417133e+01 3.8920255920507770e+01 
1654 1256 2 1.0279988462429468e+00 2.3967914465931781e+03 4.2000000000000000e+03 1.4014306946647379e+01 1.1429620036479035e+01 3.9086012677603541e+01 
633 235 2 1.0279987584865444e+00 4.0330162412087711e+03 4.2000000000000000e+03 1.4142744093141271e+01 1.1097112372981913e+01 3.9132675516458349e+01 
825 427 2 1.0279991196881519e+00 3.5593129623597683e+01 4.2000000000000000e+03 1.3651530777767942e+01 1.2131037222553804e+01 3.9173557039686749e+01 
1304 906 2 1.0279984555022437e+00 -3.7271196846857748e+02 4.2000000000000000e+03 1.4487345415279627e+01 1.0491273633471780e+01 3.9241315612775225e+01 
1803 1405 2 1.0279990430034627e+00 -3.2093009532321253e+03 4.2000000000000000e+03 1.3600807372536586e+01 1.1863602902076348e+01 3.9282023490834675e+01 
1543 1145 2 1.0279971064595028e+00 -7.4973827685078834e+02 4.2000000000000000e+03 1.8570334783228244e+01 9.3030931359237830e+00 3.9466780746880367e+01 
1281 883 2 1.0279968030488200e+00 7.7975520373074551e+03 4.2000000000000000e+03 1.9480832323476484e+01 9.1961833900836538e+00 3.9480255847403782e+01 
1979 1581 2 1.0279991593333542e+00 1.1733997112459488e+03 4.2000000000000000e+03 1.3406472226303475e+01 1.1213770759996313e+01 3.9716819517188796e+01 
1434 1036 2 1.0279967727991717e+00 4.6211448108556751e+03 4.2000000000000000e+03 1.9369490581813658e+01 8.8789831978668055e+00 3.9895372922667100e+01 
911 513 2 1.0279990175485663e+00 -1.6068352006676649e+04 4.2000000000000000e+03 1.3583447783333023e+01 1.0493756782334639e+01 3.9965694503228050e+01 
1236 838 2 1.0279989603596129e+00 3.3315344671609544e+01 4.2000000000000000e+03 1.3634919302382867e+01 1.0398342564283027e+01 3.9983538037359899e+01 
1444 1046 2 1.0279977910094364e+00 5.2922771712487393e+03 4.2000000000000000e+03 1.6651954088538012e+01 1.9859164349229204e+01 3.6847186692430228e+01 
1755 1357 2 1.0279976143794676e+00 -8.1188481850856188e+03 4.2000000000000000e+03 1.9545332566326220e+01 1.8351411503445824e+01 3.6866305496001175e+01 
1393 995 2 1.0279979503173575e+00 -2.9357633967430302e+03 4.2000000000000000e+03 1.6349924913765435e+01 1.9623948166106491e+01 3.6903785007248480e+01 
1214 816 2 1.0279982108273185e+00 -3.2401143240421611e+03 4.2000000000000000e+03 1.6357610836375901e+01 1.8831221227819110e+01 3.6911370218268019e+01 
940 542 2 1.0279980507538748e+00 5.2876045295726808e+03 4.2000000000000000e+03 1.6143723628956064e+01 1.9537745914037611e+01 3.6960722761467579e+01 
1358 960 2 1.0279976972620402e+00 -2.4742118057020675e+03 4.2000000000000000e+03 1.9701272976730262e+01 1.7928072187697758e+01 3.6997580404447007e+01 
1754 1356 2 1.0279982999388100e+00 -8.1153506884023936e+03 4.2000000000000000e+03 1.5819786907438253e+01 1.8606588452502791e+01 3.7105027536109155e+01 
1794 1396 2 1.0279984604031711e+00 -1.7114188419338072e+03 4.2000000000000000e+03 1.5710332517334434e+01 1.7983320856816214e+01 3.7237595227785953e+01 
1194 796 2 1.0279984601895038e+00 -4.3619272522093070e+03 4.2000000000000000e+03 1.6326348513968984e+01 1.6554286153550443e+01 3.7414172241501142e+01 
951 553 2 1.0279985234864664e+00 2.9574401356995918e+03 4.2000000000000000e+03 1.6138324082289142e+01 1.6650263147346745e+01 3.7424595188272740e+01 
841 443 2 1.0279983554193766e+00 2.4226963450634171e+03 4.2000000000000000e+03 1.4868783551584722e+01 1.9400809396817294e+01 3.7609278683499127e+01 
1547 1149 2 1.0279977482417724e+00 -4.3931240752448747e+02 4.2000000000000000e+03 1.8119683927532197e+01 1.5917831667134713e+01 3.7660868794675615e+01 
1681 1283 2 1.0279986049077776e+00 2.4225316432826494e+03 4.2000000000000000e+03 1.4899879683440277e+01 1.8394528625488249e+01 3.7628122517274882e+01 
640 242 2 1.0279986595581847e+00 2.9760995210061956e+03 4.2000000000000000e+03 1.5743492429244593e+01 1.5906058894871881e+01 3.7714130872813790e+01 
1820 1422 2 1.0279987503882848e+00 3.7990985616041739e+03 4.2000000000000000e+03 1.4923288480496298e+01 1.7343427691694135e+01 3.7780825068775748e+01 
1408 1010 2 1.0279987837728100e+00 -5.4819510417606516e+03 4.2000000000000000e+03 1.4966581032096968e+01 1.6912093234510024e+01 3.7840024321508949e+01 
1252 854 2 1.0279986511647468e+00 -1.7199850881228338e+03 4.2000000000000000e+03 1.4669905827936246e+01 1.8234232217450018e+01 3.7830685303563968e+01 
1084 686 2 1.0279983642504313e+00 -1.7198013050645577e+03 4.2000000000000000e+03 1.4616963945652669e+01 1.9598190566039129e+01 3.7831079351174580e+01 
1356 958 2 1.0279982289236880e+00 -1.0764581809945057e+02 4.2000000000000000e+03 1.6968360360255950e+01 1.4004024293283717e+01 3.7907957533379850e+01 
733 335 2 1.0279985266411393e+00 -1.4655649969693425e+03 4.2000000000000000e+03 1.6128175689359324e+01 1.3846356863459889e+01 3.7934303786291608e+01 
898 500 2 1.0279984853282649e+00 -1.0487542514416748e+03 4.2000000000000000e+03 1.6091333455052791e+01 1.3416259937631619e+01 3.7973271676998849e+01 
1012 614 2 1.0279987870460154e+00 -4.5182882271299059e+02 4.2000000000000000e+03 1.5092008626337153e+01 1.4563670645253936e+01 3.8118022071768891e+01 
1177 779 2 1.0279988393634705e+00 4.1748378964270187e+03 4.2000000000000000e+03 1.4829469253016160e+01 1.5621973727484709e+01 3.8146177481770444e+01 
558 160 2 1.0279988717155866e+00 -1.0484872687242932e+03 4.2000000000000000e+03 1.4375418427964624e+01 1.7603428181099570e+01 3.8204376852989988e+01 
1807 1409 2 1.0279989318687921e+00 -9.0645470030963270e+02 4.2000000000000000e+03 1.4456405293989043e+01 1.6700342557912258e+01 3.8269150888247729e+01 
1501 1103 2 1.0279989894733268e+00 2.1951027051889159e+02 4.2000000000000000e+03 1.4282139055905080e+01 1.5049865978408938e+01 3.8558351399642220e+01 
571 173 2 1.0280070780027146e+00 -3.8363208665808934e+03 4.2000000000000000e+03 1.9115930420116278e+01 1.5633464092206530e+01 3.9039697206969862e+01 
1613 1215 2 1.0279991615352257e+00 5.2869308370589597e+03 4.2000000000000000e+03 1.3787117576554234e+01 1.6209059767996809e+01 3.9108149578752510e+01 
1795 1397 2 1.0280031852403035e+00 -1.7164084783072797e+03 4.2000000000000000e+03 1.9368131358693656e+01 1.6487083984552051e+01 3.9163289586231841e+01 
520 122 2 1.0279992614632303e+00 -1.4278903615757938e+03 4.2000000000000000e+03 1.3549705954297568e+01 1.3443745976666268e+01 3.9167677617430037e+01 
1382 984 2 1.0279987287923109e+00 -3.2404824412150665e+03 4.2000000000000000e+03 1.8056801597214779e+01 1.9941926466939535e+01 3.9824935317718669e+01 
1910 1512 2 1.0280014352174205e+00 -1.4756644765206468e+03 4.2000000000000000e+03 1.8232905656039332e+01 1.4092837759234479e+01 3.9890359686875684e+01 
1191 793 2 1.0279988373790687e+00 -2.4604006558252404e+03 4.2000000000000000e+03 1.7672725407523718e+01 1.9494746702915052e+01 3.9940413637515448e+01 
1673 1275 2 1.0279993624752573e+00 3.9016670348746179e+03 4.2000000000000000e+03 1.3351210379753056e+01 1.5963924338037996e+01 3.9959472173421545e+01 
1423 1025 2 1.0279982100950813e+00 -1.4368924856032011e+03 4.2000000000000000e+03 1.7320773277647582e+01 6.2545419777029609e+00 4.4282214584588409e+01 
1856 1458 2 1.0279988935776347e+00 3.4619017763177879e+02 4.2000000000000000e+03 1.6651247426693391e+01 6.0393283942036735e+00 4.4499494049030694e+01 
534 136 2 1.0279988313534827e+00 4.7034743077643279e+03 4.2000000000000000e+03 1.6931148935238433e+01 5.7413858869834531e+00 4.4734231875502921e+01 
1593 1195 2 1.0279977227609076e+00 7.7929684116823855e+03 4.2000000000000000e+03 1.8416153165932705e+01 5.5205438685888275e+00 4.4882449379290499e+01 
1596 1198 2 1.0279964821494172e+00 7.7907684678129717e+03 4.2000000000000000e+03 1.9775569130597141e+01 5.5077802094259312e+00 4.4988659697113043e+01 
1282 884 2 1.0279991881322035e+00 3.6317446535955205e+03 4.2000000000000000e+03 1.5132267800630611e+01 5.9804051404242040e+00 4.5265176513957705e+01 
1302 904 2 1.0279991599209508e+00 -3.2317197230388156e+03 4.2000000000000000e+03 1.6062278468726241e+01 5.2924917967812242e+00 4.5353762554041388e+01 
530 132 2 1.0279991772172947e+00 5.4146649109957741e+02 4.2000000000000000e+03 1.5011145648751199e+01 5.8969829196844374e+00 4.5473884521128923e+01 
1691 1293 2 1.0279991690502226e+00 1.7671308790313901e+03 4.2000000000000000e+03 1.4811578388476784e+01 5.9371186899268036e+00 4.5641597888903085e+01 
1018 620 2 1.0279989583283435e+00 -4.1706842212026083e+02 4.2000000000000000e+03 1.4919890372468616e+01 5.5158933827516679e+00 4.5961630844705979e+01 
1656 1258 2 1.0279989080593774e+00 3.0232385959458720e+03 4.2000000000000000e+03 1.5008581849289731e+01 5.3956167048677592e+00 4.5983766089692573e+01 
1944 1546 2 1.0279987230204022e+00 8.8250395771733511e+03 4.2000000000000000e+03 1.5577879643053318e+01 4.1517016019807222e+00 4.6425762328439816e+01 
890 492 2 1.0279985975546728e+00 -3.5957798773693385e+03 4.2000000000000000e+03 1.4663886832726041e+01 5.1691315201618195e+00 4.6549253897297696e+01 
535 137 2 1.0280115009377830e+00 4.7013546978447703e+03 4.2000000000000000e+03 1.8707774778306689e+01 5.4132707827465563e+00 4.6601369826213535e+01 
521 123 2 1.0279991605172891e+00 -2.3385345695200194e+03 4.2000000000000000e+03 1.4001387524393561e+01 6.2369827206130211e+00 4.6600351931047932e+01 
1826 1428 2 1.0279992938231834e+00 -3.0479948259744260e+03 4.2000000000000000e+03 1.3177437545389374e+01 1.0376928851256265e+01 4.0614475302920248e+01 
1901 1503 2 1.0279994688693466e+00 -2.0461294183864450e+03 4.2000000000000000e+03 1.2978965744253840e+01 1.0757196885383157e+01 4.0616786410178371e+01 
929 531 2 1.0279998576985943e+00 3.7965808987553787e+03 4.2000000000000000e+03 1.2552209779487896e+01 1.2031770409334168e+01 4.0819088892226546e+01 
491 93 2 1.0279998853283594e+00 5.3364421856842205e+02 4.2000000000000000e+03 1.2540465822497616e+01 1.1962248404850957e+01 4.0873694393185716e+01 
1743 1345 2 1.0280000288805742e+00 6.7473965235027981e+02 4.2000000000000000e+03 1.2460936596003881e+01 1.1998861393730799e+01 4.1110697330058208e+01 
976 578 2 1.0279996887001117e+00 -2.9261844224772317e+03 4.2000000000000000e+03 1.2950277043527722e+01 1.0052608310996288e+01 4.1514560915355069e+01 
955 557 2 1.0279996102091689e+00 1.2574277626636042e+03 4.2000000000000000e+03 1.3177047925416396e+01 9.4544146835607172e+00 4.1965421436959268e+01 
1112 714 2 1.0280002939683437e+00 4.7466164590588878e+03 4.2000000000000000e+03 1.2395300371155578e+01 1.1218420666841995e+01 4.2106837326498656e+01 
1053 655 2 1.0279996788182160e+00 6.6514897044190138e+02 4.2000000000000000e+03 1.3285585149212778e+01 9.1116064998626527e+00 4.2423111711435816e+01 
417 19 2 1.0280000693608740e+00 2.0134352693453727e+03 4.2000000000000000e+03 1.2938306444335847e+01 9.5165812724066861e+00 4.2924545752973017e+01 
1248 850 2 1.0280006933684431e+00 -6.4282148205002784e+02 4.2000000000000000e+03 1.2356562063946910e+01 1.1377647690128011e+01 4.3106990906471914e+01 
548 150 2 1.0279999858964983e+00 6.8139585348358912e+02 4.2000000000000000e+03 1.3166836317546249e+01 9.0598503378948578e+00 4.3148805823283581e+01 
1700 1302 2 1.0280006696353259e+00 1.1982253138098611e+03 4.2000000000000000e+03 1.2421359403372927e+01 1.1095762198822543e+01 4.3370069108177034e+01 
1176 778 2 1.0280006193421820e+00 5.0908297904635438e+03 4.2000000000000000e+03 1.3142518899501173e+01 8.9169337718336870e+00 4.4968156440207473e+01 
1152 754 2 1.0280009969110115e+00 4.3261995751094975e+02 4.2000000000000000e+03 1.2928899468592091e+01 1.3259591385972113e+01 4.5198841918842554e+01 
2055 1657 2 1.0280008243068666e+00 4.5326209096315233e+03 4.2000000000000000e+03 1.3140882987919239e+01 8.9904512873453299e+00 4.5635563414783263e+01 
1638 1240 2 1.0280015554733082e+00 3.2484310928224982e+03 4.2000000000000000e+03 1.3209211456377727e+01 1.2599339652934736e+01 4.6315311668025664e+01 
1168 770 2 1.0280012890876853e+00 3.0352481695933434e+03 4.2000000000000000e+03 1.3320279227903452e+01 1.3129602253448017e+01 4.6585693633274097e+01 
1769 1371 2 1.0280000015662343e+00 8.1933458597121407e+03 4.2000000000000000e+03 1.3338412942837916e+01 8.6768753819594906e+00 4.3610817726478089e+01 
523 125 2 1.0279991581322048e+00 2.3471992819555608e+03 4.2000000000000000e+03 1.3348074700020666e+01 1.0195659546404803e+01 4.0526964026162126e+01 
700 302 2 1.0279992217048082e+00 9.8197973639493637e+02 4.2000000000000000e+03 1.3382417883594892e+01 9.6710308489719026e+00 4.1109144683720572e+01 
1716 1318 2 1.0279993381141868e+00 1.7133332537582935e+03 4.2000000000000000e+03 1.3393409727941719e+01 9.3009215476940899e+00 4.1699295670895147e+01 