LAMMPS data file via write_data, version 30 Jul 2016, timestep = 600000

2080 atoms
8 atom types

0.0000000000000000e+00 4.0000000000000000e+01 xlo xhi
0.0000000000000000e+00 4.0000000000000000e+01 ylo yhi
0.0000000000000000e+00 1.0000000000000000e+02 zlo zhi

Masses

1 3.896
2 4.306
3 20.064
4 8.378
5 8.378
6 8.378
7 8.378
8 8.378

Atoms # meso-molecular

1 2 4 2.2559723595316457e+00 0.0000000000000000e+00 1.0000000000000000e+00 0.0000000000000000e+00 0.0000000000000000e+00 2.5000000000000000e+00 
2 2 4 2.2559723595316457e+00 0.0000000000000000e+00 1.0000000000000000e+00 0.0000000000000000e+00 2.0000000000000000e+00 2.5000000000000000e+00 
21 2 4 2.2559723595316457e+00 0.0000000000000000e+00 1.0000000000000000e+00 2.0000000000000000e+00 0.0000000000000000e+00 2.5000000000000000e+00 
22 2 4 2.2559723595316457e+00 0.0000000000000000e+00 1.0000000000000000e+00 2.0000000000000000e+00 2.0000000000000000e+00 2.5000000000000000e+00 
41 2 4 2.2559723595316457e+00 0.0000000000000000e+00 1.0000000000000000e+00 4.0000000000000000e+00 0.0000000000000000e+00 2.5000000000000000e+00 
42 2 4 2.2559723595316457e+00 0.0000000000000000e+00 1.0000000000000000e+00 4.0000000000000000e+00 2.0000000000000000e+00 2.5000000000000000e+00 
61 2 4 2.2559723595316457e+00 0.0000000000000000e+00 1.0000000000000000e+00 6.0000000000000000e+00 0.0000000000000000e+00 2.5000000000000000e+00 
62 2 4 2.2559723595316457e+00 0.0000000000000000e+00 1.0000000000000000e+00 6.0000000000000000e+00 2.0000000000000000e+00 2.5000000000000000e+00 
81 2 4 2.2559723595316457e+00 0.0000000000000000e+00 1.0000000000000000e+00 8.0000000000000000e+00 0.0000000000000000e+00 2.5000000000000000e+00 
82 2 4 2.2559723595316457e+00 0.0000000000000000e+00 1.0000000000000000e+00 8.0000000000000000e+00 2.0000000000000000e+00 2.5000000000000000e+00 
101 2 4 2.2559723595316457e+00 0.0000000000000000e+00 1.0000000000000000e+00 1.0000000000000000e+01 0.0000000000000000e+00 2.5000000000000000e+00 
102 2 4 2.2559723595316457e+00 0.0000000000000000e+00 1.0000000000000000e+00 1.0000000000000000e+01 2.0000000000000000e+00 2.5000000000000000e+00 
121 2 4 2.2559723595316457e+00 0.0000000000000000e+00 1.0000000000000000e+00 1.2000000000000000e+01 0.0000000000000000e+00 2.5000000000000000e+00 
122 2 4 2.2559723595316457e+00 0.0000000000000000e+00 1.0000000000000000e+00 1.2000000000000000e+01 2.0000000000000000e+00 2.5000000000000000e+00 
141 2 4 2.2559723595316821e+00 6.3667665520040797e-06 1.0000000000000000e+00 1.4000000000000000e+01 0.0000000000000000e+00 2.5000000000000000e+00 
142 2 4 2.2559723595316457e+00 0.0000000000000000e+00 1.0000000000000000e+00 1.4000000000000000e+01 2.0000000000000000e+00 2.5000000000000000e+00 
161 2 4 2.2559723595316457e+00 -8.4432435598068951e-04 1.0000000000000000e+00 1.6000000000000000e+01 0.0000000000000000e+00 2.5000000000000000e+00 
162 2 4 2.2559723595316457e+00 0.0000000000000000e+00 1.0000000000000000e+00 1.6000000000000000e+01 2.0000000000000000e+00 2.5000000000000000e+00 
181 2 4 2.2559723595316457e+00 -2.8896305837714768e-05 1.0000000000000000e+00 1.8000000000000000e+01 0.0000000000000000e+00 2.5000000000000000e+00 
182 2 4 2.2559723595316457e+00 -7.3213654712230040e-03 1.0000000000000000e+00 1.8000000000000000e+01 2.0000000000000000e+00 2.5000000000000000e+00 
3 2 4 2.2559723595316457e+00 5.4291131866344923e-04 1.0000000000000000e+00 0.0000000000000000e+00 4.0000000000000000e+00 2.5000000000000000e+00 
23 2 4 2.2559723595316457e+00 0.0000000000000000e+00 1.0000000000000000e+00 2.0000000000000000e+00 4.0000000000000000e+00 2.5000000000000000e+00 
43 2 4 2.2559723595316457e+00 0.0000000000000000e+00 1.0000000000000000e+00 4.0000000000000000e+00 4.0000000000000000e+00 2.5000000000000000e+00 
63 2 4 2.2559723595316457e+00 0.0000000000000000e+00 1.0000000000000000e+00 6.0000000000000000e+00 4.0000000000000000e+00 2.5000000000000000e+00 
83 2 4 2.2559723595316457e+00 0.0000000000000000e+00 1.0000000000000000e+00 8.0000000000000000e+00 4.0000000000000000e+00 2.5000000000000000e+00 
103 2 4 2.2559723595316457e+00 0.0000000000000000e+00 1.0000000000000000e+00 1.0000000000000000e+01 4.0000000000000000e+00 2.5000000000000000e+00 
123 2 4 2.2559723595316457e+00 0.0000000000000000e+00 1.0000000000000000e+00 1.2000000000000000e+01 4.0000000000000000e+00 2.5000000000000000e+00 
143 2 4 2.2559723595316457e+00 0.0000000000000000e+00 1.0000000000000000e+00 1.4000000000000000e+01 4.0000000000000000e+00 2.5000000000000000e+00 
163 2 4 2.2559723595316457e+00 3.7225189378955158e-06 1.0000000000000000e+00 1.6000000000000000e+01 4.0000000000000000e+00 2.5000000000000000e+00 
183 2 4 2.2559723595400558e+00 6.8498204048026313e-04 1.0000000000000000e+00 1.8000000000000000e+01 4.0000000000000000e+00 2.5000000000000000e+00 
4 2 4 2.2559723595316457e+00 -3.5945539914486518e-03 1.0000000000000000e+00 0.0000000000000000e+00 6.0000000000000000e+00 2.5000000000000000e+00 
5 2 4 2.2559723595316457e+00 -2.9384260618754154e-03 1.0000000000000000e+00 0.0000000000000000e+00 8.0000000000000000e+00 2.5000000000000000e+00 
24 2 4 2.2559723595316457e+00 0.0000000000000000e+00 1.0000000000000000e+00 2.0000000000000000e+00 6.0000000000000000e+00 2.5000000000000000e+00 
25 2 4 2.2559723595316457e+00 0.0000000000000000e+00 1.0000000000000000e+00 2.0000000000000000e+00 8.0000000000000000e+00 2.5000000000000000e+00 
44 2 4 2.2559723595316457e+00 0.0000000000000000e+00 1.0000000000000000e+00 4.0000000000000000e+00 6.0000000000000000e+00 2.5000000000000000e+00 
45 2 4 2.2559723595316457e+00 0.0000000000000000e+00 1.0000000000000000e+00 4.0000000000000000e+00 8.0000000000000000e+00 2.5000000000000000e+00 
64 2 4 2.2559723595316457e+00 0.0000000000000000e+00 1.0000000000000000e+00 6.0000000000000000e+00 6.0000000000000000e+00 2.5000000000000000e+00 
65 2 4 2.2559723595316457e+00 0.0000000000000000e+00 1.0000000000000000e+00 6.0000000000000000e+00 8.0000000000000000e+00 2.5000000000000000e+00 
84 2 4 2.2559723595316457e+00 0.0000000000000000e+00 1.0000000000000000e+00 8.0000000000000000e+00 6.0000000000000000e+00 2.5000000000000000e+00 
85 2 4 2.2559723595316457e+00 0.0000000000000000e+00 1.0000000000000000e+00 8.0000000000000000e+00 8.0000000000000000e+00 2.5000000000000000e+00 
104 2 4 2.2559723595316457e+00 0.0000000000000000e+00 1.0000000000000000e+00 1.0000000000000000e+01 6.0000000000000000e+00 2.5000000000000000e+00 
105 2 4 2.2559723595316457e+00 0.0000000000000000e+00 1.0000000000000000e+00 1.0000000000000000e+01 8.0000000000000000e+00 2.5000000000000000e+00 
124 2 4 2.2559723595316457e+00 0.0000000000000000e+00 1.0000000000000000e+00 1.2000000000000000e+01 6.0000000000000000e+00 2.5000000000000000e+00 
125 2 4 2.2559723595316457e+00 0.0000000000000000e+00 1.0000000000000000e+00 1.2000000000000000e+01 8.0000000000000000e+00 2.5000000000000000e+00 
144 2 4 2.2559723595316457e+00 0.0000000000000000e+00 1.0000000000000000e+00 1.4000000000000000e+01 6.0000000000000000e+00 2.5000000000000000e+00 
145 2 4 2.2559723595316457e+00 0.0000000000000000e+00 1.0000000000000000e+00 1.4000000000000000e+01 8.0000000000000000e+00 2.5000000000000000e+00 
164 2 4 2.2559723595316457e+00 2.4105288474909941e-07 1.0000000000000000e+00 1.6000000000000000e+01 6.0000000000000000e+00 2.5000000000000000e+00 
165 2 4 2.2559723595316457e+00 0.0000000000000000e+00 1.0000000000000000e+00 1.6000000000000000e+01 8.0000000000000000e+00 2.5000000000000000e+00 
184 2 4 2.2559723595339136e+00 7.0368106177952350e-05 1.0000000000000000e+00 1.8000000000000000e+01 6.0000000000000000e+00 2.5000000000000000e+00 
185 2 4 2.2559723595316457e+00 7.0969408758302997e-06 1.0000000000000000e+00 1.8000000000000000e+01 8.0000000000000000e+00 2.5000000000000000e+00 
6 2 4 2.2559723595316457e+00 0.0000000000000000e+00 1.0000000000000000e+00 0.0000000000000000e+00 1.0000000000000000e+01 2.5000000000000000e+00 
26 2 4 2.2559723595316457e+00 0.0000000000000000e+00 1.0000000000000000e+00 2.0000000000000000e+00 1.0000000000000000e+01 2.5000000000000000e+00 
46 2 4 2.2559723595316457e+00 0.0000000000000000e+00 1.0000000000000000e+00 4.0000000000000000e+00 1.0000000000000000e+01 2.5000000000000000e+00 
66 2 4 2.2559723595316457e+00 0.0000000000000000e+00 1.0000000000000000e+00 6.0000000000000000e+00 1.0000000000000000e+01 2.5000000000000000e+00 
86 2 4 2.2559723595316457e+00 0.0000000000000000e+00 1.0000000000000000e+00 8.0000000000000000e+00 1.0000000000000000e+01 2.5000000000000000e+00 
106 2 4 2.2559723595316457e+00 0.0000000000000000e+00 1.0000000000000000e+00 1.0000000000000000e+01 1.0000000000000000e+01 2.5000000000000000e+00 
126 2 4 2.2559723595316457e+00 0.0000000000000000e+00 1.0000000000000000e+00 1.2000000000000000e+01 1.0000000000000000e+01 2.5000000000000000e+00 
146 2 4 2.2559723595316457e+00 0.0000000000000000e+00 1.0000000000000000e+00 1.4000000000000000e+01 1.0000000000000000e+01 2.5000000000000000e+00 
166 2 4 2.2559723595316457e+00 0.0000000000000000e+00 1.0000000000000000e+00 1.6000000000000000e+01 1.0000000000000000e+01 2.5000000000000000e+00 
186 2 4 2.2559723595316457e+00 4.5990238757448611e-06 1.0000000000000000e+00 1.8000000000000000e+01 1.0000000000000000e+01 2.5000000000000000e+00 
7 2 4 2.2559723595316457e+00 0.0000000000000000e+00 1.0000000000000000e+00 0.0000000000000000e+00 1.2000000000000000e+01 2.5000000000000000e+00 
8 2 4 2.2559723595316457e+00 0.0000000000000000e+00 1.0000000000000000e+00 0.0000000000000000e+00 1.4000000000000000e+01 2.5000000000000000e+00 
27 2 4 2.2559723595316457e+00 0.0000000000000000e+00 1.0000000000000000e+00 2.0000000000000000e+00 1.2000000000000000e+01 2.5000000000000000e+00 
28 2 4 2.2559723595316457e+00 0.0000000000000000e+00 1.0000000000000000e+00 2.0000000000000000e+00 1.4000000000000000e+01 2.5000000000000000e+00 
47 2 4 2.2559723595316457e+00 0.0000000000000000e+00 1.0000000000000000e+00 4.0000000000000000e+00 1.2000000000000000e+01 2.5000000000000000e+00 
48 2 4 2.2559723595316457e+00 0.0000000000000000e+00 1.0000000000000000e+00 4.0000000000000000e+00 1.4000000000000000e+01 2.5000000000000000e+00 
67 2 4 2.2559723595316457e+00 0.0000000000000000e+00 1.0000000000000000e+00 6.0000000000000000e+00 1.2000000000000000e+01 2.5000000000000000e+00 
68 2 4 2.2559723595316457e+00 0.0000000000000000e+00 1.0000000000000000e+00 6.0000000000000000e+00 1.4000000000000000e+01 2.5000000000000000e+00 
87 2 4 2.2559723595316457e+00 0.0000000000000000e+00 1.0000000000000000e+00 8.0000000000000000e+00 1.2000000000000000e+01 2.5000000000000000e+00 
88 2 4 2.2559723595316457e+00 0.0000000000000000e+00 1.0000000000000000e+00 8.0000000000000000e+00 1.4000000000000000e+01 2.5000000000000000e+00 
107 2 4 2.2559723595316457e+00 0.0000000000000000e+00 1.0000000000000000e+00 1.0000000000000000e+01 1.2000000000000000e+01 2.5000000000000000e+00 
108 2 4 2.2559723595316457e+00 0.0000000000000000e+00 1.0000000000000000e+00 1.0000000000000000e+01 1.4000000000000000e+01 2.5000000000000000e+00 
127 2 4 2.2559723595316457e+00 0.0000000000000000e+00 1.0000000000000000e+00 1.2000000000000000e+01 1.2000000000000000e+01 2.5000000000000000e+00 
128 2 4 2.2559723595316457e+00 0.0000000000000000e+00 1.0000000000000000e+00 1.2000000000000000e+01 1.4000000000000000e+01 2.5000000000000000e+00 
147 2 4 2.2559723595316457e+00 0.0000000000000000e+00 1.0000000000000000e+00 1.4000000000000000e+01 1.2000000000000000e+01 2.5000000000000000e+00 
148 2 4 2.2559723595316457e+00 0.0000000000000000e+00 1.0000000000000000e+00 1.4000000000000000e+01 1.4000000000000000e+01 2.5000000000000000e+00 
167 2 4 2.2559723595316457e+00 0.0000000000000000e+00 1.0000000000000000e+00 1.6000000000000000e+01 1.2000000000000000e+01 2.5000000000000000e+00 
168 2 4 2.2559723595316457e+00 0.0000000000000000e+00 1.0000000000000000e+00 1.6000000000000000e+01 1.4000000000000000e+01 2.5000000000000000e+00 
187 2 4 2.2559723595316457e+00 2.8531860787199097e-03 1.0000000000000000e+00 1.8000000000000000e+01 1.2000000000000000e+01 2.5000000000000000e+00 
188 2 4 2.2559723595316457e+00 -1.7352910531096321e-03 1.0000000000000000e+00 1.8000000000000000e+01 1.4000000000000000e+01 2.5000000000000000e+00 
9 2 4 2.2559723595316457e+00 0.0000000000000000e+00 1.0000000000000000e+00 0.0000000000000000e+00 1.6000000000000000e+01 2.5000000000000000e+00 
29 2 4 2.2559723595316457e+00 0.0000000000000000e+00 1.0000000000000000e+00 2.0000000000000000e+00 1.6000000000000000e+01 2.5000000000000000e+00 
49 2 4 2.2559723595316457e+00 0.0000000000000000e+00 1.0000000000000000e+00 4.0000000000000000e+00 1.6000000000000000e+01 2.5000000000000000e+00 
69 2 4 2.2559723595316457e+00 0.0000000000000000e+00 1.0000000000000000e+00 6.0000000000000000e+00 1.6000000000000000e+01 2.5000000000000000e+00 
89 2 4 2.2559723595316457e+00 0.0000000000000000e+00 1.0000000000000000e+00 8.0000000000000000e+00 1.6000000000000000e+01 2.5000000000000000e+00 
109 2 4 2.2559723595316457e+00 0.0000000000000000e+00 1.0000000000000000e+00 1.0000000000000000e+01 1.6000000000000000e+01 2.5000000000000000e+00 
129 2 4 2.2559723595316457e+00 0.0000000000000000e+00 1.0000000000000000e+00 1.2000000000000000e+01 1.6000000000000000e+01 2.5000000000000000e+00 
149 2 4 2.2559723595316457e+00 0.0000000000000000e+00 1.0000000000000000e+00 1.4000000000000000e+01 1.6000000000000000e+01 2.5000000000000000e+00 
169 2 4 2.2559723595316457e+00 0.0000000000000000e+00 1.0000000000000000e+00 1.6000000000000000e+01 1.6000000000000000e+01 2.5000000000000000e+00 
189 2 4 2.2559723595316457e+00 8.0483579029679052e-04 1.0000000000000000e+00 1.8000000000000000e+01 1.6000000000000000e+01 2.5000000000000000e+00 
10 2 4 2.2559723595316457e+00 0.0000000000000000e+00 1.0000000000000000e+00 0.0000000000000000e+00 1.8000000000000000e+01 2.5000000000000000e+00 
30 2 4 2.2559723595316457e+00 0.0000000000000000e+00 1.0000000000000000e+00 2.0000000000000000e+00 1.8000000000000000e+01 2.5000000000000000e+00 
50 2 4 2.2559723595316457e+00 0.0000000000000000e+00 1.0000000000000000e+00 4.0000000000000000e+00 1.8000000000000000e+01 2.5000000000000000e+00 
70 2 4 2.2559723595316457e+00 0.0000000000000000e+00 1.0000000000000000e+00 6.0000000000000000e+00 1.8000000000000000e+01 2.5000000000000000e+00 
90 2 4 2.2559723595316457e+00 0.0000000000000000e+00 1.0000000000000000e+00 8.0000000000000000e+00 1.8000000000000000e+01 2.5000000000000000e+00 
110 2 4 2.2559723595316457e+00 0.0000000000000000e+00 1.0000000000000000e+00 1.0000000000000000e+01 1.8000000000000000e+01 2.5000000000000000e+00 
130 2 4 2.2559723595316457e+00 0.0000000000000000e+00 1.0000000000000000e+00 1.2000000000000000e+01 1.8000000000000000e+01 2.5000000000000000e+00 
150 2 4 2.2559723595316457e+00 0.0000000000000000e+00 1.0000000000000000e+00 1.4000000000000000e+01 1.8000000000000000e+01 2.5000000000000000e+00 
170 2 4 2.2559723595316457e+00 0.0000000000000000e+00 1.0000000000000000e+00 1.6000000000000000e+01 1.8000000000000000e+01 2.5000000000000000e+00 
190 2 4 2.2559723595316457e+00 -3.0857626189419595e-03 1.0000000000000000e+00 1.8000000000000000e+01 1.8000000000000000e+01 2.5000000000000000e+00 
1327 929 2 1.0280001346219361e+00 4.8079302300498193e+02 1.0000000000000000e+00 1.6099476705345566e+01 2.2813628746338703e+00 7.3937778598687531e+00 
1400 1002 2 1.0280000415090778e+00 1.0074967136676261e+03 1.0000000000000000e+00 1.6136070833685842e+01 2.3001901647626815e+00 7.3741646683468707e+00 
1091 693 2 1.0280001241269929e+00 2.0906523544141887e+03 1.0000000000000000e+00 1.6111622302463338e+01 2.2843485915376096e+00 7.4112100796972609e+00 
1639 1241 2 1.0280000590889524e+00 -2.4680374333000950e+03 1.0000000000000000e+00 1.6137585477702920e+01 2.2976738856329413e+00 7.3992804640898404e+00 
447 49 2 1.0280000577058852e+00 -1.3079554825595167e+03 1.0000000000000000e+00 1.6143511336968761e+01 2.2981114703360936e+00 7.4113082376308315e+00 
637 239 2 1.0279999763540679e+00 -2.9402870086001435e+03 1.0000000000000000e+00 1.6176795645621734e+01 2.3123348076667010e+00 7.4019993875521681e+00 
1755 1357 2 1.0279993590238299e+00 6.1631059962220634e+03 1.0000000000000000e+00 1.8851961921799703e+01 1.4000129420484571e+00 6.4011318101176524e+00 
1754 1356 2 1.0279993590636929e+00 6.1631053476711577e+03 1.0000000000000000e+00 1.8852092290199995e+01 1.3999961265922354e+00 6.4010975150259917e+00 
431 33 2 1.0279994574478779e+00 -5.8616381151871992e+03 1.0000000000000000e+00 1.8058695949959375e+01 7.3010391897972815e-01 6.5048958678891315e+00 
587 189 2 1.0280000869165835e+00 4.2799395277226822e+03 1.0000000000000000e+00 1.7511615914721709e+01 1.5655858242286285e+00 6.6480102930329137e+00 
469 71 2 1.0279994064629525e+00 1.0381096753404334e+04 1.0000000000000000e+00 1.7828594126850799e+01 2.0613935554356691e-01 6.9820184949601032e+00 
1298 900 2 1.0279985633256912e+00 1.2602053171757616e+03 1.0000000000000000e+00 1.9471651766139338e+01 6.8036803062047790e-01 7.8044961352953797e+00 
1299 901 2 1.0279981823562567e+00 1.2565141134011410e+03 1.0000000000000000e+00 1.9457226824818900e+01 1.5422979096229310e+00 7.6803251683746954e+00 
766 368 2 1.0280068818010990e+00 -2.3818098698517365e+03 1.0000000000000000e+00 1.9196148550653209e+01 5.0273907471768400e+00 6.2917072436631480e+00 
1103 705 2 1.0280208126388175e+00 -3.1163168655949321e+03 1.0000000000000000e+00 1.8868371188239362e+01 4.9393117931519139e+00 6.2842916239667153e+00 
1769 1371 2 1.0280103571698533e+00 4.8417566020162567e+03 1.0000000000000000e+00 1.9370592824696917e+01 5.1100759903585180e+00 6.3440544289782812e+00 
767 369 2 1.0280061485390901e+00 -2.3817885983736624e+03 1.0000000000000000e+00 1.9165521863779329e+01 5.0196670856511982e+00 6.2832030901741955e+00 
1102 704 2 1.0280107563949124e+00 -3.1162785084307052e+03 1.0000000000000000e+00 1.8981067654057171e+01 4.9999988281132568e+00 6.2432579065131799e+00 
1772 1374 2 1.0279979246963795e+00 4.8417499272282530e+03 1.0000000000000000e+00 1.8090597199868768e+01 5.3223237053649637e+00 6.4376470628650333e+00 
920 522 2 1.0280210076618452e+00 2.2835514589450202e+02 1.0000000000000000e+00 1.9998326772744733e+01 5.2131226681331118e+00 8.2927855486891211e+00 
1725 1327 2 1.0279994172864029e+00 -2.2432262239480183e+03 1.0000000000000000e+00 1.7516066112856059e+01 5.8164890302369727e+00 7.6029949898368390e+00 
1078 680 2 1.0280001956658551e+00 1.8995903367214685e+03 1.0000000000000000e+00 1.7497586290242953e+01 5.8924015845060751e+00 7.6965454062618939e+00 
1728 1330 2 1.0279970284623716e+00 -2.2434750059516387e+03 1.0000000000000000e+00 1.7574833308819922e+01 6.8421144284387143e+00 7.5015744347581572e+00 
879 481 2 1.0279959908453140e+00 1.3541904237667918e+03 1.0000000000000000e+00 1.8949427577627524e+01 7.7089925231725056e+00 7.5328519098767268e+00 
878 480 2 1.0279969272902303e+00 1.3542992853428377e+03 1.0000000000000000e+00 1.8559924807731154e+01 7.7205705392859834e+00 7.5454806548053366e+00 
1079 681 2 1.0279937145378872e+00 1.8991364251468381e+03 1.0000000000000000e+00 1.9597941948278944e+01 7.2573716623750979e+00 7.3791305120626403e+00 
416 18 2 1.0279964459852438e+00 3.5300783213556060e+03 1.0000000000000000e+00 1.9210621563744098e+01 7.6653866835670534e+00 7.6978975580592071e+00 
413 15 2 1.0279988467699472e+00 3.5301669168148769e+03 1.0000000000000000e+00 1.8219966408173040e+01 7.6513616122973964e+00 7.7618579908939322e+00 
1448 1050 2 1.0279945730267275e+00 -7.9617917915498822e+02 1.0000000000000000e+00 1.9413878795017141e+01 1.2529539057863628e+01 7.5239015641078248e+00 
1445 1047 2 1.0279945968580713e+00 -7.9663922748012828e+02 1.0000000000000000e+00 1.8746841697024671e+01 1.2540891989962969e+01 7.5369629447772741e+00 
477 79 2 1.0280025664423409e+00 1.0519883739331721e+04 1.0000000000000000e+00 1.7266859292070087e+01 1.2819898890258440e+01 7.1874431653575437e+00 
1312 914 2 1.0280025227521969e+00 -3.8549389195206986e+03 1.0000000000000000e+00 1.7230094093141208e+01 1.2846382632316978e+01 7.0642363433943496e+00 
461 63 2 1.0280029756416420e+00 7.4425948020842025e+03 1.0000000000000000e+00 1.7195722427467043e+01 1.2900144952560337e+01 7.0914665201605862e+00 
720 322 2 1.0280034049998721e+00 -4.8208693979124689e+02 1.0000000000000000e+00 1.7530378222761300e+01 1.3028392353301317e+01 7.6543548721248769e+00 
633 235 2 1.0280023966090490e+00 -8.4293462860697366e+02 1.0000000000000000e+00 1.7161034397291580e+01 1.3054175507674834e+01 6.8420076940383705e+00 
475 77 2 1.0280026946247147e+00 -3.3239130341034593e+03 1.0000000000000000e+00 1.7268460006822359e+01 1.3554030599749847e+01 6.5846910098157911e+00 
829 431 2 1.0280062908415044e+00 1.1913346156243608e+03 1.0000000000000000e+00 1.7061954789546689e+01 1.6745476237295605e+01 8.1116091906554928e+00 
947 549 2 1.0279996258069928e+00 6.3191373174934915e+02 1.0000000000000000e+00 1.9305656591995739e+01 1.4406910339073024e+01 6.4381328054522884e+00 
409 11 2 1.0280004008992196e+00 2.5998339492837581e+03 1.0000000000000000e+00 1.8640175280387460e+01 1.4420494704446551e+01 6.4376697380635681e+00 
946 548 2 1.0280013683945151e+00 6.3151361757641189e+02 1.0000000000000000e+00 1.8534092901631379e+01 1.4426604577476580e+01 6.4489832354141274e+00 
412 14 2 1.0280039372354890e+00 2.6012179381034321e+03 1.0000000000000000e+00 1.9319841849546211e+01 1.4574647330784481e+01 6.5799143344179178e+00 
2008 1610 2 1.0280118067927175e+00 1.1079190991627740e+04 1.0000000000000000e+00 1.7717946799769134e+01 1.5821592103244178e+01 8.2957555024148526e+00 
819 421 2 1.0280129022187012e+00 -2.0142152573448666e+03 1.0000000000000000e+00 1.7558583451722811e+01 1.5988512350048497e+01 8.2709926658759212e+00 
1157 759 2 1.0280186772720952e+00 -1.4251949672359613e+03 1.0000000000000000e+00 1.7374001128605016e+01 1.6181807927242577e+01 8.0432640532096347e+00 
1475 1077 2 1.0280150268523436e+00 3.0831069447594186e+03 1.0000000000000000e+00 1.7289040930383447e+01 1.6319829964401983e+01 8.0121583347174798e+00 
1669 1271 2 1.0280034374916585e+00 1.1912977055277231e+03 1.0000000000000000e+00 1.7058194424831321e+01 1.8767888580718957e+01 8.0359271132376229e+00 
980 582 2 1.0280020176681821e+00 -3.5997951258824228e+03 1.0000000000000000e+00 1.7376897054392366e+01 1.7542625668106151e+01 7.2979769214706387e+00 
1484 1086 2 1.0280008488260590e+00 -3.5997604092663887e+03 1.0000000000000000e+00 1.7347545556997630e+01 1.7939294743946938e+01 7.2798190877542313e+00 
971 573 2 1.0280079101066049e+00 3.0830249211539449e+03 1.0000000000000000e+00 1.7346743183506408e+01 1.9138934232880139e+01 7.8629117382782034e+00 
1325 927 2 1.0280097377063824e+00 -1.4253003414333925e+03 1.0000000000000000e+00 1.7449912630042089e+01 1.9241080328829803e+01 7.9205472614306869e+00 
1659 1261 2 1.0280083954966346e+00 -2.0143516404197010e+03 1.0000000000000000e+00 1.7654087657942679e+01 1.9352740789512985e+01 8.1043151201012602e+00 
496 98 2 1.0280083149122903e+00 1.1078994152468344e+04 1.0000000000000000e+00 1.7814982370030990e+01 1.9431689008792112e+01 8.1031460259201520e+00 
1364 966 2 1.0280012623906742e+00 -3.6582009950498209e+03 1.0000000000000000e+00 1.8383433204208366e+01 4.7188935381074941e+00 9.8854035081492029e+00 
641 243 2 1.0280042187788496e+00 -3.5412744587840343e+03 1.0000000000000000e+00 1.8137637067433449e+01 4.8348411438538461e+00 1.0088211603752288e+01 
1791 1393 2 1.0280053735441110e+00 -1.0475117222184274e+03 1.0000000000000000e+00 1.7897194394997371e+01 4.8235740255400001e+00 1.0833872492729693e+01 
1225 827 2 1.0280097139019859e+00 -2.7262972570530497e+01 1.0000000000000000e+00 1.7616190873272792e+01 5.8457489663068145e+00 8.4054577074837376e+00 
921 523 2 1.0280030774337743e+00 -1.6363366279679988e+02 1.0000000000000000e+00 1.8781838078656261e+01 6.9292730408461338e+00 9.5045530080707188e+00 
924 526 2 1.0280023148871817e+00 -1.6384346180289981e+02 1.0000000000000000e+00 1.8875800326946106e+01 6.9433710421080219e+00 9.5024694607898645e+00 
1330 932 2 1.0280014967642730e+00 3.1773361707838094e+03 1.0000000000000000e+00 1.8415724890676174e+01 6.2277179932074684e+00 1.0325328297979089e+01 
1331 933 2 1.0279953242964588e+00 3.1772063065464481e+03 1.0000000000000000e+00 1.9868893642424954e+01 6.3050788748295608e+00 1.0347217759766533e+01 
816 418 2 1.0279988303135266e+00 1.4407509653556783e+03 1.0000000000000000e+00 1.8457655134643389e+01 1.5217363540314068e+01 1.0695825313350449e+01 
813 415 2 1.0279956713434522e+00 1.4406511178634469e+03 1.0000000000000000e+00 1.8690718772685187e+01 1.5387427150924742e+01 1.0613594887487199e+01 
1137 739 2 1.0279767668455098e+00 -2.8937006441864156e+02 1.0000000000000000e+00 1.9268847942428565e+01 1.6550082524888527e+01 8.9904536294474653e+00 
1140 742 2 1.0279802970014369e+00 -2.8935271412658386e+02 1.0000000000000000e+00 1.8802909793321074e+01 1.6582784496367143e+01 9.0173819493996099e+00 
1305 907 2 1.0279860393777454e+00 -2.8945412295029752e+02 1.0000000000000000e+00 1.9152504324248838e+01 1.8604181616893861e+01 8.6457811617046740e+00 
1308 910 2 1.0279895357607520e+00 -2.8945418617434223e+02 1.0000000000000000e+00 1.8714442890742646e+01 1.8682104410957098e+01 8.6872943536048535e+00 
1818 1420 2 1.0280046803871925e+00 5.9261808520955333e+02 1.0000000000000000e+00 1.7837277583434723e+01 4.9210441522711719e+00 1.1401340972976943e+01 
1074 676 2 1.0280044615413657e+00 -3.8212062236009901e+03 1.0000000000000000e+00 1.7843090035006423e+01 4.9573285165678342e+00 1.1475245137290875e+01 
765 367 2 1.0280007266170175e+00 7.7719194855386775e+02 1.0000000000000000e+00 1.8201876065863175e+01 4.7385191626121008e+00 1.2592587024714502e+01 
783 385 2 1.0280006811848243e+00 7.3091461104259179e+02 1.0000000000000000e+00 1.8205628986023946e+01 4.7046839439662591e+00 1.2600700904616753e+01 
1376 978 2 1.0279970128957858e+00 -4.5898666207700144e+03 1.0000000000000000e+00 1.8570297479751908e+01 4.2189558599475800e+00 1.2858760940797529e+01 
1613 1215 2 1.0280324976876769e+00 -2.0661408416945807e+02 1.0000000000000000e+00 1.9367578989909749e+01 4.4661416022998983e+00 1.3879587858269428e+01 
1512 1114 2 1.0280016024437684e+00 -6.5235833602747389e+03 1.0000000000000000e+00 1.8824096735880659e+01 1.4446881000641062e+01 1.1544143034593985e+01 
1509 1111 2 1.0280015685548893e+00 -6.5239675969708096e+03 1.0000000000000000e+00 1.8676881705301085e+01 1.4442774616786346e+01 1.1549328148307278e+01 
802 404 2 1.0280000857063896e+00 2.9819019405403952e+02 1.0000000000000000e+00 1.7716846563668369e+01 1.5193656298803065e+01 1.2735894414794643e+01 
803 405 2 1.0280002576079212e+00 2.9830852233561041e+02 1.0000000000000000e+00 1.9805269399048026e+01 1.5242018133894462e+01 1.2663751290957791e+01 
1152 754 2 1.0279995198290357e+00 -2.7859532975172601e+03 1.0000000000000000e+00 1.7159615123972429e+01 1.5709839568634992e+01 1.1984247096410117e+01 
1467 1069 2 1.0279993370097409e+00 -1.2122226677787505e+03 1.0000000000000000e+00 1.7236980388380957e+01 1.5853281260680641e+01 1.2076442362899689e+01 
805 407 2 1.0279993543181589e+00 2.8887627259606666e+02 1.0000000000000000e+00 1.7170511318507589e+01 1.5707733099653348e+01 1.2144129865293340e+01 
1307 909 2 1.0279992412667138e+00 2.2809803109015475e+03 1.0000000000000000e+00 1.7249867867765541e+01 1.5662333297250212e+01 1.2384471672951779e+01 
985 587 2 1.0279992446421011e+00 -6.2905599508653577e+03 1.0000000000000000e+00 1.7222610164779159e+01 1.5669670649124338e+01 1.2332587454384480e+01 
1616 1218 2 1.0280205073506365e+00 -2.0663218546085184e+02 1.0000000000000000e+00 1.9169239595549399e+01 4.1568414605692432e+00 1.3911991957039763e+01 
1420 1022 2 1.0280086315813697e+00 1.5186947280918662e+03 1.0000000000000000e+00 1.9244225724935525e+01 4.5335965634124626e+00 1.5095713433607393e+01 
1417 1019 2 1.0280076583345559e+00 1.5187009145002344e+03 1.0000000000000000e+00 1.9074475838048102e+01 4.5307293587733080e+00 1.5138874369097719e+01 
1589 1191 2 1.0279979629746945e+00 -4.0538402952302067e+02 1.0000000000000000e+00 1.9971585719993080e+01 3.6008880898210291e+00 1.5484679338970892e+01 
1592 1194 2 1.0279979789490881e+00 -4.0536633005710218e+02 1.0000000000000000e+00 1.8348573919818531e+01 3.5304496311346054e+00 1.5761138692761705e+01 
1416 1018 2 1.0279982509754360e+00 -4.7722279553747995e+02 1.0000000000000000e+00 1.8332421763646753e+01 3.3762399679081136e+00 1.6006133609971567e+01 
1482 1084 2 1.0280045837117098e+00 6.7270060356066188e+02 1.0000000000000000e+00 1.9186555473368593e+01 9.7113524150479225e-01 1.8198382668821058e+01 
741 343 2 1.0280034764065837e+00 1.3259345397541874e+03 1.0000000000000000e+00 1.8824065927760316e+01 1.0113312678657225e+00 1.8265826412902946e+01 
1483 1085 2 1.0280033249401974e+00 6.7168168169610112e+02 1.0000000000000000e+00 1.8803794069718887e+01 9.9801753055493703e-01 1.8284810608961621e+01 
744 346 2 1.0279996184786599e+00 1.3279626741325353e+03 1.0000000000000000e+00 1.9976218689250082e+01 1.7836571118683697e+00 1.8521130637755359e+01 
1121 723 2 1.0280006722582371e+00 -2.7409287991439037e+03 1.0000000000000000e+00 1.9787107072737406e+01 5.2138704798618785e-01 1.8852279106254468e+01 
1124 726 2 1.0280010497329992e+00 -2.7415735325759792e+03 1.0000000000000000e+00 1.8434269288954678e+01 4.7054592214676771e-01 1.9155230225106912e+01 
452 54 2 1.0280033113075060e+00 8.7476984973019462e+03 1.0000000000000000e+00 1.8229085920823731e+01 3.3540760877376026e+00 1.6905419590047948e+01 
1771 1373 2 1.0280043761276692e+00 -4.4120911822706075e+03 1.0000000000000000e+00 1.8231613286144828e+01 3.3613530109625893e+00 1.7097430452848251e+01 
1050 652 2 1.0280056920098455e+00 1.2329099563534865e+03 1.0000000000000000e+00 1.9208522776348314e+01 4.1409992452619946e+00 1.7607453350578627e+01 
1051 653 2 1.0280057005611527e+00 1.2328242576129117e+03 1.0000000000000000e+00 1.9123877532061091e+01 4.1398245064371171e+00 1.7614074663042331e+01 
504 106 2 1.0280032016968299e+00 9.1658746598845264e+03 1.0000000000000000e+00 1.9776148370829137e+01 3.2807544892634537e+00 1.8769308918898730e+01 
501 103 2 1.0280022564520215e+00 9.1657247791519767e+03 1.0000000000000000e+00 1.8606713069009263e+01 3.2427741370654410e+00 1.9001880490425417e+01 