LAMMPS data file via write_data, version 30 Jul 2016, timestep = 50400000

3234 atoms
8 atom types

0.0000000000000000e+00 1.0000000000000000e+02 xlo xhi
0.0000000000000000e+00 4.0000000000000000e+01 ylo yhi
0.0000000000000000e+00 4.0000000000000000e+01 zlo zhi

Masses

1 3.896
2 5.36
3 20.064
4 8.378
5 8.378
6 8.378
7 8.378
8 8.378

Atoms # meso-molecular

86 87 2 1.4411425104121596e+00 -1.0193664251595901e-04 1.0000000000000000e+00 1.3758990558994704e+00 1.0000000000000000e+01 7.9822334435508291e-01 
87 88 2 1.4411425104121596e+00 -1.0193678259865513e-04 1.0000000000000000e+00 3.7709886518215159e+00 1.0000000000000000e+01 7.9824611245019272e-01 
88 89 2 1.4411425104121596e+00 -1.0193692758491485e-04 1.0000000000000000e+00 6.0257960469255964e+00 1.0000000000000000e+01 7.9820469867682664e-01 
89 90 2 1.4411425104121596e+00 -1.0193700736521201e-04 1.0000000000000000e+00 8.0307120803686178e+00 1.0000000000000000e+01 7.9826898599031804e-01 
90 91 2 1.4411425104121596e+00 -1.0193708117566967e-04 1.0000000000000000e+00 1.0179615465283087e+01 1.0000000000000000e+01 7.9819161086313117e-01 
91 92 2 1.4411425104121596e+00 -1.0193723195943518e-04 1.0000000000000000e+00 1.2266231808944431e+01 1.0000000000000000e+01 7.9825008741920278e-01 
92 93 2 1.4411425104121596e+00 -1.0193738002531349e-04 1.0000000000000000e+00 1.4309523322872860e+01 1.0000000000000000e+01 7.9823216921545581e-01 
93 94 2 1.4411425104121596e+00 -1.0193751081166518e-04 1.0000000000000000e+00 1.6327272995610894e+01 1.0000000000000000e+01 7.9821978216697975e-01 
94 95 2 1.4411425104121596e+00 -1.0193762018057730e-04 1.0000000000000000e+00 1.8333867305960450e+01 1.0000000000000000e+01 7.9823842058463235e-01 
95 96 2 1.4411425104121596e+00 -1.0193770640097401e-04 1.0000000000000000e+00 2.0341050824850758e+01 1.0000000000000000e+01 7.9822723206105872e-01 
96 97 2 1.4411425104121596e+00 -1.0193780417655981e-04 1.0000000000000000e+00 2.2370541913559642e+01 1.0000000000000000e+01 7.9823113615462604e-01 
97 98 2 1.4411425104121596e+00 -1.0193789516980209e-04 1.0000000000000000e+00 2.4630579846272223e+01 1.0000000000000000e+01 7.9823031315275850e-01 
98 99 2 1.4411425104121596e+00 -1.0193794683356238e-04 1.0000000000000000e+00 2.6795639964007378e+01 1.0000000000000000e+01 7.9823040853770300e-01 
99 100 2 1.4411425104121596e+00 -1.0193794730514288e-04 1.0000000000000000e+00 2.8943309601403808e+01 1.0000000000000000e+01 7.9823040283201407e-01 
100 101 2 1.4411425104121596e+00 -1.0193795505222112e-04 1.0000000000000000e+00 3.1154809917232974e+01 1.0000000000000000e+01 7.9823040295661962e-01 
548 549 2 1.4411425104121596e+00 -1.0193664251595901e-04 1.0000000000000000e+00 1.3758990558994704e+00 1.3000000000000000e+01 7.9822334435508291e-01 
549 550 2 1.4411425104121596e+00 -1.0193678259865513e-04 1.0000000000000000e+00 3.7709886518215159e+00 1.3000000000000000e+01 7.9824611245019272e-01 
550 551 2 1.4411425104121596e+00 -1.0193692758491485e-04 1.0000000000000000e+00 6.0257960469255964e+00 1.3000000000000000e+01 7.9820469867682664e-01 
551 552 2 1.4411425104121596e+00 -1.0193700736521201e-04 1.0000000000000000e+00 8.0307120803686178e+00 1.3000000000000000e+01 7.9826898599031804e-01 
552 553 2 1.4411425104121596e+00 -1.0193708117566967e-04 1.0000000000000000e+00 1.0179615465283087e+01 1.3000000000000000e+01 7.9819161086313117e-01 
553 554 2 1.4411425104121596e+00 -1.0193723195943518e-04 1.0000000000000000e+00 1.2266231808944431e+01 1.3000000000000000e+01 7.9825008741920278e-01 
554 555 2 1.4411425104121596e+00 -1.0193738002531349e-04 1.0000000000000000e+00 1.4309523322872860e+01 1.3000000000000000e+01 7.9823216921545581e-01 
555 556 2 1.4411425104121596e+00 -1.0193751081166518e-04 1.0000000000000000e+00 1.6327272995610894e+01 1.3000000000000000e+01 7.9821978216697975e-01 
556 557 2 1.4411425104121596e+00 -1.0193762018057730e-04 1.0000000000000000e+00 1.8333867305960450e+01 1.3000000000000000e+01 7.9823842058463235e-01 
557 558 2 1.4411425104121596e+00 -1.0193770640097401e-04 1.0000000000000000e+00 2.0341050824850758e+01 1.3000000000000000e+01 7.9822723206105872e-01 
558 559 2 1.4411425104121596e+00 -1.0193780417655981e-04 1.0000000000000000e+00 2.2370541913559642e+01 1.3000000000000000e+01 7.9823113615462604e-01 
559 560 2 1.4411425104121596e+00 -1.0193789516980209e-04 1.0000000000000000e+00 2.4630579846272223e+01 1.3000000000000000e+01 7.9823031315275850e-01 
560 561 2 1.4411425104121596e+00 -1.0193794683356238e-04 1.0000000000000000e+00 2.6795639964007378e+01 1.3000000000000000e+01 7.9823040853770300e-01 
561 562 2 1.4411425104121596e+00 -1.0193794730514288e-04 1.0000000000000000e+00 2.8943309601403808e+01 1.3000000000000000e+01 7.9823040283201407e-01 
562 563 2 1.4411425104121596e+00 -1.0193795505222112e-04 1.0000000000000000e+00 3.1154809917232974e+01 1.3000000000000000e+01 7.9823040295661962e-01 
1010 1011 2 1.4411425104121596e+00 -1.0193664251595901e-04 1.0000000000000000e+00 1.3758990558994704e+00 1.6000000000000000e+01 7.9822334435508291e-01 
1011 1012 2 1.4411425104121596e+00 -1.0193678259865513e-04 1.0000000000000000e+00 3.7709886518215159e+00 1.6000000000000000e+01 7.9824611245019272e-01 
1012 1013 2 1.4411425104121596e+00 -1.0193692758491485e-04 1.0000000000000000e+00 6.0257960469255964e+00 1.6000000000000000e+01 7.9820469867682664e-01 
1013 1014 2 1.4411425104121596e+00 -1.0193700736521201e-04 1.0000000000000000e+00 8.0307120803686178e+00 1.6000000000000000e+01 7.9826898599031804e-01 
1014 1015 2 1.4411425104121596e+00 -1.0193708117566967e-04 1.0000000000000000e+00 1.0179615465283087e+01 1.6000000000000000e+01 7.9819161086313117e-01 
1015 1016 2 1.4411425104121596e+00 -1.0193723195943518e-04 1.0000000000000000e+00 1.2266231808944431e+01 1.6000000000000000e+01 7.9825008741920278e-01 
1016 1017 2 1.4411425104121596e+00 -1.0193738002531349e-04 1.0000000000000000e+00 1.4309523322872860e+01 1.6000000000000000e+01 7.9823216921545581e-01 
1017 1018 2 1.4411425104121596e+00 -1.0193751081166518e-04 1.0000000000000000e+00 1.6327272995610894e+01 1.6000000000000000e+01 7.9821978216697975e-01 
1018 1019 2 1.4411425104121596e+00 -1.0193762018057730e-04 1.0000000000000000e+00 1.8333867305960450e+01 1.6000000000000000e+01 7.9823842058463235e-01 
1019 1020 2 1.4411425104121596e+00 -1.0193770640097401e-04 1.0000000000000000e+00 2.0341050824850758e+01 1.6000000000000000e+01 7.9822723206105872e-01 
1020 1021 2 1.4411425104121596e+00 -1.0193780417655981e-04 1.0000000000000000e+00 2.2370541913559642e+01 1.6000000000000000e+01 7.9823113615462604e-01 
1021 1022 2 1.4411425104121596e+00 -1.0193789516980209e-04 1.0000000000000000e+00 2.4630579846272223e+01 1.6000000000000000e+01 7.9823031315275850e-01 
1022 1023 2 1.4411425104121596e+00 -1.0193794683356238e-04 1.0000000000000000e+00 2.6795639964007378e+01 1.6000000000000000e+01 7.9823040853770300e-01 
1023 1024 2 1.4411425104121596e+00 -1.0193794730514288e-04 1.0000000000000000e+00 2.8943309601403808e+01 1.6000000000000000e+01 7.9823040283201407e-01 
1024 1025 2 1.4411425104121596e+00 -1.0193795505222112e-04 1.0000000000000000e+00 3.1154809917232974e+01 1.6000000000000000e+01 7.9823040295661962e-01 
1472 1473 2 1.4411425104121596e+00 -1.0193664251595901e-04 1.0000000000000000e+00 1.3758990558994704e+00 1.9000000000000000e+01 7.9822334435508291e-01 
1473 1474 2 1.4411425104121596e+00 -1.0193678259865513e-04 1.0000000000000000e+00 3.7709886518215159e+00 1.9000000000000000e+01 7.9824611245019272e-01 
1474 1475 2 1.4411425104121596e+00 -1.0193692758491485e-04 1.0000000000000000e+00 6.0257960469255964e+00 1.9000000000000000e+01 7.9820469867682664e-01 
1475 1476 2 1.4411425104121596e+00 -1.0193700736521201e-04 1.0000000000000000e+00 8.0307120803686178e+00 1.9000000000000000e+01 7.9826898599031804e-01 
1476 1477 2 1.4411425104121596e+00 -1.0193708117566967e-04 1.0000000000000000e+00 1.0179615465283087e+01 1.9000000000000000e+01 7.9819161086313117e-01 
1477 1478 2 1.4411425104121596e+00 -1.0193723195943518e-04 1.0000000000000000e+00 1.2266231808944431e+01 1.9000000000000000e+01 7.9825008741920278e-01 
1478 1479 2 1.4411425104121596e+00 -1.0193738002531349e-04 1.0000000000000000e+00 1.4309523322872860e+01 1.9000000000000000e+01 7.9823216921545581e-01 
1479 1480 2 1.4411425104121596e+00 -1.0193751081166518e-04 1.0000000000000000e+00 1.6327272995610894e+01 1.9000000000000000e+01 7.9821978216697975e-01 
1480 1481 2 1.4411425104121596e+00 -1.0193762018057730e-04 1.0000000000000000e+00 1.8333867305960450e+01 1.9000000000000000e+01 7.9823842058463235e-01 
1481 1482 2 1.4411425104121596e+00 -1.0193770640097401e-04 1.0000000000000000e+00 2.0341050824850758e+01 1.9000000000000000e+01 7.9822723206105872e-01 
1482 1483 2 1.4411425104121596e+00 -1.0193780417655981e-04 1.0000000000000000e+00 2.2370541913559642e+01 1.9000000000000000e+01 7.9823113615462604e-01 
1483 1484 2 1.4411425104121596e+00 -1.0193789516980209e-04 1.0000000000000000e+00 2.4630579846272223e+01 1.9000000000000000e+01 7.9823031315275850e-01 
1484 1485 2 1.4411425104121596e+00 -1.0193794683356238e-04 1.0000000000000000e+00 2.6795639964007378e+01 1.9000000000000000e+01 7.9823040853770300e-01 
1485 1486 2 1.4411425104121596e+00 -1.0193794730514288e-04 1.0000000000000000e+00 2.8943309601403808e+01 1.9000000000000000e+01 7.9823040283201407e-01 
1486 1487 2 1.4411425104121596e+00 -1.0193795505222112e-04 1.0000000000000000e+00 3.1154809917232974e+01 1.9000000000000000e+01 7.9823040295661962e-01 
128 129 2 1.4411425104121596e+00 -1.0193665012356546e-04 1.0000000000000000e+00 1.3759171579546259e+00 1.0000000000000000e+01 2.9913191564867159e+00 
129 130 2 1.4411425104121596e+00 -1.0193679012110517e-04 1.0000000000000000e+00 3.7709394186483367e+00 1.0000000000000000e+01 2.9913143193768037e+00 
130 131 2 1.4411425104121596e+00 -1.0193693590296405e-04 1.0000000000000000e+00 6.0257966517179185e+00 1.0000000000000000e+01 2.9913276914324922e+00 
131 132 2 1.4411425104121596e+00 -1.0193701444246947e-04 1.0000000000000000e+00 8.0307137270382238e+00 1.0000000000000000e+01 2.9913000529472424e+00 
132 133 2 1.4411425104121596e+00 -1.0193708951092031e-04 1.0000000000000000e+00 1.0179598365186671e+01 1.0000000000000000e+01 2.9913387622648449e+00 
133 134 2 1.4411425104121596e+00 -1.0193723939785097e-04 1.0000000000000000e+00 1.2266295294840129e+01 1.0000000000000000e+01 2.9913075226135852e+00 
134 135 2 1.4411425104121596e+00 -1.0193738773413822e-04 1.0000000000000000e+00 1.4309590772347475e+01 1.0000000000000000e+01 2.9913161897407416e+00 
135 136 2 1.4411425104121596e+00 -1.0193751877374530e-04 1.0000000000000000e+00 1.6327311835923144e+01 1.0000000000000000e+01 2.9913248996377622e+00 
136 137 2 1.4411425104121596e+00 -1.0193762784586077e-04 1.0000000000000000e+00 1.8333881034481877e+01 1.0000000000000000e+01 2.9913134920333144e+00 
137 138 2 1.4411425104121596e+00 -1.0193771424031214e-04 1.0000000000000000e+00 2.0341057930452873e+01 1.0000000000000000e+01 2.9913197870256507e+00 
138 139 2 1.4411425104121596e+00 -1.0193781202554127e-04 1.0000000000000000e+00 2.2370547216590207e+01 1.0000000000000000e+01 2.9913178118824888e+00 
139 140 2 1.4411425104121596e+00 -1.0193790297749770e-04 1.0000000000000000e+00 2.4630581492420102e+01 1.0000000000000000e+01 2.9913181853815791e+00 
140 141 2 1.4411425104121596e+00 -1.0193795464477347e-04 1.0000000000000000e+00 2.6795648925354026e+01 1.0000000000000000e+01 2.9913181427430628e+00 
141 142 2 1.4411425104121596e+00 -1.0193795506057224e-04 1.0000000000000000e+00 2.8943309591461421e+01 1.0000000000000000e+01 2.9913181443231638e+00 
142 143 2 1.4411425104121596e+00 -1.0193796275316647e-04 1.0000000000000000e+00 3.1154809963413165e+01 1.0000000000000000e+01 2.9913181443231913e+00 
590 591 2 1.4411425104121596e+00 -1.0193665012356546e-04 1.0000000000000000e+00 1.3759171579546259e+00 1.3000000000000000e+01 2.9913191564867159e+00 
591 592 2 1.4411425104121596e+00 -1.0193679012110517e-04 1.0000000000000000e+00 3.7709394186483367e+00 1.3000000000000000e+01 2.9913143193768037e+00 
592 593 2 1.4411425104121596e+00 -1.0193693590296405e-04 1.0000000000000000e+00 6.0257966517179185e+00 1.3000000000000000e+01 2.9913276914324922e+00 
593 594 2 1.4411425104121596e+00 -1.0193701444246947e-04 1.0000000000000000e+00 8.0307137270382238e+00 1.3000000000000000e+01 2.9913000529472424e+00 
594 595 2 1.4411425104121596e+00 -1.0193708951092031e-04 1.0000000000000000e+00 1.0179598365186671e+01 1.3000000000000000e+01 2.9913387622648449e+00 
595 596 2 1.4411425104121596e+00 -1.0193723939785097e-04 1.0000000000000000e+00 1.2266295294840129e+01 1.3000000000000000e+01 2.9913075226135852e+00 
596 597 2 1.4411425104121596e+00 -1.0193738773413822e-04 1.0000000000000000e+00 1.4309590772347475e+01 1.3000000000000000e+01 2.9913161897407416e+00 
597 598 2 1.4411425104121596e+00 -1.0193751877374530e-04 1.0000000000000000e+00 1.6327311835923144e+01 1.3000000000000000e+01 2.9913248996377622e+00 
598 599 2 1.4411425104121596e+00 -1.0193762784586077e-04 1.0000000000000000e+00 1.8333881034481877e+01 1.3000000000000000e+01 2.9913134920333144e+00 
599 600 2 1.4411425104121596e+00 -1.0193771424031214e-04 1.0000000000000000e+00 2.0341057930452873e+01 1.3000000000000000e+01 2.9913197870256507e+00 
600 601 2 1.4411425104121596e+00 -1.0193781202554127e-04 1.0000000000000000e+00 2.2370547216590207e+01 1.3000000000000000e+01 2.9913178118824888e+00 
601 602 2 1.4411425104121596e+00 -1.0193790297749770e-04 1.0000000000000000e+00 2.4630581492420102e+01 1.3000000000000000e+01 2.9913181853815791e+00 
602 603 2 1.4411425104121596e+00 -1.0193795464477347e-04 1.0000000000000000e+00 2.6795648925354026e+01 1.3000000000000000e+01 2.9913181427430628e+00 
603 604 2 1.4411425104121596e+00 -1.0193795506057224e-04 1.0000000000000000e+00 2.8943309591461421e+01 1.3000000000000000e+01 2.9913181443231638e+00 
604 605 2 1.4411425104121596e+00 -1.0193796275316647e-04 1.0000000000000000e+00 3.1154809963413165e+01 1.3000000000000000e+01 2.9913181443231913e+00 
1052 1053 2 1.4411425104121596e+00 -1.0193665012356546e-04 1.0000000000000000e+00 1.3759171579546259e+00 1.6000000000000000e+01 2.9913191564867159e+00 
1053 1054 2 1.4411425104121596e+00 -1.0193679012110517e-04 1.0000000000000000e+00 3.7709394186483367e+00 1.6000000000000000e+01 2.9913143193768037e+00 
1054 1055 2 1.4411425104121596e+00 -1.0193693590296405e-04 1.0000000000000000e+00 6.0257966517179185e+00 1.6000000000000000e+01 2.9913276914324922e+00 
1055 1056 2 1.4411425104121596e+00 -1.0193701444246947e-04 1.0000000000000000e+00 8.0307137270382238e+00 1.6000000000000000e+01 2.9913000529472424e+00 
1056 1057 2 1.4411425104121596e+00 -1.0193708951092031e-04 1.0000000000000000e+00 1.0179598365186671e+01 1.6000000000000000e+01 2.9913387622648449e+00 
1057 1058 2 1.4411425104121596e+00 -1.0193723939785097e-04 1.0000000000000000e+00 1.2266295294840129e+01 1.6000000000000000e+01 2.9913075226135852e+00 
1058 1059 2 1.4411425104121596e+00 -1.0193738773413822e-04 1.0000000000000000e+00 1.4309590772347475e+01 1.6000000000000000e+01 2.9913161897407416e+00 
1059 1060 2 1.4411425104121596e+00 -1.0193751877374530e-04 1.0000000000000000e+00 1.6327311835923144e+01 1.6000000000000000e+01 2.9913248996377622e+00 
1060 1061 2 1.4411425104121596e+00 -1.0193762784586077e-04 1.0000000000000000e+00 1.8333881034481877e+01 1.6000000000000000e+01 2.9913134920333144e+00 
1061 1062 2 1.4411425104121596e+00 -1.0193771424031214e-04 1.0000000000000000e+00 2.0341057930452873e+01 1.6000000000000000e+01 2.9913197870256507e+00 
1062 1063 2 1.4411425104121596e+00 -1.0193781202554127e-04 1.0000000000000000e+00 2.2370547216590207e+01 1.6000000000000000e+01 2.9913178118824888e+00 
1063 1064 2 1.4411425104121596e+00 -1.0193790297749770e-04 1.0000000000000000e+00 2.4630581492420102e+01 1.6000000000000000e+01 2.9913181853815791e+00 
1064 1065 2 1.4411425104121596e+00 -1.0193795464477347e-04 1.0000000000000000e+00 2.6795648925354026e+01 1.6000000000000000e+01 2.9913181427430628e+00 
1065 1066 2 1.4411425104121596e+00 -1.0193795506057224e-04 1.0000000000000000e+00 2.8943309591461421e+01 1.6000000000000000e+01 2.9913181443231638e+00 
1066 1067 2 1.4411425104121596e+00 -1.0193796275316647e-04 1.0000000000000000e+00 3.1154809963413165e+01 1.6000000000000000e+01 2.9913181443231913e+00 
1514 1515 2 1.4411425104121596e+00 -1.0193665012356546e-04 1.0000000000000000e+00 1.3759171579546259e+00 1.9000000000000000e+01 2.9913191564867159e+00 
1515 1516 2 1.4411425104121596e+00 -1.0193679012110517e-04 1.0000000000000000e+00 3.7709394186483367e+00 1.9000000000000000e+01 2.9913143193768037e+00 
1516 1517 2 1.4411425104121596e+00 -1.0193693590296405e-04 1.0000000000000000e+00 6.0257966517179185e+00 1.9000000000000000e+01 2.9913276914324922e+00 
1517 1518 2 1.4411425104121596e+00 -1.0193701444246947e-04 1.0000000000000000e+00 8.0307137270382238e+00 1.9000000000000000e+01 2.9913000529472424e+00 
1518 1519 2 1.4411425104121596e+00 -1.0193708951092031e-04 1.0000000000000000e+00 1.0179598365186671e+01 1.9000000000000000e+01 2.9913387622648449e+00 
1519 1520 2 1.4411425104121596e+00 -1.0193723939785097e-04 1.0000000000000000e+00 1.2266295294840129e+01 1.9000000000000000e+01 2.9913075226135852e+00 
1520 1521 2 1.4411425104121596e+00 -1.0193738773413822e-04 1.0000000000000000e+00 1.4309590772347475e+01 1.9000000000000000e+01 2.9913161897407416e+00 
1521 1522 2 1.4411425104121596e+00 -1.0193751877374530e-04 1.0000000000000000e+00 1.6327311835923144e+01 1.9000000000000000e+01 2.9913248996377622e+00 
1522 1523 2 1.4411425104121596e+00 -1.0193762784586077e-04 1.0000000000000000e+00 1.8333881034481877e+01 1.9000000000000000e+01 2.9913134920333144e+00 
1523 1524 2 1.4411425104121596e+00 -1.0193771424031214e-04 1.0000000000000000e+00 2.0341057930452873e+01 1.9000000000000000e+01 2.9913197870256507e+00 
1524 1525 2 1.4411425104121596e+00 -1.0193781202554127e-04 1.0000000000000000e+00 2.2370547216590207e+01 1.9000000000000000e+01 2.9913178118824888e+00 
1525 1526 2 1.4411425104121596e+00 -1.0193790297749770e-04 1.0000000000000000e+00 2.4630581492420102e+01 1.9000000000000000e+01 2.9913181853815791e+00 
1526 1527 2 1.4411425104121596e+00 -1.0193795464477347e-04 1.0000000000000000e+00 2.6795648925354026e+01 1.9000000000000000e+01 2.9913181427430628e+00 
1527 1528 2 1.4411425104121596e+00 -1.0193795506057224e-04 1.0000000000000000e+00 2.8943309591461421e+01 1.9000000000000000e+01 2.9913181443231638e+00 
1528 1529 2 1.4411425104121596e+00 -1.0193796275316647e-04 1.0000000000000000e+00 3.1154809963413165e+01 1.9000000000000000e+01 2.9913181443231913e+00 
170 171 2 1.4411425104121596e+00 -1.0193675173295908e-04 1.0000000000000000e+00 1.3760455444308231e+00 1.0000000000000000e+01 9.0076556246875814e+00 
171 172 2 1.4411425104121596e+00 -1.0193689177405299e-04 1.0000000000000000e+00 3.7710562333380593e+00 1.0000000000000000e+01 9.0076882876210114e+00 
172 173 2 1.4411425104121596e+00 -1.0193703757462200e-04 1.0000000000000000e+00 6.0258019878185296e+00 1.0000000000000000e+01 9.0076622151839718e+00 
173 174 2 1.4411425104121596e+00 -1.0193711611442328e-04 1.0000000000000000e+00 8.0307113398482119e+00 1.0000000000000000e+01 9.0076710671101043e+00 
174 175 2 1.4411425104121596e+00 -1.0193719118914998e-04 1.0000000000000000e+00 1.0179627006895455e+01 1.0000000000000000e+01 9.0076743979611837e+00 
175 176 2 1.4411425104121596e+00 -1.0193734104832868e-04 1.0000000000000000e+00 1.2266273306902955e+01 1.0000000000000000e+01 9.0076694464856644e+00 
176 177 2 1.4411425104121596e+00 -1.0193748934637684e-04 1.0000000000000000e+00 1.4309590566901147e+01 1.0000000000000000e+01 9.0076685772516107e+00 
177 178 2 1.4411425104121596e+00 -1.0193762036626836e-04 1.0000000000000000e+00 1.6327305621353755e+01 1.0000000000000000e+01 9.0076749030178007e+00 
178 179 2 1.4411425104121596e+00 -1.0193772949540399e-04 1.0000000000000000e+00 1.8333874245698581e+01 1.0000000000000000e+01 9.0076683189210751e+00 
179 180 2 1.4411425104121596e+00 -1.0193781593893927e-04 1.0000000000000000e+00 2.0341057564278721e+01 1.0000000000000000e+01 9.0076720596746380e+00 
180 181 2 1.4411425104121596e+00 -1.0193791368408943e-04 1.0000000000000000e+00 2.2370547039029987e+01 1.0000000000000000e+01 9.0076707152137629e+00 
181 182 2 1.4411425104121596e+00 -1.0193800462551719e-04 1.0000000000000000e+00 2.4630581317671684e+01 1.0000000000000000e+01 9.0076710407574740e+00 
182 183 2 1.4411425104121596e+00 -1.0193805624080787e-04 1.0000000000000000e+00 2.6795631160459120e+01 1.0000000000000000e+01 9.0076709887727340e+00 
183 184 2 1.4411425104121596e+00 -1.0193805665911399e-04 1.0000000000000000e+00 2.8943309504075977e+01 1.0000000000000000e+01 9.0076709930477925e+00 
184 185 2 1.4411425104121596e+00 -1.0193806448883185e-04 1.0000000000000000e+00 3.1154809779747673e+01 1.0000000000000000e+01 9.0076709930219501e+00 
632 633 2 1.4411425104121596e+00 -1.0193675173295908e-04 1.0000000000000000e+00 1.3760455444308231e+00 1.3000000000000000e+01 9.0076556246875814e+00 
633 634 2 1.4411425104121596e+00 -1.0193689177405299e-04 1.0000000000000000e+00 3.7710562333380593e+00 1.3000000000000000e+01 9.0076882876210114e+00 
634 635 2 1.4411425104121596e+00 -1.0193703757462200e-04 1.0000000000000000e+00 6.0258019878185296e+00 1.3000000000000000e+01 9.0076622151839718e+00 
635 636 2 1.4411425104121596e+00 -1.0193711611442328e-04 1.0000000000000000e+00 8.0307113398482119e+00 1.3000000000000000e+01 9.0076710671101043e+00 
636 637 2 1.4411425104121596e+00 -1.0193719118914998e-04 1.0000000000000000e+00 1.0179627006895455e+01 1.3000000000000000e+01 9.0076743979611837e+00 
637 638 2 1.4411425104121596e+00 -1.0193734104832868e-04 1.0000000000000000e+00 1.2266273306902955e+01 1.3000000000000000e+01 9.0076694464856644e+00 
638 639 2 1.4411425104121596e+00 -1.0193748934637684e-04 1.0000000000000000e+00 1.4309590566901147e+01 1.3000000000000000e+01 9.0076685772516107e+00 
639 640 2 1.4411425104121596e+00 -1.0193762036626836e-04 1.0000000000000000e+00 1.6327305621353755e+01 1.3000000000000000e+01 9.0076749030178007e+00 
640 641 2 1.4411425104121596e+00 -1.0193772949540399e-04 1.0000000000000000e+00 1.8333874245698581e+01 1.3000000000000000e+01 9.0076683189210751e+00 
641 642 2 1.4411425104121596e+00 -1.0193781593893927e-04 1.0000000000000000e+00 2.0341057564278721e+01 1.3000000000000000e+01 9.0076720596746380e+00 
642 643 2 1.4411425104121596e+00 -1.0193791368408943e-04 1.0000000000000000e+00 2.2370547039029987e+01 1.3000000000000000e+01 9.0076707152137629e+00 
643 644 2 1.4411425104121596e+00 -1.0193800462551719e-04 1.0000000000000000e+00 2.4630581317671684e+01 1.3000000000000000e+01 9.0076710407574740e+00 
644 645 2 1.4411425104121596e+00 -1.0193805624080787e-04 1.0000000000000000e+00 2.6795631160459120e+01 1.3000000000000000e+01 9.0076709887727340e+00 
645 646 2 1.4411425104121596e+00 -1.0193805665911399e-04 1.0000000000000000e+00 2.8943309504075977e+01 1.3000000000000000e+01 9.0076709930477925e+00 
646 647 2 1.4411425104121596e+00 -1.0193806448883185e-04 1.0000000000000000e+00 3.1154809779747673e+01 1.3000000000000000e+01 9.0076709930219501e+00 
1094 1095 2 1.4411425104121596e+00 -1.0193675173295908e-04 1.0000000000000000e+00 1.3760455444308231e+00 1.6000000000000000e+01 9.0076556246875814e+00 
1095 1096 2 1.4411425104121596e+00 -1.0193689177405299e-04 1.0000000000000000e+00 3.7710562333380593e+00 1.6000000000000000e+01 9.0076882876210114e+00 
1096 1097 2 1.4411425104121596e+00 -1.0193703757462200e-04 1.0000000000000000e+00 6.0258019878185296e+00 1.6000000000000000e+01 9.0076622151839718e+00 
1097 1098 2 1.4411425104121596e+00 -1.0193711611442328e-04 1.0000000000000000e+00 8.0307113398482119e+00 1.6000000000000000e+01 9.0076710671101043e+00 
1098 1099 2 1.4411425104121596e+00 -1.0193719118914998e-04 1.0000000000000000e+00 1.0179627006895455e+01 1.6000000000000000e+01 9.0076743979611837e+00 
1099 1100 2 1.4411425104121596e+00 -1.0193734104832868e-04 1.0000000000000000e+00 1.2266273306902955e+01 1.6000000000000000e+01 9.0076694464856644e+00 
1100 1101 2 1.4411425104121596e+00 -1.0193748934637684e-04 1.0000000000000000e+00 1.4309590566901147e+01 1.6000000000000000e+01 9.0076685772516107e+00 
1101 1102 2 1.4411425104121596e+00 -1.0193762036626836e-04 1.0000000000000000e+00 1.6327305621353755e+01 1.6000000000000000e+01 9.0076749030178007e+00 
1102 1103 2 1.4411425104121596e+00 -1.0193772949540399e-04 1.0000000000000000e+00 1.8333874245698581e+01 1.6000000000000000e+01 9.0076683189210751e+00 
1103 1104 2 1.4411425104121596e+00 -1.0193781593893927e-04 1.0000000000000000e+00 2.0341057564278721e+01 1.6000000000000000e+01 9.0076720596746380e+00 
1104 1105 2 1.4411425104121596e+00 -1.0193791368408943e-04 1.0000000000000000e+00 2.2370547039029987e+01 1.6000000000000000e+01 9.0076707152137629e+00 
1105 1106 2 1.4411425104121596e+00 -1.0193800462551719e-04 1.0000000000000000e+00 2.4630581317671684e+01 1.6000000000000000e+01 9.0076710407574740e+00 
1106 1107 2 1.4411425104121596e+00 -1.0193805624080787e-04 1.0000000000000000e+00 2.6795631160459120e+01 1.6000000000000000e+01 9.0076709887727340e+00 
1107 1108 2 1.4411425104121596e+00 -1.0193805665911399e-04 1.0000000000000000e+00 2.8943309504075977e+01 1.6000000000000000e+01 9.0076709930477925e+00 
1108 1109 2 1.4411425104121596e+00 -1.0193806448883185e-04 1.0000000000000000e+00 3.1154809779747673e+01 1.6000000000000000e+01 9.0076709930219501e+00 
1556 1557 2 1.4411425104121596e+00 -1.0193675173295908e-04 1.0000000000000000e+00 1.3760455444308231e+00 1.9000000000000000e+01 9.0076556246875814e+00 
1557 1558 2 1.4411425104121596e+00 -1.0193689177405299e-04 1.0000000000000000e+00 3.7710562333380593e+00 1.9000000000000000e+01 9.0076882876210114e+00 
1558 1559 2 1.4411425104121596e+00 -1.0193703757462200e-04 1.0000000000000000e+00 6.0258019878185296e+00 1.9000000000000000e+01 9.0076622151839718e+00 
1559 1560 2 1.4411425104121596e+00 -1.0193711611442328e-04 1.0000000000000000e+00 8.0307113398482119e+00 1.9000000000000000e+01 9.0076710671101043e+00 
1560 1561 2 1.4411425104121596e+00 -1.0193719118914998e-04 1.0000000000000000e+00 1.0179627006895455e+01 1.9000000000000000e+01 9.0076743979611837e+00 
1561 1562 2 1.4411425104121596e+00 -1.0193734104832868e-04 1.0000000000000000e+00 1.2266273306902955e+01 1.9000000000000000e+01 9.0076694464856644e+00 
1562 1563 2 1.4411425104121596e+00 -1.0193748934637684e-04 1.0000000000000000e+00 1.4309590566901147e+01 1.9000000000000000e+01 9.0076685772516107e+00 
1563 1564 2 1.4411425104121596e+00 -1.0193762036626836e-04 1.0000000000000000e+00 1.6327305621353755e+01 1.9000000000000000e+01 9.0076749030178007e+00 
1564 1565 2 1.4411425104121596e+00 -1.0193772949540399e-04 1.0000000000000000e+00 1.8333874245698581e+01 1.9000000000000000e+01 9.0076683189210751e+00 
1565 1566 2 1.4411425104121596e+00 -1.0193781593893927e-04 1.0000000000000000e+00 2.0341057564278721e+01 1.9000000000000000e+01 9.0076720596746380e+00 
1566 1567 2 1.4411425104121596e+00 -1.0193791368408943e-04 1.0000000000000000e+00 2.2370547039029987e+01 1.9000000000000000e+01 9.0076707152137629e+00 
1567 1568 2 1.4411425104121596e+00 -1.0193800462551719e-04 1.0000000000000000e+00 2.4630581317671684e+01 1.9000000000000000e+01 9.0076710407574740e+00 
1568 1569 2 1.4411425104121596e+00 -1.0193805624080787e-04 1.0000000000000000e+00 2.6795631160459120e+01 1.9000000000000000e+01 9.0076709887727340e+00 
1569 1570 2 1.4411425104121596e+00 -1.0193805665911399e-04 1.0000000000000000e+00 2.8943309504075977e+01 1.9000000000000000e+01 9.0076709930477925e+00 
1570 1571 2 1.4411425104121596e+00 -1.0193806448883185e-04 1.0000000000000000e+00 3.1154809779747673e+01 1.9000000000000000e+01 9.0076709930219501e+00 
212 213 2 1.4411425104121596e+00 -1.0193681216558990e-04 1.0000000000000000e+00 1.3752796629213728e+00 1.0000000000000000e+01 1.2994148053776097e+01 
213 214 2 1.4411425104121596e+00 -1.0193695177346762e-04 1.0000000000000000e+00 3.7706469254683541e+00 1.0000000000000000e+01 1.2962446879575719e+01 
214 215 2 1.4411425104121596e+00 -1.0193709693568268e-04 1.0000000000000000e+00 6.0252446872952126e+00 1.0000000000000000e+01 1.3033207429654579e+01 
215 216 2 1.4411425104121596e+00 -1.0193717290181450e-04 1.0000000000000000e+00 8.0370620958967081e+00 1.0000000000000000e+01 1.2917110427220665e+01 
216 217 2 1.4411425104121596e+00 -1.0193724750399840e-04 1.0000000000000000e+00 1.0174394110259973e+01 1.0000000000000000e+01 1.3055314474189354e+01 
217 218 2 1.4411425104121596e+00 -1.0193740003420663e-04 1.0000000000000000e+00 1.2263343105746264e+01 1.0000000000000000e+01 1.2953548414239535e+01 
218 219 2 1.4411425104121596e+00 -1.0193754904292198e-04 1.0000000000000000e+00 1.4308899861070454e+01 1.0000000000000000e+01 1.2980680009771785e+01 
219 220 2 1.4411425104121596e+00 -1.0193767983087592e-04 1.0000000000000000e+00 1.6327030868540351e+01 1.0000000000000000e+01 1.3007442419739096e+01 
220 221 2 1.4411425104121596e+00 -1.0193778893958217e-04 1.0000000000000000e+00 1.8333598663676842e+01 1.0000000000000000e+01 1.2971450435839492e+01 
221 222 2 1.4411425104121596e+00 -1.0193787545199033e-04 1.0000000000000000e+00 2.0340928618125453e+01 1.0000000000000000e+01 1.2992450268790625e+01 
222 223 2 1.4411425104121596e+00 -1.0193797319865138e-04 1.0000000000000000e+00 2.2370513877199290e+01 1.0000000000000000e+01 1.2985222025597038e+01 
223 224 2 1.4411425104121596e+00 -1.0193806421919046e-04 1.0000000000000000e+00 2.4630576266307191e+01 1.0000000000000000e+01 1.2986776067693865e+01 
224 225 2 1.4411425104121596e+00 -1.0193811584637104e-04 1.0000000000000000e+00 2.6795661725652440e+01 1.0000000000000000e+01 1.2986563931862513e+01 
225 226 2 1.4411425104121596e+00 -1.0193811615291984e-04 1.0000000000000000e+00 2.8943309666240186e+01 1.0000000000000000e+01 1.2986577785341034e+01 
226 227 2 1.4411425104121596e+00 -1.0193812397995606e-04 1.0000000000000000e+00 3.1154808489836924e+01 1.0000000000000000e+01 1.2986577289800572e+01 
674 675 2 1.4411425104121596e+00 -1.0193681216558990e-04 1.0000000000000000e+00 1.3752796629213728e+00 1.3000000000000000e+01 1.2994148053776097e+01 