LAMMPS data file via write_data, version 30 Jul 2016, timestep = 600000

2080 atoms
8 atom types

0.0000000000000000e+00 4.0000000000000000e+01 xlo xhi
0.0000000000000000e+00 4.0000000000000000e+01 ylo yhi
0.0000000000000000e+00 1.0000000000000000e+02 zlo zhi

Masses

1 3.896
2 16.08
3 1058.08
4 8.378
5 8.378
6 8.378
7 8.378
8 8.378

Atoms # meso-molecular

1 2 4 2.2559723595316457e+00 9.3786525861112979e-01 4.2000000000000000e+03 0.0000000000000000e+00 0.0000000000000000e+00 2.5000000000000000e+00 
2 2 4 2.2559723595316457e+00 4.4276966379596883e-01 4.2000000000000000e+03 0.0000000000000000e+00 2.0000000000000000e+00 2.5000000000000000e+00 
3 2 4 2.2559723595316457e+00 -8.0897104397172437e-01 4.2000000000000000e+03 0.0000000000000000e+00 4.0000000000000000e+00 2.5000000000000000e+00 
4 2 4 2.2559723595316457e+00 -2.0926838249484687e+00 4.2000000000000000e+03 0.0000000000000000e+00 6.0000000000000000e+00 2.5000000000000000e+00 
21 2 4 2.2559723595316457e+00 1.0741220183961451e+00 4.2000000000000000e+03 2.0000000000000000e+00 0.0000000000000000e+00 2.5000000000000000e+00 
22 2 4 2.2559723595316457e+00 3.9508191443431617e-01 4.2000000000000000e+03 2.0000000000000000e+00 2.0000000000000000e+00 2.5000000000000000e+00 
23 2 4 2.2559723595316457e+00 1.9266309764083067e-01 4.2000000000000000e+03 2.0000000000000000e+00 4.0000000000000000e+00 2.5000000000000000e+00 
24 2 4 2.2559723595316457e+00 8.6564164984660441e-01 4.2000000000000000e+03 2.0000000000000000e+00 6.0000000000000000e+00 2.5000000000000000e+00 
41 2 4 2.2559723595316457e+00 1.5718365041501803e+00 4.2000000000000000e+03 4.0000000000000000e+00 0.0000000000000000e+00 2.5000000000000000e+00 
42 2 4 2.2559723595316457e+00 6.7502517689376607e-01 4.2000000000000000e+03 4.0000000000000000e+00 2.0000000000000000e+00 2.5000000000000000e+00 
43 2 4 2.2559723595316457e+00 9.0749043754307168e-01 4.2000000000000000e+03 4.0000000000000000e+00 4.0000000000000000e+00 2.5000000000000000e+00 
44 2 4 2.2559723595316457e+00 2.2387109934509857e+00 4.2000000000000000e+03 4.0000000000000000e+00 6.0000000000000000e+00 2.5000000000000000e+00 
61 2 4 2.2559723595316457e+00 1.4527270793570133e+00 4.2000000000000000e+03 6.0000000000000000e+00 0.0000000000000000e+00 2.5000000000000000e+00 
62 2 4 2.2559723595316457e+00 9.8898391636966210e-01 4.2000000000000000e+03 6.0000000000000000e+00 2.0000000000000000e+00 2.5000000000000000e+00 
63 2 4 2.2559723595316457e+00 9.4369077643335153e-01 4.2000000000000000e+03 6.0000000000000000e+00 4.0000000000000000e+00 2.5000000000000000e+00 
64 2 4 2.2559723595316457e+00 1.4177096811907797e+00 4.2000000000000000e+03 6.0000000000000000e+00 6.0000000000000000e+00 2.5000000000000000e+00 
81 2 4 2.2559723595316457e+00 1.0429985430578581e+00 4.2000000000000000e+03 8.0000000000000000e+00 0.0000000000000000e+00 2.5000000000000000e+00 
82 2 4 2.2559723595316457e+00 1.0037518200262778e+00 4.2000000000000000e+03 8.0000000000000000e+00 2.0000000000000000e+00 2.5000000000000000e+00 
83 2 4 2.2559723595316457e+00 1.0167556823441166e+00 4.2000000000000000e+03 8.0000000000000000e+00 4.0000000000000000e+00 2.5000000000000000e+00 
84 2 4 2.2559723595316457e+00 1.2220053396625588e+00 4.2000000000000000e+03 8.0000000000000000e+00 6.0000000000000000e+00 2.5000000000000000e+00 
101 2 4 2.2559723595316457e+00 1.0000000000000000e+00 4.2000000000000000e+03 1.0000000000000000e+01 0.0000000000000000e+00 2.5000000000000000e+00 
102 2 4 2.2559723595316457e+00 1.0000025234431007e+00 4.2000000000000000e+03 1.0000000000000000e+01 2.0000000000000000e+00 2.5000000000000000e+00 
103 2 4 2.2559723595316457e+00 -1.2444644970049250e+00 4.2000000000000000e+03 1.0000000000000000e+01 4.0000000000000000e+00 2.5000000000000000e+00 
104 2 4 2.2559723595316457e+00 -1.1541770875895386e+02 4.2000000000000000e+03 1.0000000000000000e+01 6.0000000000000000e+00 2.5000000000000000e+00 
121 2 4 2.2559723595316457e+00 1.0000000000000000e+00 4.2000000000000000e+03 1.2000000000000000e+01 0.0000000000000000e+00 2.5000000000000000e+00 
122 2 4 2.2559723595316457e+00 9.9926007370728231e-01 4.2000000000000000e+03 1.2000000000000000e+01 2.0000000000000000e+00 2.5000000000000000e+00 
123 2 4 2.2559723595316457e+00 -1.1551872234828082e+02 4.2000000000000000e+03 1.2000000000000000e+01 4.0000000000000000e+00 2.5000000000000000e+00 
124 2 4 2.2559723595316457e+00 -9.7011670935433960e+02 4.2000000000000000e+03 1.2000000000000000e+01 6.0000000000000000e+00 2.5000000000000000e+00 
141 2 4 2.2559723595316457e+00 1.0006257526129896e+00 4.2000000000000000e+03 1.4000000000000000e+01 0.0000000000000000e+00 2.5000000000000000e+00 
142 2 4 2.2559723595316457e+00 -6.9808922356209191e+00 4.2000000000000000e+03 1.4000000000000000e+01 2.0000000000000000e+00 2.5000000000000000e+00 
143 2 4 2.2559723595316457e+00 -5.0927563106680600e+02 4.2000000000000000e+03 1.4000000000000000e+01 4.0000000000000000e+00 2.5000000000000000e+00 
144 2 4 2.2559723595316457e+00 -3.0715542094000211e+03 4.2000000000000000e+03 1.4000000000000000e+01 6.0000000000000000e+00 2.5000000000000000e+00 
161 2 4 2.2559723595316457e+00 9.9915140203713992e-01 4.2000000000000000e+03 1.6000000000000000e+01 0.0000000000000000e+00 2.5000000000000000e+00 
162 2 4 2.2559723595316457e+00 -2.6745627139007375e+01 4.2000000000000000e+03 1.6000000000000000e+01 2.0000000000000000e+00 2.5000000000000000e+00 
163 2 4 2.2559723595316457e+00 -1.0762193484963202e+03 4.2000000000000000e+03 1.6000000000000000e+01 4.0000000000000000e+00 2.5000000000000000e+00 
164 2 4 2.2559723595316457e+00 -5.8742549648328550e+03 4.2000000000000000e+03 1.6000000000000000e+01 6.0000000000000000e+00 2.5000000000000000e+00 
181 2 4 2.2559723595316457e+00 9.9904352347852332e-01 4.2000000000000000e+03 1.8000000000000000e+01 0.0000000000000000e+00 2.5000000000000000e+00 
182 2 4 2.2559723595316457e+00 -3.5191037161408161e+01 4.2000000000000000e+03 1.8000000000000000e+01 2.0000000000000000e+00 2.5000000000000000e+00 
183 2 4 2.2559723595316457e+00 -1.4784055359009128e+03 4.2000000000000000e+03 1.8000000000000000e+01 4.0000000000000000e+00 2.5000000000000000e+00 
184 2 4 2.2559723595316457e+00 -7.9455705436027192e+03 4.2000000000000000e+03 1.8000000000000000e+01 6.0000000000000000e+00 2.5000000000000000e+00 
5 2 4 2.2559723595316457e+00 -6.5734788714073367e-01 4.2000000000000000e+03 0.0000000000000000e+00 8.0000000000000000e+00 2.5000000000000000e+00 
6 2 4 2.2559723595316457e+00 2.4504719054735391e+00 4.2000000000000000e+03 0.0000000000000000e+00 1.0000000000000000e+01 2.5000000000000000e+00 
7 2 4 2.2559723595316457e+00 2.8136226912150462e+00 4.2000000000000000e+03 0.0000000000000000e+00 1.2000000000000000e+01 2.5000000000000000e+00 
25 2 4 2.2559723595316457e+00 1.7589591013697636e+00 4.2000000000000000e+03 2.0000000000000000e+00 8.0000000000000000e+00 2.5000000000000000e+00 
26 2 4 2.2559723595316457e+00 2.0384430296348190e+00 4.2000000000000000e+03 2.0000000000000000e+00 1.0000000000000000e+01 2.5000000000000000e+00 
27 2 4 2.2559723595316457e+00 1.5626442080576224e+00 4.2000000000000000e+03 2.0000000000000000e+00 1.2000000000000000e+01 2.5000000000000000e+00 
45 2 4 2.2559723595316457e+00 2.4627874584612783e+00 4.2000000000000000e+03 4.0000000000000000e+00 8.0000000000000000e+00 2.5000000000000000e+00 
46 2 4 2.2559723595316457e+00 1.1451314212983901e+00 4.2000000000000000e+03 4.0000000000000000e+00 1.0000000000000000e+01 2.5000000000000000e+00 
47 2 4 2.2559723595316457e+00 9.3164966714638409e-01 4.2000000000000000e+03 4.0000000000000000e+00 1.2000000000000000e+01 2.5000000000000000e+00 
65 2 4 2.2559723595316457e+00 1.1803423358995744e+00 4.2000000000000000e+03 6.0000000000000000e+00 8.0000000000000000e+00 2.5000000000000000e+00 
66 2 4 2.2559723595316457e+00 5.2496594971903077e-01 4.2000000000000000e+03 6.0000000000000000e+00 1.0000000000000000e+01 2.5000000000000000e+00 
67 2 4 2.2559723595316457e+00 1.0194407040487325e+00 4.2000000000000000e+03 6.0000000000000000e+00 1.2000000000000000e+01 2.5000000000000000e+00 
85 2 4 2.2559723595316457e+00 -6.6230255854524440e+00 4.2000000000000000e+03 8.0000000000000000e+00 8.0000000000000000e+00 2.5000000000000000e+00 
86 2 4 2.2559723595316457e+00 -2.6356576197497922e+01 4.2000000000000000e+03 8.0000000000000000e+00 1.0000000000000000e+01 2.5000000000000000e+00 
87 2 4 2.2559723595316457e+00 -3.5332481151523204e+01 4.2000000000000000e+03 8.0000000000000000e+00 1.2000000000000000e+01 2.5000000000000000e+00 
105 2 4 2.2559723595316457e+00 -5.0935403864941645e+02 4.2000000000000000e+03 1.0000000000000000e+01 8.0000000000000000e+00 2.5000000000000000e+00 
106 2 4 2.2559723595316457e+00 -1.0776887674672930e+03 4.2000000000000000e+03 1.0000000000000000e+01 1.0000000000000000e+01 2.5000000000000000e+00 
107 2 4 2.2559723595316457e+00 -1.4877432614311701e+03 4.2000000000000000e+03 1.0000000000000000e+01 1.2000000000000000e+01 2.5000000000000000e+00 
125 2 4 2.2559723595316457e+00 -3.0729802845417380e+03 4.2000000000000000e+03 1.2000000000000000e+01 8.0000000000000000e+00 2.5000000000000000e+00 
126 2 4 2.2559723595316457e+00 -5.8815985887512797e+03 4.2000000000000000e+03 1.2000000000000000e+01 1.0000000000000000e+01 2.5000000000000000e+00 
127 2 4 2.2559723595316457e+00 -8.0965913485675101e+03 4.2000000000000000e+03 1.2000000000000000e+01 1.2000000000000000e+01 2.5000000000000000e+00 
145 2 4 2.2559723595316457e+00 -8.7659320341513812e+03 4.2000000000000000e+03 1.4000000000000000e+01 8.0000000000000000e+00 2.5000000000000000e+00 
146 2 4 2.2559723595316457e+00 -1.6327395550287081e+04 4.2000000000000000e+03 1.4000000000000000e+01 1.0000000000000000e+01 2.5000000000000000e+00 
147 2 4 2.2559723595316457e+00 -2.2622439928487052e+04 4.2000000000000000e+03 1.4000000000000000e+01 1.2000000000000000e+01 2.5000000000000000e+00 
165 2 4 2.2559723595316457e+00 -1.6307910131826246e+04 4.2000000000000000e+03 1.6000000000000000e+01 8.0000000000000000e+00 2.5000000000000000e+00 
166 2 4 2.2559723595316457e+00 -3.0450245886832159e+04 4.2000000000000000e+03 1.6000000000000000e+01 1.0000000000000000e+01 2.5000000000000000e+00 
167 2 4 2.2559723595316457e+00 -4.2744592781353684e+04 4.2000000000000000e+03 1.6000000000000000e+01 1.2000000000000000e+01 2.5000000000000000e+00 
185 2 4 2.2559723595316457e+00 -2.1977609995571511e+04 4.2000000000000000e+03 1.8000000000000000e+01 8.0000000000000000e+00 2.5000000000000000e+00 
186 2 4 2.2559723595316457e+00 -4.1327147574921983e+04 4.2000000000000000e+03 1.8000000000000000e+01 1.0000000000000000e+01 2.5000000000000000e+00 
187 2 4 2.2559723595316457e+00 -5.8603197817282133e+04 4.2000000000000000e+03 1.8000000000000000e+01 1.2000000000000000e+01 2.5000000000000000e+00 
8 2 4 2.2559723595316457e+00 1.5244516387061822e+00 4.2000000000000000e+03 0.0000000000000000e+00 1.4000000000000000e+01 2.5000000000000000e+00 
9 2 4 2.2559723595316457e+00 3.2290706815723202e-01 4.2000000000000000e+03 0.0000000000000000e+00 1.6000000000000000e+01 2.5000000000000000e+00 
10 2 4 2.2559723595316457e+00 7.3550167332515937e-01 4.2000000000000000e+03 0.0000000000000000e+00 1.8000000000000000e+01 2.5000000000000000e+00 
28 2 4 2.2559723595316457e+00 9.3493828974679449e-01 4.2000000000000000e+03 2.0000000000000000e+00 1.4000000000000000e+01 2.5000000000000000e+00 
29 2 4 2.2559723595316457e+00 7.4383440503380505e-01 4.2000000000000000e+03 2.0000000000000000e+00 1.6000000000000000e+01 2.5000000000000000e+00 
30 2 4 2.2559723595316457e+00 1.5049648046131523e+00 4.2000000000000000e+03 2.0000000000000000e+00 1.8000000000000000e+01 2.5000000000000000e+00 
48 2 4 2.2559723595316457e+00 1.5226271880604534e+00 4.2000000000000000e+03 4.0000000000000000e+00 1.4000000000000000e+01 2.5000000000000000e+00 
49 2 4 2.2559723595316457e+00 2.0400911097207315e+00 4.2000000000000000e+03 4.0000000000000000e+00 1.6000000000000000e+01 2.5000000000000000e+00 
50 2 4 2.2559723595316457e+00 1.7172778720868922e+00 4.2000000000000000e+03 4.0000000000000000e+00 1.8000000000000000e+01 2.5000000000000000e+00 
68 2 4 2.2559723595316457e+00 1.1554084277325516e+00 4.2000000000000000e+03 6.0000000000000000e+00 1.4000000000000000e+01 2.5000000000000000e+00 
69 2 4 2.2559723595316457e+00 1.3399452383504342e+00 4.2000000000000000e+03 6.0000000000000000e+00 1.6000000000000000e+01 2.5000000000000000e+00 
70 2 4 2.2559723595316457e+00 5.1318707819156684e-01 4.2000000000000000e+03 6.0000000000000000e+00 1.8000000000000000e+01 2.5000000000000000e+00 
88 2 4 2.2559723595316457e+00 -3.6736098017420417e+01 4.2000000000000000e+03 8.0000000000000000e+00 1.4000000000000000e+01 2.5000000000000000e+00 
89 2 4 2.2559723595316457e+00 -3.7178782091753497e+01 4.2000000000000000e+03 8.0000000000000000e+00 1.6000000000000000e+01 2.5000000000000000e+00 
90 2 4 2.2559723595316457e+00 -3.7159896092802647e+01 4.2000000000000000e+03 8.0000000000000000e+00 1.8000000000000000e+01 2.5000000000000000e+00 
108 2 4 2.2559723595316457e+00 -1.6166480801077414e+03 4.2000000000000000e+03 1.0000000000000000e+01 1.4000000000000000e+01 2.5000000000000000e+00 
109 2 4 2.2559723595316457e+00 -1.6238684150119220e+03 4.2000000000000000e+03 1.0000000000000000e+01 1.6000000000000000e+01 2.5000000000000000e+00 
110 2 4 2.2559723595316457e+00 -1.6251216014765835e+03 4.2000000000000000e+03 1.0000000000000000e+01 1.8000000000000000e+01 2.5000000000000000e+00 
128 2 4 2.2559723595316457e+00 -9.0444200861211975e+03 4.2000000000000000e+03 1.2000000000000000e+01 1.4000000000000000e+01 2.5000000000000000e+00 
129 2 4 2.2559723595316457e+00 -9.1915216948051548e+03 4.2000000000000000e+03 1.2000000000000000e+01 1.6000000000000000e+01 2.5000000000000000e+00 
130 2 4 2.2559723595316457e+00 -9.1932244212796013e+03 4.2000000000000000e+03 1.2000000000000000e+01 1.8000000000000000e+01 2.5000000000000000e+00 
148 2 4 2.2559723595316457e+00 -2.5672300971743916e+04 4.2000000000000000e+03 1.4000000000000000e+01 1.4000000000000000e+01 2.5000000000000000e+00 
149 2 4 2.2559723595316457e+00 -2.6314591683383871e+04 4.2000000000000000e+03 1.4000000000000000e+01 1.6000000000000000e+01 2.5000000000000000e+00 
150 2 4 2.2559723595316457e+00 -2.6325176720203737e+04 4.2000000000000000e+03 1.4000000000000000e+01 1.8000000000000000e+01 2.5000000000000000e+00 
168 2 4 2.2559723595316457e+00 -4.9073285858199859e+04 4.2000000000000000e+03 1.6000000000000000e+01 1.4000000000000000e+01 2.5000000000000000e+00 
169 2 4 2.2559723595316457e+00 -5.0572345015179286e+04 4.2000000000000000e+03 1.6000000000000000e+01 1.6000000000000000e+01 2.5000000000000000e+00 
170 2 4 2.2559723595316457e+00 -5.0624455281430215e+04 4.2000000000000000e+03 1.6000000000000000e+01 1.8000000000000000e+01 2.5000000000000000e+00 
188 2 4 2.2559723595316457e+00 -6.7758126612678752e+04 4.2000000000000000e+03 1.8000000000000000e+01 1.4000000000000000e+01 2.5000000000000000e+00 
189 2 4 2.2559723595316457e+00 -6.9995452064898651e+04 4.2000000000000000e+03 1.8000000000000000e+01 1.6000000000000000e+01 2.5000000000000000e+00 
190 2 4 2.2559723595316457e+00 -7.0086056504155844e+04 4.2000000000000000e+03 1.8000000000000000e+01 1.8000000000000000e+01 2.5000000000000000e+00 
990 592 2 1.0279725724909734e+00 1.1314668085294898e+03 4.2000000000000000e+03 6.5070498702916808e+00 2.9110550191697789e-02 5.3893933624569101e+01 
1669 1271 2 1.0279437477104656e+00 1.2217893537925145e+04 4.2000000000000000e+03 6.2849410811027244e+00 1.0821559995525531e-02 5.3951960586154406e+01 
1494 1096 2 1.0279502662771960e+00 1.1069924871503736e+03 4.2000000000000000e+03 6.4207058995507067e+00 7.9498862768182521e-01 5.4293781000086931e+01 
1835 1437 2 1.0282916271232483e+00 -1.2559541738331950e+03 4.2000000000000000e+03 4.7623892969935078e+00 8.4631085365661676e-02 5.5235970280451554e+01 
831 433 2 1.0280821784690177e+00 -1.2593585759299920e+04 4.2000000000000000e+03 6.5658692411964834e+00 2.0324362663094573e+00 5.7241400643649676e+01 
418 20 2 1.0281152992233613e+00 1.6779574893949786e+04 4.2000000000000000e+03 1.0624749814778094e+00 5.6011225207612270e-01 5.9689322975162774e+01 
1801 1403 2 1.0281219945262865e+00 4.6941863303360715e+03 4.2000000000000000e+03 9.9386480586324022e-01 8.7358599194644782e-01 5.9883276553628953e+01 
917 519 2 1.0279660864596989e+00 1.7591210260387503e+04 4.2000000000000000e+03 6.7259427464163348e+00 1.2859122095491785e-01 5.3885768873767098e+01 
2016 1618 2 1.0279775686464849e+00 6.2621247519862000e+03 4.2000000000000000e+03 6.8386399530090287e+00 2.1491191265523193e-01 5.3906705229651202e+01 
689 291 2 1.0279652137496138e+00 5.1427126740795329e+03 4.2000000000000000e+03 7.2350696764374280e+00 4.3334058841857599e-02 5.3906748830204606e+01 
1600 1202 2 1.0279843700046636e+00 3.0881806178657007e+03 4.2000000000000000e+03 7.2006000621264681e+00 1.9513037794959129e-01 5.3939412126434718e+01 
487 89 2 1.0279776624710528e+00 1.5360886513293553e+04 4.2000000000000000e+03 7.0103791696726887e+00 3.9907402638169770e-01 5.3987569205960753e+01 
540 142 2 1.0279550609243222e+00 7.9451308301438103e+03 4.2000000000000000e+03 6.9138053985664731e+00 4.8584437195475433e-01 5.4023670145747715e+01 
2032 1634 2 1.0279719482104366e+00 1.5464038508732257e+04 4.2000000000000000e+03 6.8585359339188230e+00 6.6251290689748787e-01 5.4129721697420528e+01 
1124 726 2 1.0280763560134583e+00 -8.3624889910400288e+03 4.2000000000000000e+03 7.3228219056785688e+00 1.9420299493035320e+00 5.7867036836819807e+01 
1032 634 2 1.0280387132256399e+00 -8.9868312809195722e+03 4.2000000000000000e+03 7.5158747577935241e+00 1.8682870636291971e+00 5.7920820213115285e+01 
880 482 2 1.0280181553932821e+00 2.0605878476438997e+04 4.2000000000000000e+03 7.6691202751505561e+00 1.7944752162361699e+00 5.7924597019141338e+01 
1856 1458 2 1.0280691455708908e+00 -9.0606010984501900e+03 4.2000000000000000e+03 7.6822362536708644e+00 1.8245542042656431e+00 5.8414479864443521e+01 
613 215 2 1.0280871148153541e+00 1.0978996835284812e+04 4.2000000000000000e+03 7.8085663153558089e+00 1.7694805309847232e+00 5.8612916313526085e+01 
1934 1536 2 1.0280879247648786e+00 1.1556117858887237e+04 4.2000000000000000e+03 7.5208898971537508e+00 1.9274815851157965e+00 5.8645187691651344e+01 
610 212 2 1.0280734407303065e+00 4.4907951478836285e+03 4.2000000000000000e+03 8.5200218695098133e+00 1.1904164347963073e+00 5.8807880601304014e+01 
1417 1019 2 1.0281262695566526e+00 1.0276210738742766e+04 4.2000000000000000e+03 7.1635020993175464e+00 2.1597302757664640e+00 5.9299399204007308e+01 
1053 655 2 1.0280985673719067e+00 5.5859709572414868e+04 4.2000000000000000e+03 7.9363086709167368e+00 1.7837710115017451e+00 5.9373549037948429e+01 
1795 1397 2 1.0281117357132545e+00 -2.3244712764772609e+02 4.2000000000000000e+03 8.0483982587902716e+00 1.7137786404128066e+00 5.9427808411721877e+01 
1797 1399 2 1.0280052108133575e+00 9.1666632151035737e+03 4.2000000000000000e+03 1.7897471596875853e+01 1.8656806584462370e+01 5.9140622716039182e+01 
1800 1402 2 1.0280041734834917e+00 9.1706295282129595e+03 4.2000000000000000e+03 1.7816627813566271e+01 1.8496407545026702e+01 5.9166307063281003e+01 
773 375 2 1.0279717577174652e+00 4.4845227674531634e+03 4.2000000000000000e+03 1.8384830376471744e+01 1.9586765358619882e+01 5.9317440710388631e+01 
1673 1275 2 1.0280030917720537e+00 -4.8363524602097432e+03 4.2000000000000000e+03 1.7422636220784355e+01 1.7967033706237956e+01 5.9435997508889677e+01 
1481 1083 2 1.0281308016021291e+00 1.9654475020623520e+03 4.2000000000000000e+03 1.4799682009731150e+00 1.3488173660735141e+00 6.0130007144271474e+01 
1160 762 2 1.0281131900495393e+00 -8.8050958517004838e+03 4.2000000000000000e+03 6.9276797108489097e-01 1.8599949152483886e+00 6.0551922703185497e+01 
1045 647 2 1.0281318115567133e+00 1.9353546860623039e+04 4.2000000000000000e+03 3.6295766555237035e+00 2.4807997650942815e+00 6.0709333993643973e+01 
1171 773 2 1.0281320987085629e+00 -7.4209178068997844e+03 4.2000000000000000e+03 4.2474353018366298e+00 2.6423988532953486e+00 6.0761801254113806e+01 
996 598 2 1.0281214083252459e+00 -1.5492343925925661e+04 4.2000000000000000e+03 1.7672665877939011e+00 2.6513993863793801e+00 6.1178797754013424e+01 
1850 1452 2 1.0280931871304151e+00 -1.3516957430992661e+04 4.2000000000000000e+03 1.7461552578338371e+00 3.0079395886691995e+00 6.1423063939867411e+01 
1401 1003 2 1.0281154161187755e+00 -2.9128281773192011e+04 4.2000000000000000e+03 2.2465049795841603e+00 3.0128536519215423e+00 6.1493756828974263e+01 
426 28 2 1.0280443893761446e+00 1.4965728977826369e+04 4.2000000000000000e+03 1.5339171228561177e-01 3.2733072944935069e+00 6.1613291133482846e+01 
1953 1555 2 1.0280806759691821e+00 1.9790424246009137e+04 4.2000000000000000e+03 8.6234929301216345e-01 2.2422215720118044e+00 6.1705962612841226e+01 
1227 829 2 1.0280947934903866e+00 8.0844851250329712e+03 4.2000000000000000e+03 2.3230000527817842e+00 3.3140582979785225e+00 6.1693900659671456e+01 
1634 1236 2 1.0280916849762072e+00 -5.0899804604059864e+03 4.2000000000000000e+03 2.4675681832816529e+00 3.4914340441262284e+00 6.1828836802264455e+01 
1484 1086 2 1.0280808848021166e+00 1.9194879212463970e+03 4.2000000000000000e+03 2.9061185967978616e+00 3.7405819494103358e+00 6.2097194357135422e+01 
912 514 2 1.0280850968530226e+00 5.9181772432526341e+03 4.2000000000000000e+03 6.2095434783203300e+00 3.9599408134445238e+00 6.2184004427579502e+01 
1212 814 2 1.0280329995119473e+00 -1.7816005247291647e+04 4.2000000000000000e+03 3.4316614107560928e+00 4.3722670126975887e+00 6.2630651258585480e+01 
2023 1625 2 1.0280549475309848e+00 1.8302919491265915e+04 4.2000000000000000e+03 3.4344081336240850e+00 4.9700063265945893e+00 6.3010509438755463e+01 
874 476 2 1.0280046996816488e+00 -1.7807642079223967e+03 4.2000000000000000e+03 5.2001035136865310e+00 4.7802959519746926e+00 6.2963026538859495e+01 
2065 1667 2 1.0280261227535956e+00 1.0496711184793443e+04 4.2000000000000000e+03 5.8252394069048981e+00 4.7817178756534311e+00 6.2982731475400165e+01 
1880 1482 2 1.0280941933135037e+00 1.8869787216594665e+04 4.2000000000000000e+03 4.0173732410738516e+00 4.6333790795083321e+00 6.3116691398509282e+01 
1751 1353 2 1.0280230951968419e+00 -1.3744538865026596e+04 4.2000000000000000e+03 1.1748368079183544e-01 5.9117641862898189e+00 6.3295697366572462e+01 
1293 895 2 1.0280383808957612e+00 -6.8259830997904073e+03 4.2000000000000000e+03 2.8945234403144644e+00 5.7022978714919503e+00 6.3339903640375937e+01 
1177 779 2 1.0280184689392196e+00 -1.2744681582727646e+04 4.2000000000000000e+03 3.7577219551604331e+00 5.6237746877796448e+00 6.3497777955340055e+01 
1217 819 2 1.0280195009746000e+00 2.4423891273870615e+02 4.2000000000000000e+03 6.3602380894557271e+00 5.4027589527415021e+00 6.3924190113891058e+01 
865 467 2 1.0280323661929458e+00 1.0374796383857016e+04 4.2000000000000000e+03 7.5836372233102134e-01 5.5030478168608576e+00 6.4286440956262197e+01 
1580 1182 2 1.0279797036697651e+00 -7.5666970652631380e+03 4.2000000000000000e+03 5.9643828515200008e+00 6.4057573662374425e+00 6.4658665170677708e+01 
1683 1285 2 1.0281683032368341e+00 -5.6301233364481041e+03 4.2000000000000000e+03 1.0203998291219232e+01 4.0503353769303816e+00 6.4281619456185169e+01 
999 601 2 1.0281441011479144e+00 -1.1922155515799233e+04 4.2000000000000000e+03 8.0479126681499302e+00 3.0974883982184487e+00 6.1884429339703381e+01 
1876 1478 2 1.0281408076450951e+00 2.7623698148726693e+04 4.2000000000000000e+03 8.7691754146870267e+00 3.4959948452552698e+00 6.2655923056156105e+01 
1747 1349 2 1.0280999496437362e+00 2.8966137074371160e+04 4.2000000000000000e+03 6.9101294063875542e+00 3.1664887849402339e+00 6.2822121996765937e+01 
1214 816 2 1.0282783304640026e+00 -2.2541882292113012e+04 4.2000000000000000e+03 1.0794472465902508e+01 2.6858908726994160e+00 6.2969638002720423e+01 
1685 1287 2 1.0282048848586716e+00 2.9393627769825193e+03 4.2000000000000000e+03 9.9763122717524642e+00 3.1646710746205908e+00 6.3003969239840764e+01 
1653 1255 2 1.0282207881049126e+00 8.6037285251863577e+03 4.2000000000000000e+03 1.0029610213908104e+01 3.3926321053826975e+00 6.3297719535249378e+01 
1201 803 2 1.0283622295072428e+00 -2.5759073703642393e+04 4.2000000000000000e+03 1.2924086904692532e+01 2.1872809893488045e+00 6.3575705255461457e+01 
730 332 2 1.0282381320789067e+00 7.1659985707995347e+03 4.2000000000000000e+03 1.0870427082759475e+01 3.3289363038130380e+00 6.3602917629752064e+01 
605 207 2 1.0281468375639191e+00 1.9334422330077447e+04 4.2000000000000000e+03 9.7248787319056351e+00 3.9314051393910043e+00 6.4078071826270417e+01 
708 310 2 1.0281665551161729e+00 9.0060154246707625e+03 4.2000000000000000e+03 1.0062276373560090e+01 4.0734487309605187e+00 6.4328930785480765e+01 
472 74 2 1.0281670615439016e+00 1.5084776924706202e+04 4.2000000000000000e+03 9.8826175886957444e+00 3.9559358553091708e+00 6.4398452142330783e+01 
480 82 2 1.0282607459804234e+00 1.4904131314695023e+04 4.2000000000000000e+03 1.1752146386269631e+01 4.0320776252353845e+00 6.4479221620488715e+01 
1096 698 2 1.0281597247820093e+00 2.2055531204362592e+03 4.2000000000000000e+03 1.0087949387767855e+01 4.2717993215500156e+00 6.4575279621276749e+01 
1966 1568 2 1.0283718271356179e+00 1.0855807528872507e+04 4.2000000000000000e+03 1.1939093745159221e+01 1.9403885942405008e+00 6.4642627137016930e+01 
1610 1212 2 1.0281295244494968e+00 -1.6680021378646317e+04 4.2000000000000000e+03 9.9576329353306754e+00 4.3667559257960518e+00 6.4791329222438918e+01 
572 174 2 1.0279870067014392e+00 2.4238357817997007e+02 4.2000000000000000e+03 7.2051683667967970e+00 5.8402927293956859e+00 6.4908917285000015e+01 
810 412 2 1.0280603939125410e+00 -1.5548047862151157e+04 4.2000000000000000e+03 7.5121343287103928e+00 5.6911789890107283e+00 6.5112235001818945e+01 
1254 856 2 1.0279697940016115e+00 -1.7327535997032181e+04 4.2000000000000000e+03 6.9574423300910802e+00 6.5693768253847749e+00 6.5163339365818317e+01 
427 29 2 1.0281768973201373e+00 1.4771243296377443e+04 4.2000000000000000e+03 9.8355377186761253e+00 4.5830408096825828e+00 6.5261667910176016e+01 
552 154 2 1.0280677390758264e+00 1.7276287127325904e+04 4.2000000000000000e+03 8.6895000562588081e+00 5.3769592482203494e+00 6.5298755199375506e+01 
1516 1118 2 1.0280102309896357e+00 -1.0119009151523807e+04 4.2000000000000000e+03 7.0439792296212627e+00 5.8741316032151571e+00 6.5697241298970610e+01 
1842 1444 2 1.0283266645608766e+00 -1.6794706008293146e+04 4.2000000000000000e+03 1.4838242076420057e+01 1.4252304531041864e+00 6.3966455003958060e+01 
1407 1009 2 1.0281374017081037e+00 -3.8443581073404416e+03 4.2000000000000000e+03 1.9236486096822301e+01 2.1408879988910128e+00 6.4785855293079663e+01 
2079 1681 2 1.0282126859166842e+00 -1.9615866475575083e+03 4.2000000000000000e+03 1.6695459789712746e+01 2.6162383278503154e+00 6.4799653953233559e+01 
1771 1373 2 1.0283101105449106e+00 -4.4150008696888799e+03 4.2000000000000000e+03 1.4197331712791454e+01 3.6377750151494070e+00 6.4895573849308192e+01 
477 79 2 1.0281084333465882e+00 1.4914580816352243e+04 4.2000000000000000e+03 1.8597741273097341e+01 4.3891077338467115e+00 6.5470621689004830e+01 
1434 1036 2 1.0280921326364265e+00 -9.4618622696942384e+03 4.2000000000000000e+03 1.9793689649962573e+01 1.9094244745738622e+00 6.5510869515121058e+01 
848 450 2 1.0281996754961316e+00 3.0686828266010011e+03 4.2000000000000000e+03 1.6943782000447950e+01 3.1803222746796127e+00 6.5526866858387592e+01 
1406 1008 2 1.0282180550916125e+00 -3.9501343833606074e+03 4.2000000000000000e+03 1.5128817607021986e+01 4.7669520717257914e+00 6.5517787607923466e+01 
898 500 2 1.0282264245265180e+00 8.1048001583067833e+02 4.2000000000000000e+03 1.5204993090256977e+01 4.7344643597187286e+00 6.5519925654942483e+01 
2058 1660 2 1.0281534959068896e+00 1.0410841765708141e+04 4.2000000000000000e+03 1.7849439126158011e+01 4.5797454853798225e+00 6.5558251587089785e+01 
660 262 2 1.0281134943805643e+00 1.7193476394009676e+03 4.2000000000000000e+03 1.9899475063752092e+01 2.9595573600491805e+00 6.5666498440041352e+01 
1426 1028 2 1.0281059605197054e+00 -1.6207827964443370e+04 4.2000000000000000e+03 1.8875122414364718e+01 5.9602497804475103e+00 6.5703380544211612e+01 
1358 960 2 1.0282002705200275e+00 -3.1013918272256011e+04 4.2000000000000000e+03 1.4852731552996303e+01 5.8185948453692617e+00 6.5799689890078739e+01 
2059 1661 2 1.0281409142529685e+00 1.0365769401828522e+04 4.2000000000000000e+03 1.9254487401905291e+01 3.6961018560180099e+00 6.5864181301026107e+01 
841 443 2 1.0282157157783065e+00 9.0314697943478368e+03 4.2000000000000000e+03 1.5708939726503161e+01 4.0657988865457355e+00 6.5894779281269365e+01 
1832 1434 2 1.0281969682540102e+00 -1.4125490801983258e+03 4.2000000000000000e+03 1.5750830915652744e+01 4.1432211725239210e+00 6.5943812923688114e+01 
1526 1128 2 1.0282298748868832e+00 -1.2253277451967431e+04 4.2000000000000000e+03 1.5581372758506081e+01 4.1210939570621479e+00 6.5962362324860763e+01 
1102 704 2 1.0282255514850160e+00 -3.4173070449863822e+04 4.2000000000000000e+03 1.5653427446858036e+01 4.1952341179747812e+00 6.6001673542096526e+01 
852 454 2 1.0282379968796156e+00 8.3509280871326100e+03 4.2000000000000000e+03 1.5484736493539360e+01 4.1607659916393542e+00 6.6013074734690250e+01 
1030 632 2 1.0281911547748404e+00 -2.3039970204049609e+03 4.2000000000000000e+03 1.5540181566828991e+01 4.3354316505279336e+00 6.6135551660707293e+01 
1427 1029 2 1.0281265640826254e+00 -1.6223539581232826e+04 4.2000000000000000e+03 1.9749626868802853e+01 5.9548019146338236e+00 6.6564026851687743e+01 
1591 1193 2 1.0279708992119134e+00 2.3552099039500354e+03 4.2000000000000000e+03 1.5199559840307488e+00 7.4881416941380463e+00 6.4395022147958542e+01 
887 489 2 1.0279796847738616e+00 -1.8667277157124805e+04 4.2000000000000000e+03 3.4382327509636732e+00 7.6948264693598656e+00 6.4670425594838150e+01 
1349 951 2 1.0279524553663748e+00 -9.6079614751153003e+03 4.2000000000000000e+03 3.5554828862869630e+00 7.7533788301836415e+00 6.4723929790827697e+01 
1107 709 2 1.0278585895792320e+00 -6.7585722612655309e+03 4.2000000000000000e+03 4.4336092817723188e-01 1.2139669008769610e+01 6.5384959259375592e+01 