LAMMPS data file via write_data, version 30 Jul 2016, timestep = 50000000

180 atoms
2 atom types

0.0000000000000000e+00 2.0000000000000000e+01 xlo xhi
0.0000000000000000e+00 2.0000000000000000e+01 ylo yhi
0.0000000000000000e+00 2.0000000000000000e+01 zlo zhi

Masses

1 3.896
2 4.31

Atoms # meso-molecular

133 1 2 1.0279999659868002e+00 -2.1080948525774332e+02 1.0000000000000000e+00 5.2036745084025631e+00 1.8517322700458614e+01 1.7754041435740998e+01 
164 1 2 1.0279999659868002e+00 -1.9413710478624716e+02 1.0000000000000000e+00 5.2036745084025631e+00 1.8517322700458614e+01 1.7754041435740998e+01 
169 1 2 1.0279999659868002e+00 -2.5227795563550347e+02 1.0000000000000000e+00 5.2036745084025631e+00 1.8517322700458614e+01 1.7754041435740998e+01 
128 1 2 1.0279999659868002e+00 -2.1390234191848376e+02 1.0000000000000000e+00 5.2036745084025631e+00 1.8517322700458614e+01 1.7754041435740998e+01 
163 1 2 1.0279999659868002e+00 -1.8031116701385022e+02 1.0000000000000000e+00 5.2036745084025631e+00 1.8517322700458614e+01 1.7754041435740998e+01 
127 1 2 1.0279999659868002e+00 -1.9539511921321588e+02 1.0000000000000000e+00 5.2036745084025631e+00 1.8517322700458614e+01 1.7754041435740998e+01 
32 1 2 1.0279999571257101e+00 -2.1204104412251689e+02 1.0000000000000000e+00 9.0780759193617744e+00 2.7271613090386575e+00 1.0457115967190391e+00 
33 1 2 1.0279999571259095e+00 -1.6376034991841414e+02 1.0000000000000000e+00 9.0780711183829066e+00 2.7271579828292905e+00 1.0457104969846682e+00 
27 1 2 1.0279999571258809e+00 -1.5536109490440018e+02 1.0000000000000000e+00 9.0780718069189561e+00 2.7271584598577738e+00 1.0457106547135564e+00 
139 1 2 1.0280000773263078e+00 -2.1463343677514098e+02 1.0000000000000000e+00 8.9245113010936947e+00 2.2290747333219683e+00 5.4495254502382429e-01 
145 1 2 1.0280000773263072e+00 -1.5943664605082685e+02 1.0000000000000000e+00 8.9245113010935277e+00 2.2290747333218914e+00 5.4495254502412238e-01 
109 1 2 1.0280000773263072e+00 -2.4440816286980501e+02 1.0000000000000000e+00 8.9245113010938351e+00 2.2290747333219478e+00 5.4495254502362200e-01 
175 1 2 1.0280000773263072e+00 -2.3537433248306218e+02 1.0000000000000000e+00 8.9245113010937178e+00 2.2290747333220158e+00 5.4495254502375989e-01 
168 1 2 1.0280000221718064e+00 -2.4653439927021816e+02 1.0000000000000000e+00 1.1017863123580231e+01 8.0711268521904700e-01 2.6180657411079098e+00 
167 1 2 1.0280000221718064e+00 -2.5787514355182310e+02 1.0000000000000000e+00 1.1017863123580231e+01 8.0711268521904700e-01 2.6180657411079098e+00 
173 1 2 1.0280000221718064e+00 -1.9199822408967378e+02 1.0000000000000000e+00 1.1017863123580231e+01 8.0711268521904700e-01 2.6180657411079098e+00 
96 1 2 1.0280000221718064e+00 -1.5127327348545316e+02 1.0000000000000000e+00 1.1017863123580231e+01 8.0711268521904700e-01 2.6180657411079098e+00 
131 1 2 1.0280000221718064e+00 -2.7743006446339945e+02 1.0000000000000000e+00 1.1017863123580231e+01 8.0711268521904700e-01 2.6180657411079098e+00 
132 1 2 1.0280000221718064e+00 -1.4277997722003101e+02 1.0000000000000000e+00 1.1017863123580231e+01 8.0711268521904700e-01 2.6180657411079098e+00 
3 1 2 1.0279999732887586e+00 -2.1517310146456674e+02 1.0000000000000000e+00 1.1595299944119036e+01 2.2310158891041469e+00 5.3198831477913011e-01 
38 1 2 1.0279999732887577e+00 -1.6754414105608402e+02 1.0000000000000000e+00 1.1595299944119020e+01 2.2310158891041372e+00 5.3198831477914044e-01 
50 1 2 1.0279999732887581e+00 -2.1180809379105156e+02 1.0000000000000000e+00 1.1595299944118503e+01 2.2310158891039515e+00 5.3198831477937891e-01 
39 1 2 1.0279999732887577e+00 -1.6096858963300019e+02 1.0000000000000000e+00 1.1595299944119020e+01 2.2310158891041372e+00 5.3198831477914044e-01 
170 1 2 1.0279999803813966e+00 -2.4654580651225544e+02 1.0000000000000000e+00 9.9060381958551371e+00 2.7338947626727697e+00 4.5129674716570864e+00 
176 1 2 1.0279999803813971e+00 -2.3725140549378588e+02 1.0000000000000000e+00 9.9060381958552259e+00 2.7338947626728749e+00 4.5129674716570927e+00 
165 1 2 1.0279999803813966e+00 -2.0635368480696545e+02 1.0000000000000000e+00 9.9060381958551371e+00 2.7338947626727697e+00 4.5129674716570864e+00 
171 1 2 1.0279999803813966e+00 -2.1541104319391334e+02 1.0000000000000000e+00 9.9060381958551371e+00 2.7338947626727697e+00 4.5129674716570864e+00 
48 1 2 1.0280000173243085e+00 -2.3099068170318782e+02 1.0000000000000000e+00 6.6794143772029919e+00 1.9016424734484942e+00 4.6605329506380837e+00 
41 1 2 1.0280000173243085e+00 -2.5024536109314232e+02 1.0000000000000000e+00 6.6794143772029919e+00 1.9016424734484942e+00 4.6605329506380837e+00 
42 1 2 1.0280000173243085e+00 -1.9538099373151837e+02 1.0000000000000000e+00 6.6794143772029919e+00 1.9016424734484942e+00 4.6605329506380837e+00 
47 1 2 1.0280000173243085e+00 -2.4280847880865878e+02 1.0000000000000000e+00 6.6794143772029919e+00 1.9016424734484942e+00 4.6605329506380837e+00 
77 1 2 1.0280000173243085e+00 -2.5703877392810625e+02 1.0000000000000000e+00 6.6794143772029919e+00 1.9016424734484942e+00 4.6605329506380837e+00 
83 1 2 1.0280000173243085e+00 -2.3555881119307807e+02 1.0000000000000000e+00 6.6794143772029919e+00 1.9016424734484942e+00 4.6605329506380837e+00 
78 1 2 1.0280000173243085e+00 -2.2094957207050075e+02 1.0000000000000000e+00 6.6794143772029919e+00 1.9016424734484942e+00 4.6605329506380837e+00 
144 1 2 1.0280000153639091e+00 -1.8421708425066882e+02 1.0000000000000000e+00 1.0309354455188835e+01 3.2701983673951061e+00 5.4271529286836140e+00 
108 1 2 1.0280000174045982e+00 -1.8761390398664733e+02 1.0000000000000000e+00 1.0373137144071665e+01 3.1814002341471799e+00 5.5773431990969140e+00 
138 1 2 1.0280000170537833e+00 -2.0167745616425208e+02 1.0000000000000000e+00 1.0420760711959824e+01 2.9289356771392385e+00 5.8350609587189677e+00 
102 1 2 1.0280000166829033e+00 -2.2279174167736119e+02 1.0000000000000000e+00 1.0423167517398461e+01 2.8900858382433023e+00 5.8596682133754170e+00 
142 1 2 1.0279999941884681e+00 -1.9556163959196493e+02 1.0000000000000000e+00 8.9500378684901225e+00 1.4923531354308970e+00 7.0255646451668676e+00 
137 1 2 1.0279999950193761e+00 -1.8646012600262469e+02 1.0000000000000000e+00 8.9494044930655221e+00 1.4980162981651313e+00 7.0184639037226164e+00 
172 1 2 1.0279999943493128e+00 -2.3968121942428155e+02 1.0000000000000000e+00 8.9498910014866073e+00 1.4932863717080538e+00 7.0241806804063529e+00 
136 1 2 1.0279999943485723e+00 -2.2733170525415144e+02 1.0000000000000000e+00 8.9498916532549266e+00 1.4932819701945135e+00 7.0241870018250081e+00 
178 1 2 1.0279999941881788e+00 -2.0145643883279649e+02 1.0000000000000000e+00 8.9500381368098569e+00 1.4923514466608854e+00 7.0255671627055136e+00 
104 1 2 1.0280000055347400e+00 -2.1778369919753871e+02 1.0000000000000000e+00 7.5550095289320671e+00 6.0752853374705118e-01 8.5551395657883624e+00 
105 1 2 1.0280000055347400e+00 -2.5879777759472472e+02 1.0000000000000000e+00 7.5550095289319010e+00 6.0752853374731053e-01 8.5551395657883624e+00 
98 1 2 1.0280000055347400e+00 -1.9142707172618248e+02 1.0000000000000000e+00 7.5550095289320671e+00 6.0752853374705118e-01 8.5551395657883624e+00 
177 1 2 1.0280000055347400e+00 -1.6188019497338982e+02 1.0000000000000000e+00 7.5550095289319010e+00 6.0752853374731053e-01 8.5551395657883624e+00 
146 1 2 1.0280000055347400e+00 -2.5760069918926285e+02 1.0000000000000000e+00 7.5550095289319579e+00 6.0752853374725635e-01 8.5551395657883820e+00 
147 1 2 1.0280000055347402e+00 -2.5821378200469331e+02 1.0000000000000000e+00 7.5550095289319916e+00 6.0752853374716465e-01 8.5551395657883589e+00 
153 1 2 1.0280000421620967e+00 -1.9647592136720849e+02 1.0000000000000000e+00 6.8378922941634919e+00 1.5094545002619255e+00 1.3600782726145603e+01 
76 1 2 1.0280000421620967e+00 -2.1580483730980717e+02 1.0000000000000000e+00 6.8378922941634919e+00 1.5094545002619255e+00 1.3600782726145603e+01 
81 1 2 1.0280000421620967e+00 -1.7701016978191706e+02 1.0000000000000000e+00 6.8378922941634919e+00 1.5094545002619255e+00 1.3600782726145603e+01 
118 1 2 1.0280000421620967e+00 -2.0101208574279013e+02 1.0000000000000000e+00 6.8378922941634919e+00 1.5094545002619255e+00 1.3600782726145603e+01 
154 1 2 1.0280000421620967e+00 -1.6997422520503505e+02 1.0000000000000000e+00 6.8378922941634919e+00 1.5094545002619255e+00 1.3600782726145603e+01 
82 1 2 1.0280000421620967e+00 -1.7826322880820157e+02 1.0000000000000000e+00 6.8378922941634919e+00 1.5094545002619255e+00 1.3600782726145603e+01 
117 1 2 1.0280000421620967e+00 -2.0684709317124762e+02 1.0000000000000000e+00 6.8378922941634919e+00 1.5094545002619255e+00 1.3600782726145603e+01 
70 1 2 1.0279999898737171e+00 -8.9362078864898649e+01 1.0000000000000000e+00 6.7417589255657919e+00 8.8747552902096827e-01 1.6773290210524369e+01 
28 1 2 1.0279999898737171e+00 -1.7000351434439267e+02 1.0000000000000000e+00 6.7417589255657919e+00 8.8747552902096827e-01 1.6773290210524369e+01 
40 1 2 1.0279999898737171e+00 -1.0602106580740778e+02 1.0000000000000000e+00 6.7417589255657919e+00 8.8747552902096827e-01 1.6773290210524369e+01 
45 1 2 1.0279999898737171e+00 -2.1321295423202923e+02 1.0000000000000000e+00 6.7417589255657919e+00 8.8747552902096827e-01 1.6773290210524369e+01 
23 1 2 1.0279999898737171e+00 -1.5912036468245003e+02 1.0000000000000000e+00 6.7417589255657919e+00 8.8747552902096827e-01 1.6773290210524369e+01 
29 1 2 1.0279999898737171e+00 -1.2805968167236188e+02 1.0000000000000000e+00 6.7417589255657919e+00 8.8747552902096827e-01 1.6773290210524369e+01 
120 1 2 1.0280000121684825e+00 -1.5502455880583733e+02 1.0000000000000000e+00 1.0968162282389320e+01 5.1436837087395082e+00 1.9384633318467049e+01 
126 1 2 1.0280000121684825e+00 -1.9856741414833863e+02 1.0000000000000000e+00 1.0968162282389320e+01 5.1436837087395082e+00 1.9384633318467049e+01 
84 1 2 1.0280000121684825e+00 -1.8959974110452521e+02 1.0000000000000000e+00 1.0968162282389320e+01 5.1436837087395082e+00 1.9384633318467049e+01 
119 1 2 1.0280000121684825e+00 -2.0562143699674709e+02 1.0000000000000000e+00 1.0968162282389320e+01 5.1436837087395082e+00 1.9384633318467049e+01 
125 1 2 1.0280000121684825e+00 -2.2367237552126517e+02 1.0000000000000000e+00 1.0968162282389320e+01 5.1436837087395082e+00 1.9384633318467049e+01 
156 1 2 1.0280000121684825e+00 -2.1861427091205354e+02 1.0000000000000000e+00 1.0968162282389320e+01 5.1436837087395082e+00 1.9384633318467049e+01 
90 1 2 1.0280000121684825e+00 -2.1036049096020190e+02 1.0000000000000000e+00 1.0968162282389320e+01 5.1436837087395082e+00 1.9384633318467049e+01 
106 1 2 1.0280000032488288e+00 -1.1993543145019591e+02 1.0000000000000000e+00 1.2366318537011461e+01 1.6214865949078579e+01 2.2120546660967957e+00 
101 1 2 1.0280000032488288e+00 -1.5476138689710487e+02 1.0000000000000000e+00 1.2366318536997964e+01 1.6214865949083986e+01 2.2120546660992471e+00 
143 1 2 1.0280000032488286e+00 -1.7169033719482854e+02 1.0000000000000000e+00 1.2366318537001549e+01 1.6214865949082569e+01 2.2120546660987057e+00 
100 1 2 1.0280000032488283e+00 -1.4892754936758143e+02 1.0000000000000000e+00 1.2366318537010248e+01 1.6214865949079034e+01 2.2120546660968592e+00 
107 1 2 1.0280000032488288e+00 -1.6813066871440381e+02 1.0000000000000000e+00 1.2366318537011461e+01 1.6214865949078579e+01 2.2120546660967957e+00 
158 1 2 1.0279999424711321e+00 -2.3925973526076859e+02 1.0000000000000000e+00 7.6482849107201538e+00 1.8609070550336337e+01 1.6989635892912485e+00 
157 1 2 1.0279999424711321e+00 -2.7276428354393295e+02 1.0000000000000000e+00 7.6482849107201538e+00 1.8609070550336337e+01 1.6989635892912485e+00 
49 1 2 1.0279999424711321e+00 -2.8856716215751874e+02 1.0000000000000000e+00 7.6482849107201538e+00 1.8609070550336337e+01 1.6989635892912485e+00 
121 1 2 1.0279999424711321e+00 -2.0711143660696814e+02 1.0000000000000000e+00 7.6482849107201538e+00 1.8609070550336337e+01 1.6989635892912485e+00 
152 1 2 1.0279999424711321e+00 -2.3221819475699124e+02 1.0000000000000000e+00 7.6482849107201538e+00 1.8609070550336337e+01 1.6989635892912485e+00 
115 1 2 1.0279999424711321e+00 -2.5900163134510581e+02 1.0000000000000000e+00 7.6482849107201538e+00 1.8609070550336337e+01 1.6989635892912485e+00 
112 1 2 1.0279999998759415e+00 -2.2717170096175829e+02 1.0000000000000000e+00 1.1094377720999148e+01 1.8561160118661718e+01 6.5971069380558120e-02 
75 1 2 1.0279999998759415e+00 -2.3799108594016602e+02 1.0000000000000000e+00 1.1094377720999148e+01 1.8561160118661718e+01 6.5971069380558120e-02 
111 1 2 1.0279999998759415e+00 -2.5338607633913256e+02 1.0000000000000000e+00 1.1094377720999148e+01 1.8561160118661718e+01 6.5971069380558120e-02 
80 1 2 1.0279999998759415e+00 -2.4559409873523379e+02 1.0000000000000000e+00 1.1094377720999148e+01 1.8561160118661718e+01 6.5971069380558120e-02 
116 1 2 1.0279999998759415e+00 -1.2768475870403137e+02 1.0000000000000000e+00 1.1094377720999148e+01 1.8561160118661718e+01 6.5971069380558120e-02 
74 1 2 1.0279999998759415e+00 -2.5343906437794374e+02 1.0000000000000000e+00 1.1094377720999148e+01 1.8561160118661718e+01 6.5971069380558120e-02 
110 1 2 1.0279999998759415e+00 -1.3848919596136912e+02 1.0000000000000000e+00 1.1094377720999148e+01 1.8561160118661718e+01 6.5971069380558120e-02 
94 1 2 1.0280000537611960e+00 -2.1082840288047282e+02 1.0000000000000000e+00 7.8379106730840382e+00 1.8365374554338061e+01 3.8609238408916475e+00 
15 1 2 1.0280000537611957e+00 -1.4026034831489773e+02 1.0000000000000000e+00 7.8379106730840418e+00 1.8365374554338061e+01 3.8609238408916475e+00 
51 1 2 1.0280000537611960e+00 -2.3029473598044461e+02 1.0000000000000000e+00 7.8379106730840382e+00 1.8365374554338061e+01 3.8609238408916475e+00 
46 1 2 1.0280000537611960e+00 -2.3801704613104647e+02 1.0000000000000000e+00 7.8379106730840382e+00 1.8365374554338061e+01 3.8609238408916475e+00 
66 1 2 1.0279999392420358e+00 -2.7699754570550238e+02 1.0000000000000000e+00 8.0364534443457831e+00 1.7803822726688509e+01 5.8846237904979191e+00 
97 1 2 1.0279999392420358e+00 -2.4060277259600196e+02 1.0000000000000000e+00 8.0364534443457831e+00 1.7803822726688509e+01 5.8846237904979191e+00 
103 1 2 1.0279999392420358e+00 -2.1067296035151918e+02 1.0000000000000000e+00 8.0364534443457831e+00 1.7803822726688509e+01 5.8846237904979191e+00 
72 1 2 1.0279999392420356e+00 -2.5030782671366313e+02 1.0000000000000000e+00 8.0364534443457849e+00 1.7803822726688512e+01 5.8846237904979199e+00 
55 1 2 1.0279999392420358e+00 -1.4836705890836564e+02 1.0000000000000000e+00 8.0364534443457831e+00 1.7803822726688509e+01 5.8846237904979191e+00 
61 1 2 1.0279999392420358e+00 -2.4617729103870619e+02 1.0000000000000000e+00 8.0364534443457831e+00 1.7803822726688509e+01 5.8846237904979191e+00 
113 1 2 1.0279999877750672e+00 -2.7038027274081156e+02 1.0000000000000000e+00 1.1830626925645838e+01 1.8129256795346851e+01 3.5734429734626652e+00 
149 1 2 1.0279999877750672e+00 -2.7780627867226133e+02 1.0000000000000000e+00 1.1830626925645852e+01 1.8129256795346866e+01 3.5734429734626607e+00 
4 1 2 1.0279999877750672e+00 -1.6866487117781548e+02 1.0000000000000000e+00 1.1830626925645852e+01 1.8129256795346866e+01 3.5734429734626607e+00 
34 1 2 1.0279999877750672e+00 -1.6796721281015721e+02 1.0000000000000000e+00 1.1830626925645852e+01 1.8129256795346866e+01 3.5734429734626607e+00 
155 1 2 1.0279999877750672e+00 -2.0389826870877334e+02 1.0000000000000000e+00 1.1830626925645852e+01 1.8129256795346866e+01 3.5734429734626607e+00 
148 1 2 1.0279999877750672e+00 -1.7873479349142642e+02 1.0000000000000000e+00 1.1830626925645852e+01 1.8129256795346866e+01 3.5734429734626607e+00 
91 1 2 1.0280000000000289e+00 -1.9781644216308916e+02 1.0000000000000000e+00 1.2756535579873219e+01 1.9765471387343688e+01 7.5913987627588302e+00 
85 1 2 1.0280000000000289e+00 -1.8227464891694217e+02 1.0000000000000000e+00 1.2756535579873219e+01 1.9765471387343688e+01 7.5913987627588302e+00 
93 1 2 1.0280000000000289e+00 -1.8555067090398180e+02 1.0000000000000000e+00 1.2756535579873219e+01 1.9765471387343688e+01 7.5913987627588302e+00 
86 1 2 1.0280000000000289e+00 -2.4619301189738297e+02 1.0000000000000000e+00 1.2756535579873219e+01 1.9765471387343688e+01 7.5913987627588302e+00 
87 1 2 1.0280000000000289e+00 -2.2251332472750329e+02 1.0000000000000000e+00 1.2756535579873219e+01 1.9765471387343688e+01 7.5913987627588302e+00 
57 1 2 1.0280000000000289e+00 -2.2912369290500561e+02 1.0000000000000000e+00 1.2756535579873219e+01 1.9765471387343688e+01 7.5913987627588302e+00 
92 1 2 1.0280000000000289e+00 -2.5074132895180827e+02 1.0000000000000000e+00 1.2756535579873219e+01 1.9765471387343688e+01 7.5913987627588302e+00 
24 1 2 1.0280000558775784e+00 -1.7656549122909766e+02 1.0000000000000000e+00 6.6913082778744206e+00 1.9894090788109150e+01 1.9014731522262288e+01 
25 1 2 1.0280000558775737e+00 -1.6603314671161408e+02 1.0000000000000000e+00 6.6913082420551788e+00 1.9894090818418213e+01 1.9014731530092934e+01 
30 1 2 1.0280000558775779e+00 -1.7720865251408890e+02 1.0000000000000000e+00 6.6913082778743211e+00 1.9894090788109160e+01 1.9014731522262331e+01 
31 1 2 1.0280000558775744e+00 -1.7928590273454245e+02 1.0000000000000000e+00 6.6913082420549195e+00 1.9894090818418320e+01 1.9014731530093020e+01 
43 1 2 1.0280000558775746e+00 -2.6222005897560365e+02 1.0000000000000000e+00 6.6913082420552090e+00 1.9894090818418242e+01 1.9014731530092913e+01 
6 1 2 1.0280000037563504e+00 -1.7038257252737023e+02 1.0000000000000000e+00 1.4008385208564752e+01 1.4284119558470689e+00 4.1517886471521299e+00 
5 1 2 1.0280000037563504e+00 -1.7881616761570297e+02 1.0000000000000000e+00 1.4008385208564752e+01 1.4284119558470689e+00 4.1517886471521299e+00 
140 1 2 1.0280000037563504e+00 -1.9840641476562439e+02 1.0000000000000000e+00 1.4008385208564752e+01 1.4284119558470689e+00 4.1517886471521299e+00 
99 1 2 1.0280000037563504e+00 -1.4535911430934294e+02 1.0000000000000000e+00 1.4008385208564752e+01 1.4284119558470689e+00 4.1517886471521299e+00 
135 1 2 1.0280000037563504e+00 -1.8550332457733973e+02 1.0000000000000000e+00 1.4008385208564752e+01 1.4284119558470689e+00 4.1517886471521299e+00 
11 1 2 1.0280000037563504e+00 -1.4902835526664256e+02 1.0000000000000000e+00 1.4008385208564752e+01 1.4284119558470689e+00 4.1517886471521299e+00 
141 1 2 1.0280000037563504e+00 -2.1045811514409348e+02 1.0000000000000000e+00 1.4008385208564752e+01 1.4284119558470689e+00 4.1517886471521299e+00 
134 1 2 1.0280000273227294e+00 -2.2538698096861691e+02 1.0000000000000000e+00 1.6173568960394796e+01 2.3772185605118232e+00 6.6443688749503762e+00 
60 1 2 1.0280000273227294e+00 -2.1101114128671065e+02 1.0000000000000000e+00 1.6173568960364008e+01 2.3772185605006881e+00 6.6443688749451590e+00 
122 1 2 1.0280000273227294e+00 -1.4905235315292856e+02 1.0000000000000000e+00 1.6173568960373490e+01 2.3772185605091645e+00 6.6443688749530398e+00 
159 1 2 1.0280000273227294e+00 -1.4898945755544730e+02 1.0000000000000000e+00 1.6173568960365248e+01 2.3772185605011265e+00 6.6443688749453562e+00 
123 1 2 1.0280000273227297e+00 -1.3052931893088436e+02 1.0000000000000000e+00 1.6173568960369074e+01 2.3772185604990455e+00 6.6443688749416969e+00 
54 1 2 1.0279999731878107e+00 -1.9972737075286602e+02 1.0000000000000000e+00 1.5962455113304335e+01 3.8346337164234883e+00 5.6326432279814158e+00 
162 1 2 1.0279999731878107e+00 -1.9874535315931095e+02 1.0000000000000000e+00 1.5962455113279166e+01 3.8346337164174993e+00 5.6326432279744365e+00 
114 1 2 1.0279999731878109e+00 -3.0412528717260727e+02 1.0000000000000000e+00 1.5962455113328842e+01 3.8346337164153712e+00 5.6326432279647918e+00 
150 1 2 1.0279999731878109e+00 -2.4405996910061219e+02 1.0000000000000000e+00 1.5962455113328842e+01 3.8346337164153712e+00 5.6326432279647918e+00 
161 1 2 1.0279999731878109e+00 -2.0840355226292851e+02 1.0000000000000000e+00 1.5962455113328842e+01 3.8346337164153712e+00 5.6326432279647918e+00 
52 1 2 1.0280000167805687e+00 -3.3020167119123153e+02 1.0000000000000000e+00 1.3513235255341984e+01 2.5763333528916483e+00 1.9674611190579039e+01 
58 1 2 1.0280000167805687e+00 -2.2137825497959210e+02 1.0000000000000000e+00 1.3513235255341984e+01 2.5763333528916483e+00 1.9674611190579039e+01 
17 1 2 1.0280000167805687e+00 -2.9243099288827852e+02 1.0000000000000000e+00 1.3513235255341966e+01 2.5763333528916363e+00 1.9674611190578997e+01 
10 1 2 1.0280000167805687e+00 -1.8993055793962731e+02 1.0000000000000000e+00 1.3513235255341984e+01 2.5763333528916483e+00 1.9674611190579039e+01 
16 1 2 1.0280000167805687e+00 -2.8456138277833452e+02 1.0000000000000000e+00 1.3513235255341984e+01 2.5763333528916483e+00 1.9674611190579039e+01 
22 1 2 1.0280000167805687e+00 -2.9711067262236827e+02 1.0000000000000000e+00 1.3513235255341984e+01 2.5763333528916483e+00 1.9674611190579039e+01 
95 1 2 1.0279999777015636e+00 -2.6054897859830243e+02 1.0000000000000000e+00 1.6973309170292911e+01 2.1879940727789915e+00 1.9556384013433703e+01 
2 1 2 1.0279999777015636e+00 -1.2723110495186390e+02 1.0000000000000000e+00 1.6973309170292911e+01 2.1879940727789915e+00 1.9556384013433703e+01 
88 1 2 1.0279999777015636e+00 -2.4614449912093028e+02 1.0000000000000000e+00 1.6973309170292911e+01 2.1879940727789915e+00 1.9556384013433703e+01 
1 1 2 1.0279999777015636e+00 -1.5013870637666167e+02 1.0000000000000000e+00 1.6973309170292911e+01 2.1879940727789915e+00 1.9556384013433703e+01 
129 1 2 1.0279999777015636e+00 -8.9765592177229848e+01 1.0000000000000000e+00 1.6973309170292911e+01 2.1879940727789915e+00 1.9556384013433703e+01 
130 1 2 1.0279999777015636e+00 -7.7049441898675596e+01 1.0000000000000000e+00 1.6973309170292911e+01 2.1879940727789915e+00 1.9556384013433703e+01 
89 1 2 1.0279999777015636e+00 -2.2677244280082795e+02 1.0000000000000000e+00 1.6973309170292911e+01 2.1879940727789915e+00 1.9556384013433703e+01 
7 1 2 1.0279999908085791e+00 -2.5367682936249085e+02 1.0000000000000000e+00 1.3887992579439222e+01 1.6535404721939368e+01 5.6261642592431849e-01 
20 1 2 1.0279999908085784e+00 -1.8600637256508628e+02 1.0000000000000000e+00 1.3887992579439176e+01 1.6535404721939344e+01 5.6261642592435401e-01 
13 1 2 1.0279999908085780e+00 -3.0172681197676383e+02 1.0000000000000000e+00 1.3887992579439260e+01 1.6535404721939386e+01 5.6261642592429029e-01 
19 1 2 1.0279999908085784e+00 -1.8627675488036658e+02 1.0000000000000000e+00 1.3887992579439176e+01 1.6535404721939344e+01 5.6261642592435401e-01 
56 1 2 1.0279999908085784e+00 -1.8509000904874381e+02 1.0000000000000000e+00 1.3887992579439176e+01 1.6535404721939344e+01 5.6261642592435401e-01 
174 1 2 1.0280000245636143e+00 -1.9707317202908740e+02 1.0000000000000000e+00 1.6058927463967013e+01 1.9781909322694435e+01 1.6522853238487267e+00 
179 1 2 1.0280000245636143e+00 -2.2766779000171618e+02 1.0000000000000000e+00 1.6058927463967013e+01 1.9781909322694435e+01 1.6522853238487267e+00 
73 1 2 1.0280000245636143e+00 -2.1356107380293020e+02 1.0000000000000000e+00 1.6058927463967013e+01 1.9781909322694435e+01 1.6522853238487267e+00 
151 1 2 1.0280000245636143e+00 -2.2592156688696866e+02 1.0000000000000000e+00 1.6058927463967013e+01 1.9781909322694435e+01 1.6522853238487267e+00 
79 1 2 1.0280000245636143e+00 -1.9784981896528444e+02 1.0000000000000000e+00 1.6058927463967013e+01 1.9781909322694435e+01 1.6522853238487267e+00 
180 1 2 1.0280000245636143e+00 -2.7300927980711958e+02 1.0000000000000000e+00 1.6058927463967013e+01 1.9781909322694435e+01 1.6522853238487267e+00 
37 1 2 1.0280000245636143e+00 -1.7850562530635347e+02 1.0000000000000000e+00 1.6058927463967013e+01 1.9781909322694435e+01 1.6522853238487267e+00 
69 1 2 1.0280000000000291e+00 -1.9203784663678351e+02 1.0000000000000000e+00 1.4576848588496940e+01 1.7056698337435456e+01 7.7303945468555710e+00 
160 1 2 1.0280000000000291e+00 -1.8922028228980361e+02 1.0000000000000000e+00 1.4576848588496940e+01 1.7056698337435456e+01 7.7303945468555710e+00 
166 1 2 1.0280000000000291e+00 -1.8801381376463593e+02 1.0000000000000000e+00 1.4576848588496940e+01 1.7056698337435456e+01 7.7303945468555710e+00 
124 1 2 1.0280000000000291e+00 -1.7545466002942345e+02 1.0000000000000000e+00 1.4576848588496940e+01 1.7056698337435456e+01 7.7303945468555710e+00 
64 1 2 1.0280000000000291e+00 -2.0480051293354293e+02 1.0000000000000000e+00 1.4576848588496940e+01 1.7056698337435456e+01 7.7303945468555710e+00 
63 1 2 1.0280000000000291e+00 -2.1576893705721903e+02 1.0000000000000000e+00 1.4576848588496940e+01 1.7056698337435456e+01 7.7303945468555710e+00 
59 1 2 1.0280000000000291e+00 -2.5849006927848575e+02 1.0000000000000000e+00 1.4576848588496940e+01 1.7056698337435456e+01 7.7303945468555710e+00 
36 1 2 1.0280000050310054e+00 -1.9211910671725394e+02 1.0000000000000000e+00 1.3920064039521250e+01 1.6167741227481120e+01 1.6489327805199185e+01 
65 1 2 1.0280000050310061e+00 -1.5701770061103522e+02 1.0000000000000000e+00 1.3920064039521513e+01 1.6167741227481056e+01 1.6489327805199220e+01 
21 1 2 1.0280000050310032e+00 -6.1607888478984066e+01 1.0000000000000000e+00 1.3920064039521487e+01 1.6167741227480995e+01 1.6489327805198805e+01 
71 1 2 1.0280000050310045e+00 -1.8495226178541793e+02 1.0000000000000000e+00 1.3920064039521291e+01 1.6167741227481109e+01 1.6489327805199189e+01 
35 1 2 1.0280000050310063e+00 -1.7368731615368438e+02 1.0000000000000000e+00 1.3920064039521304e+01 1.6167741227481109e+01 1.6489327805199192e+01 
53 1 2 1.0279999940887761e+00 -1.9304714388933812e+02 1.0000000000000000e+00 1.4287565141674968e+01 1.7845481542902700e+01 1.5845192639166918e+01 
68 1 2 1.0279999940875164e+00 -1.8750058163207035e+02 1.0000000000000000e+00 1.4287005617875147e+01 1.7845761984028783e+01 1.5845488136780872e+01 
62 1 2 1.0279999940875164e+00 -2.0017630178334875e+02 1.0000000000000000e+00 1.4287005618558512e+01 1.7845761983495596e+01 1.5845488136125779e+01 
67 1 2 1.0279999940875164e+00 -1.8663466715361741e+02 1.0000000000000000e+00 1.4287005626442829e+01 1.7845761977451634e+01 1.5845488128733335e+01 
26 1 2 1.0279999940875175e+00 -2.1466866090903559e+02 1.0000000000000000e+00 1.4287005635940490e+01 1.7845761970180625e+01 1.5845488119843152e+01 
44 1 2 1.0279999952177363e+00 -2.2315751686928212e+02 1.0000000000000000e+00 1.4989968859712819e+01 1.7855347744997136e+01 1.8884123616852754e+01 
14 1 2 1.0279999952177363e+00 -1.9498603913974432e+02 1.0000000000000000e+00 1.4989968859712819e+01 1.7855347744997136e+01 1.8884123616852754e+01 
8 1 2 1.0279999952177363e+00 -2.2707514191562041e+02 1.0000000000000000e+00 1.4989968859712819e+01 1.7855347744997136e+01 1.8884123616852754e+01 
18 1 2 1.0279999952177363e+00 -1.9192437326394446e+02 1.0000000000000000e+00 1.4989968859712819e+01 1.7855347744997136e+01 1.8884123616852754e+01 
9 1 2 1.0279999952177363e+00 -2.6510060730284579e+02 1.0000000000000000e+00 1.4989968859712819e+01 1.7855347744997136e+01 1.8884123616852754e+01 
12 1 2 1.0279999952177363e+00 -1.9108060166280023e+02 1.0000000000000000e+00 1.4989968859712819e+01 1.7855347744997136e+01 1.8884123616852754e+01 

Velocities

133 1.3150461255041163e-01 9.1705916023178832e-02 3.4322357710660434e-01
164 1.3150461255041163e-01 9.1705916023178832e-02 3.4322357710660434e-01
169 1.3150461255041163e-01 9.1705916023178832e-02 3.4322357710660434e-01
128 1.3150461255041163e-01 9.1705916023178832e-02 3.4322357710660434e-01
163 1.3150461255041163e-01 9.1705916023178832e-02 3.4322357710660434e-01
127 1.3150461255041163e-01 9.1705916023178832e-02 3.4322357710660434e-01
32 1.3151586260420250e-01 9.1730753671269386e-02 3.4310907405138275e-01
33 1.3151586260317716e-01 9.1730753680819899e-02 3.4310907405981023e-01
27 1.3151586260332501e-01 9.1730753679448024e-02 3.4310907405860114e-01
139 1.3151353178471140e-01 9.1730264152531910e-02 3.4310936321327956e-01
145 1.3151353178471159e-01 9.1730264152531965e-02 3.4310936321327978e-01
109 1.3151353178471153e-01 9.1730264152531951e-02 3.4310936321327967e-01
175 1.3151353178471376e-01 9.1730264152532853e-02 3.4310936321328128e-01
168 1.3151608011520796e-01 9.1730167276657962e-02 3.4310514516455953e-01
167 1.3151608011520796e-01 9.1730167276657962e-02 3.4310514516455953e-01
173 1.3151608011520796e-01 9.1730167276657962e-02 3.4310514516455953e-01
96 1.3151608011520796e-01 9.1730167276657962e-02 3.4310514516455953e-01
131 1.3151608011520796e-01 9.1730167276657962e-02 3.4310514516455953e-01
132 1.3151608011520796e-01 9.1730167276657962e-02 3.4310514516455953e-01
3 1.3151541381530124e-01 9.1730665730918329e-02 3.4310643628362264e-01
38 1.3151541381530135e-01 9.1730665730918218e-02 3.4310643628362281e-01
50 1.3151541381530141e-01 9.1730665730918440e-02 3.4310643628362286e-01
39 1.3151541381530135e-01 9.1730665730918218e-02 3.4310643628362281e-01
170 1.3151505758176613e-01 9.1730646805637167e-02 3.4310528828870807e-01
176 1.3151505758176618e-01 9.1730646805637348e-02 3.4310528828870823e-01
165 1.3151505758176613e-01 9.1730646805637167e-02 3.4310528828870807e-01
171 1.3151505758176613e-01 9.1730646805637167e-02 3.4310528828870807e-01
48 1.3151387305961196e-01 9.1730750929201965e-02 3.4310706146097431e-01
41 1.3151387305961196e-01 9.1730750929201965e-02 3.4310706146097431e-01
42 1.3151387305961196e-01 9.1730750929201965e-02 3.4310706146097431e-01
47 1.3151387305961196e-01 9.1730750929201965e-02 3.4310706146097431e-01
77 1.3151387305961196e-01 9.1730750929201965e-02 3.4310706146097431e-01
83 1.3151387305961196e-01 9.1730750929201965e-02 3.4310706146097431e-01
78 1.3151387305961196e-01 9.1730750929201965e-02 3.4310706146097431e-01
144 1.3151511706839170e-01 9.1731050538011227e-02 3.4310447226117474e-01
108 1.3151522794639453e-01 9.1731030585245552e-02 3.4310460130630915e-01
138 1.3151531767036220e-01 9.1730794438593888e-02 3.4310482145375704e-01
102 1.3151531802720981e-01 9.1730753938692206e-02 3.4310483629928018e-01
142 1.3151505212736031e-01 9.1730668093735215e-02 3.4310486497942333e-01
137 1.3151505958721602e-01 9.1730664993399394e-02 3.4310486833831283e-01
172 1.3151505359534429e-01 9.1730667525336693e-02 3.4310486570733045e-01
136 1.3151505358864143e-01 9.1730667527966867e-02 3.4310486570406978e-01
178 1.3151505212470113e-01 9.1730668094766973e-02 3.4310486497809478e-01