LAMMPS data file via write_data, version 30 Jul 2016, timestep = 50400000

180 atoms
2 atom types

0.0000000000000000e+00 2.0000000000000000e+01 xlo xhi
0.0000000000000000e+00 2.0000000000000000e+01 ylo yhi
0.0000000000000000e+00 2.0000000000000000e+01 zlo zhi

Masses

1 3.896
2 4.31

Atoms # meso-molecular

123 1 2 1.0280000251086159e+00 -1.3052931893088436e+02 1.0000000000000000e+00 1.4343713533961777e+00 6.0464988857042199e+00 3.6834480038463818e-01 
159 1 2 1.0280000251086157e+00 -1.4898945755544730e+02 1.0000000000000000e+00 1.4343713533923459e+00 6.0464988857063098e+00 3.6834480038831130e-01 
134 1 2 1.0280000251086159e+00 -2.2538698096861691e+02 1.0000000000000000e+00 1.4343713534219029e+00 6.0464988857170061e+00 3.6834480039332523e-01 
60 1 2 1.0280000251086161e+00 -2.1101114128671065e+02 1.0000000000000000e+00 1.4343713533911191e+00 6.0464988857058684e+00 3.6834480038810469e-01 
122 1 2 1.0280000251086163e+00 -1.4905235315292856e+02 1.0000000000000000e+00 1.4343713534005913e+00 6.0464988857143434e+00 3.6834480039598566e-01 
44 1 2 1.0279999955824390e+00 -2.2315751686928212e+02 1.0000000000000000e+00 2.5055918917069320e-01 1.5244689752745904e+00 1.2608136627399075e+01 
14 1 2 1.0279999955824390e+00 -1.9498603913974432e+02 1.0000000000000000e+00 2.5055918917069320e-01 1.5244689752745904e+00 1.2608136627399075e+01 
8 1 2 1.0279999955824390e+00 -2.2707514191562041e+02 1.0000000000000000e+00 2.5055918917069320e-01 1.5244689752745904e+00 1.2608136627399075e+01 
18 1 2 1.0279999955824390e+00 -1.9192437326394446e+02 1.0000000000000000e+00 2.5055918917069320e-01 1.5244689752745904e+00 1.2608136627399075e+01 
9 1 2 1.0279999955824390e+00 -2.6510060730284579e+02 1.0000000000000000e+00 2.5055918917069320e-01 1.5244689752745904e+00 1.2608136627399075e+01 
12 1 2 1.0279999955824390e+00 -1.9108060166280023e+02 1.0000000000000000e+00 2.5055918917069320e-01 1.5244689752745904e+00 1.2608136627399075e+01 
89 1 2 1.0279999799040966e+00 -2.2677244280082795e+02 1.0000000000000000e+00 2.2339578865121399e+00 5.8572153217600507e+00 1.3280394670135347e+01 
130 1 2 1.0279999799040966e+00 -7.7049441898675596e+01 1.0000000000000000e+00 2.2339578865121399e+00 5.8572153217600507e+00 1.3280394670135347e+01 
129 1 2 1.0279999799040966e+00 -8.9765592177229848e+01 1.0000000000000000e+00 2.2339578865121399e+00 5.8572153217600507e+00 1.3280394670135347e+01 
1 1 2 1.0279999799040966e+00 -1.5013870637666167e+02 1.0000000000000000e+00 2.2339578865121399e+00 5.8572153217600507e+00 1.3280394670135347e+01 
88 1 2 1.0279999799040966e+00 -2.4614449912093028e+02 1.0000000000000000e+00 2.2339578865121399e+00 5.8572153217600507e+00 1.3280394670135347e+01 
2 1 2 1.0279999799040966e+00 -1.2723110495186390e+02 1.0000000000000000e+00 2.2339578865121399e+00 5.8572153217600507e+00 1.3280394670135347e+01 
95 1 2 1.0279999799040966e+00 -2.6054897859830243e+02 1.0000000000000000e+00 2.2339578865121399e+00 5.8572153217600507e+00 1.3280394670135347e+01 
174 1 2 1.0280000222459871e+00 -1.9707317202908740e+02 1.0000000000000000e+00 1.3196139657543169e+00 3.4511173534667776e+00 1.5376259037759038e+01 
179 1 2 1.0280000222459871e+00 -2.2766779000171618e+02 1.0000000000000000e+00 1.3196139657543169e+00 3.4511173534667776e+00 1.5376259037759038e+01 
73 1 2 1.0280000222459871e+00 -2.1356107380293020e+02 1.0000000000000000e+00 1.3196139657543169e+00 3.4511173534667776e+00 1.5376259037759038e+01 
151 1 2 1.0280000222459871e+00 -2.2592156688696866e+02 1.0000000000000000e+00 1.3196139657543169e+00 3.4511173534667776e+00 1.5376259037759038e+01 
79 1 2 1.0280000222459871e+00 -1.9784981896528444e+02 1.0000000000000000e+00 1.3196139657543169e+00 3.4511173534667776e+00 1.5376259037759038e+01 
180 1 2 1.0280000222459871e+00 -2.7300927980711958e+02 1.0000000000000000e+00 1.3196139657543169e+00 3.4511173534667776e+00 1.5376259037759038e+01 
37 1 2 1.0280000222459871e+00 -1.7850562530635347e+02 1.0000000000000000e+00 1.3196139657543169e+00 3.4511173534667776e+00 1.5376259037759038e+01 
162 1 2 1.0279999753791582e+00 -1.9874535315931095e+02 1.0000000000000000e+00 1.2232468145450113e+00 7.5039076476535822e+00 1.9356607692694197e+01 
114 1 2 1.0279999753791573e+00 -3.0412528717260727e+02 1.0000000000000000e+00 1.2232468145946882e+00 7.5039076476514666e+00 1.9356607692684570e+01 
150 1 2 1.0279999753791573e+00 -2.4405996910061219e+02 1.0000000000000000e+00 1.2232468145946882e+00 7.5039076476514666e+00 1.9356607692684570e+01 
161 1 2 1.0279999753791573e+00 -2.0840355226292851e+02 1.0000000000000000e+00 1.2232468145946882e+00 7.5039076476514666e+00 1.9356607692684570e+01 
54 1 2 1.0279999753791573e+00 -1.9972737075286602e+02 1.0000000000000000e+00 1.2232468145701818e+00 7.5039076476595747e+00 1.9356607692701179e+01 
105 1 2 1.0280000051536515e+00 -2.5879777759472472e+02 1.0000000000000000e+00 1.2815611611535878e+01 4.2767443805010563e+00 2.2793878274829402e+00 
177 1 2 1.0280000051536515e+00 -1.6188019497338982e+02 1.0000000000000000e+00 1.2815611611535878e+01 4.2767443805010563e+00 2.2793878274829402e+00 
146 1 2 1.0280000051536513e+00 -2.5760069918926285e+02 1.0000000000000000e+00 1.2815611611535930e+01 4.2767443805010048e+00 2.2793878274829589e+00 
147 1 2 1.0280000051536513e+00 -2.5821378200469331e+02 1.0000000000000000e+00 1.2815611611535957e+01 4.2767443805009160e+00 2.2793878274829318e+00 
98 1 2 1.0280000051536515e+00 -1.9142707172618248e+02 1.0000000000000000e+00 1.2815611611536040e+01 4.2767443805008023e+00 2.2793878274829407e+00 
104 1 2 1.0280000051536515e+00 -2.1778369919753871e+02 1.0000000000000000e+00 1.2815611611536040e+01 4.2767443805008023e+00 2.2793878274829407e+00 
153 1 2 1.0280000374242368e+00 -1.9647592136720849e+02 1.0000000000000000e+00 1.2098044675965964e+01 5.1776956017964331e+00 7.3295602845605758e+00 
117 1 2 1.0280000374242368e+00 -2.0684709317124762e+02 1.0000000000000000e+00 1.2098044675965964e+01 5.1776956017964331e+00 7.3295602845605758e+00 
82 1 2 1.0280000374242368e+00 -1.7826322880820157e+02 1.0000000000000000e+00 1.2098044675965964e+01 5.1776956017964331e+00 7.3295602845605758e+00 
154 1 2 1.0280000374242368e+00 -1.6997422520503505e+02 1.0000000000000000e+00 1.2098044675965964e+01 5.1776956017964331e+00 7.3295602845605758e+00 
118 1 2 1.0280000374242368e+00 -2.0101208574279013e+02 1.0000000000000000e+00 1.2098044675965964e+01 5.1776956017964331e+00 7.3295602845605758e+00 
81 1 2 1.0280000374242368e+00 -1.7701016978191706e+02 1.0000000000000000e+00 1.2098044675965964e+01 5.1776956017964331e+00 7.3295602845605758e+00 
76 1 2 1.0280000374242368e+00 -2.1580483730980717e+02 1.0000000000000000e+00 1.2098044675965964e+01 5.1776956017964331e+00 7.3295602845605758e+00 
133 1 2 1.0279999696997941e+00 -2.1080948525774332e+02 1.0000000000000000e+00 1.0463864294410001e+01 2.1855775990791346e+00 1.1482810330668633e+01 
164 1 2 1.0279999696997941e+00 -1.9413710478624716e+02 1.0000000000000000e+00 1.0463864294410001e+01 2.1855775990791346e+00 1.1482810330668633e+01 
169 1 2 1.0279999696997941e+00 -2.5227795563550347e+02 1.0000000000000000e+00 1.0463864294410001e+01 2.1855775990791346e+00 1.1482810330668633e+01 
128 1 2 1.0279999696997941e+00 -2.1390234191848376e+02 1.0000000000000000e+00 1.0463864294410001e+01 2.1855775990791346e+00 1.1482810330668633e+01 
163 1 2 1.0279999696997941e+00 -1.8031116701385022e+02 1.0000000000000000e+00 1.0463864294410001e+01 2.1855775990791346e+00 1.1482810330668633e+01 
127 1 2 1.0279999696997941e+00 -1.9539511921321588e+02 1.0000000000000000e+00 1.0463864294410001e+01 2.1855775990791346e+00 1.1482810330668633e+01 
24 1 2 1.0280000493897057e+00 -1.7656549122909766e+02 1.0000000000000000e+00 1.1951517666241363e+01 3.5623274812363355e+00 1.2743538959741358e+01 
25 1 2 1.0280000493897072e+00 -1.6603314671161408e+02 1.0000000000000000e+00 1.1951517630415415e+01 3.5623275115507700e+00 1.2743538967573498e+01 
30 1 2 1.0280000493897066e+00 -1.7720865251408890e+02 1.0000000000000000e+00 1.1951517666241267e+01 3.5623274812363421e+00 1.2743538959741398e+01 
31 1 2 1.0280000493897070e+00 -1.7928590273454245e+02 1.0000000000000000e+00 1.1951517630415150e+01 3.5623275115508779e+00 1.2743538967573587e+01 
43 1 2 1.0280000493897072e+00 -2.6222005897560365e+02 1.0000000000000000e+00 1.1951517630415450e+01 3.5623275115507886e+00 1.2743538967573476e+01 
70 1 2 1.0279999916157521e+00 -8.9362078864898649e+01 1.0000000000000000e+00 1.2001913361617694e+01 4.5556977561322940e+00 1.0502064213447875e+01 
28 1 2 1.0279999916157521e+00 -1.7000351434439267e+02 1.0000000000000000e+00 1.2001913361617694e+01 4.5556977561322940e+00 1.0502064213447875e+01 
40 1 2 1.0279999916157521e+00 -1.0602106580740778e+02 1.0000000000000000e+00 1.2001913361617694e+01 4.5556977561322940e+00 1.0502064213447875e+01 
45 1 2 1.0279999916157521e+00 -2.1321295423202923e+02 1.0000000000000000e+00 1.2001913361617694e+01 4.5556977561322940e+00 1.0502064213447875e+01 
23 1 2 1.0279999916157521e+00 -1.5912036468245003e+02 1.0000000000000000e+00 1.2001913361617694e+01 4.5556977561322940e+00 1.0502064213447875e+01 
29 1 2 1.0279999916157521e+00 -1.2805968167236188e+02 1.0000000000000000e+00 1.2001913361617694e+01 4.5556977561322940e+00 1.0502064213447875e+01 
158 1 2 1.0279999490641973e+00 -2.3925973526076859e+02 1.0000000000000000e+00 1.2908564424180719e+01 2.2773511737018679e+00 1.5427716928594135e+01 
157 1 2 1.0279999490641973e+00 -2.7276428354393295e+02 1.0000000000000000e+00 1.2908564424180719e+01 2.2773511737018679e+00 1.5427716928594135e+01 
49 1 2 1.0279999490641973e+00 -2.8856716215751874e+02 1.0000000000000000e+00 1.2908564424180719e+01 2.2773511737018679e+00 1.5427716928594135e+01 
121 1 2 1.0279999490641973e+00 -2.0711143660696814e+02 1.0000000000000000e+00 1.2908564424180719e+01 2.2773511737018679e+00 1.5427716928594135e+01 
152 1 2 1.0279999490641973e+00 -2.3221819475699124e+02 1.0000000000000000e+00 1.2908564424180719e+01 2.2773511737018679e+00 1.5427716928594135e+01 
115 1 2 1.0279999490641973e+00 -2.5900163134510581e+02 1.0000000000000000e+00 1.2908564424180719e+01 2.2773511737018679e+00 1.5427716928594135e+01 
46 1 2 1.0280000476866282e+00 -2.3801704613104647e+02 1.0000000000000000e+00 1.3098196129918955e+01 2.0336592471989654e+00 1.7589675582561849e+01 
51 1 2 1.0280000476866282e+00 -2.3029473598044461e+02 1.0000000000000000e+00 1.3098196129918955e+01 2.0336592471989654e+00 1.7589675582561849e+01 
15 1 2 1.0280000476866278e+00 -1.4026034831489773e+02 1.0000000000000000e+00 1.3098196129918959e+01 2.0336592471989654e+00 1.7589675582561846e+01 
94 1 2 1.0280000476866282e+00 -2.1082840288047282e+02 1.0000000000000000e+00 1.3098196129918955e+01 2.0336592471989654e+00 1.7589675582561849e+01 
66 1 2 1.0279999461857290e+00 -2.7699754570550238e+02 1.0000000000000000e+00 1.3296737327116555e+01 1.4721161618664091e+00 1.9613380327064142e+01 
97 1 2 1.0279999461857290e+00 -2.4060277259600196e+02 1.0000000000000000e+00 1.3296737327116555e+01 1.4721161618664091e+00 1.9613380327064142e+01 
103 1 2 1.0279999461857290e+00 -2.1067296035151918e+02 1.0000000000000000e+00 1.3296737327116555e+01 1.4721161618664091e+00 1.9613380327064142e+01 
72 1 2 1.0279999461857285e+00 -2.5030782671366313e+02 1.0000000000000000e+00 1.3296737327116553e+01 1.4721161618664140e+00 1.9613380327064146e+01 
61 1 2 1.0279999461857290e+00 -2.4617729103870619e+02 1.0000000000000000e+00 1.3296737327116555e+01 1.4721161618664091e+00 1.9613380327064142e+01 
55 1 2 1.0279999461857290e+00 -1.4836705890836564e+02 1.0000000000000000e+00 1.3296737327116555e+01 1.4721161618664091e+00 1.9613380327064142e+01 
48 1 2 1.0280000159048632e+00 -2.3099068170318782e+02 1.0000000000000000e+00 1.1939972432586403e+01 5.5708630530328129e+00 1.8384864447011591e+01 
41 1 2 1.0280000159048632e+00 -2.5024536109314232e+02 1.0000000000000000e+00 1.1939972432586403e+01 5.5708630530328129e+00 1.8384864447011591e+01 
42 1 2 1.0280000159048632e+00 -1.9538099373151837e+02 1.0000000000000000e+00 1.1939972432586403e+01 5.5708630530328129e+00 1.8384864447011591e+01 
47 1 2 1.0280000159048632e+00 -2.4280847880865878e+02 1.0000000000000000e+00 1.1939972432586403e+01 5.5708630530328129e+00 1.8384864447011591e+01 
77 1 2 1.0280000159048632e+00 -2.5703877392810625e+02 1.0000000000000000e+00 1.1939972432586403e+01 5.5708630530328129e+00 1.8384864447011591e+01 
83 1 2 1.0280000159048632e+00 -2.3555881119307807e+02 1.0000000000000000e+00 1.1939972432586403e+01 5.5708630530328129e+00 1.8384864447011591e+01 
78 1 2 1.0280000159048632e+00 -2.2094957207050075e+02 1.0000000000000000e+00 1.1939972432586403e+01 5.5708630530328129e+00 1.8384864447011591e+01 
63 1 2 1.0280000000003571e+00 -2.1576893705721903e+02 1.0000000000000000e+00 1.9831072175893098e+01 6.4892121705074490e-01 1.4049489769962344e+00 
59 1 2 1.0280000000003571e+00 -2.5849006927848575e+02 1.0000000000000000e+00 1.9831072175893098e+01 6.4892121705074490e-01 1.4049489769962344e+00 
69 1 2 1.0280000000003571e+00 -1.9203784663678351e+02 1.0000000000000000e+00 1.9831072175893098e+01 6.4892121705074490e-01 1.4049489769962344e+00 
160 1 2 1.0280000000003571e+00 -1.8922028228980361e+02 1.0000000000000000e+00 1.9831072175893098e+01 6.4892121705074490e-01 1.4049489769962344e+00 
166 1 2 1.0280000000003571e+00 -1.8801381376463593e+02 1.0000000000000000e+00 1.9831072175893098e+01 6.4892121705074490e-01 1.4049489769962344e+00 
124 1 2 1.0280000000003571e+00 -1.7545466002942345e+02 1.0000000000000000e+00 1.9831072175893098e+01 6.4892121705074490e-01 1.4049489769962344e+00 
64 1 2 1.0280000000003571e+00 -2.0480051293354293e+02 1.0000000000000000e+00 1.9831072175893098e+01 6.4892121705074490e-01 1.4049489769962344e+00 
142 1 2 1.0279999944659890e+00 -1.9556163959196493e+02 1.0000000000000000e+00 1.4210640826514263e+01 5.1615711398632662e+00 7.4981217193404548e-01 
178 1 2 1.0279999944657181e+00 -2.0145643883279649e+02 1.0000000000000000e+00 1.4210641094731816e+01 5.1615694511333601e+00 7.4981468942173191e-01 
172 1 2 1.0279999946142286e+00 -2.3968121942428155e+02 1.0000000000000000e+00 1.4210494015955069e+01 5.1625043540447031e+00 7.4842823523025748e-01 
136 1 2 1.0279999946135530e+00 -2.2733170525415144e+02 1.0000000000000000e+00 1.4210494667465690e+01 5.1624999526333832e+00 7.4843455652295487e-01 
137 1 2 1.0279999952326000e+00 -1.8646012600262469e+02 1.0000000000000000e+00 1.4210007738045734e+01 5.1672341818883742e+00 7.4271155994033566e-01 
87 1 2 1.0280000000003575e+00 -2.2251332472750329e+02 1.0000000000000000e+00 1.8010759167581082e+01 3.3576942671759613e+00 1.2659531931719454e+00 
91 1 2 1.0280000000003575e+00 -1.9781644216308916e+02 1.0000000000000000e+00 1.8010759167581082e+01 3.3576942671759613e+00 1.2659531931719454e+00 
92 1 2 1.0280000000003575e+00 -2.5074132895180827e+02 1.0000000000000000e+00 1.8010759167581082e+01 3.3576942671759613e+00 1.2659531931719454e+00 
57 1 2 1.0280000000003575e+00 -2.2912369290500561e+02 1.0000000000000000e+00 1.8010759167581082e+01 3.3576942671759613e+00 1.2659531931719454e+00 
86 1 2 1.0280000000003575e+00 -2.4619301189738297e+02 1.0000000000000000e+00 1.8010759167581082e+01 3.3576942671759613e+00 1.2659531931719454e+00 
93 1 2 1.0280000000003575e+00 -1.8555067090398180e+02 1.0000000000000000e+00 1.8010759167581082e+01 3.3576942671759613e+00 1.2659531931719454e+00 
85 1 2 1.0280000000003575e+00 -1.8227464891694217e+02 1.0000000000000000e+00 1.8010759167581082e+01 3.3576942671759613e+00 1.2659531931719454e+00 
26 1 2 1.0279999944763332e+00 -2.1466866090903559e+02 1.0000000000000000e+00 1.9547602863705393e+01 1.5148819990669313e+00 9.5694794403395953e+00 
67 1 2 1.0279999944763343e+00 -1.8663466715361741e+02 1.0000000000000000e+00 1.9547602854207945e+01 1.5148820063377459e+00 9.5694794492297142e+00 
68 1 2 1.0279999944763341e+00 -1.8750058163207035e+02 1.0000000000000000e+00 1.9547602845640419e+01 1.5148820129147178e+00 9.5694794572771684e+00 
62 1 2 1.0279999944763332e+00 -2.0017630178334875e+02 1.0000000000000000e+00 1.9547602846323766e+01 1.5148820123815476e+00 9.5694794566220853e+00 
53 1 2 1.0279999944774829e+00 -1.9304714388933812e+02 1.0000000000000000e+00 1.9548162358111984e+01 1.5146015784311739e+00 9.5691839633791265e+00 
120 1 2 1.0280000107525316e+00 -1.5502455880583733e+02 1.0000000000000000e+00 1.6228756428732943e+01 8.8128882162894779e+00 1.3108933379723394e+01 
119 1 2 1.0280000107525316e+00 -2.0562143699674709e+02 1.0000000000000000e+00 1.6228756428732943e+01 8.8128882162894779e+00 1.3108933379723394e+01 
84 1 2 1.0280000107525316e+00 -1.8959974110452521e+02 1.0000000000000000e+00 1.6228756428732943e+01 8.8128882162894779e+00 1.3108933379723394e+01 
126 1 2 1.0280000107525316e+00 -1.9856741414833863e+02 1.0000000000000000e+00 1.6228756428732943e+01 8.8128882162894779e+00 1.3108933379723394e+01 
125 1 2 1.0280000107525316e+00 -2.2367237552126517e+02 1.0000000000000000e+00 1.6228756428732943e+01 8.8128882162894779e+00 1.3108933379723394e+01 
156 1 2 1.0280000107525316e+00 -2.1861427091205354e+02 1.0000000000000000e+00 1.6228756428732943e+01 8.8128882162894779e+00 1.3108933379723394e+01 
90 1 2 1.0280000107525316e+00 -2.1036049096020190e+02 1.0000000000000000e+00 1.6228756428732943e+01 8.8128882162894779e+00 1.3108933379723394e+01 
74 1 2 1.0279999994435696e+00 -2.5343906437794374e+02 1.0000000000000000e+00 1.6355003970372227e+01 2.2302745185189963e+00 1.3790213135989251e+01 
110 1 2 1.0279999994435696e+00 -1.3848919596136912e+02 1.0000000000000000e+00 1.6355003970372227e+01 2.2302745185189963e+00 1.3790213135989251e+01 
116 1 2 1.0279999994435696e+00 -1.2768475870403137e+02 1.0000000000000000e+00 1.6355003970372227e+01 2.2302745185189963e+00 1.3790213135989251e+01 
80 1 2 1.0279999994435696e+00 -2.4559409873523379e+02 1.0000000000000000e+00 1.6355003970372227e+01 2.2302745185189963e+00 1.3790213135989251e+01 
111 1 2 1.0279999994435696e+00 -2.5338607633913256e+02 1.0000000000000000e+00 1.6355003970372227e+01 2.2302745185189963e+00 1.3790213135989251e+01 
75 1 2 1.0279999994435696e+00 -2.3799108594016602e+02 1.0000000000000000e+00 1.6355003970372227e+01 2.2302745185189963e+00 1.3790213135989251e+01 
112 1 2 1.0279999994435696e+00 -2.2717170096175829e+02 1.0000000000000000e+00 1.6355003970372227e+01 2.2302745185189963e+00 1.3790213135989251e+01 
56 1 2 1.0279999917128428e+00 -1.8509000904874381e+02 1.0000000000000000e+00 1.9148610759842505e+01 2.0456364190315196e-01 1.4286655248685982e+01 
7 1 2 1.0279999917128428e+00 -2.5367682936249085e+02 1.0000000000000000e+00 1.9148610759842530e+01 2.0456364190316290e-01 1.4286655248685948e+01 
20 1 2 1.0279999917128428e+00 -1.8600637256508628e+02 1.0000000000000000e+00 1.9148610759842505e+01 2.0456364190315196e-01 1.4286655248685982e+01 
13 1 2 1.0279999917128426e+00 -3.0172681197676383e+02 1.0000000000000000e+00 1.9148610759842569e+01 2.0456364190318124e-01 1.4286655248685916e+01 
19 1 2 1.0279999917128428e+00 -1.8627675488036658e+02 1.0000000000000000e+00 1.9148610759842505e+01 2.0456364190315196e-01 1.4286655248685982e+01 
139 1 2 1.0280000677953851e+00 -2.1463343675816802e+02 1.0000000000000000e+00 1.4185056004083409e+01 5.8982775772008340e+00 1.4269370442958676e+01 
175 1 2 1.0280000677953844e+00 -2.3537433246608921e+02 1.0000000000000000e+00 1.4185056004083435e+01 5.8982775772008846e+00 1.4269370442958605e+01 
109 1 2 1.0280000677953849e+00 -2.4440816285283205e+02 1.0000000000000000e+00 1.4185056004083558e+01 5.8982775772008127e+00 1.4269370442958461e+01 
145 1 2 1.0280000677953851e+00 -1.5943664603385389e+02 1.0000000000000000e+00 1.4185056004083251e+01 5.8982775772007479e+00 1.4269370442958966e+01 
32 1 2 1.0279999626166292e+00 -2.1204104412251689e+02 1.0000000000000000e+00 1.4338708159956468e+01 6.3963830162618862e+00 1.4770117816721239e+01 
27 1 2 1.0279999626167839e+00 -1.5536109490440018e+02 1.0000000000000000e+00 1.4338704047477165e+01 6.3963801673878962e+00 1.4770116874989730e+01 
33 1 2 1.0279999626168106e+00 -1.6376034991841414e+02 1.0000000000000000e+00 1.4338703358935074e+01 6.3963796904108312e+00 1.4770116717306738e+01 
173 1 2 1.0280000201732358e+00 -1.9199822408967378e+02 1.0000000000000000e+00 1.6278504462253874e+01 4.4763130276378398e+00 1.6342322035812192e+01 
167 1 2 1.0280000201732358e+00 -2.5787514355182310e+02 1.0000000000000000e+00 1.6278504462253874e+01 4.4763130276378398e+00 1.6342322035812192e+01 
168 1 2 1.0280000201732358e+00 -2.4653439927021816e+02 1.0000000000000000e+00 1.6278504462253874e+01 4.4763130276378398e+00 1.6342322035812192e+01 
96 1 2 1.0280000201732358e+00 -1.5127327348545316e+02 1.0000000000000000e+00 1.6278504462253874e+01 4.4763130276378398e+00 1.6342322035812192e+01 
131 1 2 1.0280000201732358e+00 -2.7743006446339945e+02 1.0000000000000000e+00 1.6278504462253874e+01 4.4763130276378398e+00 1.6342322035812192e+01 
132 1 2 1.0280000201732358e+00 -1.4277997722003101e+02 1.0000000000000000e+00 1.6278504462253874e+01 4.4763130276378398e+00 1.6342322035812192e+01 
52 1 2 1.0280000148412323e+00 -3.3020167119123153e+02 1.0000000000000000e+00 1.8773833279118399e+01 6.2455380188190519e+00 1.3398886508515195e+01 
58 1 2 1.0280000148412323e+00 -2.2137825497959210e+02 1.0000000000000000e+00 1.8773833279118399e+01 6.2455380188190519e+00 1.3398886508515195e+01 
17 1 2 1.0280000148412323e+00 -2.9243099288827852e+02 1.0000000000000000e+00 1.8773833279118382e+01 6.2455380188190350e+00 1.3398886508515149e+01 
10 1 2 1.0280000148412323e+00 -1.8993055793962731e+02 1.0000000000000000e+00 1.8773833279118399e+01 6.2455380188190519e+00 1.3398886508515195e+01 
16 1 2 1.0280000148412323e+00 -2.8456138277833452e+02 1.0000000000000000e+00 1.8773833279118399e+01 6.2455380188190519e+00 1.3398886508515195e+01 
22 1 2 1.0280000148412323e+00 -2.9711067262236827e+02 1.0000000000000000e+00 1.8773833279118399e+01 6.2455380188190519e+00 1.3398886508515195e+01 
3 1 2 1.0279999760918979e+00 -2.1517310146456674e+02 1.0000000000000000e+00 1.6855915677161587e+01 5.9002350822771819e+00 1.4256293420472788e+01 
38 1 2 1.0279999760918972e+00 -1.6754414105608402e+02 1.0000000000000000e+00 1.6855915677161573e+01 5.9002350822771730e+00 1.4256293420472796e+01 
50 1 2 1.0279999760918974e+00 -2.1180809379105156e+02 1.0000000000000000e+00 1.6855915677161054e+01 5.9002350822769847e+00 1.4256293420473037e+01 
39 1 2 1.0279999760918972e+00 -1.6096858963300019e+02 1.0000000000000000e+00 1.6855915677161573e+01 5.9002350822771730e+00 1.4256293420472796e+01 
113 1 2 1.0279999892439169e+00 -2.7038027274081156e+02 1.0000000000000000e+00 1.7091277025943331e+01 1.7983881717313113e+00 1.7297567260144881e+01 
149 1 2 1.0279999892439167e+00 -2.7780627867226133e+02 1.0000000000000000e+00 1.7091277025943345e+01 1.7983881717313268e+00 1.7297567260144877e+01 
4 1 2 1.0279999892439167e+00 -1.6866487117781548e+02 1.0000000000000000e+00 1.7091277025943345e+01 1.7983881717313268e+00 1.7297567260144877e+01 
34 1 2 1.0279999892439167e+00 -1.6796721281015721e+02 1.0000000000000000e+00 1.7091277025943345e+01 1.7983881717313268e+00 1.7297567260144877e+01 
155 1 2 1.0279999892439167e+00 -2.0389826870877334e+02 1.0000000000000000e+00 1.7091277025943345e+01 1.7983881717313268e+00 1.7297567260144877e+01 
148 1 2 1.0279999892439167e+00 -1.7873479349142642e+02 1.0000000000000000e+00 1.7091277025943345e+01 1.7983881717313268e+00 1.7297567260144877e+01 
176 1 2 1.0279999817925487e+00 -2.3725140549378588e+02 1.0000000000000000e+00 1.5166641083710445e+01 6.4031119362289726e+00 1.8237230993397610e+01 
165 1 2 1.0279999817925487e+00 -2.0635368480696545e+02 1.0000000000000000e+00 1.5166641083710363e+01 6.4031119362288695e+00 1.8237230993397603e+01 
170 1 2 1.0279999817925487e+00 -2.4654580651225544e+02 1.0000000000000000e+00 1.5166641083710363e+01 6.4031119362288695e+00 1.8237230993397603e+01 
171 1 2 1.0279999817925487e+00 -2.1541104319391334e+02 1.0000000000000000e+00 1.5166641083710363e+01 6.4031119362288695e+00 1.8237230993397603e+01 
138 1 2 1.0280000157699865e+00 -2.0167745616425208e+02 1.0000000000000000e+00 1.5681373606319676e+01 6.5981584464453595e+00 1.9559306680083782e+01 
102 1 2 1.0280000154288964e+00 -2.2279174167736119e+02 1.0000000000000000e+00 1.5683780426433993e+01 6.5593070500575790e+00 1.9583914508742680e+01 
140 1 2 1.0280000031485343e+00 -1.9840641476562439e+02 1.0000000000000000e+00 1.9269141480216202e+01 5.0977005504960822e+00 1.7875838265433700e+01 
5 1 2 1.0280000031485343e+00 -1.7881616761570297e+02 1.0000000000000000e+00 1.9269141480216202e+01 5.0977005504960822e+00 1.7875838265433700e+01 
6 1 2 1.0280000031485343e+00 -1.7038257252737023e+02 1.0000000000000000e+00 1.9269141480216202e+01 5.0977005504960822e+00 1.7875838265433700e+01 
141 1 2 1.0280000031485343e+00 -2.1045811514409348e+02 1.0000000000000000e+00 1.9269141480216202e+01 5.0977005504960822e+00 1.7875838265433700e+01 
99 1 2 1.0280000031485343e+00 -1.4535911430934294e+02 1.0000000000000000e+00 1.9269141480216202e+01 5.0977005504960822e+00 1.7875838265433700e+01 
11 1 2 1.0280000031485343e+00 -1.4902835526664256e+02 1.0000000000000000e+00 1.9269141480216202e+01 5.0977005504960822e+00 1.7875838265433700e+01 
135 1 2 1.0280000031485343e+00 -1.8550332457733973e+02 1.0000000000000000e+00 1.9269141480216202e+01 5.0977005504960822e+00 1.7875838265433700e+01 
144 1 2 1.0280000141886885e+00 -1.8421708425066882e+02 1.0000000000000000e+00 1.5569959625537550e+01 6.9394309817664350e+00 1.9151385183983447e+01 
108 1 2 1.0280000160806255e+00 -1.8761390398664733e+02 1.0000000000000000e+00 1.5633746580302574e+01 6.8506320835503169e+00 1.9301580428350526e+01 
36 1 2 1.0280000047715723e+00 -1.9211910671725394e+02 1.0000000000000000e+00 1.9180660348914053e+01 1.9836863915678784e+01 1.0213311604591954e+01 
35 1 2 1.0280000047715716e+00 -1.7368731615368438e+02 1.0000000000000000e+00 1.9180660348914113e+01 1.9836863915678766e+01 1.0213311604591961e+01 
71 1 2 1.0280000047715725e+00 -1.8495226178541793e+02 1.0000000000000000e+00 1.9180660348914095e+01 1.9836863915678773e+01 1.0213311604591951e+01 
21 1 2 1.0280000047715732e+00 -6.1607888478984066e+01 1.0000000000000000e+00 1.9180660348914280e+01 1.9836863915678666e+01 1.0213311604591576e+01 
65 1 2 1.0280000047715729e+00 -1.5701770061103522e+02 1.0000000000000000e+00 1.9180660348914312e+01 1.9836863915678720e+01 1.0213311604591988e+01 
107 1 2 1.0280000028024054e+00 -1.6813066871440381e+02 1.0000000000000000e+00 1.7626957093167505e+01 1.9884027033050714e+01 1.5936143286029129e+01 
100 1 2 1.0280000028024061e+00 -1.4892754936758143e+02 1.0000000000000000e+00 1.7626957093166279e+01 1.9884027033051176e+01 1.5936143286029196e+01 
143 1 2 1.0280000028024054e+00 -1.7169033719482854e+02 1.0000000000000000e+00 1.7626957093157579e+01 1.9884027033054711e+01 1.5936143286031045e+01 
101 1 2 1.0280000028024061e+00 -1.5476138689710487e+02 1.0000000000000000e+00 1.7626957093153994e+01 1.9884027033056125e+01 1.5936143286031580e+01 
106 1 2 1.0280000028024054e+00 -1.1993543145019591e+02 1.0000000000000000e+00 1.7626957093167505e+01 1.9884027033050714e+01 1.5936143286029129e+01 

Velocities

123 1.3151983316393995e-01 9.1731794725309665e-02 3.4310093285582027e-01
159 1.3151983316393998e-01 9.1731794725308513e-02 3.4310093285582116e-01
134 1.3151983316394034e-01 9.1731794725308846e-02 3.4310093285582138e-01
60 1.3151983316394025e-01 9.1731794725308152e-02 3.4310093285582172e-01
122 1.3151983316394045e-01 9.1731794725308236e-02 3.4310093285582205e-01
44 1.3151479098147301e-01 9.1728006468228360e-02 3.4310181896191333e-01
14 1.3151479098147301e-01 9.1728006468228360e-02 3.4310181896191333e-01
8 1.3151479098147301e-01 9.1728006468228360e-02 3.4310181896191333e-01
18 1.3151479098147301e-01 9.1728006468228360e-02 3.4310181896191333e-01
9 1.3151479098147301e-01 9.1728006468228360e-02 3.4310181896191333e-01
12 1.3151479098147301e-01 9.1728006468228360e-02 3.4310181896191333e-01
89 1.3151616061283322e-01 9.1730397449144532e-02 3.4310177000930586e-01
130 1.3151616061283322e-01 9.1730397449144532e-02 3.4310177000930586e-01
129 1.3151616061283322e-01 9.1730397449144532e-02 3.4310177000930586e-01
1 1.3151616061283322e-01 9.1730397449144532e-02 3.4310177000930586e-01
88 1.3151616061283322e-01 9.1730397449144532e-02 3.4310177000930586e-01
2 1.3151616061283322e-01 9.1730397449144532e-02 3.4310177000930586e-01
95 1.3151616061283322e-01 9.1730397449144532e-02 3.4310177000930586e-01
174 1.3151706588032502e-01 9.1730083647683480e-02 3.4310089398591742e-01
179 1.3151706588032502e-01 9.1730083647683480e-02 3.4310089398591742e-01
73 1.3151706588032502e-01 9.1730083647683480e-02 3.4310089398591742e-01
151 1.3151706588032502e-01 9.1730083647683480e-02 3.4310089398591742e-01
79 1.3151706588032502e-01 9.1730083647683480e-02 3.4310089398591742e-01
180 1.3151706588032502e-01 9.1730083647683480e-02 3.4310089398591742e-01
37 1.3151706588032502e-01 9.1730083647683480e-02 3.4310089398591742e-01
162 1.3151957701269548e-01 9.1731641770538344e-02 3.4310065817605762e-01
114 1.3151957701269529e-01 9.1731641770543756e-02 3.4310065817605395e-01
150 1.3151957701269529e-01 9.1731641770543756e-02 3.4310065817605395e-01
161 1.3151957701269529e-01 9.1731641770543756e-02 3.4310065817605395e-01
54 1.3151957701269532e-01 9.1731641770543257e-02 3.4310065817605490e-01
105 1.3151507461515230e-01 9.1730184736493289e-02 3.4310748878398778e-01
177 1.3151507461515230e-01 9.1730184736493289e-02 3.4310748878398778e-01
146 1.3151507461515208e-01 9.1730184736493567e-02 3.4310748878398756e-01
147 1.3151507461515213e-01 9.1730184736493511e-02 3.4310748878398784e-01
98 1.3151507461515261e-01 9.1730184736493650e-02 3.4310748878398745e-01
104 1.3151507461515261e-01 9.1730184736493650e-02 3.4310748878398745e-01
153 1.3150398173538233e-01 9.1706488667371217e-02 3.4321519220315205e-01
117 1.3150398173538233e-01 9.1706488667371217e-02 3.4321519220315205e-01
82 1.3150398173538233e-01 9.1706488667371217e-02 3.4321519220315205e-01
154 1.3150398173538233e-01 9.1706488667371217e-02 3.4321519220315205e-01
118 1.3150398173538233e-01 9.1706488667371217e-02 3.4321519220315205e-01
81 1.3150398173538233e-01 9.1706488667371217e-02 3.4321519220315205e-01
76 1.3150398173538233e-01 9.1706488667371217e-02 3.4321519220315205e-01