LAMMPS data file via write_data, version 30 Jul 2016, timestep = 50000000

180 atoms
2 atom types

0.0000000000000000e+00 2.0000000000000000e+01 xlo xhi
0.0000000000000000e+00 2.0000000000000000e+01 ylo yhi
0.0000000000000000e+00 2.0000000000000000e+01 zlo zhi

Masses

1 3.896
2 4.31

Atoms # meso-molecular

50 1 2 9.2812780346014865e+00 -2.5739125938903344e+03 1.0000000000000000e+00 6.3578742136979578e+00 1.3459287351684223e+01 1.3148384197506699e+01 
57 1 2 1.0072894034617546e+01 -3.3757665520098953e+03 1.0000000000000000e+00 6.6356702781266792e+00 1.3260943243233244e+01 1.3508173479966297e+01 
16 1 2 1.0002531529879739e+01 -2.9049739222667108e+03 1.0000000000000000e+00 6.3639493624006995e+00 1.2993677301122924e+01 1.3867541100171268e+01 
25 1 2 9.7803547941108864e+00 -3.1997387380248938e+03 1.0000000000000000e+00 6.3320255608122693e+00 1.2950414121724972e+01 1.4116231087014240e+01 
79 1 2 9.8718105426476388e+00 -2.0791267237727297e+03 1.0000000000000000e+00 6.5466660182468059e+00 1.3327887931414169e+01 1.3363668470813504e+01 
93 1 2 1.0113157303277887e+01 -2.3912323579572808e+03 1.0000000000000000e+00 6.1159044480873810e+00 1.3163668979116396e+01 1.3800620594427633e+01 
22 1 2 1.0320361338179211e+01 -3.5171124311734884e+03 1.0000000000000000e+00 6.3187671591936478e+00 1.3290386339915779e+01 1.4251487308545334e+01 
3 1 2 9.6982525318658723e+00 -3.4937236137163663e+03 1.0000000000000000e+00 5.8911571402461220e+00 1.3201421849082763e+01 1.3820365084822422e+01 
68 1 2 1.0152134946752863e+01 -2.6472283715280410e+03 1.0000000000000000e+00 6.3879739786969898e+00 1.3090580583818237e+01 1.3711692810794258e+01 
87 1 2 9.6045835766402803e+00 -1.8403985402009382e+03 1.0000000000000000e+00 6.1463950866716885e+00 1.3066643689365344e+01 1.4321702273766068e+01 
45 1 2 9.4530115172527154e+00 -3.3991706671384909e+03 1.0000000000000000e+00 6.3439745949089854e+00 1.2823438147310727e+01 1.3835760204496617e+01 
48 1 2 9.6537257214270813e+00 -2.6328131530617106e+03 1.0000000000000000e+00 6.2048878594518628e+00 1.3119273127224012e+01 1.3458278097387172e+01 
54 1 2 9.1369951710351884e+00 -2.8994942610569437e+03 1.0000000000000000e+00 6.6020747961154713e+00 1.3099348431119378e+01 1.4593869354340573e+01 
34 1 2 9.9005454059718989e+00 -3.0583582444677195e+03 1.0000000000000000e+00 6.4960461756100916e+00 1.3034375054954888e+01 1.3618958240094756e+01 
15 1 2 9.9724017210635907e+00 -3.3165635560533688e+03 1.0000000000000000e+00 6.1020504826595774e+00 1.3089504156562356e+01 1.3919211405577050e+01 
8 1 2 9.9338666108805960e+00 -2.5553777056418103e+03 1.0000000000000000e+00 6.1993897905612547e+00 1.3209386501946563e+01 1.4334699879442931e+01 
37 1 2 1.0069281692945873e+01 -2.7549033023698535e+03 1.0000000000000000e+00 6.4392117215169762e+00 1.3160027011319364e+01 1.4296313087508317e+01 
14 1 2 1.0118856515614810e+01 -2.4889751734860729e+03 1.0000000000000000e+00 6.4160734206964447e+00 1.3306552662115179e+01 1.4381945167206096e+01 
23 1 2 1.0517835989028843e+01 -2.1964453557627730e+03 1.0000000000000000e+00 6.6302837180626026e+00 1.3829923479370780e+01 1.3930959764929261e+01 
28 1 2 9.9625903358927452e+00 -3.1330232797623494e+03 1.0000000000000000e+00 6.0186710510162369e+00 1.3362770477009379e+01 1.3586271920519739e+01 
86 1 2 9.6809641987181649e+00 -2.4491755614066719e+03 1.0000000000000000e+00 6.5404849435714070e+00 1.3372521304252025e+01 1.4560586795048884e+01 
67 1 2 9.9194866465975799e+00 -3.0086738898327508e+03 1.0000000000000000e+00 6.2862775968453466e+00 1.3423248471807963e+01 1.4478827255847511e+01 
89 1 2 1.0140053278198451e+01 -2.7227582818787605e+03 1.0000000000000000e+00 6.3378339696885444e+00 1.3545726958054082e+01 1.3422995601592591e+01 
81 1 2 1.0511185213074757e+01 -1.2744533750980604e+03 1.0000000000000000e+00 6.2199738546584378e+00 1.3373494627839314e+01 1.3739047091898021e+01 
35 1 2 1.0034317649145923e+01 -2.9496612518435068e+03 1.0000000000000000e+00 6.2093998568809523e+00 1.3548732946480532e+01 1.4420533193402603e+01 
26 1 2 1.0166791034524506e+01 -2.8275412602377219e+03 1.0000000000000000e+00 6.4358991168956114e+00 1.3957744734434687e+01 1.4208267876657654e+01 
20 1 2 1.0124398752800618e+01 -3.3645725765991951e+03 1.0000000000000000e+00 6.3479545330214000e+00 1.4050220697566601e+01 1.3990877128600097e+01 
30 1 2 8.9001740514282375e+00 -3.2556062059037472e+03 1.0000000000000000e+00 6.2300491316996345e+00 1.3509188446319561e+01 1.4778702543761655e+01 
80 1 2 9.7566698083446450e+00 -2.2828850158572923e+03 1.0000000000000000e+00 5.8110268910801626e+00 1.3566061263684990e+01 1.4025389187365796e+01 
32 1 2 9.9132584250836615e+00 -2.8768721797240078e+03 1.0000000000000000e+00 6.0573034032991302e+00 1.3516234958776161e+01 1.4370687371399884e+01 
42 1 2 1.0192557978673644e+01 -3.0797207403883194e+03 1.0000000000000000e+00 5.9839804884159760e+00 1.3431327992037421e+01 1.3814744577264801e+01 
56 1 2 9.7943641217090214e+00 -3.0348567439780654e+03 1.0000000000000000e+00 5.8556895155011155e+00 1.3721209861990936e+01 1.3786530057129449e+01 
61 1 2 9.3436106860898072e+00 -3.2646619969223393e+03 1.0000000000000000e+00 5.8640757928312723e+00 1.4039838793792621e+01 1.3984894040059032e+01 
74 1 2 1.0191882917994855e+01 -3.1324635827474526e+03 1.0000000000000000e+00 6.5481745316762741e+00 1.3828333693748402e+01 1.4310632858061647e+01 
1 1 2 1.0263467253496728e+01 -2.7260279171872294e+03 1.0000000000000000e+00 6.0147709088794556e+00 1.3704596711855970e+01 1.3932232589471973e+01 
38 1 2 9.7501141356340941e+00 -3.8577125155303415e+03 1.0000000000000000e+00 6.6336246583343756e+00 1.3965421582371778e+01 1.4378033815401469e+01 
71 1 2 9.9543209706526969e+00 -3.1672303940811344e+03 1.0000000000000000e+00 5.9011332125421356e+00 1.3385544820372983e+01 1.4030073473002739e+01 
85 1 2 1.0013481412134203e+01 -1.5891415573906265e+03 1.0000000000000000e+00 6.0036513738001496e+00 1.3880997162634554e+01 1.3977659107521207e+01 
90 1 2 1.0124013156772202e+01 -3.0608481677159630e+03 1.0000000000000000e+00 6.5561161856692900e+00 1.3587037312629962e+01 1.3416603156740683e+01 
9 1 2 1.0011715148262748e+01 -3.6581504064140327e+03 1.0000000000000000e+00 6.5003680980878995e+00 1.3591899470226219e+01 1.3366415147538095e+01 
91 1 2 9.6200202595041588e+00 -3.5018087437322715e+03 1.0000000000000000e+00 6.5244824465772444e+00 1.4149907885934196e+01 1.3598354790152557e+01 
55 1 2 9.8515930266627230e+00 -3.3453091733126357e+03 1.0000000000000000e+00 6.5079652067343634e+00 1.3923179792223117e+01 1.3438486784539144e+01 
6 1 2 1.0349011301180660e+01 -3.0700537143697452e+03 1.0000000000000000e+00 6.1885393104955178e+00 1.3766471871187809e+01 1.4175617812234448e+01 
24 1 2 1.0055527010537313e+01 -2.5917550455546361e+03 1.0000000000000000e+00 6.4463349273485475e+00 1.4020233903882085e+01 1.4188796658836379e+01 
49 1 2 1.0019696901562218e+01 -3.3317312384733750e+03 1.0000000000000000e+00 6.5886695630469099e+00 1.3952190871815825e+01 1.3565549656652937e+01 
36 1 2 1.0363441509594530e+01 -3.0683766159255993e+03 1.0000000000000000e+00 6.1364007088526504e+00 1.3706245671560628e+01 1.4149515394531432e+01 
92 1 2 1.0012093061704725e+01 -2.0210053026871519e+03 1.0000000000000000e+00 6.6631224679397487e+00 1.3967170028191582e+01 1.4219994037032647e+01 
72 1 2 1.0312481186301525e+01 -2.5023528209334900e+03 1.0000000000000000e+00 6.0763699730868570e+00 1.3779409395316737e+01 1.3888607980334223e+01 
62 1 2 1.0654247658352034e+01 -3.6535554495573820e+03 1.0000000000000000e+00 6.5345202959032731e+00 1.3351143513840787e+01 1.4042753508615101e+01 
43 1 2 1.0151499934408386e+01 -1.5829068665792661e+03 1.0000000000000000e+00 6.2651433586188086e+00 1.3431987434583172e+01 1.4382104897767599e+01 
27 1 2 9.2957930330269569e+00 -2.6845217736163804e+03 1.0000000000000000e+00 6.1579815064624004e+00 1.4159753977394505e+01 1.3536614539623999e+01 
52 1 2 1.0099324951620643e+01 -2.6499473850922309e+03 1.0000000000000000e+00 6.6074776001537838e+00 1.3609047285320052e+01 1.4419125646168524e+01 
95 1 2 1.0193448943465338e+01 -2.6155949469412035e+03 1.0000000000000000e+00 6.0216803336059037e+00 1.3526086586254046e+01 1.4165988703481663e+01 
12 1 2 1.0279019450917916e+01 -2.8436977295479155e+03 1.0000000000000000e+00 6.2737665169297996e+00 1.3853216595253381e+01 1.3635070059647044e+01 
73 1 2 1.0001718694227231e+01 -2.9530378539779199e+03 1.0000000000000000e+00 6.4612002313290988e+00 1.4107533516634277e+01 1.3867280842186599e+01 
2 1 2 1.0441280364164877e+01 -3.3407342455348926e+03 1.0000000000000000e+00 6.1378813258964753e+00 1.3762961913301959e+01 1.3905525185693335e+01 
101 1 2 1.0142348524447518e+01 -2.0863270965863280e+03 1.0000000000000000e+00 6.1628065896790432e+00 1.3892284350158731e+01 1.4168369791426247e+01 
29 1 2 1.0412279888336187e+01 -2.7793823323708998e+03 1.0000000000000000e+00 6.2617803708886752e+00 1.3398255665323271e+01 1.3610597626000283e+01 
70 1 2 1.0186788466037513e+01 -3.3841674285144336e+03 1.0000000000000000e+00 6.5081978361991624e+00 1.4003679893799328e+01 1.4097148998924235e+01 
7 1 2 1.0207874664384784e+01 -2.7562212143066413e+03 1.0000000000000000e+00 6.5266212215617454e+00 1.3958203310632948e+01 1.3676561619292578e+01 
76 1 2 5.8028412924214567e-01 -1.1640704829285448e+03 1.0000000000000000e+00 1.3043278267089626e+01 1.0514588196820061e+00 9.1477645466807633e+00 
75 1 2 5.8028412924214567e-01 -1.4962356005695137e+03 1.0000000000000000e+00 1.3043278267089633e+01 1.0514588196820061e+00 9.1477645466807633e+00 
112 1 2 5.8028412924214567e-01 -1.4794155266063760e+03 1.0000000000000000e+00 1.3043278267089633e+01 1.0514588196820061e+00 9.1477645466807633e+00 
111 1 2 5.8028412924214567e-01 -1.5395852366571116e+03 1.0000000000000000e+00 1.3043278267089631e+01 1.0514588196820061e+00 9.1477645466807687e+00 
40 1 2 1.4507103231053642e+00 -3.2088906159236381e+03 1.0000000000000000e+00 7.6530163473661519e+00 2.9471239100288962e+00 1.2395391488706752e+01 
41 1 2 1.4507103231053642e+00 -3.1034802141685741e+03 1.0000000000000000e+00 7.6530163473661519e+00 2.9471239100288988e+00 1.2395391488706752e+01 
10 1 2 1.4507103231053642e+00 -2.6761540831718107e+03 1.0000000000000000e+00 7.6530163473661608e+00 2.9471239100289002e+00 1.2395391488706752e+01 
46 1 2 1.4507103231053642e+00 -2.6000319109106222e+03 1.0000000000000000e+00 7.6530163473661608e+00 2.9471239100288984e+00 1.2395391488706752e+01 
11 1 2 1.4507103231053642e+00 -2.8035825666685923e+03 1.0000000000000000e+00 7.6530163473661608e+00 2.9471239100288971e+00 1.2395391488706746e+01 
47 1 2 1.4507103231053642e+00 -2.9517051867246919e+03 1.0000000000000000e+00 7.6530163473661608e+00 2.9471239100288984e+00 1.2395391488706759e+01 
4 1 2 1.4507103231053642e+00 -3.4727273261276478e+03 1.0000000000000000e+00 7.6530163473661563e+00 2.9471239100288984e+00 1.2395391488706743e+01 
5 1 2 1.4507103231053642e+00 -3.0706465546075615e+03 1.0000000000000000e+00 7.6530163473661519e+00 2.9471239100288988e+00 1.2395391488706759e+01 
82 1 2 1.4507103231053642e+00 -2.6866043742490906e+03 1.0000000000000000e+00 7.6530163473661545e+00 2.9471239100288971e+00 1.2395391488706752e+01 
83 1 2 1.4507103231053642e+00 -2.4814555576538087e+03 1.0000000000000000e+00 7.6530163473661608e+00 2.9471239100288984e+00 1.2395391488706752e+01 
94 1 2 2.9014206462107284e-01 -1.1350009583589667e+03 1.0000000000000000e+00 1.0989479947745284e+01 1.2073232900370286e+01 1.0366975163015208e+01 
100 1 2 2.9014206462107284e-01 -1.3511109669390864e+03 1.0000000000000000e+00 1.0989479947745282e+01 1.2073232900370286e+01 1.0366975163015207e+01 
58 1 2 1.0081358880929400e+01 -2.2796004234453517e+03 1.0000000000000000e+00 6.8118776229289617e+00 1.3163398143240736e+01 1.3980085255215291e+01 
44 1 2 9.5231768214749906e+00 -2.6226100744150749e+03 1.0000000000000000e+00 6.7685733309118410e+00 1.3037242252362603e+01 1.3535239311935650e+01 
66 1 2 1.0131427491508154e+01 -2.6856702087171229e+03 1.0000000000000000e+00 6.8014694938947731e+00 1.3175976977430336e+01 1.3946198236848092e+01 
122 1 2 1.0070105238017234e+01 -2.5893225644157842e+03 1.0000000000000000e+00 6.8031426370781860e+00 1.3145058288374539e+01 1.3921965042217238e+01 
13 1 2 9.8864853345560153e+00 -2.9489080525899626e+03 1.0000000000000000e+00 6.9216642951392666e+00 1.3179857839701974e+01 1.3962995924909901e+01 
17 1 2 1.0111252693495974e+01 -2.7294202953592912e+03 1.0000000000000000e+00 6.8358386007906251e+00 1.3240376986605328e+01 1.4083759311622716e+01 
96 1 2 1.0051425533068983e+01 -2.6705332975993902e+03 1.0000000000000000e+00 6.6718925562821916e+00 1.3249776817973819e+01 1.3524061733433390e+01 
132 1 2 1.0227625357497864e+01 -2.4312984458959831e+03 1.0000000000000000e+00 6.9177762981013453e+00 1.3560200212114328e+01 1.3850775971198845e+01 
19 1 2 9.8759287896430585e+00 -2.6780856333074817e+03 1.0000000000000000e+00 6.9054391640408861e+00 1.3926657698051336e+01 1.3800277287254435e+01 
39 1 2 9.8549349321914441e+00 -3.5454647607283887e+03 1.0000000000000000e+00 6.8949104883572172e+00 1.3738326700151219e+01 1.4291839915540020e+01 
64 1 2 9.8807458344280636e+00 -3.1105626862706199e+03 1.0000000000000000e+00 7.0460164819061371e+00 1.3626731208969135e+01 1.3913646837099465e+01 
33 1 2 1.0088486337816709e+01 -3.0156143986520842e+03 1.0000000000000000e+00 6.9761616458975544e+00 1.3509722155709806e+01 1.3919713556268945e+01 
59 1 2 9.6003513866716528e+00 -2.1896185281805615e+03 1.0000000000000000e+00 6.7866309821919719e+00 1.3997364691913122e+01 1.3514847050899496e+01 
51 1 2 9.9916229470252773e+00 -3.3207263797737933e+03 1.0000000000000000e+00 6.9852289522251549e+00 1.3594569833412983e+01 1.3749631804848015e+01 
31 1 2 9.8802855052354559e+00 -3.2806761276531929e+03 1.0000000000000000e+00 6.7357011521062926e+00 1.3666948749667979e+01 1.3401861937516822e+01 
21 1 2 1.0056066343954889e+01 -3.6208588792554501e+03 1.0000000000000000e+00 6.7410090542689804e+00 1.3869734013827465e+01 1.3595622202730949e+01 
65 1 2 9.9099831736026900e+00 -3.2262768932026211e+03 1.0000000000000000e+00 7.0259432061501350e+00 1.3520610191521889e+01 1.3786982723560197e+01 
102 1 2 9.9100858081876808e+00 -2.7621764589861314e+03 1.0000000000000000e+00 7.0258700836002079e+00 1.3520807489642033e+01 1.3786776231074310e+01 
60 1 2 9.8591649815816655e+00 -2.5607020226742857e+03 1.0000000000000000e+00 6.9040377172088272e+00 1.3541525423316935e+01 1.3512469123219399e+01 
18 1 2 1.0121426127216536e+01 -3.1913135450581653e+03 1.0000000000000000e+00 6.8929526695586247e+00 1.3799139253602469e+01 1.3836715850826538e+01 
53 1 2 9.5544658948582928e+00 -2.6697806721202774e+03 1.0000000000000000e+00 6.8391993614903628e+00 1.4069304694892512e+01 1.4190911773616774e+01 
78 1 2 5.8028412924214567e-01 -2.8267966486734599e+03 1.0000000000000000e+00 1.1877432264353541e+01 1.8577491923174975e+01 1.5767818473220423e+01 
144 1 2 5.8028412924214567e-01 -2.6550792361735180e+03 1.0000000000000000e+00 1.1877432264353542e+01 1.8577491923174975e+01 1.5767818473220423e+01 
108 1 2 5.8028412924214567e-01 -1.8577566116862131e+03 1.0000000000000000e+00 1.1877432264353541e+01 1.8577491923174982e+01 1.5767818473220423e+01 
107 1 2 5.8028412924214567e-01 -1.8707431051681920e+03 1.0000000000000000e+00 1.1877432264353542e+01 1.8577491923174982e+01 1.5767818473220423e+01 
109 1 2 8.7042619386321851e-01 -3.7198756719702187e+03 1.0000000000000000e+00 1.6342341347912537e+01 1.7931963530246944e+00 1.7765575201298993e+00 
115 1 2 8.7042619386321851e-01 -3.0278854886813024e+03 1.0000000000000000e+00 1.6342341347912537e+01 1.7931963530246944e+00 1.7765575201298982e+00 
110 1 2 8.7042619386321851e-01 -2.6660929142014866e+03 1.0000000000000000e+00 1.6342341347912537e+01 1.7931963530246944e+00 1.7765575201298982e+00 
145 1 2 8.7042619386321851e-01 -3.6114821082057842e+03 1.0000000000000000e+00 1.6342341347912537e+01 1.7931963530246944e+00 1.7765575201298993e+00 
151 1 2 8.7042619386321851e-01 -3.1796623834557249e+03 1.0000000000000000e+00 1.6342341347912537e+01 1.7931963530246944e+00 1.7765575201298982e+00 
146 1 2 8.7042619386321851e-01 -2.4373807115212253e+03 1.0000000000000000e+00 1.6342341347912537e+01 1.7931963530246944e+00 1.7765575201298978e+00 
117 1 2 7.2535516155268209e-01 -2.7382929287605448e+03 1.0000000000000000e+00 1.6681532510122935e+01 5.4627766462868266e+00 5.6476999230886618e+00 
159 1 2 7.2535516155268209e-01 -2.1001703126661550e+03 1.0000000000000000e+00 1.6681532510122921e+01 5.4627766462868266e+00 5.6476999230886644e+00 
116 1 2 7.2535516155268209e-01 -2.8973642553118125e+03 1.0000000000000000e+00 1.6681532510122935e+01 5.4627766462868266e+00 5.6476999230886635e+00 
152 1 2 7.2535516155268209e-01 -2.7061504871391116e+03 1.0000000000000000e+00 1.6681532510122935e+01 5.4627766462868328e+00 5.6476999230886644e+00 
158 1 2 7.2535516155268209e-01 -2.1332856101023417e+03 1.0000000000000000e+00 1.6681532510122935e+01 5.4627766462868266e+00 5.6476999230886653e+00 
153 1 2 5.8028412924214567e-01 -2.3460038288304827e+03 1.0000000000000000e+00 1.7431535590040340e+01 2.3858433266355563e+00 8.6847471514156673e+00 
154 1 2 5.8028412924214567e-01 -2.4204091105868652e+03 1.0000000000000000e+00 1.7431535590040337e+01 2.3858433266355563e+00 8.6847471514156602e+00 
147 1 2 5.8028412924214567e-01 -2.4545573376033008e+03 1.0000000000000000e+00 1.7431535590040330e+01 2.3858433266355563e+00 8.6847471514156673e+00 
148 1 2 5.8028412924214567e-01 -2.6561646848850642e+03 1.0000000000000000e+00 1.7431535590040337e+01 2.3858433266355563e+00 8.6847471514156673e+00 
88 1 2 1.5957813554159006e+00 -2.3175848878514544e+03 1.0000000000000000e+00 1.5469931925183561e+01 6.6381422930742362e+00 1.1314802870750679e+01 
130 1 2 1.5957813554159006e+00 -2.8494513358786153e+03 1.0000000000000000e+00 1.5469931925183575e+01 6.6381422930742380e+00 1.1314802870750668e+01 
129 1 2 1.5957813554159006e+00 -3.0071893758984647e+03 1.0000000000000000e+00 1.5469931925183568e+01 6.6381422930742371e+00 1.1314802870750675e+01 
123 1 2 1.5957813554159006e+00 -2.4879260988589604e+03 1.0000000000000000e+00 1.5469931925183568e+01 6.6381422930742424e+00 1.1314802870750686e+01 
124 1 2 1.5957813554159006e+00 -2.5905980500482569e+03 1.0000000000000000e+00 1.5469931925183573e+01 6.6381422930742406e+00 1.1314802870750681e+01 
165 1 2 1.5957813554159006e+00 -3.0002164498268066e+03 1.0000000000000000e+00 1.5469931925183557e+01 6.6381422930742318e+00 1.1314802870750686e+01 
125 1 2 1.5957813554159006e+00 -2.4329671621549705e+03 1.0000000000000000e+00 1.5469931925183575e+01 6.6381422930742326e+00 1.1314802870750670e+01 
118 1 2 1.5957813554159006e+00 -2.5418863066784597e+03 1.0000000000000000e+00 1.5469931925183570e+01 6.6381422930742398e+00 1.1314802870750681e+01 
161 1 2 1.5957813554159006e+00 -2.6279850214978633e+03 1.0000000000000000e+00 1.5469931925183557e+01 6.6381422930742406e+00 1.1314802870750670e+01 
160 1 2 1.5957813554159006e+00 -2.7944014393832122e+03 1.0000000000000000e+00 1.5469931925183557e+01 6.6381422930742398e+00 1.1314802870750681e+01 
166 1 2 1.5957813554159006e+00 -2.6841296318700697e+03 1.0000000000000000e+00 1.5469931925183573e+01 6.6381422930742398e+00 1.1314802870750672e+01 
149 1 2 4.3521309693160926e-01 -1.8793990697182840e+03 1.0000000000000000e+00 1.8234402717218973e+01 2.1566714523473589e+00 1.4646834568071220e+01 
150 1 2 4.3521309693160926e-01 -1.9193105787496793e+03 1.0000000000000000e+00 1.8234402717218991e+01 2.1566714523473589e+00 1.4646834568071220e+01 
155 1 2 4.3521309693160926e-01 -1.8036701132322185e+03 1.0000000000000000e+00 1.8234402717218991e+01 2.1566714523473589e+00 1.4646834568071220e+01 
113 1 2 1.1605682584842913e+00 -2.3715843349936395e+03 1.0000000000000000e+00 1.3653509712337101e+01 3.6052146110077059e+00 1.5525445709571807e+01 
77 1 2 1.1605682584842913e+00 -2.4514004626735627e+03 1.0000000000000000e+00 1.3653509712337110e+01 3.6052146110077072e+00 1.5525445709571809e+01 
114 1 2 1.1605682584842913e+00 -2.1715372911016639e+03 1.0000000000000000e+00 1.3653509712337101e+01 3.6052146110077072e+00 1.5525445709571800e+01 
84 1 2 1.1605682584842913e+00 -2.8990800100622178e+03 1.0000000000000000e+00 1.3653509712337106e+01 3.6052146110077019e+00 1.5525445709571818e+01 
119 1 2 1.1605682584842913e+00 -2.7254636567668917e+03 1.0000000000000000e+00 1.3653509712337106e+01 3.6052146110077019e+00 1.5525445709571819e+01 
120 1 2 1.1605682584842913e+00 -2.7318006272942775e+03 1.0000000000000000e+00 1.3653509712337096e+01 3.6052146110077037e+00 1.5525445709571812e+01 
126 1 2 1.1605682584842913e+00 -2.7400942432418055e+03 1.0000000000000000e+00 1.3653509712337110e+01 3.6052146110077050e+00 1.5525445709571818e+01 
156 1 2 1.1605682584842913e+00 -2.6170247241742081e+03 1.0000000000000000e+00 1.3653509712337108e+01 3.6052146110077019e+00 1.5525445709571807e+01 
121 1 2 5.8028412924214567e-01 -2.4705523797920182e+03 1.0000000000000000e+00 1.7082145055346572e+01 8.0641579346179242e+00 1.9132831125817138e+01 
157 1 2 5.8028412924214567e-01 -2.3013794144214812e+03 1.0000000000000000e+00 1.7082145055346572e+01 8.0641579346179242e+00 1.9132831125817138e+01 
168 1 2 5.8028412924214567e-01 -3.0476559913237752e+03 1.0000000000000000e+00 1.7082145055346572e+01 8.0641579346179189e+00 1.9132831125817138e+01 
162 1 2 5.8028412924214567e-01 -3.0045793548886522e+03 1.0000000000000000e+00 1.7082145055346572e+01 8.0641579346179189e+00 1.9132831125817138e+01 
127 1 2 7.2535516155268209e-01 -2.8324706355230760e+03 1.0000000000000000e+00 1.5638942359735776e+01 1.2089973609685787e+01 2.7124309717126001e+00 
128 1 2 7.2535516155268209e-01 -2.7099572503824184e+03 1.0000000000000000e+00 1.5638942359735776e+01 1.2089973609685792e+01 2.7124309717126001e+00 
134 1 2 7.2535516155268209e-01 -2.6851033102078673e+03 1.0000000000000000e+00 1.5638942359735776e+01 1.2089973609685792e+01 2.7124309717126001e+00 
163 1 2 7.2535516155268209e-01 -2.5394941580617760e+03 1.0000000000000000e+00 1.5638942359735776e+01 1.2089973609685787e+01 2.7124309717126001e+00 
169 1 2 7.2535516155268209e-01 -2.4764587741301648e+03 1.0000000000000000e+00 1.5638942359735776e+01 1.2089973609685787e+01 2.7124309717126001e+00 
133 1 2 5.8028412924214567e-01 -1.9281071276557104e+03 1.0000000000000000e+00 1.3351092159389172e+01 1.5774619147934411e+01 9.7026420700137572e-01 
139 1 2 5.8028412924214567e-01 -1.9598258187309182e+03 1.0000000000000000e+00 1.3351092159389172e+01 1.5774619147934413e+01 9.7026420700137572e-01 
103 1 2 5.8028412924214567e-01 -1.8666712917808950e+03 1.0000000000000000e+00 1.3351092159389172e+01 1.5774619147934411e+01 9.7026420700137583e-01 
97 1 2 5.8028412924214567e-01 -1.7478604954761277e+03 1.0000000000000000e+00 1.3351092159389172e+01 1.5774619147934411e+01 9.7026420700137572e-01 
176 1 2 2.9014206462107284e-01 -1.4674444194833434e+03 1.0000000000000000e+00 1.7728856028332000e+01 1.6612600601330030e+01 2.7156630237165702e+00 
175 1 2 2.9014206462107284e-01 -1.4428029469613230e+03 1.0000000000000000e+00 1.7728856028331986e+01 1.6612600601330044e+01 2.7156630237165698e+00 
69 1 2 2.0309944523475099e+00 -2.8871796142612843e+03 1.0000000000000000e+00 1.5644515228159202e+01 1.3845543976004310e+01 6.8042324853752509e+00 
63 1 2 2.0309944523475099e+00 -3.1338707606842245e+03 1.0000000000000000e+00 1.5644515228159207e+01 1.3845543976004317e+01 6.8042324853752545e+00 
99 1 2 2.0309944523475099e+00 -3.0234339363926715e+03 1.0000000000000000e+00 1.5644515228159220e+01 1.3845543976004306e+01 6.8042324853752474e+00 
105 1 2 2.0309944523475099e+00 -3.4834801418287220e+03 1.0000000000000000e+00 1.5644515228159220e+01 1.3845543976004308e+01 6.8042324853752501e+00 
104 1 2 2.0309944523475099e+00 -3.0497414491999261e+03 1.0000000000000000e+00 1.5644515228159216e+01 1.3845543976004308e+01 6.8042324853752545e+00 
98 1 2 2.0309944523475099e+00 -3.4242351609526995e+03 1.0000000000000000e+00 1.5644515228159211e+01 1.3845543976004317e+01 6.8042324853752501e+00 
135 1 2 2.0309944523475099e+00 -2.5496202219936013e+03 1.0000000000000000e+00 1.5644515228159211e+01 1.3845543976004301e+01 6.8042324853752474e+00 
140 1 2 2.0309944523475099e+00 -3.1713520180234027e+03 1.0000000000000000e+00 1.5644515228159214e+01 1.3845543976004302e+01 6.8042324853752536e+00 
141 1 2 2.0309944523475099e+00 -3.2952152811809437e+03 1.0000000000000000e+00 1.5644515228159202e+01 1.3845543976004315e+01 6.8042324853752545e+00 
177 1 2 2.0309944523475099e+00 -3.2247630710226967e+03 1.0000000000000000e+00 1.5644515228159207e+01 1.3845543976004311e+01 6.8042324853752527e+00 
171 1 2 2.0309944523475099e+00 -2.6882301441921859e+03 1.0000000000000000e+00 1.5644515228159207e+01 1.3845543976004311e+01 6.8042324853752527e+00 
172 1 2 2.0309944523475099e+00 -3.2063723403546414e+03 1.0000000000000000e+00 1.5644515228159207e+01 1.3845543976004311e+01 6.8042324853752527e+00 
164 1 2 2.0309944523475099e+00 -1.9550566949916351e+03 1.0000000000000000e+00 1.5644515228159207e+01 1.3845543976004311e+01 6.8042324853752527e+00 
170 1 2 2.0309944523475099e+00 -1.7351673453655853e+03 1.0000000000000000e+00 1.5644515228159207e+01 1.3845543976004311e+01 6.8042324853752527e+00 
136 1 2 7.2535516155268209e-01 -2.4095476489050670e+03 1.0000000000000000e+00 1.4721992590515049e+01 1.5781650746982912e+01 1.1204168768135112e+01 
142 1 2 7.2535516155268209e-01 -2.4452607194561747e+03 1.0000000000000000e+00 1.4721992590515049e+01 1.5781650746982912e+01 1.1204168768135117e+01 
143 1 2 7.2535516155268209e-01 -2.8215664789416319e+03 1.0000000000000000e+00 1.4721992590515059e+01 1.5781650746982912e+01 1.1204168768135119e+01 
178 1 2 7.2535516155268209e-01 -2.0462201904460505e+03 1.0000000000000000e+00 1.4721992590515049e+01 1.5781650746982899e+01 1.1204168768135117e+01 
106 1 2 7.2535516155268209e-01 -2.2631326100821352e+03 1.0000000000000000e+00 1.4721992590515056e+01 1.5781650746982915e+01 1.1204168768135130e+01 
137 1 2 1.1605682584842913e+00 -1.7225866117522776e+03 1.0000000000000000e+00 1.6950779728896663e+01 1.4444255893463318e+01 1.6178652279459403e+01 
131 1 2 1.1605682584842913e+00 -1.7272545912303867e+03 1.0000000000000000e+00 1.6950779728896663e+01 1.4444255893463318e+01 1.6178652279459403e+01 
167 1 2 1.1605682584842913e+00 -2.4037790111439640e+03 1.0000000000000000e+00 1.6950779728896642e+01 1.4444255893463303e+01 1.6178652279459403e+01 
138 1 2 1.1605682584842913e+00 -2.5626819389573129e+03 1.0000000000000000e+00 1.6950779728896631e+01 1.4444255893463312e+01 1.6178652279459410e+01 
174 1 2 1.1605682584842913e+00 -2.2231547582814683e+03 1.0000000000000000e+00 1.6950779728896631e+01 1.4444255893463309e+01 1.6178652279459403e+01 
173 1 2 1.1605682584842913e+00 -2.7928200616548820e+03 1.0000000000000000e+00 1.6950779728896631e+01 1.4444255893463316e+01 1.6178652279459389e+01 
179 1 2 1.1605682584842913e+00 -2.5179668600984460e+03 1.0000000000000000e+00 1.6950779728896649e+01 1.4444255893463312e+01 1.6178652279459385e+01 
180 1 2 1.1605682584842913e+00 -2.2704041790463725e+03 1.0000000000000000e+00 1.6950779728896645e+01 1.4444255893463312e+01 1.6178652279459389e+01 

Velocities

50 2.0839527229219706e-01 1.0195688184157383e+00 2.9685693826601173e-01
57 2.7598054955822887e-01 1.1718685688026967e-01 3.9818199216420247e-01
16 5.9294612343516614e-02 -2.5037856393680002e-01 -9.1121376758685313e-02
25 -7.4453139658692866e-02 -4.2745166192216577e-01 3.2710955505729118e-03
79 4.0163772200596110e-01 2.9451580084750334e-01 -1.3851862434065035e-01
93 1.9079345618944724e-01 7.9470338106304883e-02 -1.2003179178390128e-01
22 -2.5517916951338937e-01 -1.7351611500441896e-01 1.1660399430172448e-01
3 -5.7301660237029595e-02 6.2834974994818119e-02 -3.5803227414865246e-01
68 -1.6204323139985977e-01 -1.6850443963618403e-01 -1.9430103957931427e-01
87 -9.7800333946794438e-02 2.3632121398109651e-01 -1.9423419543642786e-01
45 2.1856600043104940e-01 2.3729748089646459e-02 2.7232099808599319e-02
48 -6.5089858284439917e-02 -9.8031675739576260e-02 4.8125036776299708e-02
54 -2.2216353571544323e-02 -1.5695053793968388e-02 1.7788826320203047e-01
34 -3.2995246771397474e-01 -2.8214738458011805e-02 -1.6600515545194969e-01
15 4.2901161645887759e-01 -5.0653706310434243e-01 3.7646526745144510e-01
8 -8.9267080761592232e-02 -3.5483574713684524e-01 3.4501438002468132e-01
37 -1.5987354069557244e-01 -6.1474408676668379e-01 -3.0098661999513165e-01
14 -6.3176660137026086e-01 -3.4758014985342356e-01 -7.1358646155997879e-02
23 -3.6270053867248070e-01 3.4226342680386979e-01 -3.5166138570295458e-01
28 1.4379882777907396e-01 2.4077348540567614e-01 6.2335818938366837e-02
86 -1.7334130667960072e-02 3.4572324903618379e-01 -2.5734095279258351e-01
67 -4.2778435623852051e-01 2.2503721524360215e-01 2.5751391136640811e-01
89 -1.4961736559218508e-01 4.0502775545020098e-01 -2.2614861073883252e-01
81 -1.4994986666511481e-01 -5.0107279977822394e-01 5.2372893989005842e-01
35 2.3037624326711417e-01 4.0560170359574133e-01 -5.4057361629707323e-01
26 -2.7381422425131824e-01 4.0062948642757218e-01 -7.4273378973378282e-02
20 -5.7420002501060974e-01 -8.4441871203288804e-02 -5.9915819275325105e-02
30 -4.4224066810567592e-01 -1.2091310378401260e-01 -7.1293692992825863e-01
80 2.8916564854373811e-01 3.0699445908520928e-01 3.7338379850763465e-01
32 2.9484794809941145e-01 2.4439923066648478e-01 8.1513650978201596e-02
42 2.6257343933876014e-03 8.3545612073581105e-02 -1.8653309177954429e-02
56 -2.2636827539068077e-01 -7.7323285585563742e-02 5.7668828660484051e-01
61 -4.6633541768531667e-01 1.5896016806128579e-01 5.6273794693974599e-01
74 3.2499717779790122e-01 5.4161345530437499e-01 -2.2972497741152043e-01
1 -9.8850960677373853e-02 4.0407714992185167e-01 -2.4250258689486323e-01
38 6.2293079122346406e-01 4.1426718009899749e-01 -3.2021460611994157e-01
71 2.6673836126143369e-01 -4.1428903966503172e-01 2.0759541860743355e-01
85 -3.8674965167559759e-03 -1.8083690604585509e-01 3.8836920617845394e-01
90 -4.5329971596546076e-01 -3.6517143305267799e-02 3.2329154940272442e-01
9 -2.6638981994389566e-01 1.0977102964719503e-01 -1.8954841037526293e-01
91 -9.1834636848312275e-03 3.0969406423178143e-02 2.6638592221563984e-01
55 5.1100592307166577e-02 1.9296535885181559e-01 2.0692722775924835e-01