LAMMPS data file via write_data, version 30 Jul 2016, timestep = 50400000

180 atoms
2 atom types

0.0000000000000000e+00 2.0000000000000000e+01 xlo xhi
0.0000000000000000e+00 2.0000000000000000e+01 ylo yhi
0.0000000000000000e+00 2.0000000000000000e+01 zlo zhi

Masses

1 3.896
2 4.31

Atoms # meso-molecular

32 1 2 9.9539775703763329e+00 -2.8755672419315788e+03 1.0000000000000000e+00 5.9737662018878117e+00 1.3318537344376226e+01 1.3656159299033163e+01 
42 1 2 9.9747787899514737e+00 -3.0786317919464823e+03 1.0000000000000000e+00 6.0559274457778542e+00 1.3118691326028021e+01 1.3878784113963979e+01 
74 1 2 9.7287997643289543e+00 -3.1303441705832702e+03 1.0000000000000000e+00 6.0812050228327319e+00 1.3168325232834002e+01 1.4318476323376652e+01 
70 1 2 1.0318235268759087e+01 -3.3829131580748231e+03 1.0000000000000000e+00 6.3023570745204225e+00 1.3204866069260822e+01 1.3677495967683891e+01 
12 1 2 1.0236463650679488e+01 -2.8427155797610239e+03 1.0000000000000000e+00 6.0791282887153706e+00 1.3329026570287041e+01 1.3699201455480463e+01 
92 1 2 1.0080500337976325e+01 -2.0196453755047867e+03 1.0000000000000000e+00 6.0346470937980667e+00 1.3290368554739736e+01 1.3678452734582249e+01 
21 1 2 1.0313703733465779e+01 -3.6189043501362171e+03 1.0000000000000000e+00 6.3200069994085526e+00 1.3121479196242701e+01 1.3969855195583619e+01 
14 1 2 1.0073632992461391e+01 -2.4867242453592648e+03 1.0000000000000000e+00 6.0027604618290473e+00 1.3249779403212283e+01 1.3806112196455253e+01 
19 1 2 1.0321056056668933e+01 -2.6750478115636024e+03 1.0000000000000000e+00 6.4977252209792038e+00 1.3129233627173640e+01 1.3786038316124413e+01 
81 1 2 9.9277502160423285e+00 -1.2721580940928463e+03 1.0000000000000000e+00 6.2485332921355505e+00 1.3211229085420877e+01 1.4367045696889356e+01 
89 1 2 1.0114238853503005e+01 -2.7211578725983391e+03 1.0000000000000000e+00 6.5233483316700189e+00 1.3082693515635702e+01 1.4154256121488732e+01 
17 1 2 9.7109489019741293e+00 -2.7267938589871333e+03 1.0000000000000000e+00 6.1864292324745556e+00 1.2974098045083311e+01 1.3703932163298438e+01 
79 1 2 9.8409618522505262e+00 -2.0769855415224765e+03 1.0000000000000000e+00 6.0123985422512067e+00 1.3100961809199232e+01 1.3847893199955212e+01 
86 1 2 9.7438932935503182e+00 -2.4477534947353265e+03 1.0000000000000000e+00 5.9469070369002415e+00 1.3190608488704457e+01 1.3684270802212382e+01 
87 1 2 1.0048913328732899e+01 -1.8389045977205167e+03 1.0000000000000000e+00 6.5118188200858986e+00 1.3021595282245805e+01 1.4069788665003648e+01 
91 1 2 1.0364009631274454e+01 -3.5004131815897799e+03 1.0000000000000000e+00 6.5795389731901714e+00 1.3277115239180842e+01 1.4215260842881595e+01 
1 1 2 1.0166230128108094e+01 -2.7248917789077063e+03 1.0000000000000000e+00 6.4514092505501575e+00 1.3041867676599779e+01 1.3958729776723542e+01 
15 1 2 9.7696888122934542e+00 -3.3145786031899333e+03 1.0000000000000000e+00 5.9942656401872707e+00 1.3254189766145146e+01 1.3561064705584304e+01 
58 1 2 1.0280206719723299e+01 -2.2779720928932511e+03 1.0000000000000000e+00 6.3997893500128908e+00 1.3304574638450880e+01 1.3535172301155391e+01 
2 1 2 1.0444156649131793e+01 -3.3395051011244427e+03 1.0000000000000000e+00 6.4055382626662754e+00 1.3344335894822148e+01 1.3599310308568164e+01 
25 1 2 1.0182091108496838e+01 -3.1983294946774431e+03 1.0000000000000000e+00 6.3018117176276176e+00 1.3393628049928964e+01 1.3469783356998708e+01 
30 1 2 1.0183137378952869e+01 -3.2515668721687111e+03 1.0000000000000000e+00 6.5490205009870541e+00 1.3578036375007464e+01 1.4406025244100332e+01 
38 1 2 1.0066225415905311e+01 -3.8549827158020039e+03 1.0000000000000000e+00 6.1057533802288351e+00 1.3541388211828133e+01 1.4346320387723740e+01 
39 1 2 1.0653745861362511e+01 -3.5428207797759660e+03 1.0000000000000000e+00 6.4221439994691263e+00 1.3431817918163599e+01 1.4149633916837411e+01 
37 1 2 9.7610775181337921e+00 -2.7527154309596026e+03 1.0000000000000000e+00 6.0771085906370335e+00 1.3604512256403584e+01 1.3394249616195268e+01 
50 1 2 9.5764528784930629e+00 -2.5694327701636803e+03 1.0000000000000000e+00 6.5380379429173816e+00 1.4107826253006692e+01 1.4333260639951730e+01 
95 1 2 1.0178085250372890e+01 -2.6145410499371555e+03 1.0000000000000000e+00 6.2359340805229504e+00 1.3812372496937670e+01 1.3555239723099358e+01 
22 1 2 1.0141018144042899e+01 -3.5160004112679408e+03 1.0000000000000000e+00 6.3111870075079572e+00 1.3563556319908676e+01 1.3426945603225334e+01 
60 1 2 9.4452236564737984e+00 -2.5570599796735587e+03 1.0000000000000000e+00 6.2714019173740132e+00 1.4131901637593591e+01 1.4339411951536459e+01 
90 1 2 1.0716098780437518e+01 -3.0593932457943883e+03 1.0000000000000000e+00 6.4943950593189861e+00 1.3432715573038744e+01 1.3757220682942009e+01 
85 1 2 9.6881419567841132e+00 -1.5873042617009339e+03 1.0000000000000000e+00 6.2688513020792636e+00 1.4043435900963715e+01 1.3513963584739738e+01 
93 1 2 9.9880744512569706e+00 -2.3901781542525450e+03 1.0000000000000000e+00 5.9043498934270957e+00 1.3632540722575037e+01 1.4098554007875350e+01 
65 1 2 9.9815342353981240e+00 -3.2246171958035020e+03 1.0000000000000000e+00 6.0162562962183737e+00 1.3736619953235277e+01 1.4254643515903464e+01 
28 1 2 1.0152523020569568e+01 -3.1320334583942290e+03 1.0000000000000000e+00 6.0950409332932756e+00 1.3912141878459941e+01 1.3849374565016987e+01 
132 1 2 9.9516941322618671e+00 -2.4298594881237600e+03 1.0000000000000000e+00 5.9162167648186124e+00 1.3778632934893139e+01 1.4028400314305749e+01 
20 1 2 1.0016221097732558e+01 -3.3623675592207173e+03 1.0000000000000000e+00 5.9168089060404103e+00 1.3346127417189139e+01 1.3964877785210581e+01 
18 1 2 9.8044654197562515e+00 -3.1893635281025618e+03 1.0000000000000000e+00 6.2580101594922555e+00 1.3955653101724648e+01 1.4365239393799495e+01 
48 1 2 1.0315538686594719e+01 -2.6314989071550021e+03 1.0000000000000000e+00 6.6026580555739312e+00 1.3958221008616842e+01 1.3973968549913181e+01 
55 1 2 1.0259701538987651e+01 -3.3444151369132451e+03 1.0000000000000000e+00 6.0035035422816092e+00 1.3470861646301767e+01 1.4068452507988656e+01 
101 1 2 1.0106418170684956e+01 -2.0849887477436391e+03 1.0000000000000000e+00 6.0088366834860922e+00 1.3817230389006971e+01 1.3790115706950839e+01 
49 1 2 9.9062055220355631e+00 -3.3295080745590667e+03 1.0000000000000000e+00 6.0916437901351683e+00 1.3899503008384018e+01 1.3592017187600936e+01 
80 1 2 9.6739560400779325e+00 -2.2804164324717335e+03 1.0000000000000000e+00 6.0328826080206284e+00 1.3911845560914754e+01 1.4310831297053486e+01 
59 1 2 1.0052674569114176e+01 -2.1883905593467757e+03 1.0000000000000000e+00 6.6493427420118199e+00 1.3998074059911499e+01 1.3688204507448123e+01 
56 1 2 9.9969334856852488e+00 -3.0327675275771244e+03 1.0000000000000000e+00 6.0511683789490709e+00 1.3406515439638174e+01 1.4308653658577333e+01 
23 1 2 1.0294438630334477e+01 -2.1945115944576478e+03 1.0000000000000000e+00 6.0067412678619174e+00 1.3422624977553983e+01 1.3882727713239175e+01 
24 1 2 1.0293571636912924e+01 -2.5906715236713185e+03 1.0000000000000000e+00 6.3359725294982363e+00 1.3984793870567801e+01 1.3948212965122403e+01 
7 1 2 1.0066469000089254e+01 -2.7541168851863958e+03 1.0000000000000000e+00 6.2655865568743820e+00 1.4057908817344156e+01 1.3899341419861738e+01 
3 1 2 1.0196273191058332e+01 -3.4920789960655184e+03 1.0000000000000000e+00 5.9689993438265123e+00 1.3461060731374324e+01 1.4039825335255614e+01 
102 1 2 9.9816374657991798e+00 -2.7605174295466300e+03 1.0000000000000000e+00 6.0160336318214958e+00 1.3736948672839024e+01 1.4254114187714180e+01 
16 1 2 9.7743538280350766e+00 -2.9038851327143761e+03 1.0000000000000000e+00 5.9036054403710061e+00 1.3895050289645173e+01 1.3884035721577556e+01 
26 1 2 1.0247798852115041e+01 -2.8263401743356962e+03 1.0000000000000000e+00 6.2913191609289454e+00 1.3962193689532612e+01 1.4084172296170001e+01 
62 1 2 9.9636089852959060e+00 -3.6516758656985999e+03 1.0000000000000000e+00 5.9471569718311290e+00 1.3573239783904111e+01 1.4223608139318234e+01 
29 1 2 1.0309355545073952e+01 -2.7770477793070672e+03 1.0000000000000000e+00 6.5937538658046284e+00 1.3876204255474397e+01 1.4182987005858491e+01 
76 1 2 5.8028412924214567e-01 -1.1640704829285448e+03 1.0000000000000000e+00 1.3043278267089626e+01 1.0514588196820061e+00 9.1477645466807633e+00 
75 1 2 5.8028412924214567e-01 -1.4962356005695137e+03 1.0000000000000000e+00 1.3043278267089633e+01 1.0514588196820061e+00 9.1477645466807633e+00 
112 1 2 5.8028412924214567e-01 -1.4794155266063760e+03 1.0000000000000000e+00 1.3043278267089633e+01 1.0514588196820061e+00 9.1477645466807633e+00 
111 1 2 5.8028412924214567e-01 -1.5395852366571116e+03 1.0000000000000000e+00 1.3043278267089631e+01 1.0514588196820061e+00 9.1477645466807687e+00 
40 1 2 1.4507103231053642e+00 -3.2088906159236381e+03 1.0000000000000000e+00 7.6530163473661519e+00 2.9471239100288962e+00 1.2395391488706752e+01 
41 1 2 1.4507103231053642e+00 -3.1034802141685741e+03 1.0000000000000000e+00 7.6530163473661519e+00 2.9471239100288988e+00 1.2395391488706752e+01 
10 1 2 1.4507103231053642e+00 -2.6761540831718107e+03 1.0000000000000000e+00 7.6530163473661608e+00 2.9471239100289002e+00 1.2395391488706752e+01 
46 1 2 1.4507103231053642e+00 -2.6000319109106222e+03 1.0000000000000000e+00 7.6530163473661608e+00 2.9471239100288984e+00 1.2395391488706752e+01 
11 1 2 1.4507103231053642e+00 -2.8035825666685923e+03 1.0000000000000000e+00 7.6530163473661608e+00 2.9471239100288971e+00 1.2395391488706746e+01 
47 1 2 1.4507103231053642e+00 -2.9517051867246919e+03 1.0000000000000000e+00 7.6530163473661608e+00 2.9471239100288984e+00 1.2395391488706759e+01 
4 1 2 1.4507103231053642e+00 -3.4727273261276478e+03 1.0000000000000000e+00 7.6530163473661563e+00 2.9471239100288984e+00 1.2395391488706743e+01 
5 1 2 1.4507103231053642e+00 -3.0706465546075615e+03 1.0000000000000000e+00 7.6530163473661519e+00 2.9471239100288988e+00 1.2395391488706759e+01 
82 1 2 1.4507103231053642e+00 -2.6866043742490906e+03 1.0000000000000000e+00 7.6530163473661545e+00 2.9471239100288971e+00 1.2395391488706752e+01 
83 1 2 1.4507103231053642e+00 -2.4814555576538087e+03 1.0000000000000000e+00 7.6530163473661608e+00 2.9471239100288984e+00 1.2395391488706752e+01 
94 1 2 2.9014206462107284e-01 -1.1350009583589667e+03 1.0000000000000000e+00 1.0989479947745284e+01 1.2073232900370286e+01 1.0366975163015208e+01 
100 1 2 2.9014206462107284e-01 -1.3511109669390864e+03 1.0000000000000000e+00 1.0989479947745282e+01 1.2073232900370286e+01 1.0366975163015207e+01 
73 1 2 1.0101141469322911e+01 -2.9514633742222259e+03 1.0000000000000000e+00 6.7102139131152274e+00 1.3324742577020805e+01 1.3519331657248969e+01 
61 1 2 8.9257941800290688e+00 -3.2589562816246894e+03 1.0000000000000000e+00 7.0634275492348859e+00 1.2936920683541715e+01 1.3771207463265720e+01 
35 1 2 1.0236371596696689e+01 -2.9476915405392688e+03 1.0000000000000000e+00 6.7555948657788711e+00 1.3210819678792040e+01 1.3779126377167806e+01 
57 1 2 9.7020593804930542e+00 -3.3741432580497385e+03 1.0000000000000000e+00 6.8775740564062326e+00 1.3158727085358883e+01 1.3593953446348696e+01 
71 1 2 1.0032460476371480e+01 -3.1652175166149914e+03 1.0000000000000000e+00 6.7196850869572753e+00 1.3147008070081005e+01 1.4192352836171830e+01 
36 1 2 1.0167129180718860e+01 -3.0649092945474763e+03 1.0000000000000000e+00 6.8631065319882198e+00 1.3373784648081134e+01 1.4150775568571101e+01 
66 1 2 1.0079175733620882e+01 -2.6839816346499424e+03 1.0000000000000000e+00 6.9461608050844257e+00 1.3391573816844975e+01 1.4058354874726387e+01 
6 1 2 1.0449923693107472e+01 -3.0682403961715140e+03 1.0000000000000000e+00 6.7357721265192634e+00 1.3518942772537505e+01 1.4166374946274791e+01 
122 1 2 9.8741996163250434e+00 -2.5869899588395069e+03 1.0000000000000000e+00 6.7138798105979305e+00 1.4079331815552010e+01 1.3791385806850768e+01 
96 1 2 9.3215197217430550e+00 -2.6683707447810070e+03 1.0000000000000000e+00 7.1769683656156280e+00 1.3667488254950785e+01 1.4166309833541755e+01 
45 1 2 9.3372657415843481e+00 -3.3971588003235661e+03 1.0000000000000000e+00 6.8622412854570021e+00 1.4197546619725964e+01 1.3936664894201456e+01 
8 1 2 9.5644811578824154e+00 -2.5533113145759639e+03 1.0000000000000000e+00 7.1201621169595031e+00 1.3351649723064279e+01 1.4033961269397999e+01 
68 1 2 1.0097694154438068e+01 -2.6462459546701220e+03 1.0000000000000000e+00 6.6957536144734462e+00 1.3843962028950196e+01 1.3560296267445732e+01 
31 1 2 1.0189755825933497e+01 -3.2783193763448107e+03 1.0000000000000000e+00 6.7741540470330923e+00 1.3885599525676328e+01 1.3764907623035063e+01 
52 1 2 9.4790793116724377e+00 -2.6481899213402044e+03 1.0000000000000000e+00 7.0540091167040293e+00 1.3587120239375031e+01 1.4330042503716829e+01 
43 1 2 9.8305441932921553e+00 -1.5818978159097314e+03 1.0000000000000000e+00 7.0168124153362719e+00 1.3690714819454762e+01 1.3702711323921481e+01 
51 1 2 9.9743303222970692e+00 -3.3185816176245776e+03 1.0000000000000000e+00 6.9804497353595849e+00 1.3552360314478447e+01 1.3698036327820791e+01 
9 1 2 1.0382463355776490e+01 -3.6561817875374900e+03 1.0000000000000000e+00 6.8427048356288518e+00 1.3496452734600050e+01 1.4033631825326960e+01 
72 1 2 1.0149458085212590e+01 -2.5005153233514197e+03 1.0000000000000000e+00 6.9451244699525656e+00 1.3587241218294835e+01 1.3799911198675911e+01 
27 1 2 1.0425085305412281e+01 -2.6830204793092494e+03 1.0000000000000000e+00 6.7958384086465689e+00 1.3589106780814054e+01 1.4097988641229792e+01 
44 1 2 9.9227600859753800e+00 -2.6214677221729189e+03 1.0000000000000000e+00 7.0073387008660966e+00 1.3498371756553283e+01 1.3722856865933659e+01 
34 1 2 1.0295204199170964e+01 -3.0568154499899615e+03 1.0000000000000000e+00 6.8690954955435632e+00 1.3709517748266427e+01 1.3963146296341682e+01 
33 1 2 1.0008434400004626e+01 -3.0138862086111280e+03 1.0000000000000000e+00 6.8786642624117782e+00 1.3840459684577892e+01 1.3705157588941820e+01 
67 1 2 9.9817239116293628e+00 -3.0079036998513470e+03 1.0000000000000000e+00 6.9033745326027400e+00 1.3360110359392394e+01 1.3626438858329408e+01 
13 1 2 1.0292763756937022e+01 -2.9472269365835609e+03 1.0000000000000000e+00 6.6906412189011650e+00 1.3927645055655931e+01 1.3957367720066411e+01 
64 1 2 9.2526565376734968e+00 -3.1086816466500736e+03 1.0000000000000000e+00 7.2008893745561426e+00 1.3810975659232641e+01 1.3932786676240349e+01 
54 1 2 9.3022608219692025e+00 -2.8974959042419932e+03 1.0000000000000000e+00 6.9097239643501025e+00 1.3498006685748351e+01 1.4545763444331714e+01 
53 1 2 9.2528185090728492e+00 -2.6654027294261500e+03 1.0000000000000000e+00 7.0607176895527228e+00 1.3886246310020274e+01 1.3545753884301350e+01 
107 1 2 5.8028412924214567e-01 -1.8707431051681920e+03 1.0000000000000000e+00 1.1877432264353542e+01 1.8577491923174982e+01 1.5767818473220423e+01 
108 1 2 5.8028412924214567e-01 -1.8577566116862131e+03 1.0000000000000000e+00 1.1877432264353541e+01 1.8577491923174982e+01 1.5767818473220423e+01 
78 1 2 5.8028412924214567e-01 -2.8267966486734599e+03 1.0000000000000000e+00 1.1877432264353541e+01 1.8577491923174975e+01 1.5767818473220423e+01 
144 1 2 5.8028412924214567e-01 -2.6550792361735180e+03 1.0000000000000000e+00 1.1877432264353542e+01 1.8577491923174975e+01 1.5767818473220423e+01 
109 1 2 8.7042619386321851e-01 -3.7198756719702187e+03 1.0000000000000000e+00 1.6342341347912537e+01 1.7931963530246944e+00 1.7765575201298993e+00 
115 1 2 8.7042619386321851e-01 -3.0278854886813024e+03 1.0000000000000000e+00 1.6342341347912537e+01 1.7931963530246944e+00 1.7765575201298982e+00 
110 1 2 8.7042619386321851e-01 -2.6660929142014866e+03 1.0000000000000000e+00 1.6342341347912537e+01 1.7931963530246944e+00 1.7765575201298982e+00 
145 1 2 8.7042619386321851e-01 -3.6114821082057842e+03 1.0000000000000000e+00 1.6342341347912537e+01 1.7931963530246944e+00 1.7765575201298993e+00 
151 1 2 8.7042619386321851e-01 -3.1796623834557249e+03 1.0000000000000000e+00 1.6342341347912537e+01 1.7931963530246944e+00 1.7765575201298982e+00 
146 1 2 8.7042619386321851e-01 -2.4373807115212253e+03 1.0000000000000000e+00 1.6342341347912537e+01 1.7931963530246944e+00 1.7765575201298978e+00 
117 1 2 7.2535516155268209e-01 -2.7382929287605448e+03 1.0000000000000000e+00 1.6681532510122935e+01 5.4627766462868266e+00 5.6476999230886618e+00 
159 1 2 7.2535516155268209e-01 -2.1001703126661550e+03 1.0000000000000000e+00 1.6681532510122921e+01 5.4627766462868266e+00 5.6476999230886644e+00 
116 1 2 7.2535516155268209e-01 -2.8973642553118125e+03 1.0000000000000000e+00 1.6681532510122935e+01 5.4627766462868266e+00 5.6476999230886635e+00 
152 1 2 7.2535516155268209e-01 -2.7061504871391116e+03 1.0000000000000000e+00 1.6681532510122935e+01 5.4627766462868328e+00 5.6476999230886644e+00 
158 1 2 7.2535516155268209e-01 -2.1332856101023417e+03 1.0000000000000000e+00 1.6681532510122935e+01 5.4627766462868266e+00 5.6476999230886653e+00 
153 1 2 5.8028412924214567e-01 -2.3460038288304827e+03 1.0000000000000000e+00 1.7431535590040340e+01 2.3858433266355563e+00 8.6847471514156673e+00 
154 1 2 5.8028412924214567e-01 -2.4204091105868652e+03 1.0000000000000000e+00 1.7431535590040337e+01 2.3858433266355563e+00 8.6847471514156602e+00 
147 1 2 5.8028412924214567e-01 -2.4545573376033008e+03 1.0000000000000000e+00 1.7431535590040330e+01 2.3858433266355563e+00 8.6847471514156673e+00 
148 1 2 5.8028412924214567e-01 -2.6561646848850642e+03 1.0000000000000000e+00 1.7431535590040337e+01 2.3858433266355563e+00 8.6847471514156673e+00 
88 1 2 1.5957813554159006e+00 -2.3175848878514544e+03 1.0000000000000000e+00 1.5469931925183561e+01 6.6381422930742362e+00 1.1314802870750679e+01 
130 1 2 1.5957813554159006e+00 -2.8494513358786153e+03 1.0000000000000000e+00 1.5469931925183575e+01 6.6381422930742380e+00 1.1314802870750668e+01 
129 1 2 1.5957813554159006e+00 -3.0071893758984647e+03 1.0000000000000000e+00 1.5469931925183568e+01 6.6381422930742371e+00 1.1314802870750675e+01 
123 1 2 1.5957813554159006e+00 -2.4879260988589604e+03 1.0000000000000000e+00 1.5469931925183568e+01 6.6381422930742424e+00 1.1314802870750686e+01 
124 1 2 1.5957813554159006e+00 -2.5905980500482569e+03 1.0000000000000000e+00 1.5469931925183573e+01 6.6381422930742406e+00 1.1314802870750681e+01 
165 1 2 1.5957813554159006e+00 -3.0002164498268066e+03 1.0000000000000000e+00 1.5469931925183557e+01 6.6381422930742318e+00 1.1314802870750686e+01 
125 1 2 1.5957813554159006e+00 -2.4329671621549705e+03 1.0000000000000000e+00 1.5469931925183575e+01 6.6381422930742326e+00 1.1314802870750670e+01 
118 1 2 1.5957813554159006e+00 -2.5418863066784597e+03 1.0000000000000000e+00 1.5469931925183570e+01 6.6381422930742398e+00 1.1314802870750681e+01 
161 1 2 1.5957813554159006e+00 -2.6279850214978633e+03 1.0000000000000000e+00 1.5469931925183557e+01 6.6381422930742406e+00 1.1314802870750670e+01 
160 1 2 1.5957813554159006e+00 -2.7944014393832122e+03 1.0000000000000000e+00 1.5469931925183557e+01 6.6381422930742398e+00 1.1314802870750681e+01 
166 1 2 1.5957813554159006e+00 -2.6841296318700697e+03 1.0000000000000000e+00 1.5469931925183573e+01 6.6381422930742398e+00 1.1314802870750672e+01 
149 1 2 4.3521309693160926e-01 -1.8793990697182840e+03 1.0000000000000000e+00 1.8234402717218973e+01 2.1566714523473589e+00 1.4646834568071220e+01 
150 1 2 4.3521309693160926e-01 -1.9193105787496793e+03 1.0000000000000000e+00 1.8234402717218991e+01 2.1566714523473589e+00 1.4646834568071220e+01 
155 1 2 4.3521309693160926e-01 -1.8036701132322185e+03 1.0000000000000000e+00 1.8234402717218991e+01 2.1566714523473589e+00 1.4646834568071220e+01 
113 1 2 1.1605682584842913e+00 -2.3715843349936395e+03 1.0000000000000000e+00 1.3653509712337101e+01 3.6052146110077059e+00 1.5525445709571807e+01 
77 1 2 1.1605682584842913e+00 -2.4514004626735627e+03 1.0000000000000000e+00 1.3653509712337110e+01 3.6052146110077072e+00 1.5525445709571809e+01 
114 1 2 1.1605682584842913e+00 -2.1715372911016639e+03 1.0000000000000000e+00 1.3653509712337101e+01 3.6052146110077072e+00 1.5525445709571800e+01 
84 1 2 1.1605682584842913e+00 -2.8990800100622178e+03 1.0000000000000000e+00 1.3653509712337106e+01 3.6052146110077019e+00 1.5525445709571818e+01 
119 1 2 1.1605682584842913e+00 -2.7254636567668917e+03 1.0000000000000000e+00 1.3653509712337106e+01 3.6052146110077019e+00 1.5525445709571819e+01 
120 1 2 1.1605682584842913e+00 -2.7318006272942775e+03 1.0000000000000000e+00 1.3653509712337096e+01 3.6052146110077037e+00 1.5525445709571812e+01 
126 1 2 1.1605682584842913e+00 -2.7400942432418055e+03 1.0000000000000000e+00 1.3653509712337110e+01 3.6052146110077050e+00 1.5525445709571818e+01 
156 1 2 1.1605682584842913e+00 -2.6170247241742081e+03 1.0000000000000000e+00 1.3653509712337108e+01 3.6052146110077019e+00 1.5525445709571807e+01 
121 1 2 5.8028412924214567e-01 -2.4705523797920182e+03 1.0000000000000000e+00 1.7082145055346572e+01 8.0641579346179242e+00 1.9132831125817138e+01 
157 1 2 5.8028412924214567e-01 -2.3013794144214812e+03 1.0000000000000000e+00 1.7082145055346572e+01 8.0641579346179242e+00 1.9132831125817138e+01 
168 1 2 5.8028412924214567e-01 -3.0476559913237752e+03 1.0000000000000000e+00 1.7082145055346572e+01 8.0641579346179189e+00 1.9132831125817138e+01 
162 1 2 5.8028412924214567e-01 -3.0045793548886522e+03 1.0000000000000000e+00 1.7082145055346572e+01 8.0641579346179189e+00 1.9132831125817138e+01 
127 1 2 7.2535516155268209e-01 -2.8324706355230760e+03 1.0000000000000000e+00 1.5638942359735776e+01 1.2089973609685787e+01 2.7124309717126001e+00 
128 1 2 7.2535516155268209e-01 -2.7099572503824184e+03 1.0000000000000000e+00 1.5638942359735776e+01 1.2089973609685792e+01 2.7124309717126001e+00 
134 1 2 7.2535516155268209e-01 -2.6851033102078673e+03 1.0000000000000000e+00 1.5638942359735776e+01 1.2089973609685792e+01 2.7124309717126001e+00 
163 1 2 7.2535516155268209e-01 -2.5394941580617760e+03 1.0000000000000000e+00 1.5638942359735776e+01 1.2089973609685787e+01 2.7124309717126001e+00 
169 1 2 7.2535516155268209e-01 -2.4764587741301648e+03 1.0000000000000000e+00 1.5638942359735776e+01 1.2089973609685787e+01 2.7124309717126001e+00 
133 1 2 5.8028412924214567e-01 -1.9281071276557104e+03 1.0000000000000000e+00 1.3351092159389172e+01 1.5774619147934411e+01 9.7026420700137572e-01 
139 1 2 5.8028412924214567e-01 -1.9598258187309182e+03 1.0000000000000000e+00 1.3351092159389172e+01 1.5774619147934413e+01 9.7026420700137572e-01 
103 1 2 5.8028412924214567e-01 -1.8666712917808950e+03 1.0000000000000000e+00 1.3351092159389172e+01 1.5774619147934411e+01 9.7026420700137583e-01 
97 1 2 5.8028412924214567e-01 -1.7478604954761277e+03 1.0000000000000000e+00 1.3351092159389172e+01 1.5774619147934411e+01 9.7026420700137572e-01 
176 1 2 2.9014206462107284e-01 -1.4674444194833434e+03 1.0000000000000000e+00 1.7728856028332000e+01 1.6612600601330030e+01 2.7156630237165702e+00 
175 1 2 2.9014206462107284e-01 -1.4428029469613230e+03 1.0000000000000000e+00 1.7728856028331986e+01 1.6612600601330044e+01 2.7156630237165698e+00 
69 1 2 2.0309944523475099e+00 -2.8871796142612843e+03 1.0000000000000000e+00 1.5644515228159202e+01 1.3845543976004310e+01 6.8042324853752509e+00 
63 1 2 2.0309944523475099e+00 -3.1338707606842245e+03 1.0000000000000000e+00 1.5644515228159207e+01 1.3845543976004317e+01 6.8042324853752545e+00 
99 1 2 2.0309944523475099e+00 -3.0234339363926715e+03 1.0000000000000000e+00 1.5644515228159220e+01 1.3845543976004306e+01 6.8042324853752474e+00 
105 1 2 2.0309944523475099e+00 -3.4834801418287220e+03 1.0000000000000000e+00 1.5644515228159220e+01 1.3845543976004308e+01 6.8042324853752501e+00 
104 1 2 2.0309944523475099e+00 -3.0497414491999261e+03 1.0000000000000000e+00 1.5644515228159216e+01 1.3845543976004308e+01 6.8042324853752545e+00 
98 1 2 2.0309944523475099e+00 -3.4242351609526995e+03 1.0000000000000000e+00 1.5644515228159211e+01 1.3845543976004317e+01 6.8042324853752501e+00 
135 1 2 2.0309944523475099e+00 -2.5496202219936013e+03 1.0000000000000000e+00 1.5644515228159211e+01 1.3845543976004301e+01 6.8042324853752474e+00 
140 1 2 2.0309944523475099e+00 -3.1713520180234027e+03 1.0000000000000000e+00 1.5644515228159214e+01 1.3845543976004302e+01 6.8042324853752536e+00 
141 1 2 2.0309944523475099e+00 -3.2952152811809437e+03 1.0000000000000000e+00 1.5644515228159202e+01 1.3845543976004315e+01 6.8042324853752545e+00 
177 1 2 2.0309944523475099e+00 -3.2247630710226967e+03 1.0000000000000000e+00 1.5644515228159207e+01 1.3845543976004311e+01 6.8042324853752527e+00 
171 1 2 2.0309944523475099e+00 -2.6882301441921859e+03 1.0000000000000000e+00 1.5644515228159207e+01 1.3845543976004311e+01 6.8042324853752527e+00 
172 1 2 2.0309944523475099e+00 -3.2063723403546414e+03 1.0000000000000000e+00 1.5644515228159207e+01 1.3845543976004311e+01 6.8042324853752527e+00 
164 1 2 2.0309944523475099e+00 -1.9550566949916351e+03 1.0000000000000000e+00 1.5644515228159207e+01 1.3845543976004311e+01 6.8042324853752527e+00 
170 1 2 2.0309944523475099e+00 -1.7351673453655853e+03 1.0000000000000000e+00 1.5644515228159207e+01 1.3845543976004311e+01 6.8042324853752527e+00 
136 1 2 7.2535516155268209e-01 -2.4095476489050670e+03 1.0000000000000000e+00 1.4721992590515049e+01 1.5781650746982912e+01 1.1204168768135112e+01 
142 1 2 7.2535516155268209e-01 -2.4452607194561747e+03 1.0000000000000000e+00 1.4721992590515049e+01 1.5781650746982912e+01 1.1204168768135117e+01 
143 1 2 7.2535516155268209e-01 -2.8215664789416319e+03 1.0000000000000000e+00 1.4721992590515059e+01 1.5781650746982912e+01 1.1204168768135119e+01 
178 1 2 7.2535516155268209e-01 -2.0462201904460505e+03 1.0000000000000000e+00 1.4721992590515049e+01 1.5781650746982899e+01 1.1204168768135117e+01 
106 1 2 7.2535516155268209e-01 -2.2631326100821352e+03 1.0000000000000000e+00 1.4721992590515056e+01 1.5781650746982915e+01 1.1204168768135130e+01 
137 1 2 1.1605682584842913e+00 -1.7225866117522776e+03 1.0000000000000000e+00 1.6950779728896663e+01 1.4444255893463318e+01 1.6178652279459403e+01 
131 1 2 1.1605682584842913e+00 -1.7272545912303867e+03 1.0000000000000000e+00 1.6950779728896663e+01 1.4444255893463318e+01 1.6178652279459403e+01 
167 1 2 1.1605682584842913e+00 -2.4037790111439640e+03 1.0000000000000000e+00 1.6950779728896642e+01 1.4444255893463303e+01 1.6178652279459403e+01 
138 1 2 1.1605682584842913e+00 -2.5626819389573129e+03 1.0000000000000000e+00 1.6950779728896631e+01 1.4444255893463312e+01 1.6178652279459410e+01 
174 1 2 1.1605682584842913e+00 -2.2231547582814683e+03 1.0000000000000000e+00 1.6950779728896631e+01 1.4444255893463309e+01 1.6178652279459403e+01 
173 1 2 1.1605682584842913e+00 -2.7928200616548820e+03 1.0000000000000000e+00 1.6950779728896631e+01 1.4444255893463316e+01 1.6178652279459389e+01 
179 1 2 1.1605682584842913e+00 -2.5179668600984460e+03 1.0000000000000000e+00 1.6950779728896649e+01 1.4444255893463312e+01 1.6178652279459385e+01 
180 1 2 1.1605682584842913e+00 -2.2704041790463725e+03 1.0000000000000000e+00 1.6950779728896645e+01 1.4444255893463312e+01 1.6178652279459389e+01 

Velocities

32 -2.8309966029842254e-01 9.5941030599412516e-02 8.2762257284288765e-01
42 -2.5286740085335626e-02 9.5202021218040334e-02 -3.4323661931017574e-02
74 3.3271729361299178e-02 3.0221582494930160e-01 6.4694909591828276e-02
70 4.0333018740291438e-02 -2.0190746899646048e-01 -2.1276504623858877e-01
12 2.4653227383342435e-01 4.8603265563175657e-01 3.1034843680617974e-01
92 -1.1786236523866854e-01 3.7189363498150968e-01 1.1783978380283523e-01
21 -4.9978804384385199e-02 8.7438262028064692e-02 5.1808942401980840e-01
14 -1.1047966033615068e-01 2.5489891193425490e-01 -6.3447370077025511e-01
19 3.8645837508113379e-01 5.8663130122507023e-01 2.5523004712030889e-01
81 4.4721069390729129e-01 4.7779196471381108e-01 -2.9170074930866818e-01
89 -5.4967192446854246e-02 -4.0843407026343748e-01 -3.6785018283529015e-02
17 -2.8572815375141852e-01 2.1567784988436173e-01 8.5519419913969566e-02
79 1.4975766735811874e-01 -1.9533241162807133e-01 -3.9932856226499264e-01
86 -5.7550109626235205e-02 -9.3723488849878078e-02 2.0939436632380845e-01
87 -1.3361902110391813e-01 -7.5597048614071916e-01 1.5659155062108614e-02
91 -7.4765928080519822e-02 -2.3514457779732426e-01 2.7032695062732531e-01
1 -7.6104149222780082e-01 1.4875000356588486e-01 4.2615080018304233e-02
15 8.8204172382763159e-03 -5.3032720064416972e-01 2.7088845502057102e-01
58 1.2970845766921782e-01 -4.8290464474885147e-01 -2.9280457918229041e-01
2 -5.7731066251627073e-03 2.6919267651369005e-01 7.0538691525473692e-04
25 1.9323435813019224e-01 3.6606338374392028e-01 1.9486021453159780e-01
30 -9.4129187070053588e-01 -7.3297080781119628e-01 4.0018199524570330e-01
38 3.4334299996639356e-01 7.9190572318410957e-01 5.2761301819907735e-01
39 -2.3365484208503534e-01 3.4932848411460193e-01 3.3103460154238945e-01
37 -2.1336219047973438e-02 7.4456262715413701e-01 -4.2632637822343311e-01
50 3.9822769199992260e-02 -2.9441091262314828e-01 8.2368220597388575e-01
95 -4.1225239199522212e-01 1.0556665759550411e-01 1.8990195000126447e-01
22 1.4681956394634640e-01 1.9721281271526717e-01 -6.0575101648033355e-02
60 2.4376329888867607e-01 3.2658231182217196e-01 -9.1324235559339176e-02
90 1.4463554117866198e-01 -4.9238648130539009e-01 -2.2979820057204189e-01
85 -3.1755342399949560e-01 -9.4155934530382887e-02 4.3853974913014704e-01
93 -7.2559496196078654e-02 -5.3254126361081122e-02 -8.4180445435330736e-02
65 -4.7763630770926609e-02 4.7485363071074503e-02 -4.7162580439159102e-01
28 1.4863384424174947e-01 4.0951484344293460e-01 2.0884598828812342e-01
132 2.1829507948313720e-01 -3.5516097293942811e-01 8.4993241996038041e-02
20 1.3085262570240450e-01 -7.5590218486290539e-01 -1.4287095800664654e-01
18 1.4095394881714032e-01 -6.4550286267501245e-01 -3.2029060248607932e-01
48 2.5763120916436383e-01 2.9840020787696170e-01 -4.5321378026871706e-01
55 1.2348274258195975e-01 1.8426233247639770e-01 -3.9582607470438069e-01
101 1.1042644102339325e-01 2.0673540124868017e-01 -3.0456526650748333e-01
49 3.8149902654310641e-01 2.2821950842969251e-02 -2.8309036882103339e-01
80 -2.1790149310171186e-02 1.2579165374855894e-01 5.2525642371118231e-01