LAMMPS data file via write_data, version 30 Jul 2016, timestep = 600000

2080 atoms
8 atom types

0.0000000000000000e+00 4.0000000000000000e+01 xlo xhi
0.0000000000000000e+00 4.0000000000000000e+01 ylo yhi
0.0000000000000000e+00 1.0000000000000000e+02 zlo zhi

Masses

1 3.896
2 4.306
3 20.064
4 8.378
5 8.378
6 8.378
7 8.378
8 8.378

Atoms # meso-molecular

1 2 4 2.2559723595316457e+00 1.3810685931941151e+00 1.0000000000000000e+00 0.0000000000000000e+00 0.0000000000000000e+00 2.5000000000000000e+00 
21 2 4 2.2559723595316457e+00 -4.2712705874720161e-02 1.0000000000000000e+00 2.0000000000000000e+00 0.0000000000000000e+00 2.5000000000000000e+00 
41 2 4 2.2559723595316457e+00 -1.4285654147573007e-01 1.0000000000000000e+00 4.0000000000000000e+00 0.0000000000000000e+00 2.5000000000000000e+00 
61 2 4 2.2559723595316457e+00 -1.6123007370547704e+00 1.0000000000000000e+00 6.0000000000000000e+00 0.0000000000000000e+00 2.5000000000000000e+00 
81 2 4 2.2559723595316457e+00 0.0000000000000000e+00 1.0000000000000000e+00 8.0000000000000000e+00 0.0000000000000000e+00 2.5000000000000000e+00 
101 2 4 2.2559723595316457e+00 -1.2055485474968672e-06 1.0000000000000000e+00 1.0000000000000000e+01 0.0000000000000000e+00 2.5000000000000000e+00 
121 2 4 2.2559723595316457e+00 0.0000000000000000e+00 1.0000000000000000e+00 1.2000000000000000e+01 0.0000000000000000e+00 2.5000000000000000e+00 
141 2 4 2.2559723595316457e+00 0.0000000000000000e+00 1.0000000000000000e+00 1.4000000000000000e+01 0.0000000000000000e+00 2.5000000000000000e+00 
161 2 4 2.2559723595316457e+00 -1.0488340792456450e-02 1.0000000000000000e+00 1.6000000000000000e+01 0.0000000000000000e+00 2.5000000000000000e+00 
181 2 4 2.2559723595316457e+00 -3.3918679412845587e+00 1.0000000000000000e+00 1.8000000000000000e+01 0.0000000000000000e+00 2.5000000000000000e+00 
2 2 4 2.2559723595316457e+00 1.9656685846888586e-01 1.0000000000000000e+00 0.0000000000000000e+00 2.0000000000000000e+00 2.5000000000000000e+00 
22 2 4 2.2559723595316457e+00 2.5148518866152016e-03 1.0000000000000000e+00 2.0000000000000000e+00 2.0000000000000000e+00 2.5000000000000000e+00 
42 2 4 2.2559723595316457e+00 0.0000000000000000e+00 1.0000000000000000e+00 4.0000000000000000e+00 2.0000000000000000e+00 2.5000000000000000e+00 
62 2 4 2.2559723595316457e+00 1.7875970655572244e-02 1.0000000000000000e+00 6.0000000000000000e+00 2.0000000000000000e+00 2.5000000000000000e+00 
82 2 4 2.2559723595316457e+00 0.0000000000000000e+00 1.0000000000000000e+00 8.0000000000000000e+00 2.0000000000000000e+00 2.5000000000000000e+00 
102 2 4 2.2559723595316457e+00 0.0000000000000000e+00 1.0000000000000000e+00 1.0000000000000000e+01 2.0000000000000000e+00 2.5000000000000000e+00 
122 2 4 2.2559723595316457e+00 0.0000000000000000e+00 1.0000000000000000e+00 1.2000000000000000e+01 2.0000000000000000e+00 2.5000000000000000e+00 
142 2 4 2.2559723595316710e+00 6.0331037639915123e-06 1.0000000000000000e+00 1.4000000000000000e+01 2.0000000000000000e+00 2.5000000000000000e+00 
162 2 4 2.2559723595316457e+00 0.0000000000000000e+00 1.0000000000000000e+00 1.6000000000000000e+01 2.0000000000000000e+00 2.5000000000000000e+00 
182 2 4 2.2559723595316457e+00 -2.9705761014415708e-04 1.0000000000000000e+00 1.8000000000000000e+01 2.0000000000000000e+00 2.5000000000000000e+00 
3 2 4 2.2559723595316457e+00 -1.4711686715693128e-02 1.0000000000000000e+00 0.0000000000000000e+00 4.0000000000000000e+00 2.5000000000000000e+00 
23 2 4 2.2559723595316457e+00 0.0000000000000000e+00 1.0000000000000000e+00 2.0000000000000000e+00 4.0000000000000000e+00 2.5000000000000000e+00 
43 2 4 2.2559723595316457e+00 0.0000000000000000e+00 1.0000000000000000e+00 4.0000000000000000e+00 4.0000000000000000e+00 2.5000000000000000e+00 
63 2 4 2.2559723595316457e+00 0.0000000000000000e+00 1.0000000000000000e+00 6.0000000000000000e+00 4.0000000000000000e+00 2.5000000000000000e+00 
83 2 4 2.2559723595316457e+00 0.0000000000000000e+00 1.0000000000000000e+00 8.0000000000000000e+00 4.0000000000000000e+00 2.5000000000000000e+00 
103 2 4 2.2559723595316457e+00 0.0000000000000000e+00 1.0000000000000000e+00 1.0000000000000000e+01 4.0000000000000000e+00 2.5000000000000000e+00 
123 2 4 2.2559723595316457e+00 0.0000000000000000e+00 1.0000000000000000e+00 1.2000000000000000e+01 4.0000000000000000e+00 2.5000000000000000e+00 
143 2 4 2.2559723595316457e+00 -2.9052878493907426e-04 1.0000000000000000e+00 1.4000000000000000e+01 4.0000000000000000e+00 2.5000000000000000e+00 
163 2 4 2.2559723595316457e+00 0.0000000000000000e+00 1.0000000000000000e+00 1.6000000000000000e+01 4.0000000000000000e+00 2.5000000000000000e+00 
183 2 4 2.2559723595316457e+00 2.7601282888488630e+00 1.0000000000000000e+00 1.8000000000000000e+01 4.0000000000000000e+00 2.5000000000000000e+00 
4 2 4 2.2559723595316457e+00 -3.5434384401060283e-03 1.0000000000000000e+00 0.0000000000000000e+00 6.0000000000000000e+00 2.5000000000000000e+00 
24 2 4 2.2559723595316457e+00 -4.4764036150850956e-04 1.0000000000000000e+00 2.0000000000000000e+00 6.0000000000000000e+00 2.5000000000000000e+00 
44 2 4 2.2559723595316457e+00 0.0000000000000000e+00 1.0000000000000000e+00 4.0000000000000000e+00 6.0000000000000000e+00 2.5000000000000000e+00 
64 2 4 2.2559723595316457e+00 0.0000000000000000e+00 1.0000000000000000e+00 6.0000000000000000e+00 6.0000000000000000e+00 2.5000000000000000e+00 
84 2 4 2.2559723595316457e+00 0.0000000000000000e+00 1.0000000000000000e+00 8.0000000000000000e+00 6.0000000000000000e+00 2.5000000000000000e+00 
104 2 4 2.2559723595316457e+00 0.0000000000000000e+00 1.0000000000000000e+00 1.0000000000000000e+01 6.0000000000000000e+00 2.5000000000000000e+00 
124 2 4 2.2559723595316457e+00 2.2355825191489664e-01 1.0000000000000000e+00 1.2000000000000000e+01 6.0000000000000000e+00 2.5000000000000000e+00 
144 2 4 2.2559723595316457e+00 7.5479221440536304e-03 1.0000000000000000e+00 1.4000000000000000e+01 6.0000000000000000e+00 2.5000000000000000e+00 
164 2 4 2.2559723595316457e+00 -5.6834313331579258e-03 1.0000000000000000e+00 1.6000000000000000e+01 6.0000000000000000e+00 2.5000000000000000e+00 
184 2 4 2.2559723595316457e+00 1.7325097909916958e+00 1.0000000000000000e+00 1.8000000000000000e+01 6.0000000000000000e+00 2.5000000000000000e+00 
5 2 4 2.2559723595316457e+00 0.0000000000000000e+00 1.0000000000000000e+00 0.0000000000000000e+00 8.0000000000000000e+00 2.5000000000000000e+00 
25 2 4 2.2559723595316457e+00 -5.3252746948296438e-02 1.0000000000000000e+00 2.0000000000000000e+00 8.0000000000000000e+00 2.5000000000000000e+00 
45 2 4 2.2559723595316457e+00 -8.2026174975860355e-03 1.0000000000000000e+00 4.0000000000000000e+00 8.0000000000000000e+00 2.5000000000000000e+00 
65 2 4 2.2559723595316457e+00 0.0000000000000000e+00 1.0000000000000000e+00 6.0000000000000000e+00 8.0000000000000000e+00 2.5000000000000000e+00 
85 2 4 2.2559723595316457e+00 5.2192795290551715e-03 1.0000000000000000e+00 8.0000000000000000e+00 8.0000000000000000e+00 2.5000000000000000e+00 
105 2 4 2.2559723595316457e+00 -8.0228432395900839e-01 1.0000000000000000e+00 1.0000000000000000e+01 8.0000000000000000e+00 2.5000000000000000e+00 
125 2 4 2.2559723595316457e+00 3.8184466945519219e-02 1.0000000000000000e+00 1.2000000000000000e+01 8.0000000000000000e+00 2.5000000000000000e+00 
145 2 4 2.2559723595316457e+00 -7.0250794470349005e-03 1.0000000000000000e+00 1.4000000000000000e+01 8.0000000000000000e+00 2.5000000000000000e+00 
165 2 4 2.2559723595316457e+00 0.0000000000000000e+00 1.0000000000000000e+00 1.6000000000000000e+01 8.0000000000000000e+00 2.5000000000000000e+00 
185 2 4 2.2559723595316457e+00 6.5277900114403611e+00 1.0000000000000000e+00 1.8000000000000000e+01 8.0000000000000000e+00 2.5000000000000000e+00 
6 2 4 2.2559723595316457e+00 0.0000000000000000e+00 1.0000000000000000e+00 0.0000000000000000e+00 1.0000000000000000e+01 2.5000000000000000e+00 
26 2 4 2.2559723595316457e+00 0.0000000000000000e+00 1.0000000000000000e+00 2.0000000000000000e+00 1.0000000000000000e+01 2.5000000000000000e+00 
46 2 4 2.2559723595316457e+00 4.8237102283365228e-04 1.0000000000000000e+00 4.0000000000000000e+00 1.0000000000000000e+01 2.5000000000000000e+00 
66 2 4 2.2559723595316457e+00 0.0000000000000000e+00 1.0000000000000000e+00 6.0000000000000000e+00 1.0000000000000000e+01 2.5000000000000000e+00 
86 2 4 2.2559723595316457e+00 0.0000000000000000e+00 1.0000000000000000e+00 8.0000000000000000e+00 1.0000000000000000e+01 2.5000000000000000e+00 
106 2 4 2.2559723595316457e+00 0.0000000000000000e+00 1.0000000000000000e+00 1.0000000000000000e+01 1.0000000000000000e+01 2.5000000000000000e+00 
126 2 4 2.2559723595316457e+00 0.0000000000000000e+00 1.0000000000000000e+00 1.2000000000000000e+01 1.0000000000000000e+01 2.5000000000000000e+00 
146 2 4 2.2559723595316457e+00 0.0000000000000000e+00 1.0000000000000000e+00 1.4000000000000000e+01 1.0000000000000000e+01 2.5000000000000000e+00 
166 2 4 2.2559723595316457e+00 0.0000000000000000e+00 1.0000000000000000e+00 1.6000000000000000e+01 1.0000000000000000e+01 2.5000000000000000e+00 
186 2 4 2.2559723595316457e+00 3.0180352234767911e+00 1.0000000000000000e+00 1.8000000000000000e+01 1.0000000000000000e+01 2.5000000000000000e+00 
7 2 4 2.2559723595316457e+00 -1.1004457505275108e-03 1.0000000000000000e+00 0.0000000000000000e+00 1.2000000000000000e+01 2.5000000000000000e+00 
27 2 4 2.2559723595316457e+00 8.2565347744800732e-03 1.0000000000000000e+00 2.0000000000000000e+00 1.2000000000000000e+01 2.5000000000000000e+00 
47 2 4 2.2559723595316457e+00 0.0000000000000000e+00 1.0000000000000000e+00 4.0000000000000000e+00 1.2000000000000000e+01 2.5000000000000000e+00 
67 2 4 2.2559723595316457e+00 0.0000000000000000e+00 1.0000000000000000e+00 6.0000000000000000e+00 1.2000000000000000e+01 2.5000000000000000e+00 
87 2 4 2.2559723595316457e+00 0.0000000000000000e+00 1.0000000000000000e+00 8.0000000000000000e+00 1.2000000000000000e+01 2.5000000000000000e+00 
107 2 4 2.2559723595316457e+00 0.0000000000000000e+00 1.0000000000000000e+00 1.0000000000000000e+01 1.2000000000000000e+01 2.5000000000000000e+00 
127 2 4 2.2559723595316457e+00 0.0000000000000000e+00 1.0000000000000000e+00 1.2000000000000000e+01 1.2000000000000000e+01 2.5000000000000000e+00 
147 2 4 2.2559723595316457e+00 0.0000000000000000e+00 1.0000000000000000e+00 1.4000000000000000e+01 1.2000000000000000e+01 2.5000000000000000e+00 
167 2 4 2.2559723595316457e+00 0.0000000000000000e+00 1.0000000000000000e+00 1.6000000000000000e+01 1.2000000000000000e+01 2.5000000000000000e+00 
187 2 4 2.2559723595316457e+00 1.7528962641951058e+00 1.0000000000000000e+00 1.8000000000000000e+01 1.2000000000000000e+01 2.5000000000000000e+00 
8 2 4 2.2559723595316457e+00 -1.2354156031382432e-03 1.0000000000000000e+00 0.0000000000000000e+00 1.4000000000000000e+01 2.5000000000000000e+00 
28 2 4 2.2559723595316457e+00 0.0000000000000000e+00 1.0000000000000000e+00 2.0000000000000000e+00 1.4000000000000000e+01 2.5000000000000000e+00 
48 2 4 2.2559723595316457e+00 0.0000000000000000e+00 1.0000000000000000e+00 4.0000000000000000e+00 1.4000000000000000e+01 2.5000000000000000e+00 
68 2 4 2.2559723595316457e+00 0.0000000000000000e+00 1.0000000000000000e+00 6.0000000000000000e+00 1.4000000000000000e+01 2.5000000000000000e+00 
88 2 4 2.2559723595316457e+00 0.0000000000000000e+00 1.0000000000000000e+00 8.0000000000000000e+00 1.4000000000000000e+01 2.5000000000000000e+00 
108 2 4 2.2559723595316457e+00 0.0000000000000000e+00 1.0000000000000000e+00 1.0000000000000000e+01 1.4000000000000000e+01 2.5000000000000000e+00 
128 2 4 2.2559723595316457e+00 -2.8188879664241506e-05 1.0000000000000000e+00 1.2000000000000000e+01 1.4000000000000000e+01 2.5000000000000000e+00 
148 2 4 2.2559723595316457e+00 3.7255028193774345e-08 1.0000000000000000e+00 1.4000000000000000e+01 1.4000000000000000e+01 2.5000000000000000e+00 
168 2 4 2.2559723595316457e+00 1.6241855081924730e-02 1.0000000000000000e+00 1.6000000000000000e+01 1.4000000000000000e+01 2.5000000000000000e+00 
188 2 4 2.2559723595316457e+00 -1.4635477519405158e+00 1.0000000000000000e+00 1.8000000000000000e+01 1.4000000000000000e+01 2.5000000000000000e+00 
9 2 4 2.2559723595316457e+00 -7.3397002013371668e-03 1.0000000000000000e+00 0.0000000000000000e+00 1.6000000000000000e+01 2.5000000000000000e+00 
29 2 4 2.2559723595316457e+00 0.0000000000000000e+00 1.0000000000000000e+00 2.0000000000000000e+00 1.6000000000000000e+01 2.5000000000000000e+00 
49 2 4 2.2559723595316457e+00 0.0000000000000000e+00 1.0000000000000000e+00 4.0000000000000000e+00 1.6000000000000000e+01 2.5000000000000000e+00 
69 2 4 2.2559723595316457e+00 0.0000000000000000e+00 1.0000000000000000e+00 6.0000000000000000e+00 1.6000000000000000e+01 2.5000000000000000e+00 
89 2 4 2.2559723595316457e+00 0.0000000000000000e+00 1.0000000000000000e+00 8.0000000000000000e+00 1.6000000000000000e+01 2.5000000000000000e+00 
109 2 4 2.2559723595316457e+00 0.0000000000000000e+00 1.0000000000000000e+00 1.0000000000000000e+01 1.6000000000000000e+01 2.5000000000000000e+00 
129 2 4 2.2559723595316457e+00 0.0000000000000000e+00 1.0000000000000000e+00 1.2000000000000000e+01 1.6000000000000000e+01 2.5000000000000000e+00 
149 2 4 2.2559723595316457e+00 0.0000000000000000e+00 1.0000000000000000e+00 1.4000000000000000e+01 1.6000000000000000e+01 2.5000000000000000e+00 
169 2 4 2.2559723595316457e+00 0.0000000000000000e+00 1.0000000000000000e+00 1.6000000000000000e+01 1.6000000000000000e+01 2.5000000000000000e+00 
189 2 4 2.2559723595316457e+00 1.9944334536172219e+00 1.0000000000000000e+00 1.8000000000000000e+01 1.6000000000000000e+01 2.5000000000000000e+00 
10 2 4 2.2559723595316457e+00 0.0000000000000000e+00 1.0000000000000000e+00 0.0000000000000000e+00 1.8000000000000000e+01 2.5000000000000000e+00 
30 2 4 2.2559723595316457e+00 0.0000000000000000e+00 1.0000000000000000e+00 2.0000000000000000e+00 1.8000000000000000e+01 2.5000000000000000e+00 
50 2 4 2.2559723595316457e+00 0.0000000000000000e+00 1.0000000000000000e+00 4.0000000000000000e+00 1.8000000000000000e+01 2.5000000000000000e+00 
70 2 4 2.2559723595316457e+00 2.9942098903018001e-02 1.0000000000000000e+00 6.0000000000000000e+00 1.8000000000000000e+01 2.5000000000000000e+00 
90 2 4 2.2559723595316457e+00 -4.4155266884897726e-01 1.0000000000000000e+00 8.0000000000000000e+00 1.8000000000000000e+01 2.5000000000000000e+00 
110 2 4 2.2559723595316457e+00 3.1288940593610891e-03 1.0000000000000000e+00 1.0000000000000000e+01 1.8000000000000000e+01 2.5000000000000000e+00 
130 2 4 2.2559723595316457e+00 0.0000000000000000e+00 1.0000000000000000e+00 1.2000000000000000e+01 1.8000000000000000e+01 2.5000000000000000e+00 
150 2 4 2.2559723595316457e+00 -3.0620191419058929e-01 1.0000000000000000e+00 1.4000000000000000e+01 1.8000000000000000e+01 2.5000000000000000e+00 
170 2 4 2.2559723595316457e+00 -8.0724661907120021e-07 1.0000000000000000e+00 1.6000000000000000e+01 1.8000000000000000e+01 2.5000000000000000e+00 
190 2 4 2.2559723595316457e+00 3.8817334836077704e+00 1.0000000000000000e+00 1.8000000000000000e+01 1.8000000000000000e+01 2.5000000000000000e+00 
2077 1679 2 1.0280010918055675e+00 -2.3720066391473283e+03 1.0000000000000000e+00 1.9634504499095645e+01 1.3668397134080701e+00 5.7586937302176597e+00 
2080 1682 2 1.0280011014774630e+00 -2.3719887727620344e+03 1.0000000000000000e+00 1.9637004765113637e+01 1.3737418324547053e+00 5.7559946316165824e+00 
691 293 2 1.0279998245423536e+00 6.2109899892140174e+02 1.0000000000000000e+00 1.9180268891857196e+01 3.4306208728037717e+00 5.8425330067356729e+00 
690 292 2 1.0279997889695516e+00 6.2097899553472325e+02 1.0000000000000000e+00 1.9227040918342166e+01 3.4589248523278764e+00 5.7982313954409381e+00 
2060 1662 2 1.0280355780593249e+00 -1.8217250016227055e+02 1.0000000000000000e+00 3.9885412245142554e-01 5.1611858276432860e+00 5.7435347760723356e+00 
1571 1173 2 1.0279809843950365e+00 1.3526601653392268e+03 1.0000000000000000e+00 1.7071833816478701e+00 5.2669505935359435e+00 5.7135349300493514e+00 
1227 829 2 1.0280031059024310e+00 -1.5262583752677144e+03 1.0000000000000000e+00 1.9478899920702887e+01 5.4118308288013548e+00 5.5454221431363937e+00 
1432 1034 2 1.0279977822903021e+00 7.8246617254651392e+02 1.0000000000000000e+00 1.9553130330285228e+01 7.1969763562108557e+00 5.5423202419921722e+00 
928 530 2 1.0279978228465549e+00 7.8070419041273351e+02 1.0000000000000000e+00 1.9567969926023199e+01 7.2220668988132672e+00 5.5481955413659136e+00 
1873 1475 2 1.0279995596573388e+00 8.1135324100703092e+03 1.0000000000000000e+00 1.9363904488288352e+01 2.0051394763705832e+00 7.0096407245631545e+00 
443 45 2 1.0279998416475435e+00 -1.5232096169255663e+03 1.0000000000000000e+00 1.0249148902042584e+00 4.8916886576244547e+00 7.5212297117488314e+00 
501 103 2 1.0279933697806620e+00 9.2542327471011970e+02 1.0000000000000000e+00 1.9827270969896857e+00 5.9554293432968803e+00 6.1523949857771543e+00 
2048 1650 2 1.0279929299752102e+00 -1.2555154164047510e+03 1.0000000000000000e+00 1.9962984922747500e+00 5.9438412480378204e+00 6.1397378605310200e+00 
1226 828 2 1.0280025078068022e+00 -1.5330360856970271e+03 1.0000000000000000e+00 1.9163161815697389e+01 4.7898639232365836e+00 5.9400750641520839e+00 
1575 1177 2 1.0280088266208462e+00 -3.5980910389165906e+03 1.0000000000000000e+00 1.6892946753116539e-01 9.3357751158069409e+00 7.5371694218946184e+00 
758 360 2 1.0280096740653724e+00 -2.3414155746969545e+03 1.0000000000000000e+00 1.3564566343095974e+00 5.0435098122739861e+00 8.2968555037084162e+00 
441 43 2 1.0280006015034737e+00 8.9493829059553070e+02 1.0000000000000000e+00 1.1329512799112111e+00 5.0792986577569996e+00 8.7093987179626069e+00 
1064 666 2 1.0280554391505212e+00 1.6357172251021577e+03 1.0000000000000000e+00 2.8559841682048248e-01 6.6720959983256432e+00 7.8934646169848524e+00 
1971 1573 2 1.0279596215693547e+00 -2.2230173292403574e+03 1.0000000000000000e+00 2.3094413774816060e-02 6.9354381010493027e+00 8.7092630549817827e+00 
1818 1420 2 1.0279995260018866e+00 4.9608104618115152e+02 1.0000000000000000e+00 1.9309371665036871e+01 1.3450092121428554e+01 8.0615551404295100e+00 
1867 1469 2 1.0279994175113865e+00 6.3082348811658426e+02 1.0000000000000000e+00 1.9985260222517496e+01 1.3041228992074648e+01 8.5740846279407243e+00 
642 244 2 1.0280054423909457e+00 4.9748682585905283e+02 1.0000000000000000e+00 1.9108298623572995e+01 1.4132376141673660e+01 8.5824411120718818e+00 
751 353 2 1.0280032238508863e+00 -7.7756595848107088e+02 1.0000000000000000e+00 1.8803892220282087e+01 1.5443687266125423e+01 9.3743665963887377e+00 
1083 685 2 1.0280054622039836e+00 -4.2107963260394281e+03 1.0000000000000000e+00 1.8934864731302511e+01 1.5388870211160969e+01 9.4229970228591569e+00 
2063 1665 2 1.0280066078767980e+00 8.1428828445508188e+01 1.0000000000000000e+00 1.1274049474236573e+01 1.7144283375612858e+01 8.7152530014935614e+00 
2062 1664 2 1.0280066078767987e+00 8.0349835748540187e+01 1.0000000000000000e+00 1.1275566911057256e+01 1.7145591996412033e+01 8.7186226420328836e+00 
1930 1532 2 1.0279934266059423e+00 1.1666602749085818e+02 1.0000000000000000e+00 1.2192252483366046e+01 1.6376424098877234e+01 8.5975771112458332e+00 
1931 1533 2 1.0279934266086146e+00 1.1673164874562526e+02 1.0000000000000000e+00 1.2198498444032273e+01 1.6383351079451423e+01 8.6014116360412078e+00 
1591 1193 2 1.0279998239413122e+00 -7.7707035488586382e+02 1.0000000000000000e+00 1.7920812732179524e+01 1.6961468793307475e+01 9.1819346949073442e+00 
646 248 2 1.0280001617496521e+00 8.0965729216909858e+02 1.0000000000000000e+00 1.6095414152350127e+01 1.7399559882209552e+01 9.7540850939515025e+00 
1251 853 2 1.0279992500994568e+00 -4.2105579279769590e+03 1.0000000000000000e+00 1.8444860825759026e+01 1.7313747268657348e+01 9.4068660745223998e+00 
647 249 2 1.0280001415543265e+00 8.1839036312583869e+02 1.0000000000000000e+00 1.6073268054072837e+01 1.7337170152617521e+01 9.8258381627878997e+00 
1866 1468 2 1.0280002772849619e+00 6.4383073356876673e+02 1.0000000000000000e+00 1.7529323400380147e+01 1.6204750970668535e+01 1.0607860128659759e+01 
1030 632 2 1.0280001778691925e+00 -3.5392681297583599e+03 1.0000000000000000e+00 1.6881117387541096e+01 1.7555098250837926e+01 1.0844953251181719e+01 
1701 1303 2 1.0279998414692137e+00 5.1678797447379480e+01 1.0000000000000000e+00 1.9542034857815565e+01 1.7576764372005524e+01 1.0697612954090376e+01 
1031 633 2 1.0279994969092341e+00 -3.5505013701124667e+03 1.0000000000000000e+00 1.9707847817576631e+01 1.7390276191529875e+01 1.0825803910642303e+01 
1394 996 2 1.0280000866934742e+00 -1.5367680561300724e+03 1.0000000000000000e+00 1.8441835092546786e+01 1.6139922563937155e+01 1.1202456833953882e+01 
1395 997 2 1.0279998252530600e+00 -1.5308763413799823e+03 1.0000000000000000e+00 1.8786289157875643e+01 1.6739727440798653e+01 1.1480187596883651e+01 
1704 1306 2 1.0280005646588863e+00 5.6982347807881077e+01 1.0000000000000000e+00 1.7228471475082234e+01 1.8121818966351654e+01 1.0059363073766502e+01 
937 539 2 1.0279999927382024e+00 2.5370212380566521e+01 1.0000000000000000e+00 4.8928077861912858e+00 7.3705622653221869e-01 1.5501525746610529e+01 
1080 682 2 1.0280000174602795e+00 -7.8369943625974292e+02 1.0000000000000000e+00 4.1833953932458101e+00 2.7503566111442279e-01 1.5565839375208270e+01 
575 177 2 1.0279999999660785e+00 4.5444294798047504e+03 1.0000000000000000e+00 4.9099049625882536e+00 8.8548754726796153e-01 1.5665715313778280e+01 
748 350 2 1.0280000182738225e+00 2.4832888129952521e+03 1.0000000000000000e+00 3.6969712181285832e+00 5.3391474512725945e-01 1.7524085833196086e+01 
768 370 2 1.0279999687576131e+00 -1.5549267326923059e+03 1.0000000000000000e+00 2.0257827033465028e+00 6.0452005287961663e-01 1.7612276707590230e+01 
764 366 2 1.0279999635241672e+00 1.7704520988005177e+02 1.0000000000000000e+00 2.0111916595926327e+00 5.9572528288600590e-01 1.7628516107325449e+01 
1101 703 2 1.0279999394853931e+00 -1.1839694751627894e+03 1.0000000000000000e+00 4.4274597448803705e+00 2.7384050441973445e-01 1.6931663656901428e+01 
936 538 2 1.0279999375353641e+00 3.6175250562665010e+03 1.0000000000000000e+00 1.7685438936920008e+00 5.7834797538249246e-03 1.8950925646163896e+01 
934 536 2 1.0279998619609287e+00 -3.5911260729223973e+03 1.0000000000000000e+00 8.1502594508026160e-01 8.2319046422845454e-01 2.2711724998444467e+01 
918 520 2 1.0279998909821160e+00 -1.2264304400728631e+03 1.0000000000000000e+00 8.0166941157324900e-01 8.4692681862247488e-01 2.2744876093465720e+01 
1237 839 2 1.0279997203337721e+00 -6.4243146213337226e+01 1.0000000000000000e+00 1.5827707524293322e-01 1.7140880935492280e+01 2.3118864511925175e+01 
545 147 2 1.0280002231772878e+00 -1.9032954599966487e+02 1.0000000000000000e+00 3.1680976209027956e-01 1.7257142857721657e+01 2.3425688955328059e+01 
421 23 2 1.0280001828809628e+00 -2.6811130987364345e+02 1.0000000000000000e+00 2.2499094572633346e-01 1.7211508777106030e+01 2.3425952857849559e+01 
743 345 2 1.0279998798936656e+00 3.7719909306868171e+03 1.0000000000000000e+00 7.5973520211288437e-01 1.8895614782868076e+01 2.1689879683605795e+01 
1247 849 2 1.0279998807946564e+00 1.4170957479631147e+03 1.0000000000000000e+00 7.3985046482309746e-01 1.8906858280798982e+01 2.1678966047191000e+01 
1243 845 2 1.0280001690591098e+00 -4.3572211523170233e+02 1.0000000000000000e+00 4.8606483345920193e-01 1.8680916147872587e+01 2.1612980575822139e+01 
938 540 2 1.0279999962937310e+00 -4.5429478404328336e+02 1.0000000000000000e+00 4.1554555809083932e-01 1.2653738433030742e-01 2.3931461558435100e+01 
720 322 2 1.0280016502736438e+00 1.4573627157862495e+02 1.0000000000000000e+00 1.3760218957237804e+01 1.7928805356271493e+01 2.7325238238374798e+01 
513 115 2 1.0280016687786608e+00 8.0181398178844836e+02 1.0000000000000000e+00 1.3761079781870858e+01 1.7914442462674849e+01 2.7329432806827548e+01 
717 319 2 1.0279986813701936e+00 1.4534681045213773e+02 1.0000000000000000e+00 1.4970042758908889e+01 1.7809309379541144e+01 2.7636700436537659e+01 
1046 648 2 1.0280008013511321e+00 -1.3853532667373088e+03 1.0000000000000000e+00 1.3173500450539199e+01 1.8397255937389332e+01 2.8997719862385537e+01 
1034 636 2 1.0279973095567778e+00 -1.4335435519433011e+03 1.0000000000000000e+00 1.2842685668538284e+01 1.8841087483805378e+01 2.9156711784803484e+01 
516 118 2 1.0279978800225773e+00 8.0436569878531634e+02 1.0000000000000000e+00 1.5188611573575832e+01 1.8192376909720210e+01 2.7641512341060583e+01 
755 357 2 1.0280019575733472e+00 -1.1319067811716789e+03 1.0000000000000000e+00 1.5622187369269051e+01 1.9683320460095274e+01 2.7571882824968576e+01 
725 327 2 1.0280065097171465e+00 -2.9757509432815859e+03 1.0000000000000000e+00 1.2974872076215540e+01 1.8896480737376706e+01 2.9622194891834280e+01 
1258 860 2 1.0279999996409559e+00 -4.7720609227695139e+00 1.0000000000000000e+00 1.8378658413298260e-01 1.9242997439410250e+00 3.2910649116547155e+01 
576 178 2 1.0279999996001414e+00 1.1064396457849102e+03 1.0000000000000000e+00 1.2437030965860710e-01 2.0481597309780391e+00 3.2761179587566048e+01 
1955 1557 2 1.0279999999999956e+00 -1.5269262260548228e+03 1.0000000000000000e+00 2.4050394013480300e-01 1.0184117116214690e+01 3.2522116680390660e+01 
1594 1196 2 1.0279999301502880e+00 -1.1297611404735917e+03 1.0000000000000000e+00 1.2239767266234800e+01 1.8096011036240903e+01 3.1835783616038515e+01 
1452 1054 2 1.0280084470045148e+00 -7.7744470385720570e+02 1.0000000000000000e+00 1.2288586349211604e+01 1.8179084399501164e+01 3.2031000756959621e+01 
1277 879 2 1.0280029718688186e+00 -2.5142571883614341e+03 1.0000000000000000e+00 1.2312244697056340e+01 1.8059460535951519e+01 3.1989829530644968e+01 
1598 1200 2 1.0279999999999987e+00 -2.3404425966000863e+03 1.0000000000000000e+00 1.8168473668296686e-01 1.0424959034988792e+01 3.3356254754439078e+01 
1054 656 2 1.0279999999999963e+00 -2.4469656104304986e+03 1.0000000000000000e+00 1.5406289688619495e+01 3.3812684282606775e+00 3.8994095937206602e+01 
1603 1205 2 1.0279999999999994e+00 -3.3509033237966132e+03 1.0000000000000000e+00 1.5370788636862287e+01 3.3991394163196271e+00 3.9021459415610416e+01 
1317 919 2 1.0280000000000020e+00 -2.2054764868627271e+03 1.0000000000000000e+00 1.5388842664978604e+01 4.4108607458972120e+00 3.8373484937844587e+01 
2004 1606 2 1.0280000000000045e+00 1.4435338759421779e+03 1.0000000000000000e+00 1.5437076356669433e+01 4.4094982605409436e+00 3.8373151081709238e+01 
1307 909 2 1.0280000118132411e+00 3.6644975822825645e+03 1.0000000000000000e+00 7.7079402449181718e+00 1.3862978253614560e+01 4.4044251232857192e+01 
1316 918 2 1.0280000086060435e+00 -2.2019620492282220e+03 1.0000000000000000e+00 7.6890241271557658e+00 1.3863149412022082e+01 4.4182909713789812e+01 
1627 1229 2 1.0279999946840888e+00 -1.7157138246650218e+03 1.0000000000000000e+00 8.5602476572500414e+00 1.5296211219711315e+01 4.3714059589405188e+01 
1122 724 2 1.0279999878176469e+00 9.8547369862946994e+01 1.0000000000000000e+00 8.5933732657155684e+00 1.4208596239731726e+01 4.4634329950011313e+01 
787 389 2 1.0279999917959624e+00 -1.7111701326314267e+03 1.0000000000000000e+00 8.7975575157670818e+00 1.5086339260598260e+01 4.3769549059878649e+01 
1805 1407 2 1.0279999993025242e+00 3.8576106298631216e+03 1.0000000000000000e+00 7.8127396825196032e+00 1.6587449240763835e+01 4.4582119070343232e+01 
1148 750 2 1.0279998505829882e+00 -2.1807686259688217e+03 1.0000000000000000e+00 6.7487101756501211e+00 1.9780105951673754e+01 4.4831262851557931e+01 
960 562 2 1.0280000040176300e+00 1.4614085721003812e+02 1.0000000000000000e+00 7.1622935609934126e+00 1.5868335790255090e+01 4.5490974127947894e+01 
1648 1250 2 1.0280000030595338e+00 -1.0794494840452471e+03 1.0000000000000000e+00 7.7599166205697934e+00 1.6799340107836368e+01 4.5172191730534166e+01 
649 251 2 1.0280000019021074e+00 4.4596483425099068e+03 1.0000000000000000e+00 7.0344570473822881e+00 1.6084380796117429e+01 4.5516204086435572e+01 
1827 1429 2 1.0280002732226234e+00 9.0524980081278773e+02 1.0000000000000000e+00 6.0958603230284281e+00 1.9558938878584922e+01 4.5420537667618831e+01 
1448 1050 2 1.0280000000000047e+00 2.6402654449140931e+02 1.0000000000000000e+00 8.4540863798485937e+00 3.0874159246507178e+00 5.0971811543456958e+01 
1266 868 2 1.0280000000000142e+00 5.3364488707133728e+02 1.0000000000000000e+00 8.8937174520980342e+00 2.6848780311208085e+00 5.0775708601173520e+01 
1425 1027 2 1.0280000000000051e+00 3.6885956199282537e+03 1.0000000000000000e+00 9.3160647780322989e+00 3.4468739171790670e+00 5.1623290528152815e+01 
1278 880 2 1.0280000000000058e+00 -1.1711470610300544e+03 1.0000000000000000e+00 9.5493317727095661e+00 2.2735023402288004e+00 5.1895617258308796e+01 
798 400 2 1.0280000000000113e+00 -1.3580820340023097e+03 1.0000000000000000e+00 8.4372717871765417e+00 2.5209776904400734e+00 5.2597463477681956e+01 
1108 710 2 1.0280000000000091e+00 -3.1384476768828481e+03 1.0000000000000000e+00 8.5041078684425049e+00 2.3494978563776012e+00 5.2583158100460089e+01 
746 348 2 1.0280000000000069e+00 -2.3408593006678229e+03 1.0000000000000000e+00 1.8430555945271099e+01 7.7173272817900775e+00 5.2517149483586202e+01 
926 528 2 1.0279999999999960e+00 -2.4926486391597596e+03 1.0000000000000000e+00 1.8422128227191042e+01 7.7920238272950062e+00 5.2461754318208946e+01 
578 180 2 1.0279999999999947e+00 3.9674211468626027e+03 1.0000000000000000e+00 1.8426690779151944e+01 7.8028707030973656e+00 5.2554386672678604e+01 
1586 1188 2 1.0279977313489621e+00 -2.3277136389213265e+03 1.0000000000000000e+00 1.7589091504929584e+01 1.2858425996922772e+01 5.2343357616678830e+01 
1430 1032 2 1.0279993498782394e+00 -2.4966149676086006e+03 1.0000000000000000e+00 1.7458236393795094e+01 1.2865676167661901e+01 5.2416151578681301e+01 
1754 1356 2 1.0280010697038413e+00 3.9643378572431316e+03 1.0000000000000000e+00 1.7457144658878093e+01 1.2905110791120087e+01 5.2386030128785485e+01 
1323 925 2 1.0280000000000009e+00 2.2064938352177742e+03 1.0000000000000000e+00 1.8407763459070811e+01 1.9658842974224868e+01 5.2468476075091907e+01 