LAMMPS data file via write_data, version 30 Jul 2016, timestep = 50400000

4620 atoms
8 atom types

0.0000000000000000e+00 1.0000000000000000e+02 xlo xhi
0.0000000000000000e+00 4.0000000000000000e+01 ylo yhi
0.0000000000000000e+00 4.0000000000000000e+01 zlo zhi

Masses

1 3.896
2 5.36
3 20.064
4 8.378
5 8.378
6 8.378
7 8.378
8 8.378

Atoms # meso-molecular

2084 2085 2 1.0280000000764611e+00 6.3252472869334924e+03 1.0000000000000000e+00 6.4658856950537455e+01 2.4349849631691636e+00 6.1819725572738106e-02 
3461 3462 2 1.0279999996737923e+00 4.2978129308004309e+03 1.0000000000000000e+00 6.6011008385130523e+01 2.0621527474336121e+00 3.5689406606065760e-01 
3085 3086 2 1.0280000001392502e+00 3.9240401745809095e+03 1.0000000000000000e+00 6.2378114780214453e+01 5.1527350896277433e+00 1.7167629886983229e+00 
3084 3085 2 1.0280000008237955e+00 3.7357064612642071e+03 1.0000000000000000e+00 6.2930009508143065e+01 4.8310685546204839e+00 8.0182874199244220e-02 
3462 3463 2 1.0280000000560723e+00 1.2040440877353526e+03 1.0000000000000000e+00 6.2448865386404002e+01 7.1837605086798808e+00 1.0813860079358748e+00 
3505 3506 2 1.0279999999673632e+00 4.7387373439595631e+03 1.0000000000000000e+00 6.3851856796494388e+01 6.0773807247787772e+00 1.3950425877382073e+00 
1152 1153 2 1.0279999998967164e+00 1.2006547761278694e+03 1.0000000000000000e+00 6.2486859486573550e+01 9.0661048048321664e+00 4.4903488903450911e-01 
3964 3965 2 1.0279999999473286e+00 1.7585491290363575e+03 1.0000000000000000e+00 6.2119977456450144e+01 8.7850734228634622e+00 1.7792855376579348e+00 
1195 1196 2 1.0280000004491006e+00 4.7417341694368806e+03 1.0000000000000000e+00 6.3777037561741700e+01 9.9159754270515457e+00 2.2642638160168396e-01 
1196 1197 2 1.0280000002635818e+00 4.3323152697785226e+03 1.0000000000000000e+00 6.3954595323013358e+01 9.2855662789949882e+00 1.7184855800342853e+00 
1699 1700 2 1.0279999999048612e+00 3.9245950804413706e+03 1.0000000000000000e+00 6.2584153614200844e+01 1.0636534583426773e+01 6.9112700898937285e-01 
4049 4050 2 1.0279999999743608e+00 1.2647646546038147e+03 1.0000000000000000e+00 6.2411073956351053e+01 1.0171078697083892e+01 1.8165440415008240e+00 
4547 4548 2 1.0279999999930232e+00 1.9739843939833645e+03 1.0000000000000000e+00 5.5176532766436758e+01 5.3344137646028020e+00 2.7634663910103971e+00 
3037 3038 2 1.0279999999995797e+00 4.9919523857850231e+02 1.0000000000000000e+00 5.5513635574330408e+01 5.0666149967407899e+00 2.7248217115364475e+00 
815 816 2 1.0279999999269580e+00 1.2629008229268766e+03 1.0000000000000000e+00 6.2280126503174600e+01 5.5976532675314283e+00 2.5220674790661506e+00 
3506 3507 2 1.0279999999449088e+00 4.3319359671589109e+03 1.0000000000000000e+00 6.4078911776615556e+01 5.9458185073926630e+00 2.2897328275269015e+00 
1651 1652 2 1.0280000000040177e+00 4.9929984507784138e+02 1.0000000000000000e+00 5.5813422946375063e+01 7.3678473207552386e+00 3.4944648646775449e+00 
389 390 2 1.0280000000105065e+00 1.9740408562555440e+03 1.0000000000000000e+00 5.5438787373647052e+01 6.7816365686603861e+00 3.6596033709052738e+00 
730 731 2 1.0279999998708904e+00 1.7650323855439324e+03 1.0000000000000000e+00 6.2044862774076513e+01 7.0898407654302931e+00 2.1854284360394920e+00 
266 267 2 1.0279999996876310e+00 -2.4067707282344991e+03 1.0000000000000000e+00 6.3796329106376277e+01 7.8701044180034128e+00 2.8427266782004228e+00 
4424 4425 2 1.0280000006860499e+00 -2.4049949073567941e+03 1.0000000000000000e+00 6.3777938424047171e+01 7.2776448796792108e+00 3.1870338191282697e+00 
1241 1242 2 1.0280000000156935e+00 -2.8465486939797829e+03 1.0000000000000000e+00 6.4869817187248685e+01 9.8761717045976010e+00 2.6458005415972496e+00 
1238 1239 2 1.0280000000166796e+00 -2.8820053647596160e+03 1.0000000000000000e+00 6.4215271395609506e+01 1.0560419402458503e+01 3.1197228449516605e+00 
1200 1201 2 1.0279999997697511e+00 4.6313631124998792e+03 1.0000000000000000e+00 6.6230753852370341e+01 1.0271853929457219e+01 3.7666667681360178e+00 
1160 1161 2 1.0279999999667666e+00 4.2687847280786673e+03 1.0000000000000000e+00 6.4857133666552642e+01 1.2808809281978032e+01 3.0937446036934348e+00 
3009 3010 2 1.0279999999664684e+00 -2.0315275705815261e+03 1.0000000000000000e+00 6.4857793815245216e+01 1.2808071447621490e+01 3.0935580199189858e+00 
3008 3009 2 1.0280000000942082e+00 -2.5297904219308430e+03 1.0000000000000000e+00 6.6140819000676771e+01 1.4323870265216801e+01 3.4062819734373937e+00 
237 238 2 1.0280000000941081e+00 -3.8908285209800233e+03 1.0000000000000000e+00 6.6140762535257466e+01 1.4323938167545112e+01 3.4061886128559031e+00 
4595 4596 2 1.0280000000059613e+00 -3.4442940559247295e+03 1.0000000000000000e+00 5.8158616643129015e+01 3.8855022599159135e+00 5.4258829048527728e+00 
3551 3552 2 1.0279999999185663e+00 -2.8494453040310400e+03 1.0000000000000000e+00 6.4225741541799948e+01 3.4827029164607999e+00 4.3136983353102645e+00 
3548 3549 2 1.0280000000196392e+00 -2.8869262011908581e+03 1.0000000000000000e+00 6.3854953666608687e+01 2.6170619102320440e+00 4.3913096916787531e+00 
3971 3972 2 1.0279999999291580e+00 -2.2306155820308095e+03 1.0000000000000000e+00 6.4173414985980287e+01 2.2390016271803592e+00 5.5567347567670975e+00 
4520 4521 2 1.0280000000825189e+00 -1.1346987440274115e+03 1.0000000000000000e+00 6.4189962974732140e+01 3.7316114886300542e+00 5.9463036336209463e+00 
3510 3511 2 1.0280000003733931e+00 4.6293832628321234e+03 1.0000000000000000e+00 6.5906230628530821e+01 2.9287905583122251e+00 5.5940825282399578e+00 
3038 3039 2 1.0279999999574403e+00 1.6234684527640488e+03 1.0000000000000000e+00 5.6506621061340503e+01 4.3543947836462928e+00 4.0237357379028218e+00 
388 389 2 1.0280000000099982e+00 3.2581781617807843e+02 1.0000000000000000e+00 5.6710727816791874e+01 4.3518512014899500e+00 5.3455986752581115e+00 
4129 4130 2 1.0280000000066354e+00 5.4956761473074027e+02 1.0000000000000000e+00 5.7306717497157798e+01 5.0329657299207957e+00 4.2741823625767061e+00 
2581 2582 2 1.0280000000083749e+00 -1.8339003229586424e+03 1.0000000000000000e+00 6.0538832981047150e+01 5.3333469711602843e+00 5.4114383527644554e+00 
3088 3089 2 1.0280000000543719e+00 4.0233373081864438e+03 1.0000000000000000e+00 6.5321002883978778e+01 4.5727142685702553e+00 5.2991475010161446e+00 
784 785 2 1.0279999999811413e+00 1.8100059151766418e+03 1.0000000000000000e+00 6.5821559217320683e+01 5.9383124365776121e+00 5.8181440279105274e+00 
1652 1653 2 1.0279999999733098e+00 1.6229024817967716e+03 1.0000000000000000e+00 5.6971332184171487e+01 7.6402282724244577e+00 4.2527777616370086e+00 
895 896 2 1.0280000000068352e+00 5.4714620202137576e+02 1.0000000000000000e+00 5.7750292084871141e+01 6.8057957072695476e+00 4.5458416267740951e+00 
437 438 2 1.0279999999998415e+00 -3.4420073441627574e+03 1.0000000000000000e+00 5.8773592657027649e+01 7.7314762356347764e+00 4.7963368768558512e+00 
2119 2120 2 1.0280000000096443e+00 -1.8330340000908141e+03 1.0000000000000000e+00 6.0385602462960094e+01 6.7810894120374927e+00 4.9278758096608462e+00 
1280 1281 2 1.0279999999187843e+00 1.4020636095743412e+03 1.0000000000000000e+00 6.0429173075523103e+01 6.9690017581565566e+00 5.6620791714251730e+00 
4018 4019 2 1.0280000000631175e+00 1.8124281681728639e+03 1.0000000000000000e+00 6.4994444230067302e+01 7.3082073733930182e+00 5.2048674444918701e+00 
856 857 2 1.0280000000191520e+00 4.0488278694885157e+03 1.0000000000000000e+00 5.8322228552749181e+01 8.5657923744558460e+00 5.8387679415504756e+00 
362 363 2 1.0280000003767065e+00 -1.1291705208875683e+03 1.0000000000000000e+00 6.4473631307722115e+01 8.7360940890035437e+00 4.9674015657223922e+00 
1702 1703 2 1.0279999998527420e+00 4.0232403098884861e+03 1.0000000000000000e+00 6.5787187723299454e+01 8.0777669894613346e+00 4.8325122631763815e+00 
737 738 2 1.0280000005791219e+00 -2.2278705848070299e+03 1.0000000000000000e+00 6.4605607088598589e+01 1.0595006271703850e+01 4.3658137808370894e+00 
778 779 2 1.0279999997549780e+00 -2.4392243591096269e+02 1.0000000000000000e+00 6.6607082222801736e+01 1.0297760663237485e+01 4.4495030565980151e+00 
1201 1202 2 1.0280000001257390e+00 4.2036093482318984e+03 1.0000000000000000e+00 6.5511044627520633e+01 1.1588676041894789e+01 5.0785479699857241e+00 
1285 1286 2 1.0279999999557445e+00 1.5251460736245313e+03 1.0000000000000000e+00 6.6183888563486349e+01 1.2204887604340295e+01 5.8801081313243575e+00 
733 734 2 1.0279999981505352e+00 2.4444835451319312e+02 1.0000000000000000e+00 6.6068550843628898e+01 1.6264606071407666e+01 4.6099761863232223e+00 
732 733 2 1.0280000013568953e+00 -9.2915974334129260e+02 1.0000000000000000e+00 6.5815007250472874e+01 1.6350188997590827e+01 5.9183687116588750e+00 
3511 3512 2 1.0280000001891569e+00 4.2018949346270347e+03 1.0000000000000000e+00 6.4761111130028866e+01 4.6194095725645928e-01 6.8319096786596898e+00 
3552 3553 2 1.0279999996817659e+00 -2.1010202783084133e+03 1.0000000000000000e+00 6.6179992901350900e+01 1.1136657593202186e+00 7.6172119139057628e+00 
4090 4091 2 1.0279999998884337e+00 4.0493664936978312e+03 1.0000000000000000e+00 5.8100137667120649e+01 3.7584016777576661e+00 6.2085412171147549e+00 
2582 2583 2 1.0280000001857728e+00 -1.6069355413828694e+03 1.0000000000000000e+00 5.8499382389666344e+01 3.5501052452384307e+00 7.8467513864868561e+00 
3588 3589 2 1.0279999999574787e+00 1.5300042800199103e+03 1.0000000000000000e+00 6.2678095660027708e+01 2.6062634781107974e+00 7.2022451387310085e+00 
3589 3590 2 1.0280000000275096e+00 1.4807277003672116e+03 1.0000000000000000e+00 6.4121740452924783e+01 2.6726794218263179e+00 7.2918612514271839e+00 
3504 3505 2 1.0280000000863356e+00 4.2057735164509859e+03 1.0000000000000000e+00 6.2819296135981261e+01 3.0723177149687526e+00 7.6925784007614189e+00 
4519 4520 2 1.0280000001681766e+00 -1.6854924795707079e+03 1.0000000000000000e+00 6.5924853274197034e+01 2.1460766706243897e+00 7.5773709414845012e+00 
4012 4013 2 1.0279999992037925e+00 -2.3972101396302102e+02 1.0000000000000000e+00 6.6360541754278074e+01 3.3418418517862696e+00 6.2492759283934225e+00 
3590 3591 2 1.0279999999418399e+00 1.4026062060023382e+03 1.0000000000000000e+00 6.0645475727528080e+01 5.0594798195891011e+00 6.2537370307047908e+00 
3706 3707 2 1.0279999997390337e+00 2.0408828168272632e+02 1.0000000000000000e+00 6.1009074536078309e+01 5.4426186391089697e+00 7.7153730311255133e+00 
3087 3088 2 1.0280000004762624e+00 4.0439304530472946e+03 1.0000000000000000e+00 6.4073057554769690e+01 5.9592391089975516e+00 7.7228264327487768e+00 
4014 4015 2 1.0279999998914129e+00 2.9407710684657935e+01 1.0000000000000000e+00 6.6588096818625743e+01 5.7245727418861403e+00 6.9274067452912620e+00 
4546 4547 2 1.0280000000038967e+00 3.2445741515996531e+02 1.0000000000000000e+00 5.7449913729497226e+01 7.4947132146761843e+00 6.1372044466836746e+00 
2120 2121 2 1.0279999999727467e+00 -1.6029896779446881e+03 1.0000000000000000e+00 5.8449841326767441e+01 7.7275042961753933e+00 6.7415565724300128e+00 
472 473 2 1.0280000001514751e+00 2.0566405077820167e+02 1.0000000000000000e+00 6.1117146723184028e+01 6.2996442264146086e+00 7.5020643314932194e+00 
3968 3969 2 1.0280000007077341e+00 -2.1884644607650534e+03 1.0000000000000000e+00 6.4837960735158958e+01 6.0803814476484952e+00 6.9524213701170803e+00 
1278 1279 2 1.0280000000994980e+00 1.5287676810179828e+03 1.0000000000000000e+00 6.3576311316013587e+01 9.3594642329841538e+00 6.0470124514596169e+00 
1194 1195 2 1.0280000006610477e+00 4.2039991881259884e+03 1.0000000000000000e+00 6.3410658672367930e+01 8.7349744590902301e+00 6.9436005621375045e+00 
780 781 2 1.0280000001389822e+00 2.6800409003993117e+01 1.0000000000000000e+00 6.5919716635636178e+01 8.1099546341339614e+00 6.4236125595316658e+00 
1279 1280 2 1.0279999997780658e+00 1.4831147421000783e+03 1.0000000000000000e+00 6.4933206093358365e+01 9.7845894464530527e+00 6.3152141337870633e+00 
734 735 2 1.0280000000418623e+00 -2.1844075654142280e+03 1.0000000000000000e+00 6.5540204914336400e+01 9.1749535884709719e+00 7.6860448426689416e+00 
361 362 2 1.0280000001227769e+00 -1.6943232093299025e+03 1.0000000000000000e+00 6.6479448149740890e+01 1.0477209150986516e+01 6.2861343404830334e+00 
2699 2700 2 1.0279999994849285e+00 1.4976188891270231e+03 1.0000000000000000e+00 6.3651782560984842e+01 1.3219213223860434e+01 7.9046845906335417e+00 
1814 1815 2 1.0280000009116419e+00 -8.0813017345650792e+02 1.0000000000000000e+00 6.3416539925040894e+01 1.3819191034361101e+01 7.9370491990763936e+00 
2749 2750 2 1.0280000001955814e+00 -9.3112995707931873e+02 1.0000000000000000e+00 6.4269158245178843e+01 1.5261408766401228e+01 7.2348741487206940e+00 
355 356 2 1.0279999997966092e+00 -1.5715347774479333e+03 1.0000000000000000e+00 6.4254304687080221e+01 1.5991296312049959e+01 7.6614240463374434e+00 
2754 2755 2 1.0280000008947525e+00 -9.2888305643596891e+02 1.0000000000000000e+00 6.6237421937251554e+01 1.5377969171500409e+01 7.3740035964180031e+00 
360 361 2 1.0279999997028022e+00 -1.5710209933224396e+03 1.0000000000000000e+00 6.5556682828116280e+01 1.6225564105404288e+01 7.8414453177608667e+00 
63 64 2 1.0280000000769776e+00 -7.9269463486515156e+02 1.0000000000000000e+00 6.3388327623461926e+01 1.9686392120453661e+01 6.9564928973866964e+00 
64 65 2 1.0280000000770075e+00 -7.9440919894250658e+02 1.0000000000000000e+00 6.3388291736458086e+01 1.9686352937853847e+01 6.9565819842376904e+00 
3508 3509 2 1.0280000002681369e+00 4.5847861903554840e+03 1.0000000000000000e+00 6.4689614536311453e+01 1.3632347671859322e+00 8.8732229905528470e+00 
3543 3544 2 1.0279999998427025e+00 -1.0660094515614151e+03 1.0000000000000000e+00 6.3414822376075662e+01 1.3492616054324822e+00 9.0371441182767196e+00 
2577 2578 2 1.0280000001357401e+00 -1.6709188419521020e+03 1.0000000000000000e+00 6.3464780137704409e+01 4.7559310135882921e-01 9.2747730275834481e+00 
3617 3618 2 1.0279999996062328e+00 -6.8393383698839034e+02 1.0000000000000000e+00 5.8676981724814262e+01 3.7306535696307224e+00 8.1102570581798155e+00 
390 391 2 1.0280000000027218e+00 9.8950136533691034e+02 1.0000000000000000e+00 5.8961988307614071e+01 3.1513936610757201e+00 9.9637696190259160e+00 
1312 1313 2 1.0279999999645186e+00 -1.8201995283109154e+03 1.0000000000000000e+00 5.9323496780947593e+01 5.5637840607150064e+00 9.8759941191102669e+00 
3622 3623 2 1.0280000001426879e+00 -1.8364847030431611e+03 1.0000000000000000e+00 5.9588523887110810e+01 4.1476020992264813e+00 9.9190056788856253e+00 
4549 4550 2 1.0280000001010643e+00 5.5322615584390383e+02 1.0000000000000000e+00 6.1445684611017704e+01 5.1792608670425917e+00 9.5081098523388441e+00 
391 392 2 1.0279999999372647e+00 5.5481120157626890e+02 1.0000000000000000e+00 6.2132305106481653e+01 4.8158802573575414e+00 9.5226665262087540e+00 
4512 4513 2 1.0280000005754153e+00 -1.6934949694732891e+03 1.0000000000000000e+00 6.3266266176362826e+01 5.4386100649815123e+00 8.4144760436789170e+00 
4511 4512 2 1.0279999997605043e+00 -1.1184537323140639e+03 1.0000000000000000e+00 6.6308666227180169e+01 5.7970260508229652e+00 8.2203189049062395e+00 
1307 1308 2 1.0279999999137719e+00 -6.8756122954162811e+02 1.0000000000000000e+00 5.9188859806213088e+01 6.8237313468530143e+00 8.2597332438439217e+00 
4548 4549 2 1.0280000001870884e+00 1.0100508135095195e+03 1.0000000000000000e+00 5.9189394677436560e+01 6.9814511540093269e+00 8.5891164356788821e+00 
3547 3548 2 1.0279999996413938e+00 -2.0894966423527621e+03 1.0000000000000000e+00 6.2246732328468667e+01 6.9822361184124624e+00 8.4838352598834650e+00 
4011 4012 2 1.0279999999702636e+00 -1.4458191917890611e+02 1.0000000000000000e+00 6.3014868260724171e+01 6.2262993863258735e+00 9.7033008510970618e+00 
2237 2238 2 1.0279999991844855e+00 1.4784009158256404e+03 1.0000000000000000e+00 6.4708307697276354e+01 6.9308766500393659e+00 9.3833586620190061e+00 
353 354 2 1.0279999997644087e+00 -1.1211245813728415e+03 1.0000000000000000e+00 6.6189589846740176e+01 7.6184514962801986e+00 8.3285958064303784e+00 
3200 3201 2 1.0280000014388122e+00 -8.2665297970247093e+02 1.0000000000000000e+00 6.4936267186577680e+01 7.6087678873108775e+00 9.4664767599541673e+00 
1237 1238 2 1.0280000005501100e+00 -2.0899874839228078e+03 1.0000000000000000e+00 6.2420529660678028e+01 8.1664607129942262e+00 8.8525172841376900e+00 
2751 2752 2 1.0279999997121880e+00 -1.0866662959540233e+03 1.0000000000000000e+00 6.2323223240912554e+01 9.2548008490644911e+00 9.6512677035091379e+00 
354 355 2 1.0280000001801113e+00 -1.6958824917332854e+03 1.0000000000000000e+00 6.3316176213742004e+01 9.9164306268719731e+00 8.5058220719087423e+00 
1701 1702 2 1.0279999996841747e+00 4.0410043879606337e+03 1.0000000000000000e+00 6.4155843280154187e+01 8.5451040248688077e+00 8.0354724749099447e+00 
484 485 2 1.0279999998517970e+00 -4.1115193682259138e+02 1.0000000000000000e+00 6.6208117990209985e+01 9.8498916824396101e+00 9.8128197429546997e+00 
1233 1234 2 1.0280000002903991e+00 -1.0631594539327718e+03 1.0000000000000000e+00 6.4663590965910799e+01 1.1608901996110347e+01 8.7380504057140573e+00 
777 778 2 1.0279999997477618e+00 -1.4047946583554631e+02 1.0000000000000000e+00 6.3913718207782196e+01 1.0952484788581573e+01 8.8571818292040110e+00 
3717 3718 2 1.0280000002324190e+00 -2.9037935830018193e+02 1.0000000000000000e+00 6.2934956321371963e+01 1.2951602788288662e+01 9.6038316036933367e+00 
483 484 2 1.0280000003709544e+00 -3.0416562033873640e+02 1.0000000000000000e+00 6.3011184486195404e+01 1.3440426392237759e+01 9.9574022034656338e+00 
1198 1199 2 1.0279999997091414e+00 4.5856270318796187e+03 1.0000000000000000e+00 6.5638976291194652e+01 1.2565153646383081e+01 8.4248547349207410e+00 
2115 2116 2 1.0279999998733376e+00 -1.6647873230454443e+03 1.0000000000000000e+00 6.5319047958682489e+01 1.4013930243621163e+01 8.7404473415262487e+00 
2194 2195 2 1.0279999999751490e+00 -6.4743111567001392e+02 1.0000000000000000e+00 6.4917364300560649e+01 1.7182727821578229e+01 9.8825094789355816e+00 
434 435 2 1.0280000000456333e+00 -2.9308381922057233e+03 1.0000000000000000e+00 6.4482887916925023e+01 1.8458591809844158e+01 9.3508649429542530e+00 
818 819 2 1.0279999998532541e+00 8.6064864356906082e+02 1.0000000000000000e+00 6.5350751505588477e+01 1.8580525933797155e+01 9.6200552964858286e+00 
3116 3117 2 1.0280000001457594e+00 -5.4162335819998998e+02 1.0000000000000000e+00 6.1390378948573392e+01 1.3192318467430394e-01 1.1249882960885861e+01 
2283 2284 2 1.0280000001023795e+00 -9.5274972467016778e+02 1.0000000000000000e+00 6.3875893971273101e+01 1.1310625330495614e+00 1.1262341720709658e+01 
2679 2680 2 1.0279999998647900e+00 -6.5133583990907164e+02 1.0000000000000000e+00 6.5230220894086727e+01 9.3880778386375707e-01 1.1646226398860193e+01 
4586 4587 2 1.0279999997392635e+00 -4.9245569083166120e+03 1.0000000000000000e+00 5.8557188156972785e+01 3.2580226898684477e+00 1.1194116408748295e+01 
3668 3669 2 1.0280000000520488e+00 -9.4478117036669630e+02 1.0000000000000000e+00 5.6982639590799529e+01 3.4482026819794789e+00 1.1823924781624015e+01 
2284 2285 2 1.0280000002707366e+00 -1.3897469132816768e+03 1.0000000000000000e+00 6.3458152635945055e+01 2.5657305429304191e+00 1.1286934071168879e+01 
2619 2620 2 1.0279999997834153e+00 9.3903269086707314e+02 1.0000000000000000e+00 6.5446041192838010e+01 2.1105104297856099e+00 1.0100073836204260e+01 
3086 3087 2 1.0280000002384089e+00 3.9709516678391428e+03 1.0000000000000000e+00 6.6635715741144907e+01 2.5492517909082024e+00 1.0366813417147489e+01 
2156 2157 2 1.0280000005097574e+00 7.3605521326042276e+02 1.0000000000000000e+00 6.5262342769289390e+01 3.0757183853381558e+00 1.1186696053479304e+01 
3206 3207 2 1.0280000000917737e+00 1.6137082923579801e+03 1.0000000000000000e+00 5.7655696085497588e+01 4.3613574460944857e+00 1.0212193681386358e+01 
1820 1821 2 1.0279999999356344e+00 1.6168511580939239e+03 1.0000000000000000e+00 5.7913363565513862e+01 5.3589456594576594e+00 1.0219105240801944e+01 
1358 1359 2 1.0279999999196567e+00 -9.4570897613295142e+02 1.0000000000000000e+00 5.7130433069493549e+01 5.7980687214377564e+00 1.1869456152864217e+01 
428 429 2 1.0280000004245471e+00 -4.9272300032296607e+03 1.0000000000000000e+00 5.8777681653604567e+01 5.9441146357988863e+00 1.1902518174702935e+01 
808 809 2 1.0279999999446134e+00 1.1300506808896594e+03 1.0000000000000000e+00 5.9629318608002386e+01 6.9728116860057847e+00 1.0575829774685843e+01 
725 726 2 1.0279999998022842e+00 7.2615970523107851e+00 1.0000000000000000e+00 6.0261190109101022e+01 7.2761243514674137e+00 1.1374596411374190e+01 
1822 1823 2 1.0280000005138870e+00 -1.3423448446010542e+02 1.0000000000000000e+00 6.1330549480391348e+01 7.3724137623798187e+00 1.0314429031468570e+01 
303 304 2 1.0280000000604173e+00 1.8537592092889736e+03 1.0000000000000000e+00 6.1772696736775821e+01 6.4890878718870848e+00 1.1296355976085382e+01 
2745 2746 2 1.0279999995568507e+00 -9.5278470799128240e+02 1.0000000000000000e+00 6.2923857664963165e+01 7.8610824981148877e+00 1.0881960351496584e+01 
4591 4592 2 1.0280000003649135e+00 -3.5403187521523951e+03 1.0000000000000000e+00 6.4067049121083940e+01 7.7204496670675402e+00 1.1349325253925002e+01 
1275 1276 2 1.0280000000395573e+00 1.8127729612717390e+03 1.0000000000000000e+00 6.1761309235241015e+01 1.0767446108551237e+01 1.1490897381067674e+01 
1191 1192 2 1.0279999998155367e+00 4.3615844333003042e+03 1.0000000000000000e+00 6.2104792665890493e+01 1.1170094932732196e+01 1.1894322411294727e+01 
2750 2751 2 1.0280000005018186e+00 -1.4805409515828101e+03 1.0000000000000000e+00 6.2736284221095815e+01 1.0242721057048104e+01 1.0251453064556111e+01 
2746 2747 2 1.0279999997463154e+00 -1.3789791192712928e+03 1.0000000000000000e+00 6.3514167616727299e+01 1.0581069088328064e+01 1.1639274718745694e+01 
276 277 2 1.0279999998380154e+00 -3.0997747583771779e+03 1.0000000000000000e+00 6.5979495633280322e+01 1.1578091724095675e+01 1.0242082392676030e+01 
1730 1731 2 1.0279999994282041e+00 -5.3566705578086976e+02 1.0000000000000000e+00 6.1528907201365463e+01 1.3483401339121427e+01 1.1404913151641672e+01 
1729 1730 2 1.0280000009985062e+00 -1.6438034175676844e+03 1.0000000000000000e+00 6.1849523977023694e+01 1.3829654181343257e+01 1.1540575950441630e+01 
1365 1366 2 1.0280000007361019e+00 -2.0557863203225807e+03 1.0000000000000000e+00 6.4235792057732127e+01 1.2010882342910479e+01 1.1517291762724984e+01 
2217 2218 2 1.0279999997651785e+00 -6.2890690881105456e+02 1.0000000000000000e+00 6.4732239437077311e+01 1.2838889148480330e+01 1.0549707998566003e+01 
2618 2619 2 1.0280000005081291e+00 7.5386379457643761e+02 1.0000000000000000e+00 6.5457745553253190e+01 1.3967121486981675e+01 1.0046855924965659e+01 
3718 3719 2 1.0280000000703655e+00 -4.4205277997788369e+02 1.0000000000000000e+00 6.6217782059051373e+01 1.3099394406013872e+01 1.1875759827404506e+01 
2216 2217 2 1.0280000007088901e+00 -2.1099521082436449e+03 1.0000000000000000e+00 6.5112885127858590e+01 1.7454550697099467e+01 1.0952366245568200e+01 
2163 2164 2 1.0279999993786197e+00 4.5390982690772330e+02 1.0000000000000000e+00 6.6324861378533598e+01 1.6361468437335908e+01 1.1499709742976451e+01 
4461 4462 2 1.0279999998579632e+00 1.8353615366596584e+03 1.0000000000000000e+00 6.2488725127865145e+01 1.1004308151175914e+00 1.2045916261973503e+01 
4590 4591 2 1.0280000003435317e+00 -3.3995875320055434e+03 1.0000000000000000e+00 6.3132035593709311e+01 9.3238174489880310e-02 1.2932119862980993e+01 
4433 4434 2 1.0279999995155371e+00 -1.7261475955728401e+03 1.0000000000000000e+00 6.6318173633392476e+01 1.2570451045854403e+00 1.3445587071251037e+01 
1821 1822 2 1.0279999999982925e+00 1.2786391781008047e+03 1.0000000000000000e+00 5.6662598493743189e+01 3.8364931045709239e+00 1.2306820857213467e+01 
3955 3956 2 1.0280000000486134e+00 1.3734041301543111e+03 1.0000000000000000e+00 5.8991244097771911e+01 3.3775307561514962e+00 1.2797208686537195e+01 
4042 4043 2 1.0279999996844895e+00 1.1328155820671677e+03 1.0000000000000000e+00 6.0407582493675442e+01 2.8455589748928349e+00 1.2096409307698451e+01 
4416 4417 2 1.0280000000606211e+00 7.8790582882134777e+02 1.0000000000000000e+00 5.9482550530438310e+01 2.6695480044043731e+00 1.3552619897511216e+01 
3959 3960 2 1.0280000000461209e+00 9.9846478894843926e+00 1.0000000000000000e+00 6.0999023058632758e+01 2.1773759026354180e+00 1.2822224677190151e+01 
4087 4088 2 1.0280000001524117e+00 5.0155646854190045e+03 1.0000000000000000e+00 6.2397726624062990e+01 3.1658631631351835e+00 1.2033348631506859e+01 
4541 4542 2 1.0280000001689729e+00 -7.1392271713485752e+02 1.0000000000000000e+00 6.1668809522187587e+01 3.5038145502947815e+00 1.3391510606691673e+01 
4592 4593 2 1.0280000000661083e+00 -2.9168623272371160e+03 1.0000000000000000e+00 6.4551671683984821e+01 3.9243381763856600e+00 1.2620572131854921e+01 
181 182 2 1.0279999994322211e+00 -1.7103278071839950e+03 1.0000000000000000e+00 6.3786164995475609e+01 2.6521720640703692e+00 1.2765346502217550e+01 
4053 4054 2 1.0280000003283405e+00 1.6062382493197192e+03 1.0000000000000000e+00 6.5207537290112043e+01 2.0502651315749723e+00 1.3139147672207310e+01 
403 404 2 1.0279999995021576e+00 6.6625498863315181e+02 1.0000000000000000e+00 6.6077229087241861e+01 3.1169745929819572e+00 1.2400033341752401e+01 
3207 3208 2 1.0280000000571379e+00 1.2781612527635534e+03 1.0000000000000000e+00 5.6752424684246627e+01 5.3412623861115254e+00 1.2433075075500321e+01 
721 722 2 1.0279999997344933e+00 1.3713776129484359e+03 1.0000000000000000e+00 5.8908595095076073e+01 5.0393463463747699e+00 1.2913990384742968e+01 
1356 1357 2 1.0280000001170573e+00 -1.4910477338607311e+03 1.0000000000000000e+00 6.1105843434518626e+01 5.8020195718343892e+00 1.2472489868504201e+01 
3666 3667 2 1.0279999999879454e+00 -1.4945745815359037e+03 1.0000000000000000e+00 6.1352980058428152e+01 4.4946125893108553e+00 1.2749538980212048e+01 
433 434 2 1.0280000003607672e+00 -3.5478251940694086e+03 1.0000000000000000e+00 6.4143363928724696e+01 5.2913854940463860e+00 1.2904285528545500e+01 
853 854 2 1.0279999998268108e+00 5.0126398455611979e+03 1.0000000000000000e+00 6.3288253668693393e+01 5.1171204599142257e+00 1.3289738655197253e+01 
319 320 2 1.0280000005095369e+00 2.9609123601343335e+03 1.0000000000000000e+00 6.6665382665711718e+01 4.9442146067714265e+00 1.3957469730963604e+01 
258 259 2 1.0280000001474650e+00 7.8436041115922626e+02 1.0000000000000000e+00 5.9453474892558440e+01 6.0757734390909208e+00 1.3312871378114442e+01 
383 384 2 1.0280000001526663e+00 -6.9442664475160336e+02 1.0000000000000000e+00 6.2037244438930479e+01 6.6080006259017718e+00 1.3532258357124261e+01 
432 433 2 1.0280000006596923e+00 -3.4199608524122127e+03 1.0000000000000000e+00 6.2879021324376467e+01 7.5744129830841898e+00 1.2503804062103798e+01 
852 853 2 1.0279999996537412e+00 3.4069243310332540e+03 1.0000000000000000e+00 6.3655470800190258e+01 6.6106452489666410e+00 1.3721051953758682e+01 
4091 4092 2 1.0280000007399308e+00 4.3299129819879045e+03 1.0000000000000000e+00 6.5193898210685489e+01 7.7790284795508358e+00 1.3346997042848347e+01 
2744 2745 2 1.0280000000155771e+00 -8.7774152078712518e+02 1.0000000000000000e+00 6.3524190222160371e+01 8.2534023824575975e+00 1.3734348389780116e+01 
4434 4435 2 1.0279999991393918e+00 -3.0833282325512500e+03 1.0000000000000000e+00 6.5093638703546802e+01 8.1662986527199450e+00 1.2017645606725837e+01 
320 321 2 1.0280000003794865e+00 1.4205792042770381e+03 1.0000000000000000e+00 6.6021770406391042e+01 9.0699878650460892e+00 1.2636657704486057e+01 
1653 1654 2 1.0279999998216562e+00 4.1701409956095256e+02 1.0000000000000000e+00 6.4668093988691723e+01 1.1144828021202565e+01 1.2381110999320983e+01 
1781 1782 2 1.0279999990564566e+00 5.8315686275613043e+03 1.0000000000000000e+00 6.5350093373447947e+01 1.1140413681571014e+01 1.3866723548938083e+01 
2200 2201 2 1.0280000002554117e+00 -2.5863493656642404e+03 1.0000000000000000e+00 6.0616471061931122e+01 1.3747481698631059e+01 1.2831446264360347e+01 
1359 1360 2 1.0280000000217926e+00 -1.3679168331941430e+03 1.0000000000000000e+00 6.0948481724223342e+01 1.3673372502109844e+01 1.3592734374292613e+01 
2205 2206 2 1.0280000009981500e+00 -2.0124091501129196e+03 1.0000000000000000e+00 6.4040335059114980e+01 1.2163211579420171e+01 1.3473153199511426e+01 
857 858 2 1.0280000005767533e+00 4.3126858848737611e+03 1.0000000000000000e+00 6.6285910887016882e+01 1.3452710525232707e+01 1.2977831420365472e+01 
1274 1275 2 1.0279999998905027e+00 1.4086327250789996e+03 1.0000000000000000e+00 6.1780308263749397e+01 1.4622255950289073e+01 1.3921015769395536e+01 
431 432 2 1.0279999997395388e+00 -3.9040291365224466e+03 1.0000000000000000e+00 6.2905230386472688e+01 1.5125315375473100e+01 1.3140461731052554e+01 
473 474 2 1.0279999991936999e+00 1.6742017268046529e+03 1.0000000000000000e+00 6.3926807855033047e+01 1.4250228761036929e+01 1.3533326371389954e+01 
1190 1191 2 1.0280000004969925e+00 3.6649714635510882e+03 1.0000000000000000e+00 6.2175589451091462e+01 1.6480348949636749e+01 1.3103239683012459e+01 
893 894 2 1.0279999995784823e+00 1.6997858243294240e+03 1.0000000000000000e+00 6.2806535573926787e+01 1.7097561265398713e+01 1.2693340642757637e+01 
2761 2762 2 1.0280000004895518e+00 -1.1283043926859350e+03 1.0000000000000000e+00 6.5137417975265080e+01 1.6098974736106339e+01 1.2438264700854317e+01 
2164 2165 2 1.0279999999028544e+00 4.6173067264725421e+02 1.0000000000000000e+00 6.5661319275372136e+01 1.7232282618635715e+01 1.2601399748531996e+01 
819 820 2 1.0280000002236722e+00 1.6094095774921329e+03 1.0000000000000000e+00 6.5446485891123487e+01 1.6189503441220086e+01 1.3782857825773215e+01 
3710 3711 2 1.0279999998076648e+00 1.2797529671177599e+03 1.0000000000000000e+00 6.1953180935045523e+01 1.8410243200926043e+01 1.2024375127069133e+01 
439 440 2 1.0279999997950342e+00 -3.6390906756655386e+03 1.0000000000000000e+00 6.2030108899960325e+01 1.9233556993491359e+01 1.2256167214437168e+01 
2161 2162 2 1.0280000003947651e+00 5.2526214614850710e+02 1.0000000000000000e+00 6.2317985659649878e+01 1.8949128410572822e+01 1.3424832772756135e+01 