LAMMPS data file via write_data, version 30 Jul 2016, timestep = 50000000

4620 atoms
8 atom types

0.0000000000000000e+00 1.0000000000000000e+02 xlo xhi
0.0000000000000000e+00 4.0000000000000000e+01 ylo yhi
0.0000000000000000e+00 4.0000000000000000e+01 zlo zhi

Masses

1 3.896
2 5.36
3 20.064
4 8.378
5 8.378
6 8.378
7 8.378
8 8.378

Atoms # meso-molecular

2084 2085 2 1.0280000000906369e+00 6.3252472869334924e+03 1.0000000000000000e+00 6.4658966438780624e+01 2.4345596261580313e+00 6.2881523767548214e-02 
3461 3462 2 1.0279999996474567e+00 4.2978129308004309e+03 1.0000000000000000e+00 6.6011127356435622e+01 2.0617384329240851e+00 3.5787767836187973e-01 
3085 3086 2 1.0280000001487060e+00 3.9240401745809095e+03 1.0000000000000000e+00 6.2378217007026599e+01 5.1522826015531882e+00 1.7179958538092392e+00 
3084 3085 2 1.0280000008939254e+00 3.7357064612642071e+03 1.0000000000000000e+00 6.2930088391362190e+01 4.8306709318634375e+00 8.1383307852037109e-02 
3462 3463 2 1.0280000000584621e+00 1.2040440877353526e+03 1.0000000000000000e+00 6.2448961271918456e+01 7.1832986341263068e+00 1.0826679452169101e+00 
3505 3506 2 1.0279999999659528e+00 4.7387373439595631e+03 1.0000000000000000e+00 6.3851936513327345e+01 6.0769148203126635e+00 1.3963049464197492e+00 
1152 1153 2 1.0279999998897422e+00 1.2006547761278694e+03 1.0000000000000000e+00 6.2486975600263634e+01 9.0656398358885522e+00 4.5032876350388112e-01 
3964 3965 2 1.0279999999391976e+00 1.7585491290363575e+03 1.0000000000000000e+00 6.2120078783218375e+01 8.7846084873341912e+00 1.7805932246951743e+00 
1195 1196 2 1.0280000004816554e+00 4.7417341694368806e+03 1.0000000000000000e+00 6.3777121898086712e+01 9.9155102061012634e+00 2.2772948552785613e-01 
1196 1197 2 1.0280000002812548e+00 4.3323152697785226e+03 1.0000000000000000e+00 6.3954663418067170e+01 9.2850984998874484e+00 1.7198217293369746e+00 
1699 1700 2 1.0279999998960998e+00 3.9245950804413706e+03 1.0000000000000000e+00 6.2584275210984259e+01 1.0636068071831875e+01 6.9242324865310534e-01 
4049 4050 2 1.0279999999727132e+00 1.2647646546038147e+03 1.0000000000000000e+00 6.2411186316495616e+01 1.0170608023147766e+01 1.8178605505531642e+00 
4547 4548 2 1.0279999999946958e+00 1.9739843939833645e+03 1.0000000000000000e+00 5.5176519877350664e+01 5.3338325659031423e+00 2.7652288051981624e+00 
3037 3038 2 1.0279999999991283e+00 4.9919523857850231e+02 1.0000000000000000e+00 5.5513622988734411e+01 5.0660336618156681e+00 2.7265837187812281e+00 
815 816 2 1.0279999999204783e+00 1.2629008229268766e+03 1.0000000000000000e+00 6.2280219971940561e+01 5.5971866669313046e+00 2.5233292974343562e+00 
3506 3507 2 1.0279999999411451e+00 4.3319359671589109e+03 1.0000000000000000e+00 6.4078995987763150e+01 5.9453585604144763e+00 2.2910194018228531e+00 
1651 1652 2 1.0280000000012366e+00 4.9929984507784138e+02 1.0000000000000000e+00 5.5813411157220912e+01 7.3672651297951388e+00 3.4962263779254386e+00 
389 390 2 1.0280000000099765e+00 1.9740408562555440e+03 1.0000000000000000e+00 5.5438775880351926e+01 6.7810547539409516e+00 3.6613653038414031e+00 
730 731 2 1.0279999998596752e+00 1.7650323855439324e+03 1.0000000000000000e+00 6.2044951500100851e+01 7.0893754656508614e+00 2.1867183081955854e+00 
266 267 2 1.0279999996611704e+00 -2.4067707282344991e+03 1.0000000000000000e+00 6.3796411076803160e+01 7.8696199054094844e+00 2.8440587598120817e+00 
4424 4425 2 1.0280000007497907e+00 -2.4049949073567941e+03 1.0000000000000000e+00 6.3778009513244392e+01 7.2771616893274862e+00 3.1883270497165692e+00 
1241 1242 2 1.0280000000286817e+00 -2.8465486939797829e+03 1.0000000000000000e+00 6.4869846290988320e+01 9.8756586520160212e+00 2.6472168130866991e+00 
1238 1239 2 1.0280000000186256e+00 -2.8820053647596160e+03 1.0000000000000000e+00 6.4215318204999619e+01 1.0559887285913080e+01 3.1211651639542861e+00 
1200 1201 2 1.0279999997506422e+00 4.6313631124998792e+03 1.0000000000000000e+00 6.6230751427282897e+01 1.0271314869106424e+01 3.7681216750718498e+00 
1160 1161 2 1.0279999999603004e+00 4.2687847280786673e+03 1.0000000000000000e+00 6.4857235885132965e+01 1.2808230879260964e+01 3.0951638875402279e+00 
3009 3010 2 1.0279999999599057e+00 -2.0315275705815261e+03 1.0000000000000000e+00 6.4857896027908509e+01 1.2807493036670291e+01 3.0949773060839765e+00 
3008 3009 2 1.0280000001024285e+00 -2.5297904219308430e+03 1.0000000000000000e+00 6.6140943667767260e+01 1.4323282237724404e+01 3.4076649309057090e+00 
237 238 2 1.0280000001022664e+00 -3.8908285209800233e+03 1.0000000000000000e+00 6.6140887205151259e+01 1.4323350138990671e+01 3.4075715714627002e+00 
4595 4596 2 1.0280000000064433e+00 -3.4442940559247295e+03 1.0000000000000000e+00 5.8158611327593135e+01 3.8849193852860568e+00 5.4276320935467526e+00 
3551 3552 2 1.0279999999173355e+00 -2.8494453040310400e+03 1.0000000000000000e+00 6.4225711055974529e+01 3.4822387392041252e+00 4.3151676999450848e+00 
3548 3549 2 1.0280000000200535e+00 -2.8869262011908581e+03 1.0000000000000000e+00 6.3854922896853061e+01 2.6165922703847180e+00 4.3927824162124196e+00 
3971 3972 2 1.0279999999222327e+00 -2.2306155820308095e+03 1.0000000000000000e+00 6.4173383145234880e+01 2.2385244531999220e+00 5.5582071279344163e+00 
4520 4521 2 1.0280000000841263e+00 -1.1346987440274115e+03 1.0000000000000000e+00 6.4189928236157186e+01 3.7311376123332209e+00 5.9477718155550230e+00 
3510 3511 2 1.0280000004042562e+00 4.6293832628321234e+03 1.0000000000000000e+00 6.5906171020431941e+01 2.9283316978423617e+00 5.5955336243064879e+00 
3038 3039 2 1.0279999999597873e+00 1.6234684527640488e+03 1.0000000000000000e+00 5.6506611479336357e+01 4.3538105860559204e+00 4.0254937897207279e+00 
388 389 2 1.0280000000110625e+00 3.2581781617807843e+02 1.0000000000000000e+00 5.6710719295532890e+01 4.3512690359544193e+00 5.3473536761090834e+00 
4129 4130 2 1.0280000000031448e+00 5.4956761473074027e+02 1.0000000000000000e+00 5.7306710081597302e+01 5.0323839476819421e+00 4.2759400131838259e+00 
2581 2582 2 1.0280000000146954e+00 -1.8339003229586424e+03 1.0000000000000000e+00 6.0538827310802581e+01 5.3327669490064542e+00 5.4131380952726547e+00 
3088 3089 2 1.0280000000587921e+00 4.0233373081864438e+03 1.0000000000000000e+00 6.5320960093636401e+01 4.5722584752837756e+00 5.3006150837231747e+00 
784 785 2 1.0279999999928371e+00 1.8100059151766418e+03 1.0000000000000000e+00 6.5821494166049732e+01 5.9378148964308934e+00 5.8196639885647485e+00 
1652 1653 2 1.0279999999791924e+00 1.6229024817967716e+03 1.0000000000000000e+00 5.6971323073801123e+01 7.6396480613640083e+00 4.2545353333717317e+00 
895 896 2 1.0280000000046519e+00 5.4714620202137576e+02 1.0000000000000000e+00 5.7750284744873490e+01 6.8052148622493620e+00 4.5475973524036171e+00 
437 438 2 1.0279999999954701e+00 -3.4420073441627574e+03 1.0000000000000000e+00 5.8773585586986471e+01 7.7308973173703501e+00 4.7980839138347120e+00 
2119 2120 2 1.0280000000096929e+00 -1.8330340000908141e+03 1.0000000000000000e+00 6.0385597555237304e+01 6.7805121240309401e+00 4.9295887784812997e+00 
1280 1281 2 1.0279999999146439e+00 1.4020636095743412e+03 1.0000000000000000e+00 6.0429169914667597e+01 6.9684289277802129e+00 5.6637955740424584e+00 
4018 4019 2 1.0280000000420300e+00 1.8124281681728639e+03 1.0000000000000000e+00 6.4994406770157283e+01 7.3076922060473146e+00 5.2063888285078548e+00 
856 857 2 1.0280000000179912e+00 4.0488278694885157e+03 1.0000000000000000e+00 5.8322222294194177e+01 8.5652111075376194e+00 5.8405202351137087e+00 
362 363 2 1.0280000004156553e+00 -1.1291705208875683e+03 1.0000000000000000e+00 6.4473621933775178e+01 8.7355633760561862e+00 4.9689343110705693e+00 
1702 1703 2 1.0279999998456935e+00 4.0232403098884861e+03 1.0000000000000000e+00 6.5787161178045594e+01 8.0772428535228080e+00 4.8340107039493239e+00 
737 738 2 1.0280000006226644e+00 -2.2278705848070299e+03 1.0000000000000000e+00 6.4605642784448875e+01 1.0594448825151419e+01 4.3672749949255865e+00 
778 779 2 1.0279999997300220e+00 -2.4392243591096269e+02 1.0000000000000000e+00 6.6607079543084240e+01 1.0297215511782417e+01 4.4509897832543901e+00 
1201 1202 2 1.0280000001519198e+00 4.2036093482318984e+03 1.0000000000000000e+00 6.5511031316732272e+01 1.1588105087692140e+01 5.0800432626712722e+00 
1285 1286 2 1.0279999999487339e+00 1.5251460736245313e+03 1.0000000000000000e+00 6.6183862948278588e+01 1.2204319230319948e+01 5.8816333665722951e+00 
733 734 2 1.0279999979980430e+00 2.4444835451319312e+02 1.0000000000000000e+00 6.6068659598347665e+01 1.6264082790971887e+01 4.6112519248614499e+00 
732 733 2 1.0280000014785207e+00 -9.2915974334129260e+02 1.0000000000000000e+00 6.5815215442278017e+01 1.6349563711626352e+01 5.9197535029965902e+00 
3511 3512 2 1.0280000002097229e+00 4.2018949346270347e+03 1.0000000000000000e+00 6.4761040872445761e+01 4.6144236172758402e-01 6.8333705339290116e+00 
3552 3553 2 1.0279999996659248e+00 -2.1010202783084133e+03 1.0000000000000000e+00 6.6179943760397336e+01 1.1131618353997397e+00 7.6186605747035623e+00 
4090 4091 2 1.0279999998916405e+00 4.0493664936978312e+03 1.0000000000000000e+00 5.8100134180563181e+01 3.7578167345800506e+00 6.2102906879423916e+00 
2582 2583 2 1.0280000001868865e+00 -1.6069355413828694e+03 1.0000000000000000e+00 5.8499385217965518e+01 3.5495232294992332e+00 7.8484968776117681e+00 
3588 3589 2 1.0279999999530844e+00 1.5300042800199103e+03 1.0000000000000000e+00 6.2678060101004405e+01 2.6057811237714850e+00 7.2037211111397941e+00 
3589 3590 2 1.0280000000283642e+00 1.4807277003672116e+03 1.0000000000000000e+00 6.4121702355884835e+01 2.6721912819810316e+00 7.2933341588059291e+00 
3504 3505 2 1.0280000000964988e+00 4.2057735164509859e+03 1.0000000000000000e+00 6.2819266062273769e+01 3.0718332548217946e+00 7.6940542863930022e+00 
4519 4520 2 1.0280000001564347e+00 -1.6854924795707079e+03 1.0000000000000000e+00 6.5924806934448839e+01 2.1455730963208315e+00 7.5788286641026730e+00 
4012 4013 2 1.0279999991330047e+00 -2.3972101396302102e+02 1.0000000000000000e+00 6.6360514109923088e+01 3.3413698585176648e+00 6.2507375723812668e+00 
3590 3591 2 1.0279999999381157e+00 1.4026062060023382e+03 1.0000000000000000e+00 6.0645469339737403e+01 5.0588964250685029e+00 6.2554311582308211e+00 
3706 3707 2 1.0279999997493143e+00 2.0408828168272632e+02 1.0000000000000000e+00 6.1009072111721416e+01 5.4420409591546770e+00 7.7170656787376313e+00 
3087 3088 2 1.0280000005289829e+00 4.0439304530472946e+03 1.0000000000000000e+00 6.4073040735117800e+01 5.9586949844839578e+00 7.7244259171832876e+00 
4014 4015 2 1.0279999998711931e+00 2.9407710684657935e+01 1.0000000000000000e+00 6.6588022986102388e+01 5.7240505105260322e+00 6.9289297706370370e+00 
4546 4547 2 1.0280000000025149e+00 3.2445741515996531e+02 1.0000000000000000e+00 5.7449907860040504e+01 7.4941330904126566e+00 6.1389581775344206e+00 
2120 2121 2 1.0279999999883602e+00 -1.6029896779446881e+03 1.0000000000000000e+00 5.8449837574269360e+01 7.7269242977761641e+00 6.7433090526093231e+00 
472 473 2 1.0280000001386873e+00 2.0566405077820167e+02 1.0000000000000000e+00 6.1117140232498322e+01 6.2990741429488581e+00 7.5037548570531269e+00 
3968 3969 2 1.0280000007642516e+00 -2.1884644607650534e+03 1.0000000000000000e+00 6.4837915726529005e+01 6.0798464357329092e+00 6.9539975746299403e+00 
1278 1279 2 1.0280000001108633e+00 1.5287676810179828e+03 1.0000000000000000e+00 6.3576305016421408e+01 9.3588967155833274e+00 6.0485826979877313e+00 
1194 1195 2 1.0280000007367460e+00 4.2039991881259884e+03 1.0000000000000000e+00 6.3410666077227724e+01 8.7344442918413385e+00 6.9451895756560544e+00 
780 781 2 1.0280000001743335e+00 2.6800409003993117e+01 1.0000000000000000e+00 6.5919676836165777e+01 8.1094175475098247e+00 6.4251412735448481e+00 
1279 1280 2 1.0279999997481004e+00 1.4831147421000783e+03 1.0000000000000000e+00 6.4933174771126019e+01 9.7840416417590852e+00 6.3167472677740761e+00 
734 735 2 1.0280000000440033e+00 -2.1844075654142280e+03 1.0000000000000000e+00 6.5540157082779800e+01 9.1743949058952747e+00 7.6876012558490068e+00 
361 362 2 1.0280000001287632e+00 -1.6943232093299025e+03 1.0000000000000000e+00 6.6479417510670601e+01 1.0476664747290311e+01 6.2876528129661224e+00 
2699 2700 2 1.0279999994351832e+00 1.4976188891270231e+03 1.0000000000000000e+00 6.3651783073385467e+01 1.3218638746936781e+01 7.9063286497765581e+00 
1814 1815 2 1.0280000010003998e+00 -8.0813017345650792e+02 1.0000000000000000e+00 6.3416590267858716e+01 1.3818598257943478e+01 7.9387223295449161e+00 
2749 2750 2 1.0280000002076577e+00 -9.3112995707931873e+02 1.0000000000000000e+00 6.4269258226463080e+01 1.5260770392195994e+01 7.2363846343581590e+00 
355 356 2 1.0279999997795066e+00 -1.5715347774479333e+03 1.0000000000000000e+00 6.4254395657648928e+01 1.5990654052115371e+01 7.6629014691757762e+00 
2754 2755 2 1.0280000009738273e+00 -9.2888305643596891e+02 1.0000000000000000e+00 6.6237454396711797e+01 1.5377374783704129e+01 7.3754607084704196e+00 
360 361 2 1.0279999996778317e+00 -1.5710209933224396e+03 1.0000000000000000e+00 6.5556800947252370e+01 1.6224933717223745e+01 7.8428864823385833e+00 
63 64 2 1.0280000000826837e+00 -7.9269463486515156e+02 1.0000000000000000e+00 6.3388315663683741e+01 1.9685758019035919e+01 6.9579441210063013e+00 
64 65 2 1.0280000000827079e+00 -7.9440919894250658e+02 1.0000000000000000e+00 6.3388279777505090e+01 1.9685718837286764e+01 6.9580332064526509e+00 
3508 3509 2 1.0280000003021170e+00 4.5847861903554840e+03 1.0000000000000000e+00 6.4689543417005865e+01 1.3627206464901334e+00 8.8746817558831346e+00 
3543 3544 2 1.0279999998201450e+00 -1.0660094515614151e+03 1.0000000000000000e+00 6.3414762772782915e+01 1.3487517200641019e+00 9.0386137733854941e+00 
2577 2578 2 1.0280000001517107e+00 -1.6709188419521020e+03 1.0000000000000000e+00 6.3464722621533575e+01 4.7508676309454934e-01 9.2762350060618637e+00 
3617 3618 2 1.0279999996092577e+00 -6.8393383698839034e+02 1.0000000000000000e+00 5.8676988896973633e+01 3.7300752603366076e+00 8.1120041109204681e+00 
390 391 2 1.0280000000035940e+00 9.8950136533691034e+02 1.0000000000000000e+00 5.8961998387167945e+01 3.1508162425402504e+00 9.9655112769242375e+00 
1312 1313 2 1.0279999999444944e+00 -1.8201995283109154e+03 1.0000000000000000e+00 5.9323509779304473e+01 5.5632015628519964e+00 9.8777422190219237e+00 
3622 3623 2 1.0280000001495564e+00 -1.8364847030431611e+03 1.0000000000000000e+00 5.9588528647257462e+01 4.1470264783595043e+00 9.9207493929842219e+00 
4549 4550 2 1.0280000001079506e+00 5.5322615584390383e+02 1.0000000000000000e+00 6.1445699058626239e+01 5.1787074311701886e+00 9.5097904580676236e+00 
391 392 2 1.0279999999231852e+00 5.5481120157626890e+02 1.0000000000000000e+00 6.2132321725819210e+01 4.8153304511569734e+00 9.5243277626469478e+00 
4512 4513 2 1.0280000006192684e+00 -1.6934949694732891e+03 1.0000000000000000e+00 6.3266268236448077e+01 5.4380932842805709e+00 8.4161028644580007e+00 
4511 4512 2 1.0279999997524176e+00 -1.1184537323140639e+03 1.0000000000000000e+00 6.6308585213607913e+01 5.7964800875019762e+00 8.2218566532405593e+00 
1307 1308 2 1.0279999998954590e+00 -6.8756122954162811e+02 1.0000000000000000e+00 5.9188865654704266e+01 6.8231518560665947e+00 8.2614739351861193e+00 
4548 4549 2 1.0280000002538439e+00 1.0100508135095195e+03 1.0000000000000000e+00 5.9189403823257024e+01 6.9808663203655650e+00 8.5908558102925774e+00 
3547 3548 2 1.0279999995990650e+00 -2.0894966423527621e+03 1.0000000000000000e+00 6.2246731856657505e+01 6.9816984306666177e+00 8.4854985208250415e+00 
4011 4012 2 1.0279999999826483e+00 -1.4458191917890611e+02 1.0000000000000000e+00 6.3014858726682100e+01 6.2257383529092714e+00 9.7049549931276591e+00 
2237 2238 2 1.0279999990950932e+00 1.4784009158256404e+03 1.0000000000000000e+00 6.4708284895556531e+01 6.9303404782860172e+00 9.3850008121348676e+00 
353 354 2 1.0279999997253877e+00 -1.1211245813728415e+03 1.0000000000000000e+00 6.6189517999323783e+01 7.6179107455019039e+00 8.3301684421612663e+00 
3200 3201 2 1.0280000016031925e+00 -8.2665297970247093e+02 1.0000000000000000e+00 6.4936218984991896e+01 7.6082106522945434e+00 9.4680802223478917e+00 
1237 1238 2 1.0280000005949945e+00 -2.0899874839228078e+03 1.0000000000000000e+00 6.2420522031187005e+01 8.1659036363234456e+00 8.8541901698144230e+00 
2751 2752 2 1.0279999996663132e+00 -1.0866662959540233e+03 1.0000000000000000e+00 6.2323190167088406e+01 9.2542285659426717e+00 9.6529350943576393e+00 
354 355 2 1.0280000002022553e+00 -1.6958824917332854e+03 1.0000000000000000e+00 6.3316138397189896e+01 9.9158403479116792e+00 8.5074695015335529e+00 
1701 1702 2 1.0279999996377811e+00 4.0410043879606337e+03 1.0000000000000000e+00 6.4155802940201752e+01 8.5445388259257147e+00 8.0370815380053671e+00 
484 485 2 1.0279999998321436e+00 -4.1115193682259138e+02 1.0000000000000000e+00 6.6208024260292163e+01 9.8492986356200856e+00 9.8144119014155091e+00 
1233 1234 2 1.0280000003085734e+00 -1.0631594539327718e+03 1.0000000000000000e+00 6.4663552859672279e+01 1.1608305851564353e+01 8.7397049340804376e+00 
777 778 2 1.0279999996931901e+00 -1.4047946583554631e+02 1.0000000000000000e+00 6.3913679907178306e+01 1.0951891657176752e+01 8.8588428913697026e+00 
3717 3718 2 1.0280000002535274e+00 -2.9037935830018193e+02 1.0000000000000000e+00 6.2934986309991444e+01 1.2951026825537438e+01 9.6055440235607286e+00 
483 484 2 1.0280000004344592e+00 -3.0416562033873640e+02 1.0000000000000000e+00 6.3011211164100054e+01 1.3439814132337014e+01 9.9591160926673297e+00 
1198 1199 2 1.0279999996681861e+00 4.5856270318796187e+03 1.0000000000000000e+00 6.5638944472808618e+01 1.2564553595909038e+01 8.4264652268075420e+00 
2115 2116 2 1.0279999998606113e+00 -1.6647873230454443e+03 1.0000000000000000e+00 6.5319033637701324e+01 1.4013345583912388e+01 8.7420587041330577e+00 
2194 2195 2 1.0279999999546188e+00 -6.4743111567001392e+02 1.0000000000000000e+00 6.4917350822216562e+01 1.7182057402034584e+01 9.8841523284521209e+00 
434 435 2 1.0280000000583056e+00 -2.9308381922057233e+03 1.0000000000000000e+00 6.4482877121108459e+01 1.8457909739187848e+01 9.3524690367085981e+00 
818 819 2 1.0279999998358080e+00 8.6064864356906082e+02 1.0000000000000000e+00 6.5350745224841631e+01 1.8579844802355137e+01 9.6216631091258691e+00 
3116 3117 2 1.0280000001688039e+00 -5.4162335819998998e+02 1.0000000000000000e+00 6.1390308155091958e+01 1.3133780360879255e-01 1.1251432597941356e+01 
2283 2284 2 1.0280000001090923e+00 -9.5274972467016778e+02 1.0000000000000000e+00 6.3875812608156281e+01 1.1305005045413192e+00 1.1263869593613254e+01 
2679 2680 2 1.0279999998527132e+00 -6.5133583990907164e+02 1.0000000000000000e+00 6.5230127278041152e+01 9.3824436128898503e-01 1.1647721521926966e+01 
4586 4587 2 1.0279999997274554e+00 -4.9245569083166120e+03 1.0000000000000000e+00 5.8557186449035484e+01 3.2574315381754810e+00 1.1195862486849185e+01 
3668 3669 2 1.0280000000501361e+00 -9.4478117036669630e+02 1.0000000000000000e+00 5.6982640058404677e+01 3.4476254815526484e+00 1.1825688636725239e+01 
2284 2285 2 1.0280000002974357e+00 -1.3897469132816768e+03 1.0000000000000000e+00 6.3458090016741366e+01 2.5651466897635031e+00 1.1288513079737079e+01 
2619 2620 2 1.0279999997593330e+00 9.3903269086707314e+02 1.0000000000000000e+00 6.5445950797249779e+01 2.1099720687546690e+00 1.0101564636189378e+01 
3086 3087 2 1.0280000002647591e+00 3.9709516678391428e+03 1.0000000000000000e+00 6.6635612851613601e+01 2.5486957577965508e+00 1.0368293963855926e+01 
2156 2157 2 1.0280000005793239e+00 7.3605521326042276e+02 1.0000000000000000e+00 6.5262248327763260e+01 3.0751214504998701e+00 1.1188231250103643e+01 
3206 3207 2 1.0280000000949459e+00 1.6137082923579801e+03 1.0000000000000000e+00 5.7655709038223534e+01 4.3607799199160686e+00 1.0213950415211562e+01 
1820 1821 2 1.0279999999402039e+00 1.6168511580939239e+03 1.0000000000000000e+00 5.7913377375998593e+01 5.3583668081849174e+00 1.0220864519614032e+01 
1358 1359 2 1.0279999999096781e+00 -9.4570897613295142e+02 1.0000000000000000e+00 5.7130456697839556e+01 5.7974930387397974e+00 1.1871222526093625e+01 
428 429 2 1.0280000004703018e+00 -4.9272300032296607e+03 1.0000000000000000e+00 5.8777695201988664e+01 5.9435297224287753e+00 1.1904282056389393e+01 
808 809 2 1.0279999999536200e+00 1.1300506808896594e+03 1.0000000000000000e+00 5.9629332962421209e+01 6.9722275829105707e+00 1.0577568076297462e+01 
725 726 2 1.0279999997818436e+00 7.2615970523107851e+00 1.0000000000000000e+00 6.0261205334092466e+01 7.2755468425928846e+00 1.1376336443553397e+01 
1822 1823 2 1.0280000005327112e+00 -1.3423448446010542e+02 1.0000000000000000e+00 6.1330555461502854e+01 7.3718233741105053e+00 1.0316148895609413e+01 
303 304 2 1.0280000000887495e+00 1.8537592092889736e+03 1.0000000000000000e+00 6.1772688767539741e+01 6.4885143748782168e+00 1.1298084489613412e+01 
2745 2746 2 1.0279999995257283e+00 -9.5278470799128240e+02 1.0000000000000000e+00 6.2923826435163257e+01 7.8604966625464288e+00 1.0883682035413440e+01 
4591 4592 2 1.0280000004078933e+00 -3.5403187521523951e+03 1.0000000000000000e+00 6.4066979105503421e+01 7.7198441431635310e+00 1.1351033334641048e+01 
1275 1276 2 1.0280000000402734e+00 1.8127729612717390e+03 1.0000000000000000e+00 6.1761287547098334e+01 1.0766842310641367e+01 1.1492556873690553e+01 
1191 1192 2 1.0279999997812186e+00 4.3615844333003042e+03 1.0000000000000000e+00 6.2104770110914778e+01 1.1169499278331557e+01 1.1896001227681955e+01 
2750 2751 2 1.0280000005751782e+00 -1.4805409515828101e+03 1.0000000000000000e+00 6.2736254192752398e+01 1.0242133018421338e+01 1.0253123363872286e+01 
2746 2747 2 1.0279999997290863e+00 -1.3789791192712928e+03 1.0000000000000000e+00 6.3514149273323177e+01 1.0580477145402517e+01 1.1640958931160029e+01 
276 277 2 1.0279999998637614e+00 -3.0997747583771779e+03 1.0000000000000000e+00 6.5979430226999881e+01 1.1577508588417016e+01 1.0243721184349154e+01 
1730 1731 2 1.0279999993376303e+00 -5.3566705578086976e+02 1.0000000000000000e+00 6.1529002732053485e+01 1.3482741987374830e+01 1.1406733407046026e+01 
1729 1730 2 1.0280000011393429e+00 -1.6438034175676844e+03 1.0000000000000000e+00 6.1849601154426338e+01 1.3828969849842192e+01 1.1542412063383610e+01 
1365 1366 2 1.0280000007955199e+00 -2.0557863203225807e+03 1.0000000000000000e+00 6.4235761615531970e+01 1.2010275534394092e+01 1.1519033350172464e+01 
2217 2218 2 1.0279999997387133e+00 -6.2890690881105456e+02 1.0000000000000000e+00 6.4732196844949399e+01 1.2838293697916541e+01 1.0551408240849423e+01 
2618 2619 2 1.0280000005587615e+00 7.5386379457643761e+02 1.0000000000000000e+00 6.5457729336173088e+01 1.3966506667277368e+01 1.0048502204366766e+01 
3718 3719 2 1.0280000000929224e+00 -4.4205277997788369e+02 1.0000000000000000e+00 6.6217714764479638e+01 1.3098806692418076e+01 1.1877457251248167e+01 
2216 2217 2 1.0280000008157031e+00 -2.1099521082436449e+03 1.0000000000000000e+00 6.5112860585543331e+01 1.7453872705830410e+01 1.0953987665139067e+01 
2163 2164 2 1.0279999993131568e+00 4.5390982690772330e+02 1.0000000000000000e+00 6.6324804516364907e+01 1.6360811191587441e+01 1.1501338208320416e+01 
4461 4462 2 1.0279999998374307e+00 1.8353615366596584e+03 1.0000000000000000e+00 6.2488655386169818e+01 1.0998462253740338e+00 1.2047481073531621e+01 
4590 4591 2 1.0280000003728711e+00 -3.3995875320055434e+03 1.0000000000000000e+00 6.3131956308791949e+01 9.2650558214171008e-02 1.2933654914207278e+01 
4433 4434 2 1.0279999994584639e+00 -1.7261475955728401e+03 1.0000000000000000e+00 6.6318077651862822e+01 1.2564438888255718e+00 1.3447099033672588e+01 
1821 1822 2 1.0279999999980827e+00 1.2786391781008047e+03 1.0000000000000000e+00 5.6662603691529206e+01 3.8359134358168836e+00 1.2308585167506376e+01 
3955 3956 2 1.0280000000587786e+00 1.3734041301543111e+03 1.0000000000000000e+00 5.8991232302035854e+01 3.3769293202964570e+00 1.2798952639791029e+01 
4042 4043 2 1.0279999996450191e+00 1.1328155820671677e+03 1.0000000000000000e+00 6.0407566977831088e+01 2.8449600834212365e+00 1.2098095888955058e+01 
4416 4417 2 1.0280000000847380e+00 7.8790582882134777e+02 1.0000000000000000e+00 5.9482533359551276e+01 2.6689482947554555e+00 1.3554343480081942e+01 
3959 3960 2 1.0280000000475285e+00 9.9846478894843926e+00 1.0000000000000000e+00 6.0999001484358800e+01 2.1767835446814696e+00 1.2823911205627217e+01 
4087 4088 2 1.0280000001770673e+00 5.0155646854190045e+03 1.0000000000000000e+00 6.2397674314992386e+01 3.1652727675896291e+00 1.2034987318114602e+01 
4541 4542 2 1.0280000001840133e+00 -7.1392271713485752e+02 1.0000000000000000e+00 6.1668776798470823e+01 3.5032213313309026e+00 1.3393191200487419e+01 
4592 4593 2 1.0280000000630907e+00 -2.9168623272371160e+03 1.0000000000000000e+00 6.4551596378388368e+01 3.9237564819579203e+00 1.2622167890703976e+01 
181 182 2 1.0279999993740379e+00 -1.7103278071839950e+03 1.0000000000000000e+00 6.3786086485500526e+01 2.6515787502322885e+00 1.2766955300872029e+01 
4053 4054 2 1.0280000003805336e+00 1.6062382493197192e+03 1.0000000000000000e+00 6.5207443957538445e+01 2.0496770978325416e+00 1.3140692633944361e+01 
403 404 2 1.0279999994442133e+00 6.6625498863315181e+02 1.0000000000000000e+00 6.6077134656510580e+01 3.1163925003944506e+00 1.2401556835268645e+01 
3207 3208 2 1.0280000000697163e+00 1.2781612527635534e+03 1.0000000000000000e+00 5.6752446053767891e+01 5.3406805067262848e+00 1.2434842384045474e+01 
721 722 2 1.0279999996966984e+00 1.3713776129484359e+03 1.0000000000000000e+00 5.8908603972136000e+01 5.0387639241599809e+00 1.2915747713198078e+01 
1356 1357 2 1.0280000001183942e+00 -1.4910477338607311e+03 1.0000000000000000e+00 6.1105834291345445e+01 5.8014401805027758e+00 1.2474241196613530e+01 
3666 3667 2 1.0279999999900340e+00 -1.4945745815359037e+03 1.0000000000000000e+00 6.1352959918409020e+01 4.4940228492883074e+00 1.2751250258220542e+01 
433 434 2 1.0280000004240035e+00 -3.5478251940694086e+03 1.0000000000000000e+00 6.4143302858814195e+01 5.2907673930182071e+00 1.2905959395853040e+01 
853 854 2 1.0279999997967340e+00 5.0126398455611979e+03 1.0000000000000000e+00 6.3288207548944094e+01 5.1165078779876652e+00 1.3291421340619879e+01 
319 320 2 1.0280000005712431e+00 2.9609123601343335e+03 1.0000000000000000e+00 6.6665276803006421e+01 4.9435963711125721e+00 1.3959037717337155e+01 
258 259 2 1.0280000001954772e+00 7.8436041115922626e+02 1.0000000000000000e+00 5.9453485530868193e+01 6.0751868467523655e+00 1.3314635729511444e+01 
383 384 2 1.0280000001757925e+00 -6.9442664475160336e+02 1.0000000000000000e+00 6.2037209738236051e+01 6.6074081028086171e+00 1.3534014904893612e+01 
432 433 2 1.0280000007457868e+00 -3.4199608524122127e+03 1.0000000000000000e+00 6.2878995662179705e+01 7.5737954240647243e+00 1.2505554257560878e+01 
852 853 2 1.0279999995917521e+00 3.4069243310332540e+03 1.0000000000000000e+00 6.3655423912541920e+01 6.6100490716645286e+00 1.3722783869804706e+01 
4091 4092 2 1.0280000008025887e+00 4.3299129819879045e+03 1.0000000000000000e+00 6.5193794366663212e+01 7.7784486221669491e+00 1.3348728818481108e+01 
2744 2745 2 1.0280000000446763e+00 -8.7774152078712518e+02 1.0000000000000000e+00 6.3524134094567700e+01 8.2527927436952897e+00 1.3736143670014952e+01 
4434 4435 2 1.0279999990643705e+00 -3.0833282325512500e+03 1.0000000000000000e+00 6.5093566973499719e+01 8.1656887336099579e+00 1.2019339422916653e+01 
320 321 2 1.0280000004357082e+00 1.4205792042770381e+03 1.0000000000000000e+00 6.6021679459010244e+01 9.0693457768921331e+00 1.2638352757819616e+01 
1653 1654 2 1.0279999998203586e+00 4.1701409956095256e+02 1.0000000000000000e+00 6.4668039482602822e+01 1.1144248965497837e+01 1.2382836634182802e+01 
1781 1782 2 1.0279999989286928e+00 5.8315686275613043e+03 1.0000000000000000e+00 6.5350039103489621e+01 1.1139779368769670e+01 1.3868505668943120e+01 
2200 2201 2 1.0280000003007292e+00 -2.5863493656642404e+03 1.0000000000000000e+00 6.0616622072014295e+01 1.3746786247924897e+01 1.2833319822577241e+01 
1359 1360 2 1.0280000000215603e+00 -1.3679168331941430e+03 1.0000000000000000e+00 6.0948617745086537e+01 1.3672665674637720e+01 1.3594619897728446e+01 
2205 2206 2 1.0280000011356631e+00 -2.0124091501129196e+03 1.0000000000000000e+00 6.4040332551701141e+01 1.2162546276115087e+01 1.3474961793351889e+01 
857 858 2 1.0280000006660979e+00 4.3126858848737611e+03 1.0000000000000000e+00 6.6285837977469768e+01 1.3452085809117236e+01 1.2979538607344152e+01 
1274 1275 2 1.0279999998734932e+00 1.4086327250789996e+03 1.0000000000000000e+00 6.1780427607387573e+01 1.4621517815759326e+01 1.3922968432528005e+01 
431 432 2 1.0279999996951581e+00 -3.9040291365224466e+03 1.0000000000000000e+00 6.2905256227991970e+01 1.5124584683354913e+01 1.3142326379154287e+01 
473 474 2 1.0279999990890589e+00 1.6742017268046529e+03 1.0000000000000000e+00 6.3926828558999581e+01 1.4249505762589937e+01 1.3535174154151134e+01 
1190 1191 2 1.0280000005639311e+00 3.6649714635510882e+03 1.0000000000000000e+00 6.2175643339040150e+01 1.6479637882009367e+01 1.3105091786299800e+01 
893 894 2 1.0279999995188753e+00 1.6997858243294240e+03 1.0000000000000000e+00 6.2806579245594349e+01 1.7096839612201546e+01 1.2695154780712874e+01 
2761 2762 2 1.0280000005465249e+00 -1.1283043926859350e+03 1.0000000000000000e+00 6.5137397338222485e+01 1.6098337965526781e+01 1.2439974077693485e+01 
2164 2165 2 1.0279999998784100e+00 4.6173067264725421e+02 1.0000000000000000e+00 6.5661269006887252e+01 1.7231617774198781e+01 1.2603067543286254e+01 
819 820 2 1.0280000002745928e+00 1.6094095774921329e+03 1.0000000000000000e+00 6.5446460494333621e+01 1.6188832852145616e+01 1.3784569349397493e+01 
3710 3711 2 1.0279999997812002e+00 1.2797529671177599e+03 1.0000000000000000e+00 6.1953218778318877e+01 1.8409507767366748e+01 1.2026154319632079e+01 
439 440 2 1.0279999997680376e+00 -3.6390906756655386e+03 1.0000000000000000e+00 6.2030153171751813e+01 1.9232836799774361e+01 1.2257939206673617e+01 
2161 2162 2 1.0280000004489072e+00 5.2526214614850710e+02 1.0000000000000000e+00 6.2318046953495006e+01 1.8948365587844425e+01 1.3426588077106624e+01 