LAMMPS data file via write_data, version 30 Jul 2016, timestep = 600000

2080 atoms
8 atom types

0.0000000000000000e+00 4.0000000000000000e+01 xlo xhi
0.0000000000000000e+00 4.0000000000000000e+01 ylo yhi
0.0000000000000000e+00 1.0000000000000000e+02 zlo zhi

Masses

1 3.896
2 5.36
3 1058.08
4 8.378
5 8.378
6 8.378
7 8.378
8 8.378

Atoms # meso-molecular

1 2 4 2.2559723595316457e+00 0.0000000000000000e+00 1.0000000000000000e+00 0.0000000000000000e+00 0.0000000000000000e+00 2.5000000000000000e+00 
2 2 4 2.2559723595316457e+00 0.0000000000000000e+00 1.0000000000000000e+00 0.0000000000000000e+00 2.0000000000000000e+00 2.5000000000000000e+00 
21 2 4 2.2559723595316457e+00 0.0000000000000000e+00 1.0000000000000000e+00 2.0000000000000000e+00 0.0000000000000000e+00 2.5000000000000000e+00 
22 2 4 2.2559723595316457e+00 0.0000000000000000e+00 1.0000000000000000e+00 2.0000000000000000e+00 2.0000000000000000e+00 2.5000000000000000e+00 
41 2 4 2.2559723595316457e+00 0.0000000000000000e+00 1.0000000000000000e+00 4.0000000000000000e+00 0.0000000000000000e+00 2.5000000000000000e+00 
42 2 4 2.2559723595316457e+00 0.0000000000000000e+00 1.0000000000000000e+00 4.0000000000000000e+00 2.0000000000000000e+00 2.5000000000000000e+00 
61 2 4 2.2559723595316457e+00 0.0000000000000000e+00 1.0000000000000000e+00 6.0000000000000000e+00 0.0000000000000000e+00 2.5000000000000000e+00 
62 2 4 2.2559723595316457e+00 0.0000000000000000e+00 1.0000000000000000e+00 6.0000000000000000e+00 2.0000000000000000e+00 2.5000000000000000e+00 
81 2 4 2.2559723595316457e+00 0.0000000000000000e+00 1.0000000000000000e+00 8.0000000000000000e+00 0.0000000000000000e+00 2.5000000000000000e+00 
82 2 4 2.2559723595316457e+00 0.0000000000000000e+00 1.0000000000000000e+00 8.0000000000000000e+00 2.0000000000000000e+00 2.5000000000000000e+00 
101 2 4 2.2559723595316457e+00 0.0000000000000000e+00 1.0000000000000000e+00 1.0000000000000000e+01 0.0000000000000000e+00 2.5000000000000000e+00 
102 2 4 2.2559723595316457e+00 0.0000000000000000e+00 1.0000000000000000e+00 1.0000000000000000e+01 2.0000000000000000e+00 2.5000000000000000e+00 
121 2 4 2.2559723595316457e+00 0.0000000000000000e+00 1.0000000000000000e+00 1.2000000000000000e+01 0.0000000000000000e+00 2.5000000000000000e+00 
122 2 4 2.2559723595316457e+00 0.0000000000000000e+00 1.0000000000000000e+00 1.2000000000000000e+01 2.0000000000000000e+00 2.5000000000000000e+00 
141 2 4 2.2559723595316457e+00 0.0000000000000000e+00 1.0000000000000000e+00 1.4000000000000000e+01 0.0000000000000000e+00 2.5000000000000000e+00 
142 2 4 2.2559723595316457e+00 0.0000000000000000e+00 1.0000000000000000e+00 1.4000000000000000e+01 2.0000000000000000e+00 2.5000000000000000e+00 
161 2 4 2.2559723595316457e+00 0.0000000000000000e+00 1.0000000000000000e+00 1.6000000000000000e+01 0.0000000000000000e+00 2.5000000000000000e+00 
162 2 4 2.2559723595362926e+00 2.7109848967741911e-04 1.0000000000000000e+00 1.6000000000000000e+01 2.0000000000000000e+00 2.5000000000000000e+00 
181 2 4 2.2559723595316457e+00 0.0000000000000000e+00 1.0000000000000000e+00 1.8000000000000000e+01 0.0000000000000000e+00 2.5000000000000000e+00 
182 2 4 2.2559723595316457e+00 4.5665463940184503e-07 1.0000000000000000e+00 1.8000000000000000e+01 2.0000000000000000e+00 2.5000000000000000e+00 
3 2 4 2.2559723595316457e+00 0.0000000000000000e+00 1.0000000000000000e+00 0.0000000000000000e+00 4.0000000000000000e+00 2.5000000000000000e+00 
4 2 4 2.2559723595316457e+00 0.0000000000000000e+00 1.0000000000000000e+00 0.0000000000000000e+00 6.0000000000000000e+00 2.5000000000000000e+00 
23 2 4 2.2559723595316457e+00 0.0000000000000000e+00 1.0000000000000000e+00 2.0000000000000000e+00 4.0000000000000000e+00 2.5000000000000000e+00 
24 2 4 2.2559723595316457e+00 0.0000000000000000e+00 1.0000000000000000e+00 2.0000000000000000e+00 6.0000000000000000e+00 2.5000000000000000e+00 
43 2 4 2.2559723595316457e+00 0.0000000000000000e+00 1.0000000000000000e+00 4.0000000000000000e+00 4.0000000000000000e+00 2.5000000000000000e+00 
44 2 4 2.2559723595316457e+00 0.0000000000000000e+00 1.0000000000000000e+00 4.0000000000000000e+00 6.0000000000000000e+00 2.5000000000000000e+00 
63 2 4 2.2559723595316457e+00 0.0000000000000000e+00 1.0000000000000000e+00 6.0000000000000000e+00 4.0000000000000000e+00 2.5000000000000000e+00 
64 2 4 2.2559723595316457e+00 0.0000000000000000e+00 1.0000000000000000e+00 6.0000000000000000e+00 6.0000000000000000e+00 2.5000000000000000e+00 
83 2 4 2.2559723595316457e+00 0.0000000000000000e+00 1.0000000000000000e+00 8.0000000000000000e+00 4.0000000000000000e+00 2.5000000000000000e+00 
84 2 4 2.2559723595316457e+00 0.0000000000000000e+00 1.0000000000000000e+00 8.0000000000000000e+00 6.0000000000000000e+00 2.5000000000000000e+00 
103 2 4 2.2559723595316457e+00 0.0000000000000000e+00 1.0000000000000000e+00 1.0000000000000000e+01 4.0000000000000000e+00 2.5000000000000000e+00 
104 2 4 2.2559723595316457e+00 0.0000000000000000e+00 1.0000000000000000e+00 1.0000000000000000e+01 6.0000000000000000e+00 2.5000000000000000e+00 
123 2 4 2.2559723595316457e+00 0.0000000000000000e+00 1.0000000000000000e+00 1.2000000000000000e+01 4.0000000000000000e+00 2.5000000000000000e+00 
124 2 4 2.2559723595316457e+00 0.0000000000000000e+00 1.0000000000000000e+00 1.2000000000000000e+01 6.0000000000000000e+00 2.5000000000000000e+00 
143 2 4 2.2559723595580632e+00 9.9298783434770082e-04 1.0000000000000000e+00 1.4000000000000000e+01 4.0000000000000000e+00 2.5000000000000000e+00 
144 2 4 2.2559723603925028e+00 1.2351922285376560e-02 1.0000000000000000e+00 1.4000000000000000e+01 6.0000000000000000e+00 2.5000000000000000e+00 
163 2 4 2.2559723595316457e+00 1.0705262404425926e-06 1.0000000000000000e+00 1.6000000000000000e+01 4.0000000000000000e+00 2.5000000000000000e+00 
164 2 4 2.2559723595316457e+00 3.2202031377103603e-06 1.0000000000000000e+00 1.6000000000000000e+01 6.0000000000000000e+00 2.5000000000000000e+00 
183 2 4 2.2559723595334868e+00 1.1493742796096155e-04 1.0000000000000000e+00 1.8000000000000000e+01 4.0000000000000000e+00 2.5000000000000000e+00 
184 2 4 2.2559723595316457e+00 1.8813396033507884e-06 1.0000000000000000e+00 1.8000000000000000e+01 6.0000000000000000e+00 2.5000000000000000e+00 
5 2 4 2.2559723595316457e+00 0.0000000000000000e+00 1.0000000000000000e+00 0.0000000000000000e+00 8.0000000000000000e+00 2.5000000000000000e+00 
6 2 4 2.2559723595316457e+00 0.0000000000000000e+00 1.0000000000000000e+00 0.0000000000000000e+00 1.0000000000000000e+01 2.5000000000000000e+00 
25 2 4 2.2559723595316457e+00 0.0000000000000000e+00 1.0000000000000000e+00 2.0000000000000000e+00 8.0000000000000000e+00 2.5000000000000000e+00 
26 2 4 2.2559723595316457e+00 0.0000000000000000e+00 1.0000000000000000e+00 2.0000000000000000e+00 1.0000000000000000e+01 2.5000000000000000e+00 
45 2 4 2.2559723595316457e+00 0.0000000000000000e+00 1.0000000000000000e+00 4.0000000000000000e+00 8.0000000000000000e+00 2.5000000000000000e+00 
46 2 4 2.2559723595316457e+00 0.0000000000000000e+00 1.0000000000000000e+00 4.0000000000000000e+00 1.0000000000000000e+01 2.5000000000000000e+00 
65 2 4 2.2559723595316457e+00 0.0000000000000000e+00 1.0000000000000000e+00 6.0000000000000000e+00 8.0000000000000000e+00 2.5000000000000000e+00 
66 2 4 2.2559723595316457e+00 0.0000000000000000e+00 1.0000000000000000e+00 6.0000000000000000e+00 1.0000000000000000e+01 2.5000000000000000e+00 
85 2 4 2.2559723595316457e+00 0.0000000000000000e+00 1.0000000000000000e+00 8.0000000000000000e+00 8.0000000000000000e+00 2.5000000000000000e+00 
86 2 4 2.2559723595316457e+00 0.0000000000000000e+00 1.0000000000000000e+00 8.0000000000000000e+00 1.0000000000000000e+01 2.5000000000000000e+00 
105 2 4 2.2559723595316457e+00 0.0000000000000000e+00 1.0000000000000000e+00 1.0000000000000000e+01 8.0000000000000000e+00 2.5000000000000000e+00 
106 2 4 2.2559723595316457e+00 0.0000000000000000e+00 1.0000000000000000e+00 1.0000000000000000e+01 1.0000000000000000e+01 2.5000000000000000e+00 
125 2 4 2.2559723595316457e+00 0.0000000000000000e+00 1.0000000000000000e+00 1.2000000000000000e+01 8.0000000000000000e+00 2.5000000000000000e+00 
126 2 4 2.2559723595316457e+00 0.0000000000000000e+00 1.0000000000000000e+00 1.2000000000000000e+01 1.0000000000000000e+01 2.5000000000000000e+00 
145 2 4 2.2559723595316457e+00 -6.0846245825308145e+01 1.0000000000000000e+00 1.4000000000000000e+01 8.0000000000000000e+00 2.5000000000000000e+00 
146 2 4 2.2559723595316457e+00 -3.0200793524342890e+02 1.0000000000000000e+00 1.4000000000000000e+01 1.0000000000000000e+01 2.5000000000000000e+00 
165 2 4 2.2559723595316457e+00 -3.0214984862216880e+02 1.0000000000000000e+00 1.6000000000000000e+01 8.0000000000000000e+00 2.5000000000000000e+00 
166 2 4 2.2559723595316457e+00 -1.2219958316749692e+03 1.0000000000000000e+00 1.6000000000000000e+01 1.0000000000000000e+01 2.5000000000000000e+00 
185 2 4 2.2559723595316457e+00 -3.9718839367144892e+02 1.0000000000000000e+00 1.8000000000000000e+01 8.0000000000000000e+00 2.5000000000000000e+00 
186 2 4 2.2559723595316457e+00 -1.6269737351929177e+03 1.0000000000000000e+00 1.8000000000000000e+01 1.0000000000000000e+01 2.5000000000000000e+00 
7 2 4 2.2559723595316457e+00 0.0000000000000000e+00 1.0000000000000000e+00 0.0000000000000000e+00 1.2000000000000000e+01 2.5000000000000000e+00 
8 2 4 2.2559723595316457e+00 0.0000000000000000e+00 1.0000000000000000e+00 0.0000000000000000e+00 1.4000000000000000e+01 2.5000000000000000e+00 
27 2 4 2.2559723595316457e+00 0.0000000000000000e+00 1.0000000000000000e+00 2.0000000000000000e+00 1.2000000000000000e+01 2.5000000000000000e+00 
28 2 4 2.2559723595316457e+00 0.0000000000000000e+00 1.0000000000000000e+00 2.0000000000000000e+00 1.4000000000000000e+01 2.5000000000000000e+00 
47 2 4 2.2559723595316457e+00 0.0000000000000000e+00 1.0000000000000000e+00 4.0000000000000000e+00 1.2000000000000000e+01 2.5000000000000000e+00 
48 2 4 2.2559723595316457e+00 0.0000000000000000e+00 1.0000000000000000e+00 4.0000000000000000e+00 1.4000000000000000e+01 2.5000000000000000e+00 
67 2 4 2.2559723595316457e+00 0.0000000000000000e+00 1.0000000000000000e+00 6.0000000000000000e+00 1.2000000000000000e+01 2.5000000000000000e+00 
68 2 4 2.2559723595316457e+00 0.0000000000000000e+00 1.0000000000000000e+00 6.0000000000000000e+00 1.4000000000000000e+01 2.5000000000000000e+00 
87 2 4 2.2559723595316457e+00 0.0000000000000000e+00 1.0000000000000000e+00 8.0000000000000000e+00 1.2000000000000000e+01 2.5000000000000000e+00 
88 2 4 2.2559723595316457e+00 0.0000000000000000e+00 1.0000000000000000e+00 8.0000000000000000e+00 1.4000000000000000e+01 2.5000000000000000e+00 
107 2 4 2.2559723595316457e+00 0.0000000000000000e+00 1.0000000000000000e+00 1.0000000000000000e+01 1.2000000000000000e+01 2.5000000000000000e+00 
108 2 4 2.2559723595316457e+00 0.0000000000000000e+00 1.0000000000000000e+00 1.0000000000000000e+01 1.4000000000000000e+01 2.5000000000000000e+00 
127 2 4 2.2559723595316457e+00 0.0000000000000000e+00 1.0000000000000000e+00 1.2000000000000000e+01 1.2000000000000000e+01 2.5000000000000000e+00 
128 2 4 2.2559723595316457e+00 0.0000000000000000e+00 1.0000000000000000e+00 1.2000000000000000e+01 1.4000000000000000e+01 2.5000000000000000e+00 
147 2 4 2.2559723595316457e+00 -3.9668702456798474e+02 1.0000000000000000e+00 1.4000000000000000e+01 1.2000000000000000e+01 2.5000000000000000e+00 
148 2 4 2.2559723595316457e+00 -4.0659353016446636e+02 1.0000000000000000e+00 1.4000000000000000e+01 1.4000000000000000e+01 2.5000000000000000e+00 
167 2 4 2.2559723596560595e+00 -1.6247619158914679e+03 1.0000000000000000e+00 1.6000000000000000e+01 1.2000000000000000e+01 2.5000000000000000e+00 
168 2 4 2.2559723595601202e+00 -1.6569766516290745e+03 1.0000000000000000e+00 1.6000000000000000e+01 1.4000000000000000e+01 2.5000000000000000e+00 
187 2 4 2.2559723696057716e+00 -2.1227120976362894e+03 1.0000000000000000e+00 1.8000000000000000e+01 1.2000000000000000e+01 2.5000000000000000e+00 
188 2 4 2.2559723595316457e+00 -2.1541280323727501e+03 1.0000000000000000e+00 1.8000000000000000e+01 1.4000000000000000e+01 2.5000000000000000e+00 
9 2 4 2.2559723595316457e+00 0.0000000000000000e+00 1.0000000000000000e+00 0.0000000000000000e+00 1.6000000000000000e+01 2.5000000000000000e+00 
10 2 4 2.2559723595316457e+00 0.0000000000000000e+00 1.0000000000000000e+00 0.0000000000000000e+00 1.8000000000000000e+01 2.5000000000000000e+00 
29 2 4 2.2559723595316457e+00 0.0000000000000000e+00 1.0000000000000000e+00 2.0000000000000000e+00 1.6000000000000000e+01 2.5000000000000000e+00 
30 2 4 2.2559723595316457e+00 0.0000000000000000e+00 1.0000000000000000e+00 2.0000000000000000e+00 1.8000000000000000e+01 2.5000000000000000e+00 
49 2 4 2.2559723595316457e+00 0.0000000000000000e+00 1.0000000000000000e+00 4.0000000000000000e+00 1.6000000000000000e+01 2.5000000000000000e+00 
50 2 4 2.2559723595316457e+00 0.0000000000000000e+00 1.0000000000000000e+00 4.0000000000000000e+00 1.8000000000000000e+01 2.5000000000000000e+00 
69 2 4 2.2559723595316457e+00 0.0000000000000000e+00 1.0000000000000000e+00 6.0000000000000000e+00 1.6000000000000000e+01 2.5000000000000000e+00 
70 2 4 2.2559723595316457e+00 0.0000000000000000e+00 1.0000000000000000e+00 6.0000000000000000e+00 1.8000000000000000e+01 2.5000000000000000e+00 
89 2 4 2.2559723595316457e+00 0.0000000000000000e+00 1.0000000000000000e+00 8.0000000000000000e+00 1.6000000000000000e+01 2.5000000000000000e+00 
90 2 4 2.2559723595316457e+00 0.0000000000000000e+00 1.0000000000000000e+00 8.0000000000000000e+00 1.8000000000000000e+01 2.5000000000000000e+00 
109 2 4 2.2559723596376311e+00 2.2081925604318562e-03 1.0000000000000000e+00 1.0000000000000000e+01 1.6000000000000000e+01 2.5000000000000000e+00 
110 2 4 2.2559723595316457e+00 -1.6235661674199127e-07 1.0000000000000000e+00 1.0000000000000000e+01 1.8000000000000000e+01 2.5000000000000000e+00 
129 2 4 2.2559723691979769e+00 6.7518032645604492e-02 1.0000000000000000e+00 1.2000000000000000e+01 1.6000000000000000e+01 2.5000000000000000e+00 
130 2 4 2.2559723595316457e+00 6.3035889883507481e-05 1.0000000000000000e+00 1.2000000000000000e+01 1.8000000000000000e+01 2.5000000000000000e+00 
149 2 4 2.2559723595316457e+00 -4.0629418574111787e+02 1.0000000000000000e+00 1.4000000000000000e+01 1.6000000000000000e+01 2.5000000000000000e+00 
150 2 4 2.2559723595316457e+00 -4.0625762423050702e+02 1.0000000000000000e+00 1.4000000000000000e+01 1.8000000000000000e+01 2.5000000000000000e+00 
169 2 4 2.2559723595316457e+00 -1.6540421711908946e+03 1.0000000000000000e+00 1.6000000000000000e+01 1.6000000000000000e+01 2.5000000000000000e+00 
170 2 4 2.2559723598626142e+00 -1.6533265147658262e+03 1.0000000000000000e+00 1.6000000000000000e+01 1.8000000000000000e+01 2.5000000000000000e+00 
189 2 4 2.2559723595316457e+00 -2.1450046417872318e+03 1.0000000000000000e+00 1.8000000000000000e+01 1.6000000000000000e+01 2.5000000000000000e+00 
190 2 4 2.2559723596887697e+00 -2.1471943711627109e+03 1.0000000000000000e+00 1.8000000000000000e+01 1.8000000000000000e+01 2.5000000000000000e+00 
1324 926 2 1.0280007702556517e+00 1.6081165525635564e+02 1.0000000000000000e+00 7.7231118668004957e+00 1.7945425554099732e+01 7.4914386375404845e+01 
1514 1116 2 1.0279977824435360e+00 -4.1350527290613645e+03 1.0000000000000000e+00 1.1504646667092958e+01 1.8945960727781095e+01 7.4079491133648659e+01 
1010 612 2 1.0279977812220771e+00 -4.1350544310063769e+03 1.0000000000000000e+00 1.1504515882517897e+01 1.9048729511454489e+01 7.4079528740504728e+01 
1767 1369 2 1.0279986776356040e+00 -6.4251171115665475e+03 1.0000000000000000e+00 1.0960703411836079e+01 1.7831628256477355e+01 7.4364890622942042e+01 
1224 826 2 1.0279985257552853e+00 7.6194898097937028e+02 1.0000000000000000e+00 9.9695271238402974e+00 1.7498988900201059e+01 7.4352371921789356e+01 
768 370 2 1.0279994534355703e+00 6.2859158510783700e+03 1.0000000000000000e+00 1.1718936188488204e+01 1.8228568469667540e+01 7.4371439058157279e+01 
1608 1210 2 1.0279993546100681e+00 6.2859100908808841e+03 1.0000000000000000e+00 1.1717954991973713e+01 1.9764556606635292e+01 7.4371612207803409e+01 
1764 1366 2 1.0279986475484522e+00 -1.8974446459401620e+03 1.0000000000000000e+00 1.0204740211400786e+01 1.7432712956167233e+01 7.4468037314651752e+01 
1897 1499 2 1.0279991535530748e+00 -2.0024837032306073e+03 1.0000000000000000e+00 1.0815482211106868e+01 1.7506959784639442e+01 7.4614865561149969e+01 
1898 1500 2 1.0279998780944337e+00 -4.0401128843708125e+03 1.0000000000000000e+00 8.9140405650143091e+00 1.7114733058630520e+01 7.4783206085474376e+01 
2021 1623 2 1.0280002989620658e+00 1.7185000104540950e+03 1.0000000000000000e+00 8.4694941048448715e+00 1.7311403411715133e+01 7.4760213904603134e+01 
1510 1112 2 1.0280003696026403e+00 -2.5184570745203810e+03 1.0000000000000000e+00 8.6222921156484738e+00 1.7073739575021417e+01 7.4969286846402781e+01 
1521 1123 2 1.0279988754953118e+00 3.8850821252909382e+03 1.0000000000000000e+00 1.5926229118425766e+01 1.8927856329780113e+01 7.2099739068836371e+01 
1017 619 2 1.0279988790322145e+00 3.8850844982455396e+03 1.0000000000000000e+00 1.5926270822239468e+01 1.9064650690146436e+01 7.2099768927105004e+01 
1013 615 2 1.0279980799297936e+00 6.6687881191053712e+03 1.0000000000000000e+00 1.5673567025429284e+01 1.9234563049072737e+01 7.2455739203682995e+01 
1517 1119 2 1.0279981092648749e+00 6.6687790612160034e+03 1.0000000000000000e+00 1.5673394802710972e+01 1.8756979441029848e+01 7.2455634428489404e+01 
834 436 2 1.0279980905343760e+00 2.1239021256300839e+03 1.0000000000000000e+00 1.5302570989894072e+01 1.8719100178822302e+01 7.3065643535312134e+01 
1674 1276 2 1.0279981126115709e+00 2.1239051652466496e+03 1.0000000000000000e+00 1.5303552131194046e+01 1.9271686519355111e+01 7.3064967172533315e+01 
1500 1102 2 1.0280060604452237e+00 2.5753423607876198e+03 1.0000000000000000e+00 1.4759352755742615e+01 1.9052358242703558e+01 7.3817933147110679e+01 
996 598 2 1.0280060681120500e+00 2.5753416432334261e+03 1.0000000000000000e+00 1.4759576640662509e+01 1.8936398749120293e+01 7.3817410572347157e+01 
1408 1010 2 1.0280135534433799e+00 8.7109802763025764e+03 1.0000000000000000e+00 1.3590682774935308e+01 1.9232316015072623e+01 7.4330341388904870e+01 
1240 842 2 1.0280136186568463e+00 8.7109847949419691e+03 1.0000000000000000e+00 1.3593047770446821e+01 1.8757220839584964e+01 7.4329434590000261e+01 
1754 1356 2 1.0280002945258968e+00 -9.3556781009429324e+03 1.0000000000000000e+00 1.2079988709977062e+01 1.8399385506049637e+01 7.4390609932241105e+01 
578 180 2 1.0280003023659683e+00 -9.3556809673421103e+03 1.0000000000000000e+00 1.2078726661131890e+01 1.9592979620378472e+01 7.4390754134152260e+01 
1513 1115 2 1.0280082704564859e+00 4.1744935021026859e+03 1.0000000000000000e+00 1.2691491592731575e+01 1.9894756136487988e+01 7.4749004771005175e+01 
1009 611 2 1.0280083079769227e+00 4.1744806191432217e+03 1.0000000000000000e+00 1.2691679989856796e+01 1.8096527687753650e+01 7.4747566045871253e+01 
1283 885 2 1.0280000029966785e+00 7.6947101359991427e+02 1.0000000000000000e+00 1.8392445587919930e+01 1.7562692803232398e+01 7.1270446407487114e+01 
1282 884 2 1.0280000011673252e+00 7.6947077003738775e+02 1.0000000000000000e+00 1.9607608757895626e+01 1.7562702001759259e+01 7.1270482953834261e+01 
2050 1652 2 1.0280003189280933e+00 8.1040486625136816e+02 1.0000000000000000e+00 1.7669484353006663e+01 1.7929511479644056e+01 7.1266688005496277e+01 
645 247 2 1.0279988633691359e+00 -6.4997840405954830e+03 1.0000000000000000e+00 1.9637566223077563e+01 1.7043345503214837e+01 7.1607020881363979e+01 
648 250 2 1.0279988819378230e+00 -6.4997839609587190e+03 1.0000000000000000e+00 1.8362476888077055e+01 1.7043321392420406e+01 7.1606991620726660e+01 
1155 757 2 1.0279994818894092e+00 -3.0303933189116822e+02 1.0000000000000000e+00 1.6674869971646284e+01 1.8030010661331509e+01 7.1716002587763683e+01 
1323 925 2 1.0279996092114725e+00 -3.0302322819403759e+02 1.0000000000000000e+00 1.6676421746616398e+01 1.9965310520291510e+01 7.1716006395742710e+01 
516 118 2 1.0279996950974777e+00 2.5687568194934181e+02 1.0000000000000000e+00 1.6521498429366069e+01 1.8339270108259406e+01 7.1682089741806507e+01 
2028 1630 2 1.0279998818980387e+00 2.5688379244275023e+02 1.0000000000000000e+00 1.6521845786400700e+01 1.9654844239363001e+01 7.1682321075140962e+01 
1177 779 2 1.0279991917303826e+00 -5.6898016459034227e+02 1.0000000000000000e+00 1.6027607098509211e+01 1.9073220349713822e+01 7.1986938622968196e+01 
1345 947 2 1.0279992010849321e+00 -5.6898107754881403e+02 1.0000000000000000e+00 1.6027672144688690e+01 1.8919360835316137e+01 7.1986804532358107e+01 
1233 835 2 1.0279974792157911e+00 5.7540058885922008e+02 1.0000000000000000e+00 1.9397837789739242e+01 1.6514502113189909e+01 7.2155260197206090e+01 
1236 838 2 1.0279974682192032e+00 5.7540068492141722e+02 1.0000000000000000e+00 1.8602180011951091e+01 1.6514484790930176e+01 7.2155250352054978e+01 
1181 783 2 1.0279992456479876e+00 4.4263383852737797e+03 1.0000000000000000e+00 1.6672705458306709e+01 1.7204821640653023e+01 7.2653935528104370e+01 
965 567 2 1.0279987636139807e+00 2.7186788255463248e+03 1.0000000000000000e+00 1.7827863788953454e+01 1.6391711701421873e+01 7.3026546040849453e+01 
927 529 2 1.0279977841872063e+00 2.4299284342093079e+03 1.0000000000000000e+00 1.8827526245161167e+01 1.6174490753675457e+01 7.3011441490661426e+01 
926 528 2 1.0279977855314208e+00 2.4299284887924241e+03 1.0000000000000000e+00 1.9172557081788277e+01 1.6174498919760261e+01 7.3011459564985515e+01 
1566 1168 2 1.0280012995435519e+00 -9.9621764764251941e+02 1.0000000000000000e+00 1.8765507555693588e+01 1.6157599184517476e+01 7.3828212930175553e+01 
1567 1169 2 1.0280013046645937e+00 -9.9621748291145263e+02 1.0000000000000000e+00 1.9234623292684464e+01 1.6157615445007686e+01 7.3828234410506809e+01 
560 162 2 1.0280017934941541e+00 2.9217789053448560e+03 1.0000000000000000e+00 1.9189274228577101e+01 1.6163636213240196e+01 7.3907020198458184e+01 
557 159 2 1.0280017892780009e+00 2.9217787782225778e+03 1.0000000000000000e+00 1.8810877818098344e+01 1.6163621948295638e+01 7.3907001101658921e+01 
1039 641 2 1.0280024547535971e+00 4.1440248866922111e+03 1.0000000000000000e+00 1.8446381190952660e+01 1.6208023000503687e+01 7.3973960702027867e+01 
1038 640 2 1.0280024675997039e+00 4.1440250399600991e+03 1.0000000000000000e+00 1.9553728519160522e+01 1.6208058077330552e+01 7.3974008552503463e+01 
1320 922 2 1.0280145396844893e+00 1.2628466014482810e+03 1.0000000000000000e+00 1.7654640858980152e+01 1.6544725526635244e+01 7.4717226670208362e+01 
497 99 2 1.0280117479955266e+00 6.9982604749924360e+02 1.0000000000000000e+00 1.5752625164093608e+01 1.5963171801890146e+01 7.6279777327949020e+01 
1083 685 2 1.0280090345552055e+00 4.7872741155834865e+03 1.0000000000000000e+00 1.5380389506354852e+01 1.5780101399699042e+01 7.6440330450861779e+01 
1624 1226 2 1.0280087032165892e+00 5.5368897193484900e+03 1.0000000000000000e+00 1.4710085883980600e+01 1.5895913047714581e+01 7.6469406690026545e+01 
777 379 2 1.0280077611331981e+00 1.8613109431023079e+03 1.0000000000000000e+00 1.4681180898862641e+01 1.5805724228383637e+01 7.6563064664046735e+01 
1683 1285 2 1.0280071751617350e+00 2.5526179680207295e+02 1.0000000000000000e+00 1.4539634224695460e+01 1.5773233360163269e+01 7.6653709427878738e+01 
1019 621 2 1.0280037309160579e+00 1.0874985081212440e+03 1.0000000000000000e+00 1.4218319216668128e+01 1.5532235905503299e+01 7.7266279201395207e+01 
1409 1011 2 1.0280052895058438e+00 8.3109677525778879e+03 1.0000000000000000e+00 1.3556454037537403e+01 1.5944224610721163e+01 7.7544525165977745e+01 
1266 868 2 1.0280000499170419e+00 1.2244203459037815e+03 1.0000000000000000e+00 1.4563465088653263e+01 1.5222965245492238e+01 7.8134204427275392e+01 
675 277 2 1.0279981438388481e+00 -6.1643183782713586e+03 1.0000000000000000e+00 1.5017165724727580e+01 1.5435233134313776e+01 7.9112799774236706e+01 
1825 1427 2 1.0280130412265041e+00 -3.0918514693541620e+03 1.0000000000000000e+00 1.6463866305811148e+01 1.5959207530355934e+01 7.6363510409860694e+01 
2039 1641 2 1.0280064754906046e+00 -1.7540267968435210e+03 1.0000000000000000e+00 1.7709746905132036e+01 1.5853325738643543e+01 7.7038900742565815e+01 
1636 1238 2 1.0280013123539533e+00 6.8101733003550980e+03 1.0000000000000000e+00 1.6072972757186403e+01 1.5050323469373215e+01 7.7517858463228038e+01 
1901 1503 2 1.0279856992096266e+00 -3.5790020652988039e+02 1.0000000000000000e+00 1.8726179112504852e+01 1.5324211578448621e+01 7.8704045300066625e+01 
1904 1506 2 1.0279857271443051e+00 -3.5790008712344957e+02 1.0000000000000000e+00 1.9273882420108713e+01 1.5324207380812837e+01 7.8704053204782056e+01 
1715 1317 2 1.0279858655387664e+00 -3.1112400492282927e+03 1.0000000000000000e+00 1.9213713183995687e+01 1.5216696246987883e+01 7.9045089547271843e+01 
1714 1316 2 1.0279858519529748e+00 -3.1112400596255989e+03 1.0000000000000000e+00 1.8786376756213510e+01 1.5216708719437104e+01 7.9045065889079140e+01 
528 130 2 1.0280011255780581e+00 -7.3987863044101516e+02 1.0000000000000000e+00 7.9260185068412428e+00 1.7210952713437834e+01 7.5575879831679131e+01 
1883 1485 2 1.0280009071632605e+00 -6.0578109460558080e+03 1.0000000000000000e+00 7.5189830452279027e+00 1.7671925345754666e+01 7.5764923867804143e+01 
690 292 2 1.0280011552139721e+00 -4.1890638035145985e+03 1.0000000000000000e+00 7.9713632311288984e+00 1.7098722289659381e+01 7.6028972430343472e+01 
1498 1100 2 1.0280007883435331e+00 -3.2168050642157696e+03 1.0000000000000000e+00 7.5786251554643655e+00 1.7568463566532287e+01 7.6248862818406309e+01 
1230 832 2 1.0280006488849898e+00 9.7403101759243583e+01 1.0000000000000000e+00 8.3378725037153654e+00 1.7187424641309114e+01 7.5010451463243456e+01 
1271 873 2 1.0280008176626345e+00 -9.2038651261265031e+01 1.0000000000000000e+00 8.1429110313937212e+00 1.7277404971243985e+01 7.5077149069998413e+01 
1903 1505 2 1.0280007928986781e+00 -9.4021807889746760e+03 1.0000000000000000e+00 8.2304841513464417e+00 1.7199377545623683e+01 7.5096614262962433e+01 
647 249 2 1.0280014115914153e+00 -9.2278463620875173e+03 1.0000000000000000e+00 1.0503307647538376e+01 1.6703704826701948e+01 7.6544760095883717e+01 
868 470 2 1.0280004941919521e+00 7.0049174428199294e+01 1.0000000000000000e+00 8.0702672048150710e+00 1.7341770955878019e+01 7.7074095776452822e+01 
1332 934 2 1.0280003041533723e+00 -4.0294379552578630e+02 1.0000000000000000e+00 8.2480740993899939e+00 1.7352498857117922e+01 7.7316581620233947e+01 
1781 1383 2 1.0280006624525988e+00 4.8209914756665967e+03 1.0000000000000000e+00 9.4303529328928590e+00 1.6853287118590522e+01 7.7375020491334240e+01 
1507 1109 2 1.0280000465516821e+00 -2.9769860997525179e+03 1.0000000000000000e+00 8.6404189318798732e+00 1.7358763839512783e+01 7.7683229385697288e+01 
1158 760 2 1.0280002275449700e+00 -1.4597121172609648e+03 1.0000000000000000e+00 9.2821726203780237e+00 1.7320514457189489e+01 7.8017152199504793e+01 
1225 827 2 1.0280003692339508e+00 1.5609933717553563e+03 1.0000000000000000e+00 9.3840245910736453e+00 1.7378964474174406e+01 7.8122870586562470e+01 
817 419 2 1.0279992559000695e+00 6.2211376333160688e+03 1.0000000000000000e+00 8.4675345932649861e+00 1.9596971598401332e+01 7.8198615799746747e+01 
1657 1259 2 1.0279992562592737e+00 6.2211340295442960e+03 1.0000000000000000e+00 8.4651279809040041e+00 1.8398921318886398e+01 7.8196668788326861e+01 
797 399 2 1.0280024824911187e+00 6.2186052846687007e+03 1.0000000000000000e+00 1.0275243114318423e+01 1.7505704381651420e+01 7.8557348998022178e+01 
1021 623 2 1.0280039899537774e+00 3.5321526566528973e+03 1.0000000000000000e+00 1.0908611451186136e+01 1.7478563009488742e+01 7.8686409781242176e+01 
1089 691 2 1.0280052800833350e+00 -9.6663622422731419e+02 1.0000000000000000e+00 1.0648500984286233e+01 1.7648744922146861e+01 7.8831546794072537e+01 
870 472 2 1.0280076263346640e+00 -5.0031779091229581e+01 1.0000000000000000e+00 1.1293116073188397e+01 1.7572282425223396e+01 7.8911019859113594e+01 
1947 1549 2 1.0280087125288915e+00 1.2407537865204145e+03 1.0000000000000000e+00 1.1151401701966146e+01 1.7645075275332001e+01 7.8985120435381489e+01 
546 148 2 1.0280178842882566e+00 -9.9545867165109871e+02 1.0000000000000000e+00 1.3095284673911459e+01 1.7587408203822960e+01 7.5358035732949276e+01 
745 347 2 1.0279566462794381e+00 4.3608319101274910e+03 1.0000000000000000e+00 1.4976412970252218e+01 1.8294246662766636e+01 7.5741454374553925e+01 
1585 1187 2 1.0279580927589969e+00 4.3608390734503382e+03 1.0000000000000000e+00 1.4972979122376003e+01 1.9712208274983681e+01 7.5723724073999989e+01 
503 105 2 1.0280127555229355e+00 1.1983648355278626e+03 1.0000000000000000e+00 1.5794627747722071e+01 1.6029820506593975e+01 7.6230122528453379e+01 
548 150 2 1.0280043492926039e+00 1.7066044247931698e+03 1.0000000000000000e+00 1.2206031474577248e+01 1.6824026731103562e+01 7.7228047586679736e+01 
969 571 2 1.0279258045535433e+00 3.7159386616394595e+03 1.0000000000000000e+00 1.3985921836014038e+01 1.8094623084570173e+01 7.7680925225360099e+01 
1473 1075 2 1.0279258034370058e+00 3.7159463674094886e+03 1.0000000000000000e+00 1.3992787233916141e+01 1.9901447429851160e+01 7.7671843040608209e+01 
985 587 2 1.0280104637887715e+00 4.6074929994736103e+03 1.0000000000000000e+00 1.2950956632536776e+01 1.6628325814953389e+01 7.8131879483220814e+01 
1769 1371 2 1.0280072103486888e+00 2.5424325805517751e+03 1.0000000000000000e+00 1.3448348633146278e+01 1.6124053045831559e+01 7.8183421342567613e+01 
1954 1556 2 1.0280085633369236e+00 1.6853903767124518e+03 1.0000000000000000e+00 1.3261336753740444e+01 1.6312105571589850e+01 7.8147525940877529e+01 
1479 1081 2 1.0280122839572101e+00 -1.7784121738419169e+03 1.0000000000000000e+00 1.3195127712879252e+01 1.6511806448296809e+01 7.8347120723375028e+01 
1956 1558 2 1.0280120694996100e+00 2.0500780186577522e+03 1.0000000000000000e+00 1.3313154046420326e+01 1.6435432448290062e+01 7.8427762338967838e+01 