LAMMPS data file via write_data, version 30 Jul 2016, timestep = 50400000

4620 atoms
8 atom types

0.0000000000000000e+00 1.0000000000000000e+02 xlo xhi
0.0000000000000000e+00 4.0000000000000000e+01 ylo yhi
0.0000000000000000e+00 4.0000000000000000e+01 zlo zhi

Masses

1 3.896
2 5.36
3 20.064
4 8.378
5 8.378
6 8.378
7 8.378
8 8.378

Atoms # meso-molecular

3787 3788 2 1.2467813888044947e+00 -5.5080210598621520e+00 1.0000000000000000e+00 6.2414720082191821e-01 9.7239429204048144e-01 1.1389118712975290e+00 
1811 1812 2 1.2467815700176068e+00 1.3442304589772469e-01 1.0000000000000000e+00 1.0086295215149004e+01 7.6175514349870321e-01 1.3401668821061157e+00 
3178 3179 2 1.2467813888044947e+00 -7.2203519069691193e+00 1.0000000000000000e+00 1.7809599740161524e+01 7.4078272917149679e-01 1.0891121026431076e+00 
1009 1010 2 1.2467813888044947e+00 5.2125693275416438e+00 1.0000000000000000e+00 2.2034032358652251e+01 1.2968665195325455e+00 6.9332037775947764e-01 
779 780 2 1.2467813888044947e+00 -7.0818719989240755e+00 1.0000000000000000e+00 2.4298570808225008e+01 6.7144204214048830e-01 7.5652849865988747e-01 
1831 1832 2 1.2467813888044947e+00 8.8888904736098340e-01 1.0000000000000000e+00 2.6556668539967038e+01 1.0953200224244684e+00 1.1546902622376052e+00 
4023 4024 2 1.2467813888044947e+00 -6.2597971699449300e+00 1.0000000000000000e+00 4.7395718452066342e+00 1.5762766158150636e+00 1.3097064979685444e-01 
538 539 2 1.2467826626351683e+00 -6.0709888246831705e+00 1.0000000000000000e+00 9.0875419227632932e+00 2.5841924301561963e+00 1.4200152771228012e+00 
3298 3299 2 1.2467813888044947e+00 -7.5128860616302742e+00 1.0000000000000000e+00 1.5344392265245750e+01 2.8593575074920330e+00 8.1856071846055267e-01 
4351 4352 2 1.2467813888044947e+00 2.0664332995648431e+00 1.0000000000000000e+00 2.6872086297511530e+01 3.5581130393259413e+00 7.0250537410776692e-01 
1884 1885 2 1.2467813888044947e+00 5.7870713986302764e+00 1.0000000000000000e+00 3.2551361123448700e+01 4.1856357775461204e+00 4.1940448574248906e-01 
1590 1591 2 1.2467813888044947e+00 -5.2509436703685051e+00 1.0000000000000000e+00 4.4859174259599754e+00 4.8502437772214577e+00 7.4975059389799914e-01 
54 55 2 1.2467813888044947e+00 8.7754141912447503e-01 1.0000000000000000e+00 3.2414070410888609e+00 7.0506083586194066e+00 1.2969177213875063e+00 
2363 2364 2 1.2467813888044947e+00 -4.5491125310258402e+00 1.0000000000000000e+00 7.2082033439432918e+00 6.9317684970337474e+00 1.3167295392966756e+00 
94 95 2 1.2467813888044947e+00 8.2181602877151194e-01 1.0000000000000000e+00 2.5164060858628162e+01 7.4211644486398871e+00 4.9837539888876736e-01 
2756 2757 2 1.2467813888044947e+00 4.6507323583506892e+00 1.0000000000000000e+00 2.4756324580780159e+01 9.4320631708668365e+00 1.3612684811179736e+00 
1941 1942 2 1.2467813888044947e+00 -6.0549631159397634e+00 1.0000000000000000e+00 3.1881379336758016e+01 1.1061551096132362e+01 8.9302664314267144e-02 
2654 2655 2 1.2467813888044947e+00 -5.7755169209685704e+00 1.0000000000000000e+00 1.9557395681727044e+01 1.2774626732969745e+01 4.3724133374050955e-02 
1072 1073 2 1.2467813888044947e+00 -6.2461986195335566e+00 1.0000000000000000e+00 2.8664959100211590e+01 1.2591734412707666e+01 6.3042395157481834e-01 
758 759 2 1.2467813888044947e+00 -8.0107338399587302e+00 1.0000000000000000e+00 3.3041170752645698e+01 1.4175634358707329e+01 9.0281437342937720e-01 
342 343 2 1.2467813888044947e+00 1.7370517824676017e+00 1.0000000000000000e+00 2.1716688491328524e+00 1.4469706834627640e+01 1.0767117355568085e+00 
2963 2964 2 1.2467813888044947e+00 -6.8213392210964496e+00 1.0000000000000000e+00 1.1410683479670558e+01 1.5117589740731658e+01 8.7802383883549096e-01 
486 487 2 1.2467813888044947e+00 5.3202883458974686e+00 1.0000000000000000e+00 1.9627664535913560e+01 1.5042286646889055e+01 8.1100404633798773e-01 
3160 3161 2 1.2467813888044947e+00 -1.3546705641436987e+00 1.0000000000000000e+00 4.8071790426618035e+00 1.6664256841547573e+01 2.7886013337255477e-01 
1311 1312 2 1.2467813888044947e+00 -3.4080171818936034e+00 1.0000000000000000e+00 6.8817284715093399e+00 1.6969165918442851e+01 4.3979409528558479e-02 
1929 1930 2 1.2467813888044947e+00 -5.8469274062536520e+00 1.0000000000000000e+00 1.8815131605774717e+01 1.6897553623950067e+01 8.0477669942272720e-02 
19 20 2 1.2467813888044947e+00 9.1359853830902935e+00 1.0000000000000000e+00 4.3294011543601851e-01 1.8411188708324143e+01 2.5550290400884124e-01 
3057 3058 2 1.2467813888044947e+00 -2.9564785767044555e+00 1.0000000000000000e+00 1.4323932372862810e+01 1.7275174599987622e+01 2.0297442823238276e-01 
2304 2305 2 1.2467813888044947e+00 1.4223308890664623e+00 1.0000000000000000e+00 2.1672258370253065e+01 1.7806647323389573e+01 6.1264919604466694e-01 
907 908 2 1.2467813888044947e+00 3.1180960900301620e+00 1.0000000000000000e+00 2.6538856745603063e+01 1.8122748894225762e+01 1.1845912581900853e+00 
305 306 2 1.2467815458669560e+00 8.5639584224930196e+00 1.0000000000000000e+00 3.2071763829363888e+01 1.7534460362211011e+01 3.7290638585516921e-02 
4612 4613 2 1.2467813888044947e+00 1.1944977430026528e+01 1.0000000000000000e+00 3.3228664481024675e+00 1.9688035838791478e+01 4.2113024151027384e-01 
2506 2507 2 1.2467813888044947e+00 -3.1280047112887930e+00 1.0000000000000000e+00 2.4553755719731779e+01 1.9621917708837543e+01 1.0935436901916211e+00 
3747 3748 2 1.2467824814220565e+00 -5.1942220051231178e+00 1.0000000000000000e+00 8.0249483351389532e+00 3.6317542831544296e+00 2.8504570413467061e+00 
1718 1719 2 1.2467813888044947e+00 -5.6235310664017879e+00 1.0000000000000000e+00 1.0979420246099908e+01 4.0757569864673933e+00 1.6102406379120302e+00 
2964 2965 2 1.2467813888044947e+00 -5.0113691469929611e+00 1.0000000000000000e+00 1.3227013050526656e+01 4.7212354105791734e+00 2.4637490374489546e+00 
3199 3200 2 1.2467813888044947e+00 9.8959869033086612e-01 1.0000000000000000e+00 1.8201901585487583e+01 6.0278528769828306e+00 2.1836765378644341e+00 
2327 2328 2 1.2467813888044947e+00 2.5056796053401191e+00 1.0000000000000000e+00 2.1378908421938281e+01 5.8674109701786925e+00 1.7451192627004013e+00 
2201 2202 2 1.2467813888044947e+00 -4.7695164219528463e+00 1.0000000000000000e+00 1.1977926050976786e+01 7.7057270967635114e+00 2.2283758567017888e+00 
1727 1728 2 1.2467813888044947e+00 -4.8157341039384942e+00 1.0000000000000000e+00 2.6591525488829767e+01 7.7097113618104229e+00 2.6102555684302353e+00 
355 356 2 1.2467813888044947e+00 7.8072369266877506e-01 1.0000000000000000e+00 4.9820566364864387e+00 9.2791234338190929e+00 1.8499745957621634e+00 
2597 2598 2 1.2467813888044947e+00 -5.2194191290433691e+00 1.0000000000000000e+00 1.0343191778616324e+01 9.1242416106776574e+00 2.3064432565445636e+00 
1357 1358 2 1.2467813888044947e+00 -7.4770960570562905e-01 1.0000000000000000e+00 1.4839995946756202e+01 9.2636887972471076e+00 1.8314786106625431e+00 
3591 3592 2 1.2467813888044947e+00 -5.7365027935693504e+00 1.0000000000000000e+00 2.2606430425789494e+01 1.0295554163357233e+01 2.1284982112614985e+00 
1070 1071 2 1.2467813888044947e+00 -7.4049650242562564e+00 1.0000000000000000e+00 2.6573409069118512e+01 1.0130688394540694e+01 2.5109237272891307e+00 
3139 3140 2 1.2467813888044947e+00 -7.5483112672866550e+00 1.0000000000000000e+00 2.0480995260020496e+00 1.2093216427119412e+01 2.1285215625699472e+00 
917 918 2 1.2467813888044947e+00 2.4394669727311715e+00 1.0000000000000000e+00 7.8415892899611395e+00 1.1836812314910640e+01 2.0208813554675449e+00 
3950 3951 2 1.2467813888044947e+00 -4.2710227577726130e+00 1.0000000000000000e+00 1.3824394741187412e+01 1.1471081920283918e+01 1.4652498925279407e+00 
902 903 2 1.2467813888044947e+00 1.9043887991933255e+00 1.0000000000000000e+00 3.2551833977215708e+01 1.1999388789195523e+01 2.2210520109605971e+00 
3221 3222 2 1.2467813888044947e+00 4.1099534291089856e+00 1.0000000000000000e+00 9.3266323050806506e+00 1.3597054047602201e+01 1.7047030927679374e+00 
395 396 2 1.2467813888044947e+00 2.3095833881570611e+00 1.0000000000000000e+00 4.3126905437597767e+00 1.5206142223104141e+01 2.2984840297973523e+00 
921 922 2 1.2467813888044947e+00 1.3669132213762576e+00 1.0000000000000000e+00 1.7871654796492020e+01 1.5530085062832374e+01 2.0627064209299064e+00 
1640 1641 2 1.2467813888044947e+00 -5.2671640179843013e+00 1.0000000000000000e+00 2.5571401139657393e+01 1.4973249969257838e+01 1.9608837497332778e+00 
1423 1424 2 1.2467813888044947e+00 2.5523901389224983e+00 1.0000000000000000e+00 8.1719509180710812e+00 1.6989673117050437e+01 2.1815163783801417e+00 
545 546 2 1.2467813888044947e+00 -1.5834390065617914e+00 1.0000000000000000e+00 1.4489508442136811e+01 1.6140940663599629e+01 2.4550822672995660e+00 
359 360 2 1.2467813888044947e+00 4.7263554228981572e+00 1.0000000000000000e+00 1.7414154056678903e+01 1.8459495588747796e+01 2.0432387850105105e+00 
2518 2519 2 1.2467813888044947e+00 -7.2300842559372231e+00 1.0000000000000000e+00 6.8248555739145553e+00 1.8643368003489751e+01 1.5590836160202874e+00 
3218 3219 2 1.2467813888044947e+00 -1.9597150884223888e-01 1.0000000000000000e+00 1.0987279561193381e+01 1.9920483707095805e+01 2.1268452021943896e+00 
3211 3212 2 1.2467813888044947e+00 1.2033562987852111e+00 1.0000000000000000e+00 1.3360212319164395e+01 1.9521333377936632e+01 1.4579819073425584e+00 
3998 3999 2 1.2467813888044947e+00 -1.4869423471936565e+00 1.0000000000000000e+00 2.9420396216071072e+01 1.9250436856635329e+01 2.7484895891633645e+00 
1038 1039 2 1.2467813888044947e+00 -1.9580777233656734e+00 1.0000000000000000e+00 2.2484422242067264e+01 2.1983324241239721e+00 3.1609020401345185e+00 
4255 4256 2 1.2467813888044947e+00 2.3524145302072954e+00 1.0000000000000000e+00 1.2225479670170807e+00 3.1972333637050734e+00 3.8715638788041895e+00 
522 523 2 1.2467813888044947e+00 -5.1587460095328428e+00 1.0000000000000000e+00 6.1189203397776684e+00 3.3110817148451979e+00 3.9018845117652199e+00 
2818 2819 2 1.2467813888044947e+00 -5.0006710020433065e+00 1.0000000000000000e+00 3.0580126745913674e+01 2.8997135258081279e+00 3.9798832391324783e+00 
1210 1211 2 1.2467813888044947e+00 -4.8267537356572845e+00 1.0000000000000000e+00 1.5770337578103430e+01 4.9629584726792668e+00 3.2862955173984800e+00 
4606 4607 2 1.2467813888044947e+00 1.1499084577722204e+01 1.0000000000000000e+00 2.1575307980783737e+01 4.9388538511471447e+00 3.9595695172822261e+00 
990 991 2 1.2467813888044947e+00 -3.5988854465741946e+00 1.0000000000000000e+00 4.4330493929669315e+00 6.6331056300406166e+00 2.9959803543154688e+00 
2604 2605 2 1.2467813888044947e+00 1.9809953981497213e+00 1.0000000000000000e+00 8.2387901327153461e+00 5.8026700721342390e+00 3.7003764860681954e+00 
346 347 2 1.2467814617821826e+00 -5.8034710520339587e-02 1.0000000000000000e+00 2.3933990902236047e+01 6.1513339130046436e+00 3.3370905329057199e+00 
976 977 2 1.2467813888044947e+00 -7.8169103802135584e+00 1.0000000000000000e+00 2.0068793713129928e+01 7.4040001026806532e+00 2.8890689136833450e+00 
1750 1751 2 1.2467813888044947e+00 -4.2044094833702523e+00 1.0000000000000000e+00 3.0052299766815040e+01 7.1812612820015369e+00 3.2253069494002173e+00 
1581 1582 2 1.2467813888044947e+00 -3.6957270711031835e+00 1.0000000000000000e+00 1.7055213794882690e+01 9.6771518341673115e+00 3.5743478898107948e+00 
4503 4504 2 1.2467813888044947e+00 -6.8195191211148465e-01 1.0000000000000000e+00 4.9250907584197758e+00 1.0002908115405463e+01 4.1279393141089757e+00 
4467 4468 2 1.2467813888044947e+00 -1.7740012282761641e+00 1.0000000000000000e+00 2.0902622754714656e+01 1.1031055694044769e+01 3.4575193938614039e+00 
3091 3092 2 1.2467813888044947e+00 -4.6187668671778033e+00 1.0000000000000000e+00 2.9247750599125897e+01 1.0538411447875461e+01 3.2134897628078178e+00 
1716 1717 2 1.2467815577124080e+00 -6.4483996253994178e+00 1.0000000000000000e+00 2.7404761250018971e+01 1.1829539380884841e+01 3.6531740796838141e+00 
3303 3304 2 1.2467813939516859e+00 -6.7912315130537149e+00 1.0000000000000000e+00 1.4352217983638635e+01 1.3376482262136294e+01 3.3491220205843173e+00 
4484 4485 2 1.2467813888044947e+00 1.6376889931144412e+00 1.0000000000000000e+00 1.8130762282822616e+01 1.2995621110497954e+01 2.9278929950335768e+00 
1525 1526 2 1.2467813888044947e+00 -2.1692406356984382e+00 1.0000000000000000e+00 2.2373243166910601e+01 1.4281463834986399e+01 4.1410876311078164e+00 
4518 4519 2 1.2467813888044947e+00 1.3043371877061882e+00 1.0000000000000000e+00 3.0593597479136179e+01 1.3831982627004571e+01 3.1398079412229327e+00 
4516 4517 2 1.2467813888044947e+00 1.5929824038392848e+00 1.0000000000000000e+00 2.0244240805050481e+01 1.4966722622171078e+01 3.6281869677245777e+00 
3712 3713 2 1.2467813888044947e+00 1.7834807032810613e+00 1.0000000000000000e+00 2.8533791307195795e+01 1.4735384872785358e+01 4.0095847180787434e+00 
441 442 2 1.2467813888044947e+00 9.1700425038949440e+00 1.0000000000000000e+00 5.7954180160927224e-02 1.7743170233783083e+01 2.8907371863371680e+00 
2568 2569 2 1.2467813888044947e+00 -5.0793450100944870e+00 1.0000000000000000e+00 3.1341117186532026e+00 1.8249024355696800e+01 3.2814876144615055e+00 
2752 2753 2 1.2467813888044947e+00 1.1379994093714170e+00 1.0000000000000000e+00 8.3799205011493285e+00 1.8967518038371846e+01 3.5073656071142869e+00 
676 677 2 1.2467813888044947e+00 -4.8712820698379511e-01 1.0000000000000000e+00 1.3017321040792334e+01 1.8976738277828712e+01 3.5418759417516545e+00 
3138 3139 2 1.2467813888044947e+00 -5.9516186460854268e+00 1.0000000000000000e+00 2.7464397189514176e+00 1.2675998718260069e+00 5.1059094772774651e+00 
536 537 2 1.2467813888044947e+00 -6.4136543021995820e+00 1.0000000000000000e+00 3.2146209516931030e+01 1.5366121533944168e+00 4.7282199396385751e+00 
1506 1507 2 1.2467813888044947e+00 -7.3356276203043045e+00 1.0000000000000000e+00 7.6418146128024151e+00 3.8692121971609947e+00 5.4067996476841458e+00 
1108 1109 2 1.2467813888044947e+00 -4.4720210326416234e+00 1.0000000000000000e+00 1.2021332411050425e+01 3.1106395503940831e+00 4.7851773379985589e+00 
2360 2361 2 1.2467813888044947e+00 -7.6889917023987895e+00 1.0000000000000000e+00 6.2970167603683969e+00 6.3780352302600241e+00 5.4013015045011024e+00 
2264 2265 2 1.2467813888044947e+00 -4.6365156164009527e+00 1.0000000000000000e+00 1.9881766262935315e+01 6.0064203823542526e+00 5.0482482073893706e+00 
1359 1360 2 1.2467814617821826e+00 3.0279611434105274e+00 1.0000000000000000e+00 2.3812722711020594e+01 6.0166158525174822e+00 5.4119410160881447e+00 
2071 2072 2 1.2467813888044947e+00 -5.6366861403469475e+00 1.0000000000000000e+00 1.8361302058709587e+01 7.6375991446034917e+00 4.3422357085691514e+00 
3037 3038 2 1.2467813888044947e+00 -7.8280724549854011e+00 1.0000000000000000e+00 2.3990711430134963e+00 8.5857552163343041e+00 5.0421034054670555e+00 
2171 2172 2 1.2467813888044947e+00 -7.3253606020348450e+00 1.0000000000000000e+00 1.1114730653044560e+01 8.7522135960115488e+00 4.8354728709228523e+00 
669 670 2 1.2467813888044947e+00 -6.2332689439506730e+00 1.0000000000000000e+00 1.9684398427584799e+01 9.7731775507654639e+00 5.5840104937955282e+00 
1545 1546 2 1.2467813888044947e+00 -4.4772255518927295e+00 1.0000000000000000e+00 4.3515339979693968e-01 1.0160539763560973e+01 5.7027134354918223e+00 
143 144 2 1.2467813888044947e+00 3.4907611696821350e+00 1.0000000000000000e+00 7.1878861377320113e+00 1.0334484446870585e+01 4.8498606997062943e+00 
3825 3826 2 1.2467813888044947e+00 -4.7420896677484503e+00 1.0000000000000000e+00 1.3705049377750578e+01 1.2473813706622382e+01 5.6583740285156203e+00 
3723 3724 2 1.2467815848113866e+00 3.1777495497944963e-01 1.0000000000000000e+00 2.6845958399391623e+01 1.2747494028172037e+01 5.4336595573434687e+00 
3407 3408 2 1.2467813888044947e+00 -6.7843378016669291e+00 1.0000000000000000e+00 9.0461522589729482e-01 1.3379755479475113e+01 4.4792838240523620e+00 
87 88 2 1.2467813888044947e+00 2.5383450963428427e+00 1.0000000000000000e+00 9.0293739630533381e+00 1.3834730557746202e+01 5.2175866293076165e+00 
788 789 2 1.2467813939516859e+00 -4.3462073712465159e+00 1.0000000000000000e+00 1.4784936114488829e+01 1.4252611864279581e+01 5.1973177125598298e+00 
1954 1955 2 1.2467813888044947e+00 -7.0900990470844754e+00 1.0000000000000000e+00 1.1537020904797672e+01 1.4547069916361329e+01 4.6725655007411140e+00 
3064 3065 2 1.2467813888044947e+00 -3.3536387894944353e+00 1.0000000000000000e+00 1.7579847552423853e+01 1.4341771174235847e+01 4.7286373998705553e+00 
2902 2903 2 1.2467813888044947e+00 -2.5409774228289792e+00 1.0000000000000000e+00 2.3044680991638618e+01 1.6815752719325712e+01 5.1419976322092866e+00 
767 768 2 1.2467813888044947e+00 -4.0362910886695609e+00 1.0000000000000000e+00 1.4660364234992351e+00 1.7641474738829711e+01 4.6230276407971047e+00 
653 654 2 1.2467813888044947e+00 -6.9696118848263549e+00 1.0000000000000000e+00 1.8366561189644599e+01 1.7778249648299450e+01 4.8836574173798182e+00 
3722 3723 2 1.2467813888044947e+00 2.9872296609118649e+00 1.0000000000000000e+00 3.1264284598374257e+01 1.7398553361562534e+01 5.0429221744498731e+00 
2129 2130 2 1.2467813888044947e+00 -6.4802178119337430e+00 1.0000000000000000e+00 4.6785354981866618e+00 1.9245058763809066e+01 5.0936631550403293e+00 
226 227 2 1.2467813949005044e+00 3.8644564332125975e+00 1.0000000000000000e+00 1.2043306254728893e+01 1.8624824394010716e+01 5.4201058191288629e+00 
2758 2759 2 1.2467813888044947e+00 1.8599235619332424e+00 1.0000000000000000e+00 1.5155861659867941e+01 1.9049127400855500e+01 4.4657678702782624e+00 
3216 3217 2 1.2467813888044947e+00 3.0697498959584220e+00 1.0000000000000000e+00 2.1365661307854651e+01 1.9536739992633894e+01 4.3768476612132305e+00 
2475 2476 2 1.2467813888044947e+00 -2.5531415401904995e+00 1.0000000000000000e+00 2.5930918833519268e+01 1.9023283082331769e+01 4.4330659359690801e+00 
3955 3956 2 1.2467813888044947e+00 -5.5384039257439388e-01 1.0000000000000000e+00 2.7954011470084719e+01 1.9650540975956744e+01 5.2514607692682995e+00 
804 805 2 1.2467813888044947e+00 -4.1808363053773983e+00 1.0000000000000000e+00 2.1441546190853920e+01 2.5582250537425870e+00 5.8120827298591200e+00 
2091 2092 2 1.2467813888044947e+00 -5.3608223975672145e+00 1.0000000000000000e+00 1.3448720085126583e+01 4.2687035396316952e+00 6.9077043195550258e+00 
3323 3324 2 1.2467813888044947e+00 -3.2823528332521814e+00 1.0000000000000000e+00 1.1202450352558520e+01 5.1485429977864605e+00 5.9271947212130707e+00 
4528 4529 2 1.2467813888044947e+00 1.9927914268083896e-01 1.0000000000000000e+00 2.8760423239570770e+01 5.5213092333586147e+00 6.6412853497389568e+00 
3003 3004 2 1.2467813888044947e+00 -7.3561410839318011e+00 1.0000000000000000e+00 3.1492882549035162e+01 4.9626973936785523e+00 5.9289077552702114e+00 
3975 3976 2 1.2467813888044947e+00 -6.3039923695018807e+00 1.0000000000000000e+00 9.7255764205602180e+00 6.7332271073855452e+00 7.0621220722007232e+00 
1800 1801 2 1.2467813888044947e+00 -1.0252765792405647e+01 1.0000000000000000e+00 1.7286636441693815e+01 6.0245796815363573e+00 6.2568062406070695e+00 
1989 1990 2 1.2467813888044947e+00 -5.7265878382095705e+00 1.0000000000000000e+00 2.6371658054309496e+01 7.0291818363666625e+00 5.8334602134679194e+00 
240 241 2 1.2467813888044947e+00 1.6214700646368305e+00 1.0000000000000000e+00 2.8829120339021298e+01 8.2644429612169859e+00 6.2553060047441802e+00 
4069 4070 2 1.2467813888044947e+00 -8.0732714442867692e+00 1.0000000000000000e+00 3.2118995003707660e+01 8.1426158715563499e+00 6.8733946898099934e+00 
2166 2167 2 1.2467813888044947e+00 -4.2522748501768906e+00 1.0000000000000000e+00 2.7399741230305774e+00 1.0219994759395798e+01 6.6681117666304228e+00 
4082 4083 2 1.2467813888044947e+00 -4.6391024539218542e+00 1.0000000000000000e+00 2.3965176219626713e+01 1.2037558680332843e+01 6.6925175412213260e+00 
2209 2210 2 1.2467813888044947e+00 -7.4811253482584377e+00 1.0000000000000000e+00 3.2212663607428745e+01 1.2164004175359755e+01 6.4994431022633217e+00 
2786 2787 2 1.2467814159034731e+00 8.1343215937066393e-02 1.0000000000000000e+00 2.8804286032400476e+01 1.2999876606743774e+01 6.1113674635426740e+00 
3128 3129 2 1.2467813888044947e+00 -3.1978175483618720e+00 1.0000000000000000e+00 3.0966256751350109e+01 1.3926284394206887e+01 6.7981335376023271e+00 
1264 1265 2 1.2467813888044947e+00 -7.7443104823242397e+00 1.0000000000000000e+00 1.7365849422941493e+00 1.5574266670398059e+01 6.3753813338674181e+00 
191 192 2 1.2467813888044947e+00 1.4548659695396315e+00 1.0000000000000000e+00 1.9206655850295181e+01 1.5334626665550543e+01 6.8470046138719329e+00 
3830 3831 2 1.2467813888044947e+00 -3.4834279446997698e+00 1.0000000000000000e+00 1.1461897481849533e+01 1.6129543490581593e+01 6.8789385064820969e+00 
1115 1116 2 1.2467813888044947e+00 -3.5368946708445108e+00 1.0000000000000000e+00 2.6073966416645451e+01 1.5876921750634272e+01 5.9261147794277402e+00 
3878 3879 2 1.2467813888044947e+00 -8.7769235321586034e+00 1.0000000000000000e+00 3.1907587591378192e+01 1.6174612977458249e+01 7.0910225803924423e+00 
236 237 2 1.2467813888044947e+00 7.7627225167340317e+00 1.0000000000000000e+00 1.7814714079779197e+01 1.9968602439643945e+01 6.2721124499045562e+00 
438 439 2 1.2467813912511538e+00 1.0703939342434786e+01 1.0000000000000000e+00 2.6318796749373963e+01 1.9277413593545912e+01 7.0631493636993188e+00 
3903 3904 2 1.2467813888044947e+00 -5.6755656932924374e+00 1.0000000000000000e+00 2.9817070172636733e+01 1.8956153224503019e+01 6.4196639877655741e+00 
1387 1388 2 1.2467813888044947e+00 7.6846308468912454e+00 1.0000000000000000e+00 1.4682269065478508e+01 8.3168633594018437e-01 7.9367298509406785e+00 
1958 1959 2 1.2467813888044947e+00 -4.4849518913320310e+00 1.0000000000000000e+00 1.5178223059735729e+00 1.8026053646040150e+00 7.9265440707488111e+00 
1054 1055 2 1.2467813888044947e+00 -3.7601857118451969e+00 1.0000000000000000e+00 6.4123546904936140e+00 2.4999476125697990e+00 8.2601229786471642e+00 
2151 2152 2 1.2467813888044947e+00 -3.4260581354271649e+00 1.0000000000000000e+00 1.1879510837962085e+01 2.2252442829516674e+00 8.3819225834792430e+00 
3477 3478 2 1.2467813888044947e+00 -6.4271395810702003e+00 1.0000000000000000e+00 2.6749733669139779e+01 1.7846606516292109e+00 7.7784404244905598e+00 
4344 4345 2 1.2467813888044621e+00 2.2605740678172284e+00 1.0000000000000000e+00 1.5224695014235943e+00 5.2510625874932950e+00 8.3112954253135349e+00 
4014 4015 2 1.2467813888044947e+00 -5.2885552771336295e+00 1.0000000000000000e+00 2.0163779677834480e+01 4.5437281479583334e+00 8.0222095823047077e+00 
4224 4225 2 1.2467813888044947e+00 4.1700170934489620e+00 1.0000000000000000e+00 2.2843708457671884e+01 4.3961057940891939e+00 8.2205015077229060e+00 
1532 1533 2 1.2467813888044621e+00 -9.9002453937286834e+00 1.0000000000000000e+00 2.6665852884975427e+00 6.5961956636268386e+00 7.1748636980623646e+00 
4287 4288 2 1.2467815382253340e+00 1.5049168587615540e+00 1.0000000000000000e+00 1.3274201332902116e+01 8.1110296836121076e+00 7.4638231169945852e+00 
2312 2313 2 1.2467815394944526e+00 1.8466425460303864e+00 1.0000000000000000e+00 1.5250105744928993e+01 7.4588651702106832e+00 7.4858712967315331e+00 
1903 1904 2 1.2467813888044947e+00 -5.3461886593831691e+00 1.0000000000000000e+00 1.8923416687561780e+01 7.4668272478576254e+00 8.0513886493956601e+00 
871 872 2 1.2467813887976436e+00 -5.3604879923173874e+00 1.0000000000000000e+00 2.1019818582979742e+01 8.3304716824110336e+00 7.8896817906755254e+00 
2740 2741 2 1.2467813875353764e+00 2.0618352589821147e+00 1.0000000000000000e+00 1.2206962927268661e+01 9.6549007623227219e+00 8.3920949527857154e+00 
4096 4097 2 1.2467813888044947e+00 -6.4703971054194298e+00 1.0000000000000000e+00 1.7229924444344725e+01 9.2269311847850393e+00 7.3983770780537998e+00 
2730 2731 2 1.2467813888044947e+00 -9.8823913630478921e-01 1.0000000000000000e+00 2.6975453425458735e+01 9.1242679997551370e+00 7.2664469233002258e+00 
2398 2399 2 1.2467813888044947e+00 -3.8606219262491575e+00 1.0000000000000000e+00 3.0730080054191969e+01 9.8088037868484435e+00 7.5496996893122077e+00 
2983 2984 2 1.2467813888044947e+00 5.3372897467058458e+00 1.0000000000000000e+00 6.0415013215443816e+00 1.1023049213597579e+01 7.7468135256249582e+00 
4002 4003 2 1.2467813888044947e+00 -3.8878189367222804e+00 1.0000000000000000e+00 1.4816523330751586e+01 1.0156215482944209e+01 7.7914519594864373e+00 
4100 4101 2 1.2467813888044947e+00 -2.0252370213649242e+00 1.0000000000000000e+00 2.4364929736042033e+01 1.0070283928933119e+01 8.3349563244567175e+00 
32 33 2 1.2467813888044947e+00 9.3419164759985343e+00 1.0000000000000000e+00 3.7436259740170432e+00 1.3338406606723769e+01 8.2241211420926010e+00 
2271 2272 2 1.2467813888044947e+00 4.9177784420790804e-01 1.0000000000000000e+00 1.2501711918124505e+01 1.3852604736745343e+01 8.2012444656406966e+00 
3209 3210 2 1.2467813888044947e+00 1.9689782342207436e+00 1.0000000000000000e+00 1.8685488427893382e+01 1.3419323425009036e+01 7.8133569407922039e+00 
2109 2110 2 1.2467813888044947e+00 -2.9580094623496915e+00 1.0000000000000000e+00 1.4739082516663087e+01 1.5063622558744237e+01 8.4062710809389767e+00 
2663 2664 2 1.2467813888044947e+00 -5.4209092155691820e+00 1.0000000000000000e+00 9.3855746016184991e+00 1.5794668723657121e+01 7.5780598789603903e+00 
2804 2805 2 1.2467813888044947e+00 1.4351235591210232e+00 1.0000000000000000e+00 3.6513898712208848e+00 1.7610220477776629e+01 7.5197301455966610e+00 
3059 3060 2 1.2467813888044947e+00 -5.6977983210793788e+00 1.0000000000000000e+00 1.3892454955207668e+01 1.7522152119692986e+01 7.3890836215259430e+00 
2887 2888 2 1.2467842703398828e+00 -4.7655764519457566e+00 1.0000000000000000e+00 2.7685688995819252e+01 1.7512976140721474e+01 7.3874918791192661e+00 
1349 1350 2 1.2467813888044947e+00 5.4441243811837854e+00 1.0000000000000000e+00 7.5285688693365733e+00 1.9837914922263298e+01 7.9438720282235211e+00 
3367 3368 2 1.2467814116441709e+00 -6.1074201716942085e+00 1.0000000000000000e+00 1.0761967100149365e+01 1.9136370712296049e+01 7.3908147680924685e+00 
4015 4016 2 1.2467813888044947e+00 -3.5239581212517610e+00 1.0000000000000000e+00 1.9161957961836187e+01 1.9517019928441098e+01 8.2686166282712570e+00 
3487 3488 2 1.2467813888044947e+00 -5.9039179283329579e-02 1.0000000000000000e+00 2.8939364705889918e+01 1.9316444096012710e+01 8.3610560287500384e+00 
2476 2477 2 1.2467813888044947e+00 -4.2591890705001649e+00 1.0000000000000000e+00 1.1441299142904034e+01 7.2907063657250504e-01 9.8559556687433645e+00 
3428 3429 2 1.2467813888044947e+00 -3.1493406515471714e+00 1.0000000000000000e+00 3.0563275237176338e+01 1.0598825664718641e+00 8.6729853234132399e+00 
326 327 2 1.2467813888044947e+00 8.4357729170433726e-01 1.0000000000000000e+00 9.4734572390751559e+00 1.5715299562793625e+00 8.8515481132830960e+00 
969 970 2 1.2467813888044947e+00 -5.8995260347705187e+00 1.0000000000000000e+00 2.1513966332528359e+01 1.6171294697254013e+00 9.0904427439414839e+00 
943 944 2 1.2467813888044947e+00 3.7112816275236016e+00 1.0000000000000000e+00 1.0965292582084704e+01 3.9151042064679187e+00 9.8720769788199174e+00 
1906 1907 2 1.2467813888044947e+00 -6.9703114484087489e+00 1.0000000000000000e+00 1.7235552313554034e+01 3.5946217839308026e+00 9.1651970370712874e+00 
137 138 2 1.2467813888044947e+00 1.4169998320086608e-01 1.0000000000000000e+00 3.1655199542905862e+01 3.6854795953170454e+00 8.9292437000345224e+00 
4432 4433 2 1.2467813888044947e+00 3.2383531900136553e-01 1.0000000000000000e+00 5.8031202778146564e+00 5.5368882578847192e+00 9.4580492460943191e+00 
2816 2817 2 1.2467813888044947e+00 -2.6605428555659389e+00 1.0000000000000000e+00 1.5981256167137193e+01 5.6458737332899034e+00 9.8314015921547302e+00 
1097 1098 2 1.2467813888044947e+00 -5.1795030890601765e+00 1.0000000000000000e+00 2.2136938974813251e+01 6.9673526399835612e+00 9.7136383791530427e+00 
3273 3274 2 1.2467813888044947e+00 1.0440766695380368e+00 1.0000000000000000e+00 2.9165213030309769e+01 6.1212567794599977e+00 9.0456628532236163e+00 
3008 3009 2 1.2467813888044947e+00 -2.7213481615916439e+00 1.0000000000000000e+00 3.1789751244010432e+01 6.4598692699714304e+00 9.3347532917977425e+00 
3467 3468 2 1.2467813888044947e+00 -4.1220483150719183e+00 1.0000000000000000e+00 3.2333302989111004e+01 9.5250093432517762e+00 9.3107959270677885e+00 
1849 1850 2 1.2467813887976436e+00 1.0062124947173727e+01 1.0000000000000000e+00 2.0371868726522731e+01 1.0195563868328781e+01 8.5997169672718137e+00 
1136 1137 2 1.2467813888044947e+00 -3.2073636024544880e+00 1.0000000000000000e+00 7.6777436677269879e+00 1.1847114836361619e+01 9.5752436679536288e+00 
2097 2098 2 1.2467813888044947e+00 -2.5550981244954665e+00 1.0000000000000000e+00 1.1910782276077022e+01 1.1530633074781740e+01 9.9805747988349225e+00 
2865 2866 2 1.2467813888044947e+00 -4.0593123147719874e+00 1.0000000000000000e+00 2.3416138231355042e+01 1.2640023268604070e+01 8.6469992008879224e+00 
177 178 2 1.2467813888044947e+00 -5.1745645706562304e-01 1.0000000000000000e+00 1.6532741864794946e+00 1.4147916008409657e+01 9.2260323268385100e+00 
3431 3432 2 1.2467832278819884e+00 -5.6150245882716661e+00 1.0000000000000000e+00 1.8237481284168648e+01 1.3034417986691386e+01 9.8377844890538491e+00 
4060 4061 2 1.2467813888044947e+00 -5.4757696326681460e+00 1.0000000000000000e+00 6.3635529197031460e+00 1.4898222888520172e+01 9.1644082846247858e+00 
689 690 2 1.2467816455663319e+00 3.9076155250427658e-01 1.0000000000000000e+00 2.5683603318922653e+01 1.5008550363244453e+01 9.5668836728707660e+00 
1711 1712 2 1.2467813888044947e+00 -5.0121494760838363e+00 1.0000000000000000e+00 1.2332675225803390e+01 1.6758266960116654e+01 8.7120212724642467e+00 
1237 1238 2 1.2467813888044947e+00 -6.3607487918692378e+00 1.0000000000000000e+00 2.2232070039857756e+01 1.6284425376330340e+01 9.7563046707170962e+00 
4316 4317 2 1.2467845271017197e+00 6.8213038291145827e+00 1.0000000000000000e+00 2.7152382526838821e+01 1.6369635862837978e+01 9.0143174223214615e+00 
1956 1957 2 1.2467813888044947e+00 -5.2662853098787616e+00 1.0000000000000000e+00 3.2346842380067571e+01 1.7932917494260330e+01 8.8491148137754436e+00 