LAMMPS data file via write_data, version 30 Jul 2016, timestep = 50000000

4620 atoms
8 atom types

0.0000000000000000e+00 1.0000000000000000e+02 xlo xhi
0.0000000000000000e+00 4.0000000000000000e+01 ylo yhi
0.0000000000000000e+00 4.0000000000000000e+01 zlo zhi

Masses

1 3.896
2 5.36
3 20.064
4 8.378
5 8.378
6 8.378
7 8.378
8 8.378

Atoms # meso-molecular

659 660 2 1.2467813888044947e+00 -8.7969839741058760e+00 1.0000000000000000e+00 1.3719263934846279e-01 2.4911882443442812e-01 2.8438158028822891e-01 
1918 1919 2 1.2467813888044947e+00 -9.0455313918571623e+00 1.0000000000000000e+00 1.0338517313238894e+01 9.5450763126671345e-01 7.9883479820887704e-01 
2994 2995 2 1.2467813888044947e+00 -2.2662083097216064e+00 1.0000000000000000e+00 4.5209184655499133e+00 2.8009073554442403e+00 9.0761362804338697e-01 
1948 1949 2 1.2467813888044947e+00 -5.5770817911554200e+00 1.0000000000000000e+00 1.8757618143565555e+01 2.5822146007765299e+00 6.5623155924982646e-01 
94 95 2 1.2467813888044947e+00 8.1378600756910524e-01 1.0000000000000000e+00 2.1593475914503088e+01 1.9364389923042484e+00 4.3535064689147973e-02 
1619 1620 2 1.2467813888044947e+00 -2.8132381209381605e+00 1.0000000000000000e+00 1.2901099719252588e+01 4.0399947751600269e+00 3.6911873182951645e-02 
3468 3469 2 1.2467813888044947e+00 -1.7627336818516737e+00 1.0000000000000000e+00 1.1023838233250741e+01 5.5504500399133194e+00 1.1907223008733092e+00 
3199 3200 2 1.2467813888044947e+00 9.6822930446493760e-01 1.0000000000000000e+00 1.7309797162401722e+01 5.0126132615165009e+00 9.7973790919300818e-01 
4323 4324 2 1.2467813888044947e+00 -1.1773591289622560e+00 1.0000000000000000e+00 2.6405216416350104e+01 5.2752723708113285e+00 6.5608666023382201e-01 
547 548 2 1.2467813888044947e+00 3.0285312825414428e+00 1.0000000000000000e+00 5.9017095583454520e+00 6.7055710531091712e+00 6.7591008402701180e-01 
942 943 2 1.2467813888044947e+00 1.7259947635823245e-01 1.0000000000000000e+00 2.2343958154529869e+01 6.8519972946396077e+00 9.3994213779458891e-01 
990 991 2 1.2467813888044947e+00 -3.6195051210155835e+00 1.0000000000000000e+00 2.1000639258787407e-01 8.0800302949131968e+00 6.1245506433784236e-01 
946 947 2 1.2467813888044947e+00 3.4515112791989759e+00 1.0000000000000000e+00 2.9386297255173421e+01 8.0046880248811743e+00 8.5115024693349417e-01 
4426 4427 2 1.2467813888044947e+00 4.2611165273012883e+00 1.0000000000000000e+00 4.6946879769265006e+00 9.3342880342892567e+00 1.7188872367240293e-01 
1716 1717 2 1.2467813888044947e+00 -6.5253838990144910e+00 1.0000000000000000e+00 3.2277206976631085e+01 8.6890196650729958e+00 1.3754750117896362e+00 
1029 1030 2 1.2467813888044947e+00 -7.9854847789425296e+00 1.0000000000000000e+00 1.5104796673444820e+01 1.1026601805849729e+01 6.7486883553859967e-01 
4266 4267 2 1.2467813888044947e+00 1.1095247989392649e+00 1.0000000000000000e+00 2.8849829277641877e+01 1.0101930165790352e+01 8.6204464480233445e-01 
3845 3846 2 1.2467813888044947e+00 -7.3544791726627032e+00 1.0000000000000000e+00 8.6779228797223364e+00 1.3640775343053752e+01 8.8488302132328750e-02 
3461 3462 2 1.2467813888044947e+00 -2.6837880519154935e+00 1.0000000000000000e+00 1.8790381321007441e+01 1.5002229416511515e+01 1.0229968994115670e+00 
3134 3135 2 1.2467813888044947e+00 -7.4156827043408615e+00 1.0000000000000000e+00 2.4896185770258210e+01 1.4784267735977341e+01 6.8154978519962628e-01 
1640 1641 2 1.2467813888044947e+00 -5.2779864728709338e+00 1.0000000000000000e+00 2.6811930372962962e+01 1.5737345464525724e+01 1.2345197354795854e+00 
1757 1758 2 1.2467813888044947e+00 -5.2649200206346549e+00 1.0000000000000000e+00 3.2301666565427311e+01 1.6080114043348924e+01 5.3334014316323530e-01 
2384 2385 2 1.2467813888044947e+00 -6.0067882212288914e+00 1.0000000000000000e+00 2.3530550811884656e+00 1.8786999837401478e+01 1.1971115979319107e+00 
3860 3861 2 1.2467813888044947e+00 -4.9541479719902251e+00 1.0000000000000000e+00 2.0056282484869232e+01 1.9943738093458290e+01 6.2135575314733349e-02 
2214 2215 2 1.2467813888044947e+00 -2.9209216215408098e+00 1.0000000000000000e+00 2.2548549596175757e+01 1.9251334094142194e+01 6.5250924031465496e-01 
1169 1170 2 1.2467813888044947e+00 -5.7693903313944768e+00 1.0000000000000000e+00 2.7405267019867843e+01 1.9045203522067887e+01 1.3692893926992087e+00 
1269 1270 2 1.2467813888044947e+00 -2.3163478062673200e+00 1.0000000000000000e+00 2.2641458378841435e+01 1.2826863523309848e+00 2.4063749085088673e+00 
1671 1672 2 1.2467813888044947e+00 -5.5514211444781871e+00 1.0000000000000000e+00 3.0589643337009239e+01 8.7966960618149470e-01 2.2021813309819018e+00 
2065 2066 2 1.2467813888044947e+00 1.0931501161752513e+00 1.0000000000000000e+00 5.7063840140695188e+00 1.6473694741001246e+00 2.3196112882830442e+00 
1104 1105 2 1.2467813888044947e+00 -2.6226729828252573e+00 1.0000000000000000e+00 2.5702335150930445e+01 1.6388991250023066e+00 1.8055304483472132e+00 
1042 1043 2 1.2467813888044947e+00 -8.4148489691835771e+00 1.0000000000000000e+00 2.8217277714518850e+01 2.6660710819649744e+00 1.9221238398002591e+00 
4002 4003 2 1.2467813888044947e+00 -3.9031626989166961e+00 1.0000000000000000e+00 2.7527785666661746e+01 6.1280123639240411e+00 2.7034431777080377e+00 
489 490 2 1.2467813888044947e+00 2.1857508757848523e+00 1.0000000000000000e+00 3.3242501867713266e+01 5.9072688684068515e+00 2.0501095525988360e+00 
1971 1972 2 1.2467813888044947e+00 -3.8821002412382173e+00 1.0000000000000000e+00 7.6839213853373745e-01 8.4468054545658067e+00 2.7486198986050012e+00 
2816 2817 2 1.2467813888044947e+00 -2.6865861903277897e+00 1.0000000000000000e+00 1.2273840048580677e+01 7.2121343481915110e+00 1.7346271003781073e+00 
3809 3810 2 1.2467813888044947e+00 -6.7582329151535827e+00 1.0000000000000000e+00 2.5938234030393581e+01 7.5218929199111155e+00 2.3743544703788593e+00 
3277 3278 2 1.2467813888044947e+00 1.2415178646358149e+00 1.0000000000000000e+00 7.2961840277911989e+00 9.1879429487598916e+00 1.6772095154096447e+00 
1581 1582 2 1.2467813888044947e+00 -3.7052655149845952e+00 1.0000000000000000e+00 1.8643715124935728e+01 1.0831141439846901e+01 2.7607039319903937e+00 
3367 3368 2 1.2467813888044947e+00 -6.1354495668317641e+00 1.0000000000000000e+00 1.0760499852177411e+01 1.4070734354552906e+01 2.3134798686142450e+00 
685 686 2 1.2467813888044947e+00 -2.9893174821077215e+00 1.0000000000000000e+00 1.3620063432377206e+01 1.4105477942105127e+01 1.4934399943736050e+00 
1583 1584 2 1.2467813888044947e+00 -2.0883436057074087e+00 1.0000000000000000e+00 2.0998608582942893e+01 1.4172791972938727e+01 2.5793085343106132e+00 
4106 4107 2 1.2467813888044947e+00 -5.6756773369539824e+00 1.0000000000000000e+00 7.1554739123273441e+00 1.4530167407245765e+01 2.5698521047494900e+00 
3807 3808 2 1.2467813888044947e+00 -2.3519201169321827e-01 1.0000000000000000e+00 1.9252578613003375e+00 1.6410306367525539e+01 2.0619678503602326e+00 
1138 1139 2 1.2467813888044947e+00 -4.3099887878585221e+00 1.0000000000000000e+00 8.9692777924923899e+00 1.6838958664861799e+01 2.2651141887349593e+00 
3415 3416 2 1.2467813888044947e+00 -5.9250615616930205e+00 1.0000000000000000e+00 2.9676208304539326e+01 1.6245949066272377e+01 2.4357609841564294e+00 
846 847 2 1.2467813888044947e+00 -3.8531463755859763e+00 1.0000000000000000e+00 6.9046192294462045e+00 1.7788642910061888e+01 1.4612901061442241e+00 
4402 4403 2 1.2467813888044947e+00 6.3130397831148133e-01 1.0000000000000000e+00 1.3864291437103859e+01 1.8113805842488553e+01 1.9377409286318998e+00 
2414 2415 2 1.2467813888044947e+00 -4.0875667343584698e+00 1.0000000000000000e+00 2.4173747516150147e+01 1.7150494006022821e+01 1.8124905500052788e+00 
4548 4549 2 1.2467813888044947e+00 1.4753732798696488e+00 1.0000000000000000e+00 1.4230896455093923e+01 1.2307333955798605e+00 3.4049587308602405e+00 
1387 1388 2 1.2467813888044947e+00 7.6706238339636359e+00 1.0000000000000000e+00 1.8993170557366856e+01 9.0199505089575277e-03 3.8540093086968192e+00 
2438 2439 2 1.2467813888044947e+00 -2.0898161145906986e+00 1.0000000000000000e+00 1.0844086138926897e+01 2.4842222243233949e+00 2.8979435739648696e+00 
4287 4288 2 1.2467813888044947e+00 1.4289253045937245e+00 1.0000000000000000e+00 1.9474320541995819e+01 2.3105960323807118e+00 3.6166062321407613e+00 
2654 2655 2 1.2467813888044947e+00 -5.7869159668661077e+00 1.0000000000000000e+00 3.1699223203621759e+01 6.2977523644323528e+00 3.5377516055957208e+00 
3747 3748 2 1.2467813888044947e+00 -5.4790197645660186e+00 1.0000000000000000e+00 1.9420723141068981e+00 7.2008367793390287e+00 4.1069894906591831e+00 
395 396 2 1.2467813888044947e+00 2.3050570366595773e+00 1.0000000000000000e+00 8.9081268718672373e+00 8.2923427972720951e+00 3.6141514533309236e+00 
2964 2965 2 1.2467813888044947e+00 -5.0214437354109602e+00 1.0000000000000000e+00 2.0135490308391123e+01 8.0378595695410002e+00 3.2969730166553988e+00 
123 124 2 1.2467813888044947e+00 1.5131759365860016e+00 1.0000000000000000e+00 2.4184803751861196e+01 7.7398940428674807e+00 4.1162686188042708e+00 
382 383 2 1.2467813888044947e+00 2.9882328502562938e+00 1.0000000000000000e+00 2.6127479887422140e+01 9.5722483749111706e+00 4.1496969149412211e+00 
129 130 2 1.2467813888044947e+00 1.9997652777820423e+00 1.0000000000000000e+00 3.0475410571911461e+01 9.1966696805794808e+00 3.4634298631310982e+00 
3656 3657 2 1.2467813888044947e+00 8.8311618297455430e-01 1.0000000000000000e+00 8.6738303080678296e+00 1.0702865355936822e+01 3.8616980512097370e+00 
1210 1211 2 1.2467813888044947e+00 -4.8563902995684085e+00 1.0000000000000000e+00 1.2550657446933096e+01 1.0985575374072416e+01 3.6893081979697859e+00 
4245 4246 2 1.2467813888044947e+00 -2.3651916225461247e+00 1.0000000000000000e+00 2.6303517365869126e+01 1.1620555296111473e+01 2.9285936471749645e+00 
4094 4095 2 1.2467813888044947e+00 -4.2272565189069153e+00 1.0000000000000000e+00 2.9322223611699293e+01 1.2645975135008943e+01 3.2371222069671224e+00 
3057 3058 2 1.2467813888044947e+00 -2.9694510069578746e+00 1.0000000000000000e+00 1.7320309410086178e+01 1.3372642033618792e+01 3.1841956721709961e+00 
4334 4335 2 1.2467813888044947e+00 4.3330169819312356e+00 1.0000000000000000e+00 3.2138384530002568e+01 1.5052808637402944e+01 2.8706352487438602e+00 
1136 1137 2 1.2467813888044947e+00 -3.2221784357380470e+00 1.0000000000000000e+00 1.3642406679552318e+01 1.5873096931557091e+01 3.0671561765720559e+00 
676 677 2 1.2467813888044947e+00 -5.0011796417180410e-01 1.0000000000000000e+00 2.1933169615600718e+01 1.6857529191504124e+01 3.5374771305734898e+00 
3299 3300 2 1.2467813888044947e+00 -5.7678975079940571e+00 1.0000000000000000e+00 2.0633277959130760e+00 1.8441298117471906e+01 3.6624887490188431e+00 
3548 3549 2 1.2467813888044947e+00 -5.8072566998779056e+00 1.0000000000000000e+00 1.1394968736668659e+01 1.7625890752888779e+01 3.0157518307660798e+00 
581 582 2 1.2467813888044947e+00 -5.4859733646621454e+00 1.0000000000000000e+00 4.2827396530959252e+00 3.4914626041598956e-01 5.5320889191792553e+00 
2231 2232 2 1.2467813888044947e+00 -2.7912331766528942e+00 1.0000000000000000e+00 1.6666794632177886e+01 1.3801561748520779e+00 5.2223545154718174e+00 
3598 3599 2 1.2467813888044947e+00 -2.9775586740428164e+00 1.0000000000000000e+00 2.7479310415351492e+01 4.1517112675231171e-01 4.5562403497867994e+00 
3008 3009 2 1.2467813888044947e+00 -2.7447273211017684e+00 1.0000000000000000e+00 3.2601551443366411e+01 2.6568845046952549e-01 5.4512548634401288e+00 
1089 1090 2 1.2467813888044947e+00 -7.1202166276548731e+00 1.0000000000000000e+00 3.2767978370570314e+00 2.4421392034672382e+00 4.4165870880330163e+00 
1202 1203 2 1.2467813888044947e+00 -4.2779867750259184e+00 1.0000000000000000e+00 8.3874183886697864e+00 3.1936032388926798e+00 5.5239422493420074e+00 
2091 2092 2 1.2467813888044947e+00 -5.3777127056487490e+00 1.0000000000000000e+00 1.7487511490860548e+01 3.7744550088597308e+00 4.9572728692189081e+00 
3139 3140 2 1.2467813888044947e+00 -7.5614979422906092e+00 1.0000000000000000e+00 1.3528195517500386e+01 5.2554426023539165e+00 4.4394690300144086e+00 
1397 1398 2 1.2467813888044947e+00 3.1256519130270428e+00 1.0000000000000000e+00 2.0872293372434513e+01 5.6195360236702108e+00 4.6985134731406148e+00 
9 10 2 1.2467813888044947e+00 6.5530742966794788e+00 1.0000000000000000e+00 2.7831357966335450e+01 4.7216754132268832e+00 4.3964976688991637e+00 
3825 3826 2 1.2467813888044947e+00 -4.7596757117518962e+00 1.0000000000000000e+00 1.4344600529852812e+01 7.4513012040354640e+00 4.3075292418123503e+00 
87 88 2 1.2467813888044947e+00 2.5264337202839764e+00 1.0000000000000000e+00 1.3690924397153390e+01 9.8195083448497638e+00 5.6321632143502018e+00 
42 43 2 1.2467813888044947e+00 1.6137585133363025e+01 1.0000000000000000e+00 1.6639690743694143e+01 9.9469633143052896e+00 4.4248046349645191e+00 
2627 2628 2 1.2467813888044947e+00 -7.0266554132578776e+00 1.0000000000000000e+00 6.0157576551889367e+00 1.1559761864890360e+01 5.1546200222312093e+00 
1913 1914 2 1.2467813888044947e+00 -6.0661743595286310e+00 1.0000000000000000e+00 1.9682566370340759e+01 1.2312003626821868e+01 4.6777386884534380e+00 
1097 1098 2 1.2467813888023522e+00 -5.1906355910854280e+00 1.0000000000000000e+00 2.4460489703948184e+01 1.2278250021885084e+01 5.5549678588616747e+00 
1250 1251 2 1.2467813888023522e+00 -5.0280677127523177e+00 1.0000000000000000e+00 2.6520806382071196e+01 1.2632806564025664e+01 5.3593015940318773e+00 
3990 3991 2 1.2467813888044947e+00 2.2535604071947315e+00 1.0000000000000000e+00 9.0324837933469215e+00 1.2869572192753584e+01 4.8840373841044693e+00 
1503 1504 2 1.2467813888044947e+00 -2.8339447580673629e+00 1.0000000000000000e+00 3.2431343543968083e+01 1.4265300430291372e+01 5.4146120137659137e+00 
3489 3490 2 1.2467813888044947e+00 -4.3130806887178066e+00 1.0000000000000000e+00 1.0782000326342171e+01 1.5458494228360596e+01 4.4336889409650926e+00 
3064 3065 2 1.2467813888044947e+00 -3.3623070856846375e+00 1.0000000000000000e+00 1.6621402262725841e+01 1.5443339026053309e+01 4.6326336340660923e+00 
767 768 2 1.2467813888044947e+00 -4.0438460872591948e+00 1.0000000000000000e+00 5.7713647567962445e+00 1.6030469143395344e+01 5.0688471902103149e+00 
880 881 2 1.2467813888044947e+00 -8.9588046362931006e+00 1.0000000000000000e+00 4.6528918206467500e+00 1.9586700463222844e+01 4.7797142838342648e+00 
2774 2775 2 1.2467813859107493e+00 1.2206887441101504e+00 1.0000000000000000e+00 2.9465507323204786e+01 1.8640979527524653e+01 5.4771995414155548e+00 
2379 2380 2 1.2467813888044947e+00 -4.7216624072122073e+00 1.0000000000000000e+00 7.7747517765441874e+00 1.9188076735432263e-01 6.4567631901988234e+00 
1400 1401 2 1.2467813888044947e+00 1.2613225620079116e+00 1.0000000000000000e+00 2.2376983314790337e+01 1.3596477119544694e+00 6.7797120782895881e+00 
374 375 2 1.2467813888044947e+00 6.0090860365416745e+00 1.0000000000000000e+00 2.7138252879623348e+01 1.6827769815293898e-02 6.6122959739915386e+00 
3233 3234 2 1.2467813888044947e+00 1.3929113023695239e+00 1.0000000000000000e+00 6.0938530522288863e+00 1.5533633321043774e+00 6.2176266478477995e+00 
754 755 2 1.2467813888044947e+00 -6.3519400893277123e+00 1.0000000000000000e+00 1.0335050827991257e+01 2.2538698556888526e+00 5.9924261849242386e+00 
3158 3159 2 1.2467813888044947e+00 -5.7275584846386494e+00 1.0000000000000000e+00 1.8434066737085423e+01 2.4301099218615256e+00 7.0109827546943908e+00 
1172 1173 2 1.2467813888044947e+00 -2.6849491848379938e+00 1.0000000000000000e+00 1.1377936530916479e+00 3.8528837727051779e+00 6.6484482998563132e+00 
1409 1410 2 1.2467813888044947e+00 3.4140101327111934e+00 1.0000000000000000e+00 5.2199728679958879e+00 4.0603671444507974e+00 5.7724544576992063e+00 
1510 1511 2 1.2467814638162529e+00 -9.0468886821276993e+00 1.0000000000000000e+00 2.4745624175071356e+01 3.2205275073312949e+00 5.9346653859202902e+00 
1831 1832 2 1.2467813888044947e+00 8.7825628572004488e-01 1.0000000000000000e+00 3.1092505759547116e+01 3.2119817968551860e+00 6.3180099799626497e+00 
788 789 2 1.2467813888044947e+00 -4.3935206346746405e+00 1.0000000000000000e+00 1.4704475724647132e+01 5.1704506671986961e+00 6.4547711618772752e+00 
4216 4217 2 1.2467813888044947e+00 4.2154532805531879e+00 1.0000000000000000e+00 1.4114711412975702e+00 7.0967524509387427e+00 6.9476096695593936e+00 
1054 1055 2 1.2467813888044947e+00 -3.7777819173941771e+00 1.0000000000000000e+00 3.4868749363651124e+00 6.6705320932684522e+00 7.1157826004985694e+00 
545 546 2 1.2467813888044947e+00 -1.6072565467507218e+00 1.0000000000000000e+00 2.5110034997498012e+01 5.8818788559501645e+00 6.5146702321351384e+00 
2344 2345 2 1.2467813888044947e+00 -1.0831620063861993e+00 1.0000000000000000e+00 2.1003673150278004e+01 7.4667813002761232e+00 6.2452552170629909e+00 
4390 4391 2 1.2467813888044947e+00 1.2970399366539365e+01 1.0000000000000000e+00 7.9367121195877193e+00 8.6160500398342919e+00 6.6699104480825593e+00 
1264 1265 2 1.2467813888044947e+00 -7.7562503921014105e+00 1.0000000000000000e+00 9.4081908923373749e+00 1.0424534218597319e+01 6.5104969072648728e+00 
1252 1253 2 1.2467813888044947e+00 -5.7557553452687991e+00 1.0000000000000000e+00 1.5351132624403551e+01 1.1001662435949296e+01 6.2381672000142752e+00 
4324 4325 2 1.2467813915038648e+00 1.9471115682108726e+00 1.0000000000000000e+00 1.8261954885028498e+01 1.0118532533382348e+01 6.2158351419171840e+00 
486 487 2 1.2467813888044947e+00 5.3109363208006233e+00 1.0000000000000000e+00 2.2026072589428363e+01 1.0226104917206568e+01 5.8370962432782409e+00 
2830 2831 2 1.2467813888044947e+00 -5.8363183119122493e+00 1.0000000000000000e+00 3.1623202683078429e+01 1.0566499755655816e+01 6.0316934707175687e+00 
3678 3679 2 1.2467813888044947e+00 -4.3886410430148515e-01 1.0000000000000000e+00 3.9462151900381341e+00 1.1603708192504966e+01 6.0845463682392342e+00 
2035 2036 2 1.2467813888044947e+00 -4.2110493110860947e-01 1.0000000000000000e+00 2.9313610276849300e+01 1.4242935937026575e+01 6.1145919097912866e+00 
2865 2866 2 1.2467813888044947e+00 -4.0715815481780595e+00 1.0000000000000000e+00 1.5046929453279756e+01 1.5348315407005003e+01 6.2305842749561311e+00 
4316 4317 2 1.2467813888044947e+00 6.1907160634047722e+00 1.0000000000000000e+00 2.3436316562601245e+01 1.4494312373748885e+01 6.7268804528349317e+00 
2887 2888 2 1.2467813888044947e+00 -5.3035264234910509e+00 1.0000000000000000e+00 1.8799647464510123e+01 1.6633930156106885e+01 5.8354003198728490e+00 
2902 2903 2 1.2467813888044947e+00 -2.5512742559841661e+00 1.0000000000000000e+00 2.6063661559254374e+01 1.7003807162340603e+01 6.0111204445247282e+00 
4147 4148 2 1.2467813888044947e+00 3.5066192260170346e+00 1.0000000000000000e+00 8.1298282615675159e+00 1.7911745461971154e+01 6.4607630973073391e+00 
3790 3791 2 1.2467813888044947e+00 -4.9103466539527734e+00 1.0000000000000000e+00 1.8444309815985552e+01 1.9782807164467517e+01 5.8085917455088349e+00 
2209 2210 2 1.2467813888044947e+00 -7.4875896161087656e+00 1.0000000000000000e+00 2.6413962102735947e+01 1.9446257642279878e+01 6.4190602949792170e+00 
3827 3828 2 1.2467813888044947e+00 -7.5259417700797275e+00 1.0000000000000000e+00 2.0476343444737989e+01 4.3224213646599013e-01 7.5236286437520770e+00 
4014 4015 2 1.2467813888044947e+00 -5.3029614696477996e+00 1.0000000000000000e+00 3.0561705411538398e+01 1.7504022235165170e-01 7.3771274169956422e+00 
4114 4115 2 1.2467813888044947e+00 -2.6057499923437122e-01 1.0000000000000000e+00 3.2789172903979718e+01 7.8509681905748896e-01 8.0670816765533502e+00 
1062 1063 2 1.2467813888044947e+00 -3.0335090390790116e+00 1.0000000000000000e+00 2.9751947755004977e+00 1.8367952494572255e+00 7.2439237907492391e+00 
2682 2683 2 1.2467813888044947e+00 -9.0294109214066864e+00 1.0000000000000000e+00 1.1750837497695640e+01 2.0362325588116321e+00 8.0370661061418183e+00 
304 305 2 1.2467844817801701e+00 1.2305696147800598e+00 1.0000000000000000e+00 2.7605461487177674e+01 2.3658495585174331e+00 7.4663220961108161e+00 
3000 3001 2 1.2467813888044947e+00 2.9062419688762375e+00 1.0000000000000000e+00 3.3428356589539816e+00 4.0480047599559592e+00 8.0525250751678659e+00 
1800 1801 2 1.2467813888044947e+00 -1.0266581687688557e+01 1.0000000000000000e+00 9.9294148351566136e+00 3.2046590903687520e+00 8.1170609966797063e+00 
2238 2239 2 1.2467813888044947e+00 -6.0625446803319463e+00 1.0000000000000000e+00 2.0525495090111814e+01 3.0657636407724498e+00 7.1862349585323297e+00 
3216 3217 2 1.2467814638162529e+00 3.0812305404037827e+00 1.0000000000000000e+00 2.4343304896390649e+01 4.0610632874364327e+00 7.8000427465237738e+00 
1655 1656 2 1.2467844817801701e+00 6.1075503372755302e-01 1.0000000000000000e+00 2.8922201532954077e+01 3.9007781958654406e+00 7.8485792444332656e+00 
871 872 2 1.2467813888044947e+00 -5.3773773643077725e+00 1.0000000000000000e+00 3.0421111612755855e+01 5.7066319914978481e+00 7.5455825267201169e+00 
864 865 2 1.2467813888044947e+00 -4.3211006148168547e+00 1.0000000000000000e+00 1.9452986642795778e+01 6.9557882846063421e+00 8.0265387461827338e+00 
1257 1258 2 1.2467813888044947e+00 -6.2963552064943364e+00 1.0000000000000000e+00 7.8877922290812030e+00 7.3136307839197228e+00 8.3613858512648989e+00 
326 327 2 1.2467813888044947e+00 8.3671066434384955e-01 1.0000000000000000e+00 1.5330718901556875e+01 7.6060428971692602e+00 7.1623656365090591e+00 
369 370 2 1.2467813888044947e+00 -3.2386805902589916e-01 1.0000000000000000e+00 1.3522480029319613e+01 8.6090820891269288e+00 8.2799240432146366e+00 
1357 1358 2 1.2467813915038648e+00 -7.5560637899726590e-01 1.0000000000000000e+00 1.9357719117350637e+01 1.1030288135333798e+01 7.7490468347939325e+00 
3712 3713 2 1.2467813888044947e+00 1.7672165181259314e+00 1.0000000000000000e+00 2.7092516837897048e+01 1.0695124269517727e+01 7.3076522199682845e+00 
3218 3219 2 1.2467813888044947e+00 -2.0969734067343759e-01 1.0000000000000000e+00 6.7332759866216723e+00 1.1764155507342338e+01 7.8220002301621774e+00 
1991 1992 2 1.2467813888044947e+00 -4.5448006326965666e+00 1.0000000000000000e+00 9.1295114656673917e+00 1.2573649188758022e+01 8.2857775436375825e+00 
1532 1533 2 1.2467813888044947e+00 -9.9112268534240080e+00 1.0000000000000000e+00 1.5055420477221386e+01 1.2709584793280836e+01 8.1264972090348646e+00 
3977 3978 2 1.2467813888044947e+00 -6.2350597723532850e+00 1.0000000000000000e+00 2.1666610584212190e+01 1.2794185246711036e+01 7.3991591193110784e+00 
2421 2422 2 1.2467813888044947e+00 -6.4126192390597279e+00 1.0000000000000000e+00 1.9939110678239476e+00 1.4890676695411560e+01 8.0678124763685517e+00 
1347 1348 2 1.2467813888044947e+00 3.5744533138168377e-01 1.0000000000000000e+00 2.6393141030326039e+01 1.4707846626910252e+01 7.7980952693728129e+00 
1992 1993 2 1.2467813888044947e+00 -4.4928140504942133e+00 1.0000000000000000e+00 2.8754705207496396e+01 1.6583579974555633e+01 7.9031959614370564e+00 
2671 2672 2 1.2467813888044947e+00 -1.7328686048108750e+00 1.0000000000000000e+00 1.7269423480335226e+00 1.8114106576782532e+01 7.2337516453165751e+00 
1033 1034 2 1.2467813888044947e+00 -4.7049846600793277e+00 1.0000000000000000e+00 5.7602511327034378e+00 1.7745199567014733e+01 7.2760871193018248e+00 
560 561 2 1.2467813888044947e+00 -4.3695483996205589e+00 1.0000000000000000e+00 1.4976382312469859e+01 1.7821638213537785e+01 7.9085653785765304e+00 
2661 2662 2 1.2467813888044947e+00 -5.1918233022647131e+00 1.0000000000000000e+00 1.7503300897431597e+01 1.8048058407853286e+01 7.2647064808548318e+00 
293 294 2 1.2467813888044947e+00 3.2898894554283982e+00 1.0000000000000000e+00 1.9433057971356266e+01 1.8569998779089833e+01 8.4454869378891342e+00 
2110 2111 2 1.2467813888045323e+00 -3.2784942582514183e+00 1.0000000000000000e+00 9.7116760385990215e+00 1.9357426312369601e+01 7.1974451430101229e+00 
828 829 2 1.2467813888044947e+00 -4.3206088334323915e+00 1.0000000000000000e+00 2.2484650518112314e+01 1.9920933067518622e+01 7.4290799416130744e+00 
2264 2265 2 1.2467813888044947e+00 -4.6529445040732407e+00 1.0000000000000000e+00 1.0805904285595542e+01 2.3396725678348215e-01 8.5983305100396841e+00 
2151 2152 2 1.2467813888044947e+00 -3.4440806478044568e+00 1.0000000000000000e+00 1.3238743819569462e+01 6.8653184509357568e-01 9.7559760839072602e+00 
168 169 2 1.2467813892092512e+00 8.7014626650023175e+00 1.0000000000000000e+00 2.6389403271559296e+01 1.1224371676849250e+00 9.5876009243589344e+00 
819 820 2 1.2467813888044947e+00 -4.7793807637902246e+00 1.0000000000000000e+00 2.6270742263426769e+01 3.8386396763275963e+00 9.9762192945475974e+00 
2652 2653 2 1.2467813888044947e+00 -8.3205577277909395e+00 1.0000000000000000e+00 9.1413838484512553e+00 5.1737799492540733e+00 9.6264092943161756e+00 
3719 3720 2 1.2467813888044947e+00 1.7994310780429417e+00 1.0000000000000000e+00 3.3027921350375379e+01 4.4945834813960044e+00 9.0146296529245955e+00 
4399 4400 2 1.2467813888044947e+00 -1.7456201740537795e-02 1.0000000000000000e+00 1.9324900506695624e+00 6.0867403705450283e+00 9.4616795437291206e+00 
1072 1073 2 1.2467813888044947e+00 -6.2565371675039909e+00 1.0000000000000000e+00 1.8156837307722089e+01 6.0455869889908307e+00 9.8157668808955219e+00 
2878 2879 2 1.2467813888044947e+00 -6.1781168430371824e+00 1.0000000000000000e+00 1.2217544461362694e+01 7.1642791251324009e+00 9.2248012829697537e+00 
934 935 2 1.2467813888044947e+00 2.8417606633737948e+00 1.0000000000000000e+00 2.8214528854794840e-01 9.0324585363160583e+00 8.7430226637172925e+00 
3266 3267 2 1.2467813888044947e+00 1.0990378961264726e+00 1.0000000000000000e+00 2.2841235531753550e+00 9.3627196261703514e+00 9.6003814450514451e+00 
669 670 2 1.2467813888044947e+00 -6.2508957037549848e+00 1.0000000000000000e+00 2.3529012254305712e+01 9.2719237465427806e+00 8.9443795908894135e+00 
2185 2186 2 1.2467813888044947e+00 -1.2001509695143839e-01 1.0000000000000000e+00 7.5533603909456231e+00 1.0954405290570291e+01 9.6571923351392090e+00 
2607 2608 2 1.2467813888044947e+00 -3.8149569553895573e+00 1.0000000000000000e+00 3.2154699136752377e+01 1.1342832644029953e+01 9.5758376724909020e+00 
3910 3911 2 1.2467813888044947e+00 -6.0291026956629334e+00 1.0000000000000000e+00 1.3899816406274199e+00 1.2472631908052529e+01 8.7994074713722679e+00 
4467 4468 2 1.2467813888044947e+00 -1.7823882054906774e+00 1.0000000000000000e+00 1.9327663664774079e+01 1.2741041240558417e+01 9.8446085965125825e+00 
2953 2954 2 1.2467813888044947e+00 -8.7522651295730611e+00 1.0000000000000000e+00 3.9596168318633262e+00 1.3472652082060943e+01 8.5834352003555097e+00 
247 248 2 1.2467813888044947e+00 6.8940424710743753e-01 1.0000000000000000e+00 2.1268654458624344e+01 1.4057612445110211e+01 9.7603257807785297e+00 
359 360 2 1.2467813888044947e+00 4.7162343254497401e+00 1.0000000000000000e+00 3.1250555651408561e+01 1.3040680484609718e+01 8.7328841270338451e+00 
3193 3194 2 1.2467813888044947e+00 1.0888039077648198e+01 1.0000000000000000e+00 2.9613448774850248e+01 1.4994861050901068e+01 8.9823433365077996e+00 
2071 2072 2 1.2467813888044947e+00 -5.6453337044167888e+00 1.0000000000000000e+00 1.5311554646979912e+01 1.5827893253574326e+01 9.7412248857501371e+00 
346 347 2 1.2467813888044947e+00 -1.1515737327728774e-01 1.0000000000000000e+00 2.2259559363391691e+01 1.6917486515440284e+01 9.4141573724566996e+00 
2885 2886 2 1.2467813888044947e+00 -4.7633565119761316e+00 1.0000000000000000e+00 8.0017258876991768e+00 1.7626764984144664e+01 9.7480440853020731e+00 
438 439 2 1.2467813888044947e+00 1.0684382185584635e+01 1.0000000000000000e+00 3.0930874304737792e+01 1.8388767721143900e+01 9.4060790547265878e+00 
3303 3304 2 1.2467813888044947e+00 -6.8078580656822183e+00 1.0000000000000000e+00 1.1310374367305092e+01 1.9151825583935040e+01 8.6701846116184491e+00 
2610 2611 2 1.2467813888044947e+00 -5.4895676051290394e+00 1.0000000000000000e+00 2.4386426869516438e+01 1.9765363217556313e+01 8.8717130424601418e+00 
2129 2130 2 1.2467813888044947e+00 -6.4961353291458019e+00 1.0000000000000000e+00 1.5612388202456016e+01 1.6766885750902989e+00 1.0146164759810995e+01 
4096 4097 2 1.2467813888044947e+00 -6.4763035964543274e+00 1.0000000000000000e+00 2.1172477731156565e+01 1.5267770675437276e+00 1.1010419137121341e+01 
3003 3004 2 1.2467813888044947e+00 -7.3709148409978269e+00 1.0000000000000000e+00 2.8869311223727799e+01 1.4438124010690083e+00 1.0543365212734434e+01 
1525 1526 2 1.2467813888044947e+00 -2.1849504628065968e+00 1.0000000000000000e+00 1.2764877072606209e+01 3.5279665479352524e+00 1.1054890646991890e+01 
976 977 2 1.2467814162952107e+00 -7.8099686270451576e+00 1.0000000000000000e+00 2.1753749937022480e+01 3.9150721022903472e+00 1.1128374711541934e+01 
4255 4256 2 1.2467813888044947e+00 2.3390875883908402e+00 1.0000000000000000e+00 6.9362370461681637e+00 5.4782809756054860e+00 1.0737790797248852e+01 
1604 1605 2 1.2467813888044947e+00 -5.9105893478048683e+00 1.0000000000000000e+00 1.1436064092972480e+01 5.3981055983204991e+00 1.1235753215030920e+01 
536 537 2 1.2467813888044947e+00 -6.4298918785649715e+00 1.0000000000000000e+00 2.5917255676952450e+01 6.3904249816877030e+00 1.1091515244426592e+01 
2252 2253 2 1.2467813888044947e+00 -7.8977631083841455e+00 1.0000000000000000e+00 2.9974684178123656e+01 6.5943185455705695e+00 1.0233050215030325e+01 
2740 2741 2 1.2467813888044947e+00 2.0488258427852832e+00 1.0000000000000000e+00 1.6659184673212472e+01 7.4983652285381250e+00 1.0327077813166539e+01 
3178 3179 2 1.2467813888044947e+00 -7.2366320700318845e+00 1.0000000000000000e+00 2.3876709030379221e+01 7.8110872808249292e+00 1.0654863627007130e+01 
852 853 2 1.2467813888044947e+00 -5.7724715102833901e+00 1.0000000000000000e+00 1.0342200298999371e+01 8.6979360943071473e+00 1.0896445498228321e+01 
3211 3212 2 1.2467813888044947e+00 1.1960698211923166e+00 1.0000000000000000e+00 1.6113799731738879e+01 1.0408803947086190e+01 1.0047611101724423e+01 
2786 2787 2 1.2467813888044947e+00 5.8266904264483950e-02 1.0000000000000000e+00 3.2763137036367119e+01 1.0249118687812787e+01 1.1298199719067338e+01 
1151 1152 2 1.2467816543466870e+00 1.2081703187821002e+00 1.0000000000000000e+00 1.7426045949986335e+01 1.1784628288440800e+01 1.1285894388572931e+01 