LAMMPS data file via write_data, version 30 Jul 2016, timestep = 50000000

2700 atoms
2 atom types

0.0000000000000000e+00 2.0000000000000000e+01 xlo xhi
0.0000000000000000e+00 2.0000000000000000e+01 ylo yhi
0.0000000000000000e+00 2.0000000000000000e+01 zlo zhi

Masses

1 3.896
2 5

Atoms # meso-molecular

1250 1 1 1.4372162602941114e+00 4.6653830197404888e+04 1.0000000000000000e+00 1.7883622440189413e+00 8.7490591704479026e-01 2.7538688414800350e-01 
2591 1 1 1.9190060840800536e+00 9.0226936875752563e+03 1.0000000000000000e+00 1.6360466721019271e+00 9.8967949252732712e-01 1.4637237234123970e+00 
1562 1 1 1.3214026236792220e+00 -7.3347256900936218e+03 1.0000000000000000e+00 6.2085922642460056e-01 2.6468761459513979e-01 1.2022676447888254e+00 
907 1 1 1.8507473888032262e+00 3.3969768441579967e+04 1.0000000000000000e+00 2.1240017425755835e+00 1.1272435219303953e+00 9.8428009087040080e-01 
1187 1 1 1.7845186098673977e+00 2.5104217956600962e+04 1.0000000000000000e+00 2.4509905614558569e+00 8.5804924628507473e-01 9.0366648565058882e-01 
915 1 1 1.2086673803203829e+00 -1.4509983298087835e+04 1.0000000000000000e+00 4.0694616406153052e+00 9.7366600133306525e-01 1.0485657360769627e+00 
339 1 1 1.8169651802965818e+00 -3.7454738471973236e+04 1.0000000000000000e+00 2.3220992492459147e+00 1.9904341758871498e+00 1.6682889666056009e+00 
1437 1 1 1.3157069739802363e+00 2.0719141860935742e+04 1.0000000000000000e+00 5.1720454998111105e+00 1.1368340498173404e+00 1.5829487680593868e+00 
2633 1 1 1.3927326237755078e+00 -9.0087264627605531e+04 1.0000000000000000e+00 5.1930730974878490e+00 3.0818338978157872e-01 6.8232049090478997e-01 
2493 1 1 1.8362967314106402e+00 -5.4828505483412133e+04 1.0000000000000000e+00 5.7701715442934773e+00 2.6119264741300474e-01 1.5311612904454690e+00 
1324 1 1 1.3075678888289624e+00 7.9676807305244394e+04 1.0000000000000000e+00 1.7522047305370354e+00 3.5489159968759179e+00 9.5783906500874327e-01 
438 1 1 1.2191248627797930e+00 -8.1544454034328664e+04 1.0000000000000000e+00 2.1603845560705590e+00 3.9931487735620439e+00 9.3184411747715845e-01 
82 1 1 6.4156277361150693e-01 -4.2980863388955251e+04 1.0000000000000000e+00 5.8034100233005467e-02 2.2859428867832574e+00 1.6063446632175420e+00 
654 1 1 1.4374352417112326e+00 -6.6940621744873555e+04 1.0000000000000000e+00 1.1080810092967774e+00 2.3489209434276912e+00 5.7446847422581726e-01 
2569 1 1 1.4058632340779502e+00 -3.8847792390188231e+04 1.0000000000000000e+00 9.5475608940380419e-01 2.8956874574953431e+00 1.8856594515796132e-02 
2566 1 1 1.1050177037303115e+00 1.4000656391974158e+04 1.0000000000000000e+00 4.1060466131432971e+00 2.0355664610205437e+00 9.2520925619434757e-01 
1712 1 1 1.5685318602099623e+00 -9.8883300080248984e+04 1.0000000000000000e+00 2.7829985934919117e+00 2.4284741184726641e+00 1.8021244722706395e+00 
2080 1 1 1.6305711213180361e+00 2.8349480482968207e+04 1.0000000000000000e+00 5.8599221614573862e+00 3.8911476565930592e+00 9.4920316939124605e-01 
247 1 1 1.0826518282621234e+00 -3.1518466467390499e+04 1.0000000000000000e+00 4.7640215863847892e+00 3.4617252778144150e+00 9.9460159682202642e-01 
511 1 1 1.4032077461267864e+00 5.9264768179710583e+04 1.0000000000000000e+00 5.5035208498262218e+00 3.4850687045024773e+00 1.1721813397948011e+00 
1748 1 1 1.4701478096281515e+00 1.5445290580835268e+04 1.0000000000000000e+00 2.1720593812587466e-01 5.5257384741585049e+00 1.4140980999344972e+00 
1651 1 1 1.2543400631790094e+00 3.3477475442851413e+04 1.0000000000000000e+00 2.8620311794787376e+00 4.9773303128628985e+00 1.2207079257866547e+00 
1467 1 1 7.7638344155944572e-01 -5.7983595787789018e+04 1.0000000000000000e+00 3.2416384047500642e+00 4.7200367705121051e+00 6.8263327065597679e-02 
1179 1 1 1.6950042020594369e+00 -4.6860959233730726e+04 1.0000000000000000e+00 6.5017301181442058e+00 5.1013017121383930e+00 9.1367052294781925e-01 
953 1 1 1.3274830361652723e+00 -5.3574660153981013e+03 1.0000000000000000e+00 4.8928279856955834e+00 5.4337598350848024e+00 1.0719947498336440e+00 
1136 1 1 1.2786722805286133e+00 -3.9074420787994841e+03 1.0000000000000000e+00 4.5939368767150786e+00 5.4564561194733052e+00 1.6568922679091209e+00 
2369 1 1 1.8055201580706044e+00 1.7040904440784521e+04 1.0000000000000000e+00 6.5810958998563311e+00 4.9182999228923840e+00 1.3095499542782780e+00 
138 1 1 6.3460932932080560e-01 -1.8761108698443238e+03 1.0000000000000000e+00 4.2188107036572422e+00 7.6846844640870104e+00 2.4986389008861395e-01 
1052 1 1 9.2098615781665338e-01 2.7161633702275951e+04 1.0000000000000000e+00 3.1023087256537840e+00 6.3186575774471017e+00 1.3455195838435876e+00 
2446 1 1 9.2517970499247548e-01 7.0650233017463033e+04 1.0000000000000000e+00 2.3401002280440508e+00 6.0211290505977697e+00 1.3878863504041838e+00 
2022 1 1 1.0859287455254434e+00 2.4757526739996345e+04 1.0000000000000000e+00 5.9956164534949163e+00 7.6108164979944259e+00 1.5298754223501194e+00 
2069 1 1 1.2860430794486362e+00 -1.5920895024610414e+04 1.0000000000000000e+00 6.5345342876714110e+00 6.5129459931085520e+00 8.3926247568589374e-01 
1676 1 1 1.8224132371121391e+00 -3.9071476425232147e+04 1.0000000000000000e+00 1.9888948257209389e+00 9.3766376035839745e+00 3.4476806370057944e-01 
761 1 1 1.0192610881110316e+00 2.0974343232832412e+04 1.0000000000000000e+00 1.1612375659618586e+00 8.7308210766328109e+00 7.1052388968740651e-02 
2592 1 1 1.4382576751224503e+00 6.7332960862845735e+04 1.0000000000000000e+00 1.3205008981398014e+00 9.9082546348891345e+00 1.2999548990984138e+00 
2155 1 1 1.8413230181566795e+00 -2.1634187746670359e+04 1.0000000000000000e+00 2.2537450504159842e+00 8.8359162925953534e+00 1.5311442804208757e+00 
2343 1 1 1.4387914108033084e+00 5.0253018670770398e+04 1.0000000000000000e+00 3.1244859020577320e+00 8.2614077419171412e+00 1.9430621756481457e+00 
266 1 1 1.6998323740012695e+00 5.9307134992187879e+04 1.0000000000000000e+00 3.0208455348187124e+00 8.6724807332056297e+00 1.8114337881323639e+00 
278 1 1 2.1187100214668315e+00 5.4677181428301104e+04 1.0000000000000000e+00 3.1925422279653182e+00 9.9935939639095039e+00 1.0825655210784542e+00 
1546 1 1 1.2244934678387096e+00 2.0695575007587460e+04 1.0000000000000000e+00 4.2093310594655513e+00 8.6910256078578012e+00 1.5901817566666268e+00 
2538 1 1 8.9608596379889249e-01 -8.0818659288214825e+04 1.0000000000000000e+00 5.6376607070416069e+00 8.1214661514399449e+00 1.1204178099617677e+00 
2345 1 1 1.8670649855150139e+00 -6.9814018543806902e+04 1.0000000000000000e+00 8.7570603645845102e-01 1.7820896780487534e+00 3.9145083253074606e+00 
1792 1 1 1.8094914771238964e+00 -1.5668917792514474e+04 1.0000000000000000e+00 9.5574973670258812e-01 1.5034470186501654e+00 3.3883783832476961e+00 
2011 1 1 1.9005423369542682e+00 6.9086062508315827e+03 1.0000000000000000e+00 1.1748452199865080e+00 8.6407807006340487e-01 3.5390887250328165e+00 
1597 1 1 1.7874324494130267e+00 1.9852647909036976e+04 1.0000000000000000e+00 1.2848101170376796e+00 8.2706905305587886e-01 2.5726839497432676e+00 
1613 1 1 1.8272227897620150e+00 -7.5593818517787062e+04 1.0000000000000000e+00 2.1259636575881338e+00 7.9485843988745941e-01 3.4471167507182772e+00 
2313 1 1 1.5196663826004746e+00 -1.8931176370869023e+04 1.0000000000000000e+00 2.7027333481786746e+00 2.8261594972078324e-01 3.3818994694312865e+00 
1057 1 1 1.7990661300406530e+00 -3.8679042338066953e+04 1.0000000000000000e+00 2.4399997425721143e+00 4.0795288031548133e-01 2.9045201215835901e+00 
538 1 1 1.5993387856261116e+00 -5.4922346404083386e+04 1.0000000000000000e+00 3.1488030818651644e+00 1.0327465608204540e+00 2.2131962058688486e+00 
1174 1 1 1.3322042265064251e+00 6.0270838552094647e+04 1.0000000000000000e+00 5.4181545370601585e+00 1.3601158905426729e+00 3.7818989334227768e+00 
2642 1 1 1.9090389297732340e+00 -8.5986297652735069e+04 1.0000000000000000e+00 5.6278929626536360e+00 2.8951233846778540e-01 2.8793374757221057e+00 
2152 1 1 1.3716660879680349e+00 4.5524038563989307e+04 1.0000000000000000e+00 1.9822571820019710e+00 3.2789558844079889e+00 2.4367240870442304e+00 
2265 1 1 1.3312489465632769e+00 5.0101608664221349e+04 1.0000000000000000e+00 4.1677432588517247e+00 2.1521745478809247e+00 3.8210615228997207e+00 
391 1 1 1.3375642206375589e+00 1.6855320308411359e+04 1.0000000000000000e+00 3.9851529142903606e+00 2.2037387351410960e+00 3.2780032581238934e+00 
2068 1 1 1.4749593986287239e+00 -1.4876032089749520e+04 1.0000000000000000e+00 2.5318485738166432e+00 2.5660068542567611e+00 2.5304396617284466e+00 
276 1 1 1.1122203018373982e+00 -1.0361329583054840e+04 1.0000000000000000e+00 4.4459104615554148e+00 3.9280930404022167e+00 3.1085168991785244e+00 
1931 1 1 1.4139664638374845e+00 1.0808900142630704e+04 1.0000000000000000e+00 4.9911818482046320e+00 2.4137652313355811e+00 3.1102022618980989e+00 
2565 1 1 1.4619629111243624e+00 2.7140309099944905e+04 1.0000000000000000e+00 6.3645412095649094e+00 3.0178691406397697e+00 2.6201021739450674e+00 
2297 1 1 1.3844276418290091e+00 6.4214066203140050e+04 1.0000000000000000e+00 5.3049122552683734e+00 2.3234583058654001e+00 2.8964501335702315e+00 
1523 1 1 1.8558443232620798e+00 4.6491693279777874e+03 1.0000000000000000e+00 6.4221320851575241e+00 3.7907334929639842e+00 2.1267999751377538e+00 
2009 1 1 1.2533724400522976e+00 5.3526101682560620e+04 1.0000000000000000e+00 2.0030091357068622e+00 4.1897939406173750e+00 2.3274970531486292e+00 
482 1 1 1.3767777757760211e+00 -2.7962812028739776e+04 1.0000000000000000e+00 4.0256544168718227e+00 4.7019157079857523e+00 2.1792139229410421e+00 
1807 1 1 1.2305697450525945e+00 6.2299311651387114e+04 1.0000000000000000e+00 3.9986810332063896e+00 5.1292259866785503e+00 3.0633488608872046e+00 
432 1 1 1.0676883779372794e+00 9.7964303730804259e+03 1.0000000000000000e+00 3.6781804170279218e+00 5.4016580017280997e+00 3.7801065355325090e+00 
2659 1 1 1.1989710834146121e+00 5.3818846120928014e+04 1.0000000000000000e+00 2.5277479577713580e+00 4.3440788279663947e+00 2.9658614976387780e+00 
322 1 1 1.4529310099097810e+00 -6.5699479389023054e+03 1.0000000000000000e+00 5.4493668277052283e+00 4.8339737361738759e+00 2.2024544685874909e+00 
1130 1 1 9.2435400891757380e-01 2.9043965642509775e+04 1.0000000000000000e+00 1.1377549086594578e+00 6.1288771574307077e+00 2.7343874536655028e+00 
13 1 1 1.1187436439003553e+00 -7.3633318041502098e+03 1.0000000000000000e+00 6.0596140618164285e-01 6.2788208211734178e+00 3.8062121551340358e+00 
1853 1 1 9.8257588477210123e-01 -1.1857555011690890e+05 1.0000000000000000e+00 2.3009171021950303e+00 7.0137189238433875e+00 2.8952795136764999e+00 
738 1 1 7.2161697609795294e-01 1.6464072085991147e+03 1.0000000000000000e+00 4.8020419182964007e+00 7.4411857639081855e+00 3.5205646246735349e+00 
2452 1 1 1.3230890256023127e+00 -1.5428713332705078e+04 1.0000000000000000e+00 1.0843414394992501e+00 8.6407865279236304e+00 2.8244553948378721e+00 
1124 1 1 1.7236259748561569e+00 -9.8586166375974193e+04 1.0000000000000000e+00 1.9970333289386908e+00 8.6933213916736918e+00 2.8642011220951100e+00 
1198 1 1 1.3018148827059961e+00 4.9314341559075423e+04 1.0000000000000000e+00 1.8457258757704715e+00 8.2103201730519029e+00 3.3054154508564983e+00 
1698 1 1 1.0436737231339137e+00 -4.3107212534979823e+04 1.0000000000000000e+00 3.7394060908744986e-01 9.6066579543722224e+00 3.7371725815644146e+00 
2608 1 1 1.2940087975922316e+00 -6.8873912574355985e+04 1.0000000000000000e+00 8.0337845036744360e-01 9.3667531045439301e+00 2.3171829019733332e+00 
1440 1 1 1.9704369071012173e+00 -4.6587836937291831e+04 1.0000000000000000e+00 1.8939780817848941e+00 9.9056879841877183e+00 2.0598172023016001e+00 
756 1 1 1.4436046291473372e+00 3.7112851849264996e+04 1.0000000000000000e+00 2.7767522770382427e+00 9.7841013862182269e+00 3.4491379582227588e+00 
57 1 1 1.4261172420739647e+00 2.4240722732678132e+04 1.0000000000000000e+00 3.9030310784772113e+00 9.6141930875659156e+00 3.2910759523379323e+00 
573 1 1 1.2396987636479049e+00 -2.5468400167444513e+04 1.0000000000000000e+00 3.0979624852508603e+00 8.2407759208232676e+00 3.8400333601980083e+00 
602 1 1 1.0483178150483836e+00 -6.6830149500534944e+03 1.0000000000000000e+00 4.7707244279266900e+00 8.5095850550980607e+00 2.7051195940352115e+00 
364 1 1 1.0758408808272684e+00 -4.7025417966880159e+03 1.0000000000000000e+00 6.3148376847797802e+00 8.2781941441943854e+00 3.1667073807366894e+00 
1446 1 1 1.7423332927379647e+00 -9.6169242486979911e+03 1.0000000000000000e+00 1.2164653955832065e+00 1.4507496292683006e+00 5.9094833078325690e+00 
2482 1 1 1.9559289525054722e+00 3.3171476294073895e+04 1.0000000000000000e+00 1.0284932078737334e+00 1.6859596354797022e+00 4.2936221509604504e+00 
2535 1 1 1.6991227476484558e+00 2.2848452178570973e+04 1.0000000000000000e+00 1.1423660360840351e+00 5.0111581670906180e-01 5.6561057257694225e+00 
2325 1 1 1.3451335328116489e+00 4.1924412760670406e+04 1.0000000000000000e+00 4.4346759783887686e+00 1.8662103034532100e+00 4.7964340515144812e+00 
2586 1 1 1.5510764601432525e+00 7.6743635605110860e+04 1.0000000000000000e+00 3.3024568297396830e+00 1.2986665771522203e+00 5.0738265910378608e+00 
1368 1 1 1.7945530541780688e+00 -9.1295995724842534e+04 1.0000000000000000e+00 2.2994263598178746e+00 1.1467179214611400e-01 5.4200285842420817e+00 
1053 1 1 1.8222077483629033e+00 -1.8561601985691381e+04 1.0000000000000000e+00 4.2079716962458269e+00 7.1371967496743161e-01 5.8092427278472201e+00 
2655 1 1 1.9032025967103696e+00 -4.8792345800556490e+04 1.0000000000000000e+00 3.6093445948370788e+00 1.1194437882023325e+00 5.9744614617644869e+00 
2318 1 1 1.5877461800134240e+00 1.2956684012280837e+05 1.0000000000000000e+00 2.8526905232286346e+00 1.1227764489767367e-02 4.8016912746737965e+00 
2682 1 1 1.7151268763293976e+00 2.2142657412339799e+04 1.0000000000000000e+00 4.5399501553527202e+00 4.8935014322115339e-01 5.6495639916737863e+00 
397 1 1 1.7347055270334917e+00 -8.4254386155913744e+04 1.0000000000000000e+00 6.4295607955337912e+00 2.5483552027103268e-01 5.3232835753777366e+00 
2522 1 1 1.5691370413163825e+00 -9.0731959190679656e+04 1.0000000000000000e+00 5.6293204953422569e+00 2.4689328369454233e-01 5.7244823051981246e+00 
1339 1 1 1.3751387639406758e+00 1.8366985273964932e+04 1.0000000000000000e+00 5.9569373590771875e+00 1.7999326368802104e+00 5.9203355317832687e+00 
718 1 1 8.4424787158290038e-01 -2.0334121863401193e+04 1.0000000000000000e+00 2.1505332320571733e+00 3.7750882126054992e+00 4.7282725100497309e+00 
802 1 1 1.3990907260629872e+00 -4.3266036361217550e+04 1.0000000000000000e+00 1.1595356629497839e+00 2.5808488425304899e+00 4.9852904652051073e+00 
2640 1 1 1.4573424360331477e+00 1.7147729810797613e+04 1.0000000000000000e+00 4.6965581783741667e-01 2.4254577693349058e+00 4.3770334942594369e+00 
2495 1 1 9.3892074947610804e-01 3.1498549531411532e+04 1.0000000000000000e+00 2.6492986198485307e+00 3.2915752595177836e+00 4.2171769399587919e+00 
468 1 1 1.1108847959227619e+00 -1.1900319106201969e+04 1.0000000000000000e+00 6.5690770427825536e+00 2.2205934285672928e+00 4.6311076485725540e+00 
1038 1 1 9.7657984937987874e-01 -5.8434578565306925e+04 1.0000000000000000e+00 1.9020787263807788e+00 5.3649210231934514e+00 5.6371050107821867e+00 
884 1 1 1.1637665365726768e+00 -2.4840386560836672e+04 1.0000000000000000e+00 4.2243772178931307e+00 4.2962150750397479e+00 5.1522242836291818e+00 
2134 1 1 1.0042246923999236e+00 -3.2924923768466186e+04 1.0000000000000000e+00 2.3597222898719683e+00 5.8595612842344620e+00 4.1467599475523151e+00 
1559 1 1 1.3434338123756115e+00 1.1217818235388421e+05 1.0000000000000000e+00 4.3149298461982246e+00 5.1918691365959013e+00 5.0030031732782811e+00 
2280 1 1 1.8562596289596529e+00 -5.1835574183744262e+04 1.0000000000000000e+00 5.2443598119610382e+00 5.5196958416388444e+00 5.7617691825487203e+00 
1847 1 1 2.0714904709566069e+00 -4.7025058758537933e+04 1.0000000000000000e+00 6.0348340479268163e+00 4.6331067590909853e+00 5.7775362334111895e+00 
838 1 1 1.5963502820832245e+00 -2.3187275736045576e+04 1.0000000000000000e+00 6.1574766254760274e+00 4.9756593642259181e+00 4.8144458739858953e+00 
553 1 1 1.6703020740340699e+00 1.2485586917493129e+03 1.0000000000000000e+00 5.0774598936965942e+00 5.8197533249724511e+00 5.5671116129976186e+00 
667 1 1 1.4271073919118242e+00 -2.3397575236503129e+04 1.0000000000000000e+00 5.9972371705423999e+00 5.4830263051821362e+00 4.5066053591585611e+00 
2681 1 1 1.0683314228773151e+00 1.5251143948623404e+05 1.0000000000000000e+00 1.9691646216026302e+00 6.0251610408690164e+00 4.9047694451860586e+00 
2330 1 1 9.8922088142375553e-01 -8.2099306035808157e+04 1.0000000000000000e+00 8.6110481898642538e-02 6.9381848577442486e+00 4.5445634670843935e+00 
665 1 1 1.4373054584135099e+00 2.5994428663664921e+03 1.0000000000000000e+00 6.2349889078987681e+00 7.4355854110123785e+00 5.7290412407628271e+00 
1416 1 1 1.2312627122702826e+00 -7.0634804852008938e+02 1.0000000000000000e+00 5.8350092706983752e+00 6.1146101329435831e+00 4.3327502191794585e+00 
2015 1 1 1.4696208677994886e+00 1.7675753035023132e+04 1.0000000000000000e+00 5.7865811519659145e+00 7.7858067278815950e+00 5.6233892746788712e+00 
2093 1 1 9.3922746602063989e-01 -1.5520264498047280e+05 1.0000000000000000e+00 9.4423894894481597e-01 8.3703299759401126e+00 5.5289665172068299e+00 
1096 1 1 1.5425215284097642e+00 1.7662367601529902e+04 1.0000000000000000e+00 3.3865835023206081e+00 9.0307125516052498e+00 4.4333105497132097e+00 
779 1 1 1.6188345964048729e+00 -9.9670227955062910e+03 1.0000000000000000e+00 4.1040047476603174e+00 9.3038770144430014e+00 4.6891233512897479e+00 
1858 1 1 1.3668846049133971e+00 -2.5051846662574742e+04 1.0000000000000000e+00 3.1809519873684731e+00 9.3472028786263301e+00 5.3916635396224475e+00 
866 1 1 1.7772658152389873e+00 5.0181099631643228e+04 1.0000000000000000e+00 3.8836042122997552e+00 9.1850690865716231e+00 5.3086573850897505e+00 
954 1 1 1.4330988318238955e+00 -4.8998337139344818e+04 1.0000000000000000e+00 4.5683369281686499e+00 8.1996834240771008e+00 5.0919381415579821e+00 
1434 1 1 1.7130930296540834e+00 7.1312836043175426e+04 1.0000000000000000e+00 5.1670343176253244e+00 8.8780359752006017e+00 5.3981578782507471e+00 
2117 1 1 1.7722456392568988e+00 2.8818791733611778e+02 1.0000000000000000e+00 9.7879146092077829e-01 1.3939962710343907e+00 6.0188893981277669e+00 
2189 1 1 1.7769200435316788e+00 1.4338689228792988e+04 1.0000000000000000e+00 1.0010045849525968e+00 1.1197483626477001e+00 6.6241406636418043e+00 
1083 1 1 1.5832648024036085e+00 -1.9746932011814824e+04 1.0000000000000000e+00 4.9850664520217591e-01 1.0388860031640681e+00 7.7191411838448589e+00 
2377 1 1 1.8008549510211296e+00 5.9163608878108600e+04 1.0000000000000000e+00 3.5374262638402443e+00 1.5466131392597007e+00 6.3667008275154515e+00 
1843 1 1 1.3832346130454156e+00 7.0758513795225212e+04 1.0000000000000000e+00 2.5769237053607612e+00 1.2612526943556732e+00 7.2648589522885336e+00 
286 1 1 1.7770104769018076e+00 5.7389927920328948e+04 1.0000000000000000e+00 3.6875451100729628e+00 1.7152733688108521e+00 6.3371400337196615e+00 
65 1 1 1.2796908657929178e+00 2.8495426198866553e+03 1.0000000000000000e+00 2.7703262281507293e+00 3.2073689713320119e-01 7.5742364960781341e+00 
894 1 1 1.3535980372506620e+00 2.0439266067962173e+04 1.0000000000000000e+00 2.0838522915940686e-02 3.4830668094149724e+00 7.9712990009622366e+00 
736 1 1 1.5407206151079187e+00 -2.8706387917909644e+04 1.0000000000000000e+00 1.0002197697070316e+00 2.3886328282072116e+00 7.1243386106421154e+00 
1738 1 1 1.6568182886549319e+00 -5.8026158448823611e+04 1.0000000000000000e+00 7.3372661973337017e-01 2.4984691519977478e+00 6.7652024953717476e+00 
1770 1 1 1.3082135447638585e+00 3.7283265856753678e+04 1.0000000000000000e+00 4.0531880522270542e+00 2.0081569135407840e+00 7.7966702363071096e+00 
2229 1 1 1.0721918716866496e+00 -1.9967062673816356e+04 1.0000000000000000e+00 3.2954459910911162e+00 3.3454782063492212e+00 6.3791609171105437e+00 
492 1 1 1.1728785849399213e+00 -1.2062671106787067e+05 1.0000000000000000e+00 3.2972275328939493e+00 3.0572323479126009e+00 6.3032444711398119e+00 
2247 1 1 1.7303666712878527e+00 -4.8320645838171295e+04 1.0000000000000000e+00 5.5282876592772237e+00 3.3742670328548208e+00 6.2171525832716741e+00 
53 1 1 2.1743262308595876e+00 4.0925218654920213e+03 1.0000000000000000e+00 6.2087273561689589e+00 3.1143511240827628e+00 6.6842440576663575e+00 
128 1 1 1.3905478525224966e+00 -1.2467247271392536e+04 1.0000000000000000e+00 4.5368785233372124e+00 3.5446758771356781e+00 6.2723974732224468e+00 
1811 1 1 1.1928918941408571e+00 1.0231507168343925e+05 1.0000000000000000e+00 1.3656472622190683e+00 4.3330278619992209e+00 7.6200575384178117e+00 
2486 1 1 1.9228129369718268e+00 -1.1820009922335568e+05 1.0000000000000000e+00 1.1949170385177963e+00 5.4532899411693112e+00 7.7546680718265737e+00 
2461 1 1 1.5541169093358442e+00 1.2248633502610764e+03 1.0000000000000000e+00 3.8688501337414460e-01 4.5434583867887426e+00 6.4960475195528495e+00 
839 1 1 1.0694171606618128e+00 -5.1514460904019434e+04 1.0000000000000000e+00 3.2389064248119750e+00 5.9204621832599660e+00 6.0784388723498886e+00 
2066 1 1 1.0247680917803321e+00 2.4752154321180667e+04 1.0000000000000000e+00 3.6010603915687276e+00 5.1155674298304028e+00 7.2680229280109589e+00 
2135 1 1 2.1785400368084726e+00 1.8024708572321499e+04 1.0000000000000000e+00 6.1664158844507471e+00 4.2113984344174948e+00 6.1662382805763096e+00 
567 1 1 1.8383158201551764e+00 -4.8343927569791289e+04 1.0000000000000000e+00 5.3802272031408407e+00 4.7400112051602585e+00 6.7597917996371191e+00 
2214 1 1 1.5541421710559262e+00 -3.4918967298793061e+04 1.0000000000000000e+00 5.1018881113019399e+00 4.5415774710870327e+00 7.2466012480799629e+00 
94 1 1 2.4218636877445801e+00 4.2565889728304544e+04 1.0000000000000000e+00 3.5076630901209299e-01 6.9516103996464214e+00 7.0634749527336282e+00 
1841 1 1 2.2066872636361885e+00 -4.9083252932454689e+03 1.0000000000000000e+00 1.2708402523656779e+00 6.9148043310561222e+00 7.1352715469587835e+00 
217 1 1 2.2553599414807990e+00 -4.6892405071455556e+04 1.0000000000000000e+00 3.3937627352119820e-01 7.1117528265571730e+00 6.3679129387914868e+00 
652 1 1 2.3672487750159772e+00 -1.3871613453412019e+04 1.0000000000000000e+00 8.8197310485235769e-01 6.9881033105475838e+00 6.7805082517889961e+00 
1564 1 1 1.7327706080765919e+00 -6.5486858420911540e+03 1.0000000000000000e+00 1.5808965719943999e+00 7.6007231393388457e+00 6.5634093471593333e+00 
2582 1 1 2.1718651782720300e+00 5.2353921449354912e+03 1.0000000000000000e+00 1.0367542828675599e-01 6.7052517147898572e+00 6.3092058214469073e+00 
909 1 1 1.9274663765524773e+00 5.0674590530247340e+04 1.0000000000000000e+00 1.2144881792223277e+00 7.3104731127776628e+00 7.7291711499075184e+00 
131 1 1 1.8847012144451203e+00 -6.5313320965781466e+04 1.0000000000000000e+00 1.1770438485114996e+00 6.6427023551468452e+00 6.0260664731533833e+00 
870 1 1 1.5206101598068780e+00 -4.2470329840868755e+04 1.0000000000000000e+00 4.3983640964686579e+00 6.1158526665282702e+00 6.9418158902606768e+00 
479 1 1 1.2949668674280237e+00 -5.1294714946676550e+03 1.0000000000000000e+00 3.7887978471584294e+00 6.9419901199868859e+00 7.1839762255747059e+00 
727 1 1 1.2999417927987076e+00 -2.1891702618201243e+03 1.0000000000000000e+00 2.5507676823920145e+00 7.5065393403360021e+00 7.0995702989867278e+00 
1829 1 1 1.0928319878594235e+00 1.0155060462360219e+04 1.0000000000000000e+00 3.2317837789802475e+00 7.9006421373534170e+00 6.3440593880643403e+00 
2150 1 1 1.5481116560348676e+00 3.9426423843284379e+03 1.0000000000000000e+00 5.8973016817323360e+00 7.9944285619738524e+00 7.7253687822541348e+00 
160 1 1 1.4103696977472531e+00 8.1224973667908052e+04 1.0000000000000000e+00 4.6196251421107686e+00 6.4955840159864273e+00 7.1347380571098853e+00 
83 1 1 1.3424224148375414e+00 -7.1010856163264601e+04 1.0000000000000000e+00 4.9513414682744701e+00 7.7647617102261863e+00 7.3020180995463111e+00 
1573 1 1 1.2861721996201447e+00 3.8421331320742262e+04 1.0000000000000000e+00 1.5856027374785902e+00 9.5658980205513018e+00 6.7684682305800239e+00 
197 1 1 1.4966874334597247e+00 2.2845801949065317e+04 1.0000000000000000e+00 3.4911231960297835e+00 9.7841597358740788e+00 7.3330134274124337e+00 
968 1 1 1.5945596739754462e+00 3.7453700787228670e+04 1.0000000000000000e+00 4.3156709107751343e+00 9.0675011618428396e+00 6.7582969551817911e+00 
2423 1 1 1.7247098542438564e+00 -8.2239314850206152e+04 1.0000000000000000e+00 5.1780916166686346e+00 9.0764301595152652e+00 6.2309599311402222e+00 
1577 1 1 1.4664278105830106e+00 -1.0145782452447883e+05 1.0000000000000000e+00 5.0552792086505187e+00 9.9041098784548449e+00 6.0530509266055033e+00 
1934 1 1 1.5356480651831126e+00 7.2706707616222717e+04 1.0000000000000000e+00 4.7317696140860992e+00 9.7574932029053354e+00 6.6781963713002011e+00 
102 1 1 1.3635704170975158e+00 1.4913006628862342e+04 1.0000000000000000e+00 2.1944671319690516e+00 1.8663747425445149e-01 8.5103723823735411e+00 
2141 1 1 1.1031848837624671e+00 -6.2875033853224224e+04 1.0000000000000000e+00 7.4826469287662700e-01 9.6829167994031740e-01 9.3494155274805451e+00 
1000 1 1 1.1327999410094602e+00 -4.6971328781650962e+04 1.0000000000000000e+00 2.0281345535745223e+00 1.8265289866092256e+00 8.6348173207278851e+00 
719 1 1 1.6074873644100311e+00 -6.2099369848082235e+04 1.0000000000000000e+00 7.7697823345177108e-01 1.2859799132341720e-01 8.0453293450673460e+00 
327 1 1 1.3279777182568344e+00 -4.6049567815503520e+04 1.0000000000000000e+00 4.4376413002474822e+00 1.6505876002530171e+00 8.1203941220603841e+00 
189 1 1 1.5945905333018762e+00 -1.0653355453888200e+05 1.0000000000000000e+00 4.1718773178087352e+00 1.9202785493211745e+00 9.5452125721291985e+00 
2384 1 1 1.2525303542486541e+00 -4.3944486671864506e+04 1.0000000000000000e+00 4.0319526311259137e+00 6.7320812305746602e-01 9.6746927801428679e+00 
1659 1 1 1.4100999687337175e+00 6.0435162373260473e+03 1.0000000000000000e+00 2.9882225014025443e+00 1.2069080954941214e-01 9.6095477775845275e+00 
2205 1 1 1.2488734206981129e+00 -1.3098686885862970e+04 1.0000000000000000e+00 5.2158648405507781e+00 1.0916159821435836e+00 9.1122390393981529e+00 
1587 1 1 1.0805424677620517e+00 -1.1735685710677337e+04 1.0000000000000000e+00 5.2433550746247803e+00 9.3062535886555520e-01 8.0617947526352722e+00 
806 1 1 1.1784276664431865e+00 -5.2034651419427013e+04 1.0000000000000000e+00 1.2107615047443867e+00 2.2811879806531157e+00 8.5361864720191463e+00 
1123 1 1 1.0578808244322075e+00 7.8711036218448047e+04 1.0000000000000000e+00 1.6388263966633136e+00 3.9248786787727958e+00 9.3657992304724775e+00 
1332 1 1 1.0355187627119871e+00 -6.8998605947363176e+04 1.0000000000000000e+00 3.3949622729630256e+00 3.0317210616981867e+00 8.5819317480917441e+00 
2269 1 1 9.1749367412586980e-01 -4.0752682036447281e+04 1.0000000000000000e+00 3.5855662164922553e+00 3.8492410066246636e+00 8.7579775462237794e+00 
164 1 1 1.2239621218247727e+00 -4.5121833802445663e+03 1.0000000000000000e+00 2.7990610733438213e+00 2.2209442998515541e+00 9.7974588657098973e+00 
2006 1 1 1.3571201785401439e+00 -4.6667548498172742e+04 1.0000000000000000e+00 5.3684993187457462e+00 2.2347928641495880e+00 9.2809922075425746e+00 
2422 1 1 1.0345499398010969e+00 -3.2674756538648049e+04 1.0000000000000000e+00 5.5421052284620700e+00 3.3234771787493154e+00 8.4478818309228867e+00 
2356 1 1 1.5796134343056722e+00 -9.1094044381316387e+04 1.0000000000000000e+00 1.8314893017094698e+00 4.8692344145520492e+00 9.6112678235181725e+00 
2261 1 1 1.7797600165508860e+00 1.0591053494516551e+05 1.0000000000000000e+00 4.5952052156050593e-01 5.1624314586199027e+00 8.7477167453418829e+00 
904 1 1 1.7741561328547235e+00 7.4007832522022334e+04 1.0000000000000000e+00 5.6777927128596961e-01 5.4406065105879655e+00 9.3201555827964722e+00 
1861 1 1 2.1942691387742221e+00 9.9722360786755162e+03 1.0000000000000000e+00 1.1165275903965008e+00 5.7464450628266404e+00 8.0034864280536215e+00 
627 1 1 1.6828072050760625e+00 1.7768091266343039e+04 1.0000000000000000e+00 2.6128076794245914e-01 5.9294553751480237e+00 9.1786035903972021e+00 
1933 1 1 2.0025597007087002e+00 -1.3310739263133890e+04 1.0000000000000000e+00 2.0437018131003692e+00 5.3494262669729071e+00 8.5032000946691255e+00 
547 1 1 2.1353085293239866e+00 1.2412487411463937e+04 1.0000000000000000e+00 1.9621983361862145e+00 5.3708524127000148e+00 9.0664937462718580e+00 
774 1 1 2.0559885566327067e+00 -1.4369524908983023e+04 1.0000000000000000e+00 4.1939698844405635e+00 5.8813052660363638e+00 9.9357480884288485e+00 
1135 1 1 2.0392948120593655e+00 -4.1593017199663067e+04 1.0000000000000000e+00 4.1913227715409276e+00 5.6678987652088475e+00 9.4705879648782751e+00 
389 1 1 1.8940768470769078e+00 -2.4448709848055751e+04 1.0000000000000000e+00 4.3467963401654162e+00 5.2084689429828401e+00 9.5691099047263002e+00 
176 1 1 1.7450383066970199e+00 -9.7388859893191213e+04 1.0000000000000000e+00 3.5397422338489966e+00 5.3716984925309212e+00 9.8570507792604758e+00 
2251 1 1 1.2521231132848956e+00 -2.5815552671551992e+04 1.0000000000000000e+00 5.7298113884970228e+00 5.4557969282345882e+00 8.0038967712659073e+00 
1334 1 1 1.8625893414755748e+00 -8.9139426878968981e+04 1.0000000000000000e+00 5.5035841468659772e+00 5.4240203783899021e+00 9.7096300094354842e+00 
1590 1 1 1.4776792632996629e+00 -9.7715304855944887e+03 1.0000000000000000e+00 5.1903914298774261e+00 5.3076091314227787e+00 8.4899488326936190e+00 
1205 1 1 2.0859718305998673e+00 5.1357274203872534e+04 1.0000000000000000e+00 1.2225312943038540e+00 6.1982425379021429e+00 9.2274418917250163e+00 
15 1 1 2.0298815910330577e+00 6.4920815572568848e+04 1.0000000000000000e+00 1.7960969458535740e+00 6.4357658055638716e+00 8.9184643349655381e+00 
1751 1 1 1.8966015331272283e+00 6.5693285348922727e+04 1.0000000000000000e+00 2.5106588037589290e+00 6.1507201587886007e+00 8.9690296355061498e+00 
96 1 1 1.2640217934671194e+00 -1.0373671953842780e+05 1.0000000000000000e+00 2.8153701142492147e+00 7.7429978858769264e+00 8.6287411211697425e+00 