LAMMPS data file via write_data, version 30 Jul 2016, timestep = 50400000

2700 atoms
2 atom types

0.0000000000000000e+00 2.0000000000000000e+01 xlo xhi
0.0000000000000000e+00 2.0000000000000000e+01 ylo yhi
0.0000000000000000e+00 2.0000000000000000e+01 zlo zhi

Masses

1 3.896
2 5

Atoms # meso-molecular

2628 1 1 1.6081578395124401e+00 -1.8373827644851248e+04 1.0000000000000000e+00 2.7918398589008801e-02 1.4461450907776592e+00 7.8477742652919968e-01 
91 1 1 2.0887322696114463e+00 3.5274891764255590e+04 1.0000000000000000e+00 2.1692616471734238e+00 1.7176434226696473e+00 1.3643297105788619e+00 
1403 1 1 2.5091839111902337e+00 2.8772522244290831e+04 1.0000000000000000e+00 1.8847129363531372e+00 1.4080627143977460e+00 2.2931883948969425e-01 
2365 1 1 2.2761267255330035e+00 -2.0662569015812562e+04 1.0000000000000000e+00 1.9653341863573766e+00 1.7830401465513019e+00 1.2512238180423718e+00 
264 1 1 1.6684168929545846e+00 2.3205687427830355e+04 1.0000000000000000e+00 8.9788583933518273e-01 5.8724705027764423e-01 8.1231727207340135e-02 
2374 1 1 1.4145926980874517e+00 -2.8900225626581236e+04 1.0000000000000000e+00 5.3758636282295336e-01 5.9707169254627479e-01 1.1998632229343602e+00 
2597 1 1 2.2058751805328605e+00 -1.3454405529193740e+04 1.0000000000000000e+00 1.7860061989887894e+00 8.3951455044921197e-01 2.2617849715898056e-01 
336 1 1 2.3109775375111572e+00 -6.8499638228783570e+03 1.0000000000000000e+00 2.5314679939478753e+00 1.7025383370170488e+00 4.7297212708565350e-01 
607 1 1 9.8369378060972301e-01 2.8881702964109569e+04 1.0000000000000000e+00 3.7999816633912893e+00 1.3516695458255241e+00 1.4188061751202363e+00 
966 1 1 1.2843582909483120e+00 2.8833583818053288e+04 1.0000000000000000e+00 3.6798055930960860e+00 1.7713765337388863e+00 8.1109813987188617e-01 
160 1 1 1.0900175904357920e+00 8.2405048526504237e+04 1.0000000000000000e+00 6.1256287755210117e+00 6.3821243808443218e-01 9.2963167249019818e-01 
1489 1 1 1.3432110352084388e+00 2.8576058986164153e+04 1.0000000000000000e+00 6.3137894676916737e+00 1.0338622476210855e+00 1.8508096745379459e+00 
2183 1 1 1.0956906208956194e+00 1.9721979004844372e+04 1.0000000000000000e+00 5.1672968771022525e+00 8.1023232669632961e-01 4.3861401623473351e-01 
1513 1 1 1.7090492668052280e+00 2.2998935061031603e+04 1.0000000000000000e+00 1.9797164287253513e+00 3.1688418772365869e+00 4.9583619682984650e-02 
463 1 1 1.9277954003015392e+00 8.1695243201393268e+03 1.0000000000000000e+00 9.5695725258370223e-01 3.8633156588831810e+00 7.5385690005558914e-01 
1902 1 1 2.5127026346161774e+00 1.1732859258089846e+04 1.0000000000000000e+00 1.7075292079026938e+00 2.2256508733829286e+00 6.5007512146151580e-01 
1079 1 1 2.0567800770234794e+00 5.3364403063441081e+04 1.0000000000000000e+00 1.2988838404046397e+00 3.3236745680732742e+00 7.9538628159721669e-01 
1725 1 1 1.8813835019683860e+00 3.2409370969670192e+04 1.0000000000000000e+00 6.3406280196217801e-01 3.9573440359475702e+00 7.5259825524563417e-01 
2297 1 1 1.9187263478987766e+00 5.8104046711210613e+04 1.0000000000000000e+00 6.5340650255531241e-01 2.9405017806180380e+00 1.8105754338752509e+00 
2699 1 1 1.7682701794639730e+00 -3.9268041720381002e+03 1.0000000000000000e+00 2.8698647690179686e+00 2.3691669046981834e+00 9.0940490277533342e-03 
2498 1 1 1.1614339528434421e+00 -4.5905788211717872e+03 1.0000000000000000e+00 3.9438406524622738e+00 3.5759381755604229e+00 1.4565463984860265e+00 
389 1 1 1.0707538516078561e+00 -1.8910520749214476e+04 1.0000000000000000e+00 6.3888872629496269e+00 2.0778690578723964e+00 1.8797148837843519e-01 
2225 1 1 9.9847553802393207e-01 -9.8428670825519330e+03 1.0000000000000000e+00 6.4096973911793436e+00 2.6078235471354319e+00 1.4385382856957190e+00 
156 1 1 1.7907981147359988e+00 6.9546512358442735e+04 1.0000000000000000e+00 2.0705196239595280e+00 5.1922415928582453e+00 1.5674983079953442e+00 
2571 1 1 1.8110134233230162e+00 -3.7727125892770069e+04 1.0000000000000000e+00 1.9070955158292802e+00 5.4842931040667793e+00 1.2569353792696660e+00 
1028 1 1 1.6749729382923837e+00 -3.0810241342446963e+04 1.0000000000000000e+00 5.2735697588125108e-01 5.0997624431381441e+00 1.6112713456050138e+00 
1933 1 1 1.6008239568361560e+00 8.7998212876317677e+02 1.0000000000000000e+00 7.0855753256410636e-01 4.8585636941980557e+00 6.1904041879263527e-01 
1161 1 1 2.0229462183656284e+00 7.8378305041772110e+03 1.0000000000000000e+00 9.4261493465225765e-01 4.3707638421448687e+00 1.2786242961696870e+00 
2503 1 1 1.8014116405600085e+00 2.5612008864336109e+04 1.0000000000000000e+00 3.2828028104759901e+00 5.7933203276119398e+00 6.3660942371555040e-01 
933 1 1 1.5995001413110566e+00 4.6134510745987762e+04 1.0000000000000000e+00 2.4308591354690785e+00 5.3391687061055206e+00 1.6520800513775595e+00 
1603 1 1 1.8116938363477288e+00 -4.3636646067650203e+04 1.0000000000000000e+00 3.3453920894271620e+00 4.1369011890321143e+00 6.0945821841318015e-01 
922 1 1 1.8642720983872401e+00 -3.7095615930972643e+04 1.0000000000000000e+00 2.5499690114797016e+00 5.4563535193119694e+00 3.5203967894168464e-01 
1295 1 1 1.9823312450176804e+00 -2.8498344791262756e+04 1.0000000000000000e+00 3.1934994874763922e+00 5.1015495966318838e+00 2.0166818856487639e-01 
1648 1 1 1.2548062358559164e+00 -7.9566100636778356e+04 1.0000000000000000e+00 3.8304068478136015e+00 4.0875492762494696e+00 1.5630949939341676e+00 
1360 1 1 1.6117648548081933e+00 3.0309426562192650e+04 1.0000000000000000e+00 5.4106225244417345e+00 5.3673321260906368e+00 8.4796239595901890e-01 
235 1 1 1.6897283883633436e+00 -3.2030714956189535e+04 1.0000000000000000e+00 6.4547623724268908e+00 5.0790389509398493e+00 1.1017380355701936e+00 
313 1 1 1.8586649263602277e+00 3.1636003218442147e+04 1.0000000000000000e+00 5.2743283418630282e+00 5.4735531214277184e+00 5.6751816109059661e-02 
2696 1 1 1.2674250732466310e+00 7.8916731092012251e+03 1.0000000000000000e+00 2.1523391717514975e+00 6.4006652158546036e+00 2.2127185619960199e-01 
9 1 1 8.6417510403383235e-01 -5.2227804608088773e+04 1.0000000000000000e+00 3.7993526675948792e+00 7.7138537609314239e+00 3.4378038764836638e-01 
332 1 1 1.1723164311837466e+00 4.5524311262627773e+04 1.0000000000000000e+00 4.1851864069065137e+00 6.6774061245033449e+00 8.7219957355168953e-01 
1351 1 1 1.6946909757738435e+00 6.9101583569271213e+04 1.0000000000000000e+00 4.9536152200664691e+00 6.0278059599350264e+00 1.2593737426682644e-01 
546 1 1 1.5348444854301793e+00 -5.1733868442355786e+04 1.0000000000000000e+00 5.7397712396348419e+00 6.8026933890917265e+00 1.8454380906069250e+00 
687 1 1 1.0302942262968369e+00 -2.8806392647534252e+04 1.0000000000000000e+00 5.1901826682239838e+00 7.8264306565688919e+00 4.3076237751852886e-01 
1382 1 1 1.3212243876053007e+00 -2.0898684982803538e+03 1.0000000000000000e+00 4.8615217755692075e-01 9.9744365702310311e+00 1.3278272293006415e+00 
1048 1 1 1.8906679001754738e+00 -4.8381902330135097e+04 1.0000000000000000e+00 1.5815806223477320e+00 9.8252444602224411e+00 1.2478305751597121e+00 
1611 1 1 1.5193758424288069e+00 -3.0400777365350245e+04 1.0000000000000000e+00 1.9117451942242709e+00 9.9292215020122754e+00 2.5934961046699812e-01 
1852 1 1 2.1148157015642606e+00 1.7460932214214750e+04 1.0000000000000000e+00 2.6500776521153169e+00 9.8328809858412942e+00 1.4640270288396739e+00 
413 1 1 1.6727927097143909e+00 3.4154640767886805e+04 1.0000000000000000e+00 4.8284909493957162e+00 9.1821294517637106e+00 1.3604634700208362e+00 
1687 1 1 1.4484890349554558e+00 1.0340582252115320e+04 1.0000000000000000e+00 4.7394081824027223e+00 9.6341634466888735e+00 8.9567008532140191e-01 
319 1 1 1.5519028771540517e+00 -8.5896012448414927e+04 1.0000000000000000e+00 5.1924399130512384e+00 9.1345921088529014e+00 1.2726996714395342e+00 
293 1 1 1.2170764700050078e+00 2.2095626505231962e+03 1.0000000000000000e+00 1.7165983476860025e+00 1.9473930127662935e+00 3.6042577126823190e+00 
956 1 1 1.2374051608622523e+00 3.1540418148165780e+04 1.0000000000000000e+00 1.9865481655783295e+00 1.6347899200895559e+00 3.4056889741349363e+00 
920 1 1 1.6012458153335878e+00 -1.1474093148941152e+04 1.0000000000000000e+00 9.8621559166087702e-01 1.4861596566896307e+00 2.2256355315034382e+00 
1851 1 1 1.0744308793175614e+00 -1.1086028846279869e+04 1.0000000000000000e+00 1.5962555588861504e+00 1.0061514340102011e+00 3.4990930957831035e+00 
1515 1 1 1.7821919817022667e+00 5.2926474176147130e+04 1.0000000000000000e+00 6.0554755661426958e+00 1.7795600131355980e+00 3.7251375937756706e+00 
1755 1 1 1.4744980942347130e+00 -9.3136867444754345e+04 1.0000000000000000e+00 6.1257565805563017e+00 9.7543707516809730e-01 2.7407163149330822e+00 
1694 1 1 1.6944668213396852e+00 -3.8065655208085623e+03 1.0000000000000000e+00 6.3803305676769169e+00 1.1646912495054682e+00 3.2667634264016208e+00 
891 1 1 1.8483407346663929e+00 -7.9017306220606741e+04 1.0000000000000000e+00 1.2084102835491293e+00 2.2654735640190675e+00 2.2288249564149174e+00 
1906 1 1 1.2652620147825804e+00 -4.9198366938901090e+03 1.0000000000000000e+00 1.8071610788241212e+00 3.2513189424792945e+00 2.6577915109606063e+00 
969 1 1 1.2835802317627536e+00 4.6213144719978773e+03 1.0000000000000000e+00 2.6543807883278161e+00 3.1168772057559133e+00 2.0102936504369042e+00 
1126 1 1 9.4539886731528322e-01 -7.3902557539672445e+04 1.0000000000000000e+00 3.5458342901724480e+00 3.2111360259037078e+00 3.7790734056681994e+00 
783 1 1 1.9177139647368040e+00 -7.0423530873181619e+04 1.0000000000000000e+00 6.4132826439971407e+00 3.2538298985756593e+00 3.4006939137832606e+00 
843 1 1 2.0889387112077245e+00 -1.1164536389036608e+04 1.0000000000000000e+00 6.3647524166921254e+00 2.5327701787860644e+00 3.8961188511481497e+00 
146 1 1 1.5222236109935299e+00 2.9806474703833403e+04 1.0000000000000000e+00 5.7411802370156586e+00 3.6192919827239050e+00 3.7942070091763389e+00 
2437 1 1 9.9329188304280391e-01 3.5194795305828295e+04 1.0000000000000000e+00 5.4520657825828458e+00 2.5882064401591096e+00 2.3280001094352563e+00 
1641 1 1 1.1773348627301974e+00 2.0556203968963317e+04 1.0000000000000000e+00 1.3996861066304667e+00 5.0044306613354834e+00 2.8182042706015005e+00 
438 1 1 1.0820274665571457e+00 -7.8215054927975114e+04 1.0000000000000000e+00 2.5108157705569507e+00 4.3303751415933327e+00 3.9027617321900738e+00 
65 1 1 1.7942613218246171e+00 2.5676546274300945e+03 1.0000000000000000e+00 6.3824690882092039e+00 4.9346790371089799e+00 2.4156208124767860e+00 
1966 1 1 6.5868309617271870e-01 -1.9175979919721198e+04 1.0000000000000000e+00 4.5972962816448808e+00 5.0561220494465653e+00 2.6482225693579804e+00 
1388 1 1 1.5816624134749799e+00 -6.3101253993637205e+04 1.0000000000000000e+00 5.7362499686038548e-01 6.9981393412047517e+00 3.6945380093423239e+00 
406 1 1 1.0929264686228328e+00 4.3619949443370424e+04 1.0000000000000000e+00 1.2608709093626782e+00 6.4738922320737791e+00 2.6710503853385434e+00 
1078 1 1 5.8542485417512147e-01 7.9883511282435269e+04 1.0000000000000000e+00 3.6574368826502317e+00 7.2150487410727484e+00 3.4038617976520436e+00 
1971 1 1 9.3706242023360842e-01 8.1867380240592131e+04 1.0000000000000000e+00 5.1696996944358062e+00 6.3816975976956325e+00 3.7680822393396407e+00 
316 1 1 1.0292484534692579e+00 -4.7612504682024497e+04 1.0000000000000000e+00 5.6150900929439596e+00 7.8085007772952144e+00 3.6540836628402960e+00 
1063 1 1 1.4616937561368077e+00 -3.0617050694083380e+04 1.0000000000000000e+00 5.9421255449465908e+00 7.3248723960588222e+00 2.5376119213130051e+00 
2043 1 1 1.5817842919911766e+00 2.2777291353634690e+04 1.0000000000000000e+00 5.8303974799556624e+00 6.5322916149903039e+00 2.4954251820455804e+00 
1787 1 1 1.5996401124737682e+00 -7.6653482659388043e+04 1.0000000000000000e+00 1.0404931291666295e+00 9.5432682932964532e+00 3.0397833159891512e+00 
851 1 1 1.8097380490478574e+00 -9.3821371004138753e+04 1.0000000000000000e+00 2.6200556319530222e-02 8.5280923798860453e+00 2.5616437647697410e+00 
763 1 1 1.8488992221467428e+00 -9.3672333691429390e+04 1.0000000000000000e+00 2.3648309445329119e-01 8.0199972822982044e+00 2.5767381165118088e+00 
1039 1 1 1.6390522510041416e+00 1.2237189770939527e+04 1.0000000000000000e+00 7.2692498152586893e-01 8.7910105659583593e+00 2.5464229788177914e+00 
97 1 1 1.7790130610721566e+00 2.4908265879463677e+04 1.0000000000000000e+00 2.4714977028086764e+00 9.9065638024610045e+00 3.7997448262409228e+00 
736 1 1 1.3340179395450846e+00 -2.3659882888391370e+04 1.0000000000000000e+00 3.3387530155112315e+00 8.9264845541753797e+00 2.0796433875122693e+00 
1193 1 1 1.3508946882252131e+00 -1.1188687071122539e+05 1.0000000000000000e+00 5.5432875635140606e+00 9.0284688254582228e+00 3.9756068121105330e+00 
1302 1 1 1.8070200169676627e+00 3.5607012060793721e+04 1.0000000000000000e+00 5.0245142394468250e+00 9.3093976979850925e+00 2.8471755933149785e+00 
534 1 1 1.5954784945742293e+00 -7.5928317390815937e+04 1.0000000000000000e+00 4.4861878946797349e+00 8.8999790495413915e+00 2.2598806529018205e+00 
2496 1 1 1.5069075985970426e+00 5.3697202075862740e+04 1.0000000000000000e+00 6.5723300131979512e+00 9.4846222048609370e+00 2.3151151877030895e+00 
497 1 1 1.6152432315011276e+00 1.1351955450188331e+05 1.0000000000000000e+00 1.3669390033311242e+00 6.0806640000396861e-01 5.7994207288820450e+00 
1879 1 1 7.7724852944239786e-01 5.2406486945006973e+03 1.0000000000000000e+00 5.2799550725772306e+00 3.0437068789944743e-01 4.6863365768467045e+00 
2507 1 1 1.7666970453310900e+00 3.1886325430764127e+03 1.0000000000000000e+00 6.6486105938739453e+00 1.3674005375423688e+00 4.1067978210024245e+00 
642 1 1 2.2232851989134184e+00 1.8310836045694778e+04 1.0000000000000000e+00 1.0470442662027419e+00 3.9638461913366601e+00 5.9418439041763920e+00 
1746 1 1 2.0210697054426729e+00 -5.3059016469920469e+04 1.0000000000000000e+00 1.9822199761067816e+00 3.9891790320795577e+00 5.3235213235316774e+00 
1995 1 1 2.3308907262394869e+00 -1.0169612787462096e+05 1.0000000000000000e+00 1.0263561989775383e-01 3.3756685899035928e+00 5.7192056597559677e+00 
1062 1 1 1.6824090842503714e+00 9.3638071470541749e+04 1.0000000000000000e+00 9.0662983456171464e-01 3.7468270636702186e+00 4.6967291152750867e+00 
217 1 1 1.4325255527841290e+00 -5.4738694108439151e+04 1.0000000000000000e+00 3.4789564787533056e+00 2.5652571443986432e+00 4.9776637395684933e+00 
1337 1 1 9.9115650440223835e-01 1.0228894688683273e+04 1.0000000000000000e+00 3.5542413108703590e+00 2.2264182506586843e+00 4.1170671340923333e+00 
1208 1 1 1.3208642801657735e+00 -6.6013126760957355e+04 1.0000000000000000e+00 4.3775394134871171e+00 3.2815324639029071e+00 5.0955286302323941e+00 
4 1 1 1.7150312273434281e+00 1.4920731983740554e+04 1.0000000000000000e+00 5.5652515973947967e+00 2.6303010981288284e+00 5.0383090068369025e+00 
1379 1 1 1.7320789314387488e+00 -1.4730098582772314e+04 1.0000000000000000e+00 6.4469033246416103e+00 3.8512401603543105e+00 4.4266667216376030e+00 
1101 1 1 1.5143038970854017e+00 6.5043101955552542e+04 1.0000000000000000e+00 5.2304124020548395e+00 2.0155776502853344e+00 5.2988589543808517e+00 
2612 1 1 1.5032349841695143e+00 7.4677158745320285e+03 1.0000000000000000e+00 3.5676837113403984e-02 5.8597408853617505e+00 5.2374931931565456e+00 
1643 1 1 1.8132236643166837e+00 2.2162105776556768e+04 1.0000000000000000e+00 1.0397386562559139e+00 4.4159316311543684e+00 4.8512122754566009e+00 
700 1 1 1.7786435844526562e+00 8.9554164226100635e+04 1.0000000000000000e+00 1.1583291715368758e+00 4.3471996530035275e+00 4.7274872245184971e+00 
2679 1 1 2.0255330281712602e+00 -7.1016826709920322e+04 1.0000000000000000e+00 2.4720894368455109e+00 4.2867977692168191e+00 5.8634722540983288e+00 
1040 1 1 1.4688084910503345e+00 -7.4635813472345471e+04 1.0000000000000000e+00 2.8721896583818007e+00 4.7715108595325608e+00 4.9646784877717742e+00 
222 1 1 1.3090423512913234e+00 -6.8342124493963755e+04 1.0000000000000000e+00 5.6065446822991518e+00 4.7643515618647561e+00 5.6285978636476388e+00 
2085 1 1 1.0789842464773722e+00 -1.8518440119253482e+04 1.0000000000000000e+00 5.2458897004998519e+00 4.6054427826435118e+00 4.9033975842510831e+00 
36 1 1 1.2883954875921395e+00 3.1641287044909513e+04 1.0000000000000000e+00 2.1249977006616252e+00 7.7543998806407757e+00 4.7812117714112805e+00 
1095 1 1 1.3454004003870765e+00 2.1365355466764177e+04 1.0000000000000000e+00 2.0913489896483068e+00 6.1569804663995757e+00 4.3511780379339795e+00 
616 1 1 1.3557998246631358e+00 3.8371558193287630e+04 1.0000000000000000e+00 1.3464803421223124e+00 6.5601172275510962e+00 4.4386207242618747e+00 
1824 1 1 1.3524999478507833e+00 2.8919943329340778e+04 1.0000000000000000e+00 3.2242641365325424e+00 6.7438762170658340e+00 4.8408806836121228e+00 
2658 1 1 1.5472355343254227e+00 -3.3164460410117405e+04 1.0000000000000000e+00 2.4933176807706876e+00 6.5706327649231797e+00 4.9988263804239050e+00 
703 1 1 1.5333197635297806e+00 6.5818850747349759e+04 1.0000000000000000e+00 2.8763391131946876e+00 6.8340968343535495e+00 5.6264239042294584e+00 
276 1 1 1.1083664823731225e+00 -9.4045490046260929e+03 1.0000000000000000e+00 5.3783215249330922e+00 6.3510326029816007e+00 5.1911957788108873e+00 
168 1 1 2.1363632570659705e+00 -4.6345580511721855e+04 1.0000000000000000e+00 1.2017691660471541e+00 9.7223414273544755e+00 5.6566155022114311e+00 
1566 1 1 2.0644559077787008e+00 5.1525257819440805e+04 1.0000000000000000e+00 1.8454531188633805e-01 8.1745694318409452e+00 5.4171032674375104e+00 
345 1 1 2.2219660371708585e+00 -6.4637418801639556e+04 1.0000000000000000e+00 7.8382725776118689e-01 9.7783215565014210e+00 4.7397486797194190e+00 
2368 1 1 2.1834174099960082e+00 3.6479547687441863e+02 1.0000000000000000e+00 1.4580307471610965e-01 8.5742703048999953e+00 4.3757449787996725e+00 
712 1 1 2.1193905676848175e+00 3.8594885336259671e+04 1.0000000000000000e+00 6.3823382636800874e-02 8.1642801900830531e+00 5.1350426092237260e+00 
2580 1 1 2.3044104174508888e+00 2.6638720075140289e+04 1.0000000000000000e+00 5.5625584228724390e-01 9.1583985343969250e+00 4.7503595586450533e+00 
1075 1 1 1.8850719346447424e+00 -9.2795818831865563e+03 1.0000000000000000e+00 1.5854132335362048e+00 8.9573230861206561e+00 4.9791342570713368e+00 
138 1 1 1.0512599155885018e+00 2.1983053605843588e+03 1.0000000000000000e+00 3.2400584426810313e+00 9.2762459309324772e+00 4.7157642323982154e+00 
511 1 1 1.0691336241801370e+00 5.6949490020034202e+04 1.0000000000000000e+00 4.3277181507181472e+00 9.1114135755778864e+00 5.8413910158608386e+00 
1530 1 1 1.9845689634465091e+00 -1.7654121998913924e+04 1.0000000000000000e+00 1.4358610667760616e+00 2.6027863740587395e-02 7.4305744869622323e+00 
554 1 1 1.5091866381363948e+00 4.0192067290833795e+04 1.0000000000000000e+00 1.8580601634426750e+00 9.1820111564634976e-01 7.5472084432327424e+00 
900 1 1 1.8604361987665545e+00 -5.9233050842133402e+04 1.0000000000000000e+00 9.3837343765228332e-01 1.4716383547569998e+00 6.1698604229912473e+00 
312 1 1 1.2778303655582897e+00 -2.4107171065242041e+04 1.0000000000000000e+00 5.6378344649716627e-01 6.2727729995013526e-01 7.9773930155928872e+00 
2621 1 1 1.8739515467401715e+00 8.5118253682812428e+03 1.0000000000000000e+00 1.9945170955126847e+00 1.4415426345916311e+00 6.2770614041428328e+00 
75 1 1 1.9041118691123682e+00 4.2908937890433015e+04 1.0000000000000000e+00 2.2736145512745156e+00 1.0564726187220386e+00 6.0400922411192841e+00 
812 1 1 1.9227590650088291e+00 -6.6603097124047417e+04 1.0000000000000000e+00 3.2587308230519634e+00 1.9080832272824990e+00 6.1643729760407373e+00 
1338 1 1 1.7814371490010057e+00 1.9237993920297369e+04 1.0000000000000000e+00 3.7886076782182716e+00 1.3503876005472530e+00 6.2118410785984244e+00 
1619 1 1 1.8568168642280991e+00 1.8884944653627290e+03 1.0000000000000000e+00 3.4175189566975144e+00 1.5079448355466747e+00 6.0255085612196320e+00 
186 1 1 1.8914493791285114e+00 6.0223078250309845e+03 1.0000000000000000e+00 4.0206739935936886e+00 1.8883827678381433e+00 6.2653950807638683e+00 
170 1 1 2.0833795816200724e+00 7.9158855415229173e+03 1.0000000000000000e+00 6.3498824191778729e+00 2.7254040591890044e-01 7.2057133390694368e+00 
1615 1 1 1.5694146192381433e+00 5.0852784651682850e+03 1.0000000000000000e+00 5.0131122849364571e+00 1.6666838868320313e+00 7.2389799208365089e+00 
2018 1 1 2.0005458149546618e+00 -6.7913467700736437e+04 1.0000000000000000e+00 6.0334123982563543e+00 1.2223463669469215e-02 6.4243891751267448e+00 
1350 1 1 2.1979196915981909e+00 -7.9319125881841450e+04 1.0000000000000000e+00 1.1023905871618879e-01 3.3050372700109523e+00 6.6249951837781103e+00 
2396 1 1 1.9443200307581208e+00 -2.3715377704587998e+04 1.0000000000000000e+00 1.0197753865447754e+00 3.7569664866686701e+00 6.6524279288036938e+00 
868 1 1 1.8012005660816564e+00 -1.5840226123861679e+04 1.0000000000000000e+00 1.4425026595715267e+00 2.5680044594101794e+00 6.6283127441335044e+00 
1163 1 1 2.3217437785365282e+00 -1.6943154244929818e+04 1.0000000000000000e+00 5.1549327143399593e-01 2.1860431484041580e+00 6.1141094479396143e+00 
279 1 1 2.5270579329858069e+00 1.5747004339496241e+04 1.0000000000000000e+00 4.0130825660360203e-01 2.6777873118710254e+00 6.0101871017724031e+00 
1778 1 1 1.1437858530378762e+00 3.0130718683138908e+04 1.0000000000000000e+00 2.7436115261426437e+00 2.8533012856353226e+00 7.4073604133906130e+00 
2163 1 1 1.2445831543782784e+00 1.1161314360063980e+05 1.0000000000000000e+00 3.5657847875707152e+00 2.2748907025189142e+00 7.4488164670837627e+00 
927 1 1 1.6448163639185489e+00 4.0556971694738793e+04 1.0000000000000000e+00 2.9250379730289606e+00 3.5769219892550068e+00 6.4920830416275859e+00 
2228 1 1 1.8308378418395530e+00 2.4437695858119132e+04 1.0000000000000000e+00 5.7361580005977757e+00 2.3062994575434650e+00 6.8934432152393033e+00 
1146 1 1 2.0258612487736940e+00 -2.0568456781495086e+04 1.0000000000000000e+00 5.9535963658656934e+00 2.0758212883722145e+00 7.5717766948428418e+00 
541 1 1 1.6349423307791400e+00 -6.5104914784833105e+04 1.0000000000000000e+00 5.0231621494483862e+00 2.6048067131010293e+00 6.0344099282310362e+00 
755 1 1 2.0877985436582560e+00 2.8227083281907278e+04 1.0000000000000000e+00 6.5392082274575687e+00 2.3218854277502650e+00 6.6857943980409864e+00 
1543 1 1 1.9216977053924824e+00 1.5826110904622155e+04 1.0000000000000000e+00 1.9293154589172561e+00 4.6498375412070496e+00 6.3088604970491504e+00 
464 1 1 1.0488465385532117e+00 2.2810429785599212e+04 1.0000000000000000e+00 1.0810071273763888e+00 5.0064728427963976e+00 7.8812032806026080e+00 
2223 1 1 1.3447742660392237e+00 -5.0367378269704954e+04 1.0000000000000000e+00 2.1095759719616867e+00 5.8506288798741233e+00 7.4245450939800914e+00 
853 1 1 1.7744313728766754e+00 -2.1738290118398349e+04 1.0000000000000000e+00 2.7747848973147358e+00 4.1803710725748537e+00 6.5700058568944515e+00 
2637 1 1 1.6756707666763833e+00 3.4698403918071519e+04 1.0000000000000000e+00 2.9647781626948779e+00 5.9713352988978539e+00 6.3168879206801218e+00 
971 1 1 1.1183590283921589e+00 2.2988327632894954e+04 1.0000000000000000e+00 3.7078069175953789e+00 4.5367737716691039e+00 7.7032342824871778e+00 
1785 1 1 1.6860985765024135e+00 3.7733241015882493e+04 1.0000000000000000e+00 3.0846024605424596e+00 5.2719819743770397e+00 6.3312380773018901e+00 
995 1 1 1.9291008940056515e+00 1.5962525123727859e+04 1.0000000000000000e+00 6.2015979117814863e+00 5.3603227575485581e+00 7.5966814447537345e+00 
954 1 1 1.4028954959048632e+00 -4.7706123967208587e+04 1.0000000000000000e+00 5.5481093282544416e+00 4.5316711648193708e+00 6.8526445098499780e+00 
697 1 1 1.7983283569421011e+00 -2.4846159489860871e+04 1.0000000000000000e+00 5.3836046755876579e+00 5.1745218514332372e+00 7.0015325831207758e+00 
1457 1 1 2.0134760784510966e+00 -9.0954356810181416e+03 1.0000000000000000e+00 5.6101326163482286e+00 5.8406454737360880e+00 7.4690446680608620e+00 
1325 1 1 2.0434600405113827e+00 2.2688224425648350e+04 1.0000000000000000e+00 5.8470910672648566e+00 5.5457905528808942e+00 7.3564317332548326e+00 
1132 1 1 1.2481623635918506e+00 -1.0401730062717466e+05 1.0000000000000000e+00 5.9576925011732791e-02 6.4506749995200243e+00 6.1181771001472463e+00 
2485 1 1 1.3024055046900904e+00 2.0467808466043185e+04 1.0000000000000000e+00 7.2285733063592095e-02 7.1973006045312271e+00 6.2680400470737681e+00 
295 1 1 1.5572927887903878e+00 4.7094681242515879e+04 1.0000000000000000e+00 4.3264783252799646e+00 6.4164992208581424e+00 6.1132955200171253e+00 
1021 1 1 1.6370708211588245e+00 5.7933214442965786e+04 1.0000000000000000e+00 4.4015402762647664e+00 6.5714761002691207e+00 6.8122362849169962e+00 
1864 1 1 1.3904968100215032e+00 1.3983720344014308e+04 1.0000000000000000e+00 3.2360577010774874e+00 6.9418487590650537e+00 7.1674014457526498e+00 
1222 1 1 1.0762577976751784e+00 1.0829914576640855e+04 1.0000000000000000e+00 4.7857782479706321e+00 7.6811764938227638e+00 6.5087483811406370e+00 
913 1 1 1.4371718964642279e+00 4.3722928851132412e+04 1.0000000000000000e+00 6.4962448407280133e+00 7.0189456996105495e+00 6.2701082150989427e+00 
644 1 1 1.7300363063759916e+00 -2.1078364133131417e+03 1.0000000000000000e+00 5.2703984391973062e+00 6.6175339358404610e+00 6.5177541670212653e+00 
1556 1 1 1.6195306971941079e+00 5.0692050837777708e+04 1.0000000000000000e+00 6.5033006641117135e+00 6.3664035433247665e+00 7.0367272898225366e+00 
349 1 1 1.5672362161689253e+00 3.5780339264114518e+04 1.0000000000000000e+00 3.6734380586588761e-01 9.4291623690726194e+00 6.8539435057140636e+00 
748 1 1 1.4336202954345052e+00 -5.0386347668251568e+04 1.0000000000000000e+00 1.4781496944648524e+00 8.4818529863497751e+00 6.2101379709741158e+00 
1504 1 1 1.5149927491254360e+00 -5.8414271491196843e+04 1.0000000000000000e+00 1.0932359437980885e+00 8.1203188476570496e+00 6.1453666663892337e+00 
1280 1 1 8.3345438867031640e-01 4.1763552610803408e+03 1.0000000000000000e+00 2.8673446087820418e+00 8.5982093471475931e+00 6.9626088059779914e+00 
2425 1 1 8.5851932628659455e-01 4.7056087822031157e+04 1.0000000000000000e+00 3.6548896648962077e+00 9.2550153782992410e+00 7.5297660986513346e+00 
1127 1 1 1.1882672767758531e+00 3.8255538228985883e+04 1.0000000000000000e+00 5.9230077350805148e+00 9.7518105070897487e+00 6.2811400225398062e+00 
2674 1 1 1.2381294242440488e+00 -5.4052305699615201e+04 1.0000000000000000e+00 5.0501305561039063e+00 9.5831143495369631e+00 6.0207531537415999e+00 
1726 1 1 1.3828842354760604e+00 2.2971201181502511e+04 1.0000000000000000e+00 3.9540671184824587e+00 8.5472560426169009e-01 8.4793102434156395e+00 
988 1 1 1.7054832521226995e+00 -1.8819354819105090e+04 1.0000000000000000e+00 3.5849020637304232e+00 2.2105378922729180e-01 9.3496158074484264e+00 
208 1 1 1.6168085520118454e+00 -1.9162608025880022e+03 1.0000000000000000e+00 4.2564098132381023e+00 3.7319155941174464e-01 8.7730283994941836e+00 
1523 1 1 1.5289687520067552e+00 1.8465811485013221e+03 1.0000000000000000e+00 5.4025731397977230e+00 4.0986738177706999e-01 9.0512938209922051e+00 
11 1 1 1.8431861538516225e+00 1.0184158119621710e+05 1.0000000000000000e+00 5.7831948121700609e+00 1.7615452899968260e+00 8.2996906465402365e+00 
2136 1 1 1.3175457510145685e+00 5.0181447224093528e+04 1.0000000000000000e+00 1.3226776840646068e+00 3.8638336553473023e+00 9.3217488560384023e+00 
1930 1 1 1.2344003721184915e+00 8.5633292460437093e+04 1.0000000000000000e+00 7.0618912695152236e-01 3.7314356302200054e+00 8.5605836985645176e+00 
1983 1 1 9.3704432491298584e-01 5.2971296012432984e+04 1.0000000000000000e+00 1.8253949272477104e+00 2.0279670901110372e+00 9.7398015123909847e+00 
1418 1 1 9.4595511883024863e-01 -2.5807591928790876e+04 1.0000000000000000e+00 3.3358449144930846e+00 3.0850519380399262e+00 9.8881136472076872e+00 
1242 1 1 1.5714543979462234e+00 -5.7415524720457397e+04 1.0000000000000000e+00 6.1223433515381620e+00 2.3364584931623704e+00 9.8084815259261635e+00 
745 1 1 1.0060511703982020e+00 1.9674968650019757e+04 1.0000000000000000e+00 5.3662283735395206e+00 3.1750868106599555e+00 8.7075294588650731e+00 
1188 1 1 1.5654297896927112e+00 3.2774355955221140e+03 1.0000000000000000e+00 2.0667970517430718e+00 5.2950311345740637e+00 8.7842610914559263e+00 
1185 1 1 1.3288447400397623e+00 -4.7300929891454594e+04 1.0000000000000000e+00 3.8763935857428335e+00 4.2166037898257205e+00 9.4153101358724953e+00 
771 1 1 1.4736160910676341e+00 -9.9092391038248446e+04 1.0000000000000000e+00 3.8882757346643957e+00 5.7870733917244337e+00 8.7498618890873345e+00 
2403 1 1 1.6674575953351931e+00 8.8068071042846088e+04 1.0000000000000000e+00 2.7554342244022201e+00 5.9039262754657882e+00 8.7180890123012631e+00 
371 1 1 1.6431019537711644e+00 8.4710349031805490e+03 1.0000000000000000e+00 2.3759871276996445e+00 4.7596223632271579e+00 8.8784533260662553e+00 
478 1 1 1.5795746461949181e+00 1.1363229986074741e+05 1.0000000000000000e+00 2.9152528804247910e+00 4.3225086031322260e+00 9.1648801769997732e+00 
1763 1 1 1.4275229121064279e+00 1.9584749382332273e+04 1.0000000000000000e+00 5.9197752763878775e+00 5.0193385065076894e+00 9.0306527804938028e+00 
1047 1 1 1.0805909156462083e+00 1.2634099299721471e+04 1.0000000000000000e+00 5.8616776080888817e+00 4.2464123981111319e+00 9.2205781881701352e+00 
2037 1 1 1.4803576859080818e+00 2.6489311596730244e+04 1.0000000000000000e+00 2.7979403748258029e+00 6.5450437169497162e+00 8.3137527558624509e+00 
2321 1 1 1.5742083120693042e+00 -4.0211633489568017e+03 1.0000000000000000e+00 3.6318938732434205e+00 6.2577901462764061e+00 8.1305430589965582e+00 
1117 1 1 1.0559488858089057e+00 -2.4848572670778181e+03 1.0000000000000000e+00 3.0249714036006647e+00 7.5927441208701918e+00 9.3733873074237621e+00 
1139 1 1 1.0335601189172752e+00 1.3848607975668804e+05 1.0000000000000000e+00 6.5043230297578898e+00 7.8411427884766187e+00 9.1545505320564882e+00 
2422 1 1 1.1715578626011189e+00 -3.9916639165762252e+04 1.0000000000000000e+00 4.8855140827064423e+00 6.2611878709918756e+00 9.2812230032787326e+00 
1444 1 1 1.4654664471088830e+00 -3.6982202690846498e+04 1.0000000000000000e+00 5.7779073177718683e+00 6.0452017622433312e+00 8.6712757598431924e+00 