LAMMPS data file via write_data, version 30 Jul 2016, timestep = 600000

2080 atoms
8 atom types

0.0000000000000000e+00 4.0000000000000000e+01 xlo xhi
0.0000000000000000e+00 4.0000000000000000e+01 ylo yhi
0.0000000000000000e+00 1.0000000000000000e+02 zlo zhi

Masses

1 3.896
2 4.306
3 20.064
4 8.378
5 8.378
6 8.378
7 8.378
8 8.378

Atoms # meso-molecular

1 2 4 2.2559723595316457e+00 0.0000000000000000e+00 1.0000000000000000e+00 0.0000000000000000e+00 0.0000000000000000e+00 2.5000000000000000e+00 
2 2 4 2.2559723595316457e+00 0.0000000000000000e+00 1.0000000000000000e+00 0.0000000000000000e+00 2.0000000000000000e+00 2.5000000000000000e+00 
21 2 4 2.2559723595316457e+00 0.0000000000000000e+00 1.0000000000000000e+00 2.0000000000000000e+00 0.0000000000000000e+00 2.5000000000000000e+00 
22 2 4 2.2559723595316457e+00 0.0000000000000000e+00 1.0000000000000000e+00 2.0000000000000000e+00 2.0000000000000000e+00 2.5000000000000000e+00 
41 2 4 2.2559723595316457e+00 0.0000000000000000e+00 1.0000000000000000e+00 4.0000000000000000e+00 0.0000000000000000e+00 2.5000000000000000e+00 
42 2 4 2.2559723595316457e+00 0.0000000000000000e+00 1.0000000000000000e+00 4.0000000000000000e+00 2.0000000000000000e+00 2.5000000000000000e+00 
61 2 4 2.2559723595316457e+00 0.0000000000000000e+00 1.0000000000000000e+00 6.0000000000000000e+00 0.0000000000000000e+00 2.5000000000000000e+00 
62 2 4 2.2559723595316457e+00 0.0000000000000000e+00 1.0000000000000000e+00 6.0000000000000000e+00 2.0000000000000000e+00 2.5000000000000000e+00 
81 2 4 2.2559723595316457e+00 0.0000000000000000e+00 1.0000000000000000e+00 8.0000000000000000e+00 0.0000000000000000e+00 2.5000000000000000e+00 
82 2 4 2.2559723595316457e+00 0.0000000000000000e+00 1.0000000000000000e+00 8.0000000000000000e+00 2.0000000000000000e+00 2.5000000000000000e+00 
101 2 4 2.2559723595316457e+00 0.0000000000000000e+00 1.0000000000000000e+00 1.0000000000000000e+01 0.0000000000000000e+00 2.5000000000000000e+00 
102 2 4 2.2559723595316457e+00 0.0000000000000000e+00 1.0000000000000000e+00 1.0000000000000000e+01 2.0000000000000000e+00 2.5000000000000000e+00 
121 2 4 2.2559723595316457e+00 0.0000000000000000e+00 1.0000000000000000e+00 1.2000000000000000e+01 0.0000000000000000e+00 2.5000000000000000e+00 
122 2 4 2.2559723595316457e+00 0.0000000000000000e+00 1.0000000000000000e+00 1.2000000000000000e+01 2.0000000000000000e+00 2.5000000000000000e+00 
141 2 4 2.2559723595316457e+00 0.0000000000000000e+00 1.0000000000000000e+00 1.4000000000000000e+01 0.0000000000000000e+00 2.5000000000000000e+00 
142 2 4 2.2559723595316457e+00 0.0000000000000000e+00 1.0000000000000000e+00 1.4000000000000000e+01 2.0000000000000000e+00 2.5000000000000000e+00 
161 2 4 2.2559723595316457e+00 0.0000000000000000e+00 1.0000000000000000e+00 1.6000000000000000e+01 0.0000000000000000e+00 2.5000000000000000e+00 
162 2 4 2.2559723595316457e+00 0.0000000000000000e+00 1.0000000000000000e+00 1.6000000000000000e+01 2.0000000000000000e+00 2.5000000000000000e+00 
181 2 4 2.2559723595316457e+00 0.0000000000000000e+00 1.0000000000000000e+00 1.8000000000000000e+01 0.0000000000000000e+00 2.5000000000000000e+00 
182 2 4 2.2559723595316457e+00 0.0000000000000000e+00 1.0000000000000000e+00 1.8000000000000000e+01 2.0000000000000000e+00 2.5000000000000000e+00 
3 2 4 2.2559723595316457e+00 0.0000000000000000e+00 1.0000000000000000e+00 0.0000000000000000e+00 4.0000000000000000e+00 2.5000000000000000e+00 
4 2 4 2.2559723595316457e+00 0.0000000000000000e+00 1.0000000000000000e+00 0.0000000000000000e+00 6.0000000000000000e+00 2.5000000000000000e+00 
23 2 4 2.2559723595316457e+00 0.0000000000000000e+00 1.0000000000000000e+00 2.0000000000000000e+00 4.0000000000000000e+00 2.5000000000000000e+00 
24 2 4 2.2559723595316457e+00 0.0000000000000000e+00 1.0000000000000000e+00 2.0000000000000000e+00 6.0000000000000000e+00 2.5000000000000000e+00 
43 2 4 2.2559723595316457e+00 0.0000000000000000e+00 1.0000000000000000e+00 4.0000000000000000e+00 4.0000000000000000e+00 2.5000000000000000e+00 
44 2 4 2.2559723595316457e+00 0.0000000000000000e+00 1.0000000000000000e+00 4.0000000000000000e+00 6.0000000000000000e+00 2.5000000000000000e+00 
63 2 4 2.2559723595316457e+00 0.0000000000000000e+00 1.0000000000000000e+00 6.0000000000000000e+00 4.0000000000000000e+00 2.5000000000000000e+00 
64 2 4 2.2559723595316457e+00 0.0000000000000000e+00 1.0000000000000000e+00 6.0000000000000000e+00 6.0000000000000000e+00 2.5000000000000000e+00 
83 2 4 2.2559723595316457e+00 0.0000000000000000e+00 1.0000000000000000e+00 8.0000000000000000e+00 4.0000000000000000e+00 2.5000000000000000e+00 
84 2 4 2.2559723595316457e+00 0.0000000000000000e+00 1.0000000000000000e+00 8.0000000000000000e+00 6.0000000000000000e+00 2.5000000000000000e+00 
103 2 4 2.2559723595316457e+00 0.0000000000000000e+00 1.0000000000000000e+00 1.0000000000000000e+01 4.0000000000000000e+00 2.5000000000000000e+00 
104 2 4 2.2559723595316457e+00 0.0000000000000000e+00 1.0000000000000000e+00 1.0000000000000000e+01 6.0000000000000000e+00 2.5000000000000000e+00 
123 2 4 2.2559723595316457e+00 0.0000000000000000e+00 1.0000000000000000e+00 1.2000000000000000e+01 4.0000000000000000e+00 2.5000000000000000e+00 
124 2 4 2.2559723595316457e+00 0.0000000000000000e+00 1.0000000000000000e+00 1.2000000000000000e+01 6.0000000000000000e+00 2.5000000000000000e+00 
143 2 4 2.2559723595316457e+00 0.0000000000000000e+00 1.0000000000000000e+00 1.4000000000000000e+01 4.0000000000000000e+00 2.5000000000000000e+00 
144 2 4 2.2559723595316457e+00 0.0000000000000000e+00 1.0000000000000000e+00 1.4000000000000000e+01 6.0000000000000000e+00 2.5000000000000000e+00 
163 2 4 2.2559723595316457e+00 0.0000000000000000e+00 1.0000000000000000e+00 1.6000000000000000e+01 4.0000000000000000e+00 2.5000000000000000e+00 
164 2 4 2.2559723595316457e+00 0.0000000000000000e+00 1.0000000000000000e+00 1.6000000000000000e+01 6.0000000000000000e+00 2.5000000000000000e+00 
183 2 4 2.2559723595316457e+00 0.0000000000000000e+00 1.0000000000000000e+00 1.8000000000000000e+01 4.0000000000000000e+00 2.5000000000000000e+00 
184 2 4 2.2559723595316457e+00 0.0000000000000000e+00 1.0000000000000000e+00 1.8000000000000000e+01 6.0000000000000000e+00 2.5000000000000000e+00 
5 2 4 2.2559723595316457e+00 0.0000000000000000e+00 1.0000000000000000e+00 0.0000000000000000e+00 8.0000000000000000e+00 2.5000000000000000e+00 
25 2 4 2.2559723595316457e+00 0.0000000000000000e+00 1.0000000000000000e+00 2.0000000000000000e+00 8.0000000000000000e+00 2.5000000000000000e+00 
45 2 4 2.2559723595316457e+00 0.0000000000000000e+00 1.0000000000000000e+00 4.0000000000000000e+00 8.0000000000000000e+00 2.5000000000000000e+00 
65 2 4 2.2559723595316457e+00 0.0000000000000000e+00 1.0000000000000000e+00 6.0000000000000000e+00 8.0000000000000000e+00 2.5000000000000000e+00 
85 2 4 2.2559723595316457e+00 0.0000000000000000e+00 1.0000000000000000e+00 8.0000000000000000e+00 8.0000000000000000e+00 2.5000000000000000e+00 
105 2 4 2.2559723595316457e+00 0.0000000000000000e+00 1.0000000000000000e+00 1.0000000000000000e+01 8.0000000000000000e+00 2.5000000000000000e+00 
125 2 4 2.2559723595316457e+00 0.0000000000000000e+00 1.0000000000000000e+00 1.2000000000000000e+01 8.0000000000000000e+00 2.5000000000000000e+00 
145 2 4 2.2559723595316457e+00 0.0000000000000000e+00 1.0000000000000000e+00 1.4000000000000000e+01 8.0000000000000000e+00 2.5000000000000000e+00 
165 2 4 2.2559723595316457e+00 -1.8992642818344263e-01 1.0000000000000000e+00 1.6000000000000000e+01 8.0000000000000000e+00 2.5000000000000000e+00 
185 2 4 2.2559723595316457e+00 -2.3121770850361356e-01 1.0000000000000000e+00 1.8000000000000000e+01 8.0000000000000000e+00 2.5000000000000000e+00 
6 2 4 2.2559723595316457e+00 0.0000000000000000e+00 1.0000000000000000e+00 0.0000000000000000e+00 1.0000000000000000e+01 2.5000000000000000e+00 
7 2 4 2.2559723595316457e+00 0.0000000000000000e+00 1.0000000000000000e+00 0.0000000000000000e+00 1.2000000000000000e+01 2.5000000000000000e+00 
26 2 4 2.2559723595316457e+00 0.0000000000000000e+00 1.0000000000000000e+00 2.0000000000000000e+00 1.0000000000000000e+01 2.5000000000000000e+00 
27 2 4 2.2559723595316457e+00 0.0000000000000000e+00 1.0000000000000000e+00 2.0000000000000000e+00 1.2000000000000000e+01 2.5000000000000000e+00 
46 2 4 2.2559723595316457e+00 0.0000000000000000e+00 1.0000000000000000e+00 4.0000000000000000e+00 1.0000000000000000e+01 2.5000000000000000e+00 
47 2 4 2.2559723595316457e+00 0.0000000000000000e+00 1.0000000000000000e+00 4.0000000000000000e+00 1.2000000000000000e+01 2.5000000000000000e+00 
66 2 4 2.2559723595316457e+00 0.0000000000000000e+00 1.0000000000000000e+00 6.0000000000000000e+00 1.0000000000000000e+01 2.5000000000000000e+00 
67 2 4 2.2559723595316457e+00 0.0000000000000000e+00 1.0000000000000000e+00 6.0000000000000000e+00 1.2000000000000000e+01 2.5000000000000000e+00 
86 2 4 2.2559723595316457e+00 0.0000000000000000e+00 1.0000000000000000e+00 8.0000000000000000e+00 1.0000000000000000e+01 2.5000000000000000e+00 
87 2 4 2.2559723595316457e+00 0.0000000000000000e+00 1.0000000000000000e+00 8.0000000000000000e+00 1.2000000000000000e+01 2.5000000000000000e+00 
106 2 4 2.2559723595316457e+00 0.0000000000000000e+00 1.0000000000000000e+00 1.0000000000000000e+01 1.0000000000000000e+01 2.5000000000000000e+00 
107 2 4 2.2559723595316457e+00 0.0000000000000000e+00 1.0000000000000000e+00 1.0000000000000000e+01 1.2000000000000000e+01 2.5000000000000000e+00 
126 2 4 2.2559723595316457e+00 0.0000000000000000e+00 1.0000000000000000e+00 1.2000000000000000e+01 1.0000000000000000e+01 2.5000000000000000e+00 
127 2 4 2.2559723595316457e+00 0.0000000000000000e+00 1.0000000000000000e+00 1.2000000000000000e+01 1.2000000000000000e+01 2.5000000000000000e+00 
146 2 4 2.2559723595316457e+00 -1.8992625701748259e-01 1.0000000000000000e+00 1.4000000000000000e+01 1.0000000000000000e+01 2.5000000000000000e+00 
147 2 4 2.2559723595316457e+00 -2.3120024814106063e-01 1.0000000000000000e+00 1.4000000000000000e+01 1.2000000000000000e+01 2.5000000000000000e+00 
166 2 4 2.2559723595316457e+00 -5.6498406971442058e+01 1.0000000000000000e+00 1.6000000000000000e+01 1.0000000000000000e+01 2.5000000000000000e+00 
167 2 4 2.2559723595316457e+00 -6.5821543394083662e+01 1.0000000000000000e+00 1.6000000000000000e+01 1.2000000000000000e+01 2.5000000000000000e+00 
186 2 4 2.2559723595316457e+00 -6.5871653915121186e+01 1.0000000000000000e+00 1.8000000000000000e+01 1.0000000000000000e+01 2.5000000000000000e+00 
187 2 4 2.2559723595316457e+00 -7.1574468087344954e+01 1.0000000000000000e+00 1.8000000000000000e+01 1.2000000000000000e+01 2.5000000000000000e+00 
8 2 4 2.2559723595316457e+00 0.0000000000000000e+00 1.0000000000000000e+00 0.0000000000000000e+00 1.4000000000000000e+01 2.5000000000000000e+00 
9 2 4 2.2559723595316457e+00 0.0000000000000000e+00 1.0000000000000000e+00 0.0000000000000000e+00 1.6000000000000000e+01 2.5000000000000000e+00 
28 2 4 2.2559723595316457e+00 0.0000000000000000e+00 1.0000000000000000e+00 2.0000000000000000e+00 1.4000000000000000e+01 2.5000000000000000e+00 
29 2 4 2.2559723595316457e+00 0.0000000000000000e+00 1.0000000000000000e+00 2.0000000000000000e+00 1.6000000000000000e+01 2.5000000000000000e+00 
48 2 4 2.2559723595316457e+00 0.0000000000000000e+00 1.0000000000000000e+00 4.0000000000000000e+00 1.4000000000000000e+01 2.5000000000000000e+00 
49 2 4 2.2559723595316457e+00 0.0000000000000000e+00 1.0000000000000000e+00 4.0000000000000000e+00 1.6000000000000000e+01 2.5000000000000000e+00 
68 2 4 2.2559723595316457e+00 0.0000000000000000e+00 1.0000000000000000e+00 6.0000000000000000e+00 1.4000000000000000e+01 2.5000000000000000e+00 
69 2 4 2.2559723595316457e+00 0.0000000000000000e+00 1.0000000000000000e+00 6.0000000000000000e+00 1.6000000000000000e+01 2.5000000000000000e+00 
88 2 4 2.2559723595316457e+00 0.0000000000000000e+00 1.0000000000000000e+00 8.0000000000000000e+00 1.4000000000000000e+01 2.5000000000000000e+00 
89 2 4 2.2559723595316457e+00 0.0000000000000000e+00 1.0000000000000000e+00 8.0000000000000000e+00 1.6000000000000000e+01 2.5000000000000000e+00 
108 2 4 2.2559723595316457e+00 0.0000000000000000e+00 1.0000000000000000e+00 1.0000000000000000e+01 1.4000000000000000e+01 2.5000000000000000e+00 
109 2 4 2.2559723595316457e+00 0.0000000000000000e+00 1.0000000000000000e+00 1.0000000000000000e+01 1.6000000000000000e+01 2.5000000000000000e+00 
128 2 4 2.2559723595316457e+00 0.0000000000000000e+00 1.0000000000000000e+00 1.2000000000000000e+01 1.4000000000000000e+01 2.5000000000000000e+00 
129 2 4 2.2559723595316457e+00 0.0000000000000000e+00 1.0000000000000000e+00 1.2000000000000000e+01 1.6000000000000000e+01 2.5000000000000000e+00 
148 2 4 2.2559723595316457e+00 -2.3139153547216304e-01 1.0000000000000000e+00 1.4000000000000000e+01 1.4000000000000000e+01 2.5000000000000000e+00 
149 2 4 2.2559723595316457e+00 -2.3137788450741292e-01 1.0000000000000000e+00 1.4000000000000000e+01 1.6000000000000000e+01 2.5000000000000000e+00 
168 2 4 2.2559723595316457e+00 -6.5373067635981982e+01 1.0000000000000000e+00 1.6000000000000000e+01 1.4000000000000000e+01 2.5000000000000000e+00 
169 2 4 2.2559723595316457e+00 -6.5324276681453398e+01 1.0000000000000000e+00 1.6000000000000000e+01 1.6000000000000000e+01 2.5000000000000000e+00 
188 2 4 2.2559723595316457e+00 -7.1302949268809385e+01 1.0000000000000000e+00 1.8000000000000000e+01 1.4000000000000000e+01 2.5000000000000000e+00 
189 2 4 2.2559723595316457e+00 -7.1272975089897173e+01 1.0000000000000000e+00 1.8000000000000000e+01 1.6000000000000000e+01 2.5000000000000000e+00 
10 2 4 2.2559723595316457e+00 0.0000000000000000e+00 1.0000000000000000e+00 0.0000000000000000e+00 1.8000000000000000e+01 2.5000000000000000e+00 
30 2 4 2.2559723595316457e+00 0.0000000000000000e+00 1.0000000000000000e+00 2.0000000000000000e+00 1.8000000000000000e+01 2.5000000000000000e+00 
50 2 4 2.2559723595316457e+00 0.0000000000000000e+00 1.0000000000000000e+00 4.0000000000000000e+00 1.8000000000000000e+01 2.5000000000000000e+00 
70 2 4 2.2559723595316457e+00 0.0000000000000000e+00 1.0000000000000000e+00 6.0000000000000000e+00 1.8000000000000000e+01 2.5000000000000000e+00 
90 2 4 2.2559723595316457e+00 0.0000000000000000e+00 1.0000000000000000e+00 8.0000000000000000e+00 1.8000000000000000e+01 2.5000000000000000e+00 
110 2 4 2.2559723595316457e+00 0.0000000000000000e+00 1.0000000000000000e+00 1.0000000000000000e+01 1.8000000000000000e+01 2.5000000000000000e+00 
130 2 4 2.2559723595316457e+00 0.0000000000000000e+00 1.0000000000000000e+00 1.2000000000000000e+01 1.8000000000000000e+01 2.5000000000000000e+00 
150 2 4 2.2559723595316457e+00 -2.3139180992738126e-01 1.0000000000000000e+00 1.4000000000000000e+01 1.8000000000000000e+01 2.5000000000000000e+00 
170 2 4 2.2559723595316457e+00 -6.5352556034749512e+01 1.0000000000000000e+00 1.6000000000000000e+01 1.8000000000000000e+01 2.5000000000000000e+00 
190 2 4 2.2559723595316457e+00 -7.1431820088547980e+01 1.0000000000000000e+00 1.8000000000000000e+01 1.8000000000000000e+01 2.5000000000000000e+00 
547 149 2 1.0279999997182354e+00 1.0471410894597886e+03 1.0000000000000000e+00 1.9160538205280506e+01 6.5868213671448447e-02 3.4258234628921819e+01 
546 148 2 1.0279999997134117e+00 1.0471372348793864e+03 1.0000000000000000e+00 1.8617981655750285e+01 6.3823862445810314e-02 3.4270405632980832e+01 
1887 1489 2 1.0279999997622207e+00 -1.4341066375106034e+03 1.0000000000000000e+00 1.8879295981834741e+01 3.1761878893095258e-01 3.4479135857843730e+01 
1886 1488 2 1.0279999997626068e+00 -1.4341068285256576e+03 1.0000000000000000e+00 1.8905266783925637e+01 3.1779866535446638e-01 3.4478721098180934e+01 
510 112 2 1.0279999997777398e+00 -4.9293857688613957e+02 1.0000000000000000e+00 1.9001930076318033e+01 3.1503013520960871e-01 3.4491086352739742e+01 
511 113 2 1.0279999997743037e+00 -4.9294027907360118e+02 1.0000000000000000e+00 1.8782947330153128e+01 3.1341687414666908e-01 3.4494466542363106e+01 
1783 1385 2 1.0279999999161253e+00 -6.0277310252394782e+03 1.0000000000000000e+00 1.9381325815845521e+01 1.5359707223867294e-01 3.4611433533517818e+01 
1782 1384 2 1.0279999999037821e+00 -6.0277358163065528e+03 1.0000000000000000e+00 1.8413521953953069e+01 1.4929049114557630e-01 3.4625147880970836e+01 
1795 1397 2 1.0279999999120808e+00 -7.6032596735647348e+03 1.0000000000000000e+00 1.9131361938584018e+01 3.3761327402791719e-01 3.4659107188011767e+01 
1794 1396 2 1.0279999999035951e+00 -7.6032497957144296e+03 1.0000000000000000e+00 1.8661102983314006e+01 3.3496709478094921e-01 3.4664595673361710e+01 
1095 697 2 1.0279997780941881e+00 -8.9380840727580889e+01 1.0000000000000000e+00 1.5674821562137142e+01 2.2760416198189079e-01 4.0976359831083293e+01 
1178 780 2 1.0279995473203174e+00 -1.1821828346512166e+03 1.0000000000000000e+00 1.6376853613260064e+01 5.4394690189237829e-02 4.0917266571464040e+01 
1018 620 2 1.0279997350500485e+00 -5.7066527077722697e+02 1.0000000000000000e+00 1.5892709953147071e+01 2.8694209956272304e-01 4.1034531468043014e+01 
1877 1479 2 1.0279997384065849e+00 -5.1186400312428777e+03 1.0000000000000000e+00 1.5927747157114803e+01 3.1490585556106782e-01 4.1071485944088067e+01 
2035 1637 2 1.0280001387696662e+00 2.6743256736013659e+03 1.0000000000000000e+00 1.4809875899434630e+01 1.8814986289416849e-01 4.1353202809760482e+01 
1373 975 2 1.0279997194456107e+00 -9.1617777399675833e+03 1.0000000000000000e+00 1.6103468792934539e+01 3.7646577001141601e-01 4.1182798938275383e+01 
1835 1437 2 1.0279998695442005e+00 -2.2923322068192283e+03 1.0000000000000000e+00 1.5548953248252658e+01 5.2259524537881885e-01 4.1468956770957313e+01 
682 284 2 1.0280004769968272e+00 -6.6622711275787979e+03 1.0000000000000000e+00 1.4076874092075990e+01 2.6260727259522409e-01 4.2301658033005985e+01 
1811 1413 2 1.0280007841148406e+00 -5.7392098757083895e+03 1.0000000000000000e+00 1.3842221945722072e+01 6.9881871280704208e-02 4.2411662452579577e+01 
1099 701 2 1.0280002260206920e+00 1.8458464498802775e+03 1.0000000000000000e+00 1.4138075940411957e+01 3.9926726882521146e-01 4.2435225263819341e+01 
1101 703 2 1.0280003584480690e+00 -5.8644177610451570e+03 1.0000000000000000e+00 1.3662330289417294e+01 2.8243888036605125e-01 4.2999665772804526e+01 
1510 1112 2 1.0279994559385119e+00 1.5716695913801505e+03 1.0000000000000000e+00 1.6668519271465538e+01 1.3156098639625732e-01 4.1136139958103179e+01 
1401 1003 2 1.0279995107101321e+00 -3.7041383282657080e+03 1.0000000000000000e+00 1.6692224457130482e+01 4.9439800833483993e-01 4.1677443536108385e+01 
979 581 2 1.0279982402495256e+00 -1.7507010218480145e+03 1.0000000000000000e+00 1.9654552207519011e+01 7.2883581643664253e-01 4.2122530383670707e+01 
978 580 2 1.0279982696497563e+00 -1.7506847088130598e+03 1.0000000000000000e+00 1.8243089588318576e+01 7.3796200502692444e-01 4.2135103282275054e+01 
1122 724 2 1.0280003181584214e+00 -1.7394379540864604e+03 1.0000000000000000e+00 1.7527145661714457e+01 7.0860820750944364e-01 4.2626909381792338e+01 
1245 847 2 1.0280006117082301e+00 -2.2356011588488155e+02 1.0000000000000000e+00 1.7787283504584643e+01 9.7029014967509153e-01 4.2873251931595718e+01 
1804 1406 2 1.0280003845536971e+00 -2.0070683599325816e+03 1.0000000000000000e+00 1.5708489441082014e+01 5.4578899926272113e+00 4.1771442519422351e+01 
1978 1580 2 1.0280006643632187e+00 2.7981780243530206e+03 1.0000000000000000e+00 1.6459407245078964e+01 5.5363866090361800e+00 4.1423440740308727e+01 
1096 698 2 1.0280001734939250e+00 -3.2552644213184603e+03 1.0000000000000000e+00 1.5443678861387216e+01 5.2194474466002037e+00 4.2040214036387702e+01 
1845 1447 2 1.0279998595790816e+00 -6.0066979138354861e+02 1.0000000000000000e+00 1.5193243175828268e+01 5.6712362013636346e+00 4.2178259076521357e+01 
1504 1106 2 1.0279995749760289e+00 -1.1428216559053897e+03 1.0000000000000000e+00 1.5084884232478556e+01 5.1425228793421880e+00 4.2364715898553918e+01 
1147 749 2 1.0279989719034757e+00 -1.8314416676824856e+03 1.0000000000000000e+00 1.4857700651746574e+01 4.9393095590927656e+00 4.2695295232839797e+01 
1566 1168 2 1.0279999572790075e+00 4.6798826661669209e+03 1.0000000000000000e+00 1.6431591799251901e+01 6.6016304425986121e+00 4.1481346247189521e+01 
1734 1336 2 1.0279986513663981e+00 1.7315307401903019e+03 1.0000000000000000e+00 1.4656631908763083e+01 4.8240140613646361e+00 4.2998325140533083e+01 
1220 822 2 1.0280006175117871e+00 -4.2742982093591845e+03 1.0000000000000000e+00 1.8111375885716637e+01 5.3342200833420597e+00 4.1268099692860552e+01 
1217 819 2 1.0280006093029537e+00 -4.2743363252072613e+03 1.0000000000000000e+00 1.9845446711143595e+01 5.3509148239536035e+00 4.1244698142682630e+01 
1839 1441 2 1.0280006551204166e+00 -2.6743641861117167e+03 1.0000000000000000e+00 1.7764236365672168e+01 5.4252280302130984e+00 4.1252793322751479e+01 
915 517 2 1.0280005595490913e+00 6.7124007289611973e+02 1.0000000000000000e+00 1.8826000189856888e+01 4.9034515429627747e+00 4.1489672674162946e+01 
914 516 2 1.0280005589537986e+00 6.7126250237863383e+02 1.0000000000000000e+00 1.9112343646319616e+01 4.9064496537316886e+00 4.1484630788111730e+01 
694 296 2 1.0280005243028165e+00 -1.3545218435324221e+03 1.0000000000000000e+00 1.8961951757278758e+01 4.8518304759319744e+00 4.1532424782995385e+01 
695 297 2 1.0280005242242578e+00 -1.3545222709018212e+03 1.0000000000000000e+00 1.8972425970584112e+01 4.8518613830541888e+00 4.1532303684888397e+01 
1917 1519 2 1.0280002071971284e+00 -7.9644396505039922e+03 1.0000000000000000e+00 1.8020082734623585e+01 5.7992585729271235e+00 4.1193729682195574e+01 
1920 1522 2 1.0280001668908789e+00 -7.9644499910121058e+03 1.0000000000000000e+00 1.9941763756986607e+01 5.8215557402731868e+00 4.1175338807690665e+01 
632 234 2 1.0280001589882879e+00 -9.6427564239004573e+02 1.0000000000000000e+00 1.9882746505755829e+01 4.6352967976897892e+00 4.1937856422502193e+01 
629 231 2 1.0280001026036854e+00 -9.6429068530611698e+02 1.0000000000000000e+00 1.8050806531201534e+01 4.6271459824722161e+00 4.1978925236688127e+01 
527 129 2 1.0280014106442419e+00 3.2907334545008475e+03 1.0000000000000000e+00 1.7010277289794232e+01 4.7318519403645061e+00 4.2868394348429028e+01 
1107 709 2 1.0279987104701016e+00 -1.6205667657250460e+03 1.0000000000000000e+00 1.6407177220264732e+01 7.4293596781110001e+00 4.2067717325691326e+01 
1226 828 2 1.0279989499467570e+00 6.7354034935524733e+03 1.0000000000000000e+00 1.5967822130879837e+01 7.1832961998800142e+00 4.2163130825288398e+01 
1991 1593 2 1.0279986019187799e+00 9.4620532084221463e+02 1.0000000000000000e+00 1.6018021046431070e+01 7.3225624435199990e+00 4.2265677978869270e+01 
675 277 2 1.0279976363078118e+00 -5.0779838044419621e+03 1.0000000000000000e+00 1.6539594760645372e+01 7.8490686511248873e+00 4.2437873283549813e+01 
1836 1438 2 1.0279983242478568e+00 1.3672998185260662e+03 1.0000000000000000e+00 1.5902256710286409e+01 7.3345511000754540e+00 4.2458633090512691e+01 
1417 1019 2 1.0279971307061029e+00 4.9950492514881016e+03 1.0000000000000000e+00 1.6250642559042277e+01 8.7526557540606031e+00 4.3274357967118263e+01 
480 82 2 1.0279980769717909e+00 4.7606518986651836e+03 1.0000000000000000e+00 1.6933115210833595e+01 7.8577007101168670e+00 4.2351298000265615e+01 
2076 1678 2 1.0279978176378342e+00 1.8520336617689807e+03 1.0000000000000000e+00 1.7342163629737747e+01 8.1347015727918439e+00 4.2631006014770954e+01 
1586 1188 2 1.0279976222621479e+00 -7.5081297844055803e+02 1.0000000000000000e+00 1.7211356417185424e+01 8.3820415813470923e+00 4.2807040559297221e+01 
1847 1449 2 1.0279995681066807e+00 -5.4070265206195072e+03 1.0000000000000000e+00 1.8986265910857487e+01 8.3753249289741163e+00 4.3104991563336704e+01 
1846 1448 2 1.0279995555976791e+00 -5.4070570191281367e+03 1.0000000000000000e+00 1.8973924556480153e+01 8.3733982000052141e+00 4.3104107311253152e+01 
975 577 2 1.0279922760599081e+00 -2.2094297119846447e+03 1.0000000000000000e+00 1.2782310706473709e+01 2.8735683520497224e+00 4.5531058314953519e+01 
1625 1227 2 1.0279947296438658e+00 5.8720623648663177e+03 1.0000000000000000e+00 1.2568914760031836e+01 3.1325028438372242e+00 4.5966835081519925e+01 
1029 631 2 1.0279954879404367e+00 5.4464746185891002e+01 1.0000000000000000e+00 1.2495316970804925e+01 3.2082222074861986e+00 4.6102852437649396e+01 
1876 1478 2 1.0279961687349959e+00 -4.5104953218299852e+03 1.0000000000000000e+00 1.2426819190261341e+01 3.2758329911559159e+00 4.6232098531311330e+01 
1643 1245 2 1.0279958526629576e+00 5.3891700389378157e+03 1.0000000000000000e+00 1.2460306020841394e+01 3.2437485165476514e+00 4.6174728941180142e+01 
610 212 2 1.0279945341180188e+00 -2.4891686940179866e+02 1.0000000000000000e+00 1.3388023385904836e+01 3.0884902756885393e+00 4.4164857737654131e+01 
1773 1375 2 1.0279950828675593e+00 2.0058492496959618e+03 1.0000000000000000e+00 1.3520616425861702e+01 6.4894023773651799e-01 4.3996181185910153e+01 
1447 1049 2 1.0279972567251430e+00 1.1400617112984477e+02 1.0000000000000000e+00 1.3451103937550485e+01 4.9034302593173773e-01 4.3929572987724335e+01 
1878 1480 2 1.0279971837833080e+00 -4.5547401324485354e+03 1.0000000000000000e+00 1.3431924657441050e+01 4.7211038952201451e-01 4.4004788353973048e+01 
676 278 2 1.0279966032211130e+00 -1.5311557912126793e+03 1.0000000000000000e+00 1.3449748934503768e+01 5.1850491467722293e-01 4.4033392435475228e+01 
1490 1092 2 1.0279971890300388e+00 -9.0740996097603568e+02 1.0000000000000000e+00 1.3439566459078735e+01 3.7106754834106143e-01 4.4564144475795260e+01 
1807 1409 2 1.0280125842808712e+00 -6.8756822896500107e+03 1.0000000000000000e+00 1.4487016911950713e+01 2.7960764091979926e+00 4.4885473253044680e+01 
1174 776 2 1.0279983262296617e+00 -2.2131082342997779e+03 1.0000000000000000e+00 1.3523597819705042e+01 2.6933925211615140e-01 4.4847826239284636e+01 
505 107 2 1.0280012189983501e+00 1.9264895512613064e+03 1.0000000000000000e+00 1.4275946607943625e+01 3.4856336436389196e-01 4.5649960283616821e+01 
1824 1426 2 1.0280025470620455e+00 1.0201304133521421e+03 1.0000000000000000e+00 1.4786175022480343e+01 3.2485257772693682e-01 4.6033378301446234e+01 
1295 897 2 1.0280025062819764e+00 -1.0448145272752504e+03 1.0000000000000000e+00 1.4906389492724893e+01 2.3468153777631118e-01 4.6145087686281897e+01 
721 323 2 1.0280022944952421e+00 -8.2881529700622548e+02 1.0000000000000000e+00 1.5123659768172606e+01 2.5819279991474958e-01 4.6285814519203214e+01 
1466 1068 2 1.0279963095637230e+00 -1.6675476639001701e+01 1.0000000000000000e+00 1.6262165081006906e+01 2.8510029591299554e-02 4.6412390765578230e+01 
1318 920 2 1.0279979285025065e+00 -1.5307067220560166e+03 1.0000000000000000e+00 1.8982394721152435e+01 1.7583985837096014e+00 4.3385138230625579e+01 
1319 921 2 1.0279979241430752e+00 -1.5307322985504011e+03 1.0000000000000000e+00 1.8941235203170816e+01 1.7588741109669277e+00 4.3386039712150485e+01 
928 530 2 1.0279981093924009e+00 -1.9550785282498016e+03 1.0000000000000000e+00 1.8835553551447067e+01 1.7446401934636599e+00 4.3416385926898684e+01 
925 527 2 1.0279981349912855e+00 -1.9551318125869300e+03 1.0000000000000000e+00 1.9087848552865399e+01 1.7410166639500870e+00 4.3415217200393897e+01 
1539 1141 2 1.0279983587566679e+00 -1.6473271051866882e+03 1.0000000000000000e+00 1.8835475333932948e+01 1.6546823079084849e+00 4.3757097039159639e+01 
1538 1140 2 1.0279983751677004e+00 -1.6473323524008517e+03 1.0000000000000000e+00 1.9085289265112007e+01 1.6497211517375294e+00 4.3760747861602781e+01 
1130 732 2 1.0280013994174677e+00 -2.4245556893529902e+03 1.0000000000000000e+00 1.9219169842865998e+01 3.1537259049142291e-01 4.3941822983458295e+01 
1131 733 2 1.0280013801636088e+00 -2.4245458377998757e+03 1.0000000000000000e+00 1.8702583842070624e+01 3.1741527810415937e-01 4.3942622577704334e+01 
1963 1565 2 1.0280022402653552e+00 4.6122125241302138e+03 1.0000000000000000e+00 1.9290054208551698e+01 4.9238735218676899e-01 4.4019300295855970e+01 
1962 1564 2 1.0280022066071668e+00 4.6122358189412689e+03 1.0000000000000000e+00 1.8634180535725278e+01 4.9289135155333053e-01 4.4020642916505977e+01 
608 210 2 1.0279980317384114e+00 -3.0154290849064137e+03 1.0000000000000000e+00 1.6940849406865858e+01 9.7854141284616147e-01 4.6613098471657054e+01 
1580 1182 2 1.0279978218892325e+00 -4.3203577383257038e+02 1.0000000000000000e+00 1.2241839099425599e+01 3.4590320020894096e+00 4.6595701676975693e+01 
1985 1587 2 1.0279981195911889e+00 2.3705685173701154e+03 1.0000000000000000e+00 1.2191928246622954e+01 3.5057135307855338e+00 4.6659597554009387e+01 
1117 719 2 1.0280040640218364e+00 -7.5690374943383649e+03 1.0000000000000000e+00 1.3185294713086591e+01 4.4976620520978017e+00 4.5053127722980300e+01 
806 408 2 1.0280048496888659e+00 2.5716889964861662e+03 1.0000000000000000e+00 1.3221697661883615e+01 4.9053985538894560e+00 4.5563026293977082e+01 
434 36 2 1.0279995624027296e+00 4.7627295069797801e+03 1.0000000000000000e+00 1.4422609995406777e+01 4.5217088705479593e+00 4.3363880585733526e+01 
735 337 2 1.0279991171028058e+00 2.6173625791751391e+01 1.0000000000000000e+00 1.4550652608296028e+01 4.3072657865105155e+00 4.3389139611968560e+01 
1530 1132 2 1.0279963058359038e+00 -2.6051772287885929e+03 1.0000000000000000e+00 1.3570229687573075e+01 3.3713719688944246e+00 4.4001760986217569e+01 
1475 1077 2 1.0279978701591754e+00 1.5011481257287069e+03 1.0000000000000000e+00 1.3700342487966587e+01 3.6046655245609545e+00 4.3906941995345960e+01 
1167 769 2 1.0280008264848517e+00 -2.1489975078152038e+03 1.0000000000000000e+00 1.4212921034096393e+01 4.2886493598569935e+00 4.3574701762121968e+01 
1186 788 2 1.0280011086143304e+00 -1.3899897227443205e+03 1.0000000000000000e+00 1.4200698686279438e+01 4.3163631627515517e+00 4.3584466178319069e+01 
1611 1213 2 1.0280010917852282e+00 7.8510559863609860e+03 1.0000000000000000e+00 1.4257504815870227e+01 4.4152289319216447e+00 4.3538288282308194e+01 
1244 846 2 1.0279995374409037e+00 -1.1608298602648495e+02 1.0000000000000000e+00 1.5938341522517488e+01 5.2628215960052733e+00 4.5966437134495550e+01 