LAMMPS data file via write_data, version 30 Jul 2016, timestep = 50400000

180 atoms
2 atom types

0.0000000000000000e+00 2.0000000000000000e+01 xlo xhi
0.0000000000000000e+00 2.0000000000000000e+01 ylo yhi
0.0000000000000000e+00 2.0000000000000000e+01 zlo zhi

Masses

1 3.896
2 4.31

Atoms # meso-molecular

51 1 2 1.0279998996215480e+00 -2.0525600416175683e+02 1.0000000000000000e+00 5.2970494461059561e+00 8.2847341474682734e-01 1.6597766228278161e+01 
173 1 2 1.0279999004792149e+00 -2.4680423381332048e+02 1.0000000000000000e+00 5.2946121368279542e+00 8.3875265316240499e-01 1.6605988581309742e+01 
54 1 2 1.0279999007907805e+00 -2.0965359757670990e+02 1.0000000000000000e+00 5.2925880725232384e+00 8.3423652682350879e-01 1.6605657481849747e+01 
122 1 2 1.0280001560438099e+00 -2.1660639143423481e+02 1.0000000000000000e+00 6.4445727180006305e+00 5.9671572155144004e-01 1.4964985800973647e+01 
116 1 2 1.0280001552659968e+00 -3.1419147135463123e+02 1.0000000000000000e+00 6.4435540185679923e+00 5.9716692062325205e-01 1.4966734486707050e+01 
93 1 2 1.0280001542988522e+00 -2.3308123476597848e+02 1.0000000000000000e+00 6.4423383687318410e+00 5.9774389295526920e-01 1.4968708100833249e+01 
30 1 2 1.0279997689912592e+00 -1.9242824559488545e+02 1.0000000000000000e+00 6.4854437089684387e+00 4.0129260089655699e-01 1.4575617590023917e+01 
170 1 2 1.0279997690297935e+00 -2.3177355818465605e+02 1.0000000000000000e+00 6.4855149413455866e+00 4.0131547350840147e-01 1.4575568502456129e+01 
58 1 2 1.0279997688428426e+00 -2.5650457301479139e+02 1.0000000000000000e+00 6.4851274793005045e+00 4.0118675450732111e-01 1.4575839642530422e+01 
149 1 2 1.0280000049580194e+00 -1.8896096290205904e+02 1.0000000000000000e+00 2.7787368685100224e+00 5.4658820497437119e+00 1.5590042753428090e+01 
4 1 2 1.0280000049549731e+00 -9.2360575075261153e+01 1.0000000000000000e+00 2.7787432850298073e+00 5.4658911891155517e+00 1.5590028890062669e+01 
21 1 2 1.0280000049551778e+00 -2.4276064909296110e+02 1.0000000000000000e+00 2.7787421955595342e+00 5.4658929733951886e+00 1.5590029560327784e+01 
89 1 2 1.0280000049547546e+00 -2.6697835828452037e+02 1.0000000000000000e+00 2.7787439046159643e+00 5.4658912752549442e+00 1.5590027953463725e+01 
119 1 2 1.0280000049532689e+00 -1.9820636887438155e+02 1.0000000000000000e+00 2.7787479858975939e+00 5.4658922853822087e+00 1.5590021561117224e+01 
139 1 2 1.0280000049528417e+00 -2.0779096105532702e+02 1.0000000000000000e+00 2.7787489617496592e+00 5.4658932914548046e+00 1.5590019647132781e+01 
84 1 2 1.0280000049568150e+00 -2.6430327408117040e+02 1.0000000000000000e+00 2.7787391721383350e+00 5.4658865129627019e+00 1.5590037179099330e+01 
106 1 2 1.0280000067048636e+00 -1.6703828545391366e+02 1.0000000000000000e+00 6.4030483890839305e+00 5.7199958525965426e+00 1.5988466033976449e+01 
92 1 2 1.0280000067836501e+00 -1.9582860179307556e+02 1.0000000000000000e+00 6.4106111331585973e+00 5.7534194164009653e+00 1.5990007827577584e+01 
117 1 2 1.0280000067683810e+00 -3.3349138335537828e+02 1.0000000000000000e+00 6.4105514775384256e+00 5.7547942031248729e+00 1.5989433771609995e+01 
20 1 2 1.0280000067629855e+00 -1.9362855026440286e+02 1.0000000000000000e+00 6.4105169517799991e+00 5.7551984923861079e+00 1.5989229262162358e+01 
134 1 2 1.0279999882134379e+00 -2.5471186485242418e+02 1.0000000000000000e+00 6.0188454126119870e+00 5.9136876514357732e+00 1.5803363017297389e+01 
87 1 2 1.0279999882744721e+00 -2.5463711359353408e+02 1.0000000000000000e+00 6.0197870042223522e+00 5.9146418780005749e+00 1.5803680205450018e+01 
177 1 2 1.0279999882764870e+00 -1.3561720615232633e+02 1.0000000000000000e+00 6.0198464844011506e+00 5.9146250235584956e+00 1.5803668023653339e+01 
175 1 2 1.0279999827989772e+00 -2.5933475922449628e+02 1.0000000000000000e+00 4.7143729435962758e+00 6.1051380536736055e-01 1.7856755188013629e+01 
5 1 2 1.0280000677938774e+00 -2.2900267008687030e+02 1.0000000000000000e+00 5.2538530842978801e+00 7.3718945291705740e-01 1.8391053953005514e+01 
11 1 2 1.0280000684044395e+00 -2.8594750333159493e+02 1.0000000000000000e+00 5.2506955224291616e+00 7.3166767338372396e-01 1.8391057700372528e+01 
113 1 2 1.0280000645298157e+00 -1.3147739165982222e+02 1.0000000000000000e+00 5.2634014539849527e+00 7.6038088960453976e-01 1.8390564273077501e+01 
85 1 2 1.0280000571285814e+00 -2.4281714205204074e+02 1.0000000000000000e+00 5.2636750085305444e+00 7.9558287655738635e-01 1.8389270267565621e+01 
25 1 2 1.0280000521835477e+00 -2.3070442112708972e+02 1.0000000000000000e+00 5.2611383060612873e+00 8.1408529535013885e-01 1.8387819592122007e+01 
81 1 2 1.0279999989051041e+00 -2.2328458822513829e+02 1.0000000000000000e+00 4.2648625887566949e+00 5.2676342102316438e+00 1.8500805966706558e+01 
70 1 2 1.0280000001635656e+00 -1.4623742573345720e+02 1.0000000000000000e+00 5.3206773229801847e+00 4.7852015855034864e+00 1.8186926354256126e+01 
156 1 2 1.0279999984239871e+00 -1.7008804175715889e+02 1.0000000000000000e+00 5.4995927739877439e+00 4.7125070303883616e+00 1.8680586796996828e+01 
99 1 2 1.0279999993149287e+00 -2.4935867579129149e+02 1.0000000000000000e+00 5.7135370031459969e+00 4.8721637421064958e+00 1.9040839841516945e+01 
16 1 2 1.0279999990623931e+00 -2.5805516167769389e+02 1.0000000000000000e+00 5.6033214584621138e+00 4.9511381652049238e+00 1.9263705609602102e+01 
43 1 2 1.0279999997875793e+00 -1.5483274478237183e+02 1.0000000000000000e+00 5.6512432622810662e+00 5.2630795917130602e+00 1.9428177136556762e+01 
132 1 2 1.0279999998615119e+00 -2.5466820911077681e+02 1.0000000000000000e+00 5.6459649298776045e+00 5.3130646609517296e+00 1.9445961075998497e+01 
62 1 2 1.0280000008794432e+00 -1.9041242348567795e+02 1.0000000000000000e+00 5.8208365741422297e+00 6.3014995419739686e+00 1.8807446264242568e+01 
15 1 2 1.0280000000203131e+00 -2.2007352444647995e+02 1.0000000000000000e+00 3.8296456575830380e+00 6.8332353449264014e+00 1.8522391850874303e+01 
44 1 2 1.0279999991416402e+00 -2.5021514509586217e+02 1.0000000000000000e+00 4.0315736834642317e+00 7.0832579147074588e+00 1.8568879632035010e+01 
26 1 2 1.0279999992931350e+00 -2.1163034950283432e+02 1.0000000000000000e+00 4.0626582703249730e+00 7.1123625697803234e+00 1.8535804659819828e+01 
32 1 2 1.0280000054954190e+00 -2.2971185549079718e+02 1.0000000000000000e+00 4.2378702660804404e+00 6.9979312581079016e+00 1.7865407404384801e+01 
67 1 2 1.0279999997336311e+00 -2.3929829072926771e+02 1.0000000000000000e+00 4.1826481414095307e+00 7.1822653727991916e+00 1.8435694485343436e+01 
47 1 2 1.0280000003614984e+00 -2.4637012625767434e+02 1.0000000000000000e+00 4.2275121269319333e+00 7.1871098510604705e+00 1.8323493348442192e+01 
142 1 2 1.0280000360397941e+00 -2.2818123104438106e+02 1.0000000000000000e+00 1.1841523832629930e+00 1.2667311708577174e+01 1.3164831202563470e+00 
56 1 2 1.0280000374488520e+00 -2.4870597097372573e+02 1.0000000000000000e+00 1.1702424558866866e+00 1.2665924152210328e+01 1.3211209516410438e+00 
180 1 2 1.0280000378386223e+00 -2.7469886650229887e+02 1.0000000000000000e+00 1.1663741057282708e+00 1.2665485066888515e+01 1.3223126344325224e+00 
148 1 2 1.0280000402519274e+00 -2.1954867007052238e+02 1.0000000000000000e+00 1.1416808735250450e+00 1.2662682983915786e+01 1.3293355968961931e+00 
103 1 2 1.0279999513981104e+00 -2.3064004654601925e+02 1.0000000000000000e+00 1.4802278360533869e+00 1.3123751800944756e+01 3.1823952105448389e-01 
88 1 2 1.0279999514018032e+00 -2.3737578460221172e+02 1.0000000000000000e+00 1.4802066865131853e+00 1.3123725133017608e+01 3.1821117301820934e-01 
14 1 2 1.0279999516756271e+00 -2.0453667667645433e+02 1.0000000000000000e+00 1.4772151056181495e+00 1.3125877437754879e+01 3.1488770952562961e-01 
18 1 2 1.0280000614016478e+00 -1.9535384855423192e+02 1.0000000000000000e+00 4.9907194885914502e-01 1.3465919943524428e+01 1.9976080386542105e+01 
29 1 2 1.0279982788436002e+00 -1.1406800892444170e+02 1.0000000000000000e+00 7.8430496609134961e+00 4.1371441266221813e+00 2.8596892720854674e+00 
109 1 2 1.0279982777633763e+00 -2.9884412136014089e+02 1.0000000000000000e+00 7.8421764332741741e+00 4.1390294972840165e+00 2.8575988240189734e+00 
118 1 2 1.0279982777169832e+00 -1.8730307703144081e+02 1.0000000000000000e+00 7.8420485378409426e+00 4.1391023406382006e+00 2.8573418737072540e+00 
57 1 2 1.0279982776612573e+00 -1.8610832897810752e+02 1.0000000000000000e+00 7.8418459816806649e+00 4.1391456891610305e+00 2.8569538991222685e+00 
136 1 2 1.0279982777367731e+00 -2.5980271218731662e+02 1.0000000000000000e+00 7.8414936732062790e+00 4.1393253662529812e+00 2.8562377181489507e+00 
102 1 2 1.0279982791761832e+00 -1.1670761152364142e+02 1.0000000000000000e+00 7.8411396402300424e+00 4.1338078705234533e+00 2.8570219777378552e+00 
73 1 2 1.0279982788738220e+00 -2.6401503133506401e+02 1.0000000000000000e+00 7.8406703833336149e+00 4.1342498967021664e+00 2.8560394412080474e+00 
121 1 2 1.0280017217335167e+00 -3.3534417297862893e+02 1.0000000000000000e+00 1.0690667417864917e+01 3.7138715175072106e+00 1.3163099096819733e+00 
78 1 2 1.0280017217336530e+00 -2.4728324212105198e+02 1.0000000000000000e+00 1.0690667296241541e+01 3.7138724974634041e+00 1.3163094153812216e+00 
164 1 2 1.0280017217309003e+00 -2.6815149249631105e+02 1.0000000000000000e+00 1.0690685329076782e+01 3.7139238491695057e+00 1.3163286612600467e+00 
49 1 2 1.0280017217334818e+00 -2.3893192056463283e+02 1.0000000000000000e+00 1.0690666957528938e+01 3.7138691646080213e+00 1.3163097057645001e+00 
39 1 2 1.0280017217335371e+00 -3.2077404659227687e+02 1.0000000000000000e+00 1.0690668545236264e+01 3.7138765424029647e+00 1.3163106122299681e+00 
41 1 2 1.0280017217335504e+00 -1.9551854439776278e+02 1.0000000000000000e+00 1.0690668689041047e+01 3.7138773228710678e+00 1.3163106635326360e+00 
68 1 2 1.0280017217335211e+00 -2.4901029120706261e+02 1.0000000000000000e+00 1.0690667572472236e+01 3.7138721928254208e+00 1.3163100097932523e+00 
46 1 2 1.0280001434748787e+00 -2.2158549483661108e+02 1.0000000000000000e+00 7.8980837068086336e+00 1.4053233617458336e-01 8.7888071480583694e+00 
28 1 2 1.0280001552247326e+00 -1.3189332058844397e+02 1.0000000000000000e+00 7.9669101452902371e+00 5.3028957856481380e-02 8.5533058100154413e+00 
111 1 2 1.0280001551783955e+00 -2.4843153631660928e+02 1.0000000000000000e+00 7.9691966380807440e+00 5.0884248121656317e-02 8.5479487010739366e+00 
108 1 2 1.0280001556864140e+00 -2.7886915456838472e+02 1.0000000000000000e+00 7.9513094569872509e+00 7.1473674276295363e-02 8.5957470470512369e+00 
22 1 2 1.0279999242032407e+00 -1.9305126894325898e+02 1.0000000000000000e+00 7.7838622170345966e+00 1.3531560750752608e-01 9.5371012186767636e+00 
127 1 2 1.0279999006825047e+00 -2.7707703434366289e+02 1.0000000000000000e+00 1.1427168534241492e+01 1.8183271029004946e+01 6.2569285662211733e+00 
107 1 2 1.0279998303555344e+00 -1.2737251837881250e+02 1.0000000000000000e+00 1.1452495169043683e+01 1.8187001132292579e+01 6.2236845835761585e+00 
120 1 2 1.0279998313728436e+00 -1.4129245926216666e+02 1.0000000000000000e+00 1.1452442318402449e+01 1.8187300169994401e+01 6.2238247962207156e+00 
155 1 2 1.0280000808391971e+00 -2.2267723225490087e+02 1.0000000000000000e+00 1.1831734064176963e+01 1.8187338530185109e+01 5.9930965552335405e+00 
77 1 2 1.0279994421267569e+00 -1.4727731010555274e+02 1.0000000000000000e+00 1.2195989757687661e+01 1.7883748252741697e+01 5.8275949699710452e+00 
59 1 2 1.0279994423416854e+00 -1.7634953233637154e+02 1.0000000000000000e+00 1.2195920569742395e+01 1.7883797904049025e+01 5.8275910145023095e+00 
143 1 2 1.0279995089675753e+00 -2.7758587668094140e+02 1.0000000000000000e+00 1.2176766186055445e+01 1.7900079204297732e+01 5.8269085005035146e+00 
166 1 2 1.0279993587091458e+00 -2.1462688726009100e+02 1.0000000000000000e+00 9.7314077216422472e+00 1.8838482340453723e+01 7.8553315506123091e+00 
79 1 2 1.0279994462941906e+00 -1.5438203140317844e+02 1.0000000000000000e+00 9.6961096584619284e+00 1.8857442400738051e+01 7.8283728589381294e+00 
37 1 2 1.0279994595395521e+00 -2.2866879240125522e+02 1.0000000000000000e+00 9.6910800432596638e+00 1.8859951605854601e+01 7.8251550086240060e+00 
168 1 2 1.0279994638123826e+00 -2.5293889702208671e+02 1.0000000000000000e+00 9.6894696545927488e+00 1.8861223521893873e+01 7.8238044185842321e+00 
141 1 2 1.0280000240186882e+00 -1.8967962976366243e+02 1.0000000000000000e+00 9.6944769641802377e+00 1.8918805857578668e+01 8.5977914262607325e+00 
140 1 2 1.0280000297513461e+00 -1.5126976046045283e+02 1.0000000000000000e+00 9.4412897574808152e+00 1.9007093028446867e+01 8.8789494940944067e+00 
137 1 2 1.0280004571459569e+00 -2.1145416720964897e+02 1.0000000000000000e+00 1.2612844816900864e+01 1.8721954650886484e+01 9.4878908195321170e+00 
1 1 2 1.0280004571368773e+00 -2.0859485414226273e+02 1.0000000000000000e+00 1.2612844249549878e+01 1.8721952468809313e+01 9.4878916364565207e+00 
94 1 2 1.0280004571131183e+00 -2.0277720682872834e+02 1.0000000000000000e+00 1.2612842970892723e+01 1.8721951342159265e+01 9.4878936587596048e+00 
163 1 2 1.0280004571407395e+00 -3.7446542393980206e+02 1.0000000000000000e+00 1.2612844461558401e+01 1.8721952739940015e+01 9.4878913051697591e+00 
157 1 2 1.0280004572156831e+00 -2.8789323589886050e+02 1.0000000000000000e+00 1.2612847894329406e+01 1.8721943067561064e+01 9.4878852673357308e+00 
36 1 2 1.0280004571083914e+00 -2.0175935898961541e+02 1.0000000000000000e+00 1.2612842616965857e+01 1.8721948870707102e+01 9.4878941151174612e+00 
171 1 2 1.0280004921154744e+00 -2.1349452090812292e+02 1.0000000000000000e+00 1.2614824600856517e+01 1.8730111065080280e+01 9.4843677860747793e+00 
80 1 2 1.0279991385773584e+00 -2.3962049735343018e+02 1.0000000000000000e+00 7.7714799088593605e+00 1.9971535178495298e+01 1.0058909722105152e+01 
82 1 2 1.0279999346698281e+00 -2.3419307507277915e+02 1.0000000000000000e+00 7.5101560314706264e+00 1.9753058626737769e+01 1.1612361978040015e+01 
7 1 2 1.0280001160639096e+00 -2.2260766474622619e+02 1.0000000000000000e+00 7.4563398484249914e+00 1.6748262665112904e+01 1.3068193348046472e+01 
98 1 2 1.0280000713210871e+00 -2.5539229702021049e+02 1.0000000000000000e+00 7.4463306147638848e+00 1.6752343952128253e+01 1.3116812992798815e+01 
147 1 2 1.0280000506026152e+00 -2.2382755565293530e+02 1.0000000000000000e+00 7.4388441624751405e+00 1.6750969817940657e+01 1.3112876151713659e+01 
50 1 2 1.0280000461624534e+00 -1.8022508978532682e+02 1.0000000000000000e+00 7.4376844985862336e+00 1.6751410679176455e+01 1.3114225480165127e+01 
75 1 2 1.0280000457980967e+00 -2.0122298460695146e+02 1.0000000000000000e+00 7.4375171796308628e+00 1.6751330421643441e+01 1.3113949550454768e+01 
17 1 2 1.0280000280893973e+00 -2.4657573481904936e+02 1.0000000000000000e+00 7.4321749201125549e+00 1.6752041702885222e+01 1.3115203484578815e+01 
40 1 2 1.0279999484018687e+00 -1.9843541360494356e+02 1.0000000000000000e+00 7.4042056797191620e+00 1.6753728235227364e+01 1.3095594480719075e+01 
66 1 2 1.0279999249439058e+00 -2.0351694893840119e+02 1.0000000000000000e+00 7.5853453497268548e+00 1.9835747591905569e+01 1.2545907131677149e+01 
71 1 2 1.0279998771741541e+00 -2.0087310460718106e+02 1.0000000000000000e+00 7.5704887015361351e+00 1.9855043994879445e+01 1.2564375629294581e+01 
6 1 2 1.0279998548172222e+00 -2.8406301892858193e+02 1.0000000000000000e+00 7.5646734274039904e+00 1.9867549555145246e+01 1.2567615282480944e+01 
178 1 2 1.0279999662186623e+00 -1.9879730328162663e+02 1.0000000000000000e+00 7.6142570256903790e+00 1.9873585535529124e+01 1.2463178096956515e+01 
100 1 2 1.0280002726165058e+00 -2.0163843018394331e+02 1.0000000000000000e+00 7.7616125890596983e+00 1.9914526990036705e+01 1.1205813415043711e+01 
153 1 2 1.0280002901836827e+00 -2.3032511590296949e+02 1.0000000000000000e+00 7.7604312828187361e+00 1.9918488214054658e+01 1.1207341912235950e+01 
146 1 2 1.0280000000109277e+00 -1.8791963574770909e+02 1.0000000000000000e+00 1.1383653245582348e+01 1.1968299480727943e+01 1.3532123495519700e+01 
123 1 2 1.0280000000109810e+00 -2.0179340429064951e+02 1.0000000000000000e+00 1.1383630055654335e+01 1.1968228827404596e+01 1.3531975196706853e+01 
69 1 2 1.0280000000093692e+00 -2.0515522850690496e+02 1.0000000000000000e+00 1.1383141240781535e+01 1.1971672582723741e+01 1.3531108107549890e+01 
86 1 2 1.0280000000096583e+00 -1.8670111290089127e+02 1.0000000000000000e+00 1.1383681769235920e+01 1.1968062728722492e+01 1.3532152922312275e+01 
128 1 2 1.0280000000111742e+00 -2.6784382011811982e+02 1.0000000000000000e+00 1.1383683703869989e+01 1.1968224900869789e+01 1.3532239114262101e+01 
115 1 2 1.0280000000109297e+00 -3.1579110693709225e+02 1.0000000000000000e+00 1.1383657328621677e+01 1.1968268387167212e+01 1.3532129064558818e+01 
34 1 2 1.0280007860352225e+00 -1.3852872993654341e+02 1.0000000000000000e+00 1.6794702391753514e+01 1.6348881620440711e+01 1.9733038075430906e+00 
159 1 2 1.0280002235994457e+00 -2.6027757412685133e+02 1.0000000000000000e+00 1.6832338088999059e+01 1.4310592552005263e+01 3.5024866299693913e-01 
105 1 2 1.0280001858638226e+00 -3.0383778345214216e+02 1.0000000000000000e+00 1.6843799167345459e+01 1.4263243484066534e+01 3.5949615106506971e-01 
145 1 2 1.0280001746447660e+00 -2.6081857387110637e+02 1.0000000000000000e+00 1.6847323250978356e+01 1.4249875538794036e+01 3.6340862230489585e-01 
27 1 2 1.0280001497840461e+00 -2.2664620122326875e+02 1.0000000000000000e+00 1.6863030594923046e+01 1.4232133115241911e+01 3.4005333801429738e-01 
124 1 2 1.0280001564045127e+00 -2.0747007762727048e+02 1.0000000000000000e+00 1.6860380961375899e+01 1.4239313791926909e+01 3.3943198854055523e-01 
152 1 2 1.0280001600861426e+00 -1.9143199475324769e+02 1.0000000000000000e+00 1.6858906861232693e+01 1.4243280727141620e+01 3.3921778655559126e-01 
83 1 2 1.0279998934965979e+00 -2.0407482078913372e+02 1.0000000000000000e+00 1.8754660417908049e+01 1.4029858927040513e+01 9.5698669597607078e-01 
63 1 2 1.0279997704926342e+00 -2.0538101885351864e+02 1.0000000000000000e+00 1.8874680852645564e+01 1.4019047229017533e+01 8.6322442142610101e-01 
101 1 2 1.0279995799873054e+00 -1.7016723197887373e+02 1.0000000000000000e+00 1.9222835488207995e+01 1.3993744014548325e+01 8.0710915366346236e-01 
31 1 2 1.0280001221607147e+00 -2.7792646091474040e+02 1.0000000000000000e+00 1.9492870891968003e+01 1.3952121017450303e+01 2.9571265335102043e-01 
8 1 2 1.0280001023816361e+00 -2.9780069788120227e+02 1.0000000000000000e+00 1.6940824705374379e+01 1.6936560245071327e+01 2.1588341458717082e+00 
133 1 2 1.0280000545690180e+00 -2.5357944726463006e+02 1.0000000000000000e+00 1.7719149158902852e+01 1.6686341429526170e+01 2.3662297701237289e+00 
33 1 2 1.0279996903548201e+00 -2.2020437238149793e+02 1.0000000000000000e+00 1.8041009902351682e+01 1.6711790220844140e+01 1.8552239632195233e+00 
161 1 2 1.0279996633744541e+00 -2.4382793008389976e+02 1.0000000000000000e+00 1.8108015536902847e+01 1.7088044179042406e+01 6.6457451183140981e-01 
45 1 2 1.0279996641622029e+00 -1.8132245039963991e+02 1.0000000000000000e+00 1.8108108476710605e+01 1.7087588245439964e+01 6.6297121282380800e-01 
13 1 2 1.0279996706165118e+00 -1.2543701281992065e+02 1.0000000000000000e+00 1.8105330568344364e+01 1.7084037024190806e+01 6.5454548055594253e-01 
91 1 2 1.0279996692508475e+00 -2.3842984002914235e+02 1.0000000000000000e+00 1.8115921254094939e+01 1.7084117973365530e+01 6.4331259251968731e-01 
24 1 2 1.0280005418881764e+00 -1.9015971679205896e+02 1.0000000000000000e+00 1.4815165331795194e+01 1.6364782059321239e+01 5.3258392146764724e+00 
169 1 2 1.0279999831920126e+00 -2.6266961154181848e+02 1.0000000000000000e+00 1.5998784052838396e+01 1.6407526594366118e+01 4.2095081973818722e+00 
74 1 2 1.0279999836255245e+00 -1.9798093068057489e+02 1.0000000000000000e+00 1.5998673329264232e+01 1.6407488611145222e+01 4.2095363961803303e+00 
126 1 2 1.0279962826577234e+00 -3.5223804096718362e+02 1.0000000000000000e+00 1.6553588047356655e+01 1.6598308094474557e+01 3.5936879004393605e+00 
23 1 2 1.0280005171285422e+00 -1.8291048243827473e+02 1.0000000000000000e+00 1.5015829859992943e+01 1.6637997483020175e+01 5.4377732630938649e+00 
129 1 2 1.0280016696780205e+00 -1.7247412486082507e+02 1.0000000000000000e+00 1.6596918025742664e+01 1.6658243188574765e+01 3.4249830028803441e+00 
131 1 2 1.0279999007855782e+00 -2.0258441008969822e+02 1.0000000000000000e+00 1.6679609037363601e+01 1.6569110011251709e+01 3.4866478719801615e+00 
9 1 2 1.0279990885011983e+00 -2.1384739739453082e+02 1.0000000000000000e+00 1.8611383596501323e+01 1.4115686570752876e+01 3.6175540471644423e+00 
97 1 2 1.0280005237492655e+00 -2.8341296166369716e+02 1.0000000000000000e+00 1.8695192181507444e+01 1.3704628646090354e+01 3.7861902664644611e+00 
64 1 2 1.0280003612061508e+00 -2.0523340684478410e+02 1.0000000000000000e+00 1.8805120986700974e+01 1.3792658155640661e+01 3.8171769110789833e+00 
138 1 2 1.0280004640568134e+00 -2.5220356792068034e+02 1.0000000000000000e+00 1.8684770626253020e+01 1.3760577155935479e+01 3.8278254196632329e+00 
10 1 2 1.0280004491917845e+00 -2.0582836647867643e+02 1.0000000000000000e+00 1.8676746407153608e+01 1.3764843890773641e+01 3.8285877991319475e+00 
154 1 2 1.0280004126794700e+00 -2.5212201291559361e+02 1.0000000000000000e+00 1.8761019115777646e+01 1.3788241282409116e+01 3.8344738918065375e+00 
176 1 2 1.0280004312757032e+00 -2.9809063706339367e+02 1.0000000000000000e+00 1.8745596488978066e+01 1.3783168181644259e+01 3.8365056350369899e+00 
12 1 2 1.0279993554539124e+00 -2.7360259669838138e+02 1.0000000000000000e+00 1.4419315225605075e+01 1.6991452587841135e+01 5.4064958390978051e+00 
114 1 2 1.0279994062026063e+00 -2.2003942542971444e+02 1.0000000000000000e+00 1.4418017151440941e+01 1.6985249432226109e+01 5.4153078164142521e+00 
53 1 2 1.0279993534863907e+00 -3.0050347426080589e+02 1.0000000000000000e+00 1.4418014034269932e+01 1.6990842767466713e+01 5.4067932362949298e+00 
52 1 2 1.0279993961415423e+00 -2.1147390529790943e+02 1.0000000000000000e+00 1.4416467816023609e+01 1.6985391191245146e+01 5.4143682684508940e+00 
55 1 2 1.0280004300275265e+00 -2.3876159457236642e+02 1.0000000000000000e+00 1.8725206751481817e+01 1.7931437842102806e+01 5.4076632395635968e+00 
172 1 2 1.0280004300275265e+00 -1.7897706115373498e+02 1.0000000000000000e+00 1.8725206751479206e+01 1.7931437842105996e+01 5.4076632395643047e+00 
160 1 2 1.0280004300275265e+00 -2.6360282144473751e+02 1.0000000000000000e+00 1.8725206751480691e+01 1.7931437842104543e+01 5.4076632395636350e+00 
48 1 2 1.0280004300275265e+00 -2.9415118941969990e+02 1.0000000000000000e+00 1.8725206751746285e+01 1.7931437841792906e+01 5.4076632394818729e+00 
35 1 2 1.0280004300275265e+00 -1.2636337693489790e+02 1.0000000000000000e+00 1.8725206751785702e+01 1.7931437841723202e+01 5.4076632394871504e+00 
151 1 2 1.0280004300275265e+00 -2.4642316630244972e+02 1.0000000000000000e+00 1.8725206751444997e+01 1.7931437842146423e+01 5.4076632395746236e+00 
95 1 2 1.0280004300275263e+00 -2.9711370512309907e+02 1.0000000000000000e+00 1.8725206751480538e+01 1.7931437842104515e+01 5.4076632395638375e+00 
150 1 2 1.0280001381799784e+00 -1.8216269897105843e+02 1.0000000000000000e+00 1.3423328478669474e+01 1.4296094556362922e+01 7.0493835340598263e+00 
42 1 2 1.0280001266169732e+00 -2.6069676750907479e+02 1.0000000000000000e+00 1.3421166220244006e+01 1.4294114573424208e+01 7.0451024923435979e+00 
61 1 2 1.0280001262398244e+00 -2.6980067335360098e+02 1.0000000000000000e+00 1.3420862984849405e+01 1.4294276570561996e+01 7.0451309771750479e+00 
60 1 2 1.0280001240398473e+00 -2.6084927060241580e+02 1.0000000000000000e+00 1.3420453715701793e+01 1.4293947180317508e+01 7.0443338370285362e+00 
179 1 2 1.0280001311989178e+00 -2.8325514786914948e+02 1.0000000000000000e+00 1.3418880152609290e+01 1.4298049969733272e+01 7.0490937652488430e+00 
110 1 2 1.0280001171263486e+00 -1.9988760267298204e+02 1.0000000000000000e+00 1.3416120276320518e+01 1.4295966305732916e+01 7.0440480235921790e+00 
174 1 2 1.0280001119184288e+00 -2.7070213219045178e+02 1.0000000000000000e+00 1.3414775595665915e+01 1.4295670395250356e+01 7.0424636452181968e+00 
104 1 2 1.0280000000176270e+00 -2.4544780959818826e+02 1.0000000000000000e+00 1.5300828804793914e+01 1.2050478158777604e+01 1.3075882143507362e+01 
72 1 2 1.0280000000167546e+00 -2.3977742813866394e+02 1.0000000000000000e+00 1.5423375311727266e+01 1.2064843119390209e+01 1.3089683723289072e+01 
19 1 2 1.0280000000057707e+00 -1.8992971128937418e+02 1.0000000000000000e+00 1.3681771784445999e+01 1.1989860530013942e+01 1.3187118889702633e+01 
112 1 2 1.0279999999900284e+00 -1.0681011110482167e+02 1.0000000000000000e+00 1.3639291732661199e+01 1.2088126275430421e+01 1.3026814780166267e+01 
165 1 2 1.0279999999899276e+00 -1.9208180916466696e+02 1.0000000000000000e+00 1.3634820117027218e+01 1.2093803522441073e+01 1.3022106113096031e+01 
90 1 2 1.0279999999899709e+00 -2.3671300587903710e+02 1.0000000000000000e+00 1.3572973567587272e+01 1.2135663265792635e+01 1.2968190186673585e+01 
135 1 2 1.0279999999950635e+00 -1.5703852982838248e+02 1.0000000000000000e+00 1.3365850408477220e+01 1.2464313791968179e+01 1.3222662257954680e+01 
125 1 2 1.0279999999847713e+00 -2.0614931496193907e+02 1.0000000000000000e+00 1.6716457146765368e+01 1.1264323693430066e+01 1.2927457922948157e+01 
144 1 2 1.0279999999878606e+00 -3.1110755396257878e+02 1.0000000000000000e+00 1.6720545590793524e+01 1.1279510827677441e+01 1.2882549260423660e+01 
38 1 2 1.0279999999856140e+00 -2.0743863164656477e+02 1.0000000000000000e+00 1.6719841650420623e+01 1.1271402812652441e+01 1.2916300021975527e+01 
65 1 2 1.0279999999873395e+00 -2.1444550016785766e+02 1.0000000000000000e+00 1.6719583727671068e+01 1.1277685832273923e+01 1.2881925324294091e+01 
3 1 2 1.0279999999880909e+00 -2.6085491046624992e+02 1.0000000000000000e+00 1.6718608145509165e+01 1.1276653021210771e+01 1.2878906280479528e+01 
2 1 2 1.0279999999887437e+00 -3.3918807907948337e+02 1.0000000000000000e+00 1.6716532257118754e+01 1.1275387631966762e+01 1.2870698351581522e+01 
158 1 2 1.0280002188969486e+00 -3.3608877278617143e+02 1.0000000000000000e+00 1.9950215983504172e+01 1.6308010971475284e+01 1.9422681691692183e+01 
96 1 2 1.0280002200908069e+00 -2.7749719992945955e+02 1.0000000000000000e+00 1.9957168355132325e+01 1.6305035172450051e+01 1.9429673951800961e+01 
76 1 2 1.0280002186314783e+00 -1.5051379494574360e+02 1.0000000000000000e+00 1.9948801792339559e+01 1.6308605421872052e+01 1.9421294741998093e+01 
130 1 2 1.0280002172043736e+00 -1.1629111265324795e+02 1.0000000000000000e+00 1.9955753091028612e+01 1.6309220796868104e+01 1.9429270138426617e+01 
167 1 2 1.0280002167218176e+00 -1.5216110819935341e+02 1.0000000000000000e+00 1.9952698720598761e+01 1.6310494144759765e+01 1.9426170387389757e+01 
162 1 2 1.0280002126324781e+00 -2.6751279286755738e+02 1.0000000000000000e+00 1.9952136128611979e+01 1.6316071790180604e+01 1.9427208728164985e+01 

Velocities

51 2.8094296076551983e-01 -2.3587330325077827e-01 8.4977905366643763e-02
173 2.8094275070733954e-01 -2.3587354377700839e-01 8.4977575639693256e-02
54 2.8094285353845505e-01 -2.3587321958038854e-01 8.4977564277641540e-02
122 2.8097239551842396e-01 -2.3597103170295552e-01 8.5002973670758708e-02
116 2.8097229572132892e-01 -2.3597096234546913e-01 8.5002969261689404e-02
93 2.8097217625909737e-01 -2.3597088235396885e-01 8.5002959399799904e-02
30 2.8098110281276206e-01 -2.3598580787854490e-01 8.5015353239403374e-02
170 2.8098109667843685e-01 -2.3598581611967942e-01 8.5015355128642084e-02
58 2.8098112971248329e-01 -2.3598577097977083e-01 8.5015343673983043e-02
149 2.8295796344764784e-01 -2.3392201155081588e-01 8.8603470326508504e-02
4 2.8295796362866127e-01 -2.3392201144948693e-01 8.8603470355778730e-02
21 2.8295796361270131e-01 -2.3392201144359426e-01 8.8603470352009120e-02
89 2.8295796364258996e-01 -2.3392201144522559e-01 8.8603470358303862e-02
119 2.8295796373642784e-01 -2.3392201141403973e-01 8.8603470375207660e-02
139 2.8295796376227678e-01 -2.3392201140128599e-01 8.8603470379537599e-02
84 2.8295796351788627e-01 -2.3392201150624223e-01 8.8603470337446269e-02
106 2.8296658801349223e-01 -2.3394026413294719e-01 8.8605372889870235e-02
92 2.8296661915929328e-01 -2.3394014975791380e-01 8.8605382524614695e-02
117 2.8296661671658141e-01 -2.3394014396218604e-01 8.8605382477209366e-02
20 2.8296661581779153e-01 -2.3394014220957979e-01 8.8605382435507501e-02
134 2.8296584063244479e-01 -2.3394014304838992e-01 8.8607586807006089e-02
87 2.8296583598386132e-01 -2.3394014851507927e-01 8.8607576569678159e-02
177 2.8296583573174267e-01 -2.3394014837154209e-01 8.8607576333562851e-02
175 2.8091437370210959e-01 -2.3581922679756914e-01 8.4955590472651943e-02
5 2.8091362401477271e-01 -2.3581455803467333e-01 8.4976344142016186e-02
11 2.8091348137724265e-01 -2.3581483485899221e-01 8.4976442602639479e-02
113 2.8091402410335575e-01 -2.3581342283059833e-01 8.4975803224209390e-02
85 2.8091393336523951e-01 -2.3581185352756120e-01 8.4974576542663771e-02
25 2.8091378555774710e-01 -2.3581115248256740e-01 8.4973760868634229e-02
81 2.8296318129778508e-01 -2.3394359976526982e-01 8.8603033287063204e-02
70 2.8296293038479803e-01 -2.3394452556645004e-01 8.8602666571964445e-02
156 2.8296197369951320e-01 -2.3394477505013878e-01 8.8601463621744106e-02
99 2.8296231275814854e-01 -2.3394523336775674e-01 8.8602042704733402e-02
16 2.8296228580804739e-01 -2.3394532091827924e-01 8.8601832532479385e-02
43 2.8296237557357606e-01 -2.3394556491394805e-01 8.8601989974255210e-02
132 2.8296239408472174e-01 -2.3394557586497489e-01 8.8602020018734726e-02
62 2.8296326480872686e-01 -2.3394461750227680e-01 8.8602942274664406e-02
15 2.8296270977922783e-01 -2.3394335328518256e-01 8.8603527745288582e-02
44 2.8296293381213672e-01 -2.3394384503230747e-01 8.8603362680068964e-02
26 2.8296291315009392e-01 -2.3394380071277349e-01 8.8603381965387515e-02
32 2.8296266586775176e-01 -2.3394093460900015e-01 8.8602786794361968e-02
67 2.8296289524977036e-01 -2.3394366029904082e-01 8.8603402891508753e-02