LAMMPS data file via write_data, version 30 Jul 2016, timestep = 50000000

180 atoms
2 atom types

0.0000000000000000e+00 2.0000000000000000e+01 xlo xhi
0.0000000000000000e+00 2.0000000000000000e+01 ylo yhi
0.0000000000000000e+00 2.0000000000000000e+01 zlo zhi

Masses

1 3.896
2 4.31

Atoms # meso-molecular

12 1 2 1.0279993231462929e+00 -2.7360259849218590e+02 1.0000000000000000e+00 3.1002099219806230e+00 6.3922028688208732e+00 1.9700523122105225e+00 
114 1 2 1.0279993788224564e+00 -2.2003942721849535e+02 1.0000000000000000e+00 3.0989824459345328e+00 6.3857487071300101e+00 1.9789611502100821e+00 
53 1 2 1.0279993208710516e+00 -3.0050347605477936e+02 1.0000000000000000e+00 3.0989019430316307e+00 6.3915923139263970e+00 1.9703542805042100e+00 
52 1 2 1.0279993676467112e+00 -2.1147390708767242e+02 1.0000000000000000e+00 3.0974143829423664e+00 6.3859269999982269e+00 1.9780140694875088e+00 
24 1 2 1.0280005689543963e+00 -1.9015971820435283e+02 1.0000000000000000e+00 3.4927417642377723e+00 5.7597127910860912e+00 1.8874534758328794e+00 
23 1 2 1.0280005543242021e+00 -1.8291048382628347e+02 1.0000000000000000e+00 3.6920578850104167e+00 6.0316801134266740e+00 1.9975499849681320e+00 
74 1 2 1.0279999273708733e+00 -1.9798093280264837e+02 1.0000000000000000e+00 4.6614308168668481e+00 5.7923837422714355e+00 7.5851788973257162e-01 
169 1 2 1.0279999269125699e+00 -2.6266961366339933e+02 1.0000000000000000e+00 4.6615410447254986e+00 5.7924196601234765e+00 7.5848930766707368e-01 
126 1 2 1.0279963200203288e+00 -3.5223804320405952e+02 1.0000000000000000e+00 5.2073181329059901e+00 5.9785727811695866e+00 1.3200234723225060e-01 
131 1 2 1.0279998399262502e+00 -2.0258441215540569e+02 1.0000000000000000e+00 5.3348049891491787e+00 5.9506413626027390e+00 2.5581944375012888e-02 
77 1 2 1.0279994062680577e+00 -1.4727731145203487e+02 1.0000000000000000e+00 8.9095109652549564e-01 7.3135367031632379e+00 2.3940389510653786e+00 
59 1 2 1.0279994065178577e+00 -1.7634953368278522e+02 1.0000000000000000e+00 8.9088168165998904e-01 7.3135876725588496e+00 2.3940353999326303e+00 
143 1 2 1.0279994817409934e+00 -2.7758587801023214e+02 1.0000000000000000e+00 8.7168456066232092e-01 7.3302742160229908e+00 2.3934962340325612e+00 
155 1 2 1.0280000778316514e+00 -2.2267723346013864e+02 1.0000000000000000e+00 5.2877896750537601e-01 7.6220119142601828e+00 2.5629766388399551e+00 
107 1 2 1.0279998125951550e+00 -1.2737251972349466e+02 1.0000000000000000e+00 1.5159859307781179e-01 7.6236942893795510e+00 2.7947760243957274e+00 
120 1 2 1.0279998137278550e+00 -1.4129246060723764e+02 1.0000000000000000e+00 1.5155151250144991e-01 7.6239961988022520e+00 2.7949192478733544e+00 
127 1 2 1.0279998877024552e+00 -2.7707703573023241e+02 1.0000000000000000e+00 1.2679234165245556e-01 7.6200254292119993e+00 2.8284149503909859e+00 
174 1 2 1.0280000994746912e+00 -2.7070213223592651e+02 1.0000000000000000e+00 2.1088345468135588e+00 3.6932208391976160e+00 3.6153373102232842e+00 
150 1 2 1.0280001288591718e+00 -1.8216269901653317e+02 1.0000000000000000e+00 2.1173693362728812e+00 3.6936853799402027e+00 3.6221967230223684e+00 
42 1 2 1.0280001159366354e+00 -2.6069676755454952e+02 1.0000000000000000e+00 2.1152093083341703e+00 3.6916965168831455e+00 3.6179486039837139e+00 
61 1 2 1.0280001155049197e+00 -2.6980067339907572e+02 1.0000000000000000e+00 2.1149071509271362e+00 3.6918570878517403e+00 3.6179774182676083e+00 
60 1 2 1.0280001130594809e+00 -2.6084927064789053e+02 1.0000000000000000e+00 2.1144981339962254e+00 3.6915256871426578e+00 3.6171861927531865e+00 
179 1 2 1.0280001209383445e+00 -2.8325514791462422e+02 1.0000000000000000e+00 2.1129365716090711e+00 3.6956196544349278e+00 3.6219171366000040e+00 
110 1 2 1.0280001052527739e+00 -1.9988760271845678e+02 1.0000000000000000e+00 2.1101779593940848e+00 3.6935237731004507e+00 3.6169095300892695e+00 
171 1 2 1.0280005243459323e+00 -2.1349452104454713e+02 1.0000000000000000e+00 1.3374141777756849e+00 8.1921889016625791e+00 6.0650904129644454e+00 
36 1 2 1.0280004891690775e+00 -2.0175935912603961e+02 1.0000000000000000e+00 1.3355337564746728e+00 8.1841843668431267e+00 6.0685945332700486e+00 
1 1 2 1.0280004891975012e+00 -2.0859485427868694e+02 1.0000000000000000e+00 1.3355353075563230e+00 8.1841878974388482e+00 6.0685920636160970e+00 
94 1 2 1.0280004891739321e+00 -2.0277720696515254e+02 1.0000000000000000e+00 1.3355340955205171e+00 8.1841867928480969e+00 6.0685940794727324e+00 
163 1 2 1.0280004892013286e+00 -3.7446542407622627e+02 1.0000000000000000e+00 1.3355355086574145e+00 8.1841881633758060e+00 6.0685917334290629e+00 
157 1 2 1.0280004892743906e+00 -2.8789323603528470e+02 1.0000000000000000e+00 1.3355387416241307e+00 8.1841786630954196e+00 6.0685857083700565e+00 
137 1 2 1.0280004892066537e+00 -2.1145416734607318e+02 1.0000000000000000e+00 1.3355358481175608e+00 8.1841900390822886e+00 6.0685912501579535e+00 
135 1 2 1.0279999999897773e+00 -1.5703852982838248e+02 1.0000000000000000e+00 1.5237461170768971e+00 1.7323961030215151e+00 9.8229448133883679e+00 
19 1 2 1.0280000000081817e+00 -1.8992971128937418e+02 1.0000000000000000e+00 1.8396674810783447e+00 1.2579429509188924e+00 9.7874012055923458e+00 
112 1 2 1.0279999999829634e+00 -1.0681011110482167e+02 1.0000000000000000e+00 1.7971874839286668e+00 1.3562086747889233e+00 9.6270970824228783e+00 
165 1 2 1.0279999999827092e+00 -1.9208180916466696e+02 1.0000000000000000e+00 1.7927158682557380e+00 1.3618859214731689e+00 9.6223884158808204e+00 
90 1 2 1.0279999999826208e+00 -2.3671300587903710e+02 1.0000000000000000e+00 1.7308693087618323e+00 1.4037456485482982e+00 9.5684725068595462e+00 
104 1 2 1.0280000000284297e+00 -2.4544780959818826e+02 1.0000000000000000e+00 3.4587245976904488e+00 1.3185616373317584e+00 9.6761629277879386e+00 
72 1 2 1.0280000000268912e+00 -2.3977742813866394e+02 1.0000000000000000e+00 3.5812710796503442e+00 1.3329266577086563e+00 9.6899644184967162e+00 
3 1 2 1.0279999999807099e+00 -2.6085491046624992e+02 1.0000000000000000e+00 4.8765041825292341e+00 5.4473719583654701e-01 9.4791861601969725e+00 
65 1 2 1.0279999999806013e+00 -2.1444550016785766e+02 1.0000000000000000e+00 4.8774797664095573e+00 5.4577000705847156e-01 9.4822052055639752e+00 
38 1 2 1.0279999999756781e+00 -2.0743863164656477e+02 1.0000000000000000e+00 4.8777377100849533e+00 5.3948697361001907e-01 9.5165799240672264e+00 
144 1 2 1.0279999999806200e+00 -3.1110755396257878e+02 1.0000000000000000e+00 4.8784416295695658e+00 5.4759500384552173e-01 9.4828291420904360e+00 
125 1 2 1.0279999999735390e+00 -2.0614931496193907e+02 1.0000000000000000e+00 4.8743532126207034e+00 5.3240784474246861e-01 9.5277378335677465e+00 
2 1 2 1.0279999999822085e+00 -3.3918807907948337e+02 1.0000000000000000e+00 4.8744282890369393e+00 5.4347180746769497e-01 9.4709782273792928e+00 
27 1 2 1.0280001577416780e+00 -2.2664620142132244e+02 1.0000000000000000e+00 5.4794407252614308e+00 3.6053133638449202e+00 1.6872979426150980e+01 
124 1 2 1.0280001647835808e+00 -2.0747007782664897e+02 1.0000000000000000e+00 5.4768561215217471e+00 3.6124801228728582e+00 1.6872381295116586e+01 
152 1 2 1.0280001686999376e+00 -1.9143199495339215e+02 1.0000000000000000e+00 5.4754184486860851e+00 3.6164388696984084e+00 1.6872179394966302e+01 
159 1 2 1.0280002362821126e+00 -2.6027757435422501e+02 1.0000000000000000e+00 5.4495325688798353e+00 3.6835646077807422e+00 1.6883340549795019e+01 
145 1 2 1.0280001841985442e+00 -2.6081857407720304e+02 1.0000000000000000e+00 5.4640139392563976e+00 3.6230655924736883e+00 1.6896278647138061e+01 
105 1 2 1.0280001961257956e+00 -3.0383778366285918e+02 1.0000000000000000e+00 5.4606002373463323e+00 3.6363931205432380e+00 1.6892418794000914e+01 
34 1 2 1.0280008338369380e+00 -1.3852873153472657e+02 1.0000000000000000e+00 5.4378635585519000e+00 5.7237037114334104e+00 1.8504112149585094e+01 
133 1 2 1.0280000259475843e+00 -2.5357944872077383e+02 1.0000000000000000e+00 6.3581164696758590e+00 6.0623291087794886e+00 1.8898556374196797e+01 
8 1 2 1.0280001137350454e+00 -2.9780069912965706e+02 1.0000000000000000e+00 5.5808793009135211e+00 6.3128003121868854e+00 1.8689484487075873e+01 
129 1 2 1.0280016705426243e+00 -1.7247412687170169e+02 1.0000000000000000e+00 5.2540757054762626e+00 6.0397207227916301e+00 1.9965485160690058e+01 
97 1 2 1.0280005599674389e+00 -2.8341296180012137e+02 1.0000000000000000e+00 7.3119723438455884e+00 3.0666108921248654e+00 3.1883155581512806e-01 
138 1 2 1.0280004975736183e+00 -2.5220356808678230e+02 1.0000000000000000e+00 7.3017411059118222e+00 3.1215979122178137e+00 3.6007159673748396e-01 
176 1 2 1.0280004623189036e+00 -2.9809063723390614e+02 1.0000000000000000e+00 7.3616738112679654e+00 3.1437858205975644e+00 3.6870870309685816e-01 
10 1 2 1.0280004821713236e+00 -2.0582836664940299e+02 1.0000000000000000e+00 7.2938365903430604e+00 3.1257875760566161e+00 3.6086999997090080e-01 
64 1 2 1.0280003880152007e+00 -2.0523340700258174e+02 1.0000000000000000e+00 7.4204611073600555e+00 3.1530616962281135e+00 3.4978548657746711e-01 
154 1 2 1.0280004426335116e+00 -2.5212201307994383e+02 1.0000000000000000e+00 7.3768924432788614e+00 3.1487634308412078e+00 3.6675069333800425e-01 
9 1 2 1.0279990285696743e+00 -2.1384739794649266e+02 1.0000000000000000e+00 7.2291145155952208e+00 3.4776935870190466e+00 1.5302721799961189e-01 
95 1 2 1.0280004495995343e+00 -2.9711370512309907e+02 1.0000000000000000e+00 7.3783247533787719e+00 7.3168403679579175e+00 1.9491218457547532e+00 
48 1 2 1.0280004495995361e+00 -2.9415118941969990e+02 1.0000000000000000e+00 7.3783247536396308e+00 7.3168403676511966e+00 1.9491218456737351e+00 
35 1 2 1.0280004495995365e+00 -1.2636337691216053e+02 1.0000000000000000e+00 7.3783247536784291e+00 7.3168403675826417e+00 1.9491218456789139e+00 
151 1 2 1.0280004495995343e+00 -2.4642316627971235e+02 1.0000000000000000e+00 7.3783247533438772e+00 7.3168403679991831e+00 1.9491218457654058e+00 
160 1 2 1.0280004495995343e+00 -2.6360282144473751e+02 1.0000000000000000e+00 7.3783247533789176e+00 7.3168403679579477e+00 1.9491218457545518e+00 
172 1 2 1.0280004495995343e+00 -1.7897706113099761e+02 1.0000000000000000e+00 7.3783247533774698e+00 7.3168403679593723e+00 1.9491218457552075e+00 
55 1 2 1.0280004495995343e+00 -2.3876159454962905e+02 1.0000000000000000e+00 7.3783247533800278e+00 7.3168403679562397e+00 1.9491218457545114e+00 
18 1 2 1.0280000647843366e+00 -1.9535384863021739e+02 1.0000000000000000e+00 9.1112065193222875e+00 2.8326357712298575e+00 1.6505503723126559e+01 
96 1 2 1.0280002313676153e+00 -2.7749720006588376e+02 1.0000000000000000e+00 8.5784131730633018e+00 5.6735047071872282e+00 1.5955971031808707e+01 
130 1 2 1.0280002282227498e+00 -1.1629111279746968e+02 1.0000000000000000e+00 8.5770290967572596e+00 5.6776699221137710e+00 1.5955554378244193e+01 
167 1 2 1.0280002276720841e+00 -1.5216110834315705e+02 1.0000000000000000e+00 8.5740020333195588e+00 5.6789373812487733e+00 1.5952473812542951e+01 
158 1 2 1.0280002300126103e+00 -3.3608877292259564e+02 1.0000000000000000e+00 8.5715238585706803e+00 5.6764666816588329e+00 1.5949021824844042e+01 
76 1 2 1.0280002297138857e+00 -1.5051379508911887e+02 1.0000000000000000e+00 8.5701225373898762e+00 5.6770584270583067e+00 1.5947643252232108e+01 
162 1 2 1.0280002232321472e+00 -2.6751279300398159e+02 1.0000000000000000e+00 8.5734718786131427e+00 5.6844884010656074e+00 1.5953482498618612e+01 
142 1 2 1.0280000391260864e+00 -2.2818123106711843e+02 1.0000000000000000e+00 9.7942705566208357e+00 2.0321962404777842e+00 1.7846327048392872e+01 
56 1 2 1.0280000405849423e+00 -2.4870597099646309e+02 1.0000000000000000e+00 9.7803725507724977e+00 2.0308183893204470e+00 1.7850963726318554e+01 
180 1 2 1.0280000409881356e+00 -2.7469886654311694e+02 1.0000000000000000e+00 9.7765076449895645e+00 2.0303820675322002e+00 1.7852155137697615e+01 
148 1 2 1.0280000434769960e+00 -2.1954867009325974e+02 1.0000000000000000e+00 9.7518377532485143e+00 2.0275975987346118e+00 1.7859177450248875e+01 
31 1 2 1.0280001485115231e+00 -2.7792646108941688e+02 1.0000000000000000e+00 8.1067216987645416e+00 3.3211855083044770e+00 1.6824867610245562e+01 
103 1 2 1.0279999462539680e+00 -2.3064004656875662e+02 1.0000000000000000e+00 1.0091148853396614e+01 2.4888315430189021e+00 1.6847441549641893e+01 
88 1 2 1.0279999462578382e+00 -2.3737578462494909e+02 1.0000000000000000e+00 1.0091127652814153e+01 2.4888048351768948e+00 1.6847413188431826e+01 
14 1 2 1.0279999465465404e+00 -2.0453667669919170e+02 1.0000000000000000e+00 1.0088135525872033e+01 2.4909629345712321e+00 1.6844085343267700e+01 
101 1 2 1.0279995238914192e+00 -1.7016723219282187e+02 1.0000000000000000e+00 7.8364858220477531e+00 3.3610042219224967e+00 1.7337723394210997e+01 
63 1 2 1.0279997607653812e+00 -2.0538101910939258e+02 1.0000000000000000e+00 7.4880544527578827e+00 3.3867681245940551e+00 1.7394197824761061e+01 
83 1 2 1.0279999012090753e+00 -2.0407482106460796e+02 1.0000000000000000e+00 7.3680026467851922e+00 3.3980022560800029e+00 1.7488357530360194e+01 
91 1 2 1.0279996501627693e+00 -2.3842984048010860e+02 1.0000000000000000e+00 6.7432235275704278e+00 6.4605274542008884e+00 1.7169380559065395e+01 
161 1 2 1.0279996439890553e+00 -2.4382793054000658e+02 1.0000000000000000e+00 6.7353581495619741e+00 6.4645670924145087e+00 1.7190790777397062e+01 
45 1 2 1.0279996448326079e+00 -1.8132245085542380e+02 1.0000000000000000e+00 6.7354450232090395e+00 6.4640987759731878e+00 1.7189176886518119e+01 
13 1 2 1.0279996518027918e+00 -1.2543701327467858e+02 1.0000000000000000e+00 6.7326166164610202e+00 6.4604563900977094e+00 1.7180700930308937e+01 
33 1 2 1.0279996620144003e+00 -2.2020437340005037e+02 1.0000000000000000e+00 6.6767126941309076e+00 6.0875201628681461e+00 1.8387699681231826e+01 
149 1 2 1.0280000089744101e+00 -1.8896096290205904e+02 1.0000000000000000e+00 1.1460445822392517e+01 1.4822653798450157e+01 1.2045886100168921e+01 
84 1 2 1.0280000089725956e+00 -2.6430327408117040e+02 1.0000000000000000e+00 1.1460448122482990e+01 1.4822658259339347e+01 1.2045880525444492e+01 
139 1 2 1.0280000089665038e+00 -2.0779096105532702e+02 1.0000000000000000e+00 1.1460457899674482e+01 1.4822665032420865e+01 1.2045862991806528e+01 
119 1 2 1.0280000089671602e+00 -1.9820636887438155e+02 1.0000000000000000e+00 1.1460456925131716e+01 1.4822664027008670e+01 1.2045864905957647e+01 
89 1 2 1.0280000089694508e+00 -2.6697835828452037e+02 1.0000000000000000e+00 1.1460452848637853e+01 1.4822663018468683e+01 1.2045871298999804e+01 
21 1 2 1.0280000089701153e+00 -2.4276064909296110e+02 1.0000000000000000e+00 1.1460451141131673e+01 1.4822664716492708e+01 1.2045872906152612e+01 
4 1 2 1.0280000089697821e+00 -9.2360575075261153e+01 1.0000000000000000e+00 1.1460452229764105e+01 1.4822662932545622e+01 1.2045872235704067e+01 
47 1 2 1.0280000006033569e+00 -2.4637012625767434e+02 1.0000000000000000e+00 1.2908998603621320e+01 1.6544876328083980e+01 1.4779353720547865e+01 
81 1 2 1.0279999998145219e+00 -2.2328458822513829e+02 1.0000000000000000e+00 1.2946345491017507e+01 1.4625431149546371e+01 1.4956694115623439e+01 
15 1 2 1.0280000006576411e+00 -2.2007352444647995e+02 1.0000000000000000e+00 1.2511144912780788e+01 1.6191002984652549e+01 1.4978245324974086e+01 
32 1 2 1.0280000086418362e+00 -2.2971185549079718e+02 1.0000000000000000e+00 1.2919366488712669e+01 1.6355579222277289e+01 1.4321297832297189e+01 
44 1 2 1.0279999988528108e+00 -2.5021514509586217e+02 1.0000000000000000e+00 1.2713059366937948e+01 1.6441048919429928e+01 1.5024742122231002e+01 
26 1 2 1.0279999990574955e+00 -2.1163034950283432e+02 1.0000000000000000e+00 1.2744144756128872e+01 1.6470151339427879e+01 1.4991666235273616e+01 
67 1 2 1.0279999996332445e+00 -2.3929829072926771e+02 1.0000000000000000e+00 1.2864134906353028e+01 1.6540047284379266e+01 1.4891555174748087e+01 
80 1 2 1.0279991081052378e+00 -2.3962049825233905e+02 1.0000000000000000e+00 1.6507385778728729e+01 9.4256447426940664e+00 6.6536482802584462e+00 
22 1 2 1.0279999091206360e+00 -1.9305126957985843e+02 1.0000000000000000e+00 1.6518045697428608e+01 9.5902733842023107e+00 6.1294756590020434e+00 
46 1 2 1.0280001395223273e+00 -2.2158549516791331e+02 1.0000000000000000e+00 1.6628719413038866e+01 9.5956993704828193e+00 5.3808136951402847e+00 
108 1 2 1.0280001531477789e+00 -2.7886915488051289e+02 1.0000000000000000e+00 1.6680965638184432e+01 9.5269507566016696e+00 5.1880789178426667e+00 
111 1 2 1.0280001529959015e+00 -2.4843153661219506e+02 1.0000000000000000e+00 1.6698580929004194e+01 9.5064612396783605e+00 5.1403582111456174e+00 
28 1 2 1.0280001529997440e+00 -1.3189332088402975e+02 1.0000000000000000e+00 1.6696325817958954e+01 9.5085952806698284e+00 5.1457066356211261e+00 
140 1 2 1.0280000446428159e+00 -1.5126976075603861e+02 1.0000000000000000e+00 1.8168338658783689e+01 8.4610557675425433e+00 5.4719875212057438e+00 
37 1 2 1.0279994201264344e+00 -2.2866879335740151e+02 1.0000000000000000e+00 1.8413115340628504e+01 8.3098628306960460e+00 4.4099851104853975e+00 
168 1 2 1.0279994240442216e+00 -2.5293889797735432e+02 1.0000000000000000e+00 1.8411487213788551e+01 8.3111626072309317e+00 4.4086241791126239e+00 
79 1 2 1.0279994078634902e+00 -1.5438203236233534e+02 1.0000000000000000e+00 1.8418199937239926e+01 8.3072915624791062e+00 4.4132194159211773e+00 
141 1 2 1.0280000711603234e+00 -1.8967963019529648e+02 1.0000000000000000e+00 1.8420991937533643e+01 8.3720947494930140e+00 5.1896518650697407e+00 
166 1 2 1.0279993313542486e+00 -2.1462688823747249e+02 1.0000000000000000e+00 1.8453934839647808e+01 8.2878712267575310e+00 4.4404367715981135e+00 
7 1 2 1.0280001331427828e+00 -2.2260766483717566e+02 1.0000000000000000e+00 1.6233514660256969e+01 6.1926170281313473e+00 9.6610134684944846e+00 
75 1 2 1.0280000609868403e+00 -2.0122298469790093e+02 1.0000000000000000e+00 1.6214772410144899e+01 6.1955308180585806e+00 9.7066544355766471e+00 
17 1 2 1.0280000427460623e+00 -2.4657573490999883e+02 1.0000000000000000e+00 1.6209438484319637e+01 6.1962074954849617e+00 9.7079173345079415e+00 
50 1 2 1.0280000613420002e+00 -1.8022508987627629e+02 1.0000000000000000e+00 1.6214939381502603e+01 6.1956115392768716e+00 9.7069295731706013e+00 
147 1 2 1.0280000659673951e+00 -2.2382755574388477e+02 1.0000000000000000e+00 1.6216096674597594e+01 6.1951801616991080e+00 9.7055803442302260e+00 
98 1 2 1.0280000868132220e+00 -2.5539229711115996e+02 1.0000000000000000e+00 1.6223563088685378e+01 6.1965889506903569e+00 9.7094947186855389e+00 
40 1 2 1.0279999607235033e+00 -1.9843541369589303e+02 1.0000000000000000e+00 1.6181450524388385e+01 6.1977437007034322e+00 9.6883640696855533e+00 
71 1 2 1.0279998509496477e+00 -2.0087310502757933e+02 1.0000000000000000e+00 1.6328927933550986e+01 9.3003346470944752e+00 9.1598080909179984e+00 
153 1 2 1.0280002631142326e+00 -2.3032511661765045e+02 1.0000000000000000e+00 1.6509752542449117e+01 9.3672386925637632e+00 7.8024879918251147e+00 
82 1 2 1.0280000160773728e+00 -2.3419307573442632e+02 1.0000000000000000e+00 1.6263255468207642e+01 9.2005281197668634e+00 8.2071844844577360e+00 
100 1 2 1.0280002470076632e+00 -2.0163843089948028e+02 1.0000000000000000e+00 1.6510937828232070e+01 9.3633110862560827e+00 7.8009507219490368e+00 
178 1 2 1.0279999506651416e+00 -1.9879730370946172e+02 1.0000000000000000e+00 1.6372131746527089e+01 9.3190218835533702e+00 9.0583645712277647e+00 
66 1 2 1.0279999049162516e+00 -2.0351694936610326e+02 1.0000000000000000e+00 1.6343674394519962e+01 9.2809682165093665e+00 9.1412356848369125e+00 
6 1 2 1.0279998259038639e+00 -2.8406301933785454e+02 1.0000000000000000e+00 1.6323133338932273e+01 9.3129053378293190e+00 9.1630889043241943e+00 
128 1 2 1.0280000000163236e+00 -2.6784382011811982e+02 1.0000000000000000e+00 1.9541579691293201e+01 1.2363065396927717e+00 1.0132522418549792e+01 
86 1 2 1.0280000000160316e+00 -1.8670111290089127e+02 1.0000000000000000e+00 1.9541577756681260e+01 1.2361443676321562e+00 1.0132436226638852e+01 
115 1 2 1.0280000000172920e+00 -3.1579110693709225e+02 1.0000000000000000e+00 1.9541553316001842e+01 1.2363500259604634e+00 1.0132412368914700e+01 
146 1 2 1.0280000000170937e+00 -1.8791963574770909e+02 1.0000000000000000e+00 1.9541549232950469e+01 1.2363811195083236e+00 1.0132406799879623e+01 
123 1 2 1.0280000000183214e+00 -2.0179340429064951e+02 1.0000000000000000e+00 1.9541526042999042e+01 1.2363104662164537e+00 1.0132258501150565e+01 
69 1 2 1.0280000000171421e+00 -2.0515522850690496e+02 1.0000000000000000e+00 1.9541037226866685e+01 1.2397542196060618e+00 1.0131391412755162e+01 
30 1 2 1.0279997718721590e+00 -1.9242824566309756e+02 1.0000000000000000e+00 1.5247194172641166e+01 9.8402537281054911e+00 1.1174789666308865e+01 
58 1 2 1.0279997718251852e+00 -2.5650457310574086e+02 1.0000000000000000e+00 1.5246876837642276e+01 9.8401464047153375e+00 1.1175012153299628e+01 
170 1 2 1.0279997718880816e+00 -2.3177355825286816e+02 1.0000000000000000e+00 1.5247265657047455e+01 9.8402769306250804e+00 1.1174740491638842e+01 
122 1 2 1.0280001398889229e+00 -2.1660639148283187e+02 1.0000000000000000e+00 1.5206641129002612e+01 1.0035063461020234e+01 1.1564656782121007e+01 
116 1 2 1.0280001390560742e+00 -3.1419147140010597e+02 1.0000000000000000e+00 1.5205626123029372e+01 1.0035511745833883e+01 1.1566405708585782e+01 
93 1 2 1.0280001380227621e+00 -2.3308123481422669e+02 1.0000000000000000e+00 1.5204414899216701e+01 1.0036085374509737e+01 1.1568379784243668e+01 
51 1 2 1.0279998976282423e+00 -2.0525600420723157e+02 1.0000000000000000e+00 1.4059965707916191e+01 1.0262586652327139e+01 1.3198254298084116e+01 
173 1 2 1.0279998984769629e+00 -2.4680423385879521e+02 1.0000000000000000e+00 1.4057535864821228e+01 1.0272875090392198e+01 1.3206489258107515e+01 
54 1 2 1.0279998989986157e+00 -2.0965359762218463e+02 1.0000000000000000e+00 1.4055507938423975e+01 1.0268345460694974e+01 1.3206158943221578e+01 
92 1 2 1.0280000123604025e+00 -1.9582860179307556e+02 1.0000000000000000e+00 1.5091888655760220e+01 1.5111026737945148e+01 1.2445771153845344e+01 
117 1 2 1.0280000123294268e+00 -3.3349138335537828e+02 1.0000000000000000e+00 1.5091829138069656e+01 1.5112401193689951e+01 1.2445197104802336e+01 
20 1 2 1.0280000123188739e+00 -1.9362855026440286e+02 1.0000000000000000e+00 1.5091794662261931e+01 1.5112805383281129e+01 1.2444992599510783e+01 
106 1 2 1.0280000123970354e+00 -1.6703828545391366e+02 1.0000000000000000e+00 1.5084327322436762e+01 1.5077609961359840e+01 1.2444230047604833e+01 
177 1 2 1.0279999818183279e+00 -1.3561720615232633e+02 1.0000000000000000e+00 1.4701169961903574e+01 1.5272232026092865e+01 1.2259320657949226e+01 
87 1 2 1.0279999818150010e+00 -2.5463711359353408e+02 1.0000000000000000e+00 1.4701110469405220e+01 1.5272248888204293e+01 1.2259332827263698e+01 
134 1 2 1.0279999817258281e+00 -2.5471186485242418e+02 1.0000000000000000e+00 1.4700168648368855e+01 1.5271294398675256e+01 1.2259015138446413e+01 
85 1 2 1.0280000420505828e+00 -2.4281714209259050e+02 1.0000000000000000e+00 1.4027640459110918e+01 1.0227070640211203e+01 1.4989900467849779e+01 
113 1 2 1.0280000552134694e+00 -1.3147739168435947e+02 1.0000000000000000e+00 1.4027364214923157e+01 1.0191926758944827e+01 1.4991133623766409e+01 
25 1 2 1.0280000334780288e+00 -2.3070442118090557e+02 1.0000000000000000e+00 1.4025108585755271e+01 1.0245549195132677e+01 1.4988489996055836e+01 
5 1 2 1.0280000614448679e+00 -2.2900267010198903e+02 1.0000000000000000e+00 1.4017830973180546e+01 1.0168779109401749e+01 1.4991595401705462e+01 
11 1 2 1.0280000626652384e+00 -2.8594750333610506e+02 1.0000000000000000e+00 1.4014678854493313e+01 1.0163268150043862e+01 1.4991593888663648e+01 
175 1 2 1.0279999956469814e+00 -2.5933475922449628e+02 1.0000000000000000e+00 1.3478368191858713e+01 1.0042326155110430e+01 1.4458078471130078e+01 
62 1 2 1.0280000016214788e+00 -1.9041242348567795e+02 1.0000000000000000e+00 1.4502307811765419e+01 1.5659333988726821e+01 1.5263340055902619e+01 
99 1 2 1.0279999995565403e+00 -2.4935867579129149e+02 1.0000000000000000e+00 1.4395063874828162e+01 1.4230033657289439e+01 1.5496792050006484e+01 
43 1 2 1.0280000001611316e+00 -1.5483274478237183e+02 1.0000000000000000e+00 1.4332765262124711e+01 1.4620965169980316e+01 1.5884129371369998e+01 
132 1 2 1.0280000002781935e+00 -2.5466820911077681e+02 1.0000000000000000e+00 1.4327485759316948e+01 1.4670950650609052e+01 1.5901911354603575e+01 
16 1 2 1.0279999990808415e+00 -2.5805516167769389e+02 1.0000000000000000e+00 1.4284849424847312e+01 1.4309012194174953e+01 1.5719668088463576e+01 
156 1 2 1.0279999912991629e+00 -1.7008804184741001e+02 1.0000000000000000e+00 1.4181170215059392e+01 1.4070335915109032e+01 1.5136612021054018e+01 
70 1 2 1.0280000000668246e+00 -1.4623742574404142e+02 1.0000000000000000e+00 1.4002176081763899e+01 1.4143037189646748e+01 1.4642847900453035e+01 
41 1 2 1.0280019992403076e+00 -1.9551854439776278e+02 1.0000000000000000e+00 1.9407102566785575e+01 1.3131255895344012e+01 1.7683957929128393e+01 
68 1 2 1.0280019992402665e+00 -2.4901029120706261e+02 1.0000000000000000e+00 1.9407101528598545e+01 1.3131251125114204e+01 1.7683957321207640e+01 
121 1 2 1.0280019992402678e+00 -3.3534417297862893e+02 1.0000000000000000e+00 1.9407101384838672e+01 1.3131250497163069e+01 1.7683957228116753e+01 
39 1 2 1.0280019992402754e+00 -3.2077404659227687e+02 1.0000000000000000e+00 1.9407102433098590e+01 1.3131255169614159e+01 1.7683957881407288e+01 
49 1 2 1.0280019992402119e+00 -2.3893192056463283e+02 1.0000000000000000e+00 1.9407100956869797e+01 1.3131248309286207e+01 1.7683957038459130e+01 
78 1 2 1.0280019992404581e+00 -2.4728324212105198e+02 1.0000000000000000e+00 1.9407101271449420e+01 1.3131251408428350e+01 1.7683956768646620e+01 
164 1 2 1.0280019992368070e+00 -2.6815149249631105e+02 1.0000000000000000e+00 1.9407118045342518e+01 1.3131299157414558e+01 1.7683974661417558e+01 
73 1 2 1.0279980015127734e+00 -2.6401503133506401e+02 1.0000000000000000e+00 1.6557751314669417e+01 1.3551002110409620e+01 1.9225036610200849e+01 
136 1 2 1.0279979999617308e+00 -2.5980271218731662e+02 1.0000000000000000e+00 1.6558635707171753e+01 1.3556471729251490e+01 1.9225251728871726e+01 
102 1 2 1.0279980019644470e+00 -1.1670761152364142e+02 1.0000000000000000e+00 1.6558257755549196e+01 1.3550525714306021e+01 1.9226094936458882e+01 
29 1 2 1.0279980016127164e+00 -1.1406800892444170e+02 1.0000000000000000e+00 1.6560315245207800e+01 1.3554120817577697e+01 1.9228969485915648e+01 
109 1 2 1.0279980000587945e+00 -2.9884412136014089e+02 1.0000000000000000e+00 1.6559371588005227e+01 1.3556152877989874e+01 1.9226718375741754e+01 
118 1 2 1.0279979999847997e+00 -1.8730307703144081e+02 1.0000000000000000e+00 1.6559233643374345e+01 1.3556231394701898e+01 1.9226441555530887e+01 
57 1 2 1.0279979998927407e+00 -1.8610832897810752e+02 1.0000000000000000e+00 1.6559015214887772e+01 1.3556278133011320e+01 1.9226023558828523e+01 

Velocities

12 2.8296818250291156e-01 -2.3502492001811262e-01 8.5901344997708809e-02
114 2.8296636868860048e-01 -2.3501835465110982e-01 8.5898907080227627e-02
53 2.8296835983156027e-01 -2.3502490575390617e-01 8.5901226313785647e-02
52 2.8296685286517553e-01 -2.3501931540458976e-01 8.5899090621730734e-02
24 2.8305378731187941e-01 -2.3487647914232210e-01 8.5949839181502855e-02
23 2.8308874206305584e-01 -2.3484495347119635e-01 8.5997164643642862e-02
74 2.8343683551747589e-01 -2.3461680912843202e-01 8.6272451060700195e-02
169 2.8343684817029513e-01 -2.3461675643210445e-01 8.6272460630433756e-02
126 2.8367104519144781e-01 -2.3450310369053823e-01 8.6546476699001590e-02
131 2.8363433613182992e-01 -2.3453362399441327e-01 8.6529588688826209e-02
77 2.8260619492840405e-01 -2.3576270171815883e-01 8.5842647393272561e-02
59 2.8260620101468437e-01 -2.3576273582656526e-01 8.5842636661220023e-02
143 2.8260734410566685e-01 -2.3577320261485521e-01 8.5838879097908521e-02
155 2.8255334129538295e-01 -2.3588780412304095e-01 8.5755853592282993e-02
107 2.8250209609920557e-01 -2.3593838114215854e-01 8.5725148122179531e-02
120 2.8250194557033581e-01 -2.3593845478933437e-01 8.5725070581048599e-02
127 2.8248883270779634e-01 -2.3593977336372549e-01 8.5715026243614781e-02
174 2.8262222119575553e-01 -2.3494465318036872e-01 8.5655036141719473e-02
150 2.8262259796500477e-01 -2.3494571924365901e-01 8.5656545693887920e-02
42 2.8262256411393616e-01 -2.3494546183256715e-01 8.5655729761731372e-02
61 2.8262253937861936e-01 -2.3494542619198766e-01 8.5655720685837863e-02
60 2.8262253733227771e-01 -2.3494536957417450e-01 8.5655574569940912e-02
179 2.8262224138635877e-01 -2.3494518626946656e-01 8.5656280514311206e-02
110 2.8262223947545512e-01 -2.3494484055737039e-01 8.5655336918393901e-02
171 2.8189643047180224e-01 -2.3658989183038567e-01 8.5474464887181648e-02
36 2.8189388195750847e-01 -2.3659392234374851e-01 8.5475095825028075e-02
1 2.8189388399916671e-01 -2.3659392061619550e-01 8.5475095539268492e-02
94 2.8189388233513230e-01 -2.3659392117955633e-01 8.5475095753129018e-02
163 2.8189388427186163e-01 -2.3659392048341318e-01 8.5475095503318096e-02
157 2.8189388922704356e-01 -2.3659392489934103e-01 8.5475095003205340e-02
137 2.8189388467296467e-01 -2.3659391958082349e-01 8.5475095434436196e-02
135 2.9605253375128576e-01 -2.3170199579373074e-01 8.4992909338125880e-02
19 2.9605253411294735e-01 -2.3170199925011806e-01 8.4992916813551145e-02
112 2.9605253240339657e-01 -2.3170199857755855e-01 8.4992917253391434e-02
165 2.9605253240560203e-01 -2.3170199856709142e-01 8.4992917236545160e-02
90 2.9605253272408139e-01 -2.3170199805281200e-01 8.4992916696327983e-02
104 2.9605253109364560e-01 -2.3170203256266630e-01 8.4992964620012212e-02
72 2.9605253188585839e-01 -2.3170203444497650e-01 8.4992967401900876e-02
3 2.9605252335006949e-01 -2.3170205449992806e-01 8.4992992845137533e-02
65 2.9605252329500098e-01 -2.3170205450508558e-01 8.4992992795783637e-02
38 2.9605252264264981e-01 -2.3170205407228400e-01 8.4992992134892309e-02
144 2.9605252329376658e-01 -2.3170205454926709e-01 8.4992992783043453e-02