LAMMPS data file via write_data, version 30 Jul 2016, timestep = 50000000

4620 atoms
8 atom types

0.0000000000000000e+00 1.0000000000000000e+02 xlo xhi
0.0000000000000000e+00 4.0000000000000000e+01 ylo yhi
0.0000000000000000e+00 4.0000000000000000e+01 zlo zhi

Masses

1 3.896
2 5.36
3 20.064
4 8.378
5 8.378
6 8.378
7 8.378
8 8.378

Atoms # meso-molecular

593 594 2 1.0280000000000014e+00 -2.6420572958798157e+03 1.0000000000000000e+00 1.7644833752432684e-02 1.3850666880085637e+01 5.5985035193146415e-01 
1095 1096 2 1.0280000000000000e+00 -3.6003386849566768e+03 1.0000000000000000e+00 1.7614892391642209e-01 1.4293877180189352e+01 9.8142686976902294e-01 
2866 2867 2 1.0279999999997211e+00 6.4921716945429980e+03 1.0000000000000000e+00 3.0434554716663236e+01 1.6525266299003562e+01 4.2273981629905866e-01 
1397 1398 2 1.0279999999995502e+00 7.5219010238088936e+02 1.0000000000000000e+00 3.0495743562156136e+01 1.6535333339687895e+01 5.7301251302109024e-01 
2153 2154 2 1.0280000000019116e+00 2.3837312093205337e+03 1.0000000000000000e+00 3.1579756341484092e+01 1.6350770762889432e+01 4.6016802642852161e-01 
520 521 2 1.0279999999988902e+00 1.2339093400381478e+03 1.0000000000000000e+00 3.3132889224517342e+01 1.6815860593423803e+01 7.6244135610996455e-01 
4255 4256 2 1.0279999999982734e+00 -2.0611436250031238e+03 1.0000000000000000e+00 3.3207816626076948e+01 1.6843471981113407e+01 8.0249840048946841e-01 
4579 4580 2 1.0279999999999967e+00 -4.7600630336439244e+03 1.0000000000000000e+00 1.2177567191899596e+00 1.8913740152599740e+01 2.5780948944902393e+00 
421 422 2 1.0279999999999956e+00 -4.7600589405823484e+03 1.0000000000000000e+00 1.2180511124598181e+00 1.8911088368534006e+01 2.5770181907080443e+00 
637 638 2 1.0280000000000140e+00 3.0906576810124507e+03 1.0000000000000000e+00 6.1635376965792354e-01 1.7823785550532186e+01 2.2387226655807617e+00 
83 84 2 1.0280000000000078e+00 -3.9577582068344991e+03 1.0000000000000000e+00 1.0296360290015243e+00 1.9004803127953750e+01 8.3871420325656043e-01 
4241 4242 2 1.0280000000000058e+00 -3.9577542168074797e+03 1.0000000000000000e+00 1.0292480436228868e+00 1.8819896335383863e+01 8.3770552715019486e-01 
4307 4308 2 1.0280000000024867e+00 -3.0385406023397391e+03 1.0000000000000000e+00 2.8728518018799328e+01 1.9616433683560182e+01 1.6033739226309007e+00 
149 150 2 1.0279999999965512e+00 -3.0385135596800910e+03 1.0000000000000000e+00 2.8865413295149668e+01 1.8391563419703896e+01 1.2854984590954290e+00 
2376 2377 2 1.0279999999995177e+00 7.5976388254010786e+01 1.0000000000000000e+00 2.8785227627473255e+01 1.8129517985445716e+01 2.0733058417489523e+00 
60 61 2 1.0279999999966192e+00 9.4662286162455274e+01 1.0000000000000000e+00 2.9222701463387175e+01 1.7686570392320647e+01 1.7709702271404717e+00 
3249 3250 2 1.0280000000020453e+00 -8.6815742018465426e+02 1.0000000000000000e+00 2.9573911343001921e+01 1.9898574988492218e+01 2.7699489606846012e-01 
939 940 2 1.0279999999966083e+00 -8.6807923538499722e+02 1.0000000000000000e+00 2.9633720189524915e+01 1.7906724541908556e+01 2.2123016541084745e-01 
819 820 2 1.0280000000045766e+00 1.0478735905072044e+03 1.0000000000000000e+00 3.0674144019010189e+01 1.8007814750855935e+01 2.3014987921206052e+00 
984 985 2 1.0279999999986942e+00 2.2639577094427323e+03 1.0000000000000000e+00 3.1692761657729179e+01 1.8584169206032730e+01 2.1149023332906658e-01 
3294 3295 2 1.0279999999971641e+00 2.2637770527836492e+03 1.0000000000000000e+00 3.1721125652676054e+01 1.9171176170490138e+01 2.2433645813593348e-01 
2288 2289 2 1.0280000000004894e+00 -5.7051162123617851e+03 1.0000000000000000e+00 3.1847076309440940e+01 1.7789803328266260e+01 2.4202467607371601e+00 
1059 1060 2 1.0279999999999971e+00 3.1247887738877926e+03 1.0000000000000000e+00 8.7518254423360337e-02 1.8863909267122924e+01 3.8321236478484701e+00 
3369 3370 2 1.0279999999999951e+00 3.1247849078825875e+03 1.0000000000000000e+00 8.7289883513435459e-02 1.8961056757109628e+01 3.8322280185551367e+00 
1106 1107 2 1.0280000000010561e+00 -1.3380959125019672e+03 1.0000000000000000e+00 2.2542728679683709e+01 1.8150637898670727e+01 3.1818435102752107e+00 
2704 2705 2 1.0279999999958223e+00 -1.7908234433642228e+03 1.0000000000000000e+00 2.2591266719132356e+01 1.9124339126466985e+01 4.4295574963702453e+00 
2039 2040 2 1.0280000000009935e+00 4.8417339262752773e+02 1.0000000000000000e+00 2.2818360618764856e+01 1.7910501842126646e+01 3.5955077017723545e+00 
4303 4304 2 1.0279999999988150e+00 -3.5119323872522064e+03 1.0000000000000000e+00 2.2634908137893447e+01 1.9283062284314781e+01 3.3490872531919340e+00 
4049 4050 2 1.0280000000012657e+00 2.7561968508937662e+03 1.0000000000000000e+00 2.2734807014861527e+01 1.8162078624010235e+01 3.0849224691829047e+00 
184 185 2 1.0280000000010519e+00 -3.2591251825043473e+03 1.0000000000000000e+00 2.2832274307376622e+01 1.8286981081486772e+01 3.0118167233973496e+00 
813 814 2 1.0280000000015150e+00 5.4228871127507409e+02 1.0000000000000000e+00 2.3474564150279694e+01 1.8383257411517356e+01 4.3868423943021346e+00 
1992 1993 2 1.0280000000044747e+00 4.6575151875274023e+03 1.0000000000000000e+00 2.4117106520566420e+01 1.9845216810823427e+01 4.8831985668329567e+00 
2415 2416 2 1.0279999999962528e+00 2.5418604690007414e+03 1.0000000000000000e+00 2.7095522675582984e+01 1.9704131724476301e+01 4.9045032481170185e+00 
1957 1958 2 1.0279999999915848e+00 1.4717976525039303e+03 1.0000000000000000e+00 2.7773251840057835e+01 1.9790318374103148e+01 3.9322779160673482e+00 
2419 2420 2 1.0279999999881668e+00 1.4719774655457095e+03 1.0000000000000000e+00 2.7871591416494574e+01 1.9370878472660493e+01 3.8612215559453524e+00 
96 97 2 1.0279999999963658e+00 -4.2100122891069514e+03 1.0000000000000000e+00 2.9025592820953214e+01 1.7640058644411205e+01 4.2907704456564151e+00 
1021 1022 2 1.0279999999894307e+00 -2.9979756207650162e+03 1.0000000000000000e+00 2.8718837852140620e+01 1.7737118450867591e+01 4.5935013166667993e+00 
2958 2959 2 1.0280000000022786e+00 3.2172461993492161e+03 1.0000000000000000e+00 2.9077417819722953e+01 1.7684933794511224e+01 4.0633500060008414e+00 
2913 2914 2 1.0280000000071270e+00 3.3696936232707576e+03 1.0000000000000000e+00 2.9803389191133707e+01 1.8159558821796697e+01 4.4804636936117639e+00 
1525 1526 2 1.0279999999946430e+00 5.6996991380008603e+03 1.0000000000000000e+00 3.2659475104054039e+01 1.7643313439608104e+01 3.3684681576889379e+00 
2282 2283 2 1.0279999999868288e+00 -5.2136914592288449e+03 1.0000000000000000e+00 3.2775990411826918e+01 1.8389491732941988e+01 4.2517654551203456e+00 
2744 2745 2 1.0279999999897131e+00 -5.2138018695900028e+03 1.0000000000000000e+00 3.2806142440391405e+01 1.8292438427955606e+01 4.2087545479150252e+00 
993 994 2 1.0279999999917615e+00 4.2821131547313286e+01 1.0000000000000000e+00 3.2843988626585649e+01 1.7346541640163487e+01 3.1732982158049223e+00 
3759 3760 2 1.0279999999960288e+00 2.8272370888926657e+03 1.0000000000000000e+00 2.8551194835431112e+01 1.7121154682792842e+01 7.1176047295316591e+00 
2918 2919 2 1.0279999999919249e+00 5.7860331003109586e+03 1.0000000000000000e+00 2.1545822741699908e+01 1.9218911765328013e+01 7.4146296748370739e+00 
2578 2579 2 1.0279999999909439e+00 6.7137367476275745e+02 1.0000000000000000e+00 2.1680009053449758e+01 1.9271644664106848e+01 7.3914587939047971e+00 
1570 1571 2 1.0280000000082785e+00 4.5572254762168504e+03 1.0000000000000000e+00 2.1832811595602237e+01 1.8612770409797132e+01 8.5145108603112050e+00 
1108 1109 2 1.0280000000045575e+00 4.6416800111804480e+02 1.0000000000000000e+00 2.0539340921827801e+01 1.9117633457501544e+01 8.5525703363925150e+00 
103 104 2 1.0280000000071248e+00 -3.1021129658082900e+03 1.0000000000000000e+00 2.3052595107771161e+01 1.8791822261811529e+01 7.3141695614165272e+00 
479 480 2 1.0279999999952114e+00 -1.9318677679889186e+03 1.0000000000000000e+00 2.3298281156497541e+01 1.8728658689890938e+01 7.0232229306944669e+00 
1745 1746 2 1.0280000000068208e+00 1.2503010345123976e+03 1.0000000000000000e+00 2.3431360310038546e+01 1.9598905075387737e+01 6.7221711385670986e+00 
945 946 2 1.0279999999929283e+00 -2.6675666652746258e+03 1.0000000000000000e+00 2.4636234413069026e+01 1.8535666219448178e+01 6.5405273095985388e+00 
2289 2290 2 1.0280000000077514e+00 -6.4821978004183111e+03 1.0000000000000000e+00 2.5394464211476372e+01 1.9031045371963621e+01 6.0474358962478059e+00 
896 897 2 1.0280000000111864e+00 -1.6765573528030159e+03 1.0000000000000000e+00 2.5446259015839182e+01 1.9158782055843403e+01 5.8786767250413270e+00 
723 724 2 1.0279999999959530e+00 5.1132633417461730e+03 1.0000000000000000e+00 2.5618217787511092e+01 1.7960009502577051e+01 8.3994803724836231e+00 
3888 3889 2 1.0279999999951965e+00 7.7538957417491256e+03 1.0000000000000000e+00 2.5793410912658523e+01 1.8001811694346145e+01 7.9953061341050349e+00 
3122 3123 2 1.0280000000366321e+00 1.6224848820620132e+03 1.0000000000000000e+00 2.7005454753944534e+01 1.9856231924833402e+01 7.1471324933399014e+00 
1105 1106 2 1.0279999999949010e+00 4.0563236413713275e+02 1.0000000000000000e+00 2.6924762300646705e+01 1.8371561900709274e+01 8.0199756558923117e+00 
142 143 2 1.0279999999898812e+00 -4.0471708957033006e+03 1.0000000000000000e+00 2.9410765693841274e+01 1.7219403086367766e+01 5.8440650429078875e+00 
818 819 2 1.0280000000009040e+00 1.1772623758727354e+03 1.0000000000000000e+00 2.9733211250934527e+01 1.7266902285399638e+01 7.5988970329655325e+00 
4177 4178 2 1.0280000000015954e+00 -6.2954936435764967e+02 1.0000000000000000e+00 2.9441399239513441e+01 1.7311003827665587e+01 8.0706342726764451e+00 
1569 1570 2 1.0280000000021166e+00 1.4213928435948551e+03 1.0000000000000000e+00 2.8935880741226402e+01 1.7374445532130380e+01 8.3055239298617742e+00 
480 481 2 1.0279999999984657e+00 -1.7591845024986524e+03 1.0000000000000000e+00 2.9888552956565228e+01 1.7496693877354222e+01 6.4558948825034621e+00 
100 101 2 1.0279999999960676e+00 -3.2155680333691403e+03 1.0000000000000000e+00 2.8094770383465377e+01 1.7774005987823298e+01 8.2211384716224423e+00 
1440 1441 2 1.0280000000291178e+00 1.0129585146538873e+03 1.0000000000000000e+00 2.9592806104675930e+01 1.8667099281805474e+01 6.0305473230317759e+00 
2920 2921 2 1.0279999999907714e+00 5.2489277992487005e+03 1.0000000000000000e+00 2.9153309140118974e+01 1.8515576151478218e+01 8.2744349459522102e+00 
2826 2827 2 1.0279999999821376e+00 1.0129777485958441e+03 1.0000000000000000e+00 3.1792078196038236e+01 1.9753527653094224e+01 5.8137984081454404e+00 
2101 2102 2 1.0280000000004781e+00 -2.9392480460683464e+03 1.0000000000000000e+00 1.6120733245207422e+01 1.1410233510053038e+01 9.1244413262924553e+00 
2142 2143 2 1.0280000000005589e+00 -2.9394771315698927e+03 1.0000000000000000e+00 1.6401761921515700e+01 1.1411486069290085e+01 9.1145581335755992e+00 
3611 3612 2 1.0279999999986849e+00 3.6612673316611904e+02 1.0000000000000000e+00 1.6669807490774410e+01 1.1385067789646548e+01 1.0523906355434676e+01 
1091 1092 2 1.0280000000004959e+00 -1.1240337706292153e+03 1.0000000000000000e+00 2.1449249267675153e+01 9.0498581737310371e+00 1.0705705917854914e+01 
2519 2520 2 1.0280000000006131e+00 1.9689992141043767e+03 1.0000000000000000e+00 2.1508961469987234e+01 9.0522086397657482e+00 1.0690667759430221e+01 
2057 2058 2 1.0280000000005547e+00 1.9665528499392490e+03 1.0000000000000000e+00 2.1490717826586252e+01 9.0560595773797807e+00 1.0692659301454514e+01 
3401 3402 2 1.0280000000006801e+00 -1.1206379099952460e+03 1.0000000000000000e+00 2.1375021203082905e+01 9.1071757230882486e+00 1.0707790902379795e+01 
3572 3573 2 1.0279999999979097e+00 3.6608446182855113e+02 1.0000000000000000e+00 1.5933899195770309e+01 1.1491524000328850e+01 1.0529194109336494e+01 
2604 2605 2 1.0280000000003056e+00 -2.9396551629445157e+03 1.0000000000000000e+00 1.6380579629085485e+01 1.2140551541802745e+01 9.1056939528691263e+00 
2563 2564 2 1.0279999999999940e+00 -2.9394295052934813e+03 1.0000000000000000e+00 1.6113155821336861e+01 1.2145720617290349e+01 9.1290020825442060e+00 
1262 1263 2 1.0279999999986908e+00 3.6520005969045138e+02 1.0000000000000000e+00 1.5845605160471516e+01 1.2147069652489495e+01 1.0483406815924653e+01 
1301 1302 2 1.0280000000038376e+00 3.6542431579171955e+02 1.0000000000000000e+00 1.6951478130144658e+01 1.2095877880222465e+01 1.0719421401141016e+01 
27 28 2 1.0280000000023399e+00 5.4906658599743594e+02 1.0000000000000000e+00 1.8339958300783270e+01 1.3837899447515657e+01 1.1279967345495674e+01 
447 448 2 1.0280000000020839e+00 5.4960408265275328e+02 1.0000000000000000e+00 1.8352972853779381e+01 1.3838823465043626e+01 1.1273920287714995e+01 
23 24 2 1.0280000000055070e+00 3.0997459893265881e+02 1.0000000000000000e+00 2.1233706530125961e+01 1.1933861426066267e+01 1.0983934117776252e+01 
1621 1622 2 1.0280000000019094e+00 9.8651426095268425e+02 1.0000000000000000e+00 2.1533271021852354e+01 1.2089419531722767e+01 1.1257496960342234e+01 
3932 3933 2 1.0279999999994545e+00 2.7739543738237417e+03 1.0000000000000000e+00 2.1570084137862935e+01 1.2294960716462642e+01 1.1192271370363404e+01 
1618 1619 2 1.0280000000043563e+00 1.1344562474982588e+03 1.0000000000000000e+00 2.0334924959089140e+01 1.3835578723403620e+01 1.0843384053632006e+01 
3923 3924 2 1.0279999999994698e+00 2.7730346491348237e+03 1.0000000000000000e+00 2.1058147858273394e+01 1.3057722200997594e+01 1.0664645930402290e+01 
697 698 2 1.0280000000003626e+00 7.5911857935368262e+03 1.0000000000000000e+00 2.0650645701014099e+01 1.3731759011591548e+01 1.1312412646175378e+01 
1626 1627 2 1.0280000000060052e+00 3.6509008831980702e+02 1.0000000000000000e+00 1.7307840883785225e+01 1.4635886409685488e+01 1.1367279383581685e+01 
20 21 2 1.0279999999992899e+00 2.9984005675140600e+02 1.0000000000000000e+00 1.8795970196392656e+01 1.5830056471223047e+01 1.0249787599320115e+01 
440 441 2 1.0280000000004033e+00 3.1279796922532586e+02 1.0000000000000000e+00 1.8175134431633296e+01 1.6419159293396479e+01 1.0211114531832765e+01 
436 437 2 1.0280000000152201e+00 5.4855936196807318e+02 1.0000000000000000e+00 1.8168789891497664e+01 1.6819272110463579e+01 1.0418588668352003e+01 
16 17 2 1.0280000000125225e+00 5.4807254683447275e+02 1.0000000000000000e+00 1.8477719676877328e+01 1.6629544195852546e+01 1.0449974262009437e+01 
1614 1615 2 1.0280000000006242e+00 9.7409636466706706e+02 1.0000000000000000e+00 1.9663734409509185e+01 1.4927606236230423e+01 1.0950700883013491e+01 
17 18 2 1.0279999999970704e+00 -2.2904648076540925e+03 1.0000000000000000e+00 1.6589993307800043e+01 1.7507836246914554e+01 1.1210596741426833e+01 
437 438 2 1.0279999999953875e+00 -2.2921916872152497e+03 1.0000000000000000e+00 1.6567735360599997e+01 1.7511068533896644e+01 1.1226201248335524e+01 
810 811 2 1.0280000000646810e+00 5.3325880769465141e+02 1.0000000000000000e+00 1.9099461981497399e+01 1.9350768568756170e+01 1.0896045051101396e+01 
3882 3883 2 1.0280000000269103e+00 4.2430360636764599e+03 1.0000000000000000e+00 1.8564722353303985e+01 1.9729066034734629e+01 1.0566253081416777e+01 
435 436 2 1.0280000000007294e+00 -7.7423260489743853e+01 1.0000000000000000e+00 1.9801489924164837e+01 1.9672543004091228e+01 8.8070318612730869e+00 
4343 4344 2 1.0280000000041809e+00 -1.7396658707254633e+03 1.0000000000000000e+00 2.0353198827550663e+01 1.9240114472800752e+01 8.6182318107500908e+00 
21 22 2 1.0280000000036538e+00 9.1313773188998834e+02 1.0000000000000000e+00 2.2165245349138722e+01 1.8600977902559805e+01 1.0623112711761475e+01 
1109 1110 2 1.0279999999558669e+00 -1.1904327011515375e+03 1.0000000000000000e+00 2.0858020517622045e+01 1.9605966717917141e+01 1.0870717398432978e+01 
948 949 2 1.0280000000053489e+00 -2.4212032438777878e+03 1.0000000000000000e+00 2.1900136445613153e+01 1.9873868377743484e+01 1.0077728780882815e+01 
1568 1569 2 1.0279999999943674e+00 3.4241531361533280e+03 1.0000000000000000e+00 2.4813818424676001e+01 1.8136791013515396e+01 8.5784154435700302e+00 
1573 1574 2 1.0279999999995708e+00 2.9844513810738545e+03 1.0000000000000000e+00 2.3080941999525972e+01 1.8941168652495136e+01 9.6969194700947838e+00 
225 226 2 1.0280000000119276e+00 -9.9302400751752793e+03 1.0000000000000000e+00 2.3264819191422347e+01 1.9811322672694960e+01 1.1248136703944104e+01 
4006 4007 2 1.0279999999996223e+00 -1.5133917325422244e+03 1.0000000000000000e+00 2.3361927289342702e+01 1.9123164532809369e+01 1.0403862134571938e+01 
9 10 2 1.0279999999980851e+00 2.2202316301101941e+03 1.0000000000000000e+00 2.5059456144933126e+01 1.8671064243349612e+01 9.2794397489645544e+00 
1030 1031 2 1.0280000000140088e+00 -1.6056358508601643e+03 1.0000000000000000e+00 2.5522785961117950e+01 1.8722426168749809e+01 9.4851089115185321e+00 
2990 2991 2 1.0280000000020606e+00 3.0312629501749961e+03 1.0000000000000000e+00 2.7567203172927552e+01 1.8117089426032724e+01 1.0981703051711428e+01 
3469 3470 2 1.0279999999991389e+00 5.3980931855061760e+02 1.0000000000000000e+00 2.6408491666253514e+01 1.9489127737239997e+01 1.0563644892677212e+01 
2374 2375 2 1.0280000000093878e+00 -1.2611472357394873e+03 1.0000000000000000e+00 2.6528123414165282e+01 1.9539073929489156e+01 1.0372414527930811e+01 
524 525 2 1.0279999999938665e+00 2.4516304577879273e+03 1.0000000000000000e+00 2.9408400171804146e+01 1.9444561544881758e+01 1.0270073807309682e+01 
987 988 2 1.0280000000013925e+00 -1.2673794117220726e+01 1.0000000000000000e+00 2.9747566033761792e+01 1.9344809773973488e+01 1.0389163188340993e+01 
3758 3759 2 1.0280000000031655e+00 2.4496172660515290e+03 1.0000000000000000e+00 3.0639187191880385e+01 1.9802603039102017e+01 1.0477084084042174e+01 
4220 4221 2 1.0279999999972873e+00 -8.0200082197527558e+02 1.0000000000000000e+00 3.1256723374245883e+01 1.9475199245779127e+01 1.1091906512779639e+01 
683 684 2 1.0279999999990850e+00 5.0290542396997516e+03 1.0000000000000000e+00 3.1074617670458213e+01 1.9249901551921091e+01 1.1278373999258134e+01 
4581 4582 2 1.0280000000008336e+00 9.5081607809146931e+01 1.0000000000000000e+00 1.8657533622943117e+01 8.9405143009074663e+00 1.2959852379814198e+01 
4161 4162 2 1.0279999999996738e+00 9.5042320551123197e+01 1.0000000000000000e+00 1.8834988549463407e+01 9.1469822192293311e+00 1.2328644590927704e+01 
2901 2902 2 1.0280000000002683e+00 3.2253200356901380e+03 1.0000000000000000e+00 1.8177626535100828e+01 9.3832519588465022e+00 1.2906444343317084e+01 
3069 3070 2 1.0279999999998752e+00 3.2252317397732904e+03 1.0000000000000000e+00 1.8374234817139154e+01 9.4523760464683413e+00 1.2370504946781569e+01 
3908 3909 2 1.0280000000001375e+00 3.0563213428506072e+02 1.0000000000000000e+00 1.8186151974382593e+01 9.4556532961518247e+00 1.2606846415121485e+01 
3447 3448 2 1.0279999999977010e+00 -6.7134756096372439e+03 1.0000000000000000e+00 1.8564175201398598e+01 1.0325218970562791e+01 1.2988561260067691e+01 
1976 1977 2 1.0279999999990599e+00 -1.5149821532725205e+03 1.0000000000000000e+00 2.1717032159129921e+01 9.4973825654310566e+00 1.3258382503488962e+01 
2438 2439 2 1.0279999999989053e+00 -1.5175977900228459e+03 1.0000000000000000e+00 2.1715869552328250e+01 9.4978883055715855e+00 1.3260759843898992e+01 
1137 1138 2 1.0280000000013561e+00 -6.7179263211081652e+03 1.0000000000000000e+00 2.0658324578220974e+01 1.0749736030004032e+01 1.2578936583132226e+01 
2144 2145 2 1.0279999999993363e+00 -1.5153722282069753e+03 1.0000000000000000e+00 2.2261575311304650e+01 9.0551764218064523e+00 1.1775419709867053e+01 
2606 2607 2 1.0279999999994776e+00 -1.5176614176305634e+03 1.0000000000000000e+00 2.2262470967115849e+01 9.0548176358672432e+00 1.1770632058814655e+01 
4198 4199 2 1.0279999999987552e+00 9.5519179340957237e+01 1.0000000000000000e+00 1.3652509480056837e+01 1.2312424541247426e+01 1.3131506975838354e+01 
3484 3485 2 1.0279999999989806e+00 -6.7133884477799311e+03 1.0000000000000000e+00 1.3680016583598142e+01 1.3761813198491883e+01 1.4238821355146445e+01 
4618 4619 2 1.0280000000028631e+00 9.5710577709354851e+01 1.0000000000000000e+00 1.3991111001416266e+01 1.2124310166555555e+01 1.4098276612423952e+01 
2938 2939 2 1.0280000000019909e+00 3.2256877362025007e+03 1.0000000000000000e+00 1.4512544721171539e+01 1.1930906086416392e+01 1.3623705308479355e+01 
3947 3948 2 1.0279999999989571e+00 3.0654461113551389e+02 1.0000000000000000e+00 1.4439201831667525e+01 1.2049328205262753e+01 1.3145809929272303e+01 
3106 3107 2 1.0279999999980087e+00 3.2254338879658872e+03 1.0000000000000000e+00 1.4134987250496456e+01 1.2274825590135521e+01 1.3006185279050319e+01 
1515 1516 2 1.0279999999995957e+00 3.2240691388229861e+03 1.0000000000000000e+00 1.6912981290291128e+01 1.2654819345902624e+01 1.3564543309761133e+01 
674 675 2 1.0280000000005396e+00 3.0446571079815129e+02 1.0000000000000000e+00 1.6964388431316834e+01 1.2689937077193919e+01 1.3527591388478232e+01 
423 424 2 1.0279999999992622e+00 9.4370915544208685e+01 1.0000000000000000e+00 1.6974562216047076e+01 1.2539916746170036e+01 1.3498795102937130e+01 
3 4 2 1.0279999999996710e+00 9.4365034064940886e+01 1.0000000000000000e+00 1.7046555513294088e+01 1.2499933708209324e+01 1.3421426673686595e+01 
1683 1684 2 1.0280000000017893e+00 3.2240657537245361e+03 1.0000000000000000e+00 1.7078943334255278e+01 1.2676942160075464e+01 1.3427244433773092e+01 
443 444 2 1.0280000000018488e+00 3.1849505960119154e+02 1.0000000000000000e+00 2.1425688143799150e+01 1.2070972367968762e+01 1.1494578672326252e+01 
2897 2898 2 1.0280000000011722e+00 -2.7585356432866010e+03 1.0000000000000000e+00 8.0669404187525018e+00 1.4325095536335953e+01 1.3749664418748733e+01 
3149 3150 2 1.0280000000010938e+00 -2.7600278207758120e+03 1.0000000000000000e+00 8.0186572880106191e+00 1.4427400168340165e+01 1.3338648038179947e+01 
3486 3487 2 1.0280000000012259e+00 -4.6313090076263816e+03 1.0000000000000000e+00 7.8309828513565618e+00 1.4446932949307246e+01 1.3504842653068168e+01 
1176 1177 2 1.0279999999989384e+00 -4.6294945216364613e+03 1.0000000000000000e+00 7.7411247282707292e+00 1.5191838623484584e+01 1.3595119586261548e+01 
1511 1512 2 1.0279999999986882e+00 -2.7585590080384973e+03 1.0000000000000000e+00 7.8896568271794063e+00 1.5307106494806435e+01 1.3609545895576360e+01 
1763 1764 2 1.0279999999986884e+00 -2.7583329368190280e+03 1.0000000000000000e+00 7.9061371006732042e+00 1.5315569111467813e+01 1.3604470795338930e+01 
2183 2184 2 1.0279999999995504e+00 -1.5149104852120436e+03 1.0000000000000000e+00 1.0799109379615109e+01 1.4657451731440020e+01 1.2758711936089615e+01 
2645 2646 2 1.0279999999995120e+00 -1.5179650914562699e+03 1.0000000000000000e+00 1.0776110399753504e+01 1.4663538605942790e+01 1.2800269362542020e+01 
1052 1053 2 1.0279999999995839e+00 -1.1241675308039053e+03 1.0000000000000000e+00 1.1968471178628041e+01 1.4448177651689102e+01 1.1949404075063237e+01 
2480 2481 2 1.0279999999996852e+00 1.9695555931772778e+03 1.0000000000000000e+00 1.1988954948459160e+01 1.4456903595001563e+01 1.1952336481864709e+01 
2018 2019 2 1.0279999999996319e+00 1.9662076893114690e+03 1.0000000000000000e+00 1.1988310830679458e+01 1.4457990083928008e+01 1.1952042313828549e+01 
3362 3363 2 1.0279999999997151e+00 -1.1205901602373228e+03 1.0000000000000000e+00 1.2017858972343340e+01 1.4499361032450041e+01 1.1954947285211052e+01 
1174 1175 2 1.0280000000009586e+00 -6.7183363400112403e+03 1.0000000000000000e+00 1.1386157289035056e+01 1.5182866398742664e+01 1.3695322903015111e+01 
1552 1553 2 1.0279999999983920e+00 3.2237216336634788e+03 1.0000000000000000e+00 1.4721660672539748e+01 1.4775355209976928e+01 1.3978300969328330e+01 
1720 1721 2 1.0280000000026150e+00 3.2236773359430281e+03 1.0000000000000000e+00 1.4753082908702000e+01 1.4845524984082058e+01 1.3323894670804771e+01 
713 714 2 1.0280000000002980e+00 3.0424554931036391e+02 1.0000000000000000e+00 1.4779892059707247e+01 1.4890516620738186e+01 1.3694318044158701e+01 
460 461 2 1.0279999999995566e+00 9.4142985961354455e+01 1.0000000000000000e+00 1.4252952341437577e+01 1.4917104856746265e+01 1.3992558735977450e+01 
40 41 2 1.0280000000032221e+00 9.4089702417610098e+01 1.0000000000000000e+00 1.4231855482135341e+01 1.5058288860137022e+01 1.3380445781112892e+01 
2545 2546 2 1.0279999999962612e+00 -8.2732308160135199e+03 1.0000000000000000e+00 1.9437002341930295e+01 1.4712281650771612e+01 1.1627436774578070e+01 
446 447 2 1.0280000000004252e+00 -2.2963323364817652e+03 1.0000000000000000e+00 1.7231621230856000e+01 1.5402052299182150e+01 1.2047389543792944e+01 
26 27 2 1.0279999999987000e+00 -2.2956872942619302e+03 1.0000000000000000e+00 1.7255573546222905e+01 1.5511212836705901e+01 1.2078702464574036e+01 
1620 1621 2 1.0279999999935561e+00 -4.7628305597602446e+02 1.0000000000000000e+00 1.7542279881194922e+01 1.6454096345352244e+01 1.2062128665657870e+01 
2169 2170 2 1.0279999999997600e+00 6.6340777882853235e+03 1.0000000000000000e+00 1.6128733700939377e+00 1.9815163419711190e+01 1.2587032033078767e+01 
652 653 2 1.0280000000004941e+00 7.9187796994523233e+03 1.0000000000000000e+00 4.9468875413516333e-01 1.8815082794890206e+01 1.4046675652166517e+01 
528 529 2 1.0280000000000491e+00 1.2021731759048489e+03 1.0000000000000000e+00 2.9610373705147826e+00 1.9394699534615611e+01 1.2721065937938963e+01 
361 362 2 1.0280000000001204e+00 -2.2718584146547983e+03 1.0000000000000000e+00 2.9645734873495320e+00 1.9395280326864821e+01 1.2721581114627167e+01 
1619 1620 2 1.0280000000014202e+00 1.0061184521707476e+03 1.0000000000000000e+00 3.2742893868432570e+00 1.9575578896274038e+01 1.3747376351971383e+01 
1960 1961 2 1.0280000000015261e+00 1.9861704218150663e+02 1.0000000000000000e+00 3.6714389981030462e+00 1.9843507299574064e+01 1.2900871556626491e+01 
2540 2541 2 1.0280000000007044e+00 -7.2244677199091348e+03 1.0000000000000000e+00 1.0278372003716017e+01 1.8921931801319339e+01 1.2941174436987614e+01 
2071 2072 2 1.0280000000006020e+00 -9.5173698126771560e+03 1.0000000000000000e+00 1.0267150817830283e+01 1.8924123229506762e+01 1.2952514687990542e+01 
2078 2079 2 1.0280000000002349e+00 -7.2072174492758240e+03 1.0000000000000000e+00 1.0179150193574470e+01 1.9028669597025473e+01 1.2967505455867611e+01 
4399 4400 2 1.0279999999994487e+00 -5.8153105270800424e+03 1.0000000000000000e+00 1.0370091624386927e+01 1.9925002288903393e+01 1.1861114188496556e+01 
4388 4389 2 1.0279999999999985e+00 -3.2936377563097649e+03 1.0000000000000000e+00 1.2983512193019227e+01 1.8153793883503919e+01 1.3862486470186074e+01 
233 234 2 1.0279999999899696e+00 -3.2671364881228264e+03 1.0000000000000000e+00 1.3701471772802959e+01 1.8820974925592765e+01 1.2393485076875919e+01 
1615 1616 2 1.0279999999999461e+00 -4.8341225991613965e+02 1.0000000000000000e+00 1.4127196967841067e+01 1.8309878579322000e+01 1.2396341149925183e+01 
1188 1189 2 1.0279999999967202e+00 2.8261204871132036e+03 1.0000000000000000e+00 1.4136890661402566e+01 1.8611178466723043e+01 1.1949117440058551e+01 
647 648 2 1.0280000000104783e+00 7.0001666856463471e+03 1.0000000000000000e+00 1.5809325941656308e+01 1.8089533749295320e+01 1.1791859811352275e+01 
1609 1610 2 1.0279999999991443e+00 3.8042021117482011e+02 1.0000000000000000e+00 1.5022038049885639e+01 1.8145277201679740e+01 1.1591519629970724e+01 
731 732 2 1.0280000000066309e+00 7.0000406581413208e+03 1.0000000000000000e+00 1.5576374327392823e+01 1.8198359374656935e+01 1.2095577615620915e+01 
4374 4375 2 1.0279999999724942e+00 -4.3806944026965539e+03 1.0000000000000000e+00 1.8763659459308641e+01 1.9992342547143775e+01 1.1579223878904440e+01 
558 559 2 1.0279999999984846e+00 5.2637138163790848e+02 1.0000000000000000e+00 1.9728052046124809e+01 1.9678670612999873e+01 1.3593993862468913e+01 
441 442 2 1.0280000000153189e+00 9.1950720483327109e+02 1.0000000000000000e+00 2.0956577011805791e+01 1.9444818211822557e+01 1.3002329297605199e+01 
1153 1154 2 1.0280000000016218e+00 1.2115757450838169e+03 1.0000000000000000e+00 2.1972112265445315e+01 1.9123685633643287e+01 1.2233197544638417e+01 
2992 2993 2 1.0280000000013363e+00 2.2059369684889025e+03 1.0000000000000000e+00 2.2808797952467273e+01 1.8794316480934445e+01 1.1690176981335204e+01 
766 767 2 1.0280000000014808e+00 -5.2353696696854968e+02 1.0000000000000000e+00 2.2934596472224314e+01 1.9326797272843994e+01 1.2427281842547318e+01 
3787 3788 2 1.0279999999983556e+00 1.4354892854821753e+03 1.0000000000000000e+00 2.7649357787829075e+01 1.7779613862391670e+01 1.2103255385269321e+01 
4039 4040 2 1.0279999999989680e+00 1.4357944355219511e+03 1.0000000000000000e+00 2.7700187008629577e+01 1.7784084681499827e+01 1.2100764726290395e+01 
1647 1648 2 1.0279999999973886e+00 3.9213517085508165e+03 1.0000000000000000e+00 2.6854742602530546e+01 1.8069194331889118e+01 1.2259152808415161e+01 
4397 4398 2 1.0279999999995144e+00 -4.6936259811638465e+03 1.0000000000000000e+00 2.6187399363647295e+01 1.9392123137191700e+01 1.4148493274693347e+01 
1563 1564 2 1.0279999999970233e+00 3.9211419871842072e+03 1.0000000000000000e+00 2.6525679636817848e+01 1.8371810611291156e+01 1.1987163395331679e+01 
2997 2998 2 1.0280000000183156e+00 3.7945843322741321e+03 1.0000000000000000e+00 2.8369925490725088e+01 1.9395880683428729e+01 1.3299726271881992e+01 
678 679 2 1.0280000000056646e+00 7.3734515964511650e+02 1.0000000000000000e+00 2.8792929260653100e+01 1.8819573295666547e+01 1.2523290420235158e+01 
1603 1604 2 1.0280000000080098e+00 1.5796544185418738e+03 1.0000000000000000e+00 2.9331515221193765e+01 1.8718214865737203e+01 1.1821049276668186e+01 
239 240 2 1.0279999999996976e+00 -4.6980613102291954e+03 1.0000000000000000e+00 3.1305718836903331e+01 1.9981233154172681e+01 1.3393281518589548e+01 
598 599 2 1.0280000000005227e+00 -5.2201534039646981e+02 1.0000000000000000e+00 3.2482603488113142e+01 1.9198585559280577e+01 1.1998409459418246e+01 
4174 4175 2 1.0279999999998279e+00 5.4991520208700365e+02 1.0000000000000000e+00 5.4577555414163488e+00 1.3055947236595093e+00 1.5377610664841040e+01 
4594 4595 2 1.0279999999997906e+00 5.5075921033001555e+02 1.0000000000000000e+00 5.4482864401405733e+00 1.3006475535471684e+00 1.5350204515311619e+01 