LAMMPS data file via write_data, version 30 Jul 2016, timestep = 50400000

4620 atoms
8 atom types

0.0000000000000000e+00 1.0000000000000000e+02 xlo xhi
0.0000000000000000e+00 4.0000000000000000e+01 ylo yhi
0.0000000000000000e+00 4.0000000000000000e+01 zlo zhi

Masses

1 3.896
2 5.36
3 20.064
4 8.378
5 8.378
6 8.378
7 8.378
8 8.378

Atoms # meso-molecular

593 594 2 1.0280000000000149e+00 -2.6420572958798157e+03 1.0000000000000000e+00 2.6166519808397487e-02 1.3850042819244399e+01 6.1359791361037841e-01 
1095 1096 2 1.0279999999999996e+00 -3.6003386849566768e+03 1.0000000000000000e+00 1.8467060999132021e-01 1.4293253119535690e+01 1.0351744316577758e+00 
2866 2867 2 1.0279999999996507e+00 6.4921716945429980e+03 1.0000000000000000e+00 3.0435036272240691e+01 1.6525269665448395e+01 4.2194493993603005e-01 
1397 1398 2 1.0279999999993779e+00 7.5219010238088936e+02 1.0000000000000000e+00 3.0496225115983876e+01 1.6535336690404876e+01 5.7221763124622183e-01 
2153 2154 2 1.0280000000019407e+00 2.3837312093205337e+03 1.0000000000000000e+00 3.1580237880361636e+01 1.6350773424398962e+01 4.5937323011533915e-01 
520 521 2 1.0279999999991452e+00 1.2339093400381478e+03 1.0000000000000000e+00 3.3133370641168426e+01 1.6815862358068909e+01 7.6164665345154059e-01 
4255 4256 2 1.0279999999984570e+00 -2.0611436250031238e+03 1.0000000000000000e+00 3.3208298014984514e+01 1.6843473683985454e+01 8.0170370981273265e-01 
4579 4580 2 1.0279999999999943e+00 -4.7600630336439244e+03 1.0000000000000000e+00 1.2262784047048301e+00 1.8913116092377685e+01 2.6318424548049335e+00 
421 422 2 1.0280000000000016e+00 -4.7600589405823484e+03 1.0000000000000000e+00 1.2265727979745014e+00 1.8910464308669823e+01 2.6307657510232403e+00 
637 638 2 1.0280000000000040e+00 3.0906576810124507e+03 1.0000000000000000e+00 6.2487545548837808e-01 1.7823161489979800e+01 2.2924702261912344e+00 
83 84 2 1.0280000000000074e+00 -3.9577582068344991e+03 1.0000000000000000e+00 1.0381577145329124e+00 1.9004179067598489e+01 8.9246176319598713e-01 
4241 4242 2 1.0280000000000009e+00 -3.9577542168074797e+03 1.0000000000000000e+00 1.0377697291376196e+00 1.8819272275330526e+01 8.9145308709176574e-01 
4307 4308 2 1.0280000000021010e+00 -3.0385406023397391e+03 1.0000000000000000e+00 2.8728999675261754e+01 1.9616438263071778e+01 1.6025789594025373e+00 
149 150 2 1.0279999999970046e+00 -3.0385135596800910e+03 1.0000000000000000e+00 2.8865895363528878e+01 1.8391567785133180e+01 1.2847036338570152e+00 
2376 2377 2 1.0279999999994642e+00 7.5976388254010786e+01 1.0000000000000000e+00 2.8785709528105563e+01 1.8129522975517446e+01 2.0725109974589735e+00 
60 61 2 1.0279999999968676e+00 9.4662286162455274e+01 1.0000000000000000e+00 2.9223183368022521e+01 1.7686575080886644e+01 1.7701752745569606e+00 
3249 3250 2 1.0280000000016545e+00 -8.6815742018465426e+02 1.0000000000000000e+00 2.9574393029290107e+01 1.9898578601809572e+01 2.7619955843781047e-01 
939 940 2 1.0279999999964999e+00 -8.6807923538499722e+02 1.0000000000000000e+00 2.9634202089900167e+01 1.7906728150700339e+01 2.2043539954750527e-01 
819 820 2 1.0280000000042695e+00 1.0478735905072044e+03 1.0000000000000000e+00 3.0674625915202071e+01 1.8007818410880407e+01 2.3007040018549270e+00 
984 985 2 1.0279999999989637e+00 2.2639577094427323e+03 1.0000000000000000e+00 3.1693243186958497e+01 1.8584172074389901e+01 2.1069520622185933e-01 
3294 3295 2 1.0279999999975804e+00 2.2637770527836492e+03 1.0000000000000000e+00 3.1721607164990427e+01 1.9171179067216531e+01 2.2354134048999458e-01 
2288 2289 2 1.0280000000002794e+00 -5.7051162123617851e+03 1.0000000000000000e+00 3.1847557957836138e+01 1.7789805699991369e+01 2.4194519897545379e+00 
1059 1060 2 1.0280000000000087e+00 3.1247887738877926e+03 1.0000000000000000e+00 9.6039940191303283e-02 1.8863285206066742e+01 3.8858712090396490e+00 
3369 3370 2 1.0279999999999980e+00 3.1247849078825875e+03 1.0000000000000000e+00 9.5811569287707260e-02 1.8960432697282435e+01 3.8859755797596622e+00 
1106 1107 2 1.0280000000008653e+00 -1.3380959125019672e+03 1.0000000000000000e+00 2.2543212186769725e+01 1.8150652684038043e+01 3.1810484414357827e+00 
2704 2705 2 1.0279999999961615e+00 -1.7908234433642228e+03 1.0000000000000000e+00 2.2591750470402598e+01 1.9124353917166374e+01 4.4287623811204497e+00 
2039 2040 2 1.0280000000009575e+00 4.8417339262752773e+02 1.0000000000000000e+00 2.2818844149269118e+01 1.7910516562637383e+01 3.5947126790544015e+00 
4303 4304 2 1.0279999999987115e+00 -3.5119323872522064e+03 1.0000000000000000e+00 2.2635391800028827e+01 1.9283077055747505e+01 3.3482923039180799e+00 
4049 4050 2 1.0280000000010308e+00 2.7561968508937662e+03 1.0000000000000000e+00 2.2735290549309365e+01 1.8162093400977422e+01 3.0841273724213853e+00 
184 185 2 1.0280000000007896e+00 -3.2591251825043473e+03 1.0000000000000000e+00 2.2832757860681067e+01 1.8286995881825032e+01 3.0110216231511733e+00 
813 814 2 1.0280000000014051e+00 5.4228871127507409e+02 1.0000000000000000e+00 2.3475047643097010e+01 1.8383271968814622e+01 4.3860473212419731e+00 
1992 1993 2 1.0280000000040244e+00 4.6575151875274023e+03 1.0000000000000000e+00 2.4117590301907075e+01 1.9845231280616677e+01 4.8824034196003749e+00 
2415 2416 2 1.0279999999964293e+00 2.5418604690007414e+03 1.0000000000000000e+00 2.7096006049087357e+01 1.9704142237296999e+01 4.9037078827537224e+00 
1957 1958 2 1.0279999999923046e+00 1.4717976525039303e+03 1.0000000000000000e+00 2.7773734884894065e+01 1.9790326581956393e+01 3.9314831361502507e+00 
2419 2420 2 1.0279999999892533e+00 1.4719774655457095e+03 1.0000000000000000e+00 2.7872074562146267e+01 1.9370886593324776e+01 3.8604267991920191e+00 
96 97 2 1.0279999999969376e+00 -4.2100122891069514e+03 1.0000000000000000e+00 2.9026074770240587e+01 1.7640066044042609e+01 4.2899754201890721e+00 
1021 1022 2 1.0279999999899090e+00 -2.9979756207650162e+03 1.0000000000000000e+00 2.8719320234528162e+01 1.7737126418649105e+01 4.5927061811393788e+00 
2958 2959 2 1.0280000000018155e+00 3.2172461993492161e+03 1.0000000000000000e+00 2.9077899708181324e+01 1.7684940762876902e+01 4.0625549593372430e+00 
2913 2914 2 1.0280000000066185e+00 3.3696936232707576e+03 1.0000000000000000e+00 2.9803871633647368e+01 1.8159565575551731e+01 4.4796685364852742e+00 
1525 1526 2 1.0279999999950973e+00 5.6996991380008603e+03 1.0000000000000000e+00 3.2659956597293224e+01 1.7643315121508834e+01 3.3676733956753173e+00 
2282 2283 2 1.0279999999879303e+00 -5.2136914592288449e+03 1.0000000000000000e+00 3.2776471917356552e+01 1.8389493498105328e+01 4.2509704615395014e+00 
2744 2745 2 1.0279999999904126e+00 -5.2138018695900028e+03 1.0000000000000000e+00 3.2806623854721110e+01 1.8292440163790296e+01 4.2079596075951882e+00 
993 994 2 1.0279999999926990e+00 4.2821131547313286e+01 1.0000000000000000e+00 3.2844470085434580e+01 1.7346543349679692e+01 3.1725033809056296e+00 
3759 3760 2 1.0279999999964122e+00 2.8272370888926657e+03 1.0000000000000000e+00 2.8551677265647758e+01 1.7121164207077108e+01 7.1168102974227576e+00 
2918 2919 2 1.0279999999929097e+00 5.7860331003109586e+03 1.0000000000000000e+00 2.1546306649455612e+01 1.9218929743128641e+01 7.4138348471344306e+00 
2578 2579 2 1.0279999999918856e+00 6.7137367476275745e+02 1.0000000000000000e+00 2.1680492876136189e+01 1.9271662455093452e+01 7.3906639900547253e+00 
1570 1571 2 1.0280000000076264e+00 4.5572254762168504e+03 1.0000000000000000e+00 2.1833295266794302e+01 1.8612787716901853e+01 8.5137158077420612e+00 
1108 1109 2 1.0280000000042500e+00 4.6416800111804480e+02 1.0000000000000000e+00 2.0539825092660294e+01 1.9117652596449766e+01 8.5517752277369574e+00 
103 104 2 1.0280000000068408e+00 -3.1021129658082900e+03 1.0000000000000000e+00 2.3053078455999554e+01 1.8791837797119985e+01 7.3133745720729797e+00 
479 480 2 1.0279999999958260e+00 -1.9318677679889186e+03 1.0000000000000000e+00 2.3298764631325586e+01 1.8728674084427610e+01 7.0224280902590346e+00 
1745 1746 2 1.0280000000062681e+00 1.2503010345123976e+03 1.0000000000000000e+00 2.3431843643982120e+01 1.9598920404357447e+01 6.7213763305393188e+00 
945 946 2 1.0279999999933174e+00 -2.6675666652746258e+03 1.0000000000000000e+00 2.4636717655344395e+01 1.8535680283323519e+01 6.5397327118208937e+00 
2289 2290 2 1.0280000000072640e+00 -6.4821978004183111e+03 1.0000000000000000e+00 2.5394947749496044e+01 1.9031058301118328e+01 6.0466407127198458e+00 
896 897 2 1.0280000000101281e+00 -1.6765573528030159e+03 1.0000000000000000e+00 2.5446742661972891e+01 1.9158794911072256e+01 5.8778813333704427e+00 
723 724 2 1.0279999999959015e+00 5.1132633417461730e+03 1.0000000000000000e+00 2.5618700843884088e+01 1.7960022562065877e+01 8.3986853987690893e+00 
3888 3889 2 1.0279999999952536e+00 7.7538957417491256e+03 1.0000000000000000e+00 2.5793893949528002e+01 1.8001824568990763e+01 7.9945114331539369e+00 
3122 3123 2 1.0280000000336400e+00 1.6224848820620132e+03 1.0000000000000000e+00 2.7005938495381795e+01 1.9856244000087049e+01 7.1463377382752755e+00 
1105 1106 2 1.0279999999951008e+00 4.0563236413713275e+02 1.0000000000000000e+00 2.6925245427374652e+01 1.8371573670453593e+01 8.0191811161424980e+00 
142 143 2 1.0279999999904164e+00 -4.0471708957033006e+03 1.0000000000000000e+00 2.9411247598901127e+01 1.7219411696107713e+01 5.8432704412132361e+00 
818 819 2 1.0280000000005347e+00 1.1772623758727354e+03 1.0000000000000000e+00 2.9733693397507913e+01 1.7266911415365811e+01 7.5981026335742596e+00 
4177 4178 2 1.0280000000016860e+00 -6.2954936435764967e+02 1.0000000000000000e+00 2.9441881439675850e+01 1.7311013298011069e+01 8.0698399086199686e+00 
1569 1570 2 1.0280000000018104e+00 1.4213928435948551e+03 1.0000000000000000e+00 2.8936362989241200e+01 1.7374455316458256e+01 8.3047295382788811e+00 
480 481 2 1.0279999999983889e+00 -1.7591845024986524e+03 1.0000000000000000e+00 2.9889035023485363e+01 1.7496702184154667e+01 6.4551002811381384e+00 
100 101 2 1.0279999999962279e+00 -3.2155680333691403e+03 1.0000000000000000e+00 2.8095253089251319e+01 1.7774016549480919e+01 8.2203438693052746e+00 
1440 1441 2 1.0280000000267864e+00 1.0129585146538873e+03 1.0000000000000000e+00 2.9593289063658517e+01 1.8667107725151389e+01 6.0297525582985916e+00 
2920 2921 2 1.0279999999912619e+00 5.2489277992487005e+03 1.0000000000000000e+00 2.9153791202197507e+01 1.8515585907604894e+01 8.2736403453332574e+00 
2826 2827 2 1.0279999999837688e+00 1.0129777485958441e+03 1.0000000000000000e+00 3.1792560853109990e+01 1.9753533394879231e+01 5.8130029490485704e+00 
2101 2102 2 1.0280000000005087e+00 -2.9392480460683464e+03 1.0000000000000000e+00 1.6121218072497143e+01 1.1410261657914758e+01 9.1236475662477350e+00 
2142 2143 2 1.0280000000005649e+00 -2.9394771315698927e+03 1.0000000000000000e+00 1.6402246761619043e+01 1.1411514210470994e+01 9.1137643647227442e+00 
3611 3612 2 1.0279999999984679e+00 3.6612673316611904e+02 1.0000000000000000e+00 1.6670292323721878e+01 1.1385095966984458e+01 1.0523112587833859e+01 
1091 1092 2 1.0280000000004827e+00 -1.1240337706292153e+03 1.0000000000000000e+00 2.1449735094560715e+01 9.0498864498966061e+00 1.0704912378294773e+01 
2519 2520 2 1.0280000000002802e+00 1.9689992141043767e+03 1.0000000000000000e+00 2.1509447302140742e+01 9.0522369144906918e+00 1.0689874216574024e+01 
2057 2058 2 1.0280000000003233e+00 1.9665528499392490e+03 1.0000000000000000e+00 2.1491203657064002e+01 9.0560878521202177e+00 1.0691865758471147e+01 
3401 3402 2 1.0280000000006064e+00 -1.1206379099952460e+03 1.0000000000000000e+00 2.1375507022598416e+01 9.1072039979630492e+00 1.0706997356921631e+01 
3572 3573 2 1.0279999999983302e+00 3.6608446182855113e+02 1.0000000000000000e+00 1.5934384120651734e+01 1.1491552246015205e+01 1.0528400320018537e+01 
2604 2605 2 1.0280000000004346e+00 -2.9396551629445157e+03 1.0000000000000000e+00 1.6381064459726741e+01 1.2140579689792615e+01 9.1049001667699034e+00 
2563 2564 2 1.0279999999999783e+00 -2.9394295052934813e+03 1.0000000000000000e+00 1.6113640646249753e+01 1.2145748765438171e+01 9.1282083210031733e+00 
1262 1263 2 1.0279999999990550e+00 3.6520005969045138e+02 1.0000000000000000e+00 1.5846090054717770e+01 1.2147097741540072e+01 1.0482613056277755e+01 
1301 1302 2 1.0280000000036753e+00 3.6542431579171955e+02 1.0000000000000000e+00 1.6951963145661985e+01 1.2095905870760962e+01 1.0718627709561021e+01 
27 28 2 1.0280000000021272e+00 5.4906658599743594e+02 1.0000000000000000e+00 1.8340443500589409e+01 1.3837926665499767e+01 1.1279173459757910e+01 
447 448 2 1.0280000000018792e+00 5.4960408265275328e+02 1.0000000000000000e+00 1.8353458057443810e+01 1.3838850690753839e+01 1.1273126402485977e+01 
23 24 2 1.0280000000050755e+00 3.0997459893265881e+02 1.0000000000000000e+00 2.1234192416088522e+01 1.1933889402704059e+01 1.0983140142262364e+01 
1621 1622 2 1.0280000000014768e+00 9.8651426095268425e+02 1.0000000000000000e+00 2.1533757026275552e+01 1.2089447617400484e+01 1.1256703187926146e+01 
3932 3933 2 1.0279999999990608e+00 2.7739543738237417e+03 1.0000000000000000e+00 2.1570570068140139e+01 1.2294988816284640e+01 1.1191477569339867e+01 
1618 1619 2 1.0280000000040501e+00 1.1344562474982588e+03 1.0000000000000000e+00 2.0335410642063643e+01 1.3835606590836795e+01 1.0842589971817803e+01 
3923 3924 2 1.0279999999996778e+00 2.7730346491348237e+03 1.0000000000000000e+00 2.1058633667501379e+01 1.3057750230668759e+01 1.0663852003788024e+01 
697 698 2 1.0280000000005951e+00 7.5911857935368262e+03 1.0000000000000000e+00 2.0651131397023601e+01 1.3731786942848670e+01 1.1311618789966793e+01 
1626 1627 2 1.0280000000049860e+00 3.6509008831980702e+02 1.0000000000000000e+00 1.7308325455866598e+01 1.4635913461642481e+01 1.1366485447506856e+01 
20 21 2 1.0279999999992755e+00 2.9984005675140600e+02 1.0000000000000000e+00 1.8796455416516327e+01 1.5830082904605865e+01 1.0248993256493312e+01 
440 441 2 1.0280000000002656e+00 3.1279796922532586e+02 1.0000000000000000e+00 1.8175619248904852e+01 1.6419185473894800e+01 1.0210319964107050e+01 
436 437 2 1.0280000000138103e+00 5.4855936196807318e+02 1.0000000000000000e+00 1.8169274802696357e+01 1.6819298622383943e+01 1.0417793519738915e+01 
16 17 2 1.0280000000114353e+00 5.4807254683447275e+02 1.0000000000000000e+00 1.8478205048322959e+01 1.6629570614813368e+01 1.0449179346006607e+01 
1614 1615 2 1.0280000000004426e+00 9.7409636466706706e+02 1.0000000000000000e+00 1.9664219939887580e+01 1.4927633353699711e+01 1.0949906861601519e+01 
17 18 2 1.0279999999973157e+00 -2.2904648076540925e+03 1.0000000000000000e+00 1.6590477810066083e+01 1.7507862672574337e+01 1.1209802885026274e+01 
437 438 2 1.0279999999956082e+00 -2.2921916872152497e+03 1.0000000000000000e+00 1.6568219892901830e+01 1.7511094952236029e+01 1.1225407425132845e+01 
810 811 2 1.0280000000596474e+00 5.3325880769465141e+02 1.0000000000000000e+00 1.9099946639151099e+01 1.9350789201150150e+01 1.0895250547809276e+01 
3882 3883 2 1.0280000000249303e+00 4.2430360636764599e+03 1.0000000000000000e+00 1.8565206294723620e+01 1.9729088980966125e+01 1.0565457693165335e+01 
435 436 2 1.0280000000008940e+00 -7.7423260489743853e+01 1.0000000000000000e+00 1.9801974283261000e+01 1.9672563638880359e+01 8.8062367778571140e+00 
4343 4344 2 1.0280000000039553e+00 -1.7396658707254633e+03 1.0000000000000000e+00 2.0353683038117186e+01 1.9240133963681430e+01 8.6174367102043323e+00 
21 22 2 1.0280000000034226e+00 9.1313773188998834e+02 1.0000000000000000e+00 2.2165728713914739e+01 1.8600995617359899e+01 1.0622317590126533e+01 
1109 1110 2 1.0279999999593932e+00 -1.1904327011515375e+03 1.0000000000000000e+00 2.0858505417187541e+01 1.9605986657913775e+01 1.0869922242885220e+01 
948 949 2 1.0280000000050653e+00 -2.4212032438777878e+03 1.0000000000000000e+00 2.1900620220545630e+01 1.9873886832377039e+01 1.0076933747735978e+01 
1568 1569 2 1.0279999999948850e+00 3.4241531361533280e+03 1.0000000000000000e+00 2.4814301743571853e+01 1.8136804846688776e+01 8.5776202902994783e+00 
1573 1574 2 1.0279999999996914e+00 2.9844513810738545e+03 1.0000000000000000e+00 2.3081425349867729e+01 1.8941185450797182e+01 9.6961243072269880e+00 
225 226 2 1.0280000000110443e+00 -9.9302400751752793e+03 1.0000000000000000e+00 2.3265303165113099e+01 1.9811340117065516e+01 1.1247341367643880e+01 
4006 4007 2 1.0279999999997453e+00 -1.5133917325422244e+03 1.0000000000000000e+00 2.3362410591977302e+01 1.9123181352894147e+01 1.0403066914443592e+01 
9 10 2 1.0279999999983569e+00 2.2202316301101941e+03 1.0000000000000000e+00 2.5059939251741035e+01 1.8671077788776543e+01 9.2786445143735694e+00 
1030 1031 2 1.0280000000127711e+00 -1.6056358508601643e+03 1.0000000000000000e+00 2.5523268927952213e+01 1.8722439353344633e+01 9.4843140767590750e+00 
2990 2991 2 1.0280000000019989e+00 3.0312629501749961e+03 1.0000000000000000e+00 2.7567685843028947e+01 1.8117100916717053e+01 1.0980907835261698e+01 
3469 3470 2 1.0279999999991831e+00 5.3980931855061760e+02 1.0000000000000000e+00 2.6408974889451748e+01 1.9489140675972212e+01 1.0562850259653777e+01 
2374 2375 2 1.0280000000084042e+00 -1.2611472357394873e+03 1.0000000000000000e+00 2.6528606507157264e+01 1.9539086779179019e+01 1.0371619745417869e+01 
524 525 2 1.0279999999942560e+00 2.4516304577879273e+03 1.0000000000000000e+00 2.9408882908757324e+01 1.9444571751251619e+01 1.0269278394048555e+01 
987 988 2 1.0280000000012333e+00 -1.2673794117220726e+01 1.0000000000000000e+00 2.9748048814861821e+01 1.9344819517688013e+01 1.0388367598228863e+01 
3758 3759 2 1.0280000000026797e+00 2.4496172660515290e+03 1.0000000000000000e+00 3.0639670032736912e+01 1.9802611832283212e+01 1.0476288676795303e+01 
4220 4221 2 1.0279999999974623e+00 -8.0200082197527558e+02 1.0000000000000000e+00 3.1257206119488849e+01 1.9475207448046223e+01 1.1091111388070368e+01 
683 684 2 1.0279999999990650e+00 5.0290542396997516e+03 1.0000000000000000e+00 3.1075100553798151e+01 1.9249909909274205e+01 1.1277578743302417e+01 
4581 4582 2 1.0280000000005920e+00 9.5081607809146931e+01 1.0000000000000000e+00 1.8658019256834930e+01 8.9405429461621519e+00 1.2959058935601908e+01 
4161 4162 2 1.0279999999996796e+00 9.5042320551123197e+01 1.0000000000000000e+00 1.8835474201129337e+01 9.1470109051521664e+00 1.2327851156059909e+01 
2901 2902 2 1.0280000000004832e+00 3.2253200356901380e+03 1.0000000000000000e+00 1.8178112138474660e+01 9.3832806474005359e+00 1.2905650900761785e+01 
3069 3070 2 1.0279999999999032e+00 3.2252317397732904e+03 1.0000000000000000e+00 1.8374720443698020e+01 9.4524047342674216e+00 1.2369711504210128e+01 
3908 3909 2 1.0280000000004901e+00 3.0563213428506072e+02 1.0000000000000000e+00 1.8186637585383114e+01 9.4556819859545058e+00 1.2606052964356385e+01 
3447 3448 2 1.0279999999980383e+00 -6.7134756096372439e+03 1.0000000000000000e+00 1.8564660828980866e+01 1.0325247502186226e+01 1.2987767815001098e+01 
1976 1977 2 1.0279999999991636e+00 -1.5149821532725205e+03 1.0000000000000000e+00 2.1717517866164126e+01 9.4974110467243609e+00 1.3257588968889261e+01 
2438 2439 2 1.0279999999991742e+00 -1.5175977900228459e+03 1.0000000000000000e+00 2.1716355259401215e+01 9.4979167870567984e+00 1.3259966309163580e+01 
1137 1138 2 1.0280000000011360e+00 -6.7179263211081652e+03 1.0000000000000000e+00 2.0658810302480003e+01 1.0749764440305926e+01 1.2578143119797154e+01 
2144 2145 2 1.0279999999993568e+00 -1.5153722282069753e+03 1.0000000000000000e+00 2.2262061088879591e+01 9.0552047890864227e+00 1.1774626236382478e+01 
2606 2607 2 1.0279999999995275e+00 -1.5176614176305634e+03 1.0000000000000000e+00 2.2262956745074938e+01 9.0548460027665385e+00 1.1769838585543678e+01 
4198 4199 2 1.0279999999989833e+00 9.5519179340957237e+01 1.0000000000000000e+00 1.3652994623157907e+01 1.2312453976055286e+01 1.3130713686438243e+01 
3484 3485 2 1.0279999999989935e+00 -6.7133884477799311e+03 1.0000000000000000e+00 1.3680501700811865e+01 1.3761842599740037e+01 1.4238028000523899e+01 
4618 4619 2 1.0280000000026190e+00 9.5710577709354851e+01 1.0000000000000000e+00 1.3991596136010241e+01 1.2124339464997503e+01 1.4097483426343619e+01 
2938 2939 2 1.0280000000017899e+00 3.2256877362025007e+03 1.0000000000000000e+00 1.4513029864985617e+01 1.1930935215676094e+01 1.3622911977100335e+01 
3947 3948 2 1.0279999999989013e+00 3.0654461113551389e+02 1.0000000000000000e+00 1.4439686947499037e+01 1.2049357461929445e+01 1.3145016588814363e+01 
3106 3107 2 1.0279999999980500e+00 3.2254338879658872e+03 1.0000000000000000e+00 1.4135472389667250e+01 1.2274854924384933e+01 1.3005392010272480e+01 
1515 1516 2 1.0279999999997944e+00 3.2240691388229861e+03 1.0000000000000000e+00 1.6913466421292423e+01 1.2654847753731810e+01 1.3563749974872737e+01 
674 675 2 1.0280000000004372e+00 3.0446571079815129e+02 1.0000000000000000e+00 1.6964873576746363e+01 1.2689965467818171e+01 1.3526798074150973e+01 
423 424 2 1.0279999999994018e+00 9.4370915544208685e+01 1.0000000000000000e+00 1.6975047345341892e+01 1.2539945142177363e+01 1.3498001755268724e+01 
3 4 2 1.0279999999994394e+00 9.4365034064940886e+01 1.0000000000000000e+00 1.7047040647485350e+01 1.2499962081318612e+01 1.3420633327409547e+01 
1683 1684 2 1.0280000000015530e+00 3.2240657537245361e+03 1.0000000000000000e+00 1.7079428518527891e+01 1.2676970513777885e+01 1.3426451137958869e+01 
443 444 2 1.0280000000019853e+00 3.1849505960119154e+02 1.0000000000000000e+00 2.1426174109811122e+01 1.2071000458037394e+01 1.1493784994679435e+01 
2897 2898 2 1.0280000000010905e+00 -2.7585356432866010e+03 1.0000000000000000e+00 8.0674255471570326e+00 1.4325125793493548e+01 1.3748871236330976e+01 
3149 3150 2 1.0280000000009906e+00 -2.7600278207758120e+03 1.0000000000000000e+00 8.0191424194641669e+00 1.4427430450538511e+01 1.3337854799548110e+01 
3486 3487 2 1.0280000000011151e+00 -4.6313090076263816e+03 1.0000000000000000e+00 7.8314679604114819e+00 1.4446963239695428e+01 1.3504049438741248e+01 
1176 1177 2 1.0279999999990952e+00 -4.6294945216364613e+03 1.0000000000000000e+00 7.7416099244131997e+00 1.5191868926724515e+01 1.3594326391268234e+01 
1511 1512 2 1.0279999999988569e+00 -2.7585590080384973e+03 1.0000000000000000e+00 7.8901420117647660e+00 1.5307136764825485e+01 1.3608752699502219e+01 
1763 1764 2 1.0279999999988345e+00 -2.7583329368190280e+03 1.0000000000000000e+00 7.9066222831974624e+00 1.5315599378805935e+01 1.3603677600211512e+01 
2183 2184 2 1.0279999999994347e+00 -1.5149104852120436e+03 1.0000000000000000e+00 1.0799594522577873e+01 1.4657481632843442e+01 1.2757918687958128e+01 
2645 2646 2 1.0279999999994276e+00 -1.5179650914562699e+03 1.0000000000000000e+00 1.0776595546095990e+01 1.4663568510244797e+01 1.2799476117291755e+01 
1052 1053 2 1.0279999999996465e+00 -1.1241675308039053e+03 1.0000000000000000e+00 1.1968956262552098e+01 1.4448207427968471e+01 1.1948610823337432e+01 
2480 2481 2 1.0279999999996101e+00 1.9695555931772778e+03 1.0000000000000000e+00 1.1989440031062985e+01 1.4456933368906254e+01 1.1951543229432994e+01 
2018 2019 2 1.0279999999996550e+00 1.9662076893114690e+03 1.0000000000000000e+00 1.1988795913308099e+01 1.4458019857854238e+01 1.1951249061286051e+01 
3362 3363 2 1.0279999999996221e+00 -1.1205901602373228e+03 1.0000000000000000e+00 1.2018344052992465e+01 1.4499390802022278e+01 1.1954154028565551e+01 
1174 1175 2 1.0280000000008480e+00 -6.7183363400112403e+03 1.0000000000000000e+00 1.1386642398567760e+01 1.5182896232262609e+01 1.3694529632533335e+01 
1552 1553 2 1.0279999999984504e+00 3.2237216336634788e+03 1.0000000000000000e+00 1.4722145778564393e+01 1.4775384369463572e+01 1.3977507615947610e+01 
1720 1721 2 1.0280000000022884e+00 3.2236773359430281e+03 1.0000000000000000e+00 1.4753568086490144e+01 1.4845554232846901e+01 1.3323101276720537e+01 
713 714 2 1.0280000000001821e+00 3.0424554931036391e+02 1.0000000000000000e+00 1.4780377203855698e+01 1.4890545811626598e+01 1.3693524733376934e+01 
460 461 2 1.0279999999996963e+00 9.4142985961354455e+01 1.0000000000000000e+00 1.4253437478222818e+01 1.4917134129607982e+01 1.3991765429614965e+01 
40 41 2 1.0280000000029814e+00 9.4089702417610098e+01 1.0000000000000000e+00 1.4232340612113854e+01 1.5058318282869378e+01 1.3379652397955864e+01 
2545 2546 2 1.0279999999965026e+00 -8.2732308160135199e+03 1.0000000000000000e+00 1.9437487591951449e+01 1.4712308818203297e+01 1.1626642694289101e+01 
446 447 2 1.0280000000005043e+00 -2.2963323364817652e+03 1.0000000000000000e+00 1.7232106048251538e+01 1.5402079439620515e+01 1.2046595806801438e+01 
26 27 2 1.0279999999988469e+00 -2.2956872942619302e+03 1.0000000000000000e+00 1.7256058398003692e+01 1.5511239946747441e+01 1.2077908650466677e+01 
1620 1621 2 1.0279999999941092e+00 -4.7628305597602446e+02 1.0000000000000000e+00 1.7542764542820990e+01 1.6454122854462970e+01 1.2061334455545813e+01 
2169 2170 2 1.0279999999999114e+00 6.6340777882853235e+03 1.0000000000000000e+00 1.6133594709257573e+00 1.9815200595525241e+01 1.2586237763384492e+01 
652 653 2 1.0280000000003864e+00 7.9187796994523233e+03 1.0000000000000000e+00 4.9517483561145537e-01 1.8815120177905651e+01 1.4045881454499753e+01 
528 529 2 1.0280000000001590e+00 1.2021731759048489e+03 1.0000000000000000e+00 2.9615234050024015e+00 1.9394736408037790e+01 1.2720271566385501e+01 
361 362 2 1.0280000000001228e+00 -2.2718584146547983e+03 1.0000000000000000e+00 2.9650595219204030e+00 1.9395317199308895e+01 1.2720786742740803e+01 
1619 1620 2 1.0280000000014493e+00 1.0061184521707476e+03 1.0000000000000000e+00 3.2747754882216333e+00 1.9575615550225479e+01 1.3746582081197507e+01 
1960 1961 2 1.0280000000014644e+00 1.9861704218150663e+02 1.0000000000000000e+00 3.6719251249370921e+00 1.9843543917608734e+01 1.2900077122713647e+01 
2540 2541 2 1.0280000000005587e+00 -7.2244677199091348e+03 1.0000000000000000e+00 1.0278857688377110e+01 1.8921961837413441e+01 1.2940380875582525e+01 
2071 2072 2 1.0280000000006628e+00 -9.5173698126771560e+03 1.0000000000000000e+00 1.0267636502314543e+01 1.8924153269078655e+01 1.2951721128854832e+01 
2078 2079 2 1.0280000000003522e+00 -7.2072174492758240e+03 1.0000000000000000e+00 1.0179635895784637e+01 1.9028699669465432e+01 1.2966711905755020e+01 
4399 4400 2 1.0279999999994034e+00 -5.8153105270800424e+03 1.0000000000000000e+00 1.0370577568151306e+01 1.9925032444821458e+01 1.1860320527631858e+01 
4388 4389 2 1.0279999999999330e+00 -3.2936377563097649e+03 1.0000000000000000e+00 1.2983997566157974e+01 1.8153823069719657e+01 1.3861692726879548e+01 
233 234 2 1.0279999999906571e+00 -3.2671364881228264e+03 1.0000000000000000e+00 1.3701957159865941e+01 1.8821003001800165e+01 1.2392691436048652e+01 
1615 1616 2 1.0279999999999623e+00 -4.8341225991613965e+02 1.0000000000000000e+00 1.4127681888753754e+01 1.8309906483998400e+01 1.2395547389302834e+01 
1188 1189 2 1.0279999999967444e+00 2.8261204871132036e+03 1.0000000000000000e+00 1.4137375692292116e+01 1.8611206172692320e+01 1.1948323834790399e+01 
647 648 2 1.0280000000096678e+00 7.0001666856463471e+03 1.0000000000000000e+00 1.5809810870961444e+01 1.8089560799481411e+01 1.1791066004399653e+01 
1609 1610 2 1.0279999999992864e+00 3.8042021117482011e+02 1.0000000000000000e+00 1.5022522797445252e+01 1.8145304505572096e+01 1.1590725842312684e+01 
731 732 2 1.0280000000059160e+00 7.0000406581413208e+03 1.0000000000000000e+00 1.5576859287721870e+01 1.8198386561482895e+01 1.2094783960237688e+01 
4374 4375 2 1.0279999999747034e+00 -4.3806944026965539e+03 1.0000000000000000e+00 1.8764144826744385e+01 1.9992365822489916e+01 1.1578428912654262e+01 
558 559 2 1.0279999999987270e+00 5.2637138163790848e+02 1.0000000000000000e+00 1.9728536427363746e+01 1.9678691730385172e+01 1.3593199291904007e+01 
441 442 2 1.0280000000141196e+00 9.1950720483327109e+02 1.0000000000000000e+00 2.0957061072972230e+01 1.9444837492270558e+01 1.3001534326910452e+01 
1153 1154 2 1.0280000000015932e+00 1.2115757450838169e+03 1.0000000000000000e+00 2.1972595949005299e+01 1.9123703906442962e+01 1.2232402285486408e+01 
2992 2993 2 1.0280000000011422e+00 2.2059369684889025e+03 1.0000000000000000e+00 2.2809281378447228e+01 1.8794333991274417e+01 1.1689381740983844e+01 
766 767 2 1.0280000000018119e+00 -5.2353696696854968e+02 1.0000000000000000e+00 2.2935080277915773e+01 1.9326814787465945e+01 1.2426486797010618e+01 
3787 3788 2 1.0279999999988847e+00 1.4354892854821753e+03 1.0000000000000000e+00 2.7649840171178184e+01 1.7779625488240029e+01 1.2102460086411366e+01 
4039 4040 2 1.0279999999986800e+00 1.4357944355219511e+03 1.0000000000000000e+00 2.7700669389876786e+01 1.7784096267359466e+01 1.2099969423704788e+01 
1647 1648 2 1.0279999999977896e+00 3.9213517085508165e+03 1.0000000000000000e+00 2.6855225194100747e+01 1.8069206606128343e+01 1.2258357533500797e+01 
4397 4398 2 1.0279999999994218e+00 -4.6936259811638465e+03 1.0000000000000000e+00 2.6187882567256327e+01 1.9392136736565604e+01 1.4147697822035212e+01 
1563 1564 2 1.0279999999973741e+00 3.9211419871842072e+03 1.0000000000000000e+00 2.6526162477660382e+01 1.8371823177666769e+01 1.1986368348138070e+01 
2997 2998 2 1.0280000000167695e+00 3.7945843322741321e+03 1.0000000000000000e+00 2.8370408326591331e+01 1.9395891950396244e+01 1.3298931550392224e+01 
678 679 2 1.0280000000056513e+00 7.3734515964511650e+02 1.0000000000000000e+00 2.8793412163894459e+01 1.8819583898858550e+01 1.2522495330208322e+01 
1603 1604 2 1.0280000000074228e+00 1.5796544185418738e+03 1.0000000000000000e+00 2.9331998419416571e+01 1.8718224632860618e+01 1.1820253907981460e+01 
239 240 2 1.0279999999997671e+00 -4.6980613102291954e+03 1.0000000000000000e+00 3.1306202018896364e+01 1.9981240652415490e+01 1.3392486396068261e+01 
598 599 2 1.0280000000007812e+00 -5.2201534039646981e+02 1.0000000000000000e+00 3.2483085940265880e+01 1.9198591173747236e+01 1.1997614627962122e+01 
4174 4175 2 1.0279999999998082e+00 5.4991520208700365e+02 1.0000000000000000e+00 5.4582451699459993e+00 1.3056283232675778e+00 1.5376816359535356e+01 
4594 4595 2 1.0279999999999276e+00 5.5075921033001555e+02 1.0000000000000000e+00 5.4487760689648734e+00 1.3006811538236658e+00 1.5349410211049927e+01 