LAMMPS data file via write_data, version 30 Jul 2016, timestep = 50000000

4620 atoms
8 atom types

0.0000000000000000e+00 1.0000000000000000e+02 xlo xhi
0.0000000000000000e+00 4.0000000000000000e+01 ylo yhi
0.0000000000000000e+00 4.0000000000000000e+01 zlo zhi

Masses

1 3.896
2 5.36
3 20.064
4 8.378
5 8.378
6 8.378
7 8.378
8 8.378

Atoms # meso-molecular

89 90 2 1.4411425104121596e+00 -1.2742211763682883e-04 1.0000000000000000e+00 6.4294268010474331e+00 1.3934504876025298e+00 7.8213400663182053e-01 
93 94 2 1.4411425104121596e+00 -1.2742254667901337e-04 1.0000000000000000e+00 1.4376007532110009e+01 1.4163351677402696e+00 8.6314292290741745e-01 
94 95 2 1.4411425104121596e+00 -1.2742251792829595e-04 1.0000000000000000e+00 1.6249524145076414e+01 1.8135006442208070e+00 1.6829706836185662e-01 
95 96 2 1.4411425104121596e+00 -1.2742263270581550e-04 1.0000000000000000e+00 1.8032634334768463e+01 2.9641411153545798e+00 3.9952190178013197e-01 
96 97 2 1.4411425104121596e+00 -1.2742260441429010e-04 1.0000000000000000e+00 2.0848586849635058e+01 3.7956772107154841e+00 7.0029676960978604e-01 
97 98 2 1.4411425104121596e+00 -1.2742260419128183e-04 1.0000000000000000e+00 2.3485640979470137e+01 3.6072962354705100e+00 4.3780879908782461e-01 
98 99 2 1.4411425104121596e+00 -1.2742258200711484e-04 1.0000000000000000e+00 2.5666544201758786e+01 3.2838813896085837e+00 1.6927553196192052e-01 
99 100 2 1.4411425104121596e+00 -1.2742250225699449e-04 1.0000000000000000e+00 2.8250374564057807e+01 3.4528199713306873e+00 5.0904499774860701e-01 
100 101 2 1.4411425104121596e+00 -1.2742257042576977e-04 1.0000000000000000e+00 3.0792906436493212e+01 3.3254755936080223e+00 2.2994388960132289e-01 
86 87 2 1.4411425104121596e+00 -1.2742225363462491e-04 1.0000000000000000e+00 1.1849541544936817e+00 4.4032496003813328e+00 1.0864547430432145e-01 
88 89 2 1.4411425104121596e+00 -1.2742202187725248e-04 1.0000000000000000e+00 6.8441956267662087e+00 4.8131365798641177e+00 4.8365375964069457e-01 
92 93 2 1.4411425104121596e+00 -1.2742241186693750e-04 1.0000000000000000e+00 1.3678346466077736e+01 5.8280703392654578e+00 1.2249947309328357e+00 
557 558 2 1.4411425104121596e+00 -1.5290750854123295e-04 1.0000000000000000e+00 1.8703675206645883e+01 6.6466692017189342e+00 3.8768032403730618e-01 
90 91 2 1.4411425104121596e+00 -1.2742226413397714e-04 1.0000000000000000e+00 8.9653155179332362e+00 7.0637485976828991e+00 2.6518872401105553e-01 
512 513 2 1.4411425104121596e+00 -1.5290722550189068e-04 1.0000000000000000e+00 1.2480147809017481e+01 7.6442605623151305e+00 2.1023038600014965e-01 
558 559 2 1.4411425104121596e+00 -1.5290733751280254e-04 1.0000000000000000e+00 2.1158772034316016e+01 7.8316031744951085e+00 2.5393852717680626e-01 
559 560 2 1.4411425104121596e+00 -1.5290735507596270e-04 1.0000000000000000e+00 2.3175503534233911e+01 7.4296546033215254e+00 1.1146040805357562e+00 
967 968 2 1.4411425104121596e+00 -1.2742215134096165e-04 1.0000000000000000e+00 1.1406323404492718e+00 9.2534622003137414e+00 4.8192266197197364e-01 
968 969 2 1.4411425104121596e+00 -1.5290698809224668e-04 1.0000000000000000e+00 3.4333222889199275e+00 8.1420643495810801e+00 3.9282157956353952e-01 
1022 1023 2 1.4411425104121596e+00 -1.5290754020503970e-04 1.0000000000000000e+00 2.2672147102502247e+01 9.2990750054214875e+00 1.7121416633182759e-01 
561 562 2 1.4411425104121596e+00 -1.5290743063839550e-04 1.0000000000000000e+00 2.7403738961588694e+01 8.7555254144440955e+00 6.0998911078661240e-02 
969 970 2 1.4411425104121596e+00 -1.5290716008102591e-04 1.0000000000000000e+00 6.1517284161623111e+00 9.6581466247837149e+00 3.2611298827597460e-02 
511 512 2 1.4411425104121596e+00 -1.5290745504987170e-04 1.0000000000000000e+00 9.4931908833498486e+00 1.0584626863026708e+01 7.2078779296423623e-01 
1023 1024 2 1.4411425104121596e+00 -1.5290748463011271e-04 1.0000000000000000e+00 2.5558527508950199e+01 1.0547178437119552e+01 4.7313153797190988e-01 
1024 1025 2 1.4411425104121596e+00 -1.5290761584578927e-04 1.0000000000000000e+00 2.9114073280762479e+01 9.9249046152947837e+00 4.6052487290722655e-01 
1025 1026 2 1.4411425104121596e+00 -1.5290731467776107e-04 1.0000000000000000e+00 3.1128066563211455e+01 9.8736814969405788e+00 5.3443527163165694e-01 
1474 1475 2 1.4411425104121596e+00 -1.5290752661639674e-04 1.0000000000000000e+00 7.6585497315893623e+00 1.1355276056019365e+01 1.2071172282767999e+00 
1016 1017 2 1.4411425104121596e+00 -1.5290735336421455e-04 1.0000000000000000e+00 1.2965684497189821e+01 1.1392383021700633e+01 1.1212712091797989e+00 
1472 1473 2 1.4411425104121596e+00 -1.5290680044137010e-04 1.0000000000000000e+00 1.6436220780678577e+00 1.3133399560162555e+01 9.7924503783894268e-01 
1483 1484 2 1.4411425104121596e+00 -1.5290727797445642e-04 1.0000000000000000e+00 2.6485468520674640e+01 1.3222007918151260e+01 6.1430696787134975e-01 
1936 1937 2 1.4411425104121596e+00 -1.5290742973742290e-04 1.0000000000000000e+00 6.4791813059958621e+00 1.4621639658771128e+01 2.7388867446945736e-01 
1938 1939 2 1.4411425104121596e+00 -1.5290710969785576e-04 1.0000000000000000e+00 9.1840761920144942e+00 1.3766471581903971e+01 7.7050074389787460e-01 
1018 1019 2 1.4411425104121596e+00 -1.5290720020226693e-04 1.0000000000000000e+00 1.4184181536373718e+01 1.3739210938898227e+01 4.7499165423597195e-01 
1945 1946 2 1.4411425104121596e+00 -1.5290758418320602e-04 1.0000000000000000e+00 2.1810170390705103e+01 1.5094772187628262e+01 5.9362863392348064e-01 
1940 1941 2 1.4411425104121596e+00 -1.5290728588462368e-04 1.0000000000000000e+00 1.1423195440258471e+01 1.6884205883099277e+01 5.3015739996051370e-01 
2403 2404 2 1.4411425104121596e+00 -1.5290758962927976e-04 1.0000000000000000e+00 1.3759041252871601e+01 1.8196449560750441e+01 1.0256196738581524e+00 
1942 1943 2 1.4411425104121596e+00 -1.5290720460425347e-04 1.0000000000000000e+00 1.5712033108590965e+01 1.7583050598311843e+01 2.5727882484022324e-01 
2405 2406 2 1.4411425104121596e+00 -1.5290743046530897e-04 1.0000000000000000e+00 1.8129610898108144e+01 1.7685984157898837e+01 5.3269839831579069e-01 
129 130 2 1.4411425104121596e+00 -1.2742215617153588e-04 1.0000000000000000e+00 3.0930491415387333e+00 2.9569898487667223e+00 2.0123940134486675e+00 
549 550 2 1.4411425104121596e+00 -1.5290649858081828e-04 1.0000000000000000e+00 2.6726261601021997e+00 5.8384359705198410e+00 1.4400046312450878e+00 
131 132 2 1.4411425104121596e+00 -1.2742244945891759e-04 1.0000000000000000e+00 5.5708467204250613e+00 5.3998574244124224e+00 2.2292162343921595e+00 
553 554 2 1.4411425104121596e+00 -1.5290717952013994e-04 1.0000000000000000e+00 1.1376415344404428e+01 5.9587498426497669e+00 1.7454205730664740e+00 
556 557 2 1.4411425104121596e+00 -1.5290741591486541e-04 1.0000000000000000e+00 1.6031769254996000e+01 5.4124413748595401e+00 1.9384393144244056e+00 
550 551 2 1.4411425104121596e+00 -1.5290720885739712e-04 1.0000000000000000e+00 4.7332685439531534e+00 7.3310810943117932e+00 2.1028713483776054e+00 
1012 1013 2 1.4411425104121596e+00 -1.5290691495811886e-04 1.0000000000000000e+00 6.7804680005945448e+00 7.1550125154357769e+00 2.3767586712600202e+00 
554 555 2 1.4411425104121596e+00 -1.5290741383444190e-04 1.0000000000000000e+00 1.3485722072550457e+01 7.6912865095295135e+00 2.4431736824975303e+00 
1019 1020 2 1.4411425104121596e+00 -1.5290745406250085e-04 1.0000000000000000e+00 1.9634409888660535e+01 7.9212318952287779e+00 1.6733950363325851e+00 
1063 1064 2 1.4411425104121596e+00 -1.5290739928111078e-04 1.0000000000000000e+00 2.1453113418950437e+01 9.3044464007631724e+00 2.6207908185079307e+00 
603 604 2 1.4411425104121596e+00 -1.5290748724011959e-04 1.0000000000000000e+00 2.7942331244595568e+01 8.3937344264547491e+00 2.4342502757015856e+00 
972 973 2 1.4411425104121596e+00 -1.5290741269779768e-04 1.0000000000000000e+00 8.2771429790122539e+00 9.4782334171464466e+00 1.9426564574040373e+00 
1015 1016 2 1.4411425104121596e+00 -1.5290711873019224e-04 1.0000000000000000e+00 1.1977144245948821e+01 9.6517277537673074e+00 1.6876287981707285e+00 
976 977 2 1.4411425104121596e+00 -1.5290738481042526e-04 1.0000000000000000e+00 1.6889087133343896e+01 1.0051222017852032e+01 1.5612264884034361e+00 
977 978 2 1.4411425104121596e+00 -1.5290736372757977e-04 1.0000000000000000e+00 1.9395824393683494e+01 1.0596464521242638e+01 1.4576635511233442e+00 
1017 1018 2 1.4411425104121596e+00 -1.5290755110622704e-04 1.0000000000000000e+00 1.6968815043864190e+01 1.1971553292210457e+01 2.2654496669398911e+00 
1528 1529 2 1.4411425104121596e+00 -1.5290754398655207e-04 1.0000000000000000e+00 3.1915639352882920e+01 1.1030552920609782e+01 2.4057440525346148e+00 
1010 1011 2 1.4411425104121596e+00 -1.5290712255332340e-04 1.0000000000000000e+00 3.0912381890445948e+00 1.2283825292146444e+01 2.6132229069430677e+00 
1477 1478 2 1.4411425104121596e+00 -1.5290674226023409e-04 1.0000000000000000e+00 1.1358343146950514e+01 1.2531673766969051e+01 2.5589585835411914e+00 
1020 1021 2 1.4411425104121596e+00 -1.5290756328379337e-04 1.0000000000000000e+00 1.9478988748471014e+01 1.2899463459681614e+01 1.5847932408145726e+00 
1981 1982 2 1.4411425104121596e+00 -1.5290721753715981e-04 1.0000000000000000e+00 1.1924255652945483e+01 1.5185539661079732e+01 2.5314023406740378e+00 
1943 1944 2 1.4411425104121596e+00 -1.5290746421933095e-04 1.0000000000000000e+00 1.8739925783725294e+01 1.5647788330470453e+01 1.5358581631618202e+00 
1988 1989 2 1.4411425104121596e+00 -1.5290746612798851e-04 1.0000000000000000e+00 2.3809188011317588e+01 1.5733470252324377e+01 2.1216346339277612e+00 
1937 1938 2 1.4411425104121596e+00 -1.5290724031523560e-04 1.0000000000000000e+00 5.6075304649076259e+00 1.7006230690539070e+01 2.1219922111133918e+00 
2442 2443 2 1.4411425104121596e+00 -1.5290745370899147e-04 1.0000000000000000e+00 7.9001545474364523e+00 1.6636854831417949e+01 2.5362024378390626e+00 
1939 1940 2 1.4411425104121596e+00 -1.5290705601053202e-04 1.0000000000000000e+00 9.7343491706787670e+00 1.6004367688950076e+01 1.5798355009470335e+00 
1527 1528 2 1.4411425104121596e+00 -1.5290715271244756e-04 1.0000000000000000e+00 2.9093072853368600e+01 1.6102247232970434e+01 2.0236755243219440e+00 
2400 2401 2 1.4411425104121596e+00 -1.5290735591374011e-04 1.0000000000000000e+00 1.0652026097673868e+01 1.7893117782469432e+01 2.4060409999174577e+00 
2439 2440 2 1.4411425104121596e+00 -1.5290722095058073e-04 1.0000000000000000e+00 2.9715323399343703e+00 1.8670847213821887e+01 2.3308448187684099e+00 
134 135 2 1.4411425104121596e+00 -1.2742246789642565e-04 1.0000000000000000e+00 1.2078459281784585e+01 1.8593067968624952e+00 3.1875539974976537e+00 
136 137 2 1.4411425104121596e+00 -1.2742251153071704e-04 1.0000000000000000e+00 1.6222526191365628e+01 2.8800615277002670e+00 3.1874430316511768e+00 
137 138 2 1.4411425104121596e+00 -1.2742252414589550e-04 1.0000000000000000e+00 1.8487821220175377e+01 3.6226792130787620e+00 3.1603997058828051e+00 
138 139 2 1.4411425104121596e+00 -1.2742257637676446e-04 1.0000000000000000e+00 2.0820963529217170e+01 3.1339263800726185e+00 3.2316546241571236e+00 
139 140 2 1.4411425104121596e+00 -1.2742258353129170e-04 1.0000000000000000e+00 2.3392166128064055e+01 3.6434842253592263e+00 3.1426224246617709e+00 
140 141 2 1.4411425104121596e+00 -1.2742257176364319e-04 1.0000000000000000e+00 2.6216742048237652e+01 3.3600257528872262e+00 3.1947190519001887e+00 
141 142 2 1.4411425104121596e+00 -1.2742255719960525e-04 1.0000000000000000e+00 2.8791245586470367e+01 3.4805537755030782e+00 3.1963914179799700e+00 
142 143 2 1.4411425104121596e+00 -1.2742254299771260e-04 1.0000000000000000e+00 3.1321019178437556e+01 3.0194552961121937e+00 3.2075179885347196e+00 
135 136 2 1.4411425104121596e+00 -1.2742253419087654e-04 1.0000000000000000e+00 1.4302114687623295e+01 4.0724731568230315e+00 3.1711746137687893e+00 
594 595 2 1.4411425104121596e+00 -1.5290707820623053e-04 1.0000000000000000e+00 9.4520236722362476e+00 6.2328150530960720e+00 3.1087290531644061e+00 
602 603 2 1.4411425104121596e+00 -1.5290752689484501e-04 1.0000000000000000e+00 2.5932794003152679e+01 6.6329860948112254e+00 2.8085020066873527e+00 
605 606 2 1.4411425104121596e+00 -1.5290738380724776e-04 1.0000000000000000e+00 3.1945971931986506e+01 5.3443233096461507e+00 2.7196700547593258e+00 
601 602 2 1.4411425104121596e+00 -1.5290747994860937e-04 1.0000000000000000e+00 2.3717731688403116e+01 7.2322578552932608e+00 3.1781200623108528e+00 
592 593 2 1.4411425104121596e+00 -1.5290729086790225e-04 1.0000000000000000e+00 3.8905036903893353e+00 9.2564870832447586e+00 3.6818038379015898e+00 
1518 1519 2 1.4411425104121596e+00 -1.5290676967955090e-04 1.0000000000000000e+00 1.0624288827730451e+01 8.9296867026727362e+00 3.5774164347387298e+00 
604 605 2 1.4411425104121596e+00 -1.5290755089987596e-04 1.0000000000000000e+00 3.2142894496742073e+01 9.1950351069159257e+00 3.2784050420043362e+00 
597 598 2 1.4411425104121596e+00 -1.5290746669403038e-04 1.0000000000000000e+00 1.5246883437407851e+01 9.6473408022559557e+00 3.9415562231074661e+00 
1064 1065 2 1.4411425104121596e+00 -1.5290747964436999e-04 1.0000000000000000e+00 2.3411518823985038e+01 1.0157166256665514e+01 2.9161055540067435e+00 
1011 1012 2 1.4411425104121596e+00 -1.5290674667150063e-04 1.0000000000000000e+00 6.2813345967607015e+00 1.1966920835228555e+01 3.3227890270233695e+00 
1520 1521 2 1.4411425104121596e+00 -1.5290709087587679e-04 1.0000000000000000e+00 1.4532836752767540e+01 1.1737473966304114e+01 3.3808212314096791e+00 
1065 1066 2 1.4411425104121596e+00 -1.5290758385869856e-04 1.0000000000000000e+00 2.6475656814042214e+01 1.1121170715136138e+01 3.9390610192667732e+00 
1516 1517 2 1.4411425104121596e+00 -1.5290628475122107e-04 1.0000000000000000e+00 8.3084769968541927e+00 1.2658578525188215e+01 2.8021390535823198e+00 
1524 1525 2 1.4411425104121596e+00 -1.5290738728725948e-04 1.0000000000000000e+00 2.1664150041138672e+01 1.2841480564439992e+01 3.2812558568784205e+00 
1986 1987 2 1.4411425104121596e+00 -1.5290757036348575e-04 1.0000000000000000e+00 1.9271865967719009e+01 1.4335408920272377e+01 3.5066745547757430e+00 
1934 1935 2 1.4411425104121596e+00 -1.5290692949251355e-04 1.0000000000000000e+00 1.8071119582154842e+00 1.4950183703217387e+01 2.7764349423944097e+00 
1991 1992 2 1.4411425104121596e+00 -1.5290753667760899e-04 1.0000000000000000e+00 3.2604827322495574e+01 1.5109755477513145e+01 3.2618532542725012e+00 
2019 2020 2 1.4411425104121596e+00 -1.5290677280290274e-04 1.0000000000000000e+00 3.5021887917533583e+00 1.7031839140980036e+01 3.5517840243976191e+00 
1985 1986 2 1.4411425104121596e+00 -1.5290759258961711e-04 1.0000000000000000e+00 1.6992924772736171e+01 1.6013972080320400e+01 3.1463951591040780e+00 
1987 1988 2 1.4411425104121596e+00 -1.5290751218793793e-04 1.0000000000000000e+00 2.0941475554867964e+01 1.6064225127232245e+01 3.0949722939466571e+00 
1990 1991 2 1.4411425104121596e+00 -1.5290757561971544e-04 1.0000000000000000e+00 3.0993812182569101e+01 1.6623321451750734e+01 3.5065542787273349e+00 
1480 1481 2 1.4411425104121596e+00 -1.5290742772151495e-04 1.0000000000000000e+00 1.4778103779478698e+01 1.8076598679793644e+01 3.0599115473856897e+00 
2448 2449 2 1.4411425104121596e+00 -1.5290757828264904e-04 1.0000000000000000e+00 1.9784747155390978e+01 1.7764870971861143e+01 3.3086348955126015e+00 
2450 2451 2 1.4411425104121596e+00 -1.5290755479548259e-04 1.0000000000000000e+00 2.4989754752895593e+01 1.7456776823974618e+01 3.3030168986965802e+00 
1989 1990 2 1.4411425104121596e+00 -1.5290714815844784e-04 1.0000000000000000e+00 2.7830697269293037e+01 1.7541955428825933e+01 3.6346129700106600e+00 
2440 2441 2 1.4411425104121596e+00 -1.5290734351153631e-04 1.0000000000000000e+00 6.6743883998471887e+00 1.9301244697937545e+01 3.2621354368265774e+00 
2447 2448 2 1.4411425104121596e+00 -1.5290757678568337e-04 1.0000000000000000e+00 1.7732034002496036e+01 1.9029615647932992e+01 2.7330133942577808e+00 
2449 2450 2 1.4411425104121596e+00 -1.5290755474450484e-04 1.0000000000000000e+00 2.3255190190827022e+01 1.9842113384396260e+01 3.2451177933346056e+00 
2452 2453 2 1.4411425104121596e+00 -1.5290749161164631e-04 1.0000000000000000e+00 3.1556337090891848e+01 1.8697338113207405e+01 2.9686940333067278e+00 
128 129 2 1.4411425104121596e+00 -1.2742225785577664e-04 1.0000000000000000e+00 1.9447141610351486e+00 3.0490320933633068e+00 4.3697373659479810e+00 
132 133 2 1.4411425104121596e+00 -1.2742245394764857e-04 1.0000000000000000e+00 7.0546748320550048e+00 2.9421531427826331e+00 4.4836300562689910e+00 
596 597 2 1.4411425104121596e+00 -1.5290740579508705e-04 1.0000000000000000e+00 1.3710437460102989e+01 6.8407946182379717e+00 4.6866950635923139e+00 
598 599 2 1.4411425104121596e+00 -1.5290752025836455e-04 1.0000000000000000e+00 1.7096502192121935e+01 7.9671684006946535e+00 4.8563303515121747e+00 
600 601 2 1.4411425104121596e+00 -1.5290747425416429e-04 1.0000000000000000e+00 2.2018371238368346e+01 7.9139487035389120e+00 5.0151017289474353e+00 
593 594 2 1.4411425104121596e+00 -1.5290720186449759e-04 1.0000000000000000e+00 5.6938864163844221e+00 8.4990581975525199e+00 4.8775559139813094e+00 
1014 1015 2 1.4411425104121596e+00 -1.5290682515583731e-04 1.0000000000000000e+00 1.2567383727236013e+01 9.0397729121428494e+00 4.1381513014945686e+00 
1062 1063 2 1.4411425104121596e+00 -1.5290747968907013e-04 1.0000000000000000e+00 1.9544421376819287e+01 8.8126921037566461e+00 4.1967983137764877e+00 
1061 1062 2 1.4411425104121596e+00 -1.5290750812243836e-04 1.0000000000000000e+00 1.8337284935817703e+01 1.0613847691536634e+01 4.7810600478956502e+00 
1517 1518 2 1.4411425104121596e+00 -1.5290702724032445e-04 1.0000000000000000e+00 7.2618262025210569e+00 1.0672941846696878e+01 4.8707509246591760e+00 
1514 1515 2 1.4411425104121596e+00 -1.5290644451450503e-04 1.0000000000000000e+00 1.4003176278635663e+00 1.2399341668941210e+01 4.1705057761115540e+00 
1525 1526 2 1.4411425104121596e+00 -1.5290718014720217e-04 1.0000000000000000e+00 2.3900598352679225e+01 1.2526211314840797e+01 4.8287653102538366e+00 
1519 1520 2 1.4411425104121596e+00 -1.5290736620151391e-04 1.0000000000000000e+00 9.8824522408825253e+00 1.3367359512260137e+01 4.0632154664392752e+00 
1521 1522 2 1.4411425104121596e+00 -1.5290709989741540e-04 1.0000000000000000e+00 1.7377376029747833e+01 1.3786594228834870e+01 4.6549706012427796e+00 
1526 1527 2 1.4411425104121596e+00 -1.5290742811352619e-04 1.0000000000000000e+00 2.5654516244884640e+01 1.3459280493026499e+01 4.3230589889383069e+00 
2018 2019 2 1.4411425104121596e+00 -1.5290717195658366e-04 1.0000000000000000e+00 1.1620551070079292e+00 1.6812650325672426e+01 5.1131983957623701e+00 
2024 2025 2 1.4411425104121596e+00 -1.5290764980771898e-04 1.0000000000000000e+00 1.2977927676919448e+01 1.6206860685628733e+01 4.9978473133764236e+00 
2021 2022 2 1.4411425104121596e+00 -1.5290720988542038e-04 1.0000000000000000e+00 7.8619889495673014e+00 1.8585889480435608e+01 5.1755775495380671e+00 
130 131 2 1.4411425104121596e+00 -1.2742239819622662e-04 1.0000000000000000e+00 4.8779785442012233e+00 2.9245902835033606e+00 5.3518317836380884e+00 
133 134 2 1.4411425104121596e+00 -1.2742236225581730e-04 1.0000000000000000e+00 8.4152098637857087e+00 3.3789455795459418e+00 6.4478406418536052e+00 
595 596 2 1.4411425104121596e+00 -1.5290725612355089e-04 1.0000000000000000e+00 1.2472065064586536e+01 3.4944235542323860e+00 6.0401058418928129e+00 
1060 1061 2 1.4411425104121596e+00 -1.5290769038593614e-04 1.0000000000000000e+00 1.8750248593087754e+01 6.3555069656056418e+00 6.1923425484508208e+00 
591 592 2 1.4411425104121596e+00 -1.5290721150771291e-04 1.0000000000000000e+00 2.3847013321847994e+00 8.0436421636626463e+00 5.5831921996132170e+00 
1056 1057 2 1.4411425104121596e+00 -1.5290732621045484e-04 1.0000000000000000e+00 8.8472452122626297e+00 9.0743635332860393e+00 5.3497103282661858e+00 
1067 1068 2 1.4411425104121596e+00 -1.5290737823502601e-04 1.0000000000000000e+00 3.0264792257247741e+01 8.3755265063809965e+00 6.0702707521562420e+00 
1561 1562 2 1.4411425104121596e+00 -1.5290765414524533e-04 1.0000000000000000e+00 1.0494791241790130e+01 1.0501520325622563e+01 5.4539227795947447e+00 
1059 1060 2 1.4411425104121596e+00 -1.5290743507375936e-04 1.0000000000000000e+00 1.4891257723761301e+01 1.0440161367008946e+01 6.2969228851989900e+00 
1066 1067 2 1.4411425104121596e+00 -1.5290754467808820e-04 1.0000000000000000e+00 2.8664515908305969e+01 9.7527755116859254e+00 5.4459782917862496e+00 
2025 2026 2 1.4411425104121596e+00 -1.5290771698757026e-04 1.0000000000000000e+00 1.4205093165347177e+01 1.2862533308835719e+01 5.8666751969753674e+00 
1980 1981 2 1.4411425104121596e+00 -1.5290740112168798e-04 1.0000000000000000e+00 9.9084940357387818e+00 1.4493279041742461e+01 5.8109413344945162e+00 
1978 1979 2 1.4411425104121596e+00 -1.5290741954751346e-04 1.0000000000000000e+00 4.0727664383147824e+00 1.4737396928852007e+01 5.4596821734355707e+00 
1523 1524 2 1.4411425104121596e+00 -1.5290737990806850e-04 1.0000000000000000e+00 1.9258325509283956e+01 1.5732863978292633e+01 5.7152652000925874e+00 
2443 2444 2 1.4411425104121596e+00 -1.5290750545858621e-04 1.0000000000000000e+00 1.1196113750275963e+01 1.7875190762872855e+01 6.0500866942151630e+00 
2446 2447 2 1.4411425104121596e+00 -1.5290756015373116e-04 1.0000000000000000e+00 1.6060207045090575e+01 1.7498363304935065e+01 5.4899360967195845e+00 
2438 2439 2 1.4411425104121596e+00 -1.5290709768228241e-04 1.0000000000000000e+00 1.2943011178719175e+00 1.9827309652809042e+01 6.1606841077198418e+00 
636 637 2 1.4411425104121596e+00 -1.5290748521367250e-04 1.0000000000000000e+00 7.0255351945658315e+00 3.7797249024681139e+00 7.8380359980088858e+00 
172 173 2 1.4411425104121596e+00 -1.2742247669945270e-04 1.0000000000000000e+00 5.1377505993740478e+00 4.3666213331063020e+00 6.7835827137947931e+00 
599 600 2 1.4411425104121596e+00 -1.5290728677857629e-04 1.0000000000000000e+00 1.6379777515234554e+01 4.2795481751766893e+00 6.7271905009967847e+00 
1101 1102 2 1.4411425104121596e+00 -1.5290760546493863e-04 1.0000000000000000e+00 1.5564746758103645e+01 6.2397074966929429e+00 7.4074733099032226e+00 
1097 1098 2 1.4411425104121596e+00 -1.5290732960081838e-04 1.0000000000000000e+00 1.1111793880755780e+01 7.5698482803097384e+00 6.9524458799453797e+00 
1053 1054 2 1.4411425104121596e+00 -1.5290708197133191e-04 1.0000000000000000e+00 5.7328524260148468e+00 8.5711148095481686e+00 7.0954187961301578e+00 
1013 1014 2 1.4411425104121596e+00 -1.5290709256999917e-04 1.0000000000000000e+00 9.0122027937318983e+00 8.8284374198543372e+00 7.4173227398092916e+00 
1058 1059 2 1.4411425104121596e+00 -1.5290764033042337e-04 1.0000000000000000e+00 1.3069003041008241e+01 8.3154637899901047e+00 7.4663049405613870e+00 
1515 1516 2 1.4411425104121596e+00 -1.5290694844767507e-04 1.0000000000000000e+00 3.0239501979543064e+00 1.0212588056207604e+01 7.2377761570018597e+00 
1522 1523 2 1.4411425104121596e+00 -1.5290732688578464e-04 1.0000000000000000e+00 1.8716975454400483e+01 9.6928919243866893e+00 6.7489824112358665e+00 
1103 1104 2 1.4411425104121596e+00 -1.5290760847479060e-04 1.0000000000000000e+00 1.9993814157283133e+01 1.1985291559590340e+01 7.3978744677247859e+00 
1976 1977 2 1.4411425104121596e+00 -1.5290717550925077e-04 1.0000000000000000e+00 2.3333992403001349e+00 1.2947502390104843e+01 6.9790972766475203e+00 
1562 1563 2 1.4411425104121596e+00 -1.5290770359001706e-04 1.0000000000000000e+00 1.1219316346980476e+01 1.2723145540248447e+01 7.8765240928532227e+00 
1564 1565 2 1.4411425104121596e+00 -1.5290729212742921e-04 1.0000000000000000e+00 1.5671652073646607e+01 1.2543484096478004e+01 7.6161309445485825e+00 
1558 1559 2 1.4411425104121596e+00 -1.5290678646176923e-04 1.0000000000000000e+00 6.6529171310341004e+00 1.4071287386008015e+01 6.6784324574458269e+00 
1604 1605 2 1.4411425104121596e+00 -1.5290744061022672e-04 1.0000000000000000e+00 1.3768479544529892e+01 1.4818202213034525e+01 7.1091723446061499e+00 
2026 2027 2 1.4411425104121596e+00 -1.5290748095267518e-04 1.0000000000000000e+00 1.5505641221180547e+01 1.5860382138043358e+01 7.9431747361085350e+00 
177 178 2 1.4411425104121596e+00 -1.2742266189839222e-04 1.0000000000000000e+00 1.4029500553671619e+01 2.6223390258655974e+00 9.1812892902131278e+00 
175 176 2 1.4411425104121596e+00 -1.2742254040414673e-04 1.0000000000000000e+00 9.4232169132281776e+00 3.8834995107821801e+00 8.9621383186441754e+00 
176 177 2 1.4411425104121596e+00 -1.2742257379040077e-04 1.0000000000000000e+00 1.2222116035215508e+01 3.9621070995911518e+00 8.6814409815901143e+00 
178 179 2 1.4411425104121596e+00 -1.2742263556901094e-04 1.0000000000000000e+00 1.6307366692947429e+01 3.6041463938705078e+00 9.3199305089377127e+00 
179 180 2 1.4411425104121596e+00 -1.2742263239412559e-04 1.0000000000000000e+00 1.8624858907457622e+01 3.3173554612114526e+00 9.2268413941357714e+00 
180 181 2 1.4411425104121596e+00 -1.2742265698776606e-04 1.0000000000000000e+00 2.0792003311576014e+01 3.5992167160875610e+00 9.1566294909401158e+00 
182 183 2 1.4411425104121596e+00 -1.2742259377778578e-04 1.0000000000000000e+00 2.6643002829928033e+01 3.9815197534301374e+00 8.1182853484945525e+00 
170 171 2 1.4411425104121596e+00 -1.2742225377230257e-04 1.0000000000000000e+00 1.2854400871351761e+00 4.5246417365802385e+00 8.2872075105213483e+00 
633 634 2 1.4411425104121596e+00 -1.5290735019023421e-04 1.0000000000000000e+00 3.2102663720883666e+00 6.8825048380477147e+00 8.0045626869449400e+00 
643 644 2 1.4411425104121596e+00 -1.5290759126075133e-04 1.0000000000000000e+00 2.3174548380377264e+01 7.1287229319851182e+00 9.3093935480493322e+00 
642 643 2 1.4411425104121596e+00 -1.5290756443122185e-04 1.0000000000000000e+00 2.0562094925300190e+01 8.0578456605590727e+00 8.7837349402851501e+00 
645 646 2 1.4411425104121596e+00 -1.5290763295583475e-04 1.0000000000000000e+00 2.7905838260427707e+01 8.6944997391158232e+00 8.7412043412763012e+00 
646 647 2 1.4411425104121596e+00 -1.5290761090905886e-04 1.0000000000000000e+00 3.0447513845964096e+01 9.0263472436354864e+00 9.0072430470322633e+00 
1095 1096 2 1.4411425104121596e+00 -1.5290723478954027e-04 1.0000000000000000e+00 7.3948318854838115e+00 1.0299414475155242e+01 8.6717268715409457e+00 
1057 1058 2 1.4411425104121596e+00 -1.5290659693486736e-04 1.0000000000000000e+00 1.4512867639040838e+01 1.0632909358708872e+01 8.5415888619489788e+00 
1102 1103 2 1.4411425104121596e+00 -1.5290763053232807e-04 1.0000000000000000e+00 1.7659638037733707e+01 9.8473891860851825e+00 8.7300787594080074e+00 
1567 1568 2 1.4411425104121596e+00 -1.5290759768876288e-04 1.0000000000000000e+00 2.3099385451026986e+01 1.0644483574992083e+01 8.0484918000389438e+00 
1052 1053 2 1.4411425104121596e+00 -1.5290719219234275e-04 1.0000000000000000e+00 4.4269150878630255e+00 1.0797467309914854e+01 8.9812478786585555e+00 
1565 1566 2 1.4411425104121596e+00 -1.5290713463911494e-04 1.0000000000000000e+00 1.7465011750360219e+01 1.1972840767398289e+01 8.5139532547270811e+00 
1566 1567 2 1.4411425104121596e+00 -1.5290748535903430e-04 1.0000000000000000e+00 2.0582671717910241e+01 1.1843454500698286e+01 9.3099266574388224e+00 
1569 1570 2 1.4411425104121596e+00 -1.5290763144772422e-04 1.0000000000000000e+00 2.9747611491072345e+01 1.1258618730979167e+01 9.0435293261584064e+00 
1555 1556 2 1.4411425104121596e+00 -1.2742146326194488e-04 1.0000000000000000e+00 7.7170609985935812e-01 1.2012104339970287e+01 8.1807062618162654e+00 
1979 1980 2 1.4411425104121596e+00 -1.5290722336022033e-04 1.0000000000000000e+00 8.2099392002488951e+00 1.2238693570036654e+01 8.2953724872634957e+00 
1563 1564 2 1.4411425104121596e+00 -1.5290764017256413e-04 1.0000000000000000e+00 1.3073542542603375e+01 1.2225775664810900e+01 8.9083755386347523e+00 
2023 2024 2 1.4411425104121596e+00 -1.5290761078827253e-04 1.0000000000000000e+00 9.7486371367787275e+00 1.4121408747359320e+01 8.8135147025534213e+00 
1977 1978 2 1.4411425104121596e+00 -1.5290718933330200e-04 1.0000000000000000e+00 7.0632323414202558e-01 1.4693039040395492e+01 8.9689861262265644e+00 
2031 2032 2 1.4411425104121596e+00 -1.5290760600557822e-04 1.0000000000000000e+00 2.6766490160967521e+01 1.5055134271818019e+01 9.3052327225346598e+00 
2022 2023 2 1.4411425104121596e+00 -1.5290746915961072e-04 1.0000000000000000e+00 8.4563117868545756e+00 1.6538322992879081e+01 9.1828147391420476e+00 
1982 1983 2 1.4411425104121596e+00 -1.5290722635998464e-04 1.0000000000000000e+00 1.0681957127085120e+01 1.6331311755597969e+01 8.9616762656634972e+00 
2020 2021 2 1.4411425104121596e+00 -1.5290734009473645e-04 1.0000000000000000e+00 4.6754374139730253e+00 1.7991428392960422e+01 8.7685340505625593e+00 
1983 1984 2 1.4411425104121596e+00 -1.5290728787140001e-04 1.0000000000000000e+00 1.3402070101348842e+01 1.8234428409451816e+01 8.7924041149714274e+00 
2487 2488 2 1.4411425104121596e+00 -1.5290730935896732e-04 1.0000000000000000e+00 1.5166445023998701e+01 1.9763584639029997e+01 9.1366543610926492e+00 
173 174 2 1.4411425104121596e+00 -1.2742244449032630e-04 1.0000000000000000e+00 6.5762053817352815e+00 1.4076153005242658e+00 9.7925374635837770e+00 
171 172 2 1.4411425104121596e+00 -1.2742229655537967e-04 1.0000000000000000e+00 2.3834725277424398e+00 2.9624126253533025e+00 9.5892694457711798e+00 
181 182 2 1.4411425104121596e+00 -1.2742264693462328e-04 1.0000000000000000e+00 2.3996477891393940e+01 3.2161116466346558e+00 9.5124898728507272e+00 
183 184 2 1.4411425104121596e+00 -1.2742264396103229e-04 1.0000000000000000e+00 2.8847085751813879e+01 3.2336276694503772e+00 9.6785298337386187e+00 
184 185 2 1.4411425104121596e+00 -1.2742264266779146e-04 1.0000000000000000e+00 3.1293513940921763e+01 3.4729552171091136e+00 9.3841666286598375e+00 
174 175 2 1.4411425104121596e+00 -1.2742229299005201e-04 1.0000000000000000e+00 6.2824998573286681e+00 5.2031002347756843e+00 1.0005810362485494e+01 
637 638 2 1.4411425104121596e+00 -1.5290746934013667e-04 1.0000000000000000e+00 1.0899744071087172e+01 6.8748588627368168e+00 9.5783019983250739e+00 