LAMMPS data file via write_data, version 30 Jul 2016, timestep = 50400000

4620 atoms
8 atom types

0.0000000000000000e+00 1.0000000000000000e+02 xlo xhi
0.0000000000000000e+00 4.0000000000000000e+01 ylo yhi
0.0000000000000000e+00 4.0000000000000000e+01 zlo zhi

Masses

1 3.896
2 5.36
3 20.064
4 8.378
5 8.378
6 8.378
7 8.378
8 8.378

Atoms # meso-molecular

89 90 2 1.4411425104121596e+00 -1.2742211763682883e-04 1.0000000000000000e+00 6.5036735672936663e+00 1.1081847959117905e+00 9.4772630459446727e-01 
93 94 2 1.4411425104121596e+00 -1.2742254287608680e-04 1.0000000000000000e+00 1.4180801269954427e+01 1.2691990014578505e+00 7.1186591626939899e-01 
94 95 2 1.4411425104121596e+00 -1.2742251412536939e-04 1.0000000000000000e+00 1.6096835534714010e+01 1.5703621694282077e+00 1.6662878159230288e-01 
95 96 2 1.4411425104121596e+00 -1.2742263270581550e-04 1.0000000000000000e+00 1.7816610712666861e+01 2.8856279446341953e+00 2.2441093953847840e-01 
96 97 2 1.4411425104121596e+00 -1.2742260441429010e-04 1.0000000000000000e+00 2.0663384964163061e+01 3.7778745940901666e+00 7.9330694952326353e-01 
97 98 2 1.4411425104121596e+00 -1.2742260419128183e-04 1.0000000000000000e+00 2.3345775259042458e+01 3.5352653988862630e+00 4.8127166677046668e-01 
98 99 2 1.4411425104121596e+00 -1.2742258200711484e-04 1.0000000000000000e+00 2.5572850527428688e+01 3.1574201133133526e+00 1.5594086271534197e-01 
99 100 2 1.4411425104121596e+00 -1.2742250225699449e-04 1.0000000000000000e+00 2.8087325503937706e+01 3.4000208615353000e+00 5.6079593994683241e-01 
100 101 2 1.4411425104121596e+00 -1.2742257042576977e-04 1.0000000000000000e+00 3.0678457442211510e+01 3.1895837417034762e+00 2.3464374136464633e-01 
88 89 2 1.4411425104121596e+00 -1.2742202187725248e-04 1.0000000000000000e+00 7.0756262369087333e+00 4.7009468439627931e+00 6.3447039331125310e-01 
549 550 2 1.4411425104121596e+00 -1.5290649858081828e-04 1.0000000000000000e+00 2.4492981208405831e+00 5.8371128376277017e+00 1.2261039076227145e+00 
92 93 2 1.4411425104121596e+00 -1.2742241186693750e-04 1.0000000000000000e+00 1.3513014822946142e+01 5.7674771543958405e+00 1.1118084105277015e+00 
557 558 2 1.4411425104121596e+00 -1.5290750326975763e-04 1.0000000000000000e+00 1.8525665991121837e+01 6.3781087146371700e+00 2.6016634865585575e-01 
968 969 2 1.4411425104121596e+00 -1.5290698809224668e-04 1.0000000000000000e+00 3.3201989346804082e+00 7.9581261919949204e+00 2.2616916083194522e-01 
90 91 2 1.4411425104121596e+00 -1.2742226413397714e-04 1.0000000000000000e+00 8.8074969334213211e+00 7.1138394720645799e+00 1.4227615689651882e-01 
512 513 2 1.4411425104121596e+00 -1.5290722550189068e-04 1.0000000000000000e+00 1.2366133102008590e+01 7.4432335621133827e+00 4.2876350928151952e-02 
558 559 2 1.4411425104121596e+00 -1.5290731752437838e-04 1.0000000000000000e+00 2.0861439658335652e+01 7.8591452080703448e+00 1.5511651524196624e-01 
559 560 2 1.4411425104121596e+00 -1.5290735507596270e-04 1.0000000000000000e+00 2.3194084560729124e+01 7.2702723007656704e+00 1.0493940810022342e+00 
967 968 2 1.4411425104121596e+00 -1.2742215134096165e-04 1.0000000000000000e+00 1.2975226116238752e+00 8.7862845664909841e+00 4.8237122939962029e-01 
1022 1023 2 1.4411425104121596e+00 -1.5290754020503970e-04 1.0000000000000000e+00 2.2600670651433273e+01 9.0382540171477519e+00 1.8944493055230024e-01 
561 562 2 1.4411425104121596e+00 -1.5290743063839550e-04 1.0000000000000000e+00 2.7078963940134578e+01 8.7682367966131682e+00 4.1785487584792232e-02 
511 512 2 1.4411425104121596e+00 -1.5290745504987170e-04 1.0000000000000000e+00 9.4036711317383155e+00 1.0438716463885905e+01 5.4135256606512006e-01 
1023 1024 2 1.4411425104121596e+00 -1.5290748463011271e-04 1.0000000000000000e+00 2.5314155707222660e+01 1.0436614519276187e+01 5.1430353750042990e-01 
1024 1025 2 1.4411425104121596e+00 -1.5290761584578927e-04 1.0000000000000000e+00 2.8891849940233353e+01 9.9476966640764228e+00 3.6649061792455984e-01 
1025 1026 2 1.4411425104121596e+00 -1.5290731467776107e-04 1.0000000000000000e+00 3.1000347498376236e+01 9.7258614488274890e+00 6.1303328803807400e-01 
1471 1472 2 1.4411425104121596e+00 -1.2742114671818883e-04 1.0000000000000000e+00 4.1735595048192914e-01 1.1392520207414208e+01 5.0239734560090475e-02 
1473 1474 2 1.4411425104121596e+00 -1.5290699197337770e-04 1.0000000000000000e+00 3.2465864380354814e+00 1.1697537209088553e+01 3.7365716051348905e-02 
1474 1475 2 1.4411425104121596e+00 -1.5290752661639674e-04 1.0000000000000000e+00 7.4691315125239885e+00 1.1376526133983306e+01 1.0876464087283604e+00 
1016 1017 2 1.4411425104121596e+00 -1.5290731396795198e-04 1.0000000000000000e+00 1.2812602247889386e+01 1.1608270666098118e+01 9.6795784335586899e-01 
1472 1473 2 1.4411425104121596e+00 -1.5290680044137010e-04 1.0000000000000000e+00 1.7726071035727040e+00 1.2954977912928083e+01 9.5312524093579698e-01 
1483 1484 2 1.4411425104121596e+00 -1.5290727797445642e-04 1.0000000000000000e+00 2.6458902527180708e+01 1.3172767273878119e+01 7.8928899154207199e-01 
1938 1939 2 1.4411425104121596e+00 -1.5290710969785576e-04 1.0000000000000000e+00 9.1368008364731068e+00 1.3782136879940509e+01 7.2947774454482817e-01 
1018 1019 2 1.4411425104121596e+00 -1.5290715748290026e-04 1.0000000000000000e+00 1.3913563673664681e+01 1.3525506809937536e+01 3.4080421457073817e-01 
1936 1937 2 1.4411425104121596e+00 -1.5290742973742290e-04 1.0000000000000000e+00 6.4980197713612959e+00 1.4669645777673450e+01 1.4232103089874412e-01 
1945 1946 2 1.4411425104121596e+00 -1.5290758418320602e-04 1.0000000000000000e+00 2.1589038267603506e+01 1.4909359417335548e+01 6.7295364430602778e-01 
1940 1941 2 1.4411425104121596e+00 -1.5290724339717926e-04 1.0000000000000000e+00 1.1220223629506856e+01 1.6865007880568459e+01 3.5859700823214608e-01 
2403 2404 2 1.4411425104121596e+00 -1.5290758962927976e-04 1.0000000000000000e+00 1.3485829531180787e+01 1.8094048155350809e+01 7.6619156423688983e-01 
1942 1943 2 1.4411425104121596e+00 -1.5290720460425347e-04 1.0000000000000000e+00 1.5368918481036424e+01 1.7505884032907602e+01 3.1284033716455462e-01 
2405 2406 2 1.4411425104121596e+00 -1.5290743046530897e-04 1.0000000000000000e+00 1.7987520121629945e+01 1.7655069286169599e+01 4.5818760820012350e-01 
129 130 2 1.4411425104121596e+00 -1.2742215617153588e-04 1.0000000000000000e+00 2.9799195839058594e+00 2.6119129894129123e+00 2.0769116382912758e+00 
556 557 2 1.4411425104121596e+00 -1.5290741591486541e-04 1.0000000000000000e+00 1.6067533195782637e+01 5.2940136141059924e+00 1.9427617434169149e+00 
605 606 2 1.4411425104121596e+00 -1.5290738380724776e-04 1.0000000000000000e+00 3.1723383483335866e+01 5.2968508342731946e+00 2.4504620005105329e+00 
131 132 2 1.4411425104121596e+00 -1.2742243471930946e-04 1.0000000000000000e+00 5.3651946314104961e+00 5.4188701397128352e+00 1.9914091806471930e+00 
553 554 2 1.4411425104121596e+00 -1.5290717952013994e-04 1.0000000000000000e+00 1.1060587176519427e+01 5.9074882265422994e+00 1.6339203955311121e+00 
602 603 2 1.4411425104121596e+00 -1.5290752689484501e-04 1.0000000000000000e+00 2.5875585614015648e+01 6.3933708153708393e+00 2.5613550781647847e+00 
550 551 2 1.4411425104121596e+00 -1.5290719411778942e-04 1.0000000000000000e+00 4.5529798289565022e+00 7.2748553563045961e+00 2.0664707590009521e+00 
1012 1013 2 1.4411425104121596e+00 -1.5290691495811886e-04 1.0000000000000000e+00 6.6842221217722573e+00 6.8944021508583031e+00 2.2893401872528467e+00 
554 555 2 1.4411425104121596e+00 -1.5290741383444190e-04 1.0000000000000000e+00 1.3370724363062150e+01 7.5631948339520338e+00 2.4158078846919295e+00 
1019 1020 2 1.4411425104121596e+00 -1.5290742880260137e-04 1.0000000000000000e+00 1.9307050229543737e+01 7.7503757474631971e+00 1.5145566591320898e+00 
972 973 2 1.4411425104121596e+00 -1.5290741269779768e-04 1.0000000000000000e+00 8.2281645242980659e+00 9.3194533354415565e+00 1.8385638060167042e+00 
1063 1064 2 1.4411425104121596e+00 -1.5290739928111078e-04 1.0000000000000000e+00 2.1223780512862817e+01 9.1605500328752534e+00 2.4370638224021266e+00 
603 604 2 1.4411425104121596e+00 -1.5290748724011959e-04 1.0000000000000000e+00 2.7709197526043187e+01 8.3680235462743084e+00 2.0982206074329630e+00 
1015 1016 2 1.4411425104121596e+00 -1.5290707933392970e-04 1.0000000000000000e+00 1.1785498352329160e+01 9.6711482292094662e+00 1.5106791434480431e+00 
976 977 2 1.4411425104121596e+00 -1.5290737223498511e-04 1.0000000000000000e+00 1.6630168858965838e+01 1.0054443928340845e+01 1.3694687228704230e+00 
977 978 2 1.4411425104121596e+00 -1.5290736372757977e-04 1.0000000000000000e+00 1.9277142430581886e+01 1.0650213772336997e+01 1.3965288212226861e+00 
1064 1065 2 1.4411425104121596e+00 -1.5290747964436999e-04 1.0000000000000000e+00 2.3361078976841558e+01 1.0090691826793782e+01 2.6630056783711451e+00 
1017 1018 2 1.4411425104121596e+00 -1.5290753853078689e-04 1.0000000000000000e+00 1.6913809613067336e+01 1.1965452214234233e+01 2.1105888731063729e+00 
1528 1529 2 1.4411425104121596e+00 -1.5290750872426728e-04 1.0000000000000000e+00 3.1664215693340786e+01 1.0980631806142798e+01 2.0437344604493162e+00 
1010 1011 2 1.4411425104121596e+00 -1.5290712255332340e-04 1.0000000000000000e+00 3.1173035780029243e+00 1.2556970242715293e+01 2.4092654323892502e+00 
1477 1478 2 1.4411425104121596e+00 -1.5290674226023409e-04 1.0000000000000000e+00 1.1316022200558731e+01 1.2393177768299610e+01 2.5170369857924517e+00 
1020 1021 2 1.4411425104121596e+00 -1.5290756328379337e-04 1.0000000000000000e+00 1.9282805571389648e+01 1.2956051363821929e+01 1.4598477370934648e+00 
1939 1940 2 1.4411425104121596e+00 -1.5290705601053202e-04 1.0000000000000000e+00 9.6694829001016540e+00 1.5922365313964272e+01 1.3928886769702367e+00 
1981 1982 2 1.4411425104121596e+00 -1.5290721753715981e-04 1.0000000000000000e+00 1.1731828014677383e+01 1.5089328265251682e+01 2.3197514417337746e+00 
1943 1944 2 1.4411425104121596e+00 -1.5290746421933095e-04 1.0000000000000000e+00 1.8597225844748873e+01 1.5521973809357965e+01 1.4212131249878874e+00 
1988 1989 2 1.4411425104121596e+00 -1.5290746612798851e-04 1.0000000000000000e+00 2.3647020063980221e+01 1.5611606431956215e+01 1.8292594265053372e+00 
1937 1938 2 1.4411425104121596e+00 -1.5290724031523560e-04 1.0000000000000000e+00 5.3851251437257304e+00 1.6866657750666747e+01 1.9834520719304840e+00 
2442 2443 2 1.4411425104121596e+00 -1.5290745370899147e-04 1.0000000000000000e+00 7.5984959705630875e+00 1.6462810715054601e+01 2.3910001165612695e+00 
1527 1528 2 1.4411425104121596e+00 -1.5290715271244756e-04 1.0000000000000000e+00 2.8928533814974404e+01 1.6143651501783928e+01 1.8535331458370852e+00 
2400 2401 2 1.4411425104121596e+00 -1.5290735591374011e-04 1.0000000000000000e+00 1.0517206668808583e+01 1.7840257728713055e+01 2.4485523920128922e+00 
2439 2440 2 1.4411425104121596e+00 -1.5290722095058073e-04 1.0000000000000000e+00 2.7763932018416000e+00 1.8690813426327438e+01 2.1012001871021062e+00 
2447 2448 2 1.4411425104121596e+00 -1.5290757678568337e-04 1.0000000000000000e+00 1.7486338984032315e+01 1.9043759340727725e+01 2.5166173724451104e+00 
134 135 2 1.4411425104121596e+00 -1.2742246789642565e-04 1.0000000000000000e+00 1.1885292489356384e+01 1.7333151363801678e+00 2.9972079215298582e+00 
136 137 2 1.4411425104121596e+00 -1.2742251153071704e-04 1.0000000000000000e+00 1.6026571300296578e+01 2.7999022152680517e+00 2.9971053201924667e+00 
137 138 2 1.4411425104121596e+00 -1.2742252414589550e-04 1.0000000000000000e+00 1.8294573599247727e+01 3.5789850186827796e+00 2.9686298957178061e+00 
138 139 2 1.4411425104121596e+00 -1.2742257637676446e-04 1.0000000000000000e+00 2.0627968953874007e+01 3.0637515967550071e+00 3.0437795509694969e+00 
139 140 2 1.4411425104121596e+00 -1.2742258353129170e-04 1.0000000000000000e+00 2.3203443410965811e+01 3.6041461309772798e+00 2.9493633016459500e+00 
140 141 2 1.4411425104121596e+00 -1.2742257176364319e-04 1.0000000000000000e+00 2.6034787415543438e+01 3.2982388832221559e+00 3.0050868118560978e+00 
141 142 2 1.4411425104121596e+00 -1.2742255719960525e-04 1.0000000000000000e+00 2.8732596299088172e+01 3.4325069689697143e+00 3.0068655744274961e+00 
142 143 2 1.4411425104121596e+00 -1.2742254299771260e-04 1.0000000000000000e+00 3.1074324285657159e+01 2.7103962679648199e+00 3.0535209721514192e+00 
135 136 2 1.4411425104121596e+00 -1.2742253419087654e-04 1.0000000000000000e+00 1.4116899119940378e+01 4.0482121483319649e+00 2.9799935562948345e+00 
594 595 2 1.4411425104121596e+00 -1.5290707820623053e-04 1.0000000000000000e+00 9.2643722105779140e+00 6.0488687762189493e+00 3.2164652086279619e+00 
601 602 2 1.4411425104121596e+00 -1.5290747994860937e-04 1.0000000000000000e+00 2.3603987570989400e+01 7.0391847791886502e+00 3.1251655534440768e+00 
1518 1519 2 1.4411425104121596e+00 -1.5290676412512392e-04 1.0000000000000000e+00 1.0549886799588446e+01 8.6816179930089366e+00 3.5736886230068063e+00 
604 605 2 1.4411425104121596e+00 -1.5290751563759117e-04 1.0000000000000000e+00 3.2157427261104417e+01 9.2739298264156194e+00 3.1253008141122747e+00 
592 593 2 1.4411425104121596e+00 -1.5290729086790225e-04 1.0000000000000000e+00 3.6628065963208889e+00 9.4089742339733338e+00 3.5070737019415570e+00 
597 598 2 1.4411425104121596e+00 -1.5290746669403038e-04 1.0000000000000000e+00 1.5308126894291481e+01 9.7966688778497133e+00 3.8564143762901724e+00 
1011 1012 2 1.4411425104121596e+00 -1.5290674667150063e-04 1.0000000000000000e+00 5.8950970069384434e+00 1.1817190736686532e+01 3.2989037556626011e+00 
1520 1521 2 1.4411425104121596e+00 -1.5290709087587679e-04 1.0000000000000000e+00 1.4477941115576019e+01 1.1605883457503486e+01 3.2405404797726005e+00 
1065 1066 2 1.4411425104121596e+00 -1.5290758385869856e-04 1.0000000000000000e+00 2.6361078468297638e+01 1.1259542483224202e+01 3.8165054651172450e+00 
1514 1515 2 1.4411425104121596e+00 -1.5290644451450503e-04 1.0000000000000000e+00 1.6576992040932423e+00 1.2431118048868560e+01 3.9161752774058414e+00 
1516 1517 2 1.4411425104121596e+00 -1.5290628475122107e-04 1.0000000000000000e+00 8.0765985529416007e+00 1.2591337000484383e+01 2.8733643395181585e+00 
1524 1525 2 1.4411425104121596e+00 -1.5290738728725948e-04 1.0000000000000000e+00 2.1466359013848777e+01 1.2728037719277866e+01 3.0518181368554913e+00 
1934 1935 2 1.4411425104121596e+00 -1.5290692949251355e-04 1.0000000000000000e+00 1.6410272046210088e+00 1.4648272507440449e+01 2.8048343466448884e+00 
1519 1520 2 1.4411425104121596e+00 -1.5290735131044534e-04 1.0000000000000000e+00 9.7837680618774492e+00 1.3341637196159166e+01 3.9562819551722539e+00 
1986 1987 2 1.4411425104121596e+00 -1.5290757036348575e-04 1.0000000000000000e+00 1.9075946619418687e+01 1.4122901062206230e+01 3.4684627239206813e+00 
1985 1986 2 1.4411425104121596e+00 -1.5290759258961711e-04 1.0000000000000000e+00 1.6689918381913468e+01 1.5930523571653742e+01 2.9715204607375552e+00 
1987 1988 2 1.4411425104121596e+00 -1.5290751218793793e-04 1.0000000000000000e+00 2.0587642235956707e+01 1.5954245884452799e+01 2.9250196826735961e+00 
1991 1992 2 1.4411425104121596e+00 -1.5290753667760899e-04 1.0000000000000000e+00 3.2381831377585975e+01 1.4933054975105334e+01 3.0767212492574805e+00 
2019 2020 2 1.4411425104121596e+00 -1.5290677280290274e-04 1.0000000000000000e+00 3.6709862069098769e+00 1.7126770143061503e+01 3.5304212849091239e+00 
1990 1991 2 1.4411425104121596e+00 -1.5290757561971544e-04 1.0000000000000000e+00 3.0879041056632715e+01 1.6632420883714211e+01 3.3476778012421979e+00 
1480 1481 2 1.4411425104121596e+00 -1.5290742772151495e-04 1.0000000000000000e+00 1.4518457935098269e+01 1.8148633201074883e+01 3.0073289253957625e+00 
2448 2449 2 1.4411425104121596e+00 -1.5290757828264904e-04 1.0000000000000000e+00 1.9559162575397313e+01 1.7658472986683279e+01 3.1332971369780909e+00 
2450 2451 2 1.4411425104121596e+00 -1.5290755479548259e-04 1.0000000000000000e+00 2.4822459532019153e+01 1.7334437204295394e+01 3.1284497317526072e+00 
1989 1990 2 1.4411425104121596e+00 -1.5290714815844784e-04 1.0000000000000000e+00 2.7598815735940629e+01 1.7475878380637315e+01 3.4762378495258828e+00 
2440 2441 2 1.4411425104121596e+00 -1.5290734351153631e-04 1.0000000000000000e+00 6.5642812966788000e+00 1.9349756075252753e+01 3.0904812050201489e+00 
2449 2450 2 1.4411425104121596e+00 -1.5290755474450484e-04 1.0000000000000000e+00 2.3120780183791510e+01 1.9867606026349211e+01 3.0592957754727248e+00 
2452 2453 2 1.4411425104121596e+00 -1.5290749161164631e-04 1.0000000000000000e+00 3.1406864821308009e+01 1.8675559510819237e+01 2.7563092328935377e+00 
128 129 2 1.4411425104121596e+00 -1.2742225785577664e-04 1.0000000000000000e+00 2.0814530679880199e+00 2.9459956242287415e+00 4.3352109511541359e+00 
130 131 2 1.4411425104121596e+00 -1.2742236637497238e-04 1.0000000000000000e+00 4.6209500971134876e+00 2.7948507353823251e+00 5.3291923110051256e+00 
132 133 2 1.4411425104121596e+00 -1.2742245394764857e-04 1.0000000000000000e+00 6.9641609661414829e+00 2.8512078239512739e+00 4.3061376035336405e+00 
596 597 2 1.4411425104121596e+00 -1.5290740579508705e-04 1.0000000000000000e+00 1.3676975856126441e+01 6.8036716834673214e+00 4.5975516782966714e+00 
598 599 2 1.4411425104121596e+00 -1.5290752025836455e-04 1.0000000000000000e+00 1.6984806623416663e+01 7.9448304334853574e+00 4.8868776363915645e+00 
600 601 2 1.4411425104121596e+00 -1.5290747425416429e-04 1.0000000000000000e+00 2.1932974291609881e+01 7.8719268892439995e+00 5.0537625030850464e+00 
593 594 2 1.4411425104121596e+00 -1.5290720186449759e-04 1.0000000000000000e+00 5.4315385762213202e+00 8.5901074002187467e+00 4.9274691519685074e+00 
1056 1057 2 1.4411425104121596e+00 -1.5290731863475121e-04 1.0000000000000000e+00 8.5594214361671224e+00 9.0519955197334863e+00 5.2255203124029652e+00 
1014 1015 2 1.4411425104121596e+00 -1.5290681960141033e-04 1.0000000000000000e+00 1.2528193340969228e+01 8.9100573619118624e+00 4.2040085913620535e+00 
1062 1063 2 1.4411425104121596e+00 -1.5290747968907013e-04 1.0000000000000000e+00 1.9321327614333427e+01 8.7034957163577218e+00 4.0433621728281723e+00 
1517 1518 2 1.4411425104121596e+00 -1.5290702724032445e-04 1.0000000000000000e+00 7.1057204178666424e+00 1.0476986169767562e+01 4.7876959764957681e+00 
1561 1562 2 1.4411425104121596e+00 -1.5290765414524533e-04 1.0000000000000000e+00 1.0385164603001135e+01 1.0294781273078582e+01 5.2252996403302170e+00 
1061 1062 2 1.4411425104121596e+00 -1.5290750812243836e-04 1.0000000000000000e+00 1.8115422640526727e+01 1.0547746209914962e+01 4.7662035741555400e+00 
1525 1526 2 1.4411425104121596e+00 -1.5290718014720217e-04 1.0000000000000000e+00 2.3752595340522220e+01 1.2494389444546417e+01 4.8663792201072988e+00 
1521 1522 2 1.4411425104121596e+00 -1.5290709989741540e-04 1.0000000000000000e+00 1.7408903184678987e+01 1.3758557652751902e+01 4.5584024085115962e+00 
1526 1527 2 1.4411425104121596e+00 -1.5290742811352619e-04 1.0000000000000000e+00 2.5583945920544870e+01 1.3424219528406029e+01 4.1725495731633160e+00 
2018 2019 2 1.4411425104121596e+00 -1.5290717195658366e-04 1.0000000000000000e+00 1.0173422653869428e+00 1.6769597610501737e+01 4.9411492844490708e+00 
2024 2025 2 1.4411425104121596e+00 -1.5290764980771898e-04 1.0000000000000000e+00 1.2936031549818521e+01 1.6297469871205529e+01 5.0030784846059486e+00 
2021 2022 2 1.4411425104121596e+00 -1.5290720988542038e-04 1.0000000000000000e+00 7.6610770611967318e+00 1.8561932412284104e+01 5.0049953782164689e+00 
133 134 2 1.4411425104121596e+00 -1.2742236225581730e-04 1.0000000000000000e+00 8.1208539911314581e+00 3.2201986144616086e+00 6.4359959122120527e+00 
595 596 2 1.4411425104121596e+00 -1.5290725612355089e-04 1.0000000000000000e+00 1.2443495773298286e+01 3.1879600978425366e+00 5.9771816515900751e+00 
172 173 2 1.4411425104121596e+00 -1.2742244487819846e-04 1.0000000000000000e+00 5.0609825214664692e+00 4.4316279340494864e+00 6.5045280348148493e+00 
1060 1061 2 1.4411425104121596e+00 -1.5290769038593614e-04 1.0000000000000000e+00 1.8627807338796693e+01 6.0706149910610208e+00 6.1868772519687774e+00 
591 592 2 1.4411425104121596e+00 -1.5290721150771291e-04 1.0000000000000000e+00 2.2368726127857981e+00 8.0789612663273900e+00 5.7187955542916544e+00 
1067 1068 2 1.4411425104121596e+00 -1.5290737823502601e-04 1.0000000000000000e+00 3.0009604812738822e+01 8.1486678664186947e+00 6.0289753196604838e+00 
1059 1060 2 1.4411425104121596e+00 -1.5290743507375936e-04 1.0000000000000000e+00 1.4844058156129195e+01 1.0347710288394060e+01 6.0927346288514972e+00 
1066 1067 2 1.4411425104121596e+00 -1.5290754467808820e-04 1.0000000000000000e+00 2.8487172450697965e+01 9.7031457415257165e+00 5.4653955496322935e+00 
2025 2026 2 1.4411425104121596e+00 -1.5290771698757026e-04 1.0000000000000000e+00 1.4054221194785994e+01 1.2633785303764608e+01 5.7653878909662550e+00 
1978 1979 2 1.4411425104121596e+00 -1.5290741954751346e-04 1.0000000000000000e+00 3.8818625571671630e+00 1.4618225624205337e+01 5.3362626385768444e+00 
1558 1559 2 1.4411425104121596e+00 -1.5290678646176923e-04 1.0000000000000000e+00 6.6045079045400277e+00 1.4077510198495537e+01 6.5213130643941968e+00 
1980 1981 2 1.4411425104121596e+00 -1.5290738623061940e-04 1.0000000000000000e+00 9.7104159772600926e+00 1.4392201245033183e+01 5.7842721092720302e+00 
1523 1524 2 1.4411425104121596e+00 -1.5290737990806850e-04 1.0000000000000000e+00 1.9076090539058775e+01 1.5865602010769342e+01 5.6277386896087611e+00 
2443 2444 2 1.4411425104121596e+00 -1.5290750545858621e-04 1.0000000000000000e+00 1.1191538327568587e+01 1.7735355875736651e+01 5.9918191373912419e+00 
2446 2447 2 1.4411425104121596e+00 -1.5290756015373116e-04 1.0000000000000000e+00 1.5886440148396670e+01 1.7361573728646800e+01 5.4687182685140625e+00 
2438 2439 2 1.4411425104121596e+00 -1.5290709768228241e-04 1.0000000000000000e+00 1.1732542442806491e+00 1.9801251107620708e+01 6.0839912604469895e+00 
636 637 2 1.4411425104121596e+00 -1.5290748521367250e-04 1.0000000000000000e+00 6.6331927906670938e+00 3.6364939086471497e+00 7.7870513507492749e+00 
599 600 2 1.4411425104121596e+00 -1.5290728677857629e-04 1.0000000000000000e+00 1.6129771338407199e+01 3.7980876098941572e+00 6.7201025227924172e+00 
182 183 2 1.4411425104121596e+00 -1.2742259377778578e-04 1.0000000000000000e+00 2.6509318569821740e+01 3.9764040977977002e+00 7.8683210880042651e+00 
170 171 2 1.4411425104121596e+00 -1.2742225377230257e-04 1.0000000000000000e+00 1.3242430759572603e+00 4.6426623080292897e+00 7.9778916970254343e+00 
1101 1102 2 1.4411425104121596e+00 -1.5290760546493863e-04 1.0000000000000000e+00 1.5367052115225313e+01 6.1036733928892479e+00 7.3695460674010445e+00 
633 634 2 1.4411425104121596e+00 -1.5290735019023421e-04 1.0000000000000000e+00 3.1759713483785927e+00 6.7230413463919723e+00 7.6824893319419711e+00 
1097 1098 2 1.4411425104121596e+00 -1.5290732960081838e-04 1.0000000000000000e+00 1.0891764657114830e+01 7.4587212697827816e+00 6.8651667950082711e+00 
1053 1054 2 1.4411425104121596e+00 -1.5290708197133191e-04 1.0000000000000000e+00 6.1343304771744895e+00 8.4132953823325689e+00 6.9120514836849871e+00 
1013 1014 2 1.4411425104121596e+00 -1.5290708499429554e-04 1.0000000000000000e+00 8.7710094112158323e+00 8.6636881152578322e+00 7.1925397522901555e+00 
1058 1059 2 1.4411425104121596e+00 -1.5290764033042337e-04 1.0000000000000000e+00 1.3014133723740738e+01 8.1716468657538428e+00 7.2610361039663909e+00 
1515 1516 2 1.4411425104121596e+00 -1.5290694844767507e-04 1.0000000000000000e+00 3.2418360422545760e+00 9.7697933045870364e+00 6.9480158761658108e+00 
1522 1523 2 1.4411425104121596e+00 -1.5290732688578464e-04 1.0000000000000000e+00 1.8733007704416934e+01 9.4724275437686210e+00 6.7762621974880322e+00 
1567 1568 2 1.4411425104121596e+00 -1.5290759768876288e-04 1.0000000000000000e+00 2.2968607879144141e+01 1.0415948693661850e+01 7.8647736604092060e+00 
1103 1104 2 1.4411425104121596e+00 -1.5290759979160059e-04 1.0000000000000000e+00 1.9868618388583712e+01 1.1914319159798856e+01 7.1939630992923682e+00 
1976 1977 2 1.4411425104121596e+00 -1.5290717550925077e-04 1.0000000000000000e+00 2.4744504078460596e+00 1.2814351719881939e+01 6.8738593445010689e+00 
1562 1563 2 1.4411425104121596e+00 -1.5290767750729731e-04 1.0000000000000000e+00 1.0856233076752783e+01 1.2650313538560818e+01 7.7662006870874700e+00 
1564 1565 2 1.4411425104121596e+00 -1.5290729212742921e-04 1.0000000000000000e+00 1.5455451920755019e+01 1.2642005338842317e+01 7.5348420357887802e+00 
1604 1605 2 1.4411425104121596e+00 -1.5290744061022672e-04 1.0000000000000000e+00 1.3646389529987228e+01 1.4790619593468378e+01 6.8473591008102224e+00 
2026 2027 2 1.4411425104121596e+00 -1.5290748095267518e-04 1.0000000000000000e+00 1.5282017895456981e+01 1.5719371824928382e+01 7.8557340474632333e+00 
177 178 2 1.4411425104121596e+00 -1.2742266189839222e-04 1.0000000000000000e+00 1.3818411574131256e+01 2.4749280274355221e+00 9.0806644924744813e+00 
175 176 2 1.4411425104121596e+00 -1.2742254040414673e-04 1.0000000000000000e+00 9.1667750858106025e+00 3.7781622104775825e+00 8.8571522849109634e+00 
176 177 2 1.4411425104121596e+00 -1.2742257379040077e-04 1.0000000000000000e+00 1.2039773005651073e+01 3.9353582845171227e+00 8.5089967765413093e+00 
178 179 2 1.4411425104121596e+00 -1.2742263556901094e-04 1.0000000000000000e+00 1.6101038649585693e+01 3.5798685091012885e+00 9.1873094538221345e+00 
179 180 2 1.4411425104121596e+00 -1.2742263239412559e-04 1.0000000000000000e+00 1.8535047082991298e+01 3.2440926533022503e+00 9.0726214641537801e+00 
180 181 2 1.4411425104121596e+00 -1.2742265698776606e-04 1.0000000000000000e+00 2.0596709265041614e+01 3.5574546840328125e+00 8.9976419506515803e+00 
184 185 2 1.4411425104121596e+00 -1.2742264266779146e-04 1.0000000000000000e+00 3.1117646137046300e+01 3.4221885705780828e+00 9.2441738617699194e+00 
643 644 2 1.4411425104121596e+00 -1.5290759126075133e-04 1.0000000000000000e+00 2.3030078391338765e+01 6.9239251731447045e+00 9.0981503395238299e+00 
642 643 2 1.4411425104121596e+00 -1.5290756443122185e-04 1.0000000000000000e+00 2.0284005150803242e+01 8.0235256371136838e+00 8.5313736567703486e+00 
645 646 2 1.4411425104121596e+00 -1.5290763295583475e-04 1.0000000000000000e+00 2.7792878047866132e+01 8.7520234635662710e+00 8.5305497356949616e+00 
646 647 2 1.4411425104121596e+00 -1.5290761090905886e-04 1.0000000000000000e+00 3.0326539110668165e+01 9.1187887782403454e+00 8.7997396977734770e+00 
1095 1096 2 1.4411425104121596e+00 -1.5290723478954027e-04 1.0000000000000000e+00 7.3704682252389810e+00 1.0188285680810747e+01 8.4878597612038131e+00 
1102 1103 2 1.4411425104121596e+00 -1.5290763053232807e-04 1.0000000000000000e+00 1.7633854927331463e+01 9.7608654066551015e+00 8.7506818569471587e+00 
1052 1053 2 1.4411425104121596e+00 -1.5290719219234275e-04 1.0000000000000000e+00 4.3294453492716540e+00 1.0770458376158675e+01 8.8070102040591021e+00 
1057 1058 2 1.4411425104121596e+00 -1.5290659693486736e-04 1.0000000000000000e+00 1.4543684708115212e+01 1.0679472938012310e+01 8.3932361846062786e+00 
1565 1566 2 1.4411425104121596e+00 -1.5290713463911494e-04 1.0000000000000000e+00 1.7263891752193587e+01 1.1807726330075589e+01 8.3386767432000362e+00 
1566 1567 2 1.4411425104121596e+00 -1.5290747667584428e-04 1.0000000000000000e+00 2.0510667463186088e+01 1.1802783230520022e+01 9.3006931193582609e+00 
1569 1570 2 1.4411425104121596e+00 -1.5290763144772422e-04 1.0000000000000000e+00 2.9670301594987446e+01 1.1073790078684867e+01 8.8796732699683361e+00 
1555 1556 2 1.4411425104121596e+00 -1.2742146326194488e-04 1.0000000000000000e+00 6.3789515655579976e-01 1.2013284956463744e+01 8.1838288853981958e+00 
1979 1980 2 1.4411425104121596e+00 -1.5290722336022033e-04 1.0000000000000000e+00 8.0196531654975427e+00 1.2457370968359252e+01 8.1406451196340477e+00 
1563 1564 2 1.4411425104121596e+00 -1.5290763863026285e-04 1.0000000000000000e+00 1.2904624057046604e+01 1.2144922085231565e+01 8.7968994650215251e+00 
2023 2024 2 1.4411425104121596e+00 -1.5290758470555278e-04 1.0000000000000000e+00 9.5317869119995500e+00 1.3966393681611097e+01 8.6642173220209209e+00 
1977 1978 2 1.4411425104121596e+00 -1.5290718933330200e-04 1.0000000000000000e+00 3.7483707045979736e-01 1.4694648101368843e+01 8.8297973057571930e+00 
2031 2032 2 1.4411425104121596e+00 -1.5290760600557822e-04 1.0000000000000000e+00 2.6543481960616816e+01 1.4872887435529151e+01 9.1565089457740978e+00 
2022 2023 2 1.4411425104121596e+00 -1.5290746915961072e-04 1.0000000000000000e+00 8.1960383435235595e+00 1.6501728159049186e+01 9.1554112331887314e+00 
1982 1983 2 1.4411425104121596e+00 -1.5290722635998464e-04 1.0000000000000000e+00 1.0410056229554634e+01 1.6170794615040766e+01 8.9679634320065968e+00 
2020 2021 2 1.4411425104121596e+00 -1.5290734009473645e-04 1.0000000000000000e+00 4.4753742731635775e+00 1.7871843904160194e+01 8.7653894250248161e+00 
1983 1984 2 1.4411425104121596e+00 -1.5290728787140001e-04 1.0000000000000000e+00 1.3186598465082058e+01 1.8305725471217379e+01 8.5996268235968589e+00 
2487 2488 2 1.4411425104121596e+00 -1.5290730935896732e-04 1.0000000000000000e+00 1.5015139353783550e+01 1.9775944348019603e+01 9.0010843269605338e+00 
173 174 2 1.4411425104121596e+00 -1.2742244449032630e-04 1.0000000000000000e+00 6.4421705821204576e+00 1.1064144394717017e+00 9.6962603937117464e+00 
171 172 2 1.4411425104121596e+00 -1.2742229655537967e-04 1.0000000000000000e+00 2.2225948753870441e+00 2.8483827580269652e+00 9.3741032824846400e+00 
181 182 2 1.4411425104121596e+00 -1.2742264693462328e-04 1.0000000000000000e+00 2.3860200828159893e+01 3.1454502221896492e+00 9.3768688437770091e+00 
183 184 2 1.4411425104121596e+00 -1.2742264396103229e-04 1.0000000000000000e+00 2.8770853739111530e+01 3.1554166094220113e+00 9.5764082002779354e+00 
174 175 2 1.4411425104121596e+00 -1.2742229299005201e-04 1.0000000000000000e+00 5.9873540295508807e+00 5.2027410106585652e+00 9.8687629345016781e+00 
1093 1094 2 1.4411425104121596e+00 -1.2742171105951488e-04 1.0000000000000000e+00 2.2263355410837593e-01 7.9458971298179559e+00 1.0636961352005214e+01 