LAMMPS data file via write_data, version 30 Jul 2016, timestep = 50400000

1520 atoms
8 atom types

0.0000000000000000e+00 4.0000000000000000e+01 xlo xhi
0.0000000000000000e+00 4.0000000000000000e+01 ylo yhi
0.0000000000000000e+00 1.0000000000000000e+02 zlo zhi

Masses

1 3.896
2 5.36
3 20.064
4 8.378
5 8.378
6 8.378
7 8.378
8 8.378

Atoms # meso-molecular

174 175 2 1.0280000135280725e+00 -1.3899590629995853e+02 1.0000000000000000e+00 1.1280359729722362e+00 1.6102896960846200e+00 8.2730936499109720e-01 
330 331 2 1.0279999682242353e+00 5.8021737099744016e+01 1.0000000000000000e+00 2.1721496918821610e+00 1.4437476889723728e+00 1.0016384019001101e-01 
1184 1185 2 1.0280000149476296e+00 6.5640453977807113e+02 1.0000000000000000e+00 3.6168877161321760e+00 2.6002558325584393e+00 1.1248948393679929e+00 
1238 1239 2 1.0279999995813445e+00 -1.3927238325441573e+02 1.0000000000000000e+00 1.3784194249778170e+00 4.8901197518105155e+00 3.7237578432031243e-01 
678 679 2 1.0279999884116622e+00 -6.0552739645146357e+02 1.0000000000000000e+00 8.0884118705554198e-01 3.3826706614268303e+00 1.1357861301637340e+00 
1500 1501 2 1.0279999817169831e+00 2.7060811390959107e+03 1.0000000000000000e+00 3.6407083624873415e+00 3.7668145604668428e+00 7.8109552062259258e-01 
209 210 2 1.0280000000000085e+00 2.0070007105408880e+02 1.0000000000000000e+00 9.9934276228747780e+00 1.8340962818523408e+01 5.1082486665678151e-01 
674 675 2 1.0279999654075294e+00 -4.7676219189597128e+02 1.0000000000000000e+00 1.7840693454786800e+00 2.5911625078897122e-02 2.2977495517473541e+00 
1174 1175 2 1.0279999947355942e+00 -4.4443845811290777e+02 1.0000000000000000e+00 5.4957998869141669e+00 3.0225685455739151e+00 1.7798011761055692e+00 
1022 1023 2 1.0280000019817670e+00 3.0600833736290465e+01 1.0000000000000000e+00 5.0613986132717770e+00 2.1972006666123729e+00 2.4758672019803121e+00 
830 831 2 1.0280000237728073e+00 -6.0546576956518186e+02 1.0000000000000000e+00 7.2343579235331168e-01 5.5403876862537942e+00 1.7732994395924175e+00 
369 370 2 1.0279999895919041e+00 -1.5803733031103036e+02 1.0000000000000000e+00 1.9075199110143584e-01 5.7325817937957533e+00 3.4097328744789852e+00 
590 591 2 1.0280000000000000e+00 -6.4962604767473567e+02 1.0000000000000000e+00 1.4102415046534922e+01 6.4010187171468997e+00 5.5935834859413855e+00 
746 747 2 1.0280000000000000e+00 -7.4188040454436918e+02 1.0000000000000000e+00 1.4293560923720484e+01 7.5172145882938244e+00 5.4356498026174656e+00 
760 761 2 1.0280000000000000e+00 3.7631344280628866e+02 1.0000000000000000e+00 1.8096556992136328e+01 9.4807735558374553e+00 5.9532472972743937e+00 
757 758 2 1.0280000000000000e+00 3.7683743475860098e+02 1.0000000000000000e+00 1.6968158350450757e+01 9.5824882929917443e+00 6.1073369956533980e+00 
784 785 2 1.0279999999999963e+00 -4.7789352215222308e+01 1.0000000000000000e+00 7.1134909804784568e-02 1.7644588264597932e+01 8.1136958644799311e+00 
914 915 2 1.0280000000000005e+00 6.2127564513372624e+02 1.0000000000000000e+00 1.7809514905650989e+01 2.8587348783576525e+00 1.2683885944655053e+01 
918 919 2 1.0280000000000005e+00 -3.3769817180617224e+01 1.0000000000000000e+00 1.8371835564977435e+01 1.8668751761790190e+00 1.2597962579104562e+01 
627 628 2 1.0280000087718211e+00 -3.7705506180179123e+02 1.0000000000000000e+00 1.4751982694044706e+01 4.8555635260047456e+00 1.3261481141343335e+01 
626 627 2 1.0279999902537742e+00 -3.7715516863435244e+02 1.0000000000000000e+00 1.6030819858197816e+01 4.8627557596787092e+00 1.3291402153779080e+01 
225 226 2 1.0280000000000000e+00 1.7042540484600784e+02 1.0000000000000000e+00 1.6047577014963416e+01 1.7908897805570046e+01 1.2769220550522798e+01 
226 227 2 1.0280000000000000e+00 -3.4125138698553428e+02 1.0000000000000000e+00 1.6811786260178298e+01 1.8752700755476326e+01 1.2662666204218667e+01 
322 323 2 1.0280000176625290e+00 -4.0026300033844166e+01 1.0000000000000000e+00 1.6587046974206888e+01 4.9581053914135502e+00 1.4978772149152805e+01 
779 780 2 1.0279999899653909e+00 -3.7714587859157825e+02 1.0000000000000000e+00 1.4625446366233735e+01 6.6847935023941822e+00 1.3577305995055015e+01 
778 779 2 1.0280000126540136e+00 -3.7709439430740235e+02 1.0000000000000000e+00 1.6025992708973845e+01 6.7286958869141342e+00 1.3591237757814566e+01 
733 734 2 1.0280000010214552e+00 1.6543614884388992e+03 1.0000000000000000e+00 1.9292155575609030e+01 6.8229646120301357e+00 1.4851954687134514e+01 
1087 1088 2 1.0280000002791365e+00 3.6116587708261204e+02 1.0000000000000000e+00 1.0746993269381575e+01 1.4323692615035659e+01 1.3947933389564829e+01 
1086 1087 2 1.0279999993927622e+00 3.6112908692051451e+02 1.0000000000000000e+00 1.2307953138552749e+01 1.4358387836709570e+01 1.4042850589388541e+01 
214 215 2 1.0279999921412135e+00 -3.6189726203287751e+02 1.0000000000000000e+00 1.7816865124667334e+01 1.4867950433226019e+01 1.4778620287139592e+01 
327 328 2 1.0279999997755307e+00 3.6114529138231205e+02 1.0000000000000000e+00 1.0757905566915761e+01 1.5767056363320794e+01 1.3976248065304784e+01 
326 327 2 1.0280000002717047e+00 3.6113160435096023e+02 1.0000000000000000e+00 1.2332320601710505e+01 1.5740179554839939e+01 1.4027827753040231e+01 
323 324 2 1.0279999957351815e+00 -3.9960932088362313e+01 1.0000000000000000e+00 1.4531843464568883e+01 4.9565843878231890e+00 1.5044971128266681e+01 
634 635 2 1.0279999899074630e+00 -6.5599863604020481e+02 1.0000000000000000e+00 1.5544999874362357e+01 4.2705955896843966e+00 1.6209529025695915e+01 
457 458 2 1.0279999826565807e+00 3.5485496199435552e+01 1.0000000000000000e+00 1.7638785326380667e+01 4.1219094710086779e+00 1.6454148247593849e+01 
1083 1084 2 1.0280000050289892e+00 -4.0060446045280742e+01 1.0000000000000000e+00 1.4496849496479056e+01 6.3279819769713486e+00 1.5114005141900526e+01 
1082 1083 2 1.0279999843210390e+00 -4.0070530400490838e+01 1.0000000000000000e+00 1.6457033896649790e+01 6.3255641190289182e+00 1.5051356334613352e+01 
633 634 2 1.0279999991439377e+00 1.6543623512174293e+03 1.0000000000000000e+00 1.9327429331342142e+01 6.8921416030559719e+00 1.6135857639838513e+01 
874 875 2 1.0279999999115417e+00 -4.9646408885304095e+02 1.0000000000000000e+00 1.2431316803399190e+01 1.1267169831727761e+01 1.6305796532851407e+01 
858 859 2 1.0279999999898568e+00 -4.4573389508128741e+02 1.0000000000000000e+00 1.2648990400595880e+01 1.2272565035886036e+01 1.5329952918668864e+01 
965 966 2 1.0280000001052008e+00 1.0279743902044816e+03 1.0000000000000000e+00 1.3729096831770345e+01 1.2589076923833323e+01 1.6542084192618383e+01 
1255 1256 2 1.0279999994786417e+00 -4.4456961930351804e+02 1.0000000000000000e+00 1.0563905966656041e+01 1.4331213553283650e+01 1.5750789078901230e+01 
1244 1245 2 1.0280000018635369e+00 -6.9828108181436434e+01 1.0000000000000000e+00 1.2304175448037983e+01 1.4245123706253867e+01 1.6067300469238287e+01 
1241 1242 2 1.0279999988732520e+00 -6.9924108371773286e+01 1.0000000000000000e+00 1.3865175546553363e+01 1.4107452750654877e+01 1.6004057382283520e+01 
1254 1255 2 1.0280000003024257e+00 -4.4473239165834957e+02 1.0000000000000000e+00 1.5817596050127975e+01 1.4161147933305154e+01 1.5738284761236729e+01 
191 192 2 1.0280000002837586e+00 -4.4471913165074170e+02 1.0000000000000000e+00 1.0533863051627209e+01 1.5819610725676558e+01 1.5763836048700332e+01 
180 181 2 1.0279999996355624e+00 -7.0159778995077460e+01 1.0000000000000000e+00 1.2382583556562032e+01 1.6058547224670345e+01 1.5970307844089946e+01 
177 178 2 1.0280000006247361e+00 -7.0206402267574475e+01 1.0000000000000000e+00 1.4018624567833170e+01 1.6032636433258119e+01 1.5923110436510671e+01 
190 191 2 1.0279999997197489e+00 -4.4478846743472138e+02 1.0000000000000000e+00 1.5853940443056011e+01 1.5580558474849184e+01 1.5671272564100233e+01 
213 214 2 1.0280000077263640e+00 1.8182767685964427e+02 1.0000000000000000e+00 1.8102612132638971e+01 1.5452500989616091e+01 1.5720940995549210e+01 
512 513 2 1.0280000012036399e+00 1.0272322250055690e+03 1.0000000000000000e+00 1.2654407059477490e+01 1.7762096336213496e+01 1.5868279796564257e+01 
509 510 2 1.0279999988063819e+00 1.0272511494203864e+03 1.0000000000000000e+00 1.3906786921482288e+01 1.7749070965942458e+01 1.5825902204395193e+01 
170 171 2 1.0280000081628646e+00 -5.7165537106939644e+02 1.0000000000000000e+00 1.1275871891486680e+01 3.2779905374361826e+00 1.7947639935025599e+01 
1103 1104 2 1.0280000528688933e+00 1.8497036453522358e+02 1.0000000000000000e+00 1.9850444246461080e+01 2.7787258004810664e+00 1.7675052565581030e+01 
843 844 2 1.0279999958772388e+00 -6.0616119963906237e+02 1.0000000000000000e+00 1.2013965754683857e+01 4.5334573326401539e+00 1.8124587661096470e+01 
482 483 2 1.0280000225303352e+00 -7.1184903852390528e+02 1.0000000000000000e+00 1.5851677123776975e+01 3.6863237040090113e+00 1.7489385030337775e+01 
613 614 2 1.0280000187635467e+00 9.1867400092670746e+00 1.0000000000000000e+00 1.7796415913650780e+01 3.5599365801981180e+00 1.7575918208251821e+01 
753 754 2 1.0280000221143006e+00 5.4963946959929793e+00 1.0000000000000000e+00 1.9179323640655003e+01 4.7041900718796361e+00 1.7559216882609281e+01 
756 757 2 1.0280000047291578e+00 1.2481619041807466e+01 1.0000000000000000e+00 1.6578397656406029e+01 5.4056899684649906e+00 1.7336146810177013e+01 
608 609 2 1.0279999853378465e+00 3.9292043017434779e+01 1.0000000000000000e+00 1.7534916565343259e+01 6.1204317516546052e+00 1.7838782526385561e+01 
185 186 2 1.0280000000000027e+00 3.6311766937259711e+02 1.0000000000000000e+00 4.0618233301828238e-01 8.1148614560241938e+00 1.7108132640874199e+01 
1236 1237 2 1.0280000094522976e+00 3.9949684299065370e+02 1.0000000000000000e+00 1.0636404849781101e+01 9.1121084162628936e+00 1.8167566518316196e+01 
968 969 2 1.0279999998080043e+00 1.0289738728496955e+03 1.0000000000000000e+00 1.1903029340605833e+01 1.2624198504025843e+01 1.6851580249504774e+01 
1227 1228 2 1.0280000007910515e+00 2.0146876390237981e+02 1.0000000000000000e+00 1.0343834520379584e+01 1.4058879830534149e+01 1.7355632529947055e+01 
1436 1437 2 1.0279999962765494e+00 1.6059761771960343e+03 1.0000000000000000e+00 1.1991505354829652e+01 1.4075165462968357e+01 1.7737753770543566e+01 
1433 1434 2 1.0280000004055396e+00 1.6059528632154602e+03 1.0000000000000000e+00 1.4141131336477462e+01 1.3790759664925181e+01 1.7620710996448405e+01 
1226 1227 2 1.0279999979983299e+00 2.0149998815331404e+02 1.0000000000000000e+00 1.5878732916548486e+01 1.3726760842213681e+01 1.7195101076630657e+01 
163 164 2 1.0280000001858836e+00 2.0149955012098403e+02 1.0000000000000000e+00 1.0596948924420916e+01 1.6037175218595127e+01 1.7333202560841425e+01 
68 69 2 1.0280000004324421e+00 1.6058446680502548e+03 1.0000000000000000e+00 1.2160153886800472e+01 1.6153982493661633e+01 1.7605024469794078e+01 
65 66 2 1.0279999990582362e+00 1.6058121361713520e+03 1.0000000000000000e+00 1.4089383409671628e+01 1.6000160619516787e+01 1.7469625934405855e+01 
162 163 2 1.0280000008206314e+00 2.0141408476212439e+02 1.0000000000000000e+00 1.5724288447018761e+01 1.5777738022624698e+01 1.7192398799052611e+01 
478 479 2 1.0279999897581793e+00 -5.6995158693210635e+02 1.0000000000000000e+00 1.0914512306472911e+01 3.0745698288449579e+00 1.9316972021880119e+01 
951 952 2 1.0279999510686149e+00 -9.9283889763872850e+01 1.0000000000000000e+00 1.9697621219281416e+01 3.3005496944227888e+00 1.8733759802806084e+01 
691 692 2 1.0280000162899841e+00 -6.0644619319614742e+02 1.0000000000000000e+00 1.0633283344794766e+01 4.6637330277811024e+00 1.9577490350921622e+01 
842 843 2 1.0280000171889365e+00 -6.0639220799869440e+02 1.0000000000000000e+00 1.3252666628858783e+01 4.1444841485306272e+00 1.8875710461138500e+01 
282 283 2 1.0280000254849444e+00 -1.3706094974616539e+02 1.0000000000000000e+00 1.5041507101302846e+01 3.6525390476989754e+00 1.8863948416285595e+01 
430 431 2 1.0279999856368012e+00 5.8746288369466292e+01 1.0000000000000000e+00 1.6251866857314699e+01 3.5961376008333681e+00 1.9706066345968740e+01 
591 592 2 1.0279999354529092e+00 -6.5003567116199974e+02 1.0000000000000000e+00 1.8428754541958561e+01 4.8905442098225107e+00 1.9818867111995765e+01 
916 917 2 1.0280000006930741e+00 3.5625875394864181e+01 1.0000000000000000e+00 1.2542621780930398e+01 5.6243786252968695e+00 1.9703212091833230e+01 
605 606 2 1.0280000172423636e+00 3.9532244742735287e+01 1.0000000000000000e+00 1.9078884116251022e+01 5.8376921062574452e+00 1.8344175177748493e+01 
1084 1085 2 1.0279999961947743e+00 4.2415696321910718e+02 1.0000000000000000e+00 1.0678955253228990e+01 7.5424616591231342e+00 1.9672725073420615e+01 
1081 1082 2 1.0279999904394204e+00 4.2520773303975398e+02 1.0000000000000000e+00 1.2100744697328238e+01 8.1748396899645766e+00 1.9566853488332139e+01 
1233 1234 2 1.0280000063975181e+00 3.9960915564232914e+02 1.0000000000000000e+00 1.2285294576493433e+01 9.7433863268309757e+00 1.9416726682208576e+01 
1225 1226 2 1.0279999937519095e+00 -6.0986566577267320e+02 1.0000000000000000e+00 1.3669032587916453e+01 8.9308570802626424e+00 1.8699101171119107e+01 
1075 1076 2 1.0279999907498025e+00 3.3432111249483404e+02 1.0000000000000000e+00 1.0373631697635954e+01 1.0146820762237461e+01 1.8618780262474154e+01 
1381 1382 2 1.0280000035297936e+00 -4.6574994815143654e+01 1.0000000000000000e+00 1.3861995524254933e+01 1.0160306157890366e+01 1.8963293211035843e+01 
1120 1121 2 1.0280000054592433e+00 -5.7029193105236607e+02 1.0000000000000000e+00 1.2009153677368149e+01 1.2695258647998338e+01 1.8973385450888184e+01 
1117 1118 2 1.0279999976301821e+00 -5.7032390117194416e+02 1.0000000000000000e+00 1.4041773966944465e+01 1.2498950473598887e+01 1.8879720742196906e+01 
1113 1114 2 1.0279999981813113e+00 -1.0618133311466471e+02 1.0000000000000000e+00 1.7465581073123772e+01 1.2829578328533691e+01 1.9687536641575569e+01 
1093 1094 2 1.0280000005527550e+00 -6.6516324369042351e+01 1.0000000000000000e+00 1.8853046390709814e+01 1.3083074453890591e+01 1.9983355954466195e+01 
1256 1257 2 1.0279999994484053e+00 3.4566276343076777e+02 1.0000000000000000e+00 9.3635300659793472e+00 1.4061956514678187e+01 1.8581965487315507e+01 
1419 1420 2 1.0280000020848101e+00 -1.7457011321269829e+03 1.0000000000000000e+00 1.0972655251296882e+01 1.4000973889799468e+01 1.9080796397071794e+01 
1418 1419 2 1.0279999984238883e+00 -1.7456944759828789e+03 1.0000000000000000e+00 1.5201808904226247e+01 1.3644821543897967e+01 1.8925914207601270e+01 
1253 1254 2 1.0280000011910166e+00 3.4564833087810177e+02 1.0000000000000000e+00 1.6821987284336746e+01 1.3499703571732768e+01 1.8453302844578758e+01 
192 193 2 1.0280000008798824e+00 3.4557434445574864e+02 1.0000000000000000e+00 9.5381165605253830e+00 1.5950997513594936e+01 1.8701841584149779e+01 
356 357 2 1.0280000006189798e+00 -1.0624631802923874e+02 1.0000000000000000e+00 8.8870156796931337e+00 1.6191039755860210e+01 1.9991894925778219e+01 
51 52 2 1.0279999992055509e+00 -1.7457355029315959e+03 1.0000000000000000e+00 1.1147217661904801e+01 1.5898098083442383e+01 1.9074805614894792e+01 
50 51 2 1.0280000007369188e+00 -1.7457971925969405e+03 1.0000000000000000e+00 1.5164902110673715e+01 1.5564042008299046e+01 1.8892716194996211e+01 
189 190 2 1.0279999997795040e+00 3.4561064906637057e+02 1.0000000000000000e+00 1.6758640610533011e+01 1.5391792261751261e+01 1.8510601992888091e+01 
353 354 2 1.0279999985143042e+00 -1.0619069485569148e+02 1.0000000000000000e+00 1.7589499489065659e+01 1.5359223205871467e+01 1.9741949263948044e+01 
360 361 2 1.0280000001306411e+00 -5.7033884472882301e+02 1.0000000000000000e+00 1.2253239816424253e+01 1.6984510602437908e+01 1.9100971568825866e+01 
357 358 2 1.0280000006465011e+00 -5.7038443840632476e+02 1.0000000000000000e+00 1.4172963948384547e+01 1.6784060206885457e+01 1.8985036880646806e+01 
127 128 2 1.0279999996061908e+00 -3.1855800783859866e+02 1.0000000000000000e+00 6.4926474189837524e-01 1.9815111051116471e+01 1.9272415574180343e+01 
172 173 2 1.0279999997842098e+00 3.9933553052833315e+02 1.0000000000000000e+00 1.3825074768642056e+01 1.9660431604274759e+01 1.9301451435069509e+01 
169 170 2 1.0279999999658833e+00 3.9837305400182026e+02 1.0000000000000000e+00 1.5187362686471204e+01 1.9138124523562656e+01 1.9811739064848108e+01 
308 309 2 1.0279999954001076e+00 1.8230398898727494e+03 1.0000000000000000e+00 1.7460010524707798e+01 1.9981670087616340e+01 1.9034763628213870e+01 
460 461 2 1.0280000143027472e+00 3.7521989535025391e+01 1.0000000000000000e+00 1.0574857390644729e+01 1.8484289124656588e+00 2.1013540058166672e+01 
738 739 2 1.0280000078395457e+00 -1.7282897572932161e+03 1.0000000000000000e+00 1.6566300181196770e+01 2.9822074500465972e+00 2.1122962145704289e+01 
248 249 2 1.0279999954926680e+00 2.0002373163161261e+02 1.0000000000000000e+00 1.0490486213417585e+01 3.6891247973200514e+00 2.0940007494622659e+01 
690 691 2 1.0279999977517749e+00 -6.0674010415027988e+02 1.0000000000000000e+00 1.2148981603534017e+01 4.3275445360266440e+00 2.0349659189644129e+01 
913 914 2 1.0279999969011639e+00 3.4946241420173820e+01 1.0000000000000000e+00 1.4246580714072426e+01 4.8139174162961957e+00 2.0030814939717203e+01 
890 891 2 1.0280000034054075e+00 -1.7280243015491878e+03 1.0000000000000000e+00 1.6267747727484185e+01 4.2766352918922861e+00 2.1283478256559793e+01 
1312 1313 2 1.0280000003947973e+00 1.9902107021109936e+02 1.0000000000000000e+00 1.0195980194606754e+01 5.8630497816833689e+00 2.0634343309069770e+01 
768 769 2 1.0280000119033872e+00 9.3380559336075333e+00 1.0000000000000000e+00 1.2448917150504599e+01 5.8650402996427315e+00 2.1270749970607469e+01 
765 766 2 1.0280000139637018e+00 1.4019167022048375e+01 1.0000000000000000e+00 1.4582668400777008e+01 5.7871878113798036e+00 2.1022300600841334e+01 
1108 1109 2 1.0279999860646079e+00 -3.3787928954489104e+02 1.0000000000000000e+00 1.6360027260941493e+01 6.4798908321810105e+00 2.1007862887080648e+01 
747 748 2 1.0280000804112164e+00 -7.4319075431360261e+02 1.0000000000000000e+00 1.8266249105832099e+01 6.0321666457308387e+00 2.0140610824570700e+01 
1228 1229 2 1.0279999994887534e+00 -6.0969346945637290e+02 1.0000000000000000e+00 8.4186335391417551e+00 7.7029433862688954e+00 2.0388051831132938e+01 
1200 1201 2 1.0280000176335122e+00 4.2376656723382507e+02 1.0000000000000000e+00 1.0194463459466251e+01 7.5655262284631792e+00 2.1306334185874359e+01 
1197 1198 2 1.0280000032162304e+00 4.2423374159422002e+02 1.0000000000000000e+00 1.2255236945577719e+01 7.4229561620875817e+00 2.1042780845469611e+01 
822 823 2 1.0280000289529283e+00 -6.3179533705837355e+02 1.0000000000000000e+00 1.6036010467059732e+01 8.2967253936941319e+00 2.1618812782427536e+01 
1128 1129 2 1.0280000140153081e+00 -4.7337375265353842e+02 1.0000000000000000e+00 1.6734340726218292e+01 7.3513814801173103e+00 2.0223053296723261e+01 
1384 1385 2 1.0279999999253520e+00 -4.6168141166105940e+01 1.0000000000000000e+00 8.2366104300566612e+00 8.8096276923248737e+00 2.0799690047647424e+01 
928 929 2 1.0279999945173599e+00 6.4929642687096725e+02 1.0000000000000000e+00 1.0040006437405872e+01 8.8229793897543036e+00 2.0284486541239037e+01 
940 941 2 1.0279999853151893e+00 -2.7636453490346184e+02 1.0000000000000000e+00 1.0600044220425598e+01 9.9214041089654721e+00 2.1493246537950338e+01 
1074 1075 2 1.0279999924779744e+00 3.2542043194066457e+02 1.0000000000000000e+00 1.2922120291125749e+01 9.9831300160653349e+00 2.0919688051627212e+01 
1206 1207 2 1.0280000193528371e+00 3.2118814768168670e+02 1.0000000000000000e+00 1.2109921361540790e+01 8.9973907636478039e+00 2.1652506763157774e+01 
796 797 2 1.0280000056677940e+00 9.5587185329034730e+02 1.0000000000000000e+00 1.1144393464968083e+01 1.1463669933962358e+01 2.1218949262281519e+01 
793 794 2 1.0279999999750136e+00 9.5529831999240139e+02 1.0000000000000000e+00 1.3926096666703891e+01 1.1228052987768878e+01 2.1365165736109393e+01 
1073 1074 2 1.0280000016450512e+00 -1.5319851228132989e+03 1.0000000000000000e+00 1.8762127899775013e+01 1.1645081466937164e+01 2.1046219032338403e+01 
964 965 2 1.0279999901536885e+00 1.3230889537584426e+03 1.0000000000000000e+00 1.1873792590109060e+01 1.2586559741263102e+01 2.0336770955398681e+01 
961 962 2 1.0279999994975311e+00 1.3230496393888645e+03 1.0000000000000000e+00 1.3840525523459533e+01 1.2285975525338417e+01 2.0256028432811544e+01 
1414 1415 2 1.0279999964885129e+00 -1.0650028454978287e+03 1.0000000000000000e+00 1.5944527530197551e+01 1.3301131474706683e+01 2.0609229227427225e+01 
809 810 2 1.0280000027754033e+00 7.6096166114056234e+02 1.0000000000000000e+00 1.5509905457321457e+01 1.2331288734778996e+01 2.1647203780317657e+01 
1096 1097 2 1.0279999998258229e+00 -6.6507353298846411e+01 1.0000000000000000e+00 7.5350860789884511e+00 1.4056764948260032e+01 2.0377593433288926e+01 
1116 1117 2 1.0280000005675760e+00 -1.0613543914399278e+02 1.0000000000000000e+00 8.9073713676204012e+00 1.3628836575767510e+01 2.0015617311681051e+01 
1415 1416 2 1.0280000022638434e+00 -1.0651525573146669e+03 1.0000000000000000e+00 1.0348377398268445e+01 1.4085981000281736e+01 2.0845417172279031e+01 
46 47 2 1.0280000038474753e+00 -1.0652784509056410e+03 1.0000000000000000e+00 1.6054116564611547e+01 1.4865199843614258e+01 2.0509929493593042e+01 
333 334 2 1.0280000012346819e+00 -6.6587047171396264e+01 1.0000000000000000e+00 1.8884623201544471e+01 1.4645871518417836e+01 2.0086904780557067e+01 
336 337 2 1.0280000002566505e+00 -6.6537415170569716e+01 1.0000000000000000e+00 7.5246952359751882e+00 1.5655957694797033e+01 2.0361860997299313e+01 
47 48 2 1.0280000003927361e+00 -1.0649655057938653e+03 1.0000000000000000e+00 1.0389472788878242e+01 1.5643690849358414e+01 2.0919196228771572e+01 
508 509 2 1.0279999996323896e+00 1.3230526410793711e+03 1.0000000000000000e+00 1.2331532685960148e+01 1.6938386351732788e+01 2.0650293400872194e+01 
505 506 2 1.0279999990067445e+00 1.3230547326983947e+03 1.0000000000000000e+00 1.4521402291836344e+01 1.6726999481474849e+01 2.0475910953603083e+01 
670 671 2 1.0279999957722914e+00 -6.3261898400920268e+02 1.0000000000000000e+00 1.8784091771507679e+01 1.7950524273721083e+01 2.1267869235992666e+01 
1396 1397 2 1.0279999997201166e+00 3.7475385516204528e+02 1.0000000000000000e+00 1.0927357597148356e+01 1.9741703592420354e+01 2.0025900367410127e+01 
315 316 2 1.0280000006943855e+00 3.2635420565860352e+02 1.0000000000000000e+00 1.2926722997863354e+01 1.9140207689316441e+01 2.0180656291369974e+01 
472 473 2 1.0279999999043736e+00 6.5164052158448408e+02 1.0000000000000000e+00 1.2819562344869308e+01 1.9946733217870818e+01 2.1562719451126267e+01 
314 315 2 1.0279999987126371e+00 3.2824771555343813e+02 1.0000000000000000e+00 1.5560830375256909e+01 1.8858801209548364e+01 2.1090859754016027e+01 
906 907 2 1.0280000194884025e+00 -9.4573905508333007e+02 1.0000000000000000e+00 7.4389926904554819e+00 8.4202265219068251e-01 2.2714513614305773e+01 
616 617 2 1.0279999817421630e+00 1.3632071246930220e+01 1.0000000000000000e+00 1.0777570576686244e+01 9.6575203050763059e-01 2.1855632207451865e+01 
283 284 2 1.0280000132738312e+00 -1.3663257061765418e+02 1.0000000000000000e+00 1.0691915333183470e+01 2.4255743561992014e+00 2.2929455185279760e+01 
247 248 2 1.0280000008880459e+00 -3.5208461059882364e+02 1.0000000000000000e+00 9.8930914097185028e+00 3.7870187015650019e+00 2.2351361500004472e+01 
1346 1347 2 1.0279999907816098e+00 -1.3653962441053483e+02 1.0000000000000000e+00 1.3561394553213685e+01 4.4170265841566234e+00 2.1939007602804633e+01 
1190 1191 2 1.0280000088269845e+00 5.9444997216591709e+01 1.0000000000000000e+00 1.4750344847437431e+01 4.2547200766429292e+00 2.2267683450425022e+01 
1311 1312 2 1.0279999975416223e+00 -3.4941245244186490e+02 1.0000000000000000e+00 1.0213195633908144e+01 5.4508935157451175e+00 2.1964568099378418e+01 
1061 1062 2 1.0280000034539729e+00 3.8364040279867893e+01 1.0000000000000000e+00 1.3643510137042529e+01 6.4454382307482350e+00 2.2598580253710676e+01 
908 909 2 1.0279999959516135e+00 4.6958801421479750e+00 1.0000000000000000e+00 1.1644506698289254e+01 6.9441820831912802e+00 2.2707453789595320e+01 
905 906 2 1.0279999982811188e+00 9.7439298753843016e+00 1.0000000000000000e+00 1.4116003583074303e+01 7.2718814915639358e+00 2.1716652671646774e+01 
1207 1208 2 1.0280000108454728e+00 3.2588355971871374e+02 1.0000000000000000e+00 1.0493979300423037e+01 8.6296488497254789e+00 2.2473980400708911e+01 
925 926 2 1.0280000027437930e+00 6.5246213469934344e+02 1.0000000000000000e+00 1.5250568164150677e+01 8.6433371862618404e+00 2.3221194043393631e+01 
821 822 2 1.0279999879126562e+00 8.9031770427511526e+02 1.0000000000000000e+00 1.6827759129997986e+01 8.6108082783623789e+00 2.2635931651101082e+01 
1258 1259 2 1.0280000010392047e+00 -5.1739246490081553e+02 1.0000000000000000e+00 1.9340380153141520e+01 9.7781715066869292e+00 2.2596813346759685e+01 
811 812 2 1.0280000077183795e+00 -5.0700399525860627e+02 1.0000000000000000e+00 1.0312963841324834e+01 1.1663310339615030e+01 2.3269179625566910e+01 
1223 1224 2 1.0279999942950389e+00 -7.8291177068973957e+02 1.0000000000000000e+00 1.1688634707472332e+01 1.0908385024934688e+01 2.2647601092124042e+01 
1222 1223 2 1.0280000012978414e+00 -7.8532053000037206e+02 1.0000000000000000e+00 1.3456358747846844e+01 1.0752937554516564e+01 2.2827698005287584e+01 
810 811 2 1.0279999881738524e+00 -5.0694871171664431e+02 1.0000000000000000e+00 1.5461764411294292e+01 1.1295074553597861e+01 2.3008811622925922e+01 
1109 1110 2 1.0279999989819275e+00 -3.4841330128113822e+02 1.0000000000000000e+00 1.8346802257286729e+01 1.0240720450817443e+01 2.1729832294425027e+01 
1257 1258 2 1.0279999995428519e+00 3.1081331173827249e+02 1.0000000000000000e+00 1.9755661892577969e+01 1.1310224802297627e+01 2.2254506796590700e+01 
1260 1261 2 1.0280000017891247e+00 3.1159157811512608e+02 1.0000000000000000e+00 6.5775960839888246e+00 1.2935212325763700e+01 2.2967623700758956e+01 
1076 1077 2 1.0279999990563662e+00 -1.5319645201944272e+03 1.0000000000000000e+00 7.5655118875703140e+00 1.3011713291812741e+01 2.1685184438252538e+01 
1112 1113 2 1.0280000007835297e+00 -3.4830287609249206e+02 1.0000000000000000e+00 8.1307121503498845e+00 1.1762968517548767e+01 2.2536256966187398e+01 
812 813 2 1.0280000027917811e+00 7.6094114071106139e+02 1.0000000000000000e+00 1.0506437517364342e+01 1.2964706509171794e+01 2.1924654160180641e+01 
1237 1238 2 1.0279999958913524e+00 4.4533620372579030e+01 1.0000000000000000e+00 1.6648000969321942e+01 1.2744793483864902e+01 2.2796090378270677e+01 
1413 1414 2 1.0279999977259389e+00 1.6004329197078819e+03 1.0000000000000000e+00 1.8383416369431735e+01 1.2120194496319369e+01 2.2594715479213267e+01 
1416 1417 2 1.0279999988266968e+00 1.6005398421544678e+03 1.0000000000000000e+00 7.8977808956334217e+00 1.3580028270666476e+01 2.3305673371005557e+01 
1240 1241 2 1.0280000089335939e+00 4.4621901660704516e+01 1.0000000000000000e+00 9.9482428209032605e+00 1.3569986168174680e+01 2.3279446682553345e+01 
173 174 2 1.0279999966218034e+00 4.4602662531351370e+01 1.0000000000000000e+00 1.6565181455524144e+01 1.4697969834639668e+01 2.2994637899225140e+01 
313 314 2 1.0279999978261545e+00 -1.5319360578145975e+03 1.0000000000000000e+00 1.9110552512054074e+01 1.4946969734700469e+01 2.1708117317480536e+01 
45 46 2 1.0280000028886256e+00 1.6006590029534100e+03 1.0000000000000000e+00 1.8515300955069183e+01 1.4618911533691659e+01 2.3144563409357197e+01 
196 197 2 1.0279999960632864e+00 3.1154656006827349e+02 1.0000000000000000e+00 6.3288488842421478e+00 1.6045645642254414e+01 2.3332772527732352e+01 
316 317 2 1.0280000043817910e+00 -1.5319925128075311e+03 1.0000000000000000e+00 7.3703692906590472e+00 1.6160514661373966e+01 2.1911759456938995e+01 
660 661 2 1.0279999994305760e+00 7.6097077080880138e+02 1.0000000000000000e+00 1.0616362834982096e+01 1.6530748398333561e+01 2.2043294344843655e+01 
657 658 2 1.0279999977279866e+00 7.6093445513399456e+02 1.0000000000000000e+00 1.6008828680639475e+01 1.5764726381580239e+01 2.1696965506915515e+01 
658 659 2 1.0280000055723544e+00 -5.0626345522192742e+02 1.0000000000000000e+00 1.6212548871365218e+01 1.6525374900856658e+01 2.3033801736569757e+01 
349 350 2 1.0280000018727780e+00 -3.4840990473725651e+02 1.0000000000000000e+00 1.8492102924060379e+01 1.6135796805193209e+01 2.2388454662640918e+01 
352 353 2 1.0279999963523434e+00 -3.4830024564553378e+02 1.0000000000000000e+00 7.8716923271709733e+00 1.7164961862280816e+01 2.2892913319032406e+01 
644 645 2 1.0280000000285909e+00 9.5491415876273049e+02 1.0000000000000000e+00 1.2261627203522213e+01 1.7568400969686291e+01 2.1859704984245198e+01 
641 642 2 1.0280000012762702e+00 9.5529883356311484e+02 1.0000000000000000e+00 1.4672748426712594e+01 1.7411995137599089e+01 2.1687088101634050e+01 
481 482 2 1.0279999940403339e+00 -2.8470716495221052e+02 1.0000000000000000e+00 1.6986842750561067e+01 1.7732181451360329e+01 2.1874294356442352e+01 
669 670 2 1.0280000036158345e+00 8.9035505062892162e+02 1.0000000000000000e+00 1.9376097903155728e+01 1.7617453289082889e+01 2.2370573406395792e+01 
484 485 2 1.0280000004486574e+00 -2.8295665206991771e+02 1.0000000000000000e+00 1.3519327624390506e+01 1.8788630193214306e+01 2.2058887463418642e+01 
446 447 2 1.0280000005371337e+00 3.2226279882515882e+02 1.0000000000000000e+00 1.5983562541034326e+01 1.8985998380339154e+01 2.2788035864549112e+01 
469 470 2 1.0280000096250836e+00 6.5272765301485651e+02 1.0000000000000000e+00 1.7529474754101734e+01 1.8967124169611182e+01 2.1921957898857869e+01 
1209 1210 2 1.0279999799340873e+00 -1.0866858181425600e+03 1.0000000000000000e+00 7.2670003161849754e+00 7.8636006176731177e-01 2.3871212313028483e+01 
1041 1042 2 1.0280000003913763e+00 -1.7959339217384979e+02 1.0000000000000000e+00 1.1375758666243414e+01 6.9536999922951248e-01 2.3757029394691273e+01 
1494 1495 2 1.0279999983060040e+00 -3.1710272675015369e+02 1.0000000000000000e+00 1.0446056219505198e+01 6.2550421709170956e-01 2.4993004224277193e+01 
431 432 2 1.0279999913665780e+00 5.8940463978202615e+01 1.0000000000000000e+00 9.3968588355305016e+00 2.3808518109325161e+00 2.3461189603582731e+01 