LAMMPS data file via write_data, version 30 Jul 2016, timestep = 50000000

1520 atoms
8 atom types

0.0000000000000000e+00 4.0000000000000000e+01 xlo xhi
0.0000000000000000e+00 4.0000000000000000e+01 ylo yhi
0.0000000000000000e+00 1.0000000000000000e+02 zlo zhi

Masses

1 3.896
2 5.36
3 20.064
4 8.378
5 8.378
6 8.378
7 8.378
8 8.378

Atoms # meso-molecular

1337 1338 2 1.0280000069057016e+00 2.7648863169009428e+02 1.0000000000000000e+00 6.9955082289003450e+00 3.4300900988375016e-01 4.3981419223459145e-01 
1338 1339 2 1.0280000008314327e+00 -4.9789078274961042e+02 1.0000000000000000e+00 8.3388073241857565e+00 6.1125376130634812e-01 5.1402736161516216e-01 
630 631 2 1.0280000093601920e+00 -1.7245462967424776e+03 1.0000000000000000e+00 3.7389910995759110e+00 2.2256878384758823e+00 1.0894777498492898e+00 
273 274 2 1.0279999974104761e+00 2.7598695239972153e+02 1.0000000000000000e+00 6.9431771636509083e+00 2.3758636428678304e+00 5.0349686745386324e-01 
274 275 2 1.0279999985998056e+00 -4.9808375789008505e+02 1.0000000000000000e+00 8.2847008034893577e+00 2.1360805937521636e+00 6.7039698914575030e-01 
1090 1091 2 1.0280000142229146e+00 5.8293211314032916e+01 1.0000000000000000e+00 2.5309117571878064e+00 4.6448310085252853e+00 1.3499901443495508e+00 
782 783 2 1.0280000145114760e+00 -1.7248224223343611e+03 1.0000000000000000e+00 3.5608653381877260e+00 3.6016822487363309e+00 7.7940876808498416e-01 
174 175 2 1.0280000213960441e+00 -1.3899590954501630e+02 1.0000000000000000e+00 1.3502053188189014e+00 1.8772267574696970e+00 2.6855525481249889e+00 
330 331 2 1.0279999632445516e+00 5.8021733585939899e+01 1.0000000000000000e+00 2.3932477027609638e+00 1.7092875180188851e+00 1.9561986088083743e+00 
1184 1185 2 1.0280000162308667e+00 6.5640453900368834e+02 1.0000000000000000e+00 3.8382732380404669e+00 2.8647346173781107e+00 2.9801916923916734e+00 
678 679 2 1.0279999925003978e+00 -6.0552739735559555e+02 1.0000000000000000e+00 1.0335227501204816e+00 3.6511536529447670e+00 2.9960207098303395e+00 
1500 1501 2 1.0279999788425025e+00 2.7060811387652366e+03 1.0000000000000000e+00 3.8620217204054175e+00 4.0315120118697578e+00 2.6371223889244146e+00 
1238 1239 2 1.0279999960728832e+00 -1.3927238634655464e+02 1.0000000000000000e+00 1.6037354870407019e+00 5.1583491665683043e+00 2.2316118454386258e+00 
210 211 2 1.0280000000000000e+00 -3.6069778065669516e+02 1.0000000000000000e+00 1.0571610597259665e+01 1.8320288928482899e+01 1.8436658968215838e+00 
209 210 2 1.0280000000000000e+00 2.0070007105408880e+02 1.0000000000000000e+00 1.0036722124369762e+01 1.7890273883107298e+01 2.7581900352558120e+00 
674 675 2 1.0279999860533819e+00 -4.7676219262465600e+02 1.0000000000000000e+00 2.0019947995978926e+00 2.8361863613739330e-01 4.1495324702658554e+00 
1022 1023 2 1.0280000031144609e+00 3.0600833774171925e+01 1.0000000000000000e+00 5.2817522870189020e+00 2.4615433686395498e+00 4.3307563459078864e+00 
1174 1175 2 1.0279999929907668e+00 -4.4443845815838250e+02 1.0000000000000000e+00 5.7164193097015099e+00 3.2870066629286439e+00 3.6347181891093410e+00 
830 831 2 1.0280000301319807e+00 -6.0546577089528057e+02 1.0000000000000000e+00 9.5196908182922158e-01 5.8095973268322645e+00 3.6340204066886090e+00 
369 370 2 1.0279999834922307e+00 -1.5803733037787498e+02 1.0000000000000000e+00 4.2080572586921305e-01 6.0021750699721883e+00 5.2712987638195044e+00 
590 591 2 1.0280000000000000e+00 -6.4962604767473567e+02 1.0000000000000000e+00 1.4493616644939145e+01 6.3491491677801433e+00 7.7349069127119039e+00 
746 747 2 1.0280000000000000e+00 -7.4188040454436918e+02 1.0000000000000000e+00 1.4684762522124707e+01 7.4653450389270679e+00 7.5769732293879812e+00 
757 758 2 1.0280000000000000e+00 3.7683743475860098e+02 1.0000000000000000e+00 1.7460006636283687e+01 9.4427618055447660e+00 7.8259940515738720e+00 
760 761 2 1.0280000000000000e+00 3.7631344280628866e+02 1.0000000000000000e+00 1.8588405277969258e+01 9.3410470683904769e+00 7.6719043531948694e+00 
474 475 2 1.0280000000000000e+00 -6.4985989702091661e+02 1.0000000000000000e+00 1.9483121402835039e+01 1.4600223609772573e+01 9.8749363082749539e+00 
918 919 2 1.0279969267945743e+00 -3.3769817184429670e+01 1.0000000000000000e+00 1.8254670006159099e+01 2.3434430900212977e+00 1.4216206087231871e+01 
914 915 2 1.0280030699470477e+00 6.2127563330819521e+02 1.0000000000000000e+00 1.7692328217509502e+01 3.3352929592608018e+00 1.4302181118484222e+01 
225 226 2 1.0280000000000000e+00 1.7042540484600784e+02 1.0000000000000000e+00 1.6033065498352833e+01 1.8213223709780191e+01 1.4916984844921773e+01 
226 227 2 1.0280000000000000e+00 -3.4125138698553428e+02 1.0000000000000000e+00 1.6797274743567716e+01 1.9057026659686471e+01 1.4810430498617640e+01 
627 628 2 1.0280000963881233e+00 -3.7705506202973993e+02 1.0000000000000000e+00 1.4750952735496210e+01 4.8081174869887766e+00 1.5251714279466130e+01 
626 627 2 1.0279999173219392e+00 -3.7715518094670904e+02 1.0000000000000000e+00 1.6029674224967451e+01 4.8152220570253821e+00 1.5281865001600382e+01 
779 780 2 1.0279998973346782e+00 -3.7714587877021160e+02 1.0000000000000000e+00 1.4624150222982600e+01 6.6373192411303217e+00 1.5566789386677179e+01 
778 779 2 1.0280001132187564e+00 -3.7709439451757532e+02 1.0000000000000000e+00 1.6024304871368376e+01 6.6806041184903737e+00 1.5581324429618279e+01 
1087 1088 2 1.0280000003852099e+00 3.6116587708261204e+02 1.0000000000000000e+00 1.0720033283903872e+01 1.4287295254910875e+01 1.5952741529401445e+01 
1086 1087 2 1.0279999993414073e+00 3.6112908692051451e+02 1.0000000000000000e+00 1.2281012144836202e+01 1.4321977982657558e+01 1.6047680229707925e+01 
327 328 2 1.0279999995827858e+00 3.6114529138231205e+02 1.0000000000000000e+00 1.0730934176466121e+01 1.5730675391318991e+01 1.5981065884748288e+01 
326 327 2 1.0280000003761085e+00 3.6113160435096023e+02 1.0000000000000000e+00 1.2305351489407112e+01 1.5703794698197944e+01 1.6032650779441976e+01 
323 324 2 1.0279999108386757e+00 -3.9960933950663588e+01 1.0000000000000000e+00 1.4529208168871135e+01 4.9098214456562888e+00 1.7035409042705130e+01 
322 323 2 1.0280001249209176e+00 -4.0026303055902716e+01 1.0000000000000000e+00 1.6584128758325608e+01 4.9111212920835712e+00 1.6970501390770004e+01 
634 635 2 1.0279999934925104e+00 -6.5599864199154229e+02 1.0000000000000000e+00 1.5540776609283471e+01 4.2257378422884662e+00 1.8203313881862709e+01 
1083 1084 2 1.0280000759205161e+00 -4.0060446304898072e+01 1.0000000000000000e+00 1.4494946945139983e+01 6.2807524055681458e+00 1.7104106823301422e+01 
1082 1083 2 1.0279998702982149e+00 -4.0070530970943594e+01 1.0000000000000000e+00 1.6455446598322123e+01 6.2780491533063936e+00 1.7042457392148943e+01 
733 734 2 1.0279999941620404e+00 1.6543614884388992e+03 1.0000000000000000e+00 1.9289304148281268e+01 6.7789691350263306e+00 1.6846029558009008e+01 
633 634 2 1.0280000060208248e+00 1.6543623512174293e+03 1.0000000000000000e+00 1.9324445356817215e+01 6.8481689273849149e+00 1.8129936816631357e+01 
874 875 2 1.0279999999263914e+00 -4.9646408885304095e+02 1.0000000000000000e+00 1.2404565026715458e+01 1.1230634842796420e+01 1.8310344875902651e+01 
858 859 2 1.0279999999889102e+00 -4.4573389508128741e+02 1.0000000000000000e+00 1.2622233873022449e+01 1.2236059001087382e+01 1.7334494820431278e+01 
1255 1256 2 1.0279999992097510e+00 -4.4456961930351804e+02 1.0000000000000000e+00 1.0537063978311197e+01 1.4294735690020005e+01 1.7755536743633517e+01 
1244 1245 2 1.0280000022152933e+00 -6.9828108192201654e+01 1.0000000000000000e+00 1.2277404769176712e+01 1.4208646159767323e+01 1.8071871551710924e+01 
1241 1242 2 1.0279999995532267e+00 -6.9924108376384083e+01 1.0000000000000000e+00 1.3838364996071364e+01 1.4071013280581296e+01 1.8008552583239073e+01 
1254 1255 2 1.0280000002218161e+00 -4.4473239165834957e+02 1.0000000000000000e+00 1.5790808474220851e+01 1.4124783581044980e+01 1.7742761768975974e+01 
214 215 2 1.0279999905422845e+00 -3.6189726203287751e+02 1.0000000000000000e+00 1.7789688425201419e+01 1.4831834405865557e+01 1.6783227749045970e+01 
191 192 2 1.0280000003472689e+00 -4.4471913165074170e+02 1.0000000000000000e+00 1.0506956665659354e+01 1.5783175646315534e+01 1.7768612084365120e+01 
180 181 2 1.0279999995196032e+00 -7.0159778995077460e+01 1.0000000000000000e+00 1.2355685575845113e+01 1.6022100450616417e+01 1.7975023228956758e+01 
177 178 2 1.0280000008657681e+00 -7.0206402267574475e+01 1.0000000000000000e+00 1.3991729630793168e+01 1.5996230506881680e+01 1.7927793590457000e+01 
190 191 2 1.0280000000389247e+00 -4.4478846743472138e+02 1.0000000000000000e+00 1.5827078741676742e+01 1.5544209069881454e+01 1.7675881559670920e+01 
213 214 2 1.0280000093345099e+00 1.8182767685964427e+02 1.0000000000000000e+00 1.8075368396043171e+01 1.5416397145012247e+01 1.7725573946602921e+01 
512 513 2 1.0280000008842007e+00 1.0272322250055690e+03 1.0000000000000000e+00 1.2627467319061408e+01 1.7725661176851951e+01 1.7873032481085762e+01 
509 510 2 1.0279999991407469e+00 1.0272511494203864e+03 1.0000000000000000e+00 1.3879845914837791e+01 1.7712668621483544e+01 1.7830648329731972e+01 
170 171 2 1.0280000173248005e+00 -5.7165537125673791e+02 1.0000000000000000e+00 1.1261551716638181e+01 3.2390942410473595e+00 1.9945368021602810e+01 
1103 1104 2 1.0280000274555228e+00 1.8497036354054026e+02 1.0000000000000000e+00 1.9847483924626513e+01 2.7372155483121063e+00 1.9668105570104963e+01 
482 483 2 1.0280000448773461e+00 -7.1184904542890467e+02 1.0000000000000000e+00 1.5844406351183256e+01 3.6444050021788508e+00 1.9484534219055686e+01 
457 458 2 1.0279999111850828e+00 3.5485494382195185e+01 1.0000000000000000e+00 1.7633984054889225e+01 4.0781748466111383e+00 1.8447314366944923e+01 
613 614 2 1.0280000811615821e+00 9.1867388362860698e+00 1.0000000000000000e+00 1.7791433302635198e+01 3.5174541816105793e+00 1.9569431324136950e+01 
753 754 2 1.0279999863190434e+00 5.4963928681639036e+00 1.0000000000000000e+00 1.9173499995854357e+01 4.6614600418868939e+00 1.9553520684147305e+01 
756 757 2 1.0280000392426361e+00 1.2481618312542460e+01 1.0000000000000000e+00 1.6571391775603701e+01 5.3609500762353974e+00 1.9330274765350900e+01 
608 609 2 1.0279999346629491e+00 3.9292042570599534e+01 1.0000000000000000e+00 1.7528134819846642e+01 6.0766413681703959e+00 1.9833254374938949e+01 
185 186 2 1.0280000000000002e+00 3.6311766937259711e+02 1.0000000000000000e+00 1.8255860371805435e-01 7.8305343517704786e+00 1.9205480716609859e+01 
968 969 2 1.0279999996246698e+00 1.0289738728496955e+03 1.0000000000000000e+00 1.1876305460014690e+01 1.2587637176682374e+01 1.8856119845035177e+01 
965 966 2 1.0279999999582559e+00 1.0279743902044816e+03 1.0000000000000000e+00 1.3702346606630822e+01 1.2552564644368550e+01 1.8546595262994757e+01 
1227 1228 2 1.0280000010597399e+00 2.0146876390237981e+02 1.0000000000000000e+00 1.0317052623694108e+01 1.4022339746954925e+01 1.9360336909855036e+01 
1436 1437 2 1.0279999950289282e+00 1.6059761771960343e+03 1.0000000000000000e+00 1.1964932099383622e+01 1.4038671171408414e+01 1.9742405861416021e+01 
1433 1434 2 1.0279999995618569e+00 1.6059528632154602e+03 1.0000000000000000e+00 1.4114514709409784e+01 1.3754238303506840e+01 1.9625107027930849e+01 
1226 1227 2 1.0279999986097401e+00 2.0149998815331404e+02 1.0000000000000000e+00 1.5852136239900716e+01 1.3690294889582676e+01 1.9199520947736438e+01 
163 164 2 1.0279999995430213e+00 2.0149955012098403e+02 1.0000000000000000e+00 1.0570042430324111e+01 1.6000681423128899e+01 1.9337964068262462e+01 
68 69 2 1.0279999999389837e+00 1.6058446680502548e+03 1.0000000000000000e+00 1.2133249047969585e+01 1.6117534854287396e+01 1.9609762675411883e+01 
65 66 2 1.0279999991244362e+00 1.6058121361713520e+03 1.0000000000000000e+00 1.4062512269754377e+01 1.5963752609638989e+01 1.9474285465840619e+01 
162 163 2 1.0279999999531402e+00 2.0141408476212439e+02 1.0000000000000000e+00 1.5697440526684629e+01 1.5741354158258410e+01 1.9197022158308904e+01 
478 479 2 1.0279999796993331e+00 -5.6995158725275451e+02 1.0000000000000000e+00 1.0899307346838697e+01 3.0353089582898791e+00 2.1314436754901230e+01 
951 952 2 1.0279999747444417e+00 -9.9283890039419646e+01 1.0000000000000000e+00 1.9694436051871332e+01 3.2579489086018651e+00 2.0727133808069130e+01 
691 692 2 1.0280000223339736e+00 -6.0644619381336906e+02 1.0000000000000000e+00 1.0618016949951750e+01 4.6244480719086116e+00 2.1575750455789631e+01 
843 844 2 1.0279999952718324e+00 -6.0616119996859311e+02 1.0000000000000000e+00 1.2000191005356291e+01 4.4941556760839667e+00 2.0122505243764092e+01 
842 843 2 1.0280000404877208e+00 -6.0639220973838451e+02 1.0000000000000000e+00 1.3239325841709269e+01 4.1056648679310577e+00 2.0872983929857355e+01 
282 283 2 1.0280001249960935e+00 -1.3706095530489830e+02 1.0000000000000000e+00 1.5029837391840880e+01 3.6136407985023111e+00 2.0857639823901593e+01 
605 606 2 1.0280000531845099e+00 3.9532241374474665e+01 1.0000000000000000e+00 1.9070746098995180e+01 5.7943089219287263e+00 2.0338446971151303e+01 
1081 1082 2 1.0279999813181691e+00 4.2520773272433763e+02 1.0000000000000000e+00 1.2080371160237990e+01 8.1359731139324492e+00 2.1567675824400666e+01 
1236 1237 2 1.0280000073531785e+00 3.9949684298323797e+02 1.0000000000000000e+00 1.0615547506372378e+01 9.0735840308280995e+00 2.0168925075887852e+01 
1233 1234 2 1.0280000120669961e+00 3.9960915526400606e+02 1.0000000000000000e+00 1.2263920351370979e+01 9.7048461799150729e+00 2.1417980685890537e+01 
1225 1226 2 1.0279999905652639e+00 -6.0986566590043662e+02 1.0000000000000000e+00 1.3647726512472946e+01 8.8923018320178624e+00 2.0700175007427124e+01 
1075 1076 2 1.0279999929527099e+00 3.3432111249483404e+02 1.0000000000000000e+00 1.0352714099183348e+01 1.0108332504551695e+01 2.0620034715506399e+01 
1381 1382 2 1.0280000034621035e+00 -4.6574994908943729e+01 1.0000000000000000e+00 1.3840176005552877e+01 1.0121888515053563e+01 2.0964644455331978e+01 
1120 1121 2 1.0280000086011283e+00 -5.7029193114331554e+02 1.0000000000000000e+00 1.1982864519415118e+01 1.2658798632081101e+01 2.0977438684687229e+01 
1117 1118 2 1.0280000010289383e+00 -5.7032390134247180e+02 1.0000000000000000e+00 1.4015731105727232e+01 1.2462058772306333e+01 2.0883772077415415e+01 
1256 1257 2 1.0279999991795303e+00 3.4566276343076777e+02 1.0000000000000000e+00 9.3368632576364359e+00 1.4025351733665495e+01 2.0586649655319174e+01 
1419 1420 2 1.0280000013927806e+00 -1.7457011321269829e+03 1.0000000000000000e+00 1.0946084529539032e+01 1.3964299772639015e+01 2.1085329532350464e+01 
1418 1419 2 1.0279999980456715e+00 -1.7456944759828789e+03 1.0000000000000000e+00 1.5175373938225981e+01 1.3608314483451426e+01 2.0930282422261126e+01 
1253 1254 2 1.0280000011884838e+00 3.4564833087810177e+02 1.0000000000000000e+00 1.6795455740136152e+01 1.3463251046974200e+01 2.0457730596555251e+01 
192 193 2 1.0279999999148843e+00 3.4557434445574864e+02 1.0000000000000000e+00 9.5112504556912558e+00 1.5914421465246043e+01 2.0706659390212550e+01 
51 52 2 1.0280000004424483e+00 -1.7457355029315959e+03 1.0000000000000000e+00 1.1120325871632906e+01 1.5861500184848612e+01 2.1079542783657825e+01 
50 51 2 1.0280000013705037e+00 -1.7457971925969405e+03 1.0000000000000000e+00 1.5138107179664150e+01 1.5527639455384044e+01 2.0897325068152334e+01 
189 190 2 1.0279999997037241e+00 3.4561064906637057e+02 1.0000000000000000e+00 1.6731780326997281e+01 1.5355369227754993e+01 2.0515149013792463e+01 
360 361 2 1.0279999995532643e+00 -5.7033884472882301e+02 1.0000000000000000e+00 1.2226309102627237e+01 1.6948005319760068e+01 2.1105675757173216e+01 
357 358 2 1.0280000001655432e+00 -5.7038443840632476e+02 1.0000000000000000e+00 1.4146075246175952e+01 1.6747619187158580e+01 2.0989687352384017e+01 
127 128 2 1.0279999989518820e+00 -3.1855800783859866e+02 1.0000000000000000e+00 6.2355940976134516e-01 1.9781501121282421e+01 2.1272663352942512e+01 
172 173 2 1.0279999999136669e+00 3.9933553052833315e+02 1.0000000000000000e+00 1.3797747295821880e+01 1.9624174091395123e+01 2.1306175579871084e+01 
308 309 2 1.0279999948754335e+00 1.8230398898727494e+03 1.0000000000000000e+00 1.7433680911725535e+01 1.9947784866883513e+01 2.1036435035602558e+01 
460 461 2 1.0280000280760715e+00 3.7521989102810458e+01 1.0000000000000000e+00 1.0557601000015342e+01 1.8089447822211302e+00 2.3009338617593290e+01 
738 739 2 1.0280000378688074e+00 -1.7282897574397391e+03 1.0000000000000000e+00 1.6551787854256908e+01 2.9439662854099833e+00 2.3117983060268994e+01 
248 249 2 1.0280000079894867e+00 2.0002373123686996e+02 1.0000000000000000e+00 1.0474269632073421e+01 3.6496323008424651e+00 2.2937161791559458e+01 
690 691 2 1.0280000136502514e+00 -6.0674010471788733e+02 1.0000000000000000e+00 1.2133749966958471e+01 4.2887551609018528e+00 2.2346789704581859e+01 
913 914 2 1.0280000020081801e+00 3.4946239840543093e+01 1.0000000000000000e+00 1.4232464771835106e+01 4.7742477422079572e+00 2.2026701398346859e+01 
430 431 2 1.0279999347227229e+00 5.8746287626295342e+01 1.0000000000000000e+00 1.6237843566820253e+01 3.5572195324684430e+00 2.1699081167082710e+01 
890 891 2 1.0280000102591234e+00 -1.7280243016742984e+03 1.0000000000000000e+00 1.6253170627508158e+01 4.2372784258443552e+00 2.3278852945825470e+01 
591 592 2 1.0279998564010426e+00 -6.5003567200184432e+02 1.0000000000000000e+00 1.8415323142537282e+01 4.8494534355835990e+00 2.1814893919388254e+01 
1312 1313 2 1.0280000084418386e+00 1.9902106869477112e+02 1.0000000000000000e+00 1.0178662078858492e+01 5.8239006594055232e+00 2.2632502920501853e+01 
916 917 2 1.0279999948679956e+00 3.5625874662975427e+01 1.0000000000000000e+00 1.2527515188170458e+01 5.5851533547067289e+00 2.1700808182145067e+01 
768 769 2 1.0280000187331844e+00 9.3380543932542519e+00 1.0000000000000000e+00 1.2432446516908172e+01 5.8262828727796077e+00 2.3268315849755833e+01 
765 766 2 1.0280000437879795e+00 1.4019166157838278e+01 1.0000000000000000e+00 1.4566886030699459e+01 5.7470756985408045e+00 2.3019119479130026e+01 
1108 1109 2 1.0279999742357837e+00 -3.3787929082185940e+02 1.0000000000000000e+00 1.6345928278065024e+01 6.4394454523458471e+00 2.3006204582306367e+01 
747 748 2 1.0280001713104006e+00 -7.4319075775050737e+02 1.0000000000000000e+00 1.8252452815915412e+01 5.9907523036300825e+00 2.2134917519451648e+01 
1228 1229 2 1.0279999969392513e+00 -6.0969346954099899e+02 1.0000000000000000e+00 8.3979563302553881e+00 7.6637501344553369e+00 2.2389527230353671e+01 
1084 1085 2 1.0279999938197417e+00 4.2415696277154757e+02 1.0000000000000000e+00 1.0658238416566666e+01 7.5030947789546909e+00 2.1673604932690697e+01 
1200 1201 2 1.0280000212194675e+00 4.2376656584046788e+02 1.0000000000000000e+00 1.0174468522283471e+01 7.5270850556961673e+00 2.3306709181790612e+01 
1197 1198 2 1.0280000162538268e+00 4.2423373874758840e+02 1.0000000000000000e+00 1.2235966442813430e+01 7.3839752081234371e+00 2.3042741914166712e+01 
1128 1129 2 1.0280000222048842e+00 -4.7337375440406691e+02 1.0000000000000000e+00 1.6720464599512702e+01 7.3105444321503068e+00 2.2222192081396273e+01 
1384 1385 2 1.0280000031480985e+00 -4.6168141184877697e+01 1.0000000000000000e+00 8.2157384198015961e+00 8.7704672819843648e+00 2.2801177757986679e+01 
928 929 2 1.0279999956096046e+00 6.4929642663327377e+02 1.0000000000000000e+00 1.0018835795136146e+01 8.7838122692694274e+00 2.2285755032086797e+01 
1074 1075 2 1.0279999871193115e+00 3.2542043134486755e+02 1.0000000000000000e+00 1.2898830259960739e+01 9.9441811207799642e+00 2.2922033445599485e+01 
796 797 2 1.0280000110396394e+00 9.5587185261999059e+02 1.0000000000000000e+00 1.1119428991192624e+01 1.1426519873666964e+01 2.3222642408427610e+01 
1073 1074 2 1.0280000013475443e+00 -1.5319851228132989e+03 1.0000000000000000e+00 1.8735819170656455e+01 1.1608565299790270e+01 2.3050489631107123e+01 
964 965 2 1.0279999862173781e+00 1.3230889536167824e+03 1.0000000000000000e+00 1.1847925370266701e+01 1.2549766139778036e+01 2.2340946637496440e+01 
961 962 2 1.0279999956972168e+00 1.3230496392069656e+03 1.0000000000000000e+00 1.3815209670899202e+01 1.2248784607217884e+01 2.2260086385756601e+01 
1414 1415 2 1.0279999951846845e+00 -1.0650028454978287e+03 1.0000000000000000e+00 1.5918154036411252e+01 1.3264487605050075e+01 2.2613629047099476e+01 
1113 1114 2 1.0279999986625796e+00 -1.0618133312213710e+02 1.0000000000000000e+00 1.7439164873835608e+01 1.2793066390522617e+01 2.1691905721028196e+01 
1093 1094 2 1.0280000000291982e+00 -6.6516324380411035e+01 1.0000000000000000e+00 1.8826594217790685e+01 1.3046670352994511e+01 2.1987800126340044e+01 
1096 1097 2 1.0280000006418581e+00 -6.6507353310215095e+01 1.0000000000000000e+00 7.5084394072976171e+00 1.4020195102283568e+01 2.2382320057959898e+01 
1116 1117 2 1.0279999997468319e+00 -1.0613543915106894e+02 1.0000000000000000e+00 8.8807743108148607e+00 1.3592194437344839e+01 2.2020357130234672e+01 
1415 1416 2 1.0280000031891188e+00 -1.0651525573146669e+03 1.0000000000000000e+00 1.0321808578014616e+01 1.4049056381698488e+01 2.2849949787303043e+01 
46 47 2 1.0280000063083052e+00 -1.0652784509056410e+03 1.0000000000000000e+00 1.6027425762264397e+01 1.4828776304324437e+01 2.2514317724929768e+01 
333 334 2 1.0280000021501483e+00 -6.6587047191112148e+01 1.0000000000000000e+00 1.8857906978969908e+01 1.4609483940788584e+01 2.2091365353516927e+01 
336 337 2 1.0279999999690848e+00 -6.6537415181938400e+01 1.0000000000000000e+00 7.4978694751686419e+00 1.5619355907674016e+01 2.2366844498979745e+01 
356 357 2 1.0280000004310699e+00 -1.0624631804060742e+02 1.0000000000000000e+00 8.8601666785870012e+00 1.6154375637387155e+01 2.1996749160221597e+01 
47 48 2 1.0280000006555623e+00 -1.0649655057938653e+03 1.0000000000000000e+00 1.0362649226722736e+01 1.5606712845886157e+01 2.2923826169203679e+01 
353 354 2 1.0279999976884056e+00 -1.0619069485569148e+02 1.0000000000000000e+00 1.7562693918327518e+01 1.5322799802897178e+01 2.1746543835233840e+01 
508 509 2 1.0279999992841642e+00 1.3230526410793711e+03 1.0000000000000000e+00 1.2304530831680008e+01 1.6901851813617398e+01 2.2654992165719356e+01 
505 506 2 1.0279999987815565e+00 1.3230547326983947e+03 1.0000000000000000e+00 1.4494394819558959e+01 1.6690604206399712e+01 2.2480564688468874e+01 
670 671 2 1.0279999948845211e+00 -6.3261898400920268e+02 1.0000000000000000e+00 1.8757065262746941e+01 1.7914625771447731e+01 2.3271984057370940e+01 
1396 1397 2 1.0279999995647133e+00 3.7475385516204528e+02 1.0000000000000000e+00 1.0899933384769176e+01 1.9705512294640972e+01 2.2030835761505209e+01 
315 316 2 1.0280000005629493e+00 3.2635420565860352e+02 1.0000000000000000e+00 1.2899437458910748e+01 1.9103914567290676e+01 2.2185422061371092e+01 
169 170 2 1.0279999998115852e+00 3.9837305400182026e+02 1.0000000000000000e+00 1.5160078831099053e+01 1.9101906255319562e+01 2.1816336320499900e+01 
314 315 2 1.0279999991194784e+00 3.2824771555343813e+02 1.0000000000000000e+00 1.5533621756899322e+01 1.8822575626910879e+01 2.3095446503996882e+01 
906 907 2 1.0280000828559321e+00 -9.4573905511046678e+02 1.0000000000000000e+00 7.4255532981044130e+00 7.8135789650652077e-01 2.4696780310399003e+01 
616 617 2 1.0279999644299922e+00 1.3632070065070904e+01 1.0000000000000000e+00 1.0760001047356662e+01 9.2514835037028775e-01 2.3850644036030975e+01 
283 284 2 1.0280000185167280e+00 -1.3663257160545129e+02 1.0000000000000000e+00 1.0674121842774358e+01 2.3853659548864656e+00 2.4924894587311144e+01 
247 248 2 1.0280000046585922e+00 -3.5208461089656225e+02 1.0000000000000000e+00 9.8761971161527935e+00 3.7469845069688019e+00 2.4348300235181505e+01 
1346 1347 2 1.0279999767184977e+00 -1.3653962473802684e+02 1.0000000000000000e+00 1.3546230542581247e+01 4.3780059824007980e+00 2.3935124993612899e+01 
1190 1191 2 1.0280000139522574e+00 5.9444997180645792e+01 1.0000000000000000e+00 1.4735688580705645e+01 4.2158882279914023e+00 2.4263168007926808e+01 
1311 1312 2 1.0279999855538267e+00 -3.4941245268437353e+02 1.0000000000000000e+00 1.0195832782945136e+01 5.4116829536368192e+00 2.3962193186466372e+01 
1061 1062 2 1.0280000114520933e+00 3.8364039676555507e+01 1.0000000000000000e+00 1.3626366727252281e+01 6.4055159130948605e+00 2.4595428054823810e+01 
908 909 2 1.0279999841452077e+00 4.6958792074566142e+00 1.0000000000000000e+00 1.1626027749335391e+01 6.9052393978921733e+00 2.4706095001805433e+01 
905 906 2 1.0279999933762620e+00 9.7439292511193880e+00 1.0000000000000000e+00 1.4099181331086427e+01 7.2315348068779839e+00 2.3713764744281995e+01 
822 823 2 1.0280000624463703e+00 -6.3179533949956499e+02 1.0000000000000000e+00 1.6018893583409071e+01 8.2565401360895425e+00 2.3618216923302406e+01 
940 941 2 1.0279999804901960e+00 -2.7636453598358315e+02 1.0000000000000000e+00 1.0577097679105817e+01 9.8831763049120198e+00 2.3495570955229621e+01 
1207 1208 2 1.0280000153184987e+00 3.2588355837092587e+02 1.0000000000000000e+00 1.0472441313928083e+01 8.5916296673122012e+00 2.4475089270443327e+01 
1206 1207 2 1.0280000345384737e+00 3.2118814640710195e+02 1.0000000000000000e+00 1.2087417843833324e+01 8.9585404482930198e+00 2.3654154217960741e+01 
821 822 2 1.0279999700398652e+00 8.9031770320398891e+02 1.0000000000000000e+00 1.6808648403800252e+01 8.5714008287799377e+00 2.4634581822448851e+01 
1258 1259 2 1.0280000006111925e+00 -5.1739246490081553e+02 1.0000000000000000e+00 1.9313978206014262e+01 9.7416896457961517e+00 2.4601118164876205e+01 
1223 1224 2 1.0279999897696108e+00 -7.8291177100190396e+02 1.0000000000000000e+00 1.1663921431319293e+01 1.0870777666353730e+01 2.4650929570445051e+01 
793 794 2 1.0280000077632279e+00 9.5529831959804358e+02 1.0000000000000000e+00 1.3901616707197778e+01 1.1190444299353615e+01 2.3368657980035017e+01 
1222 1223 2 1.0279999980019312e+00 -7.8532053009132153e+02 1.0000000000000000e+00 1.3431911443865104e+01 1.0715187484426012e+01 2.4830970097871415e+01 
1109 1110 2 1.0279999990038564e+00 -3.4841330136938183e+02 1.0000000000000000e+00 1.8320456320662601e+01 1.0204184357592892e+01 2.3734063536661619e+01 
1257 1258 2 1.0280000002581198e+00 3.1081331173827249e+02 1.0000000000000000e+00 1.9729365472065211e+01 1.1273669836780901e+01 2.4258752143353270e+01 
1260 1261 2 1.0280000029522602e+00 3.1159157811512608e+02 1.0000000000000000e+00 6.5511640499799890e+00 1.2898564227662209e+01 2.4972320585670037e+01 
1076 1077 2 1.0279999974865990e+00 -1.5319645201944272e+03 1.0000000000000000e+00 7.5390227848496059e+00 1.2975038264668985e+01 2.3689756200409146e+01 
1112 1113 2 1.0280000016511077e+00 -3.4830287612261952e+02 1.0000000000000000e+00 8.1044411220434469e+00 1.1726357386649559e+01 2.4540698805790132e+01 
812 813 2 1.0280000009858694e+00 7.6094114054503746e+02 1.0000000000000000e+00 1.0480259630112295e+01 1.2927424685353268e+01 2.3928951123757702e+01 
809 810 2 1.0280000069360196e+00 7.6096166095990043e+02 1.0000000000000000e+00 1.5484011250467859e+01 1.2294251177386725e+01 2.3651190237131047e+01 
1237 1238 2 1.0279999977979879e+00 4.4533620243180273e+01 1.0000000000000000e+00 1.6621877633451259e+01 1.2707993418417297e+01 2.4800212980013356e+01 
1413 1414 2 1.0279999958650161e+00 1.6004329197078819e+03 1.0000000000000000e+00 1.8357136339363919e+01 1.2083662156101871e+01 2.4599005258602496e+01 
173 174 2 1.0279999969342177e+00 4.4602662461402055e+01 1.0000000000000000e+00 1.6538460245879737e+01 1.4661385728306078e+01 2.4999003731307177e+01 
313 314 2 1.0279999963223250e+00 -1.5319360578145975e+03 1.0000000000000000e+00 1.9083687549972378e+01 1.4910951974288006e+01 2.3712476135899522e+01 
316 317 2 1.0280000022464222e+00 -1.5319925128075311e+03 1.0000000000000000e+00 7.3434025669929754e+00 1.6123841302952403e+01 2.3916805469042711e+01 
660 661 2 1.0279999987391852e+00 7.6097077080880138e+02 1.0000000000000000e+00 1.0589454734455762e+01 1.6493814484721668e+01 2.4047985774509186e+01 
657 658 2 1.0279999958060693e+00 7.6093445513399456e+02 1.0000000000000000e+00 1.5981928384577015e+01 1.5728258856118432e+01 2.3701349313973104e+01 
349 350 2 1.0280000029887058e+00 -3.4840990473725651e+02 1.0000000000000000e+00 1.8465213334490297e+01 1.6099923597013667e+01 2.4392761398088908e+01 
352 353 2 1.0279999981631438e+00 -3.4830024564553378e+02 1.0000000000000000e+00 7.8446351598604274e+00 1.7128324833828319e+01 2.4897936056576107e+01 
644 645 2 1.0279999996203140e+00 9.5491415876273049e+02 1.0000000000000000e+00 1.2234591245311545e+01 1.7531876638754412e+01 2.3864404436886819e+01 
641 642 2 1.0280000006596335e+00 9.5529883356311484e+02 1.0000000000000000e+00 1.4645651202521302e+01 1.7375614532431371e+01 2.3691756535644029e+01 
481 482 2 1.0279999940424951e+00 -2.8470716495221052e+02 1.0000000000000000e+00 1.6959700993094334e+01 1.7695934996387152e+01 2.3878688115279846e+01 
669 670 2 1.0280000047331550e+00 8.9035505044702268e+02 1.0000000000000000e+00 1.9349099023833762e+01 1.7581549462468374e+01 2.4374583436869052e+01 
472 473 2 1.0279999995498443e+00 6.5164052158448408e+02 1.0000000000000000e+00 1.2792326825476168e+01 1.9910348046356642e+01 2.3567482004904956e+01 
484 485 2 1.0280000007733017e+00 -2.8295665206991771e+02 1.0000000000000000e+00 1.3492139841949887e+01 1.8752206162296272e+01 2.4063615219310911e+01 
446 447 2 1.0279999999378948e+00 3.2226279882515882e+02 1.0000000000000000e+00 1.5956478320856068e+01 1.8949658693845592e+01 2.4792533275142780e+01 
469 470 2 1.0280000106425515e+00 6.5272765283295757e+02 1.0000000000000000e+00 1.7502166330402275e+01 1.8930806917094845e+01 2.3926218596225034e+01 
1209 1210 2 1.0279999169521323e+00 -1.0866858182075255e+03 1.0000000000000000e+00 7.2533264043132757e+00 7.2601690645134687e-01 2.5853553171320517e+01 
1041 1042 2 1.0279999970190976e+00 -1.7959339436548578e+02 1.0000000000000000e+00 1.1357274507940803e+01 6.5011763291036695e-01 2.5748976304691052e+01 
739 740 2 1.0280000174925454e+00 -1.7276070232425288e+03 1.0000000000000000e+00 8.3231567207051693e+00 3.3261432536861109e+00 2.6100955386952748e+01 
431 432 2 1.0279999865695080e+00 5.8940463835681896e+01 1.0000000000000000e+00 9.3794464237765869e+00 2.3407229061525361e+00 2.5457345841623280e+01 