LAMMPS data file via write_data, version 30 Jul 2016, timestep = 50000000

180 atoms
2 atom types

0.0000000000000000e+00 2.0000000000000000e+01 xlo xhi
0.0000000000000000e+00 2.0000000000000000e+01 ylo yhi
0.0000000000000000e+00 2.0000000000000000e+01 zlo zhi

Masses

1 3.896
2 4.31

Atoms # meso-molecular

150 1 2 1.0279999968339295e+00 -6.3348475033103011e+02 1.0000000000000000e+00 1.2376502437972292e+01 6.0557607842033212e+00 2.6829050518024880e+00 
73 1 2 1.0279999976401828e+00 -4.8520019896015862e+02 1.0000000000000000e+00 1.2887493665410824e+01 6.1783126349021105e+00 2.9766823239626574e+00 
84 1 2 1.0279999973985123e+00 -4.4035828310684303e+02 1.0000000000000000e+00 1.2687123029688053e+01 6.1479950293998114e+00 2.8927657329949050e+00 
115 1 2 1.0279999973271752e+00 -5.4381308865874746e+02 1.0000000000000000e+00 1.2638849014546810e+01 6.1351404416808570e+00 2.8679352530608906e+00 
78 1 2 1.0279999972324141e+00 -4.6369422269472216e+02 1.0000000000000000e+00 1.2579987881601722e+01 6.1208502362604262e+00 2.8332905645538884e+00 
120 1 2 1.0279999970566842e+00 -4.7614515676697488e+02 1.0000000000000000e+00 1.2482926938568337e+01 6.0943822466268411e+00 2.7673768144706012e+00 
109 1 2 1.0279999970494547e+00 -5.5511936625878388e+02 1.0000000000000000e+00 1.2479127999339527e+01 6.0894695087095823e+00 2.7659708467129636e+00 
145 1 2 1.0279999969982838e+00 -6.5162960935367028e+02 1.0000000000000000e+00 1.2453398377876562e+01 6.0810338872505811e+00 2.7466640873322232e+00 
114 1 2 1.0279999969413802e+00 -4.9054303437563817e+02 1.0000000000000000e+00 1.2425865684105155e+01 6.0737018650604950e+00 2.7242798877485255e+00 
40 1 2 3.5189241656666542e-01 -4.1428102397372982e+02 1.0000000000000000e+00 7.3420108215564639e+00 1.4165028710094922e+00 1.0187467253758619e+01 
41 1 2 3.5189241656666542e-01 -4.1070653716830572e+02 1.0000000000000000e+00 7.3420108215564639e+00 1.4165028710094922e+00 1.0187467253758619e+01 
4 1 2 3.5189241656666542e-01 -4.2362310447724565e+02 1.0000000000000000e+00 7.3420108215564639e+00 1.4165028710094922e+00 1.0187467253758623e+01 
5 1 2 3.5189241656666542e-01 -4.5736754389410470e+02 1.0000000000000000e+00 7.3420108215564674e+00 1.4165028710094922e+00 1.0187467253758619e+01 
11 1 2 3.5189241656666542e-01 -3.9918177677307182e+02 1.0000000000000000e+00 7.3420108215564710e+00 1.4165028710094922e+00 1.0187467253758619e+01 
10 1 2 3.5189241656666542e-01 -4.5828862813539280e+02 1.0000000000000000e+00 7.3420108215564781e+00 1.4165028710094922e+00 1.0187467253758623e+01 
46 1 2 3.5189241656666542e-01 -4.3611864469413985e+02 1.0000000000000000e+00 7.3420108215564577e+00 1.4165028710094927e+00 1.0187467253758623e+01 
34 1 2 3.5189241656666542e-01 -4.1625592685325785e+02 1.0000000000000000e+00 7.3420108215564577e+00 1.4165028710094922e+00 1.0187467253758619e+01 
70 1 2 3.5189241656666542e-01 -3.3063017583294908e+02 1.0000000000000000e+00 7.3420108215564577e+00 1.4165028710094922e+00 1.0187467253758619e+01 
9 1 2 3.5189241656666542e-01 -5.4643018471320022e+02 1.0000000000000000e+00 7.3420108215564639e+00 1.4165028710094922e+00 1.0187467253758646e+01 
3 1 2 3.5189241656666542e-01 -4.3236449100059406e+02 1.0000000000000000e+00 7.3420108215564639e+00 1.4165028710094922e+00 1.0187467253758667e+01 
45 1 2 3.5189241656666542e-01 -3.9987941738186828e+02 1.0000000000000000e+00 7.3420108215564577e+00 1.4165028710094925e+00 1.0187467253758618e+01 
39 1 2 3.5189241656666542e-01 -3.3122553546170582e+02 1.0000000000000000e+00 7.3420108215564577e+00 1.4165028710094922e+00 1.0187467253758618e+01 
82 1 2 1.0279999979555514e+00 -4.2093255604366743e+02 1.0000000000000000e+00 1.2938727893056964e+01 4.9517983023151473e+00 1.9565885700003502e+01 
151 1 2 1.0279999979555416e+00 -5.9951618591656074e+02 1.0000000000000000e+00 1.2938729033909237e+01 4.9517967131216283e+00 1.9565886118278314e+01 
75 1 2 1.0279999979555428e+00 -4.0451650551739681e+02 1.0000000000000000e+00 1.2938728771259555e+01 4.9517969864947977e+00 1.9565886054399918e+01 
80 1 2 1.0279999979555503e+00 -5.4797891885668196e+02 1.0000000000000000e+00 1.2938728902420777e+01 4.9517967612643554e+00 1.9565886117392520e+01 
85 1 2 1.0279999979555434e+00 -5.4993562308143191e+02 1.0000000000000000e+00 1.2938728842072946e+01 4.9517966793469492e+00 1.9565886153441134e+01 
116 1 2 1.0279999979555376e+00 -6.2759689494952750e+02 1.0000000000000000e+00 1.2938728903177378e+01 4.9517967853417568e+00 1.9565886108861637e+01 
110 1 2 1.0279999979555563e+00 -6.2034238316236190e+02 1.0000000000000000e+00 1.2938728903922847e+01 4.9517968169987343e+00 1.9565886097675733e+01 
86 1 2 1.0279999979555501e+00 -5.5140861406596605e+02 1.0000000000000000e+00 1.2938728797327741e+01 4.9517966514693947e+00 1.9565886168652440e+01 
87 1 2 1.0279999979555576e+00 -4.8692611039875669e+02 1.0000000000000000e+00 1.2938728766029161e+01 4.9517967278622184e+00 1.9565886145683343e+01 
152 1 2 1.0279999979555405e+00 -7.8449054816813020e+02 1.0000000000000000e+00 1.2938728927962460e+01 4.9517967211615890e+00 1.9565886128342381e+01 
81 1 2 1.0279999979555452e+00 -5.0788939383645550e+02 1.0000000000000000e+00 1.2938728808409635e+01 4.9517968620133930e+00 1.9565886093511995e+01 
74 1 2 1.0279999979555383e+00 -4.7658968254243752e+02 1.0000000000000000e+00 1.2938729019364070e+01 4.9517968497570264e+00 1.9565886072157877e+01 
153 1 2 1.0279999979555419e+00 -6.6636949813697515e+02 1.0000000000000000e+00 1.2938728490943717e+01 4.9517974129315832e+00 1.9565885939022944e+01 
159 1 2 1.0279999979555428e+00 -6.1396758326468125e+02 1.0000000000000000e+00 1.2938728751964012e+01 4.9517967319005578e+00 1.9565886145978045e+01 
165 1 2 1.0279999979555399e+00 -5.9854350832063710e+02 1.0000000000000000e+00 1.2938728726747138e+01 4.9517965182269172e+00 1.9565886223934044e+01 
117 1 2 1.0279999979555501e+00 -5.7741959274451744e+02 1.0000000000000000e+00 1.2938728790870352e+01 4.9517968966834394e+00 1.9565886083493211e+01 
164 1 2 1.0279999979555399e+00 -6.2754826557700710e+02 1.0000000000000000e+00 1.2938728732512836e+01 4.9517964571904933e+00 1.9565886244625499e+01 
129 1 2 1.0279999979555539e+00 -5.2811101942870596e+02 1.0000000000000000e+00 1.2938728721660770e+01 4.9517965146051264e+00 1.9565886225821963e+01 
123 1 2 1.0279999979555481e+00 -5.6320628159111664e+02 1.0000000000000000e+00 1.2938728775836003e+01 4.9517967589093805e+00 1.9565886133609251e+01 
163 1 2 1.0279999979555385e+00 -5.1185290986910297e+02 1.0000000000000000e+00 1.2938728726471176e+01 4.9517964090795878e+00 1.9565886262222367e+01 
147 1 2 1.0279999979555552e+00 -6.9450927662100753e+02 1.0000000000000000e+00 1.2938728868600863e+01 4.9517969079287409e+00 1.9565886070100710e+01 
128 1 2 1.0279999979555421e+00 -5.0617558914964002e+02 1.0000000000000000e+00 1.2938728733385803e+01 4.9517964679318256e+00 1.9565886240754665e+01 
158 1 2 1.0279999979555596e+00 -6.0200992237382945e+02 1.0000000000000000e+00 1.2938728782628313e+01 4.9517965487758344e+00 1.9565886206432584e+01 
111 1 2 1.0279999979555376e+00 -5.9439565962163340e+02 1.0000000000000000e+00 1.2938728841998033e+01 4.9517969074834118e+00 1.9565886073491313e+01 
121 1 2 1.0279999979555476e+00 -5.9733109291988819e+02 1.0000000000000000e+00 1.2938728803907271e+01 4.9517965504547856e+00 1.9565886203256770e+01 
122 1 2 1.0279999979555570e+00 -6.4828382903922841e+02 1.0000000000000000e+00 1.2938728807814883e+01 4.9517966488831275e+00 1.9565886168283807e+01 
157 1 2 1.0279999979555408e+00 -7.0567451532424207e+02 1.0000000000000000e+00 1.2938728852681756e+01 4.9517966075556910e+00 1.9565886177313132e+01 
92 1 2 1.0279999979555394e+00 -4.9336526318519617e+02 1.0000000000000000e+00 1.2938728726713437e+01 4.9517965415381262e+00 1.9565886215767851e+01 
146 1 2 1.0279999979555456e+00 -6.5533340145470891e+02 1.0000000000000000e+00 1.2938728902202529e+01 4.9517968239458954e+00 1.9565886095449958e+01 
62 1 2 9.7447130741538113e-01 -6.3117476218449633e+02 1.0000000000000000e+00 1.1177061501232593e+01 1.4744914954649278e+01 4.5566762474301585e+00 
97 1 2 9.7447130741538113e-01 -5.1870515046675962e+02 1.0000000000000000e+00 1.1177061501232407e+01 1.4744914954649271e+01 4.5566762474301212e+00 
98 1 2 9.7447130741538113e-01 -5.9455372156347050e+02 1.0000000000000000e+00 1.1177061501232535e+01 1.4744914954649271e+01 4.5566762474300075e+00 
26 1 2 9.7447130741538113e-01 -7.2837758221806678e+02 1.0000000000000000e+00 1.1177061501232401e+01 1.4744914954649273e+01 4.5566762474300173e+00 
139 1 2 9.7447130741538113e-01 -6.6978417951125846e+02 1.0000000000000000e+00 1.1177061501232647e+01 1.4744914954649312e+01 4.5566762474300466e+00 
93 1 2 9.7447130741538113e-01 -5.3399274710269083e+02 1.0000000000000000e+00 1.1177061501232512e+01 1.4744914954649285e+01 4.5566762474301568e+00 
134 1 2 9.7447130741538113e-01 -6.6288674454401689e+02 1.0000000000000000e+00 1.1177061501232496e+01 1.4744914954649337e+01 4.5566762474300821e+00 
133 1 2 9.7447130741538113e-01 -5.6902665627136992e+02 1.0000000000000000e+00 1.1177061501232441e+01 1.4744914954649271e+01 4.5566762474300875e+00 
127 1 2 9.7447130741538113e-01 -5.3277631274924204e+02 1.0000000000000000e+00 1.1177061501232501e+01 1.4744914954649401e+01 4.5566762474300733e+00 
140 1 2 9.7447130741538113e-01 -6.8108656655293305e+02 1.0000000000000000e+00 1.1177061501232719e+01 1.4744914954649273e+01 4.5566762474301026e+00 
91 1 2 9.7447130741538113e-01 -3.8239137068991488e+02 1.0000000000000000e+00 1.1177061501232428e+01 1.4744914954649293e+01 4.5566762474300297e+00 
169 1 2 9.7447130741538113e-01 -6.7969322542070461e+02 1.0000000000000000e+00 1.1177061501232457e+01 1.4744914954649351e+01 4.5566762474301452e+00 
175 1 2 9.7447130741538113e-01 -7.1100097751797523e+02 1.0000000000000000e+00 1.1177061501232471e+01 1.4744914954649301e+01 4.5566762474299942e+00 
170 1 2 9.7447130741538113e-01 -7.5915920534376573e+02 1.0000000000000000e+00 1.1177061501232577e+01 1.4744914954649317e+01 4.5566762474300706e+00 
176 1 2 9.7447130741538113e-01 -8.4725000074443165e+02 1.0000000000000000e+00 1.1177061501232640e+01 1.4744914954649284e+01 4.5566762474299924e+00 
68 1 2 9.7447130741538113e-01 -6.0182506820922868e+02 1.0000000000000000e+00 1.1177061501232572e+01 1.4744914954649282e+01 4.5566762474300377e+00 
103 1 2 9.7447130741538113e-01 -5.9456207876613439e+02 1.0000000000000000e+00 1.1177061501232449e+01 1.4744914954649271e+01 4.5566762474301310e+00 
104 1 2 9.7447130741538113e-01 -5.8018649859345749e+02 1.0000000000000000e+00 1.1177061501232545e+01 1.4744914954649317e+01 4.5566762474300502e+00 
61 1 2 9.7447130741538113e-01 -6.0529051827087437e+02 1.0000000000000000e+00 1.1177061501232378e+01 1.4744914954649353e+01 4.5566762474300235e+00 
135 1 2 9.7447130741538113e-01 -6.3768791230919032e+02 1.0000000000000000e+00 1.1177061501232458e+01 1.4744914954649271e+01 4.5566762474300759e+00 
25 1 2 9.7447130741538113e-01 -6.8435266398253816e+02 1.0000000000000000e+00 1.1177061501232567e+01 1.4744914954649371e+01 4.5566762474300573e+00 
32 1 2 9.7447130741538113e-01 -7.1739164487677363e+02 1.0000000000000000e+00 1.1177061501232423e+01 1.4744914954649271e+01 4.5566762474301559e+00 
31 1 2 9.7447130741538113e-01 -6.2444887695036891e+02 1.0000000000000000e+00 1.1177061501232487e+01 1.4744914954649269e+01 4.5566762474301248e+00 
141 1 2 9.7447130741538113e-01 -6.2738398351045237e+02 1.0000000000000000e+00 1.1177061501232481e+01 1.4744914954649275e+01 4.5566762474301186e+00 
67 1 2 9.7447130741538113e-01 -5.5849789080454002e+02 1.0000000000000000e+00 1.1177061501232467e+01 1.4744914954649271e+01 4.5566762474300209e+00 
177 1 2 9.7447130741538113e-01 -6.3559525465568504e+02 1.0000000000000000e+00 1.1177061501232622e+01 1.4744914954649273e+01 4.5566762474301301e+00 
99 1 2 9.7447130741538113e-01 -5.3469262857331057e+02 1.0000000000000000e+00 1.1177061501232584e+01 1.4744914954649277e+01 4.5566762474300608e+00 
105 1 2 9.7447130741538113e-01 -5.4221858133861781e+02 1.0000000000000000e+00 1.1177061501232716e+01 1.4744914954649282e+01 4.5566762474301559e+00 
33 1 2 9.7447130741538113e-01 -6.1620539531172653e+02 1.0000000000000000e+00 1.1177061501232474e+01 1.4744914954649291e+01 4.5566762474300910e+00 
69 1 2 9.7447130741538113e-01 -5.0454690369606874e+02 1.0000000000000000e+00 1.1177061501232762e+01 1.4744914954649280e+01 4.5566762474301026e+00 
27 1 2 9.7447130741538113e-01 -6.2457970740139410e+02 1.0000000000000000e+00 1.1177061501232469e+01 1.4744914954649385e+01 4.5566762474301266e+00 
63 1 2 9.7447130741538113e-01 -5.2467355616859834e+02 1.0000000000000000e+00 1.1177061501232416e+01 1.4744914954649554e+01 4.5566762474300955e+00 
171 1 2 9.7447130741538113e-01 -7.2145999066993966e+02 1.0000000000000000e+00 1.1177061501232425e+01 1.4744914954649269e+01 4.5566762474300821e+00 
100 1 2 9.7447130741538113e-01 -4.5405254232748104e+02 1.0000000000000000e+00 1.1177061501232537e+01 1.4744914954649474e+01 4.5566762474300546e+00 
28 1 2 9.7447130741538113e-01 -5.1351094660602223e+02 1.0000000000000000e+00 1.1177061501232421e+01 1.4744914954649280e+01 4.5566762474299880e+00 
64 1 2 9.7447130741538113e-01 -4.0844310896587558e+02 1.0000000000000000e+00 1.1177061501232544e+01 1.4744914954649275e+01 4.5566762474299862e+00 
36 1 2 1.0279999999981753e+00 -6.4555136333718156e+02 1.0000000000000000e+00 1.1480317306239344e+01 1.2677364002488678e+01 1.4030697303029864e+01 
60 1 2 1.0279999999749039e+00 -5.1786217538611402e+02 1.0000000000000000e+00 1.1312074773101877e+01 1.1147758400061623e+01 1.2771840705738716e+01 
23 1 2 1.0279999999751515e+00 -6.6368808085726073e+02 1.0000000000000000e+00 1.1312076056150099e+01 1.1147757619898188e+01 1.2771839542385221e+01 
102 1 2 1.0280000000093492e+00 -4.9725328281128429e+02 1.0000000000000000e+00 1.3017816796769658e+01 1.3153318497736629e+01 1.3953162920814730e+01 
94 1 2 1.0279999999751877e+00 -4.7326334252040436e+02 1.0000000000000000e+00 1.1312076467647019e+01 1.1147757365081281e+01 1.2771839179594320e+01 
96 1 2 1.0280000000002492e+00 -5.0021537327109581e+02 1.0000000000000000e+00 1.1788568815065505e+01 1.2836653410472938e+01 1.4154661597560176e+01 
47 1 2 1.0279999999755425e+00 -5.1219252716645701e+02 1.0000000000000000e+00 1.1312075917040923e+01 1.1147757716308586e+01 1.2771839642029386e+01 
95 1 2 1.0279999999755993e+00 -4.9385602723693358e+02 1.0000000000000000e+00 1.1312075994593570e+01 1.1147757664972271e+01 1.2771839581078368e+01 
89 1 2 1.0279999999755216e+00 -5.3946031717164897e+02 1.0000000000000000e+00 1.1312076067107997e+01 1.1147757620715579e+01 1.2771839515694932e+01 
16 1 2 1.0279999999749732e+00 -5.8958652724101955e+02 1.0000000000000000e+00 1.1312076642596661e+01 1.1147757257741070e+01 1.2771839023116641e+01 
17 1 2 1.0279999999749190e+00 -7.2797299320739626e+02 1.0000000000000000e+00 1.1312076107706750e+01 1.1147757592475589e+01 1.2771839486836496e+01 
90 1 2 1.0279999999749800e+00 -5.6703076432706087e+02 1.0000000000000000e+00 1.1312075904897739e+01 1.1147757722481087e+01 1.2771839655744611e+01 
58 1 2 1.0279999999749319e+00 -5.1881483334820746e+02 1.0000000000000000e+00 1.1312076582787734e+01 1.1147757290965851e+01 1.2771839084385803e+01 
51 1 2 1.0279999999743648e+00 -4.3681997410664582e+02 1.0000000000000000e+00 1.1312076854496565e+01 1.1147757124001492e+01 1.2771838841938949e+01 
57 1 2 1.0279999999750078e+00 -4.8406714379863229e+02 1.0000000000000000e+00 1.1312076824912959e+01 1.1147757139876470e+01 1.2771838873508292e+01 
88 1 2 1.0279999999745852e+00 -5.1998208505615992e+02 1.0000000000000000e+00 1.1312076325434370e+01 1.1147757458123888e+01 1.2771839293810309e+01 
24 1 2 1.0279999999761573e+00 -7.9593360238421178e+02 1.0000000000000000e+00 1.1312075684809120e+01 1.1147757851486991e+01 1.2771839866120018e+01 
22 1 2 1.0279999999744871e+00 -6.0902793041466907e+02 1.0000000000000000e+00 1.1312076652607349e+01 1.1147757245317464e+01 1.2771839028229804e+01 
59 1 2 1.0279999999748786e+00 -5.8504489305578818e+02 1.0000000000000000e+00 1.1312076034257640e+01 1.1147757635153202e+01 1.2771839557877023e+01 
52 1 2 1.0279999999750613e+00 -5.0688661903226921e+02 1.0000000000000000e+00 1.1312076624600737e+01 1.1147757269914548e+01 1.2771839036676960e+01 
15 1 2 1.0279999999752203e+00 -4.4835901223361793e+02 1.0000000000000000e+00 1.1312077002571922e+01 1.1147757029270924e+01 1.2771838718206361e+01 
54 1 2 1.0279999999748966e+00 -5.5740468873118732e+02 1.0000000000000000e+00 1.1312075462234445e+01 1.1147757996154780e+01 1.2771840047005837e+01 
21 1 2 1.0279999999746872e+00 -5.6601884871005677e+02 1.0000000000000000e+00 1.1312076962174649e+01 1.1147757052193322e+01 1.2771838758503829e+01 
53 1 2 1.0279999999746392e+00 -6.0462149548715149e+02 1.0000000000000000e+00 1.1312076110511345e+01 1.1147757590717244e+01 1.2771839484407812e+01 
66 1 2 1.0279999999985707e+00 -5.5074371874148483e+02 1.0000000000000000e+00 1.1487983242433996e+01 1.2679394753651211e+01 1.4036669520247973e+01 
65 1 2 1.0279999999983105e+00 -5.2823577382880148e+02 1.0000000000000000e+00 1.1454763026098687e+01 1.2664777372476550e+01 1.4014082133057070e+01 
35 1 2 1.0279999999978633e+00 -7.8063404205317693e+02 1.0000000000000000e+00 1.1447871450420337e+01 1.2669233670220084e+01 1.4003936141646388e+01 
29 1 2 1.0279999999979661e+00 -5.7878022841460836e+02 1.0000000000000000e+00 1.1452687228324871e+01 1.2666245829830320e+01 1.4010960209877945e+01 
71 1 2 1.0279999999983884e+00 -5.3529035337921857e+02 1.0000000000000000e+00 1.1454156019938408e+01 1.2668673543333078e+01 1.4010764626489621e+01 
72 1 2 1.0279999999981706e+00 -5.8026169834711811e+02 1.0000000000000000e+00 1.1467736187306341e+01 1.2673054228946413e+01 1.4021350326066099e+01 
30 1 2 1.0279999999983640e+00 -7.1046281187442821e+02 1.0000000000000000e+00 1.1478148754016507e+01 1.2675201710487908e+01 1.4030080128540767e+01 
42 1 2 1.0279999978002354e+00 -6.4719486031666804e+02 1.0000000000000000e+00 1.3729411807241407e+01 6.1291072230411761e+00 2.9552816416999526e+00 
37 1 2 1.0279999978002445e+00 -6.3014818529431761e+02 1.0000000000000000e+00 1.3729378395115360e+01 6.1291962584957700e+00 2.9552675876454737e+00 
38 1 2 1.0279999978003147e+00 -5.6497973802101535e+02 1.0000000000000000e+00 1.3729317357772441e+01 6.1293431739260154e+00 2.9552472430836629e+00 
1 1 2 1.0279999978003156e+00 -7.8828753246567078e+02 1.0000000000000000e+00 1.3729259977240829e+01 6.1291562095807350e+00 2.9553387053253832e+00 
2 1 2 1.0279999978003671e+00 -5.5424331202084181e+02 1.0000000000000000e+00 1.3729222356711103e+01 6.1294694453438092e+00 2.9552503888335346e+00 
6 1 2 1.0279999978003389e+00 -6.8488385812587569e+02 1.0000000000000000e+00 1.3729220864775643e+01 6.1289497692509602e+00 2.9554278695536444e+00 
48 1 2 1.0279999978004162e+00 -7.1526509030741636e+02 1.0000000000000000e+00 1.3729154537465595e+01 6.1289231352801901e+00 2.9554691105451734e+00 
43 1 2 1.0279999978004404e+00 -7.1521609188299919e+02 1.0000000000000000e+00 1.3729121348540911e+01 6.1291271062863304e+00 2.9554158884410908e+00 
8 1 2 1.0279999978004539e+00 -8.9591800741804184e+02 1.0000000000000000e+00 1.3729070561568891e+01 6.1292053695620128e+00 2.9554139195805833e+00 
12 1 2 1.0279999978004841e+00 -7.9105189529846825e+02 1.0000000000000000e+00 1.3729054992483068e+01 6.1288390870960194e+00 2.9555459641488420e+00 
44 1 2 1.0279999978004615e+00 -6.6591002525730346e+02 1.0000000000000000e+00 1.3729050913572515e+01 6.1291711162326807e+00 2.9554351018332854e+00 
7 1 2 1.0279999978005632e+00 -7.7943027261147620e+02 1.0000000000000000e+00 1.3728944202985234e+01 6.1290241799691332e+00 2.9555368213152415e+00 
18 1 2 1.0279999978006176e+00 -8.3306787472424264e+02 1.0000000000000000e+00 1.3728834817311116e+01 6.1286795761306969e+00 2.9557069090237644e+00 
20 1 2 1.0279999978007344e+00 -4.8693306915645428e+02 1.0000000000000000e+00 1.3728674313272537e+01 6.1285056311889692e+00 2.9558437308348027e+00 
56 1 2 1.0279999978007652e+00 -4.8273208838098344e+02 1.0000000000000000e+00 1.3728625646010206e+01 6.1285683584731290e+00 2.9558460358929119e+00 
14 1 2 1.0279999978007939e+00 -5.7700090289041157e+02 1.0000000000000000e+00 1.3728577228646429e+01 6.1286159164298324e+00 2.9558533604394137e+00 
19 1 2 1.0279999978008028e+00 -6.7424407439182733e+02 1.0000000000000000e+00 1.3728559377656865e+01 6.1286083300554299e+00 2.9558645832643915e+00 
55 1 2 1.0279999978008081e+00 -5.7865876041783895e+02 1.0000000000000000e+00 1.3728553346204816e+01 6.1286024818674516e+00 2.9558694896165578e+00 
49 1 2 1.0279999978008134e+00 -6.2472343603813420e+02 1.0000000000000000e+00 1.3728543239117441e+01 6.1287092765165276e+00 2.9558381459304828e+00 
13 1 2 1.0279999978008179e+00 -6.3790250792344830e+02 1.0000000000000000e+00 1.3728542098029518e+01 6.1287199232842822e+00 2.9558350850917590e+00 
50 1 2 1.0279999978008383e+00 -5.4822450481576016e+02 1.0000000000000000e+00 1.3728539987903803e+01 6.1287430495718986e+00 2.9558282575362687e+00 
79 1 2 1.0279999979036023e+00 -4.9054079208566770e+02 1.0000000000000000e+00 1.3387602945329670e+01 6.1873865873375298e+00 3.0356146450594061e+00 
112 1 2 4.8723565370769056e-01 -5.5627586768941865e+02 1.0000000000000000e+00 1.4995350994669266e+01 4.5335324979469611e+00 1.2239744836236536e+01 
113 1 2 4.8723565370769056e-01 -4.7927418306940865e+02 1.0000000000000000e+00 1.4995350994669266e+01 4.5335324979469487e+00 1.2239744836236532e+01 
118 1 2 4.8723565370769056e-01 -5.4856854286368275e+02 1.0000000000000000e+00 1.4995350994669266e+01 4.5335324979469602e+00 1.2239744836236536e+01 
119 1 2 4.8723565370769056e-01 -5.7819281977700257e+02 1.0000000000000000e+00 1.4995350994669266e+01 4.5335324979469576e+00 1.2239744836236536e+01 
148 1 2 4.8723565370769056e-01 -6.3601807329996620e+02 1.0000000000000000e+00 1.4995350994669266e+01 4.5335324979469505e+00 1.2239744836236536e+01 
149 1 2 4.8723565370769056e-01 -7.0969623898456734e+02 1.0000000000000000e+00 1.4995350994669307e+01 4.5335324979469558e+00 1.2239744836236536e+01 
154 1 2 4.8723565370769056e-01 -6.0579731876251640e+02 1.0000000000000000e+00 1.4995350994669307e+01 4.5335324979469602e+00 1.2239744836236536e+01 
155 1 2 4.8723565370769056e-01 -6.0726762237185483e+02 1.0000000000000000e+00 1.4995350994669252e+01 4.5335324979469567e+00 1.2239744836236536e+01 
77 1 2 4.8723565370769056e-01 -4.3635887931455682e+02 1.0000000000000000e+00 1.4995350994669266e+01 4.5335324979469487e+00 1.2239744836236536e+01 
83 1 2 4.8723565370769056e-01 -5.2548135515217564e+02 1.0000000000000000e+00 1.4995350994669266e+01 4.5335324979469656e+00 1.2239744836236538e+01 
76 1 2 4.8723565370769056e-01 -4.4547157420975822e+02 1.0000000000000000e+00 1.4995350994669266e+01 4.5335324979469487e+00 1.2239744836236536e+01 
156 1 2 4.8723565370769056e-01 -5.7397823551723093e+02 1.0000000000000000e+00 1.4995350994669320e+01 4.5335324979469682e+00 1.2239744836236536e+01 
125 1 2 4.8723565370769056e-01 -4.9129791149427029e+02 1.0000000000000000e+00 1.4995350994669307e+01 4.5335324979469682e+00 1.2239744836236532e+01 
162 1 2 4.8723565370769056e-01 -5.6441618059215386e+02 1.0000000000000000e+00 1.4995350994669280e+01 4.5335324979469682e+00 1.2239744836236536e+01 
161 1 2 4.8723565370769056e-01 -5.0958466974159694e+02 1.0000000000000000e+00 1.4995350994669295e+01 4.5335324979469682e+00 1.2239744836236536e+01 
126 1 2 4.8723565370769056e-01 -5.1517859737301194e+02 1.0000000000000000e+00 1.4995350994669307e+01 4.5335324979469682e+00 1.2239744836236536e+01 
160 1 2 4.8723565370769056e-01 -4.7890771194510091e+02 1.0000000000000000e+00 1.4995350994669268e+01 4.5335324979469682e+00 1.2239744836236538e+01 
124 1 2 4.8723565370769056e-01 -3.9084412492213312e+02 1.0000000000000000e+00 1.4995350994669307e+01 4.5335324979469682e+00 1.2239744836236536e+01 
130 1 2 1.0280000000257719e+00 -4.5708667779313362e+02 1.0000000000000000e+00 1.3750758377471861e+01 1.2739415278421868e+01 1.3139126004740257e+01 
167 1 2 1.0280000000259393e+00 -7.0817682039169995e+02 1.0000000000000000e+00 1.3750096486557146e+01 1.2741340004238408e+01 1.3141979463898542e+01 
166 1 2 1.0280000000257743e+00 -6.6286617259687932e+02 1.0000000000000000e+00 1.3744284320317609e+01 1.2755274770354157e+01 1.3144982782556873e+01 
131 1 2 1.0280000000253808e+00 -6.6242704225696480e+02 1.0000000000000000e+00 1.3744001523859962e+01 1.2756210601866869e+01 1.3147690267702719e+01 
136 1 2 1.0280000000245260e+00 -5.8145916999702490e+02 1.0000000000000000e+00 1.3743344320871921e+01 1.2757159350919952e+01 1.3142547945028648e+01 
172 1 2 1.0280000000271625e+00 -7.4750760121937196e+02 1.0000000000000000e+00 1.3743187686290286e+01 1.2757919755433601e+01 1.3146218649523677e+01 
137 1 2 1.0280000000264486e+00 -8.2123458528293315e+02 1.0000000000000000e+00 1.3742933141800226e+01 1.2758702974072825e+01 1.3148173019127189e+01 
168 1 2 1.0280000000265221e+00 -9.6237452106624562e+02 1.0000000000000000e+00 1.3742769888253591e+01 1.2759391956429946e+01 1.3151407973394486e+01 
173 1 2 1.0280000000274070e+00 -8.8931949502794782e+02 1.0000000000000000e+00 1.3742743111656619e+01 1.2759222629084340e+01 1.3149035753160753e+01 
174 1 2 1.0280000000265166e+00 -9.2237752692669187e+02 1.0000000000000000e+00 1.3742679740504167e+01 1.2759547337790943e+01 1.3150884531615821e+01 
179 1 2 1.0280000000261724e+00 -9.4030970466864983e+02 1.0000000000000000e+00 1.3742596330847118e+01 1.2759542834107217e+01 1.3148896818242276e+01 
180 1 2 1.0280000000239418e+00 -1.0232157035195022e+03 1.0000000000000000e+00 1.3742548057651458e+01 1.2759761474967199e+01 1.3150000153031932e+01 
178 1 2 1.0280000000276115e+00 -8.4100675319216759e+02 1.0000000000000000e+00 1.3742392557418871e+01 1.2759478077125072e+01 1.3143870891400859e+01 
132 1 2 1.0280000000279879e+00 -7.4545715761280644e+02 1.0000000000000000e+00 1.3742342274149063e+01 1.2760638519677601e+01 1.3154413634145886e+01 
101 1 2 1.0280000000265799e+00 -6.3036330304064199e+02 1.0000000000000000e+00 1.3742300936227753e+01 1.2760430130772605e+01 1.3151113244245280e+01 
142 1 2 1.0280000000240117e+00 -6.5949034654849413e+02 1.0000000000000000e+00 1.3742122121919197e+01 1.2760334971757306e+01 1.3146116928852571e+01 
143 1 2 1.0280000000256828e+00 -6.8495925031144770e+02 1.0000000000000000e+00 1.3742063405278284e+01 1.2760662479612096e+01 1.3147993216178993e+01 
144 1 2 1.0280000000274416e+00 -7.4914654698323488e+02 1.0000000000000000e+00 1.3741960066776004e+01 1.2761242116581345e+01 1.3151523989006531e+01 
107 1 2 1.0280000000270333e+00 -5.5362034378525834e+02 1.0000000000000000e+00 1.3741703027587350e+01 1.2761565734298321e+01 1.3148854897842570e+01 
106 1 2 1.0280000000268965e+00 -4.6306398582357463e+02 1.0000000000000000e+00 1.3740630630660224e+01 1.2760524385655199e+01 1.3121762524680108e+01 
138 1 2 1.0280000000265621e+00 -6.6561017226492220e+02 1.0000000000000000e+00 1.3739265970592241e+01 1.2768471760839683e+01 1.3166616414621942e+01 
108 1 2 1.0280000000256113e+00 -6.0152219897650980e+02 1.0000000000000000e+00 1.3692474810026818e+01 1.2855189251204722e+01 1.3290096408867424e+01 

Velocities

150 2.0048517462446414e-03 8.2341995484921568e-04 -2.4774557437388959e-03
73 2.0048759869060856e-03 8.2341806359786213e-04 -2.4774579127418072e-03
84 2.0048676901158824e-03 8.2341926555434017e-04 -2.4774560346521582e-03
115 2.0048654635903794e-03 8.2341938388817823e-04 -2.4774557421546163e-03
78 2.0048626155910972e-03 8.2341959882915124e-04 -2.4774555191041164e-03
120 2.0048576217552038e-03 8.2341989871998150e-04 -2.4774554411751406e-03
109 2.0048574325494594e-03 8.2341975673575819e-04 -2.4774554055331049e-03
145 2.0048560453346134e-03 8.2341979384544775e-04 -2.4774554450395976e-03
114 2.0048545252237173e-03 8.2341991142921610e-04 -2.4774555389370377e-03
40 -1.1257649375232758e-10 -2.3340975874511720e-11 -2.9396932649473187e-10
41 -1.1257649375232758e-10 -2.3340975874177827e-11 -2.9396932649473187e-10
4 -1.1257649375232758e-10 -2.3340975874511720e-11 -2.9449078055070810e-10
5 -1.1309794780843082e-10 -2.3340975874177823e-11 -2.9396932649473187e-10
11 -1.1361940186424806e-10 -2.3340975874041849e-11 -2.9396932649473182e-10
10 -1.1466230997553348e-10 -2.3340975874041852e-11 -2.9449078055070810e-10
46 -1.1166394915376816e-10 -2.3406157631010046e-11 -2.9449078055070805e-10
34 -1.1166394915376815e-10 -2.3340975874177823e-11 -2.9396932649473187e-10
70 -1.1166394915376815e-10 -2.3340975874177823e-11 -2.9396932649473187e-10
9 -1.1257649375232758e-10 -2.3340975874131889e-11 -2.9788023191658989e-10
3 -1.1257649375232758e-10 -2.3340975874511720e-11 -3.0100895625044611e-10
45 -1.1166394915376815e-10 -2.3373566752989384e-11 -2.9370859946647040e-10
39 -1.1166394915376816e-10 -2.3340975874511720e-11 -2.9370859946647040e-10
82 2.0048312829767934e-03 8.2342233234296042e-04 -2.4775094615388745e-03
151 2.0048312830240611e-03 8.2342233230623524e-04 -2.4775094614665847e-03
75 2.0048312830186822e-03 8.2342233232721238e-04 -2.4775094614368919e-03
80 2.0048312830170762e-03 8.2342233230133909e-04 -2.4775094614854997e-03
85 2.0048312830131657e-03 8.2342233229279666e-04 -2.4775094615003507e-03
116 2.0048312830200088e-03 8.2342233230977072e-04 -2.4775094614643378e-03
110 2.0048312830084278e-03 8.2342233227793008e-04 -2.4775094615587705e-03
86 2.0048312830086802e-03 8.2342233228379985e-04 -2.4775094615225174e-03
87 2.0048312829883514e-03 8.2342233223130581e-04 -2.4775094616808673e-03
152 2.0048312830175190e-03 8.2342233229844785e-04 -2.4775094614894449e-03
81 2.0048312830073280e-03 8.2342233228667515e-04 -2.4775094615383571e-03
74 2.0048312830139867e-03 8.2342233228348250e-04 -2.4775094615471049e-03
153 2.0048312830060703e-03 8.2342233233482771e-04 -2.4775094614627978e-03
159 2.0048312830205930e-03 8.2342233232532837e-04 -2.4775094614129813e-03
165 2.0048312830088341e-03 8.2342233228602398e-04 -2.4775094615008013e-03
117 2.0048312830068795e-03 8.2342233228769159e-04 -2.4775094615397167e-03
164 2.0048312829974301e-03 8.2342233225117620e-04 -2.4775094615931362e-03
129 2.0048312830041114e-03 8.2342233227325088e-04 -2.4775094615367998e-03
123 2.0048312830022960e-03 8.2342233227127861e-04 -2.4775094615706217e-03
163 2.0048312830103334e-03 8.2342233228781953e-04 -2.4775094614828408e-03