LAMMPS data file via write_data, version 30 Jul 2016, timestep = 600000

2080 atoms
8 atom types

0.0000000000000000e+00 4.0000000000000000e+01 xlo xhi
0.0000000000000000e+00 4.0000000000000000e+01 ylo yhi
0.0000000000000000e+00 1.0000000000000000e+02 zlo zhi

Masses

1 3.896
2 21.44
3 1058.08
4 8.378
5 8.378
6 8.378
7 8.378
8 8.378

Atoms # meso-molecular

1 2 4 2.2559723595316457e+00 6.1176312283963807e+02 4.2000000000000000e+03 0.0000000000000000e+00 0.0000000000000000e+00 2.5000000000000000e+00 
2 2 4 2.2559723595316457e+00 1.0969223893424919e+03 4.2000000000000000e+03 0.0000000000000000e+00 2.0000000000000000e+00 2.5000000000000000e+00 
3 2 4 2.2559723595316457e+00 1.2167139277209271e+03 4.2000000000000000e+03 0.0000000000000000e+00 4.0000000000000000e+00 2.5000000000000000e+00 
4 2 4 2.2559723595316457e+00 5.2679724569814118e+02 4.2000000000000000e+03 0.0000000000000000e+00 6.0000000000000000e+00 2.5000000000000000e+00 
21 2 4 2.2559723595316457e+00 4.9969094839627718e+02 4.2000000000000000e+03 2.0000000000000000e+00 0.0000000000000000e+00 2.5000000000000000e+00 
22 2 4 2.2559723595316457e+00 9.5859789042520515e+02 4.2000000000000000e+03 2.0000000000000000e+00 2.0000000000000000e+00 2.5000000000000000e+00 
23 2 4 2.2559723595316457e+00 1.1164952613495957e+03 4.2000000000000000e+03 2.0000000000000000e+00 4.0000000000000000e+00 2.5000000000000000e+00 
24 2 4 2.2559723595316457e+00 5.7231382297379764e+02 4.2000000000000000e+03 2.0000000000000000e+00 6.0000000000000000e+00 2.5000000000000000e+00 
41 2 4 2.2559723595316457e+00 3.9250068190686034e+02 4.2000000000000000e+03 4.0000000000000000e+00 0.0000000000000000e+00 2.5000000000000000e+00 
42 2 4 2.2559723595316457e+00 7.5574918573749392e+02 4.2000000000000000e+03 4.0000000000000000e+00 2.0000000000000000e+00 2.5000000000000000e+00 
43 2 4 2.2559723595316457e+00 8.9178827491263769e+02 4.2000000000000000e+03 4.0000000000000000e+00 4.0000000000000000e+00 2.5000000000000000e+00 
44 2 4 2.2559723595316457e+00 3.9514197146303763e+02 4.2000000000000000e+03 4.0000000000000000e+00 6.0000000000000000e+00 2.5000000000000000e+00 
61 2 4 2.2559723595316457e+00 2.0332515975817898e+02 4.2000000000000000e+03 6.0000000000000000e+00 0.0000000000000000e+00 2.5000000000000000e+00 
62 2 4 2.2559723595316457e+00 4.2462347345608265e+02 4.2000000000000000e+03 6.0000000000000000e+00 2.0000000000000000e+00 2.5000000000000000e+00 
63 2 4 2.2559723595316457e+00 3.7752206365322434e+02 4.2000000000000000e+03 6.0000000000000000e+00 4.0000000000000000e+00 2.5000000000000000e+00 
64 2 4 2.2559723595316457e+00 8.2429580160523443e+01 4.2000000000000000e+03 6.0000000000000000e+00 6.0000000000000000e+00 2.5000000000000000e+00 
81 2 4 2.2559723595316457e+00 -1.3348169548678243e+02 4.2000000000000000e+03 8.0000000000000000e+00 0.0000000000000000e+00 2.5000000000000000e+00 
82 2 4 2.2559723595316457e+00 3.5162608127300592e+02 4.2000000000000000e+03 8.0000000000000000e+00 2.0000000000000000e+00 2.5000000000000000e+00 
83 2 4 2.2559723595316457e+00 3.4961594822756092e+02 4.2000000000000000e+03 8.0000000000000000e+00 4.0000000000000000e+00 2.5000000000000000e+00 
84 2 4 2.2559723595316457e+00 2.9511762498187458e+01 4.2000000000000000e+03 8.0000000000000000e+00 6.0000000000000000e+00 2.5000000000000000e+00 
101 2 4 2.2559723595316457e+00 -5.7886777789807547e+02 4.2000000000000000e+03 1.0000000000000000e+01 0.0000000000000000e+00 2.5000000000000000e+00 
102 2 4 2.2559723595316457e+00 5.0914111042539901e+02 4.2000000000000000e+03 1.0000000000000000e+01 2.0000000000000000e+00 2.5000000000000000e+00 
103 2 4 2.2559723595316457e+00 1.1037050853340716e+03 4.2000000000000000e+03 1.0000000000000000e+01 4.0000000000000000e+00 2.5000000000000000e+00 
104 2 4 2.2559723595316457e+00 4.5786028632717529e+02 4.2000000000000000e+03 1.0000000000000000e+01 6.0000000000000000e+00 2.5000000000000000e+00 
121 2 4 2.2559723595316457e+00 -3.0620432868842232e+02 4.2000000000000000e+03 1.2000000000000000e+01 0.0000000000000000e+00 2.5000000000000000e+00 
122 2 4 2.2559723595316457e+00 1.0757471080922041e+03 4.2000000000000000e+03 1.2000000000000000e+01 2.0000000000000000e+00 2.5000000000000000e+00 
123 2 4 2.2559723595316457e+00 1.8334131958379730e+03 4.2000000000000000e+03 1.2000000000000000e+01 4.0000000000000000e+00 2.5000000000000000e+00 
124 2 4 2.2559723595316457e+00 5.1124185555697920e+02 4.2000000000000000e+03 1.2000000000000000e+01 6.0000000000000000e+00 2.5000000000000000e+00 
141 2 4 2.2559723595316457e+00 3.9098351011038901e+01 4.2000000000000000e+03 1.4000000000000000e+01 0.0000000000000000e+00 2.5000000000000000e+00 
142 2 4 2.2559723595316457e+00 1.4785280976104168e+03 4.2000000000000000e+03 1.4000000000000000e+01 2.0000000000000000e+00 2.5000000000000000e+00 
143 2 4 2.2559723595316457e+00 1.9259126635300395e+03 4.2000000000000000e+03 1.4000000000000000e+01 4.0000000000000000e+00 2.5000000000000000e+00 
144 2 4 2.2559723595316457e+00 -1.0598697206844954e+03 4.2000000000000000e+03 1.4000000000000000e+01 6.0000000000000000e+00 2.5000000000000000e+00 
161 2 4 2.2559723595316457e+00 3.7075055312038119e+00 4.2000000000000000e+03 1.6000000000000000e+01 0.0000000000000000e+00 2.5000000000000000e+00 
162 2 4 2.2559723595316457e+00 1.1281801779677758e+03 4.2000000000000000e+03 1.6000000000000000e+01 2.0000000000000000e+00 2.5000000000000000e+00 
163 2 4 2.2559723595316457e+00 1.0048786995783222e+03 4.2000000000000000e+03 1.6000000000000000e+01 4.0000000000000000e+00 2.5000000000000000e+00 
164 2 4 2.2559723595316457e+00 -3.9098211732871496e+03 4.2000000000000000e+03 1.6000000000000000e+01 6.0000000000000000e+00 2.5000000000000000e+00 
181 2 4 2.2559723595316457e+00 -4.6928763342518903e+02 4.2000000000000000e+03 1.8000000000000000e+01 0.0000000000000000e+00 2.5000000000000000e+00 
182 2 4 2.2559723595316457e+00 3.7426494887216995e+02 4.2000000000000000e+03 1.8000000000000000e+01 2.0000000000000000e+00 2.5000000000000000e+00 
183 2 4 2.2559723595316457e+00 -1.0219311228830898e+02 4.2000000000000000e+03 1.8000000000000000e+01 4.0000000000000000e+00 2.5000000000000000e+00 
184 2 4 2.2559723595316457e+00 -6.0917290000471248e+03 4.2000000000000000e+03 1.8000000000000000e+01 6.0000000000000000e+00 2.5000000000000000e+00 
5 2 4 2.2559723595316457e+00 7.2033966710412358e+01 4.2000000000000000e+03 0.0000000000000000e+00 8.0000000000000000e+00 2.5000000000000000e+00 
6 2 4 2.2559723595316457e+00 2.9082012588043675e+01 4.2000000000000000e+03 0.0000000000000000e+00 1.0000000000000000e+01 2.5000000000000000e+00 
7 2 4 2.2559723595316457e+00 -2.6694566977115862e+01 4.2000000000000000e+03 0.0000000000000000e+00 1.2000000000000000e+01 2.5000000000000000e+00 
25 2 4 2.2559723595316457e+00 6.9419763110589116e+01 4.2000000000000000e+03 2.0000000000000000e+00 8.0000000000000000e+00 2.5000000000000000e+00 
26 2 4 2.2559723595316457e+00 -2.2655010291278462e+01 4.2000000000000000e+03 2.0000000000000000e+00 1.0000000000000000e+01 2.5000000000000000e+00 
27 2 4 2.2559723595316457e+00 -1.2876955505381054e+02 4.2000000000000000e+03 2.0000000000000000e+00 1.2000000000000000e+01 2.5000000000000000e+00 
45 2 4 2.2559723595316457e+00 -1.9038224395303551e+01 4.2000000000000000e+03 4.0000000000000000e+00 8.0000000000000000e+00 2.5000000000000000e+00 
46 2 4 2.2559723595316457e+00 -1.0489067668833576e+02 4.2000000000000000e+03 4.0000000000000000e+00 1.0000000000000000e+01 2.5000000000000000e+00 
47 2 4 2.2559723595316457e+00 -1.7500268235439140e+02 4.2000000000000000e+03 4.0000000000000000e+00 1.2000000000000000e+01 2.5000000000000000e+00 
65 2 4 2.2559723595316457e+00 -9.2103013021445463e+01 4.2000000000000000e+03 6.0000000000000000e+00 8.0000000000000000e+00 2.5000000000000000e+00 
66 2 4 2.2559723595316457e+00 -1.3650463128278616e+02 4.2000000000000000e+03 6.0000000000000000e+00 1.0000000000000000e+01 2.5000000000000000e+00 
67 2 4 2.2559723595316457e+00 -7.3447341730831695e+01 4.2000000000000000e+03 6.0000000000000000e+00 1.2000000000000000e+01 2.5000000000000000e+00 
85 2 4 2.2559723595316457e+00 -9.9169698286112293e+01 4.2000000000000000e+03 8.0000000000000000e+00 8.0000000000000000e+00 2.5000000000000000e+00 
86 2 4 2.2559723595316457e+00 -1.2241067420807636e+02 4.2000000000000000e+03 8.0000000000000000e+00 1.0000000000000000e+01 2.5000000000000000e+00 
87 2 4 2.2559723595316457e+00 -4.9201854186670975e+00 4.2000000000000000e+03 8.0000000000000000e+00 1.2000000000000000e+01 2.5000000000000000e+00 
105 2 4 2.2559723595316457e+00 -2.4507664545111808e+02 4.2000000000000000e+03 1.0000000000000000e+01 8.0000000000000000e+00 2.5000000000000000e+00 
106 2 4 2.2559723595316457e+00 -5.6109929771596796e+02 4.2000000000000000e+03 1.0000000000000000e+01 1.0000000000000000e+01 2.5000000000000000e+00 
107 2 4 2.2559723595316457e+00 -6.1625824873813076e+02 4.2000000000000000e+03 1.0000000000000000e+01 1.2000000000000000e+01 2.5000000000000000e+00 
125 2 4 2.2559723595316457e+00 -2.0696418691844351e+03 4.2000000000000000e+03 1.2000000000000000e+01 8.0000000000000000e+00 2.5000000000000000e+00 
126 2 4 2.2559723595316457e+00 -4.5730072333051485e+03 4.2000000000000000e+03 1.2000000000000000e+01 1.0000000000000000e+01 2.5000000000000000e+00 
127 2 4 2.2559723595316457e+00 -6.1284330531350552e+03 4.2000000000000000e+03 1.2000000000000000e+01 1.2000000000000000e+01 2.5000000000000000e+00 
145 2 4 2.2559723595316457e+00 -7.5724160555726266e+03 4.2000000000000000e+03 1.4000000000000000e+01 8.0000000000000000e+00 2.5000000000000000e+00 
146 2 4 2.2559723595316457e+00 -1.5561701201774205e+04 4.2000000000000000e+03 1.4000000000000000e+01 1.0000000000000000e+01 2.5000000000000000e+00 
147 2 4 2.2559723595316457e+00 -2.1543794266684294e+04 4.2000000000000000e+03 1.4000000000000000e+01 1.2000000000000000e+01 2.5000000000000000e+00 
165 2 4 2.2559723595316457e+00 -1.5613756983816696e+04 4.2000000000000000e+03 1.6000000000000000e+01 8.0000000000000000e+00 2.5000000000000000e+00 
166 2 4 2.2559723595316457e+00 -3.1911099860594190e+04 4.2000000000000000e+03 1.6000000000000000e+01 1.0000000000000000e+01 2.5000000000000000e+00 
167 2 4 2.2559723595316457e+00 -4.5484286876914448e+04 4.2000000000000000e+03 1.6000000000000000e+01 1.2000000000000000e+01 2.5000000000000000e+00 
185 2 4 2.2559723595316457e+00 -2.1697176234464034e+04 4.2000000000000000e+03 1.8000000000000000e+01 8.0000000000000000e+00 2.5000000000000000e+00 
186 2 4 2.2559723595316457e+00 -4.4968214096723066e+04 4.2000000000000000e+03 1.8000000000000000e+01 1.0000000000000000e+01 2.5000000000000000e+00 
187 2 4 2.2559723595316457e+00 -6.5282939290930488e+04 4.2000000000000000e+03 1.8000000000000000e+01 1.2000000000000000e+01 2.5000000000000000e+00 
8 2 4 2.2559723595316457e+00 -2.3896854740869679e+02 4.2000000000000000e+03 0.0000000000000000e+00 1.4000000000000000e+01 2.5000000000000000e+00 
9 2 4 2.2559723595316457e+00 -7.5892656037325469e+02 4.2000000000000000e+03 0.0000000000000000e+00 1.6000000000000000e+01 2.5000000000000000e+00 
10 2 4 2.2559723595316457e+00 -1.2901588800464242e+03 4.2000000000000000e+03 0.0000000000000000e+00 1.8000000000000000e+01 2.5000000000000000e+00 
28 2 4 2.2559723595316457e+00 -4.4580332593978756e+02 4.2000000000000000e+03 2.0000000000000000e+00 1.4000000000000000e+01 2.5000000000000000e+00 
29 2 4 2.2559723595316457e+00 -1.0060965323833818e+03 4.2000000000000000e+03 2.0000000000000000e+00 1.6000000000000000e+01 2.5000000000000000e+00 
30 2 4 2.2559723595316457e+00 -1.5252211557541752e+03 4.2000000000000000e+03 2.0000000000000000e+00 1.8000000000000000e+01 2.5000000000000000e+00 
48 2 4 2.2559723595316457e+00 -4.2530993017886721e+02 4.2000000000000000e+03 4.0000000000000000e+00 1.4000000000000000e+01 2.5000000000000000e+00 
49 2 4 2.2559723595316457e+00 -8.6358838091444318e+02 4.2000000000000000e+03 4.0000000000000000e+00 1.6000000000000000e+01 2.5000000000000000e+00 
50 2 4 2.2559723595316457e+00 -1.2663023703108474e+03 4.2000000000000000e+03 4.0000000000000000e+00 1.8000000000000000e+01 2.5000000000000000e+00 
68 2 4 2.2559723595316457e+00 -1.3634784744089623e+02 4.2000000000000000e+03 6.0000000000000000e+00 1.4000000000000000e+01 2.5000000000000000e+00 
69 2 4 2.2559723595316457e+00 -3.3848854391562276e+02 4.2000000000000000e+03 6.0000000000000000e+00 1.6000000000000000e+01 2.5000000000000000e+00 
70 2 4 2.2559723595316457e+00 -4.9967236755542865e+02 4.2000000000000000e+03 6.0000000000000000e+00 1.8000000000000000e+01 2.5000000000000000e+00 
88 2 4 2.2559723595316457e+00 3.5040002106842465e+01 4.2000000000000000e+03 8.0000000000000000e+00 1.4000000000000000e+01 2.5000000000000000e+00 
89 2 4 2.2559723595316457e+00 -9.3507245664108424e+01 4.2000000000000000e+03 8.0000000000000000e+00 1.6000000000000000e+01 2.5000000000000000e+00 
90 2 4 2.2559723595316457e+00 -1.7775049835590139e+02 4.2000000000000000e+03 8.0000000000000000e+00 1.8000000000000000e+01 2.5000000000000000e+00 
108 2 4 2.2559723595316457e+00 -5.8229905289013823e+02 4.2000000000000000e+03 1.0000000000000000e+01 1.4000000000000000e+01 2.5000000000000000e+00 
109 2 4 2.2559723595316457e+00 -7.2002711533032664e+02 4.2000000000000000e+03 1.0000000000000000e+01 1.6000000000000000e+01 2.5000000000000000e+00 
110 2 4 2.2559723595316457e+00 -8.3846139762666894e+02 4.2000000000000000e+03 1.0000000000000000e+01 1.8000000000000000e+01 2.5000000000000000e+00 
128 2 4 2.2559723595316457e+00 -6.4847021784029857e+03 4.2000000000000000e+03 1.2000000000000000e+01 1.4000000000000000e+01 2.5000000000000000e+00 
129 2 4 2.2559723595316457e+00 -6.5273356660761729e+03 4.2000000000000000e+03 1.2000000000000000e+01 1.6000000000000000e+01 2.5000000000000000e+00 
130 2 4 2.2559723595316457e+00 -6.5467329871935672e+03 4.2000000000000000e+03 1.2000000000000000e+01 1.8000000000000000e+01 2.5000000000000000e+00 
148 2 4 2.2559723595316457e+00 -2.3613207481174533e+04 4.2000000000000000e+03 1.4000000000000000e+01 1.4000000000000000e+01 2.5000000000000000e+00 
149 2 4 2.2559723595316457e+00 -2.3548329026414383e+04 4.2000000000000000e+03 1.4000000000000000e+01 1.6000000000000000e+01 2.5000000000000000e+00 
150 2 4 2.2559723595316457e+00 -2.3263362141496436e+04 4.2000000000000000e+03 1.4000000000000000e+01 1.8000000000000000e+01 2.5000000000000000e+00 
168 2 4 2.2559723595316457e+00 -5.1080216141325815e+04 4.2000000000000000e+03 1.6000000000000000e+01 1.4000000000000000e+01 2.5000000000000000e+00 
169 2 4 2.2559723595316457e+00 -5.1306387702820502e+04 4.2000000000000000e+03 1.6000000000000000e+01 1.6000000000000000e+01 2.5000000000000000e+00 
170 2 4 2.2559723595316457e+00 -5.0680675070706107e+04 4.2000000000000000e+03 1.6000000000000000e+01 1.8000000000000000e+01 2.5000000000000000e+00 
188 2 4 2.2559723595316457e+00 -7.4078889400524102e+04 4.2000000000000000e+03 1.8000000000000000e+01 1.4000000000000000e+01 2.5000000000000000e+00 
189 2 4 2.2559723595316457e+00 -7.4620203710645132e+04 4.2000000000000000e+03 1.8000000000000000e+01 1.6000000000000000e+01 2.5000000000000000e+00 
190 2 4 2.2559723595316457e+00 -7.3780080629994860e+04 4.2000000000000000e+03 1.8000000000000000e+01 1.8000000000000000e+01 2.5000000000000000e+00 
839 441 2 1.0266525111159917e+00 -1.6393294951674162e+05 4.2000000000000000e+03 2.2622613601202732e+00 2.2315779983913284e+00 7.5287825532570096e+01 
1616 1218 2 1.0254201924472570e+00 1.3908089706168234e+04 4.2000000000000000e+03 1.0184028747708977e+00 1.4582974483810212e+00 7.4909607965752897e+01 
1333 935 2 1.0241771827824455e+00 7.8302551016845580e+04 4.2000000000000000e+03 3.7074531311973224e-01 1.4184834389379795e+00 7.5032432481378208e+01 
429 31 2 1.0265890492004059e+00 3.0057217432104482e+05 4.2000000000000000e+03 3.6088561776263739e+00 4.8258258076885074e-01 7.4886237086614102e+01 
1405 1007 2 1.0251015357861009e+00 3.1669591843584616e+05 4.2000000000000000e+03 3.6401707472701679e+00 1.0396427687917327e-02 7.4810784971114828e+01 
2043 1645 2 1.0295778087049587e+00 -5.3626831342925892e+04 4.2000000000000000e+03 5.3307483772000968e+00 4.2420141466093408e+00 7.6521094785745333e+01 
1834 1436 2 1.0349650376857782e+00 -9.7793912961920505e+04 4.2000000000000000e+03 1.1884560412985754e+00 3.6918899383531696e+00 7.5910077197484412e+01 
957 559 2 1.0278376482224663e+00 -7.4261017636894379e+04 4.2000000000000000e+03 9.9739080434357516e-02 4.4340134486034373e+00 7.5625910721168381e+01 
1581 1183 2 1.0349963955708672e+00 3.4065348246597208e+05 4.2000000000000000e+03 6.5896412503175563e+00 3.0812361993095885e+00 7.7927700342301179e+01 
803 405 2 1.0248848199537779e+00 -1.2005506707477322e+05 4.2000000000000000e+03 4.5555293022986714e+00 3.4782044818765687e+00 7.8340754968819240e+01 
2058 1660 2 1.0301893052299191e+00 1.0823126522585750e+05 4.2000000000000000e+03 2.5803959661264753e-01 6.1902860329398548e+00 7.5097593990352550e+01 
1732 1334 2 1.0312944954711960e+00 1.3036183961177630e+05 4.2000000000000000e+03 6.0827205006683229e+00 6.1717707592388669e+00 7.6397160437451149e+01 
1247 849 2 1.0191980032479251e+00 -9.8679457931112411e+04 4.2000000000000000e+03 2.4583465260759021e+00 5.6448622233940995e+00 7.9869849799881990e+01 
1489 1091 2 1.0341252025213066e+00 -1.3330593411854244e+05 4.2000000000000000e+03 6.4409687942403595e+00 6.4230416857552148e+00 7.6391238737024949e+01 
596 198 2 1.0266364579069116e+00 2.7204765255239938e+05 4.2000000000000000e+03 1.2062446461710901e+00 5.3594618132323313e-01 7.9963337484406921e+01 
1465 1067 2 1.0332254222377055e+00 1.5150518512762611e+05 4.2000000000000000e+03 1.5476689434220809e+00 4.4102147921643509e-01 7.9959306358827078e+01 
1759 1361 2 1.0274831048902884e+00 -4.1822825653849279e+04 4.2000000000000000e+03 1.0321451697374121e+01 3.0954194074040027e+00 7.4012240091742854e+01 
883 485 2 1.0276001550064937e+00 -2.6822180060591025e+05 4.2000000000000000e+03 9.9500785542845147e+00 3.2482213827495090e+00 7.4093769790501838e+01 
1757 1359 2 1.0275510214886161e+00 2.3411437120521112e+05 4.2000000000000000e+03 1.0660172967946478e+01 2.6491944772693290e+00 7.4025167727695191e+01 
592 194 2 1.0255416473731922e+00 2.1412594819952032e+05 4.2000000000000000e+03 9.0183212220581694e+00 3.8189677133019861e+00 7.4414175399571064e+01 
1743 1345 2 1.0271111592499365e+00 4.8247313527344944e+04 4.2000000000000000e+03 1.1923817776989862e+01 2.4345335461196878e+00 7.4007536447942513e+01 
887 489 2 1.0276351858914785e+00 -1.4744622108061356e+05 4.2000000000000000e+03 1.1016823772507937e+01 2.2566571458038505e+00 7.4086168896029079e+01 
852 454 2 1.0279146333966513e+00 2.0867006450011198e+04 4.2000000000000000e+03 1.1956932355938640e+01 2.0055649342162623e+00 7.4135830828104105e+01 
606 208 2 1.0285119665283862e+00 -1.1726260467933140e+05 4.2000000000000000e+03 1.2710488467599577e+01 1.9560232301755873e+00 7.4204580569046740e+01 
849 451 2 1.0313479107666896e+00 1.0941982322005597e+04 4.2000000000000000e+03 1.0968068748744754e+01 6.0589739236007780e+00 7.4749006488581259e+01 
571 173 2 1.0315539478532545e+00 2.2985236924313640e+05 4.2000000000000000e+03 7.6149845113154369e+00 4.4442244109646944e+00 7.5278321128860071e+01 
525 127 2 1.0231023693115138e+00 2.3531856982080170e+05 4.2000000000000000e+03 7.4462017084606558e+00 5.4115406097403858e+00 7.5477283564685052e+01 
466 68 2 1.0284380449909636e+00 -4.3872431155536811e+04 4.2000000000000000e+03 7.4883531882912093e+00 3.5068960265685836e+00 7.5284753377103442e+01 
1279 881 2 1.0263726199196168e+00 -3.1612220510028949e+05 4.2000000000000000e+03 1.0197760942078249e+01 6.8451612395043382e-01 7.4919060695375364e+01 
644 246 2 1.0376387119855626e+00 1.2634797956210107e+05 4.2000000000000000e+03 7.0399919710377539e+00 9.9594451170882461e-02 7.6878120937332980e+01 
414 16 2 1.0176365965904735e+00 9.0615315761835052e+04 4.2000000000000000e+03 8.6510305812636457e+00 3.2241191620057972e+00 7.9019831715437277e+01 
1403 1005 2 1.0330571473432373e+00 -1.0508794248787966e+04 4.2000000000000000e+03 8.1584001770522931e+00 8.3505111187650372e-01 7.7936898016555631e+01 
1020 622 2 1.0324848591694309e+00 3.6449300003009324e+04 4.2000000000000000e+03 1.0881093312657962e+01 6.2754863778701386e+00 7.4913812310103765e+01 
2059 1661 2 1.0283148544358700e+00 1.1275065372492430e+05 4.2000000000000000e+03 1.3129393249530922e+01 6.1477029179614107e+00 7.4909052332446791e+01 
2062 1664 2 1.0359052077026536e+00 1.8780778970412628e+05 4.2000000000000000e+03 8.0500000575720616e+00 5.9511292034875547e+00 7.5547851034797858e+01 
538 140 2 1.0270904722374652e+00 2.3361740611996865e+05 4.2000000000000000e+03 1.2374648282483816e+01 6.5268711384517850e+00 7.9113040649881142e+01 
1524 1126 2 1.0253134086149251e+00 3.4911976130169860e+04 4.2000000000000000e+03 1.3761555251983024e+01 4.8740509742783242e+00 7.4417696857030862e+01 
1614 1216 2 1.0250996907396164e+00 -1.2419470880701984e+05 4.2000000000000000e+03 1.5121911131010629e+01 5.4803344062153387e+00 7.5185467848993994e+01 
998 600 2 1.0246052144660900e+00 -3.4146948900024284e+05 4.2000000000000000e+03 1.5268985504773491e+01 5.1423939272198131e+00 7.5153440247133702e+01 
1100 702 2 1.0295396866907232e+00 -6.4242893933833657e+04 4.2000000000000000e+03 1.4999835902150719e+01 1.4329581157177098e+00 7.4820772138120972e+01 
1558 1160 2 1.0289105655045743e+00 -2.4719291506156235e+05 4.2000000000000000e+03 1.5294157410393549e+01 1.0494976353162935e+00 7.4846423918712318e+01 
942 544 2 1.0285933992739862e+00 -4.0231113823532104e+05 4.2000000000000000e+03 1.5490582075780614e+01 1.0286457180990580e+00 7.4928690606081005e+01 
840 442 2 1.0319315208310813e+00 8.4563490207563344e+04 4.2000000000000000e+03 1.6565193661230794e+01 5.3465541267413981e+00 7.5995939672448714e+01 
1353 955 2 1.0313809462585548e+00 -7.3587015802381342e+04 4.2000000000000000e+03 1.5999364601340705e+01 2.5583387130929314e+00 7.5760346330426316e+01 
721 323 2 1.0258365967925254e+00 4.0052270332090417e+05 4.2000000000000000e+03 1.6827880300360398e+01 4.7102406776744106e+00 7.6076837890276167e+01 
1289 891 2 1.0257345189664138e+00 2.9185525443879669e+04 4.2000000000000000e+03 1.7873343201064355e+01 5.3891940161300482e+00 7.6583754628839912e+01 
693 295 2 1.0290801089930792e+00 1.8277125307617377e+05 4.2000000000000000e+03 1.8492420338682340e+01 5.1720068041450524e+00 7.6894362022133890e+01 
530 132 2 1.0292324538548792e+00 -5.3061710895241638e+04 4.2000000000000000e+03 1.9780561026571615e+01 5.0370253979653929e+00 7.7372561331987342e+01 
1269 871 2 1.0275247875781102e+00 -9.5625672040333724e+04 4.2000000000000000e+03 1.9012937490621937e+01 4.6160431986274366e+00 7.7220627992270522e+01 
946 548 2 1.0303168726712608e+00 -3.2376215699178056e+05 4.2000000000000000e+03 1.4229335556698365e+01 6.5032900248605054e+00 7.5441270132431342e+01 
1107 709 2 1.0300756827493522e+00 -3.4318713882185583e+05 4.2000000000000000e+03 1.4566130587594497e+01 6.5173793722237354e+00 7.5552039236855521e+01 
1861 1463 2 1.0264080772518951e+00 2.2326735374669998e+05 4.2000000000000000e+03 1.4399606252649134e+01 6.0146365608908754e+00 7.9781653005445790e+01 
609 211 2 1.0277584511909936e+00 2.0490731968278723e+05 4.2000000000000000e+03 1.4848934860656913e+01 5.9720358570855945e+00 7.9962145520076319e+01 
795 397 2 1.0353097285005139e+00 -1.7176639059962743e+05 4.2000000000000000e+03 1.7753809649803729e+00 6.6856698161609236e+00 7.5440695608299407e+01 
1442 1044 2 1.0249144336401941e+00 -5.0449007137136208e+05 4.2000000000000000e+03 1.3667258513148304e+00 9.2287108589994169e+00 7.4905010938638739e+01 
884 486 2 1.0268658965864457e+00 2.2320922719524568e+05 4.2000000000000000e+03 9.6188910097985925e-01 1.0109527055475478e+01 7.4853062238309050e+01 
754 356 2 1.0270242392621445e+00 -1.4061090685472844e+05 4.2000000000000000e+03 3.9945062997095554e-01 1.1762568018228835e+01 7.5092267667949656e+01 
1088 690 2 1.0282983177782383e+00 2.3022328784815111e+05 4.2000000000000000e+03 1.7526007303829374e+00 8.9129408764316125e+00 7.5080536177174125e+01 
886 488 2 1.0256096085138413e+00 -1.4940763261358647e+05 4.2000000000000000e+03 7.1791847952411791e-01 1.1749773637919990e+01 7.5100908896431065e+01 
1850 1452 2 1.0264515831061338e+00 -5.7059690517248877e+04 4.2000000000000000e+03 3.3717409403056742e+00 7.7332671917524864e+00 7.5922883454362292e+01 
1433 1035 2 1.0326436024641799e+00 -1.2836440023306891e+05 4.2000000000000000e+03 5.1061779344036164e+00 7.9872071913051972e+00 7.6891641622094440e+01 
1797 1399 2 1.0323552287819726e+00 4.1171214728519326e+05 4.2000000000000000e+03 3.8069587383287700e+00 8.3984949898813159e+00 7.6282542064763859e+01 
978 580 2 1.0214954146225548e+00 -3.3797006718028686e+05 4.2000000000000000e+03 4.5275511725667883e+00 9.4228949228598857e+00 7.6818384574766498e+01 
582 184 2 1.0294472200501499e+00 -4.2800165050291354e+04 4.2000000000000000e+03 4.4529509306819035e+00 1.3321181165708516e+01 7.7488902272955258e+01 
838 440 2 1.0264267465522450e+00 -1.6511404971049615e+05 4.2000000000000000e+03 3.7911120395631595e+00 8.6309128891080711e+00 7.9665759143791021e+01 
1984 1586 2 1.0332010055541525e+00 1.1016331625540576e+05 4.2000000000000000e+03 3.5414740547875798e+00 7.6853082059195916e+00 7.9393568349668143e+01 
926 528 2 1.0428658778186561e+00 -3.1764344613840751e+05 4.2000000000000000e+03 2.5060455108425650e-01 1.0718246014122922e+01 7.9998962508676939e+01 
765 367 2 1.0183201532733706e+00 1.2150519367424378e+05 4.2000000000000000e+03 8.1334612867432909e+00 6.6936939321759015e+00 7.5682949260571533e+01 
661 263 2 1.0302472789338786e+00 1.4424619439144255e+05 4.2000000000000000e+03 7.1817370387888575e+00 1.0683499010138616e+01 7.7593382377213587e+01 
950 552 2 1.0220855549318140e+00 -4.3422844167302916e+05 4.2000000000000000e+03 9.6622244951251943e+00 1.2471161197548515e+01 7.5919848672335860e+01 
968 570 2 1.0296932865917920e+00 -4.2934900200015385e+04 4.2000000000000000e+03 1.0227559552403383e+01 8.3767178036582308e+00 7.6485269916621220e+01 
589 191 2 1.0248081067470418e+00 2.1259540301211120e+05 4.2000000000000000e+03 9.9089637787315343e+00 1.2801401733514217e+01 7.5828143360410905e+01 
1495 1097 2 1.0264138174392319e+00 -3.7544830085121992e+05 4.2000000000000000e+03 9.8919428550909014e+00 1.3191360524478963e+01 7.5766631661422835e+01 
993 595 2 1.0280711164270011e+00 -8.0736798045705669e+04 4.2000000000000000e+03 1.0541765712704750e+01 1.2478606273427177e+01 7.5910230079563860e+01 
1802 1404 2 1.0275810293081813e+00 -1.0819757918920893e+05 4.2000000000000000e+03 1.0790767765266287e+01 9.5772903126669782e+00 7.6605880029001540e+01 
2051 1653 2 1.0246759777299699e+00 2.4370188537513794e+05 4.2000000000000000e+03 1.0654848080462447e+01 1.1251858702991399e+01 7.6208942775544784e+01 
1959 1561 2 1.0282527152362593e+00 1.7177673037745850e+05 4.2000000000000000e+03 1.0867438566322342e+01 7.8743926754951508e+00 7.9015942038721676e+01 
1384 986 2 1.0308909008713569e+00 1.3445087627427938e+05 4.2000000000000000e+03 9.6862276032183487e+00 9.4508490593168517e+00 7.9365972497614834e+01 
486 88 2 1.0229581136815995e+00 6.0534799694231355e+04 4.2000000000000000e+03 7.8907773104307948e+00 7.8179740425053419e+00 7.9232286201484897e+01 
1321 923 2 1.0307057027050481e+00 8.8464422437719732e+03 4.2000000000000000e+03 7.7006279138023839e+00 9.6161634300813876e+00 7.8934134485880548e+01 
1830 1432 2 1.0271143323232592e+00 -1.1987023301818481e+05 4.2000000000000000e+03 1.9782525770526423e+01 6.7221024347904876e+00 7.7310990416605563e+01 
841 443 2 1.0276706949247605e+00 1.0138917688444666e+03 4.2000000000000000e+03 1.4436997628680784e+01 8.3046110296255478e+00 7.6939274017098853e+01 
923 525 2 1.0294453814048601e+00 -2.1187132154303297e+05 4.2000000000000000e+03 1.4396620160723476e+01 8.8669594133696865e+00 7.7457478147692711e+01 
2080 1682 2 1.0376967424710155e+00 1.3096095376435551e+05 4.2000000000000000e+03 1.3679493076194102e+01 1.0090629348268125e+01 7.8175089410691427e+01 
1780 1382 2 1.0254708995300448e+00 1.2159114230341319e+05 4.2000000000000000e+03 1.4252961474969325e+01 1.2962201651698930e+01 7.8389931030291507e+01 
2045 1647 2 1.0269786024558376e+00 2.1684475798299850e+05 4.2000000000000000e+03 1.4435436853407886e+01 1.2052994243062784e+01 7.8956600747877943e+01 
1812 1414 2 1.0326311040496066e+00 1.7772847194376422e+05 4.2000000000000000e+03 1.5433008554233199e+01 1.0308449243138707e+01 7.9617154012425402e+01 
638 240 2 1.0291469677212284e+00 -7.9479554303770065e+03 4.2000000000000000e+03 1.5488171895729822e+01 1.1422344094800456e+01 7.9603967707195352e+01 
894 496 2 1.0228127089759107e+00 -1.8862745301443804e+05 4.2000000000000000e+03 1.7212025557343956e+01 1.0095643091224670e+01 7.8953903198457937e+01 
1773 1375 2 1.0317992378627252e+00 1.3820342558119749e+05 4.2000000000000000e+03 1.4975064981119255e+01 1.1717196437971412e+01 7.9736318561726193e+01 
510 112 2 1.0367607331028070e+00 -7.5701070658677170e+04 4.2000000000000000e+03 1.8748309176789931e+01 1.2568983471565952e+01 7.9696847045262743e+01 
1469 1071 2 1.0359402707669427e+00 -3.4056817476129516e+04 4.2000000000000000e+03 1.8775805311953910e+01 1.2419069484420897e+01 7.9727570816810555e+01 
1455 1057 2 1.0318440512498464e+00 -4.4680868312895147e+05 4.2000000000000000e+03 1.9843968400270303e+01 1.2139755936102400e+01 7.9653425896002673e+01 
1068 670 2 1.0334258860470613e+00 8.2120854149409133e+04 4.2000000000000000e+03 3.7270608495227915e+00 1.4075201838914191e+01 7.9515988044913513e+01 
899 501 2 1.0229915829322189e+00 -8.4184622096091698e+04 4.2000000000000000e+03 9.3227484967118035e-01 1.4345433655500248e+01 7.5958760506406421e+01 
1234 836 2 1.0256048968957221e+00 -2.2529417217808099e+04 4.2000000000000000e+03 2.1537434159147657e+00 1.4950468172772338e+01 7.6369686846701569e+01 
1270 872 2 1.0243881186418009e+00 -3.1954352306652261e+05 4.2000000000000000e+03 6.4249313848960410e-01 1.4421613714160188e+01 7.6003205755867413e+01 
546 148 2 1.0280086146069911e+00 1.0699051083287444e+05 4.2000000000000000e+03 4.9930350028324882e-01 1.4630451773633705e+01 7.6130356395276479e+01 
1824 1426 2 1.0248995878830269e+00 4.1468553401659476e+04 4.2000000000000000e+03 2.2496820360990122e+00 1.5197278202350907e+01 7.6441837641538612e+01 