LAMMPS data file via write_data, version 30 Jul 2016, timestep = 1000000

2080 atoms
8 atom types

0.0000000000000000e+00 4.0000000000000000e+01 xlo xhi
0.0000000000000000e+00 4.0000000000000000e+01 ylo yhi
0.0000000000000000e+00 1.0000000000000000e+02 zlo zhi

Masses

1 3.896
2 4.306
3 20.064
4 8.378
5 8.378
6 8.378
7 8.378
8 8.378

Atoms # meso-molecular

1 2 4 2.2559723595316457e+00 0.0000000000000000e+00 1.0000000000000000e+00 0.0000000000000000e+00 0.0000000000000000e+00 2.5000000000000000e+00 
2 2 4 2.2559723595316457e+00 0.0000000000000000e+00 1.0000000000000000e+00 0.0000000000000000e+00 2.0000000000000000e+00 2.5000000000000000e+00 
3 2 4 2.2559723595316457e+00 0.0000000000000000e+00 1.0000000000000000e+00 0.0000000000000000e+00 4.0000000000000000e+00 2.5000000000000000e+00 
4 2 4 2.2559723595316457e+00 0.0000000000000000e+00 1.0000000000000000e+00 0.0000000000000000e+00 6.0000000000000000e+00 2.5000000000000000e+00 
21 2 4 2.2559723595316457e+00 0.0000000000000000e+00 1.0000000000000000e+00 2.0000000000000000e+00 0.0000000000000000e+00 2.5000000000000000e+00 
22 2 4 2.2559723595316457e+00 0.0000000000000000e+00 1.0000000000000000e+00 2.0000000000000000e+00 2.0000000000000000e+00 2.5000000000000000e+00 
23 2 4 2.2559723595316457e+00 0.0000000000000000e+00 1.0000000000000000e+00 2.0000000000000000e+00 4.0000000000000000e+00 2.5000000000000000e+00 
24 2 4 2.2559723595316457e+00 0.0000000000000000e+00 1.0000000000000000e+00 2.0000000000000000e+00 6.0000000000000000e+00 2.5000000000000000e+00 
41 2 4 2.2559723595316457e+00 0.0000000000000000e+00 1.0000000000000000e+00 4.0000000000000000e+00 0.0000000000000000e+00 2.5000000000000000e+00 
42 2 4 2.2559723595316457e+00 0.0000000000000000e+00 1.0000000000000000e+00 4.0000000000000000e+00 2.0000000000000000e+00 2.5000000000000000e+00 
43 2 4 2.2559723595316457e+00 0.0000000000000000e+00 1.0000000000000000e+00 4.0000000000000000e+00 4.0000000000000000e+00 2.5000000000000000e+00 
44 2 4 2.2559723595316457e+00 0.0000000000000000e+00 1.0000000000000000e+00 4.0000000000000000e+00 6.0000000000000000e+00 2.5000000000000000e+00 
61 2 4 2.2559723595316457e+00 0.0000000000000000e+00 1.0000000000000000e+00 6.0000000000000000e+00 0.0000000000000000e+00 2.5000000000000000e+00 
62 2 4 2.2559723595316457e+00 0.0000000000000000e+00 1.0000000000000000e+00 6.0000000000000000e+00 2.0000000000000000e+00 2.5000000000000000e+00 
63 2 4 2.2559723595316457e+00 0.0000000000000000e+00 1.0000000000000000e+00 6.0000000000000000e+00 4.0000000000000000e+00 2.5000000000000000e+00 
64 2 4 2.2559723595316457e+00 0.0000000000000000e+00 1.0000000000000000e+00 6.0000000000000000e+00 6.0000000000000000e+00 2.5000000000000000e+00 
81 2 4 2.2559723595316457e+00 0.0000000000000000e+00 1.0000000000000000e+00 8.0000000000000000e+00 0.0000000000000000e+00 2.5000000000000000e+00 
82 2 4 2.2559723595316457e+00 0.0000000000000000e+00 1.0000000000000000e+00 8.0000000000000000e+00 2.0000000000000000e+00 2.5000000000000000e+00 
83 2 4 2.2559723595316457e+00 0.0000000000000000e+00 1.0000000000000000e+00 8.0000000000000000e+00 4.0000000000000000e+00 2.5000000000000000e+00 
84 2 4 2.2559723595316457e+00 0.0000000000000000e+00 1.0000000000000000e+00 8.0000000000000000e+00 6.0000000000000000e+00 2.5000000000000000e+00 
101 2 4 2.2559723595316457e+00 0.0000000000000000e+00 1.0000000000000000e+00 1.0000000000000000e+01 0.0000000000000000e+00 2.5000000000000000e+00 
102 2 4 2.2559723595316457e+00 0.0000000000000000e+00 1.0000000000000000e+00 1.0000000000000000e+01 2.0000000000000000e+00 2.5000000000000000e+00 
103 2 4 2.2559723595316457e+00 0.0000000000000000e+00 1.0000000000000000e+00 1.0000000000000000e+01 4.0000000000000000e+00 2.5000000000000000e+00 
104 2 4 2.2559723595316457e+00 -1.3765077732299629e+00 1.0000000000000000e+00 1.0000000000000000e+01 6.0000000000000000e+00 2.5000000000000000e+00 
121 2 4 2.2559723595316457e+00 0.0000000000000000e+00 1.0000000000000000e+00 1.2000000000000000e+01 0.0000000000000000e+00 2.5000000000000000e+00 
122 2 4 2.2559723595316457e+00 0.0000000000000000e+00 1.0000000000000000e+00 1.2000000000000000e+01 2.0000000000000000e+00 2.5000000000000000e+00 
123 2 4 2.2559723595316457e+00 -1.3765249227827776e+00 1.0000000000000000e+00 1.2000000000000000e+01 4.0000000000000000e+00 2.5000000000000000e+00 
124 2 4 2.2559723595316457e+00 -6.0161391336998356e+01 1.0000000000000000e+00 1.2000000000000000e+01 6.0000000000000000e+00 2.5000000000000000e+00 
141 2 4 2.2559723595316457e+00 0.0000000000000000e+00 1.0000000000000000e+00 1.4000000000000000e+01 0.0000000000000000e+00 2.5000000000000000e+00 
142 2 4 2.2559723595316457e+00 0.0000000000000000e+00 1.0000000000000000e+00 1.4000000000000000e+01 2.0000000000000000e+00 2.5000000000000000e+00 
143 2 4 2.2559723595316457e+00 -2.1549960430747696e+01 1.0000000000000000e+00 1.4000000000000000e+01 4.0000000000000000e+00 2.5000000000000000e+00 
144 2 4 2.2559723595316457e+00 -2.9411561555755776e+02 1.0000000000000000e+00 1.4000000000000000e+01 6.0000000000000000e+00 2.5000000000000000e+00 
161 2 4 2.2559723595316457e+00 0.0000000000000000e+00 1.0000000000000000e+00 1.6000000000000000e+01 0.0000000000000000e+00 2.5000000000000000e+00 
162 2 4 2.2559723595316457e+00 0.0000000000000000e+00 1.0000000000000000e+00 1.6000000000000000e+01 2.0000000000000000e+00 2.5000000000000000e+00 
163 2 4 2.2559723595316457e+00 -6.1325294929350243e+01 1.0000000000000000e+00 1.6000000000000000e+01 4.0000000000000000e+00 2.5000000000000000e+00 
164 2 4 2.2559723595316457e+00 -6.6631853980688004e+02 1.0000000000000000e+00 1.6000000000000000e+01 6.0000000000000000e+00 2.5000000000000000e+00 
181 2 4 2.2559723595316457e+00 0.0000000000000000e+00 1.0000000000000000e+00 1.8000000000000000e+01 0.0000000000000000e+00 2.5000000000000000e+00 
182 2 4 2.2559723595316457e+00 0.0000000000000000e+00 1.0000000000000000e+00 1.8000000000000000e+01 2.0000000000000000e+00 2.5000000000000000e+00 
183 2 4 2.2559723595316457e+00 -8.9328601874133483e+01 1.0000000000000000e+00 1.8000000000000000e+01 4.0000000000000000e+00 2.5000000000000000e+00 
184 2 4 2.2559723595316457e+00 -9.4395254441442228e+02 1.0000000000000000e+00 1.8000000000000000e+01 6.0000000000000000e+00 2.5000000000000000e+00 
5 2 4 2.2559723595316457e+00 0.0000000000000000e+00 1.0000000000000000e+00 0.0000000000000000e+00 8.0000000000000000e+00 2.5000000000000000e+00 
6 2 4 2.2559723595316457e+00 0.0000000000000000e+00 1.0000000000000000e+00 0.0000000000000000e+00 1.0000000000000000e+01 2.5000000000000000e+00 
7 2 4 2.2559723595316457e+00 0.0000000000000000e+00 1.0000000000000000e+00 0.0000000000000000e+00 1.2000000000000000e+01 2.5000000000000000e+00 
25 2 4 2.2559723595316457e+00 0.0000000000000000e+00 1.0000000000000000e+00 2.0000000000000000e+00 8.0000000000000000e+00 2.5000000000000000e+00 
26 2 4 2.2559723595316457e+00 0.0000000000000000e+00 1.0000000000000000e+00 2.0000000000000000e+00 1.0000000000000000e+01 2.5000000000000000e+00 
27 2 4 2.2559723595316457e+00 0.0000000000000000e+00 1.0000000000000000e+00 2.0000000000000000e+00 1.2000000000000000e+01 2.5000000000000000e+00 
45 2 4 2.2559723595316457e+00 0.0000000000000000e+00 1.0000000000000000e+00 4.0000000000000000e+00 8.0000000000000000e+00 2.5000000000000000e+00 
46 2 4 2.2559723595316457e+00 0.0000000000000000e+00 1.0000000000000000e+00 4.0000000000000000e+00 1.0000000000000000e+01 2.5000000000000000e+00 
47 2 4 2.2559723595316457e+00 0.0000000000000000e+00 1.0000000000000000e+00 4.0000000000000000e+00 1.2000000000000000e+01 2.5000000000000000e+00 
65 2 4 2.2559723595316457e+00 0.0000000000000000e+00 1.0000000000000000e+00 6.0000000000000000e+00 8.0000000000000000e+00 2.5000000000000000e+00 
66 2 4 2.2559723595316457e+00 0.0000000000000000e+00 1.0000000000000000e+00 6.0000000000000000e+00 1.0000000000000000e+01 2.5000000000000000e+00 
67 2 4 2.2559723595316457e+00 -1.1659126386525834e-05 1.0000000000000000e+00 6.0000000000000000e+00 1.2000000000000000e+01 2.5000000000000000e+00 
85 2 4 2.2559723595316457e+00 0.0000000000000000e+00 1.0000000000000000e+00 8.0000000000000000e+00 8.0000000000000000e+00 2.5000000000000000e+00 
86 2 4 2.2559723595316457e+00 0.0000000000000000e+00 1.0000000000000000e+00 8.0000000000000000e+00 1.0000000000000000e+01 2.5000000000000000e+00 
87 2 4 2.2559723595316457e+00 -1.1645479600213748e-05 1.0000000000000000e+00 8.0000000000000000e+00 1.2000000000000000e+01 2.5000000000000000e+00 
105 2 4 2.2559723595316457e+00 -2.1562726242257845e+01 1.0000000000000000e+00 1.0000000000000000e+01 8.0000000000000000e+00 2.5000000000000000e+00 
106 2 4 2.2559723595316457e+00 -6.1686652891331313e+01 1.0000000000000000e+00 1.0000000000000000e+01 1.0000000000000000e+01 2.5000000000000000e+00 
107 2 4 2.2559723595316457e+00 -9.1933241097769056e+01 1.0000000000000000e+00 1.0000000000000000e+01 1.2000000000000000e+01 2.5000000000000000e+00 
125 2 4 2.2559723595316457e+00 -2.9460327545566815e+02 1.0000000000000000e+00 1.2000000000000000e+01 8.0000000000000000e+00 2.5000000000000000e+00 
126 2 4 2.2559723595316457e+00 -6.7287395567067642e+02 1.0000000000000000e+00 1.2000000000000000e+01 1.0000000000000000e+01 2.5000000000000000e+00 
127 2 4 2.2559723595316457e+00 -9.8072636701675924e+02 1.0000000000000000e+00 1.2000000000000000e+01 1.2000000000000000e+01 2.5000000000000000e+00 
145 2 4 2.2559723595316457e+00 -1.1483928356234994e+03 1.0000000000000000e+00 1.4000000000000000e+01 8.0000000000000000e+00 2.5000000000000000e+00 
146 2 4 2.2559723595316457e+00 -2.4298139926685431e+03 1.0000000000000000e+00 1.4000000000000000e+01 1.0000000000000000e+01 2.5000000000000000e+00 
147 2 4 2.2559723595316457e+00 -3.4900205318468593e+03 1.0000000000000000e+00 1.4000000000000000e+01 1.2000000000000000e+01 2.5000000000000000e+00 
165 2 4 2.2559723595316457e+00 -2.4095600863595073e+03 1.0000000000000000e+00 1.6000000000000000e+01 8.0000000000000000e+00 2.5000000000000000e+00 
166 2 4 2.2559723595316457e+00 -4.9629733518829289e+03 1.0000000000000000e+00 1.6000000000000000e+01 1.0000000000000000e+01 2.5000000000000000e+00 
167 2 4 2.2559723595316457e+00 -7.0893638697577762e+03 1.0000000000000000e+00 1.6000000000000000e+01 1.2000000000000000e+01 2.5000000000000000e+00 
185 2 4 2.2559723595316457e+00 -3.3622981350780069e+03 1.0000000000000000e+00 1.8000000000000000e+01 8.0000000000000000e+00 2.5000000000000000e+00 
186 2 4 2.2559723595316457e+00 -6.8914113073871968e+03 1.0000000000000000e+00 1.8000000000000000e+01 1.0000000000000000e+01 2.5000000000000000e+00 
187 2 4 2.2559723595316457e+00 -9.8374790867055763e+03 1.0000000000000000e+00 1.8000000000000000e+01 1.2000000000000000e+01 2.5000000000000000e+00 
8 2 4 2.2559723595316457e+00 0.0000000000000000e+00 1.0000000000000000e+00 0.0000000000000000e+00 1.4000000000000000e+01 2.5000000000000000e+00 
9 2 4 2.2559723595316457e+00 0.0000000000000000e+00 1.0000000000000000e+00 0.0000000000000000e+00 1.6000000000000000e+01 2.5000000000000000e+00 
10 2 4 2.2559723595316457e+00 0.0000000000000000e+00 1.0000000000000000e+00 0.0000000000000000e+00 1.8000000000000000e+01 2.5000000000000000e+00 
28 2 4 2.2559723595316457e+00 0.0000000000000000e+00 1.0000000000000000e+00 2.0000000000000000e+00 1.4000000000000000e+01 2.5000000000000000e+00 
29 2 4 2.2559723595316457e+00 0.0000000000000000e+00 1.0000000000000000e+00 2.0000000000000000e+00 1.6000000000000000e+01 2.5000000000000000e+00 
30 2 4 2.2559723595316457e+00 0.0000000000000000e+00 1.0000000000000000e+00 2.0000000000000000e+00 1.8000000000000000e+01 2.5000000000000000e+00 
48 2 4 2.2559723595316457e+00 0.0000000000000000e+00 1.0000000000000000e+00 4.0000000000000000e+00 1.4000000000000000e+01 2.5000000000000000e+00 
49 2 4 2.2559723595316457e+00 0.0000000000000000e+00 1.0000000000000000e+00 4.0000000000000000e+00 1.6000000000000000e+01 2.5000000000000000e+00 
50 2 4 2.2559723595316457e+00 0.0000000000000000e+00 1.0000000000000000e+00 4.0000000000000000e+00 1.8000000000000000e+01 2.5000000000000000e+00 
68 2 4 2.2559723595316457e+00 1.1774370162041770e-05 1.0000000000000000e+00 6.0000000000000000e+00 1.4000000000000000e+01 2.5000000000000000e+00 
69 2 4 2.2559723595316457e+00 0.0000000000000000e+00 1.0000000000000000e+00 6.0000000000000000e+00 1.6000000000000000e+01 2.5000000000000000e+00 
70 2 4 2.2559723595316457e+00 0.0000000000000000e+00 1.0000000000000000e+00 6.0000000000000000e+00 1.8000000000000000e+01 2.5000000000000000e+00 
88 2 4 2.2559723595316457e+00 -5.3463018486818670e-05 1.0000000000000000e+00 8.0000000000000000e+00 1.4000000000000000e+01 2.5000000000000000e+00 
89 2 4 2.2559723595316457e+00 -1.0904707212943459e-09 1.0000000000000000e+00 8.0000000000000000e+00 1.6000000000000000e+01 2.5000000000000000e+00 
90 2 4 2.2559723595316457e+00 1.2488600980018470e-07 1.0000000000000000e+00 8.0000000000000000e+00 1.8000000000000000e+01 2.5000000000000000e+00 
108 2 4 2.2559723595316457e+00 -1.0093770577944406e+02 1.0000000000000000e+00 1.0000000000000000e+01 1.4000000000000000e+01 2.5000000000000000e+00 
109 2 4 2.2559723595316457e+00 -1.0283538821095591e+02 1.0000000000000000e+00 1.0000000000000000e+01 1.6000000000000000e+01 2.5000000000000000e+00 
110 2 4 2.2559723595316457e+00 -1.0289282018149802e+02 1.0000000000000000e+00 1.0000000000000000e+01 1.8000000000000000e+01 2.5000000000000000e+00 
128 2 4 2.2559723595316457e+00 -1.1061032955443982e+03 1.0000000000000000e+00 1.2000000000000000e+01 1.4000000000000000e+01 2.5000000000000000e+00 
129 2 4 2.2559723595316457e+00 -1.1327186425513928e+03 1.0000000000000000e+00 1.2000000000000000e+01 1.6000000000000000e+01 2.5000000000000000e+00 
130 2 4 2.2559723595316457e+00 -1.1355155663721162e+03 1.0000000000000000e+00 1.2000000000000000e+01 1.8000000000000000e+01 2.5000000000000000e+00 
148 2 4 2.2559723595316457e+00 -3.9546424730226709e+03 1.0000000000000000e+00 1.4000000000000000e+01 1.4000000000000000e+01 2.5000000000000000e+00 
149 2 4 2.2559723595316457e+00 -4.0524863983209470e+03 1.0000000000000000e+00 1.4000000000000000e+01 1.6000000000000000e+01 2.5000000000000000e+00 
150 2 4 2.2559723595316457e+00 -4.0646298244162526e+03 1.0000000000000000e+00 1.4000000000000000e+01 1.8000000000000000e+01 2.5000000000000000e+00 
168 2 4 2.2559723595316457e+00 -8.0380259577539055e+03 1.0000000000000000e+00 1.6000000000000000e+01 1.4000000000000000e+01 2.5000000000000000e+00 
169 2 4 2.2559723595316457e+00 -8.2269573990882400e+03 1.0000000000000000e+00 1.6000000000000000e+01 1.6000000000000000e+01 2.5000000000000000e+00 
170 2 4 2.2559723595316457e+00 -8.2476781201873528e+03 1.0000000000000000e+00 1.6000000000000000e+01 1.8000000000000000e+01 2.5000000000000000e+00 
188 2 4 2.2559723595316457e+00 -1.1141553346437970e+04 1.0000000000000000e+00 1.8000000000000000e+01 1.4000000000000000e+01 2.5000000000000000e+00 
189 2 4 2.2559723595316457e+00 -1.1383794627608611e+04 1.0000000000000000e+00 1.8000000000000000e+01 1.6000000000000000e+01 2.5000000000000000e+00 
190 2 4 2.2559723595316457e+00 -1.1406723018683817e+04 1.0000000000000000e+00 1.8000000000000000e+01 1.8000000000000000e+01 2.5000000000000000e+00 
1256 858 2 1.0279999268732181e+00 -2.9618208967778232e+03 1.0000000000000000e+00 1.9292685754720800e+01 1.2112683127746900e+01 6.8847292008634426e+01 
1374 976 2 1.0279999136322877e+00 5.0669784433294637e+02 1.0000000000000000e+00 1.9856011310986840e+01 1.1629100832648545e+01 6.8921830173107992e+01 
1840 1442 2 1.0279998546635849e+00 -7.1999329141672106e+03 1.0000000000000000e+00 1.8843955917629238e+01 1.1930543904248021e+01 6.9126313468336036e+01 
1647 1249 2 1.0279998215928439e+00 9.7514937907424610e+02 1.0000000000000000e+00 1.8921512614151727e+01 1.1690661650514388e+01 6.9294245990095078e+01 
820 422 2 1.0279998193619500e+00 -3.7979984637060575e+03 1.0000000000000000e+00 1.8937864708506275e+01 1.1663221468576706e+01 6.9315856958912278e+01 
1389 991 2 1.0279997810022412e+00 1.1038029765939127e+04 1.0000000000000000e+00 1.8131843327159366e+01 1.2011878468434714e+01 6.9420159104543103e+01 
1465 1067 2 1.0279997306461961e+00 3.8161879262073194e+03 1.0000000000000000e+00 1.7725683224035333e+01 1.2030058424451283e+01 6.9645895340652459e+01 
1475 1077 2 1.0279997655571915e+00 1.0910609102844895e+04 1.0000000000000000e+00 1.7196447979013119e+01 1.2390144662206136e+01 6.9682445237727492e+01 
1899 1501 2 1.0279997115394535e+00 6.9918100323887347e+02 1.0000000000000000e+00 1.7639881120820053e+01 1.1999691854150866e+01 6.9738594327438875e+01 
751 353 2 1.0279997288027334e+00 -8.2824266923671519e+02 1.0000000000000000e+00 1.7310930002609428e+01 1.2201549971070945e+01 6.9758118110000908e+01 
966 568 2 1.0279997226132118e+00 1.1366307556283340e+04 1.0000000000000000e+00 1.8339969485788178e+01 1.1646053183282040e+01 6.9739491701539279e+01 
927 529 2 1.0279997112060535e+00 9.4586080777307998e+03 1.0000000000000000e+00 1.7490530316051071e+01 1.2064482264740461e+01 6.9771661545567568e+01 
1592 1194 2 1.0279997010721251e+00 -7.1660850763494636e+03 1.0000000000000000e+00 1.7766859668341606e+01 1.1901401014964645e+01 6.9771620750635734e+01 
1340 942 2 1.0279996940858260e+00 -2.5770576924684292e+03 1.0000000000000000e+00 1.7800766666452933e+01 1.1847928936336334e+01 6.9825449912887748e+01 
748 350 2 1.0279997080256327e+00 -3.2665216218119440e+03 1.0000000000000000e+00 1.7204540307884113e+01 1.2159873721273769e+01 6.9882423442440526e+01 
981 583 2 1.0279997242651324e+00 1.6378150700658148e+03 1.0000000000000000e+00 1.7003825449528815e+01 1.2285627658429359e+01 6.9909019848166963e+01 
1536 1138 2 1.0279996904849205e+00 1.6312341591890831e+03 1.0000000000000000e+00 1.8101227748654377e+01 1.1670718749241411e+01 6.9902447134167815e+01 
1946 1548 2 1.0279997055398398e+00 2.7383566452546438e+03 1.0000000000000000e+00 1.8395569056984431e+01 1.1553316462940863e+01 6.9911086421650793e+01 
1867 1469 2 1.0279997115380484e+00 -1.2481360149565025e+03 1.0000000000000000e+00 1.8436480133084718e+01 1.1536798687038948e+01 6.9916836004683631e+01 
1825 1427 2 1.0279996925993478e+00 -6.8955167335449960e+03 1.0000000000000000e+00 1.7167764994111785e+01 1.2114304881419821e+01 6.9971534648537329e+01 
825 427 2 1.0279996653889836e+00 -4.1387734291943771e+03 1.0000000000000000e+00 1.7312925526383388e+01 1.1960936902942079e+01 7.0081135783229797e+01 
702 304 2 1.0279996564035991e+00 -1.1920834317238057e+03 1.0000000000000000e+00 1.7332722202187572e+01 1.1922226347825680e+01 7.0141882615307523e+01 
1401 1003 2 1.0279996678125110e+00 -4.5935965892811510e+02 1.0000000000000000e+00 1.7141376696682876e+01 1.2027908970658061e+01 7.0139848909300966e+01 
519 121 2 1.0279996746196569e+00 -4.3376011364365577e+03 1.0000000000000000e+00 1.7015105090142548e+01 1.2092263828346683e+01 7.0162482497057525e+01 
1920 1522 2 1.0279996563801455e+00 -1.7591685778889001e+04 1.0000000000000000e+00 1.7213559102957589e+01 1.1972133596950918e+01 7.0172017340861032e+01 
1171 773 2 1.0279997445140834e+00 3.8333504319771723e+03 1.0000000000000000e+00 1.6552812448880463e+01 1.2415647135215746e+01 7.0196981623053816e+01 
1908 1510 2 1.0279996519023027e+00 -2.1244372244852639e+03 1.0000000000000000e+00 1.7333076150414591e+01 1.1896742714448505e+01 7.0205949036592955e+01 
715 317 2 1.0279996538757499e+00 3.3857440584612359e+03 1.0000000000000000e+00 1.7157967999103207e+01 1.1964203835155617e+01 7.0265712858619125e+01 
1757 1359 2 1.0279996551019517e+00 -8.5330591617020054e+03 1.0000000000000000e+00 1.7027074840531299e+01 1.2004630118615818e+01 7.0351376667316799e+01 
1370 972 2 1.0279997073532394e+00 -7.7622991119042388e+02 1.0000000000000000e+00 1.6539428226817712e+01 1.2270786631910370e+01 7.0466112951756045e+01 
1924 1526 2 1.0279996969365630e+00 -5.2333451114508798e+03 1.0000000000000000e+00 1.6578593975307871e+01 1.2186669761685920e+01 7.0654349942843808e+01 
727 329 2 1.0279996451659132e+00 3.9313064122482507e+02 1.0000000000000000e+00 1.7100713828681808e+01 1.1907812330395625e+01 7.0735081182672999e+01 
1421 1023 2 1.0279998459483575e+00 4.8361353051489527e+02 1.0000000000000000e+00 1.5880779511225883e+01 1.2774915330368362e+01 7.0779953080048784e+01 
810 412 2 1.0279998231280947e+00 -1.7743198994267038e+03 1.0000000000000000e+00 1.5944865107528345e+01 1.2685673791293079e+01 7.0803966732737607e+01 
469 71 2 1.0279996486095906e+00 -5.4582493769614539e+03 1.0000000000000000e+00 1.7097471765838968e+01 1.1909931231188033e+01 7.0809578522478375e+01 
1605 1207 2 1.0279996709649684e+00 -3.1703689534974096e+03 1.0000000000000000e+00 1.6808292784454189e+01 1.2043294773820547e+01 7.0978913010451393e+01 
1619 1221 2 1.0279997411145407e+00 8.0445451073381391e+03 1.0000000000000000e+00 1.6262897180057664e+01 1.2361551086719803e+01 7.1135686506609005e+01 
2007 1609 2 1.0279997403435923e+00 -8.2789628041754895e+01 1.0000000000000000e+00 1.6424403132802745e+01 1.2355932787517681e+01 7.1570357994515049e+01 
2074 1676 2 1.0279998029798605e+00 -1.1652590184607759e+03 1.0000000000000000e+00 1.6002040701962045e+01 1.2799333029850882e+01 7.1958483533325406e+01 
1405 1007 2 1.0279999741180794e+00 -3.2518857595097252e+03 1.0000000000000000e+00 1.5606602323682862e+01 1.3297024966653881e+01 7.0781243781977253e+01 
779 381 2 1.0279999626170362e+00 8.0040269649206330e+03 1.0000000000000000e+00 1.9753202050565150e+01 1.9032229634632397e+01 6.9296940423959015e+01 
1656 1258 2 1.0280004156793212e+00 -4.7000110268183080e+03 1.0000000000000000e+00 1.8493574654494239e+01 1.6074984395273699e+01 6.9990028074274548e+01 
451 53 2 1.0280004094197495e+00 -1.0768901074757473e+02 1.0000000000000000e+00 1.8528987993999220e+01 1.8872052338856157e+01 7.0190095510414778e+01 
2062 1664 2 1.0280000226242452e+00 6.5783814294615804e+03 1.0000000000000000e+00 1.5876565741720420e+01 1.3524273456362680e+01 7.0290223810680217e+01 
408 10 2 1.0280004693732760e+00 -1.7584113880187968e+04 1.0000000000000000e+00 1.7140630552031755e+01 1.5486768505989739e+01 7.0353024011754712e+01 
2080 1682 2 1.0280000084546805e+00 -1.8484091339112434e+04 1.0000000000000000e+00 1.5726347816073758e+01 1.3430841379010531e+01 7.0497071100397235e+01 
1483 1085 2 1.0280007776646052e+00 3.3681848260681300e+03 1.0000000000000000e+00 1.8044452221727280e+01 1.6723196364375298e+01 7.0486198526943085e+01 
568 170 2 1.0280002521359084e+00 -1.8479442458407855e+04 1.0000000000000000e+00 1.5896730830105485e+01 1.4775585280891642e+01 7.0792551869966942e+01 
1248 850 2 1.0280004995433569e+00 -3.0019745342484725e+03 1.0000000000000000e+00 1.6618031408058815e+01 1.5558441163993624e+01 7.0809723085403718e+01 
1467 1069 2 1.0280005035911384e+00 5.2752767073371106e+03 1.0000000000000000e+00 1.6592251652337879e+01 1.5592005190428047e+01 7.0874028205129136e+01 
770 372 2 1.0280005681016278e+00 2.6865502692476034e+03 1.0000000000000000e+00 1.6749801626931212e+01 1.5740741864772193e+01 7.0877769876099308e+01 
700 302 2 1.0280001456061358e+00 8.0090529288455928e+03 1.0000000000000000e+00 1.5571329329844547e+01 1.4429027779184601e+01 7.1023483734247819e+01 
1190 792 2 1.0280001953528415e+00 2.8017770035663029e+03 1.0000000000000000e+00 1.5725168099272326e+01 1.4775312045659398e+01 7.1079162773322068e+01 
1718 1320 2 1.0280001171224455e+00 4.0919526142930981e+03 1.0000000000000000e+00 1.5505276152356576e+01 1.4313797629121588e+01 7.1083943458369674e+01 
1249 851 2 1.0280000501604580e+00 -5.4572607351576207e+03 1.0000000000000000e+00 1.5410390950215234e+01 1.3932360995504387e+01 7.1154900677033069e+01 
1925 1527 2 1.0280000777306249e+00 -6.6342529350995273e+03 1.0000000000000000e+00 1.5438905309855144e+01 1.4148568566271614e+01 7.1155909903407192e+01 
1573 1175 2 1.0280001111566279e+00 -7.4124215880174306e+03 1.0000000000000000e+00 1.5514738764839537e+01 1.4418958831499738e+01 7.1161974306971587e+01 
1208 810 2 1.0280000224980321e+00 4.2248882269675487e+03 1.0000000000000000e+00 1.5400683743649976e+01 1.3757129035911227e+01 7.1194776706030382e+01 
1900 1502 2 1.0280001784765278e+00 -3.6012410837351981e+03 1.0000000000000000e+00 1.5718112321651116e+01 1.4846593625929154e+01 7.1197142054357016e+01 
659 261 2 1.0280000657826156e+00 -1.9928753371111522e+03 1.0000000000000000e+00 1.5428719021277869e+01 1.4187087781383703e+01 7.1224540699787610e+01 
1257 859 2 1.0280000319283948e+00 1.8703026872880389e+02 1.0000000000000000e+00 1.5388661511469246e+01 1.3998632833869234e+01 7.1279492110562913e+01 
1081 683 2 1.0280001334156079e+00 -5.4635396050470827e+03 1.0000000000000000e+00 1.5631168924957226e+01 1.4743676109759971e+01 7.1266359085107283e+01 
724 326 2 1.0280000705339127e+00 -3.5896624945228018e+03 1.0000000000000000e+00 1.5459966438736943e+01 1.4362664331876280e+01 7.1286182284429316e+01 
1312 914 2 1.0280000594214085e+00 -4.3856118415921492e+03 1.0000000000000000e+00 1.5439659930033777e+01 1.4301052272403048e+01 7.1295916093117356e+01 
1876 1478 2 1.0280001241685348e+00 8.0086484375495493e+03 1.0000000000000000e+00 1.5658712769838333e+01 1.4839679908176496e+01 7.1354160662725221e+01 
878 480 2 1.0280000596634855e+00 4.0930900715439116e+03 1.0000000000000000e+00 1.5490290342623450e+01 1.4509828555004361e+01 7.1379449717055692e+01 
949 551 2 1.0280000122786117e+00 4.9574326101333463e+03 1.0000000000000000e+00 1.5418593663676763e+01 1.4334457044188346e+01 7.1464712416855448e+01 
1459 1061 2 1.0279999800584150e+00 7.7751616890305431e+03 1.0000000000000000e+00 1.5363422849302850e+01 1.4005883740888855e+01 7.1489551693566312e+01 
1418 1020 2 1.0280000124164994e+00 6.5442999600255207e+03 1.0000000000000000e+00 1.5463544715123758e+01 1.4498772816173700e+01 7.1508439450713183e+01 
795 397 2 1.0280000521800754e+00 7.1495819098569461e+02 1.0000000000000000e+00 1.5601582073571404e+01 1.4812745247009483e+01 7.1526440989790174e+01 
1251 853 2 1.0279999970050915e+00 1.3003277817683422e+03 1.0000000000000000e+00 1.5439973206458230e+01 1.4437482395375016e+01 7.1532504916208879e+01 
1835 1437 2 1.0280000123636357e+00 -1.9903499113046005e+03 1.0000000000000000e+00 1.5488430672924483e+01 1.4573966893838591e+01 7.1533022160134038e+01 
1687 1289 2 1.0279999658155143e+00 -2.3996913510575341e+03 1.0000000000000000e+00 1.5407354036489222e+01 1.4341658527820098e+01 7.1598628391307514e+01 
550 152 2 1.0279999307045766e+00 6.5748743443580033e+03 1.0000000000000000e+00 1.5382249132673897e+01 1.3674237653508470e+01 7.1615294572175657e+01 
1080 682 2 1.0279999803662028e+00 -3.0116312435352161e+03 1.0000000000000000e+00 1.5524007555234320e+01 1.4691002729339544e+01 7.1648022761798629e+01 
1449 1051 2 1.0279999451837170e+00 4.8991326719289455e+03 1.0000000000000000e+00 1.5425272172570628e+01 1.4424202845588084e+01 7.1673275806070833e+01 
1022 624 2 1.0280005604067231e+00 1.6917946485283105e+03 1.0000000000000000e+00 1.7935883126959482e+01 1.8648495534649690e+01 7.1676718106920859e+01 
1083 685 2 1.0279999146196297e+00 1.3055659850982684e+03 1.0000000000000000e+00 1.5382543417876738e+01 1.4230713572295615e+01 7.1730140089031238e+01 
945 547 2 1.0279998778082300e+00 4.9033759424390710e+03 1.0000000000000000e+00 1.5402391575220488e+01 1.4320497778457115e+01 7.1836447201168497e+01 
847 449 2 1.0279999556393062e+00 -2.4041428978354211e+03 1.0000000000000000e+00 1.5720422162455270e+01 1.5086660280884891e+01 7.1849898338464470e+01 
1963 1565 2 1.0279998670947696e+00 -1.0202662593692911e+02 1.0000000000000000e+00 1.5377987698769095e+01 1.4078530363313279e+01 7.1873847875696839e+01 
1118 720 2 1.0279998244133064e+00 2.2146765572793165e+03 1.0000000000000000e+00 1.5434015421559597e+01 1.4421246945897630e+01 7.1967526716930223e+01 
1286 888 2 1.0279998226829139e+00 2.2165627426948795e+03 1.0000000000000000e+00 1.5421133003796017e+01 1.4356111360983386e+01 7.1973838028416878e+01 
1845 1447 2 1.0279998118922711e+00 -9.4437238867091146e+03 1.0000000000000000e+00 1.5409495307387676e+01 1.4249563003205552e+01 7.2008814847850843e+01 
1357 959 2 1.0279997920976809e+00 6.2937127353347560e+03 1.0000000000000000e+00 1.5555264082939244e+01 1.4770828169374573e+01 7.2059747989694984e+01 
963 565 2 1.0279997756931554e+00 5.2692775416724926e+03 1.0000000000000000e+00 1.5663341993852116e+01 1.4988274219107897e+01 7.2134202828537653e+01 
1610 1212 2 1.0279997396512461e+00 2.6904130481917691e+03 1.0000000000000000e+00 1.5467572957039023e+01 1.4452936581627061e+01 7.2156581918059985e+01 
669 271 2 1.0279996632240571e+00 -9.4436974683165263e+03 1.0000000000000000e+00 1.5518978969481763e+01 1.4541656246751646e+01 7.2311294145232011e+01 
1026 628 2 1.0279996398730789e+00 9.4534966570056497e+02 1.0000000000000000e+00 1.5672793331949535e+01 1.4954237997059293e+01 7.2354933285771722e+01 
1358 960 2 1.0279996151243977e+00 2.8011914885712981e+03 1.0000000000000000e+00 1.5596020127052528e+01 1.4750127771178986e+01 7.2385813241562118e+01 
1453 1055 2 1.0279995349469642e+00 4.9666206690660956e+03 1.0000000000000000e+00 1.5675047295172604e+01 1.4883034218485955e+01 7.2516227806977568e+01 
1499 1101 2 1.0279995007110190e+00 2.7167350434242853e+03 1.0000000000000000e+00 1.5678962869427959e+01 1.4857117328579653e+01 7.2570569107262514e+01 
955 557 2 1.0279995116341460e+00 7.7872171386664941e+03 1.0000000000000000e+00 1.5612269774402852e+01 1.4604991796166900e+01 7.2594363094954886e+01 
1609 1211 2 1.0279996952026089e+00 -1.8245278855136901e+03 1.0000000000000000e+00 1.5721104201765499e+01 1.3752189532913556e+01 7.2672821130770473e+01 
723 325 2 1.0279995761182843e+00 6.9982127801155366e+02 1.0000000000000000e+00 1.5706063576452980e+01 1.4056290942325678e+01 7.2810272100046447e+01 
1530 1132 2 1.0280005319506302e+00 9.8027699928822119e+02 1.0000000000000000e+00 1.7588233887247558e+01 1.7597507079556344e+01 7.2905115858819798e+01 
2040 1642 2 1.0279997041736473e+00 1.2081097033231838e+03 1.0000000000000000e+00 1.8953752171598349e+01 1.3710221259383507e+01 7.2945182139427402e+01 
1156 758 2 1.0280002185974582e+00 1.1459066938249841e+03 1.0000000000000000e+00 1.6168060852757321e+01 1.1722974021003392e+01 7.8760090926357293e+01 
937 539 2 1.0280002241672415e+00 1.7911069633111151e+03 1.0000000000000000e+00 1.5542075250032147e+01 1.2218959523600441e+01 7.8806348933986698e+01 