LAMMPS data file via write_data, version 30 Jul 2016, timestep = 50000000

180 atoms
2 atom types

0.0000000000000000e+00 2.0000000000000000e+01 xlo xhi
0.0000000000000000e+00 2.0000000000000000e+01 ylo yhi
0.0000000000000000e+00 2.0000000000000000e+01 zlo zhi

Masses

1 3.896
2 4.31

Atoms # meso-molecular

157 1 2 1.0280122482054264e+00 -2.4376992153666504e+02 1.0000000000000000e+00 4.9507733766037530e-02 5.8323026324048310e+00 9.1394605934851771e+00 
136 1 2 1.0279879216100829e+00 -1.9675501296077940e+02 1.0000000000000000e+00 4.7535805349831914e-02 5.8346716896650328e+00 9.1409461034948389e+00 
69 1 2 1.0279879216100476e+00 -2.4781460632260865e+02 1.0000000000000000e+00 4.7535805365451989e-02 5.8346716896471182e+00 9.1409461034872450e+00 
26 1 2 1.0279879216100800e+00 -1.9511095928161848e+02 1.0000000000000000e+00 4.7535805349182635e-02 5.8346716896658082e+00 9.1409461034951534e+00 
47 1 2 1.0279879216100782e+00 -2.3379817738011241e+02 1.0000000000000000e+00 4.7535805351381251e-02 5.8346716896632485e+00 9.1409461034941533e+00 
159 1 2 1.0279879216100809e+00 -2.9825504442753834e+02 1.0000000000000000e+00 4.7535805350331944e-02 5.8346716896644590e+00 9.1409461034946293e+00 
46 1 2 1.0281156765723640e+00 -1.8224423301586097e+02 1.0000000000000000e+00 3.5035374618657924e+00 9.4458943518191614e+00 7.3774079669708934e+00 
170 1 2 1.0278645249113787e+00 -2.2601758390677057e+02 1.0000000000000000e+00 3.8002755821751819e+00 8.2528851629292941e+00 8.9026007193430878e+00 
65 1 2 1.0281156767648369e+00 -2.0309427121225065e+02 1.0000000000000000e+00 3.5035383947634609e+00 9.4458949612757728e+00 7.3774074257848525e+00 
71 1 2 1.0281156767650577e+00 -1.9398900541264823e+02 1.0000000000000000e+00 3.5035383959019057e+00 9.4458949618046084e+00 7.3774074250247379e+00 
108 1 2 1.0281156767650566e+00 -2.4937764360490453e+02 1.0000000000000000e+00 3.5035383958269737e+00 9.4458949617682677e+00 7.3774074250741046e+00 
161 1 2 1.0278645437853573e+00 -3.3867887276547680e+02 1.0000000000000000e+00 3.7999861287794010e+00 8.2530825897821760e+00 8.9026505791504444e+00 
4 1 2 1.0279003451929747e+00 -2.1930587547046753e+02 1.0000000000000000e+00 3.8660046623174873e+00 8.3229929312316386e+00 9.0193281739881144e+00 
77 1 2 1.0279362907156246e+00 -2.0143839806273166e+02 1.0000000000000000e+00 4.3424902665503575e+00 8.1013768218849549e+00 8.7646439867762123e+00 
168 1 2 1.0278645352065379e+00 -1.6162881943117537e+02 1.0000000000000000e+00 3.8001176527637459e+00 8.2529928621478046e+00 8.9026279318909030e+00 
39 1 2 1.0279731302463941e+00 -2.5646811894238311e+02 1.0000000000000000e+00 4.7758732047025516e+00 9.7143881937297731e+00 7.3595407889881219e+00 
76 1 2 1.0280518785211887e+00 -2.1495065748962764e+02 1.0000000000000000e+00 5.9314583494294100e+00 9.8589977757433740e+00 9.1701610561406390e+00 
98 1 2 1.0280518743110540e+00 -2.6238164883602798e+02 1.0000000000000000e+00 5.9313118630374175e+00 9.8590178164026590e+00 9.1702024577952272e+00 
139 1 2 1.0280518721738949e+00 -2.2465356139290060e+02 1.0000000000000000e+00 5.9312374430705228e+00 9.8590344162072796e+00 9.1702190990769132e+00 
104 1 2 1.0280518721738940e+00 -2.3353641832538545e+02 1.0000000000000000e+00 5.9312374430609802e+00 9.8590344162087042e+00 9.1702190990795316e+00 
103 1 2 1.0280518721738932e+00 -2.2126946759932332e+02 1.0000000000000000e+00 5.9312374430667081e+00 9.8590344162078480e+00 9.1702190990779666e+00 
45 1 2 1.0279913158414293e+00 -2.1520937970551120e+02 1.0000000000000000e+00 4.5379105123663379e+00 9.9331909994004359e+00 7.4616275935298146e+00 
72 1 2 1.0279643970393539e+00 -2.5548302279970889e+02 1.0000000000000000e+00 1.9545808549799095e+00 2.4300176000687799e+00 1.1954875909179922e+01 
36 1 2 1.0279666355998696e+00 -2.9047240804720252e+02 1.0000000000000000e+00 1.9531719479362524e+00 2.4280513958131267e+00 1.1959791573528578e+01 
30 1 2 1.0279655733675528e+00 -2.5537141108161717e+02 1.0000000000000000e+00 1.9541621561792222e+00 2.4293879554638620e+00 1.1956359708492670e+01 
29 1 2 1.0279655793139815e+00 -2.4981830067119057e+02 1.0000000000000000e+00 1.9541573473293545e+00 2.4293821316521567e+00 1.1956376493125761e+01 
131 1 2 1.0279656353558191e+00 -2.3464956137261052e+02 1.0000000000000000e+00 1.9540996361163965e+00 2.4292598554028113e+00 1.1956587003117242e+01 
6 1 2 1.0279656682751281e+00 -2.3947780893590297e+02 1.0000000000000000e+00 1.9540373100000388e+00 2.4290664198087133e+00 1.1956824729682126e+01 
79 1 2 1.0280124025712389e+00 -2.6883236423075846e+02 1.0000000000000000e+00 5.7721237277576254e-01 1.8689832463211742e+00 1.2085987760653483e+01 
173 1 2 1.0280281426249889e+00 -2.2689197982547660e+02 1.0000000000000000e+00 9.2255406650152505e+00 8.4842885817314784e+00 6.4343963706036194e+00 
166 1 2 1.0280302614560153e+00 -2.3491733987672686e+02 1.0000000000000000e+00 9.2299807376375878e+00 8.4902374450531735e+00 6.4324577020783549e+00 
172 1 2 1.0280352794511380e+00 -2.6540635897426364e+02 1.0000000000000000e+00 9.2487642005755788e+00 8.5173261881739073e+00 6.4250829037648574e+00 
41 1 2 1.0280386130819341e+00 -2.4549318297959078e+02 1.0000000000000000e+00 9.3501923761004360e+00 8.5694977541306052e+00 6.4207757439361481e+00 
122 1 2 1.0280029170245397e+00 -2.9492499885033078e+02 1.0000000000000000e+00 7.9904746625531065e+00 9.0660327193314476e+00 6.7785283179271305e+00 
169 1 2 1.0280307854773463e+00 -3.4990797766353654e+02 1.0000000000000000e+00 8.8530826372137632e+00 9.2824402586962727e+00 6.8146287172949540e+00 
132 1 2 1.0279665315202196e+00 -2.4866939011540617e+02 1.0000000000000000e+00 7.8234308184108601e+00 8.8692139774356686e+00 7.6625150175896390e+00 
42 1 2 1.0278800489034186e+00 -2.6301870626639692e+02 1.0000000000000000e+00 7.2880263252063324e+00 9.1089498181678490e+00 7.8473858313801221e+00 
123 1 2 1.0278504202304040e+00 -2.6142477722304835e+02 1.0000000000000000e+00 7.2722279924898672e+00 9.1119736310361148e+00 7.8530756676592270e+00 
154 1 2 1.0280272970426925e+00 -2.7972245513321946e+02 1.0000000000000000e+00 7.6269555170675094e+00 9.3897235123467269e+00 7.6208710808376221e+00 
50 1 2 1.0279492320611907e+00 -2.7017684503923590e+02 1.0000000000000000e+00 1.1529518735917177e+01 7.6075756692261542e+00 7.3106821334483794e+00 
149 1 2 1.0279490762860051e+00 -1.9807153234811935e+02 1.0000000000000000e+00 1.1530147170083819e+01 7.6081428728406237e+00 7.3102714011868999e+00 
49 1 2 1.0279487464100918e+00 -2.7764180334494802e+02 1.0000000000000000e+00 1.1531443564445395e+01 7.6093295135397394e+00 7.3092805824887854e+00 
56 1 2 1.0279393723150618e+00 -2.5171342620241586e+02 1.0000000000000000e+00 1.1473470285726247e+01 7.5652071273235055e+00 7.3258872076886927e+00 
54 1 2 1.0279517124302380e+00 -2.0570893702119633e+02 1.0000000000000000e+00 1.1496329954540283e+01 8.2495478078424931e+00 7.5794931112325683e+00 
20 1 2 1.0279577192481222e+00 -2.0096450729268904e+02 1.0000000000000000e+00 1.1484220281106008e+01 8.2465993096561316e+00 7.5961599662083259e+00 
85 1 2 1.0280443175686587e+00 -2.5019582728411564e+02 1.0000000000000000e+00 1.1343693833304306e+01 8.2785190493833145e+00 7.6772288151984265e+00 
68 1 2 1.0283037358051685e+00 -2.1913767536011187e+02 1.0000000000000000e+00 8.1580921817753822e+00 7.3284688569108551e+00 1.3304449241580221e+01 
70 1 2 1.0283029144531945e+00 -2.5325264603563093e+02 1.0000000000000000e+00 8.1585872531048373e+00 7.3289720799619458e+00 1.3304747201923899e+01 
34 1 2 1.0282773272328976e+00 -2.6169216970371781e+02 1.0000000000000000e+00 8.1578629633573083e+00 7.3289789114068844e+00 1.3304782807110755e+01 
27 1 2 1.0283032931625176e+00 -2.3023379164796853e+02 1.0000000000000000e+00 8.1587547512201173e+00 7.3290530770015216e+00 1.3304653513889525e+01 
28 1 2 1.0282931774986548e+00 -2.8023249859154140e+02 1.0000000000000000e+00 8.1588510325632839e+00 7.3292291091744177e+00 1.3304374538177814e+01 
155 1 2 1.0283038852902029e+00 -2.9195410448905324e+02 1.0000000000000000e+00 8.1585749576564375e+00 7.3291927989915395e+00 1.3305410462397473e+01 
162 1 2 1.0283026961781523e+00 -3.3561030472392446e+02 1.0000000000000000e+00 8.1584778442924080e+00 7.3288650990070030e+00 1.3304669073989112e+01 
2 1 2 1.0282953930639487e+00 -2.8154890177381827e+02 1.0000000000000000e+00 1.0025441863815146e+01 4.8300919894627095e+00 1.4258198638544616e+01 
1 1 2 1.0282967700671608e+00 -2.9010837245906566e+02 1.0000000000000000e+00 1.0025422787636803e+01 4.8300872997756725e+00 1.4258148012953210e+01 
171 1 2 1.0282973867183469e+00 -2.8478403774916393e+02 1.0000000000000000e+00 1.0025415152697779e+01 4.8300884879024242e+00 1.4258132181342649e+01 
3 1 2 1.0282964334925551e+00 -2.4046372797833641e+02 1.0000000000000000e+00 1.0025528279631782e+01 4.8302387575677805e+00 1.4258356539459239e+01 
7 1 2 1.0282941082909540e+00 -3.0647862998399961e+02 1.0000000000000000e+00 1.0025471025349082e+01 4.8301275893867883e+00 1.4258305319105162e+01 
128 1 2 1.0283113445019836e+00 -2.8671883322771976e+02 1.0000000000000000e+00 1.0025250404894205e+01 4.8302261476640647e+00 1.4258048725454607e+01 
9 1 2 1.0282964334925533e+00 -2.4363532708448409e+02 1.0000000000000000e+00 1.0025528279632132e+01 4.8302387575678365e+00 1.4258356539458793e+01 
138 1 2 1.0279319007966814e+00 -2.3992503177026464e+02 1.0000000000000000e+00 1.0916441875465797e+01 1.8215859281407546e+01 4.9398174170736100e+00 
156 1 2 1.0279095910544354e+00 -3.2489062101221623e+02 1.0000000000000000e+00 1.0907294297352703e+01 1.8244982277053587e+01 4.9630706788372470e+00 
37 1 2 1.0279320393381077e+00 -3.4241176493865788e+02 1.0000000000000000e+00 1.0915194265647948e+01 1.8216629098133588e+01 4.9427072306847286e+00 
58 1 2 1.0279328747816228e+00 -2.9142676263365922e+02 1.0000000000000000e+00 1.0915508514091433e+01 1.8215970320636302e+01 4.9425105353493306e+00 
95 1 2 1.0279328747815484e+00 -2.1847255112898367e+02 1.0000000000000000e+00 1.0915508514067467e+01 1.8215970320699359e+01 4.9425105353483882e+00 
94 1 2 1.0279328747816912e+00 -2.4887878172482786e+02 1.0000000000000000e+00 1.0915508514112418e+01 1.8215970320582027e+01 4.9425105353494025e+00 
59 1 2 1.0279328747816223e+00 -3.0705081510799471e+02 1.0000000000000000e+00 1.0915508514091378e+01 1.8215970320636451e+01 4.9425105353493093e+00 
12 1 2 1.0279484700501564e+00 -2.5323850945106184e+02 1.0000000000000000e+00 1.8834473826113630e+01 9.5761136799174480e+00 1.6043300322909759e+00 
48 1 2 1.0279484700502766e+00 -2.5064879637831601e+02 1.0000000000000000e+00 1.8834473820883677e+01 9.5761136760942129e+00 1.6043300278087167e+00 
11 1 2 1.0279484700509762e+00 -2.5814641891690326e+02 1.0000000000000000e+00 1.8834473800650080e+01 9.5761136613069180e+00 1.6043300104787424e+00 
167 1 2 1.0279484678407682e+00 -2.4982800929346607e+02 1.0000000000000000e+00 1.8834510723429148e+01 9.5761124833806317e+00 1.6042506985707210e+00 
5 1 2 1.0279484583336289e+00 -2.1911197328092641e+02 1.0000000000000000e+00 1.8834771087663150e+01 9.5762808280565199e+00 1.6043867139431800e+00 
57 1 2 1.0279980529440640e+00 -2.6471373393145382e+02 1.0000000000000000e+00 1.8450035610613085e+01 9.8348034330780134e+00 1.0516165649789704e+00 
99 1 2 1.0279736024309374e+00 -2.5884784418388256e+02 1.0000000000000000e+00 1.3983048071066204e+01 5.9652441820006752e-01 6.2612395128949192e+00 
87 1 2 1.0279736024352826e+00 -1.9111007199258702e+02 1.0000000000000000e+00 1.3983048042307832e+01 5.9652439674807878e-01 6.2612395140431660e+00 
134 1 2 1.0279736024359956e+00 -2.1024878005720910e+02 1.0000000000000000e+00 1.3983048037702909e+01 5.9652439331357943e-01 6.2612395142265935e+00 
160 1 2 1.0279736024282233e+00 -2.5850257969069395e+02 1.0000000000000000e+00 1.3983048088806120e+01 5.9652443143402345e-01 6.2612395121860542e+00 
33 1 2 1.0279219704953066e+00 -2.3449335651488320e+02 1.0000000000000000e+00 1.4118401129624399e+01 8.5974769419597630e-01 6.0661017480180002e+00 
8 1 2 1.0279116589196917e+00 -2.8922182817125326e+02 1.0000000000000000e+00 1.4577414247145526e+01 2.8736479099943151e+00 5.9112268708986555e+00 
14 1 2 1.0279118960336395e+00 -2.3809531837067334e+02 1.0000000000000000e+00 1.4577513553083612e+01 2.8725287910643686e+00 5.9121403080200796e+00 
43 1 2 1.0279106377190426e+00 -3.4249821086412408e+02 1.0000000000000000e+00 1.4577397765975963e+01 2.8739989826786179e+00 5.9110669516064007e+00 
73 1 2 1.0280772457921235e+00 -3.2727094732380760e+02 1.0000000000000000e+00 1.6190878371338510e+01 2.9410917566612169e+00 5.1903904305811404e+00 
15 1 2 1.0280827220140860e+00 -1.6416665557705088e+02 1.0000000000000000e+00 1.6240248577546826e+01 3.0281709951752784e+00 5.2106468222828592e+00 
21 1 2 1.0280827219586630e+00 -1.7277218924243118e+02 1.0000000000000000e+00 1.6240247599242757e+01 3.0281697794556859e+00 5.2106457631502900e+00 
125 1 2 1.0280826833979244e+00 -1.9357011422750460e+02 1.0000000000000000e+00 1.6244712679290004e+01 3.0242257722293346e+00 5.2231792822372700e+00 
158 1 2 1.0280825082607128e+00 -2.9219674830362032e+02 1.0000000000000000e+00 1.6243688317673556e+01 3.0190488891240816e+00 5.2252370623849105e+00 
142 1 2 1.0279581825076531e+00 -2.7016871141270320e+02 1.0000000000000000e+00 1.4994151068945419e+01 5.4093136055286033e+00 5.1255672288845293e+00 
174 1 2 1.0279302668947889e+00 -2.1323262129494472e+02 1.0000000000000000e+00 1.4952196356686324e+01 5.4209382689105441e+00 5.1220639744874301e+00 
137 1 2 1.0279302668947885e+00 -1.9344720740974847e+02 1.0000000000000000e+00 1.4952196356686315e+01 5.4209382689105245e+00 5.1220639744874346e+00 
180 1 2 1.0279302668947892e+00 -1.8773495341734863e+02 1.0000000000000000e+00 1.4952196356686319e+01 5.4209382689105281e+00 5.1220639744874319e+00 
143 1 2 1.0279302668947887e+00 -2.3639828966701910e+02 1.0000000000000000e+00 1.4952196356686310e+01 5.4209382689105210e+00 5.1220639744874337e+00 
13 1 2 1.0280279676148250e+00 -2.6250511718385201e+02 1.0000000000000000e+00 1.4582460260565551e+01 7.1417953807298042e+00 3.7225593716131327e+00 
18 1 2 1.0280279676148261e+00 -2.6350098415143322e+02 1.0000000000000000e+00 1.4582460260492462e+01 7.1417953807990253e+00 3.7225593717154242e+00 
23 1 2 1.0280279675264035e+00 -2.4540976052797146e+02 1.0000000000000000e+00 1.4582461573696794e+01 7.1417941569602457e+00 3.7225575569621787e+00 
164 1 2 1.0280279676027593e+00 -2.3880974876187543e+02 1.0000000000000000e+00 1.4582460439480057e+01 7.1417952141386625e+00 3.7225591245402692e+00 
102 1 2 1.0280279675211368e+00 -2.2804123128229702e+02 1.0000000000000000e+00 1.4582461652049885e+01 7.1417940838562268e+00 3.7225574485862523e+00 
91 1 2 1.0280232111418661e+00 -2.2939427735066329e+02 1.0000000000000000e+00 1.4611196210147833e+01 7.1834399085234235e+00 3.7723291066694733e+00 
119 1 2 1.0280260701383781e+00 -2.7787521907908712e+02 1.0000000000000000e+00 1.5512475529006567e+01 4.0028985384645450e+00 8.6811347501202736e+00 
78 1 2 1.0280260701385715e+00 -2.6467502173919775e+02 1.0000000000000000e+00 1.5512475530625396e+01 4.0028985450917505e+00 8.6811347540873829e+00 
113 1 2 1.0280260701400528e+00 -3.3305969762384950e+02 1.0000000000000000e+00 1.5512475538384583e+01 4.0028985768438208e+00 8.6811347730313919e+00 
107 1 2 1.0280257353558382e+00 -2.3314109953699435e+02 1.0000000000000000e+00 1.5510755612684862e+01 3.9957003402938711e+00 8.6780234002093586e+00 
83 1 2 1.0280260848895815e+00 -2.3874269361863318e+02 1.0000000000000000e+00 1.5512555064155741e+01 4.0032238243392770e+00 8.6813341323906617e+00 
22 1 2 1.0279687483471049e+00 -2.3069595335050292e+02 1.0000000000000000e+00 1.5679431620306557e+01 3.5038521302421635e+00 6.7966675647408668e+00 
109 1 2 1.0279651486068866e+00 -2.2891247249969229e+02 1.0000000000000000e+00 1.6862378841717774e+01 3.6432378894021937e+00 9.4441299628379856e+00 
63 1 2 1.0279652093304570e+00 -2.4270523805841924e+02 1.0000000000000000e+00 1.6862380216758083e+01 3.6432484804365459e+00 9.4441375662110101e+00 
145 1 2 1.0279641607896659e+00 -2.7368695824580169e+02 1.0000000000000000e+00 1.6862125840310902e+01 3.6427778151161956e+00 9.4438323667947941e+00 
114 1 2 1.0280076970861822e+00 -3.2050373497218266e+02 1.0000000000000000e+00 1.8400768174378154e+01 4.5495043073937156e+00 8.8446809755990685e+00 
66 1 2 1.0280076970865666e+00 -3.1714316604893281e+02 1.0000000000000000e+00 1.8400768176570022e+01 4.5495043075703867e+00 8.8446809749759510e+00 
61 1 2 1.0280076970865180e+00 -2.4509477817624844e+02 1.0000000000000000e+00 1.8400768176397822e+01 4.5495043075582977e+00 8.8446809750242874e+00 
40 1 2 1.0280077185270502e+00 -2.0073835816764785e+02 1.0000000000000000e+00 1.8400897907520612e+01 4.5495142761345324e+00 8.8446442229647300e+00 
112 1 2 1.0280460756422940e+00 -2.3232506730284672e+02 1.0000000000000000e+00 1.5826398696556879e+01 8.4586888353149163e+00 9.9390046638388529e+00 
118 1 2 1.0280460872413877e+00 -2.0643718754419692e+02 1.0000000000000000e+00 1.5826088586432272e+01 8.4586751471503110e+00 9.9391366355241910e+00 
117 1 2 1.0280461034198778e+00 -2.3239195052075837e+02 1.0000000000000000e+00 1.5825652736566472e+01 8.4586566854790295e+00 9.9393211022871171e+00 
148 1 2 1.0280461172335345e+00 -2.3101791165546965e+02 1.0000000000000000e+00 1.5825279123885416e+01 8.4586409311754416e+00 9.9394800248564881e+00 
82 1 2 1.0280461237235421e+00 -1.9623353831809757e+02 1.0000000000000000e+00 1.5825102734242513e+01 8.4586336605649528e+00 9.9395549243604950e+00 
152 1 2 1.0280195876976599e+00 -2.7131347447800903e+02 1.0000000000000000e+00 1.9692252815780265e+01 2.2731985776866406e+00 1.0526322687608449e+01 
153 1 2 1.0280195876940925e+00 -2.7858253077337071e+02 1.0000000000000000e+00 1.9692252708088724e+01 2.2731984664097191e+00 1.0526322789691482e+01 
146 1 2 1.0280195878028056e+00 -2.9730123712797331e+02 1.0000000000000000e+00 1.9692255897860804e+01 2.2732019142894031e+00 1.0526319661226230e+01 
147 1 2 1.0280195877301601e+00 -2.9127943387481025e+02 1.0000000000000000e+00 1.9692253769019391e+01 2.2731996082615349e+00 1.0526321752545908e+01 
111 1 2 1.0280195978524775e+00 -2.1015371934783994e+02 1.0000000000000000e+00 1.9692546822687618e+01 2.2735228159282266e+00 1.0526030109561768e+01 
60 1 2 1.0279946908234221e+00 -2.8661937880142182e+02 1.0000000000000000e+00 1.9002983843654171e+01 3.7831911695636022e+00 1.2248792565608632e+01 
55 1 2 1.0279946972595642e+00 -2.9895128770296520e+02 1.0000000000000000e+00 1.9003134259138669e+01 3.7832248956234609e+00 1.2248864133406391e+01 
135 1 2 1.0279946972329834e+00 -2.5599297329517461e+02 1.0000000000000000e+00 1.9003133618387157e+01 3.7832247682452618e+00 1.2248863811734388e+01 
24 1 2 1.0279946976267043e+00 -2.1564421619417658e+02 1.0000000000000000e+00 1.9003143112720764e+01 3.7832266471293003e+00 1.2248868586870881e+01 
144 1 2 1.0279946976300791e+00 -2.0089398257999471e+02 1.0000000000000000e+00 1.9003143194788560e+01 3.7832266630233704e+00 1.2248868628505955e+01 
17 1 2 1.0279946980642933e+00 -2.2429237904009096e+02 1.0000000000000000e+00 1.9003153821404119e+01 3.7832286397220658e+00 1.2248874104058945e+01 
84 1 2 1.0279485398774630e+00 -2.8006231812231727e+02 1.0000000000000000e+00 1.5999260714943441e+01 9.9054991971350290e+00 1.0472002250150299e+01 
120 1 2 1.0279485398774630e+00 -2.9646830209831887e+02 1.0000000000000000e+00 1.5999260714943404e+01 9.9054991971350415e+00 1.0472002250150302e+01 
93 1 2 1.0279485398774719e+00 -2.8672953715508686e+02 1.0000000000000000e+00 1.5999260714943468e+01 9.9054991971349828e+00 1.0472002250150277e+01 
133 1 2 1.0279485398774686e+00 -2.9617649155326040e+02 1.0000000000000000e+00 1.5999260714943444e+01 9.9054991971350042e+00 1.0472002250150288e+01 
178 1 2 1.0280265519216638e+00 -2.7573931305598501e+02 1.0000000000000000e+00 1.5756170859450537e+01 1.1419100485882648e+01 1.0100273474754038e+00 
89 1 2 1.0280265523050294e+00 -2.1176220068728739e+02 1.0000000000000000e+00 1.5756179576324124e+01 1.1419096480962683e+01 1.0100218439081083e+00 
106 1 2 1.0280265519275205e+00 -3.1733511781941900e+02 1.0000000000000000e+00 1.5756170994017962e+01 1.1419100424342643e+01 1.0100272621542374e+00 
105 1 2 1.0280265519232630e+00 -3.0781433262412202e+02 1.0000000000000000e+00 1.5756170897648349e+01 1.1419100468413408e+01 1.0100273232570605e+00 
141 1 2 1.0280265519195111e+00 -3.2529718300971217e+02 1.0000000000000000e+00 1.5756170812715075e+01 1.1419100507250571e+01 1.0100273771132955e+00 
150 1 2 1.0280109042168879e+00 -2.7396278821293623e+02 1.0000000000000000e+00 1.5550935781900270e+01 1.2933606565547937e+01 3.2074349577104004e+00 
177 1 2 1.0280109042132848e+00 -2.6453455487580857e+02 1.0000000000000000e+00 1.5550935309061140e+01 1.2933605815172962e+01 3.2074349804833551e+00 
86 1 2 1.0280109042132526e+00 -2.3615185263143002e+02 1.0000000000000000e+00 1.5550935305251596e+01 1.2933605808599419e+01 3.2074349808414935e+00 
10 1 2 1.0280109042132546e+00 -2.0487901337831795e+02 1.0000000000000000e+00 1.5550935301805252e+01 1.2933605802656039e+01 3.2074349811642366e+00 
19 1 2 1.0280109042133185e+00 -2.7320621530731717e+02 1.0000000000000000e+00 1.5550935312633156e+01 1.2933605821332101e+01 3.2074349801490341e+00 
101 1 2 1.0280109042174741e+00 -2.4606494277625674e+02 1.0000000000000000e+00 1.5550935998426281e+01 1.2933606998065963e+01 3.2074349178756352e+00 
90 1 2 1.0278653974533434e+00 -2.3429200138478191e+02 1.0000000000000000e+00 1.7076304093796249e+01 1.3083998272469854e+01 1.2650637878623896e+00 
97 1 2 1.0278653974614822e+00 -2.1950772515858549e+02 1.0000000000000000e+00 1.7076304094716491e+01 1.3083998266070033e+01 1.2650637760054169e+00 
25 1 2 1.0278653974431533e+00 -2.5723432667714729e+02 1.0000000000000000e+00 1.7076304094373427e+01 1.3083998276424115e+01 1.2650637966853948e+00 
127 1 2 1.0278653973926088e+00 -3.0281697183762094e+02 1.0000000000000000e+00 1.7076304096409647e+01 1.3083998297920285e+01 1.2650638432093062e+00 
53 1 2 1.0280149598212218e+00 -2.1524292740248015e+02 1.0000000000000000e+00 1.7803640239229345e+01 1.1568525855849410e+01 1.8276651845580507e+00 
96 1 2 1.0280169606522513e+00 -2.9013909363436790e+02 1.0000000000000000e+00 1.8149253271736740e+01 1.1181357999727439e+01 1.1036127276334504e+00 
129 1 2 1.0279674820668079e+00 -2.7762205600666908e+02 1.0000000000000000e+00 1.8460042949940984e+01 1.0928606678557651e+01 1.6454130513849889e+00 
100 1 2 1.0280108311448519e+00 -2.1818565650865861e+02 1.0000000000000000e+00 1.4534340851115607e+01 1.8440316924397216e+01 5.3119716335531697e+00 
165 1 2 1.0279346812946948e+00 -2.9610585475384147e+02 1.0000000000000000e+00 1.3347235307027088e+01 1.9089298222499814e+01 5.9199270534829518e+00 
124 1 2 1.0280279910892274e+00 -2.2850526634628702e+02 1.0000000000000000e+00 1.4179808001735800e+01 1.9142585110366905e+01 4.7924582344275137e+00 
62 1 2 1.0280094522175947e+00 -2.4688485467057626e+02 1.0000000000000000e+00 1.4455729377512371e+01 1.8397883186640531e+01 5.3713630068022304e+00 
44 1 2 1.0280099596842738e+00 -1.9614673943278214e+02 1.0000000000000000e+00 1.4498045223781723e+01 1.8419023392038877e+01 5.3348751895154694e+00 
92 1 2 1.0280239997745932e+00 -2.6182320007849080e+02 1.0000000000000000e+00 1.4562678658919666e+01 1.8642001748314232e+01 5.0207054079887277e+00 
64 1 2 1.0280108307694800e+00 -2.2914669796337728e+02 1.0000000000000000e+00 1.4534337683153700e+01 1.8440314120975955e+01 5.3119770366857502e+00 
175 1 2 1.0280080383624659e+00 -2.6630296813349725e+02 1.0000000000000000e+00 1.5896148683350949e+01 1.2112900846183637e+01 1.2926326674013175e+01 
140 1 2 1.0280075987050830e+00 -2.5055833316709641e+02 1.0000000000000000e+00 1.5883093374209356e+01 1.2183282821040132e+01 1.2944187101212004e+01 
176 1 2 1.0280074581581811e+00 -2.9989107630429197e+02 1.0000000000000000e+00 1.5878630609592872e+01 1.2203490365713650e+01 1.2949262655148571e+01 
16 1 2 1.0279828635656130e+00 -2.2288596405987980e+02 1.0000000000000000e+00 1.5246834656099322e+01 1.1091537874836474e+01 1.2286156502575912e+01 
163 1 2 1.0279841222881529e+00 -3.4227904727815468e+02 1.0000000000000000e+00 1.5222844894974745e+01 1.1087426176595873e+01 1.2328007983430737e+01 
35 1 2 1.0280034196149692e+00 -2.7020956759918727e+02 1.0000000000000000e+00 1.4993309466099435e+01 1.1280326817993426e+01 1.2983172347959792e+01 
126 1 2 1.0280034196158689e+00 -2.7942555020117129e+02 1.0000000000000000e+00 1.4993308999069358e+01 1.1280328059825170e+01 1.2983174237169441e+01 
116 1 2 1.0279884269036474e+00 -2.7414040747408598e+02 1.0000000000000000e+00 1.4311502142228926e+01 1.3186920652772002e+01 1.2742006753096495e+01 
31 1 2 1.0279894784688679e+00 -3.0079688536383031e+02 1.0000000000000000e+00 1.4309970273523330e+01 1.3153355119587751e+01 1.2726827749706224e+01 
32 1 2 1.0279894784688581e+00 -3.1395590882727447e+02 1.0000000000000000e+00 1.4309970273523192e+01 1.3153355119562583e+01 1.2726827749692880e+01 
67 1 2 1.0279894784688661e+00 -2.3511795725537016e+02 1.0000000000000000e+00 1.4309970273519168e+01 1.3153355119495412e+01 1.2726827749664286e+01 
115 1 2 1.0280088582021583e+00 -2.6332922655667915e+02 1.0000000000000000e+00 1.4887970043749652e+01 1.4611306885537690e+01 1.3667275334103051e+01 
75 1 2 1.0279921707213495e+00 -2.6550165496021941e+02 1.0000000000000000e+00 1.4277861510089902e+01 1.5548180819612615e+01 1.3929920172323083e+01 
51 1 2 1.0279921707276782e+00 -2.5438630857280532e+02 1.0000000000000000e+00 1.4277863581994932e+01 1.5548182977838303e+01 1.3929916203277033e+01 
88 1 2 1.0279921707276776e+00 -2.3162164438970072e+02 1.0000000000000000e+00 1.4277863581994991e+01 1.5548182977838247e+01 1.3929916203277200e+01 
110 1 2 1.0279921707387991e+00 -2.3058320699649104e+02 1.0000000000000000e+00 1.4277864307644121e+01 1.5548183164662403e+01 1.3929916124641046e+01 
74 1 2 1.0279921707200776e+00 -2.7757659152236783e+02 1.0000000000000000e+00 1.4277863690585400e+01 1.5548183603604238e+01 1.3929914813750528e+01 
52 1 2 1.0279921707276782e+00 -2.4606706619152524e+02 1.0000000000000000e+00 1.4277863581995112e+01 1.5548182977838133e+01 1.3929916203277511e+01 
38 1 2 1.0272921166913551e+00 -2.4104959494476495e+02 1.0000000000000000e+00 1.8967825400485768e+01 1.5257928773155424e+01 1.9978663380580564e+01 
80 1 2 1.0272926691499797e+00 -2.3929031049487915e+02 1.0000000000000000e+00 1.8967821587540332e+01 1.5257903836278816e+01 1.9978643164026114e+01 
81 1 2 1.0272902856121253e+00 -1.9204833516034904e+02 1.0000000000000000e+00 1.8967710698564925e+01 1.5258065167692811e+01 1.9978634324447963e+01 
121 1 2 1.0272900493188792e+00 -2.1593536649246280e+02 1.0000000000000000e+00 1.8967811155485833e+01 1.5258051342812532e+01 1.9978746833142687e+01 
151 1 2 1.0272928547433060e+00 -2.2353066756881807e+02 1.0000000000000000e+00 1.8967810928929801e+01 1.5257899133022020e+01 1.9978628796067817e+01 
179 1 2 1.0272913604921079e+00 -2.5727325006210066e+02 1.0000000000000000e+00 1.8967834684357456e+01 1.5257969606117294e+01 1.9978708413077747e+01 
130 1 2 1.0272923055883343e+00 -2.5418843544958926e+02 1.0000000000000000e+00 1.8967812484754994e+01 1.5257922824088896e+01 1.9978643744924007e+01 

Velocities

157 -9.3589519634016363e-02 -1.3545675734318842e-02 1.3702931395850632e-02
136 -9.4291971914871223e-02 -1.3524745215665747e-02 1.1786943963325408e-02
69 -9.4291971914682526e-02 -1.3524745216246718e-02 1.1786943963104184e-02
26 -9.4291971914889222e-02 -1.3524745215652098e-02 1.1786943963330750e-02
47 -9.4291971914866018e-02 -1.3524745215733271e-02 1.1786943963297323e-02
159 -9.4291971914864492e-02 -1.3524745215686215e-02 1.1786943963315467e-02
46 -4.5007020793714922e-02 -2.4133646053821539e-02 3.2461834901252450e-02
170 -5.2697913604942796e-02 -2.6764094422805400e-02 2.9658589391250084e-02
65 -4.5007024366966422e-02 -2.4133652787550131e-02 3.2461841075188506e-02
71 -4.5007024371589890e-02 -2.4133652793973642e-02 3.2461841082985929e-02
108 -4.5007024371347022e-02 -2.4133652793511467e-02 3.2461841082409647e-02
161 -5.2699439938553874e-02 -2.6761902345961631e-02 2.9658145166671417e-02
4 -5.2091629792280221e-02 -2.6446451372904904e-02 3.0336748263917017e-02
77 -4.8422327439554456e-02 -2.8379709538905451e-02 2.9609697064304507e-02
168 -5.2698746681800579e-02 -2.6762898599751863e-02 2.9658347223215139e-02
39 -4.2273784713932873e-02 -3.0805147939408774e-02 3.9904064108778815e-02
76 -3.9246553175143278e-02 -3.7267229484315517e-02 3.3620461448637111e-02
98 -3.9246110283719673e-02 -3.7266894346390050e-02 3.3619692625748834e-02
139 -3.9245885307993666e-02 -3.7266791516961426e-02 3.3619342265265244e-02
104 -3.9245885307920864e-02 -3.7266791516874842e-02 3.3619342265316481e-02
103 -3.9245885307981586e-02 -3.7266791516954806e-02 3.3619342265248250e-02
45 -4.2789482584485991e-02 -3.0557435988598711e-02 3.6946785860790164e-02
72 -6.4337107114033718e-02 5.4834605616576590e-02 4.4870256455576352e-02
36 -6.4244653784655104e-02 5.4997809392332939e-02 4.4504725297676975e-02
30 -6.4308574179989156e-02 5.4886836488954899e-02 4.4761471377236378e-02
29 -6.4308437718431866e-02 5.4887363443502299e-02 4.4760117236097796e-02
131 -6.4306908604240001e-02 5.4897878397097762e-02 4.4742816431612938e-02
6 -6.4305420044365402e-02 5.4914058830927877e-02 4.4722954608245866e-02
79 -4.7069274333251962e-02 5.1850098780890523e-02 3.7307251680680921e-02
173 -1.4448898906544114e-02 -5.6330387789066745e-02 7.4405856384987146e-02
166 -1.4516717629507197e-02 -5.6482548146932175e-02 7.4446634108343013e-02
172 -1.4813881111143247e-02 -5.7157631063215662e-02 7.4650442041564485e-02
41 -1.6057514588380947e-02 -5.8941716662236618e-02 7.4424167501010483e-02
122 -1.8643595064796726e-02 -5.3675344482878480e-02 6.6515690122614823e-02
169 -1.6149013015865805e-02 -5.9309026569256969e-02 6.7610539532777472e-02
132 -2.2827967809251771e-02 -4.7999829330416237e-02 6.1379730908488465e-02
42 -2.6585280555400940e-02 -4.2405306956220155e-02 5.5490386049794956e-02
123 -2.6667034282083391e-02 -4.2147135742726813e-02 5.5311697689210161e-02
154 -2.4600707736774932e-02 -5.0033667307481003e-02 6.0991708199301185e-02
50 -1.0961805742339034e-02 -6.5833187672505109e-02 5.1584291683092684e-02
149 -1.0966742271394134e-02 -6.5840069582710922e-02 5.1588388378428496e-02
49 -1.0977265557226329e-02 -6.5854314237252451e-02 5.1598303588232912e-02