LAMMPS data file via write_data, version 30 Jul 2016, timestep = 50400000

180 atoms
2 atom types

0.0000000000000000e+00 2.0000000000000000e+01 xlo xhi
0.0000000000000000e+00 2.0000000000000000e+01 ylo yhi
0.0000000000000000e+00 2.0000000000000000e+01 zlo zhi

Masses

1 3.896
2 4.31

Atoms # meso-molecular

57 1 2 1.0280452205225212e+00 -2.6471355941881200e+02 1.0000000000000000e+00 1.0092440194261101e+00 9.0268235362007996e+00 2.7851372885656733e+00 
5 1 2 1.0279574502189295e+00 -2.1911186734257203e+02 1.0000000000000000e+00 1.3815014413603282e+00 8.8065597309151578e+00 3.4011285889710585e+00 
167 1 2 1.0279574472681503e+00 -2.4982790335067759e+02 1.0000000000000000e+00 1.3812803502507156e+00 8.8063889166193956e+00 3.4010116916432800e+00 
12 1 2 1.0279574456632605e+00 -2.5323840351116473e+02 1.0000000000000000e+00 1.3812426569714853e+00 8.8063981701001719e+00 3.4010792157052774e+00 
48 1 2 1.0279574456632274e+00 -2.5064869043841873e+02 1.0000000000000000e+00 1.3812426526432655e+00 8.8063981660778730e+00 3.4010792118645043e+00 
11 1 2 1.0279574456630662e+00 -2.5814631297696207e+02 1.0000000000000000e+00 1.3812426358966496e+00 8.8063981505198470e+00 3.4010791970155521e+00 
46 1 2 1.0276389520528699e+00 -1.8217062087715996e+02 1.0000000000000000e+00 3.0530205865424547e+00 8.6416699157196444e+00 7.2341310404947050e+00 
65 1 2 1.0276389531153658e+00 -2.0302065922533700e+02 1.0000000000000000e+00 3.0530223996274688e+00 8.6416711727503230e+00 7.2341317012418029e+00 
71 1 2 1.0276389531160968e+00 -1.9391539342593325e+02 1.0000000000000000e+00 3.0530224019181373e+00 8.6416711723300619e+00 7.2341317021688303e+00 
108 1 2 1.0276389531160390e+00 -2.4930403161817574e+02 1.0000000000000000e+00 3.0530224017680605e+00 8.6416711723432336e+00 7.2341317021087397e+00 
170 1 2 1.0274461886767083e+00 -2.2599037986906012e+02 1.0000000000000000e+00 3.1923468198340457e+00 6.9963022019849879e+00 9.8181530823434997e+00 
161 1 2 1.0274461694857087e+00 -3.3865166413509286e+02 1.0000000000000000e+00 3.1924569233766351e+00 6.9962462567807497e+00 9.8181477750380122e+00 
168 1 2 1.0274461782083346e+00 -1.6160161288865356e+02 1.0000000000000000e+00 3.1924068922239872e+00 6.9962716767483277e+00 9.8181501869686869e+00 
4 1 2 1.0274788454427353e+00 -2.1928027385864854e+02 1.0000000000000000e+00 3.1726895406024371e+00 7.0010957095875073e+00 9.7827858010368107e+00 
77 1 2 1.0274837567398154e+00 -2.0141425332140685e+02 1.0000000000000000e+00 3.0189214724786471e+00 7.0961746126583920e+00 9.8034492443877443e+00 
112 1 2 1.0285420331432304e+00 -2.3219272029364660e+02 1.0000000000000000e+00 1.4900042270506724e+00 8.9957049553096713e+00 8.3497188746567730e+00 
118 1 2 1.0285425555976062e+00 -2.0630484491352200e+02 1.0000000000000000e+00 1.4905505045524556e+00 8.9975917866308475e+00 8.3522412021628227e+00 
117 1 2 1.0285432363729281e+00 -2.3225961391877365e+02 1.0000000000000000e+00 1.4913354111544519e+00 9.0002647818693102e+00 8.3557385270644211e+00 
148 1 2 1.0285437741144410e+00 -2.3088558008426116e+02 1.0000000000000000e+00 1.4920221992688172e+00 9.0025555069270737e+00 8.3587281424917279e+00 
82 1 2 1.0285440132014025e+00 -1.9610120908284290e+02 1.0000000000000000e+00 1.4923516359206224e+00 9.0036424820621814e+00 8.3601302211309214e+00 
39 1 2 1.0278787921267010e+00 -2.5646443091399124e+02 1.0000000000000000e+00 4.0285434440709755e+00 7.8644492759570666e+00 8.1429796010844253e+00 
45 1 2 1.0279856071500824e+00 -2.1519811883947384e+02 1.0000000000000000e+00 3.8686727379179833e+00 9.0253355002253510e+00 8.1236606412759240e+00 
132 1 2 1.0277712760225246e+00 -2.4864772489955322e+02 1.0000000000000000e+00 6.1696259676581651e+00 6.7089344264422861e+00 7.8233887182125619e+00 
154 1 2 1.0269480032995142e+00 -2.7969339672544629e+02 1.0000000000000000e+00 6.1498692033714004e+00 6.7287628292353565e+00 7.9419348109067549e+00 
42 1 2 1.0259399562152152e+00 -2.6300147913446597e+02 1.0000000000000000e+00 6.1249776365516020e+00 6.8152198925415011e+00 7.8929271316990288e+00 
123 1 2 1.0261387016823984e+00 -2.6140768595670085e+02 1.0000000000000000e+00 6.1253610328408756e+00 6.8162911409940756e+00 7.8958663788254428e+00 
122 1 2 1.0289109196991455e+00 -2.9491384740598608e+02 1.0000000000000000e+00 6.1780581200575684e+00 6.8237608054308261e+00 7.7227153367220644e+00 
16 1 2 1.0279188900147938e+00 -2.2282346602257684e+02 1.0000000000000000e+00 2.9207944521918443e+00 9.4218634425691743e+00 1.0220725517827043e+01 
163 1 2 1.0291495571556561e+00 -3.4223850753647810e+02 1.0000000000000000e+00 3.3542955674484221e+00 9.8084696384285319e+00 1.0446412136271533e+01 
103 1 2 1.0284539248863223e+00 -2.2124698384618432e+02 1.0000000000000000e+00 4.8565957664324362e+00 8.1396082416915441e+00 1.0650789933777661e+01 
104 1 2 1.0284539248863453e+00 -2.3351393457224663e+02 1.0000000000000000e+00 4.8565957664144266e+00 8.1396082416869611e+00 1.0650789933802555e+01 
139 1 2 1.0284539248863236e+00 -2.2463107763976143e+02 1.0000000000000000e+00 4.8565957664442649e+00 8.1396082416947610e+00 1.0650789933761262e+01 
98 1 2 1.0284539474005783e+00 -2.6235916499062535e+02 1.0000000000000000e+00 4.8568030183556559e+00 8.1396272984342275e+00 1.0650497870862543e+01 
76 1 2 1.0284539964337187e+00 -2.1492817242800052e+02 1.0000000000000000e+00 4.8572662590374822e+00 8.1397644598961403e+00 1.0649855985707427e+01 
129 1 2 1.0280394541897147e+00 -2.7762167258151038e+02 1.0000000000000000e+00 9.5955140923230109e-01 1.0090585647594743e+01 3.2376237699077164e+00 
96 1 2 1.0280105708300404e+00 -2.9013862968056645e+02 1.0000000000000000e+00 6.5768729720856045e-01 1.0349929123073688e+01 2.6886179209482299e+00 
53 1 2 1.0280052897763865e+00 -2.1524244133973252e+02 1.0000000000000000e+00 3.1618397233537804e-01 1.0753499968762380e+01 3.1845054970277156e+00 
81 1 2 1.0276256880513066e+00 -1.9204819289130950e+02 1.0000000000000000e+00 1.8423698837976499e+00 1.3839906044811929e+01 7.6694565989205410e-01 
121 1 2 1.0276256738995395e+00 -2.1593522420505911e+02 1.0000000000000000e+00 1.8423574961852256e+00 1.3839906683250431e+01 7.6692915379333260e-01 
179 1 2 1.0276255745720184e+00 -2.5727310748973571e+02 1.0000000000000000e+00 1.8423571500118652e+00 1.3839915827680127e+01 7.6693384460296743e-01 
38 1 2 1.0276255183233201e+00 -2.4104945220364908e+02 1.0000000000000000e+00 1.8423591601992022e+00 1.3839920181150159e+01 7.6693864470449102e-01 
130 1 2 1.0276255066396043e+00 -2.5418829267056597e+02 1.0000000000000000e+00 1.8423607425876938e+00 1.3839921038694044e+01 7.6694115567912158e-01 
151 1 2 1.0276254581206699e+00 -2.2353052464219530e+02 1.0000000000000000e+00 1.8423614492153424e+00 1.3839923928236908e+01 7.6694307010992957e-01 
80 1 2 1.0276254715444424e+00 -2.3929016761147909e+02 1.0000000000000000e+00 1.8423601019659290e+00 1.3839923110336041e+01 7.6694097999390243e-01 
93 1 2 1.0269608864694852e+00 -2.8669163112333695e+02 1.0000000000000000e+00 3.8020280344705419e+00 1.0537527767321654e+01 9.8641689113620235e+00 
120 1 2 1.0269608864694857e+00 -2.9643039606656896e+02 1.0000000000000000e+00 3.8020280344705504e+00 1.0537527767321658e+01 9.8641689113620306e+00 
84 1 2 1.0269608864694859e+00 -2.8002441209056735e+02 1.0000000000000000e+00 3.8020280344705437e+00 1.0537527767321656e+01 9.8641689113620306e+00 
133 1 2 1.0269608864694855e+00 -2.9613858552151049e+02 1.0000000000000000e+00 3.8020280344705468e+00 1.0537527767321663e+01 9.8641689113620323e+00 
35 1 2 1.0280403401343068e+00 -2.7027456765361171e+02 1.0000000000000000e+00 4.1268513056199865e+00 1.2100639857855130e+01 1.1307163724876746e+01 
126 1 2 1.0280403504429148e+00 -2.7949055019111955e+02 1.0000000000000000e+00 4.1268502137451177e+00 1.2100644425393103e+01 1.1307167774359153e+01 
140 1 2 1.0284743512773225e+00 -2.5061134337125887e+02 1.0000000000000000e+00 4.1638737710680953e+00 1.2560421691761283e+01 1.1171407160969320e+01 
176 1 2 1.0285396091469992e+00 -2.9994335927823556e+02 1.0000000000000000e+00 4.1632521661426978e+00 1.2572020148825468e+01 1.1191893280662610e+01 
175 1 2 1.0282074015444340e+00 -2.6635842581131834e+02 1.0000000000000000e+00 4.1622201092482323e+00 1.2518912996180678e+01 1.1099200836012674e+01 
115 1 2 1.0290961013555640e+00 -2.6332674659021563e+02 1.0000000000000000e+00 3.1846498855009027e+00 1.4544291035573419e+01 1.2780662771362822e+01 
31 1 2 1.0272750493629146e+00 -3.0081568491208782e+02 1.0000000000000000e+00 2.8265768205244495e+00 1.3664510607459899e+01 1.1917682270938185e+01 
32 1 2 1.0272750493629221e+00 -3.1397470837553254e+02 1.0000000000000000e+00 2.8265768205303057e+00 1.3664510607448658e+01 1.1917682270931769e+01 
67 1 2 1.0272750493628910e+00 -2.3513675680365088e+02 1.0000000000000000e+00 2.8265768205441786e+00 1.3664510607416908e+01 1.1917682270919769e+01 
116 1 2 1.0272870614828220e+00 -2.7415828000442514e+02 1.0000000000000000e+00 2.8193014432477477e+00 1.3680385774350659e+01 1.1924379211348480e+01 
110 1 2 1.0280150545553226e+00 -2.3058327339616594e+02 1.0000000000000000e+00 2.3317050567011677e+00 1.5716253735475444e+01 1.3262248350702391e+01 
75 1 2 1.0280150525190042e+00 -2.6550172136465704e+02 1.0000000000000000e+00 2.3317022438405850e+00 1.5716250328475207e+01 1.3262252363091562e+01 
88 1 2 1.0280150538056658e+00 -2.3162171079097604e+02 1.0000000000000000e+00 2.3317042941391293e+00 1.5716253429615781e+01 1.3262248387350700e+01 
52 1 2 1.0280150538056665e+00 -2.4606713259280056e+02 1.0000000000000000e+00 2.3317042941392154e+00 1.5716253429615616e+01 1.3262248387351031e+01 
51 1 2 1.0280150538056656e+00 -2.5438637497408064e+02 1.0000000000000000e+00 2.3317042941390067e+00 1.5716253429615847e+01 1.3262248387350510e+01 
74 1 2 1.0280150536040620e+00 -2.7757665792383438e+02 1.0000000000000000e+00 2.3317043615300612e+00 1.5716254295080118e+01 1.3262246957526745e+01 
13 1 2 1.0277315753486356e+00 -2.6250428196066628e+02 1.0000000000000000e+00 1.2320616403657032e+01 7.2911680013731974e+00 2.7733252034672744e+00 
18 1 2 1.0277315753486098e+00 -2.6350014892824748e+02 1.0000000000000000e+00 1.2320616403527785e+01 7.2911680015187441e+00 2.7733252036256215e+00 
23 1 2 1.0277315759743877e+00 -2.4540892530379156e+02 1.0000000000000000e+00 1.2320618727460239e+01 7.2911654161745254e+00 2.7733224019730112e+00 
164 1 2 1.0277315754338634e+00 -2.3880891353856398e+02 1.0000000000000000e+00 1.2320616720281949e+01 7.2911676493716069e+00 2.7733248220863302e+00 
102 1 2 1.0277315760117709e+00 -2.2804039605805505e+02 1.0000000000000000e+00 1.2320618866115627e+01 7.2911652617875333e+00 2.7733222346287025e+00 
91 1 2 1.0277222560718058e+00 -2.2939338774737968e+02 1.0000000000000000e+00 1.2368526124095411e+01 7.3327539846089014e+00 2.8748958479163318e+00 
99 1 2 1.0279088144643327e+00 -2.5884535174261345e+02 1.0000000000000000e+00 1.0059242945404169e+01 8.9523883539575067e-01 6.3165860851224309e+00 
87 1 2 1.0279088144680304e+00 -1.9110757955131410e+02 1.0000000000000000e+00 1.0059242934357940e+01 8.9523882386412346e-01 6.3165860949723829e+00 
134 1 2 1.0279088144686368e+00 -2.1024628761593465e+02 1.0000000000000000e+00 1.0059242932588807e+01 8.9523882201749772e-01 6.3165860965494121e+00 
160 1 2 1.0279088144620527e+00 -2.5850008724943223e+02 1.0000000000000000e+00 1.0059242952218675e+01 8.9523884250973929e-01 6.3165860790458481e+00 
33 1 2 1.0277280750803071e+00 -2.3449084309287207e+02 1.0000000000000000e+00 1.0120203116122418e+01 9.8242430874235365e-01 6.1957925902476925e+00 
14 1 2 1.0277927760467080e+00 -2.3809266790253449e+02 1.0000000000000000e+00 1.0876398368897295e+01 2.7650756045296854e+00 5.2851297427962241e+00 
8 1 2 1.0277942350234555e+00 -2.8921917345846299e+02 1.0000000000000000e+00 1.0876858635428786e+01 2.7662177926873608e+00 5.2844134839278691e+00 
43 1 2 1.0277946590229274e+00 -3.4249555513087279e+02 1.0000000000000000e+00 1.0876986638168685e+01 2.7665379877240621e+00 5.2842214368002587e+00 
22 1 2 1.0285210675195000e+00 -2.3069185877959785e+02 1.0000000000000000e+00 1.1440259450402644e+01 3.1878188343628184e+00 5.7408822363662582e+00 
73 1 2 1.0278531950902219e+00 -3.2726984389340680e+02 1.0000000000000000e+00 1.2189673161124093e+01 2.8474743671874960e+00 4.1039816631730597e+00 
15 1 2 1.0278970400398399e+00 -1.6416565730657081e+02 1.0000000000000000e+00 1.2386105587639108e+01 3.0463271276128410e+00 4.0993953520012356e+00 
21 1 2 1.0278970385930009e+00 -1.7277119097034517e+02 1.0000000000000000e+00 1.2386102029196573e+01 3.0463241235722842e+00 4.0993932317605548e+00 
158 1 2 1.0278967917580821e+00 -2.9219577092759346e+02 1.0000000000000000e+00 1.2393484930055301e+01 3.0197173250920639e+00 4.1385913152007570e+00 
125 1 2 1.0278999933673554e+00 -1.9356913430313821e+02 1.0000000000000000e+00 1.2398724104091187e+01 3.0336778102602824e+00 4.1316076742686603e+00 
174 1 2 1.0283036271245336e+00 -2.1323025091741300e+02 1.0000000000000000e+00 1.1836887359389227e+01 5.4622829194050704e+00 3.9951195978828711e+00 
137 1 2 1.0283036271245338e+00 -1.9344483703221675e+02 1.0000000000000000e+00 1.1836887359389223e+01 5.4622829194050677e+00 3.9951195978828671e+00 
180 1 2 1.0283036271245336e+00 -1.8773258303981692e+02 1.0000000000000000e+00 1.1836887359389225e+01 5.4622829194050695e+00 3.9951195978828697e+00 
143 1 2 1.0283036271245334e+00 -2.3639591928948738e+02 1.0000000000000000e+00 1.1836887359389225e+01 5.4622829194050695e+00 3.9951195978828720e+00 
142 1 2 1.0282809392992089e+00 -2.7016632103729683e+02 1.0000000000000000e+00 1.1841557801693275e+01 5.4623946229337168e+00 3.9986989971973976e+00 
107 1 2 1.0283698185555825e+00 -2.3311418443306829e+02 1.0000000000000000e+00 1.1752288930744639e+01 3.0750506605995263e+00 8.0244809056457633e+00 
119 1 2 1.0283565020882253e+00 -2.7784806676864275e+02 1.0000000000000000e+00 1.1746041071931561e+01 3.0779071943232514e+00 8.0283400817164754e+00 
78 1 2 1.0283565020750083e+00 -2.6464786942852339e+02 1.0000000000000000e+00 1.1746041065912484e+01 3.0779071971010157e+00 8.0283400864195915e+00 
113 1 2 1.0283565020116054e+00 -3.3303254531206966e+02 1.0000000000000000e+00 1.1746041037084291e+01 3.0779072104074006e+00 8.0283401088838584e+00 
83 1 2 1.0283558490487776e+00 -2.3871552990265906e+02 1.0000000000000000e+00 1.1745744537173858e+01 3.0780440545645185e+00 8.0285757188507869e+00 
145 1 2 1.0276995108778260e+00 -2.7368569218007497e+02 1.0000000000000000e+00 1.3266098398529493e+01 3.2310213732660173e+00 9.3946371148259811e+00 
109 1 2 1.0277004038119100e+00 -2.2891121015359724e+02 1.0000000000000000e+00 1.3266421985564614e+01 3.2314083732889416e+00 9.3948590656754654e+00 
63 1 2 1.0277004208872358e+00 -2.4270397578718828e+02 1.0000000000000000e+00 1.3266428244164505e+01 3.2314140862446381e+00 9.3948622308416798e+00 
56 1 2 1.0288302420700255e+00 -2.5168202108716275e+02 1.0000000000000000e+00 1.1385619324849596e+01 4.9070006450246133e+00 8.2539395263246114e+00 
50 1 2 1.0275607766587453e+00 -2.7015939404674907e+02 1.0000000000000000e+00 1.0901847605492323e+01 5.7311338320937439e+00 7.8765447523833494e+00 
149 1 2 1.0275982144812157e+00 -1.9805419666578595e+02 1.0000000000000000e+00 1.0899225846261141e+01 5.7330465760961324e+00 7.8771094456511852e+00 
49 1 2 1.0276742080628096e+00 -2.7762469192821152e+02 1.0000000000000000e+00 1.0894116945691415e+01 5.7366984793473659e+00 7.8785051920353864e+00 
54 1 2 1.0275289704822621e+00 -2.0569319475219999e+02 1.0000000000000000e+00 1.0374851314617599e+01 5.9525825130703707e+00 7.7864646324924243e+00 
20 1 2 1.0272399121887836e+00 -2.0094846352967539e+02 1.0000000000000000e+00 1.0391101472260756e+01 5.9488716998531137e+00 7.7716678536852433e+00 
85 1 2 1.0271197239513052e+00 -2.5017020301517869e+02 1.0000000000000000e+00 1.0532359268443351e+01 5.8488901719800008e+00 7.6732021262851049e+00 
41 1 2 1.0270498175502145e+00 -2.4548021320754205e+02 1.0000000000000000e+00 8.1112540580102284e+00 6.6812947834630938e+00 7.8888147342441952e+00 
172 1 2 1.0282626731100808e+00 -2.6539122683719864e+02 1.0000000000000000e+00 8.1067261711250254e+00 6.6751118541157002e+00 7.8001721731279083e+00 
173 1 2 1.0283387986850479e+00 -2.2687640863419799e+02 1.0000000000000000e+00 8.1021380617555074e+00 6.6819559256445542e+00 7.7769830162943228e+00 
166 1 2 1.0283227465255955e+00 -2.3490186908413924e+02 1.0000000000000000e+00 8.1032151064135700e+00 6.6810186487715768e+00 7.7816480869337550e+00 
169 1 2 1.0294286630731762e+00 -3.4991687109803411e+02 1.0000000000000000e+00 7.5657687233079010e+00 7.2987412638892852e+00 7.9578670464184942e+00 
2 1 2 1.0237144952694206e+00 -2.8153368928676633e+02 1.0000000000000000e+00 8.0832331485080520e+00 9.7343907422453810e+00 1.1059210996621101e+01 
1 1 2 1.0237076170013670e+00 -2.9009297007679555e+02 1.0000000000000000e+00 8.0839507983642385e+00 9.7339256264090910e+00 1.1059828995521332e+01 
171 1 2 1.0237054330777269e+00 -2.8476856386674450e+02 1.0000000000000000e+00 8.0842013614193355e+00 9.7337924966557878e+00 1.1060061070859575e+01 
3 1 2 1.0235478499036788e+00 -2.4044812628118797e+02 1.0000000000000000e+00 8.0797813260346452e+00 9.7310713131234081e+00 1.1060092818643339e+01 
7 1 2 1.0237351430308312e+00 -3.0646379454734620e+02 1.0000000000000000e+00 8.0818089792084677e+00 9.7357456129758528e+00 1.1058021754408092e+01 
128 1 2 1.0235307271074736e+00 -2.8670291262954714e+02 1.0000000000000000e+00 8.0799634677479268e+00 9.7305319818778440e+00 1.1060545561677609e+01 
9 1 2 1.0235478499037869e+00 -2.4361972538733639e+02 1.0000000000000000e+00 8.0797813260355902e+00 9.7310713131259501e+00 1.1060092818641852e+01 
156 1 2 1.0279499512115793e+00 -3.2488921588596486e+02 1.0000000000000000e+00 7.6857235216750288e+00 1.6117182874542703e+01 5.8499697594231925e+00 
138 1 2 1.0279476264435170e+00 -2.3992366309148133e+02 1.0000000000000000e+00 7.6839596485434747e+00 1.6118452104191658e+01 5.8511329593246293e+00 
37 1 2 1.0279475035916184e+00 -3.4241039546103639e+02 1.0000000000000000e+00 7.6840291180311082e+00 1.6118417674521748e+01 5.8509824966825255e+00 
58 1 2 1.0279474969936333e+00 -2.9142539362453766e+02 1.0000000000000000e+00 7.6839980578393527e+00 1.6118444364833056e+01 5.8509892334226477e+00 
95 1 2 1.0279474969936411e+00 -2.1847118211984781e+02 1.0000000000000000e+00 7.6839980578420466e+00 1.6118444364830708e+01 5.8509892334230544e+00 
94 1 2 1.0279474969936404e+00 -2.4887741271569217e+02 1.0000000000000000e+00 7.6839980578372851e+00 1.6118444364835160e+01 5.8509892334224025e+00 
59 1 2 1.0279474969936329e+00 -3.0704944609887315e+02 1.0000000000000000e+00 7.6839980578393448e+00 1.6118444364833049e+01 5.8509892334226477e+00 
165 1 2 1.0281447856684596e+00 -2.9609912469712862e+02 1.0000000000000000e+00 9.1892216325294633e+00 1.8995392315936279e+01 6.3925037216949745e+00 
124 1 2 1.0281247952582953e+00 -2.2850298022208395e+02 1.0000000000000000e+00 9.6021711885192698e+00 1.9259253377509843e+01 5.5693741446797649e+00 
62 1 2 1.0279398668580537e+00 -2.4688228101516211e+02 1.0000000000000000e+00 9.8184544516049659e+00 1.8338624483223626e+01 6.4228052497264763e+00 
44 1 2 1.0280041153114865e+00 -1.9614436338018740e+02 1.0000000000000000e+00 9.8861710279033108e+00 1.8346186562977632e+01 6.3968030434866181e+00 
100 1 2 1.0280408293015628e+00 -2.1818344570035217e+02 1.0000000000000000e+00 9.9484707596814630e+00 1.8363372338228839e+01 6.3780121965427572e+00 
64 1 2 1.0280408266379266e+00 -2.2914448713786035e+02 1.0000000000000000e+00 9.9484643356813329e+00 1.8363371450007467e+01 6.3780176168861189e+00 
92 1 2 1.0278936392908071e+00 -2.6182162594712929e+02 1.0000000000000000e+00 1.0120473315115275e+01 1.8540874299881725e+01 5.9322229956245298e+00 
68 1 2 1.0226926409412278e+00 -2.1912944478196428e+02 1.0000000000000000e+00 1.0342882598837205e+01 1.1800350402944442e+01 9.6592901743100619e+00 
34 1 2 1.0226475922824472e+00 -2.6168316230393123e+02 1.0000000000000000e+00 1.0345532376665913e+01 1.1800451126430588e+01 9.6622313750660531e+00 
155 1 2 1.0224669319449076e+00 -2.9194604261956641e+02 1.0000000000000000e+00 1.0327785597072625e+01 1.1798202850629060e+01 9.6294226115492147e+00 
70 1 2 1.0228421728877224e+00 -2.5324631678797004e+02 1.0000000000000000e+00 1.0332930312419357e+01 1.1801887072557070e+01 9.6532335836286602e+00 
27 1 2 1.0228604642162451e+00 -2.3022753978621918e+02 1.0000000000000000e+00 1.0332610418029844e+01 1.1802197236543362e+01 9.6541738532126740e+00 
28 1 2 1.0229028439576391e+00 -2.8022581593827266e+02 1.0000000000000000e+00 1.0335364703898856e+01 1.1803413155657744e+01 9.6634851961086703e+00 
162 1 2 1.0230237403221689e+00 -3.3560414741497283e+02 1.0000000000000000e+00 1.0331118783149938e+01 1.1805877569533607e+01 9.6692098794441090e+00 
157 1 2 1.0283067068564351e+00 -2.4376351592117300e+02 1.0000000000000000e+00 1.6185419436925315e+01 5.5151868204974832e+00 9.5703377332045463e+00 
26 1 2 1.0282937251993347e+00 -1.9510448411969375e+02 1.0000000000000000e+00 1.6173347760120478e+01 5.5166759294443217e+00 9.5611274077702397e+00 
47 1 2 1.0282937251993491e+00 -2.3379170221818762e+02 1.0000000000000000e+00 1.6173347760125782e+01 5.5166759294408996e+00 9.5611274077689430e+00 
114 1 2 1.0278814952014288e+00 -3.2050115492541897e+02 1.0000000000000000e+00 1.4349101885477587e+01 3.9700356551083935e+00 9.2679815828109007e+00 
66 1 2 1.0278814952000623e+00 -3.1714058600216038e+02 1.0000000000000000e+00 1.4349101886012004e+01 3.9700356554208316e+00 9.2679815829608483e+00 
61 1 2 1.0278814952001785e+00 -2.4509219812948834e+02 1.0000000000000000e+00 1.4349101885970297e+01 3.9700356553964182e+00 9.2679815829495471e+00 
40 1 2 1.0278814147984492e+00 -2.0073577758183831e+02 1.0000000000000000e+00 1.4349133505131732e+01 3.9700541589136309e+00 9.2679904438176663e+00 
69 1 2 1.0282937251993336e+00 -2.4780813116068433e+02 1.0000000000000000e+00 1.6173347760159761e+01 5.5166759294190806e+00 9.5611274077598054e+00 
159 1 2 1.0282937251993480e+00 -2.9824856926557169e+02 1.0000000000000000e+00 1.6173347760123324e+01 5.5166759294424814e+00 9.5611274077695878e+00 
136 1 2 1.0282937251993354e+00 -1.9674853779885467e+02 1.0000000000000000e+00 1.6173347760122081e+01 5.5166759294433438e+00 9.5611274077699200e+00 
60 1 2 1.0277144427940705e+00 -2.8661848037147553e+02 1.0000000000000000e+00 1.5863093308545466e+01 5.5573371985612434e+00 1.3250027318246289e+01 
55 1 2 1.0277144628656374e+00 -2.9895038925986779e+02 1.0000000000000000e+00 1.5863221028991981e+01 5.5573879992167896e+00 1.3250120300964591e+01 
135 1 2 1.0277144627797863e+00 -2.5599207485210860e+02 1.0000000000000000e+00 1.5863220483052368e+01 5.5573877931838567e+00 1.3250119889002841e+01 
24 1 2 1.0277144640514557e+00 -2.1564331775086904e+02 1.0000000000000000e+00 1.5863228573508627e+01 5.5573908406371864e+00 1.3250126001533159e+01 
144 1 2 1.0277144640624889e+00 -2.0089308413668792e+02 1.0000000000000000e+00 1.5863228643481373e+01 5.5573908667588174e+00 1.3250126054708131e+01 
17 1 2 1.0277144654894630e+00 -2.2429148059686887e+02 1.0000000000000000e+00 1.5863237713100693e+01 5.5573941973271461e+00 1.3250133019798028e+01 
152 1 2 1.0280819288392837e+00 -2.7130870959297823e+02 1.0000000000000000e+00 1.6795703857514638e+01 4.0033846674856468e+00 1.1724957836431811e+01 
153 1 2 1.0280819288036920e+00 -2.7857776588949076e+02 1.0000000000000000e+00 1.6795703771317903e+01 4.0033846055020952e+00 1.1724957945402304e+01 
146 1 2 1.0280819298928963e+00 -2.9729647220807715e+02 1.0000000000000000e+00 1.6795706275823115e+01 4.0033865060231602e+00 1.1724954564739265e+01 
147 1 2 1.0280819291648231e+00 -2.9127466897901303e+02 1.0000000000000000e+00 1.6795704605899541e+01 4.0033852355274382e+00 1.1724956825937642e+01 
111 1 2 1.0280820310772980e+00 -2.1014895107364771e+02 1.0000000000000000e+00 1.6795932700234872e+01 4.0035625970105801e+00 1.1724639962749134e+01 
36 1 2 1.0280888769253154e+00 -2.9047183625656413e+02 1.0000000000000000e+00 1.8921546020238353e+01 4.6654332108793470e+00 1.3611349174586149e+01 
6 1 2 1.0280889145208831e+00 -2.3947723514732289e+02 1.0000000000000000e+00 1.8921715187191253e+01 4.6655405297442654e+00 1.3610863616598351e+01 
131 1 2 1.0280889179084027e+00 -2.3464898745549479e+02 1.0000000000000000e+00 1.8921723621373907e+01 4.6655623076337420e+00 1.3610830340707675e+01 
29 1 2 1.0280889198373140e+00 -2.4981772662036647e+02 1.0000000000000000e+00 1.8921732968853078e+01 4.6655744186465240e+00 1.3610800062920010e+01 
30 1 2 1.0280889198705150e+00 -2.5537083701862076e+02 1.0000000000000000e+00 1.8921733864927930e+01 4.6655748353333681e+00 1.3610797569910263e+01 
72 1 2 1.0280889835889637e+00 -2.5548244772346823e+02 1.0000000000000000e+00 1.8921815901997697e+01 4.6656426892340503e+00 1.3610551999417453e+01 
79 1 2 1.0283170116730478e+00 -2.6883096588946648e+02 1.0000000000000000e+00 1.8047830353356023e+01 4.0745820862146696e+00 1.3639088417390115e+01 
178 1 2 1.0280264793037348e+00 -2.7573917102128809e+02 1.0000000000000000e+00 1.8295297037009899e+01 1.0645705201521181e+01 2.1720568369494329e+00 
89 1 2 1.0280264794795941e+00 -2.1176205865227834e+02 1.0000000000000000e+00 1.8295306474430323e+01 1.0645700946417012e+01 2.1720518655929810e+00 
106 1 2 1.0280264793066163e+00 -3.1733497578471264e+02 1.0000000000000000e+00 1.8295297182702981e+01 1.0645705136133252e+01 2.1720567598194576e+00 
105 1 2 1.0280264793046414e+00 -3.0781419058942123e+02 1.0000000000000000e+00 1.8295297078365635e+01 1.0645705182959794e+01 2.1720568150569508e+00 
141 1 2 1.0280264793028624e+00 -3.2529704097501855e+02 1.0000000000000000e+00 1.8295296986409777e+01 1.0645705224226065e+01 2.1720568637437725e+00 
90 1 2 1.0279125867619676e+00 -2.3429153661549537e+02 1.0000000000000000e+00 1.9667721532108441e+01 1.2243127069927088e+01 2.3910107007673149e+00 
97 1 2 1.0279125867599705e+00 -2.1950726038929662e+02 1.0000000000000000e+00 1.9667721533450234e+01 1.2243127064597841e+01 2.3910106925048926e+00 
25 1 2 1.0279125867635310e+00 -2.5723386190784447e+02 1.0000000000000000e+00 1.9667721532055278e+01 1.2243127073203915e+01 2.3910107069325459e+00 
127 1 2 1.0279125867718180e+00 -3.0281650706832050e+02 1.0000000000000000e+00 1.9667721531026917e+01 1.2243127091027297e+01 2.3910107394283058e+00 
177 1 2 1.0279981611338977e+00 -2.6453445904941049e+02 1.0000000000000000e+00 1.8013900799502014e+01 1.2278260564362592e+01 4.2546592157283554e+00 
86 1 2 1.0279981611336442e+00 -2.3615175680507579e+02 1.0000000000000000e+00 1.8013900795405739e+01 1.2278260557692629e+01 4.2546592164251340e+00 
10 1 2 1.0279981611333600e+00 -2.0487891755196355e+02 1.0000000000000000e+00 1.8013900791699935e+01 1.2278260551662223e+01 4.2546592170540452e+00 
101 1 2 1.0279981611778544e+00 -2.4606484694987023e+02 1.0000000000000000e+00 1.8013901540706662e+01 1.2278261764730237e+01 4.2546590925417513e+00 
19 1 2 1.0279981611340792e+00 -2.7320611948091931e+02 1.0000000000000000e+00 1.8013900803344360e+01 1.2278260570612753e+01 4.2546592150777816e+00 
150 1 2 1.0279981611627602e+00 -2.7396269238651087e+02 1.0000000000000000e+00 1.8013901305645170e+01 1.2278261326333514e+01 4.2546591571124130e+00 

Velocities

57 6.7961228443285282e-02 -2.0025857691569452e-02 4.3488576020861633e-02
5 6.9386575032115913e-02 -2.1040419115443316e-02 4.6674897320477790e-02
167 6.9385359819505998e-02 -2.1042265514406168e-02 4.6674330281756431e-02
12 6.9384992913944732e-02 -2.1042036186863358e-02 4.6674729569266118e-02
48 6.9384992893148464e-02 -2.1042036232960470e-02 4.6674729549504274e-02
11 6.9384992811909116e-02 -2.1042036409922103e-02 4.6674729472473406e-02
46 4.7622273848110748e-02 -1.5838669895418583e-02 -2.9711607135728964e-02
65 4.7622275798224083e-02 -1.5838635083037792e-02 -2.9711585407040577e-02
71 4.7622275790299845e-02 -1.5838635103042120e-02 -2.9711585389352122e-02
108 4.7622275790730445e-02 -1.5838635102191738e-02 -2.9711585390530638e-02
170 1.1580965006360579e-02 -3.5600494219874372e-03 -9.2521332764844318e-03
161 1.1564306548421296e-02 -3.5529507627967754e-03 -9.2509451342703830e-03
168 1.1571875964348345e-02 -3.5561758779736243e-03 -9.2514848894527692e-03
4 1.4434551002628778e-02 -4.0920450879615398e-03 -6.4845791498994486e-03
77 2.8086966463541040e-02 -1.1388071255357592e-02 -8.0794694242073486e-03
112 6.7470222053103227e-02 -8.7549979032931262e-05 -2.5604297462105838e-02
118 6.7612802827295940e-02 6.5649634737870204e-06 -2.5491958703942958e-02
117 6.7815055948553526e-02 1.3959809688179854e-04 -2.5336830564409749e-02
148 6.7989944499101007e-02 2.5302732501725623e-04 -2.5204859330443617e-02
82 6.8073118641946026e-02 3.0671717386370758e-04 -2.5143196414655396e-02
39 1.8369426907248386e-05 -6.0109399945109561e-02 -8.9707150553404585e-03
45 2.4715413537289340e-02 -4.1960476329271626e-03 -6.8027415036744348e-03
132 -3.2818735945979324e-02 -5.9188701123691720e-02 -2.8427060765021411e-02
154 -2.4746935699259690e-02 -7.0390064556016887e-02 -2.7687061920188934e-02
42 -3.9067133463894690e-02 -7.6318054397254420e-02 -3.5559315135387723e-02
123 -3.8620989391896739e-02 -7.6440025869453740e-02 -3.5548055606618743e-02
122 -3.3573857843555134e-02 -6.6156748760206871e-02 -1.3116733502692280e-02
16 1.1649814110204068e-01 -2.1211099458871577e-02 1.6468312938684802e-02
163 1.3924645395178448e-01 -4.3198771059091949e-04 2.0227553479602655e-02
103 1.3009157836080660e-02 -3.1694959916936639e-02 6.0055756938868408e-02
104 1.3009157835015012e-02 -3.1694959918306308e-02 6.0055756940442254e-02
139 1.3009157836848960e-02 -3.1694959916024591e-02 6.0055756937871470e-02
98 1.3021748934193896e-02 -3.1682300127721795e-02 6.0039055874550842e-02
76 1.3054556929413947e-02 -3.1646021771617031e-02 6.0001889079935013e-02
129 6.7948571840326891e-02 -2.2059765161920437e-02 4.1864948137981695e-02
96 6.8283494373424902e-02 -2.3860814242726430e-02 4.1395756923162344e-02
53 6.8693691096408965e-02 -2.5154374500719046e-02 3.7686247951325753e-02
81 8.3084281156748305e-02 -3.4112095111146018e-02 1.8493480300622131e-02
121 8.3079338519273294e-02 -3.4112027110317994e-02 1.8487953084295902e-02
179 8.3078059245692309e-02 -3.4109360459811035e-02 1.8490347088123922e-02
38 8.3078218544417368e-02 -3.4108127689377384e-02 1.8492545303192071e-02
130 8.3078720600448880e-02 -3.4107900614606529e-02 1.8493518486581435e-02