LAMMPS data file via write_data, version 30 Jul 2016, timestep = 50400000

4620 atoms
8 atom types

0.0000000000000000e+00 1.0000000000000000e+02 xlo xhi
0.0000000000000000e+00 4.0000000000000000e+01 ylo yhi
0.0000000000000000e+00 4.0000000000000000e+01 zlo zhi

Masses

1 3.896
2 5.36
3 20.064
4 8.378
5 8.378
6 8.378
7 8.378
8 8.378

Atoms # meso-molecular

3346 3347 2 1.0279999999788749e+00 -7.4723802815690378e+03 1.0000000000000000e+00 8.5285915271878388e+00 5.0154784221962567e-01 3.9822879627523727e-01 
3393 3394 2 1.0280000000304921e+00 2.1146589412034273e+03 1.0000000000000000e+00 8.1556808002027807e+00 1.3805956227870697e+00 3.2139545740905057e-01 
3220 3221 2 1.0280000000091689e+00 -2.1238666830026204e+03 1.0000000000000000e+00 7.9358759445162841e+00 9.5274080706281095e-01 2.0416829145533766e-01 
3854 3855 2 1.0279999999468201e+00 4.0375386478090107e+01 1.0000000000000000e+00 8.8918259498992622e+00 3.2015402000282867e-01 7.9531571121875630e-02 
4337 4338 2 1.0280000006750665e+00 -6.4139053758919340e+02 1.0000000000000000e+00 1.1654763635765974e+01 4.9734448927108090e+00 2.0145745534693384e+00 
644 645 2 1.0280000006795762e+00 -1.3808650413528158e+03 1.0000000000000000e+00 1.1664387689686396e+01 4.9471367999707585e+00 2.0347047101468223e+00 
3833 3834 2 1.0279999999841396e+00 3.8248026073256163e+01 1.0000000000000000e+00 1.4221440927503266e+01 2.8293375761687738e+00 5.0936172564205473e-01 
3333 3334 2 1.0279999999829943e+00 -7.4713474277717887e+03 1.0000000000000000e+00 1.4588626516428592e+01 3.1460568034294880e+00 6.7260926962505385e-01 
3370 3371 2 1.0279999999209204e+00 2.1197105355478025e+03 1.0000000000000000e+00 1.4658621280242381e+01 4.0113090490310777e+00 3.3849713098153572e-01 
3207 3208 2 1.0279999999392828e+00 -2.1211202631145852e+03 1.0000000000000000e+00 1.5006642249939624e+01 3.5744544010536106e+00 3.3073413407920554e-01 
3812 3813 2 1.0280000012864996e+00 1.2925339254156920e+03 1.0000000000000000e+00 8.2857680489921002e+00 5.6423214183915169e+00 2.0499811801005325e+00 
659 660 2 1.0280000007580861e+00 -1.3807009977334055e+03 1.0000000000000000e+00 8.4642262259844419e+00 5.6964513203269043e+00 1.6995448132132567e+00 
4358 4359 2 1.0280000006240149e+00 -6.4248046517212117e+02 1.0000000000000000e+00 8.4842046527233990e+00 5.7288412858531945e+00 1.6629144043149666e+00 
3726 3727 2 1.0279999982782186e+00 1.9675664470180527e+03 1.0000000000000000e+00 8.8657728376538056e+00 6.4284341224568688e+00 1.8296626558986995e+00 
3791 3792 2 1.0279999996711413e+00 1.2955630210966870e+03 1.0000000000000000e+00 1.1872430401120132e+01 5.0016013376702695e+00 2.3256544017208345e+00 
1644 1645 2 1.0279999997275220e+00 2.9831739056011793e+03 1.0000000000000000e+00 1.1458685395003657e+01 7.7912086844361417e+00 2.3669803421352151e+00 
1675 1676 2 1.0280000004660044e+00 2.9792827453065188e+03 1.0000000000000000e+00 1.0297404262357079e+01 7.9681344931024913e+00 1.5539122791830777e+00 
3061 3062 2 1.0280000019820872e+00 2.9792836948111681e+03 1.0000000000000000e+00 1.0333202611066797e+01 8.5392347996851381e+00 1.5842840212747589e+00 
3030 3031 2 1.0280000000078338e+00 2.9831167937104165e+03 1.0000000000000000e+00 1.1431511399077685e+01 8.6809940659557441e+00 2.3603797219563658e+00 
492 493 2 1.0279999996223437e+00 1.9673969162657454e+03 1.0000000000000000e+00 8.8568984994781115e+00 1.0048339558342397e+01 1.8967866269720539e+00 
578 579 2 1.0280000003347962e+00 1.2924269124468103e+03 1.0000000000000000e+00 8.2357847363702987e+00 1.0902717213047506e+01 2.1293431582547040e+00 
200 201 2 1.0280000000324698e+00 -6.4241620590835555e+02 1.0000000000000000e+00 8.4692174918358649e+00 1.0775525529374111e+01 1.7206109349427179e+00 
3893 3894 2 1.0280000000925422e+00 -1.3806798325337631e+03 1.0000000000000000e+00 8.4463455057646968e+00 1.0814025563092935e+01 1.7571079060700834e+00 
179 180 2 1.0279999997299856e+00 -6.4134858223713297e+02 1.0000000000000000e+00 1.1630863563726528e+01 1.1604214654991448e+01 1.9855826746341609e+00 
3878 3879 2 1.0279999997458509e+00 -1.3808690554426048e+03 1.0000000000000000e+00 1.1642775669656181e+01 1.1633660236468018e+01 2.0069671816641419e+00 
557 558 2 1.0280000007269621e+00 1.2955154287991727e+03 1.0000000000000000e+00 1.1843999572359508e+01 1.1561904339805883e+01 2.3158249971202594e+00 
1060 1061 2 1.0280000000097129e+00 2.1198918166678600e+03 1.0000000000000000e+00 1.4587552442415987e+01 1.2368239128272510e+01 3.3352811911489549e-01 
1083 1084 2 1.0280000000009908e+00 2.1149424449890048e+03 1.0000000000000000e+00 7.9203011510617305e+00 1.4883023436376254e+01 2.7281604237769103e-01 
599 600 2 1.0280000000313254e+00 3.8240915805151872e+01 1.0000000000000000e+00 1.4119215232615895e+01 1.3505414382344508e+01 4.3813772907235654e-01 
1023 1024 2 1.0279999999980991e+00 -7.4711725109744966e+03 1.0000000000000000e+00 1.4491881394010608e+01 1.3229901381395489e+01 6.1942803607971120e-01 
1821 1822 2 1.0279999999553238e+00 -2.1208262562907821e+03 1.0000000000000000e+00 1.4927774214352542e+01 1.2817340897214585e+01 3.0572782086968447e-01 
1036 1037 2 1.0279999999504223e+00 -7.4722937575689321e+03 1.0000000000000000e+00 8.2804940502459061e+00 1.5747682583145870e+01 3.4769589953664454e-01 
1834 1835 2 1.0280000000039218e+00 -2.1237466976608694e+03 1.0000000000000000e+00 7.6984066785620211e+00 1.5302167586294283e+01 1.5621693016376761e-01 
620 621 2 1.0279999999357214e+00 4.0461944686944477e+01 1.0000000000000000e+00 8.6463258106208389e+00 1.5924408061502728e+01 2.4587358178353003e-02 
2255 2256 2 1.0279999999246761e+00 -1.5134560605254865e+03 1.0000000000000000e+00 7.9055130383238454e+00 7.1531837211286140e+00 3.9184624952505374e+00 
1880 1881 2 1.0279999997254998e+00 -2.7498083817374927e+03 1.0000000000000000e+00 7.9742550490525099e+00 7.3584985948105617e+00 3.9923630781527688e+00 
3769 3770 2 1.0280000002985030e+00 9.1768684755222534e+02 1.0000000000000000e+00 8.3778808959691276e+00 6.0969266409907696e+00 4.5506844396281663e+00 
2725 2726 2 1.0280000002998211e+00 -4.2447204670121537e+03 1.0000000000000000e+00 8.4481371434535006e+00 6.0827298653575648e+00 4.5813457569921434e+00 
3709 3710 2 1.0279999999295930e+00 1.9695246501178599e+03 1.0000000000000000e+00 1.1414436430812721e+01 5.3934206740082073e+00 2.5619763940007165e+00 
916 917 2 1.0280000000721521e+00 3.1377698142246327e+03 1.0000000000000000e+00 1.0138913675532798e+01 7.2593152110324128e+00 3.4889040715928834e+00 
4152 4153 2 1.0279999983419927e+00 1.4095475870850049e+02 1.0000000000000000e+00 1.0466085009913067e+01 7.2474692992840453e+00 4.6026358221440455e+00 
4123 4124 2 1.0280000000836076e+00 1.4099152427709669e+02 1.0000000000000000e+00 1.1743016337934959e+01 7.1774248111674970e+00 4.7968455295345533e+00 
891 892 2 1.0280000012636350e+00 3.1388557367461026e+03 1.0000000000000000e+00 1.1853380849732897e+01 7.3316507914985047e+00 3.8774234546776802e+00 
2240 2241 2 1.0279999999129734e+00 -1.5176571342984162e+03 1.0000000000000000e+00 1.3404476235821274e+01 6.1879197562240611e+00 4.8875701457543279e+00 
2717 2718 2 1.0279999999191682e+00 -1.5133611824091936e+03 1.0000000000000000e+00 7.8680346174172175e+00 9.4131527713828937e+00 3.9059016922504113e+00 
2342 2343 2 1.0279999999316169e+00 -2.7495458816483169e+03 1.0000000000000000e+00 7.9530917043649580e+00 9.2250176213232216e+00 3.9771525550578435e+00 
4150 4151 2 1.0279999997350828e+00 3.1377341825387675e+03 1.0000000000000000e+00 1.0148655887408582e+01 9.3514406253703530e+00 3.4654468854259686e+00 
918 919 2 1.0279999988008306e+00 1.4096455293817974e+02 1.0000000000000000e+00 1.0444798785640373e+01 9.4584871965096138e+00 4.5665550613752082e+00 
889 890 2 1.0280000010270196e+00 1.4100151926128410e+02 1.0000000000000000e+00 1.1656028790049161e+01 9.6290028870671236e+00 4.7528283915613692e+00 
4125 4126 2 1.0280000009021275e+00 3.1387064499765474e+03 1.0000000000000000e+00 1.1853031372613628e+01 9.3863622261334605e+00 3.9876939266805862e+00 
535 536 2 1.0280000001812226e+00 9.1775382742792476e+02 1.0000000000000000e+00 8.3004987683439904e+00 1.0523652333625996e+01 4.5704326434589051e+00 
2263 2264 2 1.0280000001911813e+00 -4.2446469366483916e+03 1.0000000000000000e+00 8.3723129053349439e+00 1.0539770948945385e+01 4.6078301028194639e+00 
475 476 2 1.0279999989562678e+00 1.9692384273062289e+03 1.0000000000000000e+00 1.1390028792010801e+01 1.1177661904447058e+01 2.5815158012638193e+00 
2702 2703 2 1.0279999999587075e+00 -1.5176209431237862e+03 1.0000000000000000e+00 1.3392582032363414e+01 1.0549155938926832e+01 4.8212326434679174e+00 
1855 1856 2 1.0280000001206484e+00 -2.8212759765797296e+03 1.0000000000000000e+00 3.2255501109468490e+01 1.6343766928605085e+01 3.7063099153027395e+00 
2229 2230 2 1.0279999999210812e+00 -4.1277439023988302e+02 1.0000000000000000e+00 3.2660596150901320e+01 1.6430003000352002e+01 3.2416570546695986e+00 
2372 2373 2 1.0280000000537259e+00 -7.4100095087520799e+02 1.0000000000000000e+00 3.1389977763530709e+01 1.6343671430833346e+01 4.6994631549944863e+00 
2023 2024 2 1.0279999999319773e+00 2.4310280678067770e+03 1.0000000000000000e+00 3.2797096189109453e+01 1.6398462078799220e+01 3.1163007273709362e+00 
1899 1900 2 1.0280000000593090e+00 -1.3256047722134113e+03 1.0000000000000000e+00 3.1912106427565305e+01 1.7913788086200420e+01 4.5930048489032513e+00 
3350 3351 2 1.0280000014325921e+00 -9.6681424303533240e+03 1.0000000000000000e+00 9.2549289107004995e+00 6.6144609614045597e+00 5.5869360779887547e+00 
1507 1508 2 1.0279999999906448e+00 -5.8019733590319147e+03 1.0000000000000000e+00 9.3825709869835237e+00 7.2205913085704481e+00 7.3821373335275009e+00 
1501 1502 2 1.0280000013645343e+00 -2.6654553076732177e+03 1.0000000000000000e+00 9.4008118514011265e+00 7.4370701271439756e+00 6.3069717591333534e+00 
2390 2391 2 1.0280000006371297e+00 2.2614600638964089e+03 1.0000000000000000e+00 1.0423222426487548e+01 7.0760199886607662e+00 7.2122264236291267e+00 
1859 1860 2 1.0280000000324481e+00 -2.7524963175839221e+03 1.0000000000000000e+00 1.3572688240594101e+01 6.8803453066156868e+00 5.2733378739291208e+00 
2694 2695 2 1.0280000000514959e+00 -4.2434111696048258e+03 1.0000000000000000e+00 1.2824423690616847e+01 5.6749752275561267e+00 5.5013366693936110e+00 
3750 3751 2 1.0280000000488776e+00 9.1901469408454000e+02 1.0000000000000000e+00 1.2855089697895838e+01 5.6703964898758930e+00 5.5111031065905118e+00 
1482 1483 2 1.0280000000256655e+00 -2.6631900311319223e+03 1.0000000000000000e+00 1.3146685762216764e+01 7.3995856179562747e+00 6.9067020395197307e+00 
3329 3330 2 1.0280000008509478e+00 -9.6674686171208887e+03 1.0000000000000000e+00 1.3173876826322140e+01 7.1360894406524658e+00 6.9549741104817056e+00 
1305 1306 2 1.0279999998741465e+00 -2.4250644051300378e+03 1.0000000000000000e+00 1.5978627732286988e+01 7.4464199358345526e+00 6.5960638555541902e+00 
2887 2888 2 1.0279999986714892e+00 -2.6652917514917035e+03 1.0000000000000000e+00 9.3712954708302014e+00 9.3088766417305102e+00 6.3401925879313685e+00 
2893 2894 2 1.0279999997959202e+00 -5.8018320047917296e+03 1.0000000000000000e+00 9.3763654910891852e+00 9.6326238821591517e+00 7.4138311346322325e+00 
1928 1929 2 1.0280000014467008e+00 2.2614240165906599e+03 1.0000000000000000e+00 1.0417089991737974e+01 9.7586769595215426e+00 7.2634427157780115e+00 
2321 2322 2 1.0279999999908374e+00 -2.7523202122274542e+03 1.0000000000000000e+00 1.3549126664683873e+01 9.8782010281654138e+00 5.2446043477632589e+00 
2868 2869 2 1.0279999996158176e+00 -2.6630000105843028e+03 1.0000000000000000e+00 1.3146386907459844e+01 9.4477092862641801e+00 6.8695763579388442e+00 
1019 1020 2 1.0280000002096554e+00 -9.6673092358525500e+03 1.0000000000000000e+00 1.3183661089084476e+01 9.7193082482191357e+00 6.9172291198264189e+00 
2238 2239 2 1.0280000001463345e+00 -1.7360861618268536e+03 1.0000000000000000e+00 1.6442726348894464e+01 7.6092238071446276e+00 6.4312894209541263e+00 
2700 2701 2 1.0280000001099168e+00 -1.7360493687575267e+03 1.0000000000000000e+00 1.6441177321911283e+01 7.7120531318385561e+00 6.4320513970929696e+00 
3615 3616 2 1.0279999997107969e+00 -2.4249776384778033e+03 1.0000000000000000e+00 1.5977994022073696e+01 7.8595950889718207e+00 6.5929857562630714e+00 
1040 1041 2 1.0280000016711162e+00 -9.6679495801551329e+03 1.0000000000000000e+00 9.2109975305157477e+00 1.0102110971654833e+01 5.5269808908218536e+00 
2232 2233 2 1.0279999999093807e+00 -4.2433674936658845e+03 1.0000000000000000e+00 1.2823013530172911e+01 1.1116508841686080e+01 5.4461033394913274e+00 
516 517 2 1.0279999998994178e+00 9.1906517582341553e+02 1.0000000000000000e+00 1.2853788661849659e+01 1.1120936971908371e+01 5.4544701373855951e+00 
604 605 2 1.0280000001722396e+00 -2.9721970704314645e+03 1.0000000000000000e+00 3.0390365016059921e+01 1.4858989337719162e+01 6.8593474304058040e+00 
2030 2031 2 1.0279999998835949e+00 -5.9797686284967986e+03 1.0000000000000000e+00 3.0680559052621543e+01 1.4989542783387320e+01 6.0538787181567653e+00 
1021 1022 2 1.0279999998867508e+00 -6.1905935605031318e+03 1.0000000000000000e+00 3.2367107478629272e+01 1.4180558459474376e+01 6.8086438752579337e+00 
1434 1435 2 1.0279999997941001e+00 2.7450236936153192e+03 1.0000000000000000e+00 3.2515270478477895e+01 1.4314325627229028e+01 6.3007359380829469e+00 
1431 1432 2 1.0279999999683975e+00 -1.3767404703329355e+03 1.0000000000000000e+00 2.0571711224860405e+01 1.6905450847949890e+01 7.1247688058632193e+00 
4259 4260 2 1.0279999999410812e+00 4.7544816474582349e+03 1.0000000000000000e+00 2.1239621571336016e+01 1.6827238507819526e+01 7.2805842958326288e+00 
3746 3747 2 1.0279999999713052e+00 -5.7577531800246454e+01 1.0000000000000000e+00 2.2895413324002835e+01 1.7096288679270895e+01 6.8937100540432308e+00 
4431 4432 2 1.0279999998917704e+00 -1.9494578955529564e+03 1.0000000000000000e+00 2.3752389765838849e+01 1.7223014569013792e+01 7.0732440223995425e+00 
1435 1436 2 1.0279999998138720e+00 2.1102739879778587e+03 1.0000000000000000e+00 2.4146439318590197e+01 1.7140621931126784e+01 7.2086036916933383e+00 
3796 3797 2 1.0279999998602145e+00 2.6369310770323691e+03 1.0000000000000000e+00 2.8252278744149223e+01 1.6386204073898401e+01 7.2279526388677553e+00 
2361 2362 2 1.0279999999794156e+00 -1.3205905500721453e+03 1.0000000000000000e+00 2.9129757753116301e+01 1.6163283357835095e+01 5.9895344078685273e+00 
731 732 2 1.0279999999081109e+00 -2.8789881462557096e+03 1.0000000000000000e+00 2.9289532165217416e+01 1.6582660922168060e+01 6.1703415498056184e+00 
2025 2026 2 1.0280000000165770e+00 -4.4974240637851290e+03 1.0000000000000000e+00 3.0190234116373190e+01 1.5640912173744514e+01 5.4256158767715510e+00 
3795 3796 2 1.0279999999177114e+00 4.2378068220188140e+02 1.0000000000000000e+00 3.2615529735050060e+01 1.6826529461540211e+01 6.3847043066838216e+00 
607 608 2 1.0280000002871088e+00 -1.9386507034444496e+00 1.0000000000000000e+00 3.2987292685403865e+01 1.6011946088783198e+01 6.4938204135238555e+00 
1566 1567 2 1.0280000000095264e+00 8.3531613772364708e+03 1.0000000000000000e+00 1.8591505745055308e+01 1.7876401904714609e+01 7.4924790588268948e+00 
2817 2818 2 1.0279999999781249e+00 -1.3811167398006155e+03 1.0000000000000000e+00 2.0440463749513778e+01 1.8264830472439780e+01 7.2458581999448013e+00 
512 513 2 1.0280000000330891e+00 -6.7249327121576158e+01 1.0000000000000000e+00 2.2418620244390514e+01 1.8101727541152325e+01 6.4768579999437872e+00 
273 274 2 1.0279999999926843e+00 -2.0033899246898277e+03 1.0000000000000000e+00 2.1631377760916784e+01 1.9130404975144209e+01 7.0290711841451223e+00 
101 102 2 1.0279999999869476e+00 4.7467546973438511e+03 1.0000000000000000e+00 2.1692314154875369e+01 1.9278843894246627e+01 7.2503272753239099e+00 
2821 2822 2 1.0279999998762179e+00 2.1048282558561382e+03 1.0000000000000000e+00 3.0978577437559011e+01 1.7550938246563565e+01 5.2753489858818297e+00 
2443 2444 2 1.0279999999580147e+00 -1.6488011894419724e+03 1.0000000000000000e+00 3.1232824832112698e+01 1.7630958758586281e+01 6.7481175576185324e+00 
2487 2488 2 1.0280000000124758e+00 -4.4910046334981307e+03 1.0000000000000000e+00 3.1388118942003882e+01 1.9239644987610557e+01 5.6235296667008186e+00 
3841 3842 2 1.0280000001766796e+00 -8.3270098862951727e+00 1.0000000000000000e+00 3.2285177667683655e+01 1.8504186105263422e+01 6.9599272490366166e+00 
2492 2493 2 1.0279999999577638e+00 -5.9795889489265428e+03 1.0000000000000000e+00 3.2156320565839913e+01 1.9679274406609856e+01 5.5534384678206541e+00 
3838 3839 2 1.0279999999556308e+00 -2.9719874369513700e+03 1.0000000000000000e+00 3.2154598676374896e+01 1.9714761527835051e+01 5.7334486962181588e+00 
2473 2474 2 1.0279999997000000e+00 -3.7459908945678312e+03 1.0000000000000000e+00 1.1188531973639103e+01 7.1333267529449831e+00 8.1083170447991222e+00 
2442 2443 2 1.0280000020668290e+00 -3.7505923222306965e+03 1.0000000000000000e+00 1.1225685813653493e+01 7.4213390080274397e+00 9.0633019890066162e+00 
2357 2358 2 1.0279999988004853e+00 2.2612624232046232e+03 1.0000000000000000e+00 1.2203515931811671e+01 6.9952067419826545e+00 7.5337035090391336e+00 
2804 2805 2 1.0280000000238787e+00 -1.6834074133691074e+03 1.0000000000000000e+00 8.9098702003541721e+00 8.2288877423077391e+00 8.4122878409552602e+00 
1418 1419 2 1.0279999999839835e+00 -1.6833932122703723e+03 1.0000000000000000e+00 8.8962581807192933e+00 8.6720585308987435e+00 8.4236230894498174e+00 
2011 2012 2 1.0279999999888141e+00 -3.7457757055926359e+03 1.0000000000000000e+00 1.1191643405532123e+01 9.7924264022269139e+00 8.1098306523667709e+00 
1980 1981 2 1.0279999986862756e+00 -3.7505743826933935e+03 1.0000000000000000e+00 1.1239797978682413e+01 9.5191830915683244e+00 9.0075213481715259e+00 
1895 1896 2 1.0279999994547211e+00 2.2612181341051196e+03 1.0000000000000000e+00 1.2231536635416173e+01 9.9090325767673928e+00 7.5187506818367549e+00 
597 598 2 1.0280000018842301e+00 2.2217388866651777e+03 1.0000000000000000e+00 1.3056726943215621e+01 7.5566058324731626e+00 9.3873149502514881e+00 
3831 3832 2 1.0280000010111450e+00 2.2215347405811031e+03 1.0000000000000000e+00 1.3072438108673506e+01 9.4801492840865524e+00 9.3946960598501867e+00 
3580 3581 2 1.0279999996567617e+00 -6.4521733507104800e+03 1.0000000000000000e+00 1.3574092450392872e+01 9.4802357957306196e+00 9.9858215340621594e+00 
1476 1477 2 1.0279999996171088e+00 -5.8026951658123671e+03 1.0000000000000000e+00 1.4695315104052982e+01 8.2016532581092090e+00 9.0827336187952987e+00 
2862 2863 2 1.0279999994850570e+00 -5.8025973893164210e+03 1.0000000000000000e+00 1.4700497657618063e+01 8.7922239422634689e+00 9.0793028911304443e+00 
1056 1057 2 1.0280000000104408e+00 2.8077705243518908e+03 1.0000000000000000e+00 2.0380153891380772e+01 1.2216857929741508e+01 9.7320315243778719e+00 
1224 1225 2 1.0280000000102452e+00 2.8084175827527238e+03 1.0000000000000000e+00 2.0381874655629865e+01 1.2216900759380204e+01 9.7316020972019857e+00 
3455 3456 2 1.0280000000208160e+00 1.9566623564585507e+03 1.0000000000000000e+00 2.0269988362800447e+01 1.2221445781354868e+01 9.7263065012747063e+00 
221 222 2 1.0280000000265255e+00 -7.7089041357814394e+03 1.0000000000000000e+00 1.8986524116741979e+01 1.3494804593422014e+01 9.8302338823753157e+00 
2066 2067 2 1.0279999999307750e+00 8.8771694071263591e+03 1.0000000000000000e+00 1.9974831375216457e+01 1.4201310305315943e+01 9.3471605050891888e+00 
4551 4552 2 1.0279999999810370e+00 6.9102912367845178e+01 1.0000000000000000e+00 2.2212656629367096e+01 1.3675827400057543e+01 9.5781905359971855e+00 
4215 4216 2 1.0279999998592642e+00 6.7484024287831275e+01 1.0000000000000000e+00 2.1782004644819885e+01 1.3511169628994057e+01 9.6842260351481855e+00 
1144 1145 2 1.0279999998211915e+00 4.3804371005090707e+03 1.0000000000000000e+00 2.3288457144211538e+01 1.4430266043927134e+01 9.5010176162574549e+00 
1607 1608 2 1.0279999997882965e+00 6.5714088674969998e+03 1.0000000000000000e+00 2.3325717772842612e+01 1.4472086466042345e+01 9.4763836217097293e+00 
1941 1942 2 1.0279999999634122e+00 -4.9619976218406064e+03 1.0000000000000000e+00 2.8177990005273376e+01 1.4881482444881323e+01 9.9586829388130909e+00 
972 973 2 1.0279999998195823e+00 2.3303075337647653e+02 1.0000000000000000e+00 2.8711578394418925e+01 1.4543591048978643e+01 9.5191052900300139e+00 
144 145 2 1.0280000000104150e+00 9.5468721837976682e+02 1.0000000000000000e+00 3.0402210111906957e+01 1.3897272160619918e+01 8.7973918749938402e+00 
3123 3124 2 1.0280000001085183e+00 -2.2472023761105938e+03 1.0000000000000000e+00 3.1024420529839499e+01 1.3412602797535440e+01 9.1507951478319143e+00 
1986 1987 2 1.0279999998056717e+00 3.2020077527960029e+03 1.0000000000000000e+00 3.1567830475168108e+01 1.3547237713235981e+01 9.3421074410841722e+00 
524 525 2 1.0279999999825655e+00 1.2212911882347485e+03 1.0000000000000000e+00 3.2445527584176318e+01 1.4367658755688147e+01 8.7162837334963950e+00 
3452 3453 2 1.0279999999874603e+00 6.1395498722962850e+02 1.0000000000000000e+00 1.3291458041409337e+01 1.7237480252806403e+01 9.7424259652881080e+00 
423 424 2 1.0280000000049165e+00 -9.1590560829270294e+02 1.0000000000000000e+00 1.4243759236280352e+01 1.7169891946475978e+01 8.9568484933267687e+00 
463 464 2 1.0279999999690546e+00 -3.2512235726489408e+01 1.0000000000000000e+00 1.5422511835403888e+01 1.6293238694176715e+01 9.2616972439558900e+00 
2064 2065 2 1.0279999999824496e+00 -1.3331751195953102e+03 1.0000000000000000e+00 1.5506093821885546e+01 1.5705740992357507e+01 9.6912444615486049e+00 
3369 3370 2 1.0279999999821741e+00 2.3661960342767502e+03 1.0000000000000000e+00 1.6998446539367670e+01 1.6321692654744279e+01 8.6115674399995061e+00 
641 642 2 1.0280000000053127e+00 8.0568226680686234e+02 1.0000000000000000e+00 1.7639659016281218e+01 1.5950745688061689e+01 8.2704546537375556e+00 
1402 1403 2 1.0280000000208669e+00 -1.4230400649868175e+03 1.0000000000000000e+00 1.8562813397936097e+01 1.5087309707224000e+01 8.8075622493375203e+00 
2952 2953 2 1.0279999999978378e+00 8.3454387935438172e+03 1.0000000000000000e+00 1.8855186413391571e+01 1.6065927373606797e+01 7.5531934186117269e+00 
142 143 2 1.0279999999387848e+00 1.9629008035897155e+03 1.0000000000000000e+00 1.9406306766867321e+01 1.5987915575167358e+01 7.7247697282021868e+00 
3867 3868 2 1.0279999999789642e+00 -3.4598329831881056e+03 1.0000000000000000e+00 2.0857292578080003e+01 1.7043352429556180e+01 8.9793775898692267e+00 
680 681 2 1.0280000000947702e+00 -4.9138693663746071e+03 1.0000000000000000e+00 2.1548105293084127e+01 1.5134924090343638e+01 8.9027709097090018e+00 
717 718 2 1.0280000002517733e+00 -3.4649902236341113e+03 1.0000000000000000e+00 2.2691664621070650e+01 1.5587855480894829e+01 8.6480953387900108e+00 
633 634 2 1.0279999998461080e+00 -3.4542241821833300e+03 1.0000000000000000e+00 2.3317843534739978e+01 1.6752586132022131e+01 9.6026872975746240e+00 
1317 1318 2 1.0279999998613278e+00 -2.9412141161772888e+02 1.0000000000000000e+00 2.5184274043536956e+01 1.5627808149947406e+01 8.9253723672157328e+00 
139 140 2 1.0279999999886102e+00 4.4950658671900756e+03 1.0000000000000000e+00 2.5316580583991566e+01 1.5735929345394490e+01 8.6190232682191059e+00 
2192 2193 2 1.0279999999908100e+00 -2.1646248332905207e+03 1.0000000000000000e+00 2.5906573196711633e+01 1.6228707397828881e+01 9.5706066371958034e+00 
3965 3966 2 1.0279999998730729e+00 -2.8979575439508544e+03 1.0000000000000000e+00 2.6050496006436642e+01 1.6793615641992577e+01 7.5628584865016384e+00 
4343 4344 2 1.0279999999014575e+00 4.0448194974723515e+03 1.0000000000000000e+00 2.6134625824306930e+01 1.7078018475538055e+01 7.6461803929679037e+00 
2746 2747 2 1.0279999999037142e+00 -3.9886903320290694e+03 1.0000000000000000e+00 2.7817124395268468e+01 1.6447371483284527e+01 8.4700579764640036e+00 
1981 1982 2 1.0280000001132819e+00 -1.6476109021506154e+03 1.0000000000000000e+00 2.8227092201370073e+01 1.6029884879315805e+01 7.6136519928187969e+00 
1900 1901 2 1.0279999999627463e+00 -1.7261259343214069e+03 1.0000000000000000e+00 2.9810860759588994e+01 1.5083972911443182e+01 8.3213199952381505e+00 
2035 2036 2 1.0279999998673333e+00 -4.3792164849040582e+03 1.0000000000000000e+00 3.1018461115557688e+01 1.6214495387058697e+01 7.8248159818177125e+00 
108 109 2 1.0279999998072258e+00 6.4594413687789370e+02 1.0000000000000000e+00 3.1289421477545350e+01 1.5875930123226677e+01 9.1614407936934779e+00 
2497 2498 2 1.0280000001787934e+00 -4.3482868950187494e+03 1.0000000000000000e+00 3.2251104590400089e+01 1.6991151291749812e+01 8.1233768783245850e+00 
2039 2040 2 1.0280000004149148e+00 -4.4815820308276652e+03 1.0000000000000000e+00 3.1969583012298180e+01 1.7148272845282172e+01 9.3929146367465055e+00 
1142 1143 2 1.0279999999926794e+00 6.1356854116854061e+02 1.0000000000000000e+00 1.3175262021971601e+01 1.8185727422910706e+01 9.7349738196742290e+00 
4581 4582 2 1.0280000000012945e+00 -9.1422278309576245e+02 1.0000000000000000e+00 1.3945017648564622e+01 1.8460468390105110e+01 8.9515522883272283e+00 
3697 3698 2 1.0279999999820701e+00 -3.2322968025993390e+01 1.0000000000000000e+00 1.5327451098896498e+01 1.9466970244078169e+01 9.3932841961442577e+00 
2526 2527 2 1.0279999999661498e+00 -1.3336550327617256e+03 1.0000000000000000e+00 1.5393304093545268e+01 1.9711220189448959e+01 9.6318042806015232e+00 
3875 3876 2 1.0279999999777560e+00 8.0034581510343662e+02 1.0000000000000000e+00 1.7325556152723927e+01 1.7856570977761034e+01 8.4978218426234413e+00 
1059 1060 2 1.0280000000546530e+00 2.3627435085059765e+03 1.0000000000000000e+00 1.7046921198454413e+01 1.8096181016274308e+01 9.3243456161936944e+00 
4300 4301 2 1.0279999999839753e+00 1.9579192583248528e+03 1.0000000000000000e+00 1.8488874631895033e+01 1.8259187187359981e+01 7.9591504741044865e+00 
2788 2789 2 1.0280000000361456e+00 -1.4538611623725096e+03 1.0000000000000000e+00 1.9241070663675828e+01 1.7927423532478052e+01 8.8371225412648933e+00 
1227 1228 2 1.0280000000665943e+00 2.3645409959423059e+03 1.0000000000000000e+00 2.0048143882962936e+01 1.8994594585341286e+01 9.8706702503759232e+00 
3951 3952 2 1.0280000001161924e+00 -3.4738107554206335e+03 1.0000000000000000e+00 2.2655548790798822e+01 1.8573544434066594e+01 8.8164779355491056e+00 
3914 3915 2 1.0279999999067504e+00 -4.9230344600847566e+03 1.0000000000000000e+00 2.2288856688870414e+01 1.9348715564442266e+01 8.7789730329447515e+00 
2284 2285 2 1.0279999999511391e+00 -3.9694986915166264e+03 1.0000000000000000e+00 2.3347099548285975e+01 1.9223241460198267e+01 7.9253527818551239e+00 
185 186 2 1.0280000001912708e+00 4.0375558420363104e+03 1.0000000000000000e+00 2.5130967962670411e+01 1.8019054013356108e+01 8.2688245099044870e+00 
4297 4298 2 1.0279999998010727e+00 4.5025113167482696e+03 1.0000000000000000e+00 2.5472641637429323e+01 1.9218160791566437e+01 8.8171990173227428e+00 
3627 3628 2 1.0279999998148981e+00 -2.9130697527279824e+02 1.0000000000000000e+00 2.6323041832706679e+01 1.9327989599048379e+01 8.6746262285117908e+00 
1315 1316 2 1.0279999999764395e+00 -9.8396697294807723e+02 1.0000000000000000e+00 2.8087132210280053e+01 1.8123356483686148e+01 9.1670308596952879e+00 
2654 2655 2 1.0279999998039506e+00 -2.1628873112980918e+03 1.0000000000000000e+00 2.6555639426102427e+01 1.9735422551746090e+01 9.0027322483942473e+00 
3282 3283 2 1.0279999997009996e+00 2.3395314624798135e+02 1.0000000000000000e+00 2.8314149089121660e+01 1.9911438956670604e+01 8.8413371035584056e+00 
2362 2363 2 1.0280000000065768e+00 -1.7249573268641298e+03 1.0000000000000000e+00 2.9568421051781513e+01 1.9314361581591843e+01 7.9448288123334629e+00 
3625 3626 2 1.0280000001769771e+00 -9.9735648037848478e+02 1.0000000000000000e+00 2.8643800886958235e+01 1.7583952283161580e+01 9.5125402192232489e+00 
2403 2404 2 1.0280000001977623e+00 -4.9629594933733251e+03 1.0000000000000000e+00 2.9392871048955136e+01 1.9350779890795621e+01 9.7824114613476887e+00 
4266 4267 2 1.0279999999038787e+00 6.5856097308949427e+02 1.0000000000000000e+00 3.1266008183985701e+01 1.9417449179385581e+01 8.6729632259446845e+00 
3956 3957 2 1.0279999998225204e+00 -8.0297520102910175e+02 1.0000000000000000e+00 3.2465465202340141e+01 1.9550663049880530e+01 9.5131658408252733e+00 
1480 1481 2 1.0280000002261729e+00 -2.7306758423380224e+03 1.0000000000000000e+00 1.1749061390647727e+01 4.5982602452072303e+00 1.1715344110186884e+01 
622 623 2 1.0279999997510951e+00 2.2207520667810973e+03 1.0000000000000000e+00 9.4354578172164114e+00 7.4722311538639081e+00 1.0093310128962159e+01 
3766 3767 2 1.0280000002998904e+00 2.9268502930442096e+03 1.0000000000000000e+00 8.5218659001214352e+00 6.9285360363058697e+00 1.2373364270160417e+01 
2848 2849 2 1.0279999999660125e+00 4.0504625467978667e+03 1.0000000000000000e+00 1.0803766171027386e+01 5.3242035917392263e+00 1.1155328979861091e+01 
3355 3356 2 1.0279999990470750e+00 -4.3248674692430250e+03 1.0000000000000000e+00 1.0193260058685029e+01 7.1390484856561658e+00 1.0357853982366974e+01 
2802 2803 2 1.0279999995508544e+00 -3.4608028031235071e+03 1.0000000000000000e+00 1.0585483302151868e+01 5.7728543078078944e+00 1.2321409300625373e+01 
1503 1504 2 1.0279999997822455e+00 -2.7287316329350733e+03 1.0000000000000000e+00 1.1188008465282698e+01 5.7559956812430286e+00 1.0752804775542147e+01 
2823 2824 2 1.0280000000813867e+00 4.0478372083319227e+03 1.0000000000000000e+00 1.2384245434284709e+01 5.0401993458997074e+00 1.1752254581140976e+01 
2785 2786 2 1.0279999999457163e+00 -3.4625619279457778e+03 1.0000000000000000e+00 1.2474658365175097e+01 5.3080556481289864e+00 1.2100456699679812e+01 
3753 3754 2 1.0280000003537280e+00 2.9266419248394113e+03 1.0000000000000000e+00 1.5928453363575221e+01 6.8906020358688460e+00 1.1755885452699061e+01 
1897 1898 2 1.0279999999789959e+00 3.9631941350710031e+02 1.0000000000000000e+00 1.6012233416323436e+01 6.3791310198710649e+00 1.2172268243245060e+01 
4131 4132 2 1.0280000001320375e+00 6.5021899521373075e+02 1.0000000000000000e+00 1.6020480450609558e+01 6.7081944895208787e+00 1.1862759049096573e+01 
3856 3857 2 1.0280000006083267e+00 2.2206816008738074e+03 1.0000000000000000e+00 9.4327508237994611e+00 9.6459935794882004e+00 1.0100527441453863e+01 