LAMMPS data file via write_data, version 30 Jul 2016, timestep = 50400000

180 atoms
2 atom types

0.0000000000000000e+00 2.0000000000000000e+01 xlo xhi
0.0000000000000000e+00 2.0000000000000000e+01 ylo yhi
0.0000000000000000e+00 2.0000000000000000e+01 zlo zhi

Masses

1 3.896
2 4.31

Atoms # meso-molecular

125 1 2 1.0279995832038804e+00 -1.5155962463884484e+02 1.0000000000000000e+00 9.8645510568786676e-01 6.7203057167334928e+00 6.5504011740768719e+00 
94 1 2 1.0279995832038802e+00 -1.5801828914176070e+02 1.0000000000000000e+00 9.8645510568925610e-01 6.7203057167329519e+00 6.5504011740770949e+00 
124 1 2 1.0279995832038804e+00 -1.6542759906242014e+02 1.0000000000000000e+00 9.8645510568957473e-01 6.7203057167395510e+00 6.5504011740775381e+00 
95 1 2 1.0279995832038804e+00 -1.5419041214470036e+02 1.0000000000000000e+00 9.8645510569945882e-01 6.7203057167398077e+00 6.5504011740793748e+00 
43 1 2 1.0279995832038802e+00 -2.1901407935417527e+02 1.0000000000000000e+00 9.8645510568991557e-01 6.7203057167414171e+00 6.5504011740777077e+00 
131 1 2 1.0279995832038804e+00 -2.0051090328701548e+02 1.0000000000000000e+00 9.8645510568952721e-01 6.7203057167393023e+00 6.5504011740775141e+00 
130 1 2 1.0279995832038804e+00 -1.7586801604136781e+02 1.0000000000000000e+00 9.8645510568923944e-01 6.7203057167325522e+00 6.5504011740770700e+00 
133 1 2 1.0279995832038797e+00 -1.7349949945916779e+02 1.0000000000000000e+00 3.9542831043740256e-01 6.5341968934958441e+00 9.7576439055776483e+00 
104 1 2 1.0279995832038797e+00 -3.1673972009528103e+02 1.0000000000000000e+00 3.9542831043739357e-01 6.5341968934958210e+00 9.7576439055776465e+00 
26 1 2 1.0279995832038797e+00 -2.2298574168930986e+02 1.0000000000000000e+00 3.9542831043739329e-01 6.5341968934958423e+00 9.7576439055776465e+00 
132 1 2 1.0279995832038797e+00 -2.0777568270564353e+02 1.0000000000000000e+00 3.9542831043739357e-01 6.5341968934958210e+00 9.7576439055776465e+00 
83 1 2 1.0279995832038797e+00 -2.1841565569031246e+02 1.0000000000000000e+00 3.9542831043740645e-01 6.5341968934958317e+00 9.7576439055776500e+00 
171 1 2 1.0279995832038797e+00 -2.2119434966800725e+02 1.0000000000000000e+00 3.9542831043739096e-01 6.5341968934958397e+00 9.7576439055776465e+00 
128 1 2 1.0279995832038797e+00 -2.5203354365677916e+02 1.0000000000000000e+00 3.9542831043740184e-01 6.5341968934958397e+00 9.7576439055776483e+00 
65 1 2 1.0280006354347053e+00 -2.5776486294170257e+02 1.0000000000000000e+00 3.3144930658848133e+00 2.3259598191255728e+00 1.0588339931045617e+01 
30 1 2 1.0280006354347053e+00 -2.5192506332029498e+02 1.0000000000000000e+00 3.3144930658848044e+00 2.3259598191255715e+00 1.0588339931045622e+01 
24 1 2 1.0280006354347053e+00 -2.4447055387180134e+02 1.0000000000000000e+00 3.3144930658848160e+00 2.3259598191255724e+00 1.0588339931045610e+01 
36 1 2 1.0280006354347053e+00 -2.6800331094739192e+02 1.0000000000000000e+00 3.3144930658848160e+00 2.3259598191255724e+00 1.0588339931045610e+01 
167 1 2 1.0280006354347053e+00 -2.1908594102427421e+02 1.0000000000000000e+00 3.3144930658848177e+00 2.3259598191255781e+00 1.0588339931045631e+01 
64 1 2 1.0280006354347053e+00 -1.6518554704162759e+02 1.0000000000000000e+00 3.3144930658848257e+00 2.3259598191255768e+00 1.0588339931045617e+01 
35 1 2 1.0280006354347053e+00 -2.2439290639132832e+02 1.0000000000000000e+00 3.3144930658848031e+00 2.3259598191255759e+00 1.0588339931045638e+01 
78 1 2 1.0279998068368219e+00 -2.8735649491818265e+02 1.0000000000000000e+00 5.5461578063352759e+00 8.5081739891818700e+00 1.4806771055909959e+01 
42 1 2 1.0279998068368219e+00 -2.7204892220353719e+02 1.0000000000000000e+00 5.5461578063336630e+00 8.5081739891770063e+00 1.4806771055898938e+01 
73 1 2 1.0279998068368219e+00 -2.5771487189108984e+02 1.0000000000000000e+00 5.5461578063345476e+00 8.5081739891820636e+00 1.4806771055897919e+01 
1 1 2 1.0279998068368219e+00 -2.3495761296346939e+02 1.0000000000000000e+00 5.5461578063333610e+00 8.5081739891764165e+00 1.4806771055895920e+01 
163 1 2 1.0279998068368219e+00 -1.1508274000186123e+02 1.0000000000000000e+00 5.5461578063364438e+00 8.5081739891970116e+00 1.4806771055883654e+01 
7 1 2 1.0279998068368219e+00 -2.2434877661466351e+02 1.0000000000000000e+00 5.5461578063328956e+00 8.5081739891752299e+00 1.4806771055892103e+01 
37 1 2 1.0279998068368219e+00 -2.1331149326315912e+02 1.0000000000000000e+00 5.5461578063361143e+00 8.5081739891884567e+00 1.4806771055903718e+01 
164 1 2 1.0279998801949273e+00 -2.7018990376628824e+02 1.0000000000000000e+00 5.0005631137029054e+00 1.2564872472791539e+01 1.3704684044058384e+00 
120 1 2 1.0279998801949279e+00 -3.9757782326887121e+02 1.0000000000000000e+00 5.0005631140037652e+00 1.2564872473332684e+01 1.3704684040392845e+00 
127 1 2 1.0279998801949282e+00 -2.4190363595739814e+02 1.0000000000000000e+00 5.0005631140866598e+00 1.2564872473458676e+01 1.3704684039641144e+00 
157 1 2 1.0279998801949286e+00 -2.1129767513059693e+02 1.0000000000000000e+00 5.0005631140874973e+00 1.2564872473460191e+01 1.3704684039630848e+00 
160 1 2 1.0279998801949077e+00 -2.1092580530724206e+02 1.0000000000000000e+00 5.0005631208198897e+00 1.2564872476104242e+01 1.3704684063335599e+00 
137 1 2 1.0279998801948922e+00 -2.4352106432563141e+02 1.0000000000000000e+00 5.0005631294551005e+00 1.2564872483476195e+01 1.3704684049273863e+00 
152 1 2 1.0279998801949262e+00 -1.6157618927923664e+02 1.0000000000000000e+00 5.0005631134475976e+00 1.2564872472152700e+01 1.3704684049175697e+00 
44 1 2 1.0279999085052813e+00 -2.5453313068776788e+02 1.0000000000000000e+00 1.3762081886306958e+00 1.5993488765668959e+01 1.7711918731943461e+00 
150 1 2 1.0279998842122775e+00 -2.0712632209315075e+02 1.0000000000000000e+00 9.3192783185318795e-01 1.4846429303608605e+01 1.6060432846621446e+00 
100 1 2 1.0279998829705081e+00 -2.4386736049059968e+02 1.0000000000000000e+00 9.3330320385393317e-01 1.4855247898878778e+01 1.5996602148887751e+00 
59 1 2 1.0279998829263439e+00 -2.0887723417926279e+02 1.0000000000000000e+00 9.3330187159059219e-01 1.4855993567396666e+01 1.5992028518679169e+00 
58 1 2 1.0279998822723597e+00 -1.5515642684212744e+02 1.0000000000000000e+00 9.3397904500212359e-01 1.4861162887368666e+01 1.5956210052539219e+00 
121 1 2 1.0280002145889275e+00 -2.0500395790224610e+02 1.0000000000000000e+00 3.7866192142570987e+00 1.5539570023740749e+01 2.7522120489122988e+00 
145 1 2 1.0280002285129179e+00 -1.9933037471926002e+02 1.0000000000000000e+00 3.9623748248142934e+00 1.5614597547390767e+01 2.2953106434895059e+00 
148 1 2 1.0279999144720069e+00 -2.3967462408219140e+02 1.0000000000000000e+00 3.5315404954806868e+00 1.5984092413545270e+01 1.7264753799945443e+00 
103 1 2 1.0279999266252808e+00 -2.7513388041369069e+02 1.0000000000000000e+00 3.7156118162914744e+00 1.5691277747215365e+01 1.5793330755021153e+00 
87 1 2 1.0279998216125237e+00 -2.2525734078643720e+02 1.0000000000000000e+00 3.5848849611450353e+00 1.5829770339025485e+01 1.5717122498592400e+00 
159 1 2 1.0279998710676213e+00 -1.7062966513907608e+02 1.0000000000000000e+00 3.6903382611724469e+00 1.5653268284565225e+01 1.5420621504959837e+00 
154 1 2 1.0279998128074501e+00 -1.5077606747690740e+02 1.0000000000000000e+00 3.6436502028569731e+00 1.5699509769059492e+01 1.5295598643023496e+00 
102 1 2 1.0280001318574767e+00 -1.1500560296190154e+02 1.0000000000000000e+00 5.9552165083865072e-01 1.5738925642626436e+01 3.3713796504605624e+00 
138 1 2 1.0280001318462244e+00 -1.1824330097427409e+02 1.0000000000000000e+00 5.9546170344365923e-01 1.5738777574586573e+01 3.3714493158007977e+00 
62 1 2 1.0280001318758378e+00 -1.6475543379046442e+02 1.0000000000000000e+00 5.9571786189231435e-01 1.5739305992700793e+01 3.3712271828285880e+00 
68 1 2 1.0280001319041527e+00 -2.5069854357572797e+02 1.0000000000000000e+00 5.9543906033767335e-01 1.5739075738488424e+01 3.3712181855646919e+00 
98 1 2 1.0280001318781009e+00 -2.6225898495534170e+02 1.0000000000000000e+00 5.9548520784309811e-01 1.5738991890708967e+01 3.3713084006169129e+00 
55 1 2 1.0279998116584186e+00 -1.7598273470056026e+02 1.0000000000000000e+00 2.0781609779312484e+00 1.3700717882457761e+01 3.4063967766151260e+00 
151 1 2 1.0279998041368141e+00 -2.0590621137576639e+02 1.0000000000000000e+00 2.1004759410415872e+00 1.3723027520520146e+01 3.6011391218458857e+00 
97 1 2 1.0279998039204064e+00 -1.8822226316418292e+02 1.0000000000000000e+00 2.1146828453589008e+00 1.3736025966490335e+01 3.6639953836506831e+00 
66 1 2 1.0279999353910787e+00 -2.5106509048017105e+02 1.0000000000000000e+00 3.5419195541620461e+00 1.3631945043417369e+01 3.9893230009843550e+00 
60 1 2 1.0280000013699078e+00 -2.0840127311371438e+02 1.0000000000000000e+00 3.5340558925585470e+00 1.3731326990202971e+01 4.0555643565699677e+00 
91 1 2 1.0280000004115868e+00 -2.0179235591303538e+02 1.0000000000000000e+00 3.5345701252632624e+00 1.3729822365612144e+01 4.0544515146393048e+00 
123 1 2 1.0280000697716685e+00 -1.6528538890187551e+02 1.0000000000000000e+00 3.4940199062781785e+00 1.3872849032395958e+01 4.1275935009231883e+00 
116 1 2 1.0280000695208928e+00 -1.7975230033815367e+02 1.0000000000000000e+00 3.4944380714339771e+00 1.3872177542457900e+01 4.1272062068231250e+00 
111 1 2 1.0280006354347038e+00 -1.9805325117319543e+02 1.0000000000000000e+00 4.1869551211426286e+00 1.9286633778521765e+01 1.1407821575548168e+01 
136 1 2 1.0280006354347038e+00 -2.2611872380506355e+02 1.0000000000000000e+00 4.1869551211496754e+00 1.9286633778521555e+01 1.1407821575539872e+01 
77 1 2 1.0280006354347038e+00 -1.6729609619570570e+02 1.0000000000000000e+00 4.1869551211302829e+00 1.9286633778516148e+01 1.1407821575540465e+01 
162 1 2 1.0280006354347038e+00 -1.6819990560143410e+02 1.0000000000000000e+00 4.1869551211266858e+00 1.9286633778523200e+01 1.1407821575570470e+01 
170 1 2 1.0280006354347100e+00 -2.5051993506412745e+02 1.0000000000000000e+00 4.1869551231001099e+00 1.9286633778704221e+01 1.1407821574140392e+01 
135 1 2 1.0280006354347100e+00 -2.3295142544192709e+02 1.0000000000000000e+00 4.1869551229996089e+00 1.9286633778706122e+01 1.1407821574254484e+01 
161 1 2 1.0280006354347038e+00 -2.1301380222490226e+02 1.0000000000000000e+00 4.1869551210953793e+00 1.9286633778519121e+01 1.1407821575588670e+01 
4 1 2 1.0280001836274957e+00 -2.6246776204380541e+02 1.0000000000000000e+00 1.7585779889791697e+00 1.4602753851997781e+01 1.8566655856442765e+01 
11 1 2 1.0280001837254327e+00 -2.3930279974468544e+02 1.0000000000000000e+00 1.7585761746336199e+00 1.4602738299518641e+01 1.8566657234761625e+01 
6 1 2 1.0280001836820936e+00 -1.8760148210964880e+02 1.0000000000000000e+00 1.7585768040083838e+00 1.4602745093878170e+01 1.8566656595847292e+01 
47 1 2 1.0280001837066268e+00 -1.8826314847729165e+02 1.0000000000000000e+00 1.7585763471536366e+00 1.4602741196757776e+01 1.8566656940844698e+01 
5 1 2 1.0280001836807204e+00 -1.7775180631814891e+02 1.0000000000000000e+00 1.7585768347248665e+00 1.4602745314864370e+01 1.8566656577363567e+01 
10 1 2 1.0280001836196480e+00 -2.7227087132850045e+02 1.0000000000000000e+00 1.7586207052043672e+00 1.4602776690552204e+01 1.8566662794240873e+01 
41 1 2 1.0280001834992567e+00 -1.8924037648468317e+02 1.0000000000000000e+00 1.7585824184260697e+00 1.4602775253676501e+01 1.8566654395601255e+01 
89 1 2 1.0280002941112272e+00 -2.5107311262979525e+02 1.0000000000000000e+00 1.2648147369891225e+01 7.1605096519055502e+00 3.3073422986697651e+00 
14 1 2 1.0280002957394150e+00 -2.9253341123055776e+02 1.0000000000000000e+00 1.2648137455649676e+01 7.1605807571677254e+00 3.3073566921648618e+00 
19 1 2 1.0280002957559053e+00 -2.9863449032256523e+02 1.0000000000000000e+00 1.2648137794536499e+01 7.1605783450981075e+00 3.3073568883128361e+00 
56 1 2 1.0280002942023694e+00 -2.4824231224441323e+02 1.0000000000000000e+00 1.2648135110839872e+01 7.1605969914822767e+00 3.3073417717781903e+00 
21 1 2 1.0280003016677168e+00 -1.8452929272457996e+02 1.0000000000000000e+00 1.2648142829817058e+01 7.1605445232212830e+00 3.3074137953991345e+00 
13 1 2 1.0280002951963616e+00 -2.6142373612869312e+02 1.0000000000000000e+00 1.2648136817691704e+01 7.1605851300167611e+00 3.3073514430873674e+00 
20 1 2 1.0280002951797920e+00 -1.9729423162349968e+02 1.0000000000000000e+00 1.2648137183055068e+01 7.1605825174464801e+00 3.3073513272589548e+00 
117 1 2 1.0279981284906157e+00 -1.8079359295064526e+02 1.0000000000000000e+00 9.1218095490520295e+00 6.1154788755138521e+00 5.4787991176326978e+00 
114 1 2 1.0279981284906157e+00 -3.0573858741085485e+02 1.0000000000000000e+00 9.1218095490520383e+00 6.1154788755138414e+00 5.4787991176327973e+00 
23 1 2 1.0279981284906157e+00 -2.0596898686054530e+02 1.0000000000000000e+00 9.1218095490520170e+00 6.1154788755138751e+00 5.4787991176325201e+00 
101 1 2 1.0279981284906157e+00 -2.9055102091779253e+02 1.0000000000000000e+00 9.1218095490523581e+00 6.1154788755136575e+00 5.4787991176337316e+00 
126 1 2 1.0279981284906157e+00 -1.7675236267927644e+02 1.0000000000000000e+00 9.1218095490523581e+00 6.1154788755136575e+00 5.4787991176337316e+00 
173 1 2 1.0279981284906157e+00 -2.4332298629463091e+02 1.0000000000000000e+00 9.1218095490520934e+00 6.1154788755137126e+00 5.4787991176338915e+00 
134 1 2 1.0279981284906157e+00 -3.2378869101222836e+02 1.0000000000000000e+00 9.1218095490515498e+00 6.1154788755139675e+00 5.4787991176328878e+00 
113 1 2 1.0279981284906152e+00 -2.9304634871532630e+02 1.0000000000000000e+00 9.9918711200831787e+00 9.2476447694708614e+00 5.7997972798353512e+00 
54 1 2 1.0279981284906152e+00 -2.0387244322612943e+02 1.0000000000000000e+00 9.9918711200831805e+00 9.2476447694708597e+00 5.7997972798353556e+00 
72 1 2 1.0279981284906152e+00 -3.1563513419455893e+02 1.0000000000000000e+00 9.9918711200831805e+00 9.2476447694708597e+00 5.7997972798353556e+00 
88 1 2 1.0279981284906152e+00 -2.7339094464871448e+02 1.0000000000000000e+00 9.9918711200831858e+00 9.2476447694708579e+00 5.7997972798353512e+00 
119 1 2 1.0279981284906152e+00 -2.9297132377706930e+02 1.0000000000000000e+00 9.9918711200831805e+00 9.2476447694708597e+00 5.7997972798353548e+00 
129 1 2 1.0279981284906152e+00 -3.1752265432796963e+02 1.0000000000000000e+00 9.9918711200831787e+00 9.2476447694708614e+00 5.7997972798353521e+00 
177 1 2 1.0279981284906152e+00 -1.7798137823873830e+02 1.0000000000000000e+00 9.9918711200831805e+00 9.2476447694708597e+00 5.7997972798353548e+00 
172 1 2 1.0279998068368219e+00 -2.1175872473787126e+02 1.0000000000000000e+00 8.7504659720822673e+00 7.9071261166242905e+00 1.4603099915028452e+01 
178 1 2 1.0279998068368217e+00 -1.7598143479087685e+02 1.0000000000000000e+00 8.7504659720822708e+00 7.9071261166242977e+00 1.4603099915028480e+01 
57 1 2 1.0279998068368219e+00 -1.8177941992909874e+02 1.0000000000000000e+00 8.7504659720822655e+00 7.9071261166242790e+00 1.4603099915028455e+01 
39 1 2 1.0279998068368217e+00 -2.0428127220306186e+02 1.0000000000000000e+00 8.7504659720822708e+00 7.9071261166242977e+00 1.4603099915028480e+01 
165 1 2 1.0279998068368217e+00 -3.3330290150289380e+02 1.0000000000000000e+00 8.7504659720822637e+00 7.9071261166242701e+00 1.4603099915028448e+01 
122 1 2 1.0279998068368217e+00 -2.3687337705900893e+02 1.0000000000000000e+00 8.7504659720822637e+00 7.9071261166242701e+00 1.4603099915028448e+01 
109 1 2 1.0279998068368219e+00 -3.0870575680699130e+02 1.0000000000000000e+00 8.7504659720822655e+00 7.9071261166242790e+00 1.4603099915028455e+01 
74 1 2 1.0280000049938469e+00 -1.7504938186821460e+02 1.0000000000000000e+00 8.1729136514715890e+00 1.2569606934224717e+01 1.5735282881329759e+01 
38 1 2 1.0280000049937856e+00 -1.9128495262161596e+02 1.0000000000000000e+00 8.1728326089069014e+00 1.2569583387614378e+01 1.5735137046681643e+01 
25 1 2 1.0280000049935945e+00 -2.3859420246577082e+02 1.0000000000000000e+00 8.1727615446682016e+00 1.2569562647626672e+01 1.5735009066405077e+01 
105 1 2 1.0280000049845341e+00 -2.0450384848917838e+02 1.0000000000000000e+00 8.1621959749336437e+00 1.2581187496167757e+01 1.5761707288788799e+01 
33 1 2 1.0279999950074508e+00 -3.1846095499118002e+02 1.0000000000000000e+00 7.8800622411369066e+00 1.1664452098686153e+01 1.6050451775795157e+01 
63 1 2 1.0279999950057372e+00 -1.9514838088331703e+02 1.0000000000000000e+00 7.8750472741779500e+00 1.1664468144794917e+01 1.6045903815844326e+01 
70 1 2 1.0279999950056897e+00 -2.8379444199196774e+02 1.0000000000000000e+00 7.8764413151552324e+00 1.1664192659548423e+01 1.6046414574428756e+01 
118 1 2 1.0279999950148162e+00 -2.2723931734894322e+02 1.0000000000000000e+00 7.8672334172797500e+00 1.1658916261217870e+01 1.6019474100372907e+01 
52 1 2 1.0279997468256401e+00 -3.2869976816336595e+02 1.0000000000000000e+00 1.2411072765708630e+01 1.5099851132150169e+01 1.6849702073323272e+01 
168 1 2 1.0279997468256401e+00 -2.2023374714714154e+02 1.0000000000000000e+00 1.2411072765709159e+01 1.5099851132151349e+01 1.6849702073322934e+01 
144 1 2 1.0279997468256405e+00 -2.0908172865007117e+02 1.0000000000000000e+00 1.2411072765708646e+01 1.5099851132150317e+01 1.6849702073323201e+01 
180 1 2 1.0279997468256401e+00 -2.7199993109551906e+02 1.0000000000000000e+00 1.2411072765709072e+01 1.5099851132151381e+01 1.6849702073322860e+01 
179 1 2 1.0279997468256401e+00 -2.6444542223382450e+02 1.0000000000000000e+00 1.2411072765709187e+01 1.5099851132151315e+01 1.6849702073322973e+01 
17 1 2 1.0279997468256401e+00 -2.1206047604158175e+02 1.0000000000000000e+00 1.2411072765709024e+01 1.5099851132151588e+01 1.6849702073322707e+01 
174 1 2 1.0279997468256403e+00 -2.5565655018750573e+02 1.0000000000000000e+00 1.2411072765709088e+01 1.5099851132151597e+01 1.6849702073322746e+01 
115 1 2 1.0279997468079589e+00 -1.5331524848679300e+02 1.0000000000000000e+00 1.0781078702979825e+01 1.6529865693079685e+01 1.9292756598009237e+01 
139 1 2 1.0279997468369881e+00 -2.7583312127730795e+02 1.0000000000000000e+00 1.0781077917252677e+01 1.6529865579256576e+01 1.9292756139768748e+01 
149 1 2 1.0279997468394491e+00 -1.9375863902382923e+02 1.0000000000000000e+00 1.0781077846556610e+01 1.6529865557329014e+01 1.9292756105381677e+01 
29 1 2 1.0279997467974347e+00 -2.5224270513737036e+02 1.0000000000000000e+00 1.0781078853569017e+01 1.6529865357935677e+01 1.9292756894881425e+01 
110 1 2 1.0279997468425535e+00 -1.8920386975423565e+02 1.0000000000000000e+00 1.0781077753922474e+01 1.6529865521471226e+01 1.9292756064497283e+01 
155 1 2 1.0279997468415785e+00 -2.0198241216546884e+02 1.0000000000000000e+00 1.0781077783103528e+01 1.6529865533117473e+01 1.9292756077171205e+01 
82 1 2 1.0279997468124145e+00 -1.5949225158828511e+02 1.0000000000000000e+00 1.0781078619740223e+01 1.6529865780653456e+01 1.9292756491115174e+01 
96 1 2 1.0280002966597037e+00 -2.2781964715482263e+02 1.0000000000000000e+00 1.5883012381854710e+01 7.6141868972350917e+00 3.2971173498932305e+00 
27 1 2 1.0280002966597035e+00 -2.0078989123908249e+02 1.0000000000000000e+00 1.5883012381854710e+01 7.6141868972351023e+00 3.2971173498933188e+00 
3 1 2 1.0280002966597035e+00 -2.6198626460669436e+02 1.0000000000000000e+00 1.5883012381854712e+01 7.6141868972350828e+00 3.2971173498929534e+00 
112 1 2 1.0280002966597035e+00 -2.4516433897883869e+02 1.0000000000000000e+00 1.5883012381854714e+01 7.6141868972350659e+00 3.2971173498927904e+00 
53 1 2 1.0280002966597037e+00 -2.3131161178664084e+02 1.0000000000000000e+00 1.5883012381854712e+01 7.6141868972350863e+00 3.2971173498931843e+00 
67 1 2 1.0280002966597035e+00 -2.9846770309349159e+02 1.0000000000000000e+00 1.5883012381854721e+01 7.6141868972350197e+00 3.2971173498927131e+00 
99 1 2 1.0280002966597035e+00 -2.0704979964546533e+02 1.0000000000000000e+00 1.5883012381854716e+01 7.6141868972350668e+00 3.2971173498927908e+00 
142 1 2 1.0279999145586947e+00 -2.1876790351131814e+02 1.0000000000000000e+00 1.4459541803915634e+01 3.9804624456190849e+00 1.4995096635539184e+01 
31 1 2 1.0279999145586944e+00 -2.4154855198979456e+02 1.0000000000000000e+00 1.4459541803916885e+01 3.9804624456175799e+00 1.4995096635538923e+01 
106 1 2 1.0279999145586947e+00 -2.1031119071321120e+02 1.0000000000000000e+00 1.4459541803915021e+01 3.9804624456199069e+00 1.4995096635538969e+01 
28 1 2 1.0279999145586944e+00 -2.3915776077680920e+02 1.0000000000000000e+00 1.4459541803915583e+01 3.9804624456191307e+00 1.4995096635539269e+01 
18 1 2 1.0279999145586944e+00 -1.5396016903114185e+02 1.0000000000000000e+00 1.4459541803916654e+01 3.9804624456178392e+00 1.4995096635539038e+01 
12 1 2 1.0279999145586942e+00 -1.5318690988449981e+02 1.0000000000000000e+00 1.4459541803915526e+01 3.9804624456189690e+00 1.4995096635540234e+01 
166 1 2 1.0279999145586944e+00 -2.9653212684828685e+02 1.0000000000000000e+00 1.4459541803915455e+01 3.9804624456190627e+00 1.4995096635540222e+01 
90 1 2 1.0279998894452085e+00 -2.1930702889307810e+02 1.0000000000000000e+00 1.7015376820475598e+01 5.8384100226283726e+00 1.3756538063911025e+01 
46 1 2 1.0279998894452065e+00 -2.7039806102271649e+02 1.0000000000000000e+00 1.7015376816999254e+01 5.8384100332098772e+00 1.3756538066046911e+01 
92 1 2 1.0279998894452085e+00 -1.5316371692832649e+02 1.0000000000000000e+00 1.7015376823886484e+01 5.8384100351026342e+00 1.3756538071541184e+01 
45 1 2 1.0279998894452798e+00 -2.8927461271473351e+02 1.0000000000000000e+00 1.7015378059834021e+01 5.8384131737405802e+00 1.3756540248598002e+01 
75 1 2 1.0279998894452795e+00 -2.6538099483386452e+02 1.0000000000000000e+00 1.7015378059700335e+01 5.8384131733084530e+00 1.3756540248323091e+01 
40 1 2 1.0279998894452804e+00 -3.0076798214640377e+02 1.0000000000000000e+00 1.7015378058623835e+01 5.8384131716331726e+00 1.3756540246877266e+01 
81 1 2 1.0279998894452804e+00 -2.3218889360550060e+02 1.0000000000000000e+00 1.7015378059066620e+01 5.8384131719699992e+00 1.3756540247322070e+01 
80 1 2 1.0279999491478824e+00 -3.0428814981617825e+02 1.0000000000000000e+00 1.6450489845518760e+01 5.7457712109564367e+00 1.7101775993356558e+01 
50 1 2 1.0279999491479861e+00 -2.2501657824127312e+02 1.0000000000000000e+00 1.6450490302350307e+01 5.7457710779390023e+00 1.7101775914667808e+01 
93 1 2 1.0279999491478062e+00 -1.7568223837436574e+02 1.0000000000000000e+00 1.6450489528025187e+01 5.7457713015306595e+00 1.7101776048617662e+01 
85 1 2 1.0279999491474352e+00 -2.2649242999316579e+02 1.0000000000000000e+00 1.6450488038451084e+01 5.7457717191005857e+00 1.7101776310134820e+01 
86 1 2 1.0279999491476650e+00 -1.9634266919117152e+02 1.0000000000000000e+00 1.6450488964319831e+01 5.7457714599926533e+00 1.7101776147452195e+01 
79 1 2 1.0279999491477081e+00 -2.3830439205982196e+02 1.0000000000000000e+00 1.6450489135140565e+01 5.7457714121606651e+00 1.7101776117445080e+01 
49 1 2 1.0279999491476381e+00 -2.0482047324050328e+02 1.0000000000000000e+00 1.6450488849587945e+01 5.7457714918957201e+00 1.7101776167674835e+01 
147 1 2 1.0279998408783297e+00 -1.7095524751112907e+02 1.0000000000000000e+00 1.5055897318917497e+01 1.4484916807654374e+01 9.1446727098651914e-01 
158 1 2 1.0279998408783300e+00 -1.3421619921079758e+02 1.0000000000000000e+00 1.5055897318917491e+01 1.4484916807654370e+01 9.1446727098651182e-01 
71 1 2 1.0279998408783300e+00 -3.3355750705874260e+02 1.0000000000000000e+00 1.5055897318917362e+01 1.4484916807654368e+01 9.1446727098638325e-01 
9 1 2 1.0279998408783300e+00 -3.0456007158698458e+02 1.0000000000000000e+00 1.5055897318917422e+01 1.4484916807654370e+01 9.1446727098644331e-01 
176 1 2 1.0279998408783300e+00 -2.8004841069026099e+02 1.0000000000000000e+00 1.5055897318917500e+01 1.4484916807654370e+01 9.1446727098652081e-01 
141 1 2 1.0279998408783300e+00 -1.7906605749689652e+02 1.0000000000000000e+00 1.5055897318917454e+01 1.4484916807654377e+01 9.1446727098647340e-01 
169 1 2 1.0279998408783300e+00 -2.5266673321075064e+02 1.0000000000000000e+00 1.5055897318917491e+01 1.4484916807654370e+01 9.1446727098651182e-01 
22 1 2 1.0279999720953046e+00 -2.1502590689262982e+02 1.0000000000000000e+00 1.5217882002127633e+01 1.9423016020191472e+01 1.1257714673645884e+01 
146 1 2 1.0279999720953046e+00 -1.6321121463576054e+02 1.0000000000000000e+00 1.5217882002123103e+01 1.9423016020193671e+01 1.1257714673647504e+01 
34 1 2 1.0279999720953039e+00 -1.6665283739084455e+02 1.0000000000000000e+00 1.5217882002113342e+01 1.9423016020195558e+01 1.1257714673650021e+01 
140 1 2 1.0279999720953046e+00 -2.6319774191106535e+02 1.0000000000000000e+00 1.5217882002127633e+01 1.9423016020191472e+01 1.1257714673645884e+01 
8 1 2 1.0279999720953046e+00 -1.7808345345434105e+02 1.0000000000000000e+00 1.5217882002123103e+01 1.9423016020193671e+01 1.1257714673647504e+01 
108 1 2 1.0279999720953046e+00 -1.5937443986946516e+02 1.0000000000000000e+00 1.5217882002127633e+01 1.9423016020191472e+01 1.1257714673645884e+01 
156 1 2 1.0279999720953046e+00 -1.6810886933888406e+02 1.0000000000000000e+00 1.5217882002127633e+01 1.9423016020191472e+01 1.1257714673645884e+01 
107 1 2 1.0279999720953041e+00 -2.4921094928630993e+02 1.0000000000000000e+00 1.5799458511218775e+01 1.8376973343074152e+01 1.4297102303675205e+01 
51 1 2 1.0279999720953039e+00 -3.3534381293226301e+02 1.0000000000000000e+00 1.5799458511218766e+01 1.8376973343074258e+01 1.4297102303675247e+01 
48 1 2 1.0279999720953041e+00 -1.7635313646345151e+02 1.0000000000000000e+00 1.5799458511218775e+01 1.8376973343074152e+01 1.4297102303675205e+01 
153 1 2 1.0279999720953039e+00 -1.9465713977236925e+02 1.0000000000000000e+00 1.5799458511218766e+01 1.8376973343074258e+01 1.4297102303675247e+01 
175 1 2 1.0279999720953039e+00 -2.4519089410387869e+02 1.0000000000000000e+00 1.5799458511218756e+01 1.8376973343074145e+01 1.4297102303675210e+01 
143 1 2 1.0279999720953041e+00 -2.8236204789873625e+02 1.0000000000000000e+00 1.5799458511218775e+01 1.8376973343074152e+01 1.4297102303675205e+01 
84 1 2 1.0279999720953039e+00 -2.4537689574796349e+02 1.0000000000000000e+00 1.5799458511218766e+01 1.8376973343074258e+01 1.4297102303675247e+01 
16 1 2 1.0279998408783304e+00 -1.8204947341432572e+02 1.0000000000000000e+00 1.7354454985835407e+01 1.4297683281781172e+01 1.8601049035615841e+01 
2 1 2 1.0279998408783304e+00 -2.5449707572574161e+02 1.0000000000000000e+00 1.7354454985836341e+01 1.4297683281780959e+01 1.8601049035616786e+01 
61 1 2 1.0279998408783304e+00 -2.1625943838065854e+02 1.0000000000000000e+00 1.7354454985835421e+01 1.4297683281781104e+01 1.8601049035615858e+01 
69 1 2 1.0279998408783304e+00 -2.2979023436018358e+02 1.0000000000000000e+00 1.7354454985836341e+01 1.4297683281780959e+01 1.8601049035616786e+01 
15 1 2 1.0279998408783304e+00 -2.1745806476785560e+02 1.0000000000000000e+00 1.7354454985836377e+01 1.4297683281781035e+01 1.8601049035616811e+01 
76 1 2 1.0279998408783304e+00 -2.0060227085166622e+02 1.0000000000000000e+00 1.7354454985836327e+01 1.4297683281780424e+01 1.8601049035616814e+01 
32 1 2 1.0279998408783304e+00 -2.6324976961532309e+02 1.0000000000000000e+00 1.7354454985835421e+01 1.4297683281781104e+01 1.8601049035615858e+01 

Velocities

125 -3.0541710194300197e-02 2.3551178346643950e-01 2.9518997401537289e-01
94 -3.0541710194299684e-02 2.3551178346643944e-01 2.9518997401537184e-01
124 -3.0541710194299534e-02 2.3551178346644089e-01 2.9518997401537189e-01
95 -3.0541710194296974e-02 2.3551178346644094e-01 2.9518997401537395e-01
43 -3.0541710194299451e-02 2.3551178346644133e-01 2.9518997401537178e-01
131 -3.0541710194299521e-02 2.3551178346644100e-01 2.9518997401537156e-01
130 -3.0541710194299864e-02 2.3551178346643925e-01 2.9518997401537311e-01
133 -3.0525178263403764e-02 2.3551267627706648e-01 2.9525503040840007e-01
104 -3.0525178263403587e-02 2.3551267627706654e-01 2.9525503040839890e-01
26 -3.0525178263403757e-02 2.3551267627706643e-01 2.9525503040839968e-01
132 -3.0525178263403587e-02 2.3551267627706654e-01 2.9525503040839890e-01
83 -3.0525178263403528e-02 2.3551267627706654e-01 2.9525503040839862e-01
171 -3.0525178263403632e-02 2.3551267627706657e-01 2.9525503040839907e-01
128 -3.0525178263403677e-02 2.3551267627706648e-01 2.9525503040839934e-01
65 -9.9840933965239954e-03 2.3866681411074572e-01 3.1491088967658254e-01
30 -9.9840933965241341e-03 2.3866681411074583e-01 3.1491088967658254e-01
24 -9.9840933965238184e-03 2.3866681411074486e-01 3.1491088967658248e-01
36 -9.9840933965238184e-03 2.3866681411074486e-01 3.1491088967658248e-01
167 -9.9840933965239034e-03 2.3866681411074542e-01 3.1491088967658271e-01
64 -9.9840933965239347e-03 2.3866681411074533e-01 3.1491088967658259e-01
35 -9.9840933965239485e-03 2.3866681411074542e-01 3.1491088967658254e-01
78 -2.0234125173672596e-02 2.4089638226512333e-01 2.8361105925272789e-01
42 -2.0234125173672585e-02 2.4089638226512336e-01 2.8361105925272806e-01
73 -2.0234125173673120e-02 2.4089638226512350e-01 2.8361105925272806e-01
1 -2.0234125173672894e-02 2.4089638226512342e-01 2.8361105925272806e-01
163 -2.0234125173672658e-02 2.4089638226512322e-01 2.8361105925272856e-01
7 -2.0234125173672703e-02 2.4089638226512333e-01 2.8361105925272811e-01
37 -2.0234125173672835e-02 2.4089638226512322e-01 2.8361105925272789e-01
164 -3.0915660440080487e-02 2.3810182122886400e-01 2.9100949970621898e-01
120 -3.0915660440085469e-02 2.3810182122881082e-01 2.9100949970622242e-01
127 -3.0915660440086510e-02 2.3810182122879708e-01 2.9100949970622059e-01
157 -3.0915660440087107e-02 2.3810182122879747e-01 2.9100949970622070e-01
160 -3.0915660440810788e-02 2.3810182122911652e-01 2.9100949970647016e-01
137 -3.0915660441520464e-02 2.3810182122893975e-01 2.9100949970675960e-01
152 -3.0915660440076206e-02 2.3810182122892226e-01 2.9100949970620554e-01
44 -3.1279262348662559e-02 2.3787032831168087e-01 2.9104172755005875e-01
150 -3.1312949049989186e-02 2.3791891907052012e-01 2.9105013321221107e-01
100 -3.1313533876804564e-02 2.3791885826434589e-01 2.9105032709809303e-01
59 -3.1313573928009805e-02 2.3791884526462734e-01 2.9105033727898888e-01
58 -3.1313899187469178e-02 2.3791879586970643e-01 2.9105044273014269e-01
121 -3.1206087246581641e-02 2.3790954558777780e-01 2.9103700207952743e-01
145 -3.1204634451928760e-02 2.3790679396386913e-01 2.9102655045008619e-01