LAMMPS data file via write_data, version 30 Jul 2016, timestep = 50000000

180 atoms
2 atom types

0.0000000000000000e+00 2.0000000000000000e+01 xlo xhi
0.0000000000000000e+00 2.0000000000000000e+01 ylo yhi
0.0000000000000000e+00 2.0000000000000000e+01 zlo zhi

Masses

1 3.896
2 4.31

Atoms # meso-molecular

160 1 2 1.0279998425989545e+00 -2.1092580551211825e+02 1.0000000000000000e+00 6.2335595574409357e+00 3.0394321264130313e+00 9.7310287735650913e+00 
157 1 2 1.0279998425989876e+00 -2.1129767533547312e+02 1.0000000000000000e+00 6.2335595506745838e+00 3.0394321237844735e+00 9.7310287712064056e+00 
127 1 2 1.0279998425989878e+00 -2.4190363616227432e+02 1.0000000000000000e+00 6.2335595506737462e+00 3.0394321237829556e+00 9.7310287712074306e+00 
120 1 2 1.0279998425989874e+00 -3.9757782347340782e+02 1.0000000000000000e+00 6.2335595505907229e+00 3.0394321236564315e+00 9.7310287712826540e+00 
137 1 2 1.0279998425989465e+00 -2.4352106453050760e+02 1.0000000000000000e+00 6.2335595661067753e+00 3.0394321337960175e+00 9.7310287721481235e+00 
164 1 2 1.0279998425989851e+00 -2.7018990397082484e+02 1.0000000000000000e+00 6.2335595502896979e+00 3.0394321231127304e+00 9.7310287716492461e+00 
152 1 2 1.0279998425989816e+00 -1.6157618948411283e+02 1.0000000000000000e+00 6.2335595500348138e+00 3.0394321224702412e+00 9.7310287721608635e+00 
10 1 2 1.0280002476726371e+00 -2.7227087230043213e+02 1.0000000000000000e+00 3.0518403089047759e+00 5.0726817491617187e+00 6.9351469264540677e+00 
5 1 2 1.0280002478641519e+00 -1.7775180729013266e+02 1.0000000000000000e+00 3.0517966409119301e+00 5.0726505115041354e+00 6.9351408615777448e+00 
47 1 2 1.0280002479069483e+00 -1.8826314944927347e+02 1.0000000000000000e+00 3.0517961512561240e+00 5.0726464151675339e+00 6.9351412557582783e+00 
6 1 2 1.0280002478664341e+00 -1.8760148308163255e+02 1.0000000000000000e+00 3.0517966101081853e+00 5.0726502916822884e+00 6.9351408816996960e+00 
11 1 2 1.0280002479376302e+00 -2.3930280071666573e+02 1.0000000000000000e+00 3.0517959763420612e+00 5.0726435333656967e+00 6.9351415716204601e+00 
4 1 2 1.0280002477759054e+00 -2.6246776301571799e+02 1.0000000000000000e+00 3.0517977987072098e+00 5.0726590036118120e+00 6.9351400773003142e+00 
41 1 2 1.0280002475597929e+00 -1.8924037745668227e+02 1.0000000000000000e+00 3.0518022286812103e+00 5.0726802935334261e+00 6.9351384607211930e+00 
150 1 2 1.0279998390074385e+00 -2.0712632354067358e+02 1.0000000000000000e+00 2.1841118150226593e+00 5.3308006131101786e+00 9.9635223273213036e+00 
58 1 2 1.0279998372512846e+00 -1.5515642831905708e+02 1.0000000000000000e+00 2.1862102438645508e+00 5.3455393465250038e+00 9.9530873736972953e+00 
59 1 2 1.0279998378295179e+00 -2.0887723564613194e+02 1.0000000000000000e+00 2.1855168993337886e+00 5.3403679237003718e+00 9.9566735199494172e+00 
100 1 2 1.0279998378463129e+00 -2.4386736195628143e+02 1.0000000000000000e+00 2.1855162392034999e+00 5.3396216590871619e+00 9.9571312764364919e+00 
87 1 2 1.0279997306618609e+00 -2.2525734107969041e+02 1.0000000000000000e+00 4.8346047293831829e+00 6.3164024363968796e+00 9.9295064911859363e+00 
103 1 2 1.0279999145254706e+00 -2.7513388072300177e+02 1.0000000000000000e+00 4.9648804064385068e+00 6.1772536950810393e+00 9.9375876929726985e+00 
154 1 2 1.0279997299396255e+00 -1.5077606788032963e+02 1.0000000000000000e+00 4.8933687963235428e+00 6.1857342310039432e+00 9.8872618727271266e+00 
159 1 2 1.0279998302619007e+00 -1.7062966552969920e+02 1.0000000000000000e+00 4.9398080495814574e+00 6.1392494372302071e+00 9.9000501762189010e+00 
138 1 2 1.0280001830530712e+00 -1.1824330100851769e+02 1.0000000000000000e+00 1.8456050257378196e+00 6.2246857951845156e+00 1.1728534348428962e+01 
98 1 2 1.0280001831044039e+00 -2.6225898499945737e+02 1.0000000000000000e+00 1.8456286661173156e+00 6.2248995169122150e+00 1.1728393579422253e+01 
102 1 2 1.0280001830730567e+00 -1.1500560299613653e+02 1.0000000000000000e+00 1.8456649225444532e+00 6.2248334818503031e+00 1.1728464773269950e+01 
62 1 2 1.0280001831093075e+00 -1.6475543382428384e+02 1.0000000000000000e+00 1.8458608638412286e+00 6.2252128805773834e+00 1.1728312527813118e+01 
68 1 2 1.0280001831440748e+00 -2.5069854360955239e+02 1.0000000000000000e+00 1.8455827548254349e+00 6.2249830950353475e+00 1.1728303435368463e+01 
44 1 2 1.0279998769334087e+00 -2.5453313122310999e+02 1.0000000000000000e+00 2.6267667233464866e+00 6.4801986742431694e+00 1.0129057286308747e+01 
55 1 2 1.0279997409825592e+00 -1.7598273481498805e+02 1.0000000000000000e+00 3.3247142159131804e+00 4.1846465324607554e+00 1.1765563567289806e+01 
66 1 2 1.0279998646147910e+00 -2.5106509068683519e+02 1.0000000000000000e+00 4.7881930131738040e+00 4.1165115856614047e+00 1.2349433298308623e+01 
151 1 2 1.0279997346583816e+00 -2.0590621146874042e+02 1.0000000000000000e+00 3.3468961939683184e+00 4.2071500547389249e+00 1.1960754116247266e+01 
60 1 2 1.0279999742266250e+00 -2.0840127327934570e+02 1.0000000000000000e+00 4.7802877793052874e+00 4.2162546006837838e+00 1.2415378502218768e+01 
91 1 2 1.0279999725945124e+00 -2.0179235607931255e+02 1.0000000000000000e+00 4.7808024309834254e+00 4.2147455699692822e+00 1.2414270610688359e+01 
97 1 2 1.0279997356156390e+00 -1.8822226325159173e+02 1.0000000000000000e+00 3.3610780963110147e+00 4.2202383188285015e+00 1.2023758955188340e+01 
123 1 2 1.0280000899814128e+00 -1.6528538902064270e+02 1.0000000000000000e+00 4.7402388201703882e+00 4.3580086606088599e+00 1.2486981700875752e+01 
116 1 2 1.0280000895349386e+00 -1.7975230045718564e+02 1.0000000000000000e+00 4.7406565760061676e+00 4.3573365252551204e+00 1.2486596408171600e+01 
121 1 2 1.0280003097605404e+00 -2.0500395803809337e+02 1.0000000000000000e+00 5.0336443157806476e+00 6.0243577077380186e+00 1.1110313959093226e+01 
145 1 2 1.0280003495337395e+00 -1.9933037491949997e+02 1.0000000000000000e+00 5.2093027878674283e+00 6.0994568427179239e+00 1.0653935394240982e+01 
148 1 2 1.0279998731821405e+00 -2.3967462418665784e+02 1.0000000000000000e+00 4.7809214954859307e+00 6.4707780503486330e+00 1.0084826284076227e+01 
111 1 2 1.0279981742364028e+00 -1.9805325135659436e+02 1.0000000000000000e+00 4.5886794575607182e+00 9.7373262617124325e+00 1.8796509609013395e+01 
136 1 2 1.0279981742364028e+00 -2.2611872398846248e+02 1.0000000000000000e+00 4.5886794575677587e+00 9.7373262617122744e+00 1.8796509609005092e+01 
77 1 2 1.0279981742364028e+00 -1.6729609637910463e+02 1.0000000000000000e+00 4.5886794575483600e+00 9.7373262617068512e+00 1.8796509609005689e+01 
162 1 2 1.0279981742364028e+00 -1.6819990578483302e+02 1.0000000000000000e+00 4.5886794575447993e+00 9.7373262617137257e+00 1.8796509609035699e+01 
170 1 2 1.0279981742364108e+00 -2.5051993524752638e+02 1.0000000000000000e+00 4.5886794595160589e+00 9.7373262619036520e+00 1.8796509607603198e+01 
135 1 2 1.0279981742364106e+00 -2.3295142562532601e+02 1.0000000000000000e+00 4.5886794594157427e+00 9.7373262619048688e+00 1.8796509607717436e+01 
161 1 2 1.0279981742364028e+00 -2.1301380240830119e+02 1.0000000000000000e+00 4.5886794575135195e+00 9.7373262617095264e+00 1.8796509609053935e+01 
78 1 2 1.0280001749006242e+00 -2.8735649491818265e+02 1.0000000000000000e+00 6.3555554733445652e+00 1.8872488437559745e+01 3.4625356793353284e+00 
42 1 2 1.0280001749006242e+00 -2.7204892220353719e+02 1.0000000000000000e+00 6.3555554733429531e+00 1.8872488437554885e+01 3.4625356793243056e+00 
73 1 2 1.0280001749006242e+00 -2.5771487189108984e+02 1.0000000000000000e+00 6.3555554733438360e+00 1.8872488437559941e+01 3.4625356793232887e+00 
1 1 2 1.0280001749006242e+00 -2.3495761296346939e+02 1.0000000000000000e+00 6.3555554733426503e+00 1.8872488437554296e+01 3.4625356793212920e+00 
163 1 2 1.0280001749006242e+00 -1.1508274000186123e+02 1.0000000000000000e+00 6.3555554733457340e+00 1.8872488437574887e+01 3.4625356793090183e+00 
7 1 2 1.0280001749006242e+00 -2.2434877661466351e+02 1.0000000000000000e+00 6.3555554733421857e+00 1.8872488437553109e+01 3.4625356793174720e+00 
37 1 2 1.0280001749006242e+00 -2.1331149326315912e+02 1.0000000000000000e+00 6.3555554733454036e+00 1.8872488437566332e+01 3.4625356793290885e+00 
125 1 2 1.0279961201773178e+00 -1.5155962463858231e+02 1.0000000000000000e+00 2.2085964382680614e+00 1.7300123012771557e+01 1.4741851699209079e+01 
130 1 2 1.0279961201773178e+00 -1.7586801604110528e+02 1.0000000000000000e+00 2.2085964382694341e+00 1.7300123012770616e+01 1.4741851699209278e+01 
131 1 2 1.0279961201773180e+00 -2.0051090328675295e+02 1.0000000000000000e+00 2.2085964382697183e+00 1.7300123012777380e+01 1.4741851699209723e+01 
43 1 2 1.0279961201773180e+00 -2.1901407935391273e+02 1.0000000000000000e+00 2.2085964382701038e+00 1.7300123012779487e+01 1.4741851699209917e+01 
95 1 2 1.0279961201773180e+00 -1.5419041214443783e+02 1.0000000000000000e+00 2.2085964382796495e+00 1.7300123012777888e+01 1.4741851699211589e+01 
124 1 2 1.0279961201773178e+00 -1.6542759906215761e+02 1.0000000000000000e+00 2.2085964382697645e+00 1.7300123012777632e+01 1.4741851699209747e+01 
94 1 2 1.0279961201773176e+00 -1.5801828914149817e+02 1.0000000000000000e+00 2.2085964382694483e+00 1.7300123012771017e+01 1.4741851699209302e+01 
65 1 2 1.0279981742364050e+00 -2.5776486312458002e+02 1.0000000000000000e+00 3.7132129203284308e+00 1.2780610145885682e+01 1.7994956846401440e+01 
35 1 2 1.0279981742364055e+00 -2.2439290657472725e+02 1.0000000000000000e+00 3.7132129203284250e+00 1.2780610145885682e+01 1.7994956846401461e+01 
64 1 2 1.0279981742364050e+00 -1.6518554722502651e+02 1.0000000000000000e+00 3.7132129203284459e+00 1.2780610145885687e+01 1.7994956846401443e+01 
167 1 2 1.0279981742364053e+00 -2.1908594120767313e+02 1.0000000000000000e+00 3.7132129203284401e+00 1.2780610145885689e+01 1.7994956846401458e+01 
36 1 2 1.0279981742364050e+00 -2.6800331113026937e+02 1.0000000000000000e+00 3.7132129203284343e+00 1.2780610145885683e+01 1.7994956846401443e+01 
24 1 2 1.0279981742364050e+00 -2.4447055405520027e+02 1.0000000000000000e+00 3.7132129203284343e+00 1.2780610145885683e+01 1.7994956846401443e+01 
30 1 2 1.0279981742364053e+00 -2.5192506350369391e+02 1.0000000000000000e+00 3.7132129203284219e+00 1.2780610145885680e+01 1.7994956846401447e+01 
128 1 2 1.0279961201773182e+00 -2.5203354365651663e+02 1.0000000000000000e+00 1.6159171599951878e+00 1.7113751051406723e+01 1.7948831744326423e+01 
171 1 2 1.0279961201773182e+00 -2.2119434966774472e+02 1.0000000000000000e+00 1.6159171599951774e+00 1.7113751051406723e+01 1.7948831744326426e+01 
83 1 2 1.0279961201773180e+00 -2.1841565569004993e+02 1.0000000000000000e+00 1.6159171599951963e+00 1.7113751051406716e+01 1.7948831744326430e+01 
132 1 2 1.0279961201773180e+00 -2.0777568270538100e+02 1.0000000000000000e+00 1.6159171599951789e+00 1.7113751051406705e+01 1.7948831744326426e+01 
26 1 2 1.0279961201773182e+00 -2.2298574168904733e+02 1.0000000000000000e+00 1.6159171599951823e+00 1.7113751051406727e+01 1.7948831744326423e+01 
104 1 2 1.0279961201773180e+00 -3.1673972009529217e+02 1.0000000000000000e+00 1.6159171599951789e+00 1.7113751051406705e+01 1.7948831744326426e+01 
133 1 2 1.0279961201773180e+00 -1.7349949945890526e+02 1.0000000000000000e+00 1.6159171599951894e+00 1.7113751051406727e+01 1.7948831744326430e+01 
118 1 2 1.0279999760377108e+00 -2.2723931734894322e+02 1.0000000000000000e+00 8.6624799194416546e+00 2.7981867035769277e+00 4.4292339160727190e+00 
33 1 2 1.0279999760016456e+00 -3.1846095499118002e+02 1.0000000000000000e+00 8.6753110709160790e+00 2.8037234832071687e+00 4.4602172889700125e+00 
63 1 2 1.0279999759924940e+00 -1.9514838088331703e+02 1.0000000000000000e+00 8.6702951771377794e+00 2.8037395145696342e+00 4.4556685006672820e+00 
70 1 2 1.0279999759931684e+00 -2.8379444199196774e+02 1.0000000000000000e+00 8.6716894747816600e+00 2.8034639800975878e+00 4.4561793524888911e+00 
74 1 2 1.0280000240049105e+00 -1.7504938186821460e+02 1.0000000000000000e+00 8.9681609903630957e+00 3.7088785686004053e+00 4.1450477767631249e+00 
25 1 2 1.0280000240046030e+00 -2.3859420246577082e+02 1.0000000000000000e+00 8.9680089117156765e+00 3.7088342906883072e+00 4.1447740119372591e+00 
38 1 2 1.0280000240048051e+00 -1.9128495262161596e+02 1.0000000000000000e+00 8.9680799627990719e+00 3.7088550266035294e+00 4.1449019687981199e+00 
105 1 2 1.0280000239605229e+00 -2.0450384848917838e+02 1.0000000000000000e+00 8.9574453047847857e+00 3.7204570983566798e+00 4.1714673176996770e+00 
52 1 2 1.0280001308832374e+00 -3.2869978500422803e+02 1.0000000000000000e+00 1.3149407630785829e+01 5.9380496182688205e+00 5.8565651784071520e+00 
174 1 2 1.0280001308832374e+00 -2.5565656702837236e+02 1.0000000000000000e+00 1.3149407630786294e+01 5.9380496182702451e+00 5.8565651784066253e+00 
17 1 2 1.0280001308832374e+00 -2.1206049288244839e+02 1.0000000000000000e+00 1.3149407630786229e+01 5.9380496182702451e+00 5.8565651784065755e+00 
179 1 2 1.0280001308832374e+00 -2.6444543907468659e+02 1.0000000000000000e+00 1.3149407630786381e+01 5.9380496182699742e+00 5.8565651784068589e+00 
180 1 2 1.0280001308832374e+00 -2.7199994793638115e+02 1.0000000000000000e+00 1.3149407630786266e+01 5.9380496182700382e+00 5.8565651784067310e+00 
144 1 2 1.0280001308832374e+00 -2.0908174549093781e+02 1.0000000000000000e+00 1.3149407630785843e+01 5.9380496182689662e+00 5.8565651784070729e+00 
168 1 2 1.0280001308832374e+00 -2.2023376398800818e+02 1.0000000000000000e+00 1.3149407630786358e+01 5.9380496182700089e+00 5.8565651784068180e+00 
115 1 2 1.0280001308458058e+00 -1.5331526532765923e+02 1.0000000000000000e+00 1.1378339961934040e+01 7.3809346667415294e+00 8.1914525033457011e+00 
82 1 2 1.0280001308552948e+00 -1.5949226842915152e+02 1.0000000000000000e+00 1.1378339882293565e+01 7.3809347513839176e+00 8.1914523904142076e+00 
155 1 2 1.0280001309173143e+00 -2.0198242900633599e+02 1.0000000000000000e+00 1.1378339067785989e+01 7.3809344808183566e+00 8.1914519383758595e+00 
110 1 2 1.0280001309193887e+00 -1.8920388659510280e+02 1.0000000000000000e+00 1.1378339039338654e+01 7.3809344683866476e+00 8.1914519244327462e+00 
29 1 2 1.0280001308234075e+00 -2.5224272197823637e+02 1.0000000000000000e+00 1.1378340103811192e+01 7.3809343379097303e+00 8.1914528146788470e+00 
149 1 2 1.0280001309127709e+00 -1.9375865586469621e+02 1.0000000000000000e+00 1.1378339129627737e+01 7.3809345067461356e+00 8.1914519693658967e+00 
139 1 2 1.0280001309075626e+00 -2.7583313811817038e+02 1.0000000000000000e+00 1.1378339198466625e+01 7.3809345306136773e+00 8.1914520069517014e+00 
172 1 2 1.0280001749006242e+00 -2.1175872473787126e+02 1.0000000000000000e+00 9.5598582400783965e+00 1.8271443015139081e+01 3.2588686569034611e+00 
178 1 2 1.0280001749006242e+00 -1.7598143479087685e+02 1.0000000000000000e+00 9.5598582400784000e+00 1.8271443015139088e+01 3.2588686569034904e+00 
57 1 2 1.0280001749006242e+00 -1.8177941992909874e+02 1.0000000000000000e+00 9.5598582400783947e+00 1.8271443015139070e+01 3.2588686569034655e+00 
39 1 2 1.0280001749006242e+00 -2.0428127220306186e+02 1.0000000000000000e+00 9.5598582400784000e+00 1.8271443015139088e+01 3.2588686569034904e+00 
165 1 2 1.0280001749006242e+00 -3.3330290150289380e+02 1.0000000000000000e+00 9.5598582400783929e+00 1.8271443015139063e+01 3.2588686569034593e+00 
122 1 2 1.0280001749006242e+00 -2.3687337705900893e+02 1.0000000000000000e+00 9.5598582400783929e+00 1.8271443015139063e+01 3.2588686569034593e+00 
109 1 2 1.0280001749006242e+00 -3.0870575680699130e+02 1.0000000000000000e+00 9.5598582400783947e+00 1.8271443015139070e+01 3.2588686569034655e+00 
21 1 2 1.0281330507456168e+00 -1.8452950384010751e+02 1.0000000000000000e+00 1.2905211971411775e+01 1.6847491598769189e+01 1.0629515978133108e+01 
89 1 2 1.0281330448323864e+00 -2.5107332369480554e+02 1.0000000000000000e+00 1.2905211682225749e+01 1.6847488287915873e+01 1.0629508412743428e+01 
20 1 2 1.0281330456072013e+00 -1.9729444269439804e+02 1.0000000000000000e+00 1.2905210844728714e+01 1.6847494966721950e+01 1.0629509338671975e+01 
13 1 2 1.0281330456178108e+00 -2.6142394719968144e+02 1.0000000000000000e+00 1.2905210812573834e+01 1.6847495205822312e+01 1.0629509349818386e+01 
14 1 2 1.0281330460491769e+00 -2.9253362230530661e+02 1.0000000000000000e+00 1.2905210922294746e+01 1.6847494814898436e+01 1.0629509908273668e+01 
19 1 2 1.0281330460643996e+00 -2.9863470139747290e+02 1.0000000000000000e+00 1.2905210955095585e+01 1.6847494594664422e+01 1.0629509930117624e+01 
56 1 2 1.0281330448244828e+00 -2.4824252330843342e+02 1.0000000000000000e+00 1.2905210561868945e+01 1.6847496273990991e+01 1.0629508319198953e+01 
114 1 2 1.0281246265292450e+00 -3.0573891757799049e+02 1.0000000000000000e+00 1.0493032638061274e+01 1.6597579356712824e+01 1.3481220768273239e+01 
23 1 2 1.0281246265292452e+00 -2.0596931702766156e+02 1.0000000000000000e+00 1.0493032638061274e+01 1.6597579356712831e+01 1.3481220768273205e+01 
101 1 2 1.0281246265292463e+00 -2.9055135108492817e+02 1.0000000000000000e+00 1.0493032638061296e+01 1.6597579356712799e+01 1.3481220768273360e+01 
126 1 2 1.0281246265292463e+00 -1.7675269284639270e+02 1.0000000000000000e+00 1.0493032638061296e+01 1.6597579356712799e+01 1.3481220768273360e+01 
173 1 2 1.0281246265292463e+00 -2.4332331646174717e+02 1.0000000000000000e+00 1.0493032638061260e+01 1.6597579356712799e+01 1.3481220768273383e+01 
134 1 2 1.0281246265292463e+00 -3.2378902117936400e+02 1.0000000000000000e+00 1.0493032638061203e+01 1.6597579356712838e+01 1.3481220768273264e+01 
117 1 2 1.0281246265292467e+00 -1.8079392311776152e+02 1.0000000000000000e+00 1.0493032638061273e+01 1.6597579356712831e+01 1.3481220768273230e+01 
113 1 2 1.0278832253613168e+00 -2.9304656167187488e+02 1.0000000000000000e+00 1.0970844960715564e+01 1.9734360433583383e+01 1.4265503109931817e+01 
54 1 2 1.0278832253613168e+00 -2.0387265618265621e+02 1.0000000000000000e+00 1.0970844960715585e+01 1.9734360433583387e+01 1.4265503109931785e+01 
72 1 2 1.0278832253613168e+00 -3.1563534715110751e+02 1.0000000000000000e+00 1.0970844960715585e+01 1.9734360433583387e+01 1.4265503109931785e+01 
88 1 2 1.0278832253613168e+00 -2.7339115760526306e+02 1.0000000000000000e+00 1.0970844960715519e+01 1.9734360433583390e+01 1.4265503109931815e+01 
119 1 2 1.0278832253613166e+00 -2.9297153673361788e+02 1.0000000000000000e+00 1.0970844960715562e+01 1.9734360433583390e+01 1.4265503109931794e+01 
129 1 2 1.0278832253613168e+00 -3.1752286728451821e+02 1.0000000000000000e+00 1.0970844960715560e+01 1.9734360433583387e+01 1.4265503109931805e+01 
177 1 2 1.0278832253613166e+00 -1.7798159119526508e+02 1.0000000000000000e+00 1.0970844960715562e+01 1.9734360433583390e+01 1.4265503109931794e+01 
147 1 2 1.0279999433087654e+00 -1.7095526360558009e+02 1.0000000000000000e+00 1.5946163920128399e+01 5.4206191452113623e+00 9.4081710552928897e+00 
158 1 2 1.0279999433087654e+00 -1.3421621530524860e+02 1.0000000000000000e+00 1.5946163920128397e+01 5.4206191452113588e+00 9.4081710552928879e+00 
71 1 2 1.0279999433087654e+00 -3.3355752315318801e+02 1.0000000000000000e+00 1.5946163920128269e+01 5.4206191452113517e+00 9.4081710552927493e+00 
9 1 2 1.0279999433087654e+00 -3.0456008768142999e+02 1.0000000000000000e+00 1.5946163920128322e+01 5.4206191452113588e+00 9.4081710552928079e+00 
176 1 2 1.0279999433087654e+00 -2.8004842678470641e+02 1.0000000000000000e+00 1.5946163920128395e+01 5.4206191452113623e+00 9.4081710552928879e+00 
141 1 2 1.0279999433087654e+00 -1.7906607359134753e+02 1.0000000000000000e+00 1.5946163920128360e+01 5.4206191452113632e+00 9.4081710552928453e+00 
169 1 2 1.0279999433087654e+00 -2.5266674930520165e+02 1.0000000000000000e+00 1.5946163920128397e+01 5.4206191452113588e+00 9.4081710552928879e+00 
76 1 2 1.0279999433087654e+00 -2.0060228694611723e+02 1.0000000000000000e+00 1.8364203303342755e+01 5.2213596450727398e+00 7.2210044067482713e+00 
15 1 2 1.0279999433087654e+00 -2.1745808086230662e+02 1.0000000000000000e+00 1.8364203303342805e+01 5.2213596450733499e+00 7.2210044067482686e+00 
69 1 2 1.0279999433087654e+00 -2.2979025045463459e+02 1.0000000000000000e+00 1.8364203303342769e+01 5.2213596450732735e+00 7.2210044067482357e+00 
61 1 2 1.0279999433087654e+00 -2.1625945447510955e+02 1.0000000000000000e+00 1.8364203303341895e+01 5.2213596450734174e+00 7.2210044067472605e+00 
2 1 2 1.0279999433087654e+00 -2.5449709182019262e+02 1.0000000000000000e+00 1.8364203303342769e+01 5.2213596450732735e+00 7.2210044067482357e+00 
16 1 2 1.0279999433087654e+00 -1.8204948950877673e+02 1.0000000000000000e+00 1.8364203303341881e+01 5.2213596450734876e+00 7.2210044067472383e+00 
32 1 2 1.0279999433087654e+00 -2.6324978570976850e+02 1.0000000000000000e+00 1.8364203303341895e+01 5.2213596450734174e+00 7.2210044067472605e+00 
107 1 2 1.0279995199883201e+00 -2.4921094928630993e+02 1.0000000000000000e+00 1.6440360873900978e+01 1.0001987785274631e+01 1.5957796452899777e+00 
84 1 2 1.0279995199883203e+00 -2.4537689574796349e+02 1.0000000000000000e+00 1.6440360873900971e+01 1.0001987785274741e+01 1.5957796452900155e+00 
143 1 2 1.0279995199883201e+00 -2.8236204789873625e+02 1.0000000000000000e+00 1.6440360873900978e+01 1.0001987785274631e+01 1.5957796452899777e+00 
175 1 2 1.0279995199883201e+00 -2.4519089410387869e+02 1.0000000000000000e+00 1.6440360873900961e+01 1.0001987785274627e+01 1.5957796452899795e+00 
153 1 2 1.0279995199883203e+00 -1.9465713977236925e+02 1.0000000000000000e+00 1.6440360873900971e+01 1.0001987785274741e+01 1.5957796452900155e+00 
48 1 2 1.0279995199883201e+00 -1.7635313646345151e+02 1.0000000000000000e+00 1.6440360873900978e+01 1.0001987785274631e+01 1.5957796452899777e+00 
51 1 2 1.0279995199883203e+00 -3.3534381293226301e+02 1.0000000000000000e+00 1.6440360873900971e+01 1.0001987785274741e+01 1.5957796452900155e+00 
142 1 2 1.0279998675161934e+00 -2.1876790351131814e+02 1.0000000000000000e+00 1.5458330621578902e+01 1.5069944789560218e+01 3.0276364425937814e+00 
166 1 2 1.0279998675161939e+00 -2.9653212684828685e+02 1.0000000000000000e+00 1.5458330621578723e+01 1.5069944789560200e+01 3.0276364425948077e+00 
12 1 2 1.0279998675161937e+00 -1.5318690988449981e+02 1.0000000000000000e+00 1.5458330621578792e+01 1.5069944789560108e+01 3.0276364425948228e+00 
18 1 2 1.0279998675161941e+00 -1.5396016903114185e+02 1.0000000000000000e+00 1.5458330621579924e+01 1.5069944789558972e+01 3.0276364425936357e+00 
28 1 2 1.0279998675161934e+00 -2.3915776077680920e+02 1.0000000000000000e+00 1.5458330621578860e+01 1.5069944789560251e+01 3.0276364425938662e+00 
106 1 2 1.0279998675161941e+00 -2.1031119071321120e+02 1.0000000000000000e+00 1.5458330621578293e+01 1.5069944789561033e+01 3.0276364425935616e+00 
31 1 2 1.0279998675161937e+00 -2.4154855198979456e+02 1.0000000000000000e+00 1.5458330621580155e+01 1.5069944789558710e+01 3.0276364425935158e+00 
46 1 2 1.0279999543179881e+00 -2.7039806102271649e+02 1.0000000000000000e+00 1.8014164691586519e+01 1.6927891994254818e+01 1.7890800613782691e+00 
92 1 2 1.0279999543179863e+00 -1.5316371692832649e+02 1.0000000000000000e+00 1.8014164698473628e+01 1.6927891996147650e+01 1.7890800668724540e+00 
45 1 2 1.0279999543176028e+00 -2.8927461271473351e+02 1.0000000000000000e+00 1.8014165934417917e+01 1.6927895134777540e+01 1.7890822439241265e+00 
75 1 2 1.0279999543176028e+00 -2.6538099483386452e+02 1.0000000000000000e+00 1.8014165934284222e+01 1.6927895134345420e+01 1.7890822436492086e+00 
40 1 2 1.0279999543176028e+00 -3.0076798214640377e+02 1.0000000000000000e+00 1.8014165933207707e+01 1.6927895132670145e+01 1.7890822422033681e+00 
81 1 2 1.0279999543176028e+00 -2.3218889360550060e+02 1.0000000000000000e+00 1.8014165933650531e+01 1.6927895133006945e+01 1.7890822426481805e+00 
90 1 2 1.0279999543179887e+00 -2.1930702889307810e+02 1.0000000000000000e+00 1.8014164695062863e+01 1.6927891983673259e+01 1.7890800592423268e+00 
49 1 2 1.0279998368252217e+00 -2.0482047324050328e+02 1.0000000000000000e+00 1.7449278869367124e+01 1.6835255068619745e+01 5.1343185752243077e+00 
79 1 2 1.0279998368250958e+00 -2.3830439205982196e+02 1.0000000000000000e+00 1.7449279154929535e+01 1.6835254988882955e+01 5.1343185249964396e+00 
86 1 2 1.0279998368251686e+00 -1.9634266919117152e+02 1.0000000000000000e+00 1.7449278984103369e+01 1.6835255036716259e+01 5.1343185550022516e+00 
85 1 2 1.0279998368255614e+00 -2.2649242999316579e+02 1.0000000000000000e+00 1.7449278058204751e+01 1.6835255295828102e+01 5.1343187176790277e+00 
93 1 2 1.0279998368249244e+00 -1.7568223837436574e+02 1.0000000000000000e+00 1.7449279547825796e+01 1.6835254878251423e+01 5.1343184561718207e+00 
50 1 2 1.0279998368246022e+00 -2.2501657824127312e+02 1.0000000000000000e+00 1.7449280322173241e+01 1.6835254654656200e+01 5.1343183222273199e+00 
80 1 2 1.0279998368247965e+00 -3.0428814981617825e+02 1.0000000000000000e+00 1.7449279865329164e+01 1.6835254787675460e+01 5.1343184009128011e+00 
96 1 2 1.0278916450872930e+00 -2.2781974102081588e+02 1.0000000000000000e+00 1.6116980349847072e+01 1.7290270236948945e+01 1.0216735673522557e+01 
27 1 2 1.0278916450872930e+00 -2.0078998510507574e+02 1.0000000000000000e+00 1.6116980349847001e+01 1.7290270236948857e+01 1.0216735673521912e+01 
3 1 2 1.0278916450872928e+00 -2.6198635847270504e+02 1.0000000000000000e+00 1.6116980349847363e+01 1.7290270236949038e+01 1.0216735673524898e+01 
112 1 2 1.0278916450872926e+00 -2.4516443284483194e+02 1.0000000000000000e+00 1.6116980349847530e+01 1.7290270236949215e+01 1.0216735673526358e+01 
53 1 2 1.0278916450872928e+00 -2.3131170565263409e+02 1.0000000000000000e+00 1.6116980349847125e+01 1.7290270236948995e+01 1.0216735673522995e+01 
67 1 2 1.0278916450872928e+00 -2.9846779695950227e+02 1.0000000000000000e+00 1.6116980349847577e+01 1.7290270236949564e+01 1.0216735673527111e+01 
99 1 2 1.0278916450872926e+00 -2.0704989351145858e+02 1.0000000000000000e+00 1.6116980349847527e+01 1.7290270236949212e+01 1.0216735673526328e+01 
22 1 2 1.0279995199883198e+00 -2.1502590689262982e+02 1.0000000000000000e+00 1.5860431455470767e+01 1.1048664604679674e+01 1.8556287685243742e+01 
146 1 2 1.0279995199883198e+00 -1.6321121463576054e+02 1.0000000000000000e+00 1.5860431455466243e+01 1.1048664604681880e+01 1.8556287685245362e+01 
34 1 2 1.0279995199883198e+00 -1.6665283739084455e+02 1.0000000000000000e+00 1.5860431455456478e+01 1.1048664604683767e+01 1.8556287685247877e+01 
140 1 2 1.0279995199883198e+00 -2.6319774191106535e+02 1.0000000000000000e+00 1.5860431455470767e+01 1.1048664604679674e+01 1.8556287685243742e+01 
8 1 2 1.0279995199883198e+00 -1.7808345345434105e+02 1.0000000000000000e+00 1.5860431455466243e+01 1.1048664604681880e+01 1.8556287685245362e+01 
108 1 2 1.0279995199883198e+00 -1.5937443986946516e+02 1.0000000000000000e+00 1.5860431455470767e+01 1.1048664604679674e+01 1.8556287685243742e+01 
156 1 2 1.0279995199883198e+00 -1.6810886933888406e+02 1.0000000000000000e+00 1.5860431455470767e+01 1.1048664604679674e+01 1.8556287685243742e+01 

Velocities

160 -3.0722099578733814e-02 2.3817443910139907e-01 2.9094974867826928e-01
157 -3.0722099577766358e-02 2.3817443910092312e-01 2.9094974867789314e-01
127 -3.0722099577766650e-02 2.3817443910092351e-01 2.9094974867789347e-01
120 -3.0722099577763638e-02 2.3817443910093986e-01 2.9094974867789286e-01
137 -3.0722099579531668e-02 2.3817443910100700e-01 2.9094974867850454e-01
164 -3.0722099577767933e-02 2.3817443910102568e-01 2.9094974867790341e-01
152 -3.0722099577795037e-02 2.3817443910114805e-01 2.9094974867792639e-01
10 -3.2522398776201278e-02 2.3831434528820808e-01 2.9073636192088254e-01
5 -3.2522404378138775e-02 2.3831434117154282e-01 2.9073635613864968e-01
47 -3.2522404302761584e-02 2.3831434053102013e-01 2.9073635514989293e-01
6 -3.2522404374787789e-02 2.3831434113725647e-01 2.9073635608575871e-01
11 -3.2522404223495179e-02 2.3831434007710686e-01 2.9073635444682205e-01
4 -3.2522404512316819e-02 2.3831434249637040e-01 2.9073635818234739e-01
41 -3.2522404612546199e-02 2.3831434578678815e-01 2.9073636324005164e-01
150 -3.1293731133951647e-02 2.3785202612694370e-01 2.9107307096752350e-01
58 -3.1295181716651639e-02 2.3785188369260540e-01 2.9107338166598773e-01
59 -3.1294684664781976e-02 2.3785194247041055e-01 2.9107327693428359e-01
100 -3.1294623446258406e-02 2.3785195996616387e-01 2.9107326812633205e-01
87 -3.1222919267079798e-02 2.3778751298103579e-01 2.9106388576875064e-01
103 -3.1208442741583482e-02 2.3780832095210297e-01 2.9104872429321410e-01
154 -3.1222808378551611e-02 2.3780047510967620e-01 2.9106580831977236e-01
159 -3.1214810731634689e-02 2.3780816613487302e-01 2.9105656457445755e-01
138 -3.1231794174670067e-02 2.3780252901157650e-01 2.9108704531737728e-01
98 -3.1231798498408833e-02 2.3780254676183218e-01 2.9108704127695062e-01
102 -3.1231792884576171e-02 2.3780254041952614e-01 2.9108704283937714e-01
62 -3.1231785432494538e-02 2.3780256889715531e-01 2.9108703674728020e-01
68 -3.1231805606180711e-02 2.3780255479054330e-01 2.9108703929587432e-01
44 -3.1245682790380019e-02 2.3778262591225086e-01 2.9106190421366906e-01
55 -3.1123559931374393e-02 2.3786325437280051e-01 2.9102528719626503e-01
66 -3.1117500300977943e-02 2.3785011866204242e-01 2.9099302284376499e-01
151 -3.1119649902661188e-02 2.3785717466532083e-01 2.9101235372938800e-01
60 -3.1115856619652299e-02 2.3783813331394157e-01 2.9100236286063991e-01
91 -3.1115878414915154e-02 2.3783828233517185e-01 2.9100220515448538e-01
97 -3.1118918049753135e-02 2.3785445818188292e-01 2.9100807917110855e-01
123 -3.1114844388413242e-02 2.3783003685445916e-01 2.9101591292104856e-01
116 -3.1114836025100932e-02 2.3783006097455137e-01 2.9101584823926524e-01
121 -3.1140726872267592e-02 2.3784105066206215e-01 2.9105603860652840e-01
145 -3.1137106380472054e-02 2.3784080818496983e-01 2.9103994950470280e-01
148 -3.1212051442985292e-02 2.3778564588805845e-01 2.9104756385092490e-01
111 -1.0055950372558629e-02 2.3873508610158839e-01 3.1536758667412829e-01
136 -1.0055950372557410e-02 2.3873508610158514e-01 3.1536758667412879e-01
77 -1.0055950372558022e-02 2.3873508610158492e-01 3.1536758667412912e-01