LAMMPS data file via write_data, version 30 Jul 2016, timestep = 600000

2080 atoms
8 atom types

0.0000000000000000e+00 4.0000000000000000e+01 xlo xhi
0.0000000000000000e+00 4.0000000000000000e+01 ylo yhi
0.0000000000000000e+00 1.0000000000000000e+02 zlo zhi

Masses

1 3.896
2 10.72
3 1058.08
4 8.378
5 8.378
6 8.378
7 8.378
8 8.378

Atoms # meso-molecular

1 2 4 2.2559723595316457e+00 2.8246642219411817e+00 4.2000000000000000e+03 0.0000000000000000e+00 0.0000000000000000e+00 2.5000000000000000e+00 
2 2 4 2.2559723595316457e+00 2.0988650781751641e+00 4.2000000000000000e+03 0.0000000000000000e+00 2.0000000000000000e+00 2.5000000000000000e+00 
21 2 4 2.2559723595319054e+00 1.3946339483205883e+00 4.2000000000000000e+03 2.0000000000000000e+00 0.0000000000000000e+00 2.5000000000000000e+00 
22 2 4 2.2559723595316457e+00 6.0055452731748386e-02 4.2000000000000000e+03 2.0000000000000000e+00 2.0000000000000000e+00 2.5000000000000000e+00 
41 2 4 2.2559723595319960e+00 -1.2079378640035681e+00 4.2000000000000000e+03 4.0000000000000000e+00 0.0000000000000000e+00 2.5000000000000000e+00 
42 2 4 2.2559723595316457e+00 1.0354545226045793e+00 4.2000000000000000e+03 4.0000000000000000e+00 2.0000000000000000e+00 2.5000000000000000e+00 
61 2 4 2.2559723595316457e+00 1.0013614269124562e+00 4.2000000000000000e+03 6.0000000000000000e+00 0.0000000000000000e+00 2.5000000000000000e+00 
62 2 4 2.2559723595316457e+00 1.0000033188965833e+00 4.2000000000000000e+03 6.0000000000000000e+00 2.0000000000000000e+00 2.5000000000000000e+00 
81 2 4 2.2559723595316465e+00 7.2997611340302071e-01 4.2000000000000000e+03 8.0000000000000000e+00 0.0000000000000000e+00 2.5000000000000000e+00 
82 2 4 2.2559723595316457e+00 9.9996389090929783e-01 4.2000000000000000e+03 8.0000000000000000e+00 2.0000000000000000e+00 2.5000000000000000e+00 
101 2 4 2.2559723595316457e+00 1.1285494837176375e+00 4.2000000000000000e+03 1.0000000000000000e+01 0.0000000000000000e+00 2.5000000000000000e+00 
102 2 4 2.2559723595316457e+00 1.0000046440645232e+00 4.2000000000000000e+03 1.0000000000000000e+01 2.0000000000000000e+00 2.5000000000000000e+00 
121 2 4 2.2559723595316457e+00 9.9984840736909875e-01 4.2000000000000000e+03 1.2000000000000000e+01 0.0000000000000000e+00 2.5000000000000000e+00 
122 2 4 2.2559723595323433e+00 9.9993677016901694e-01 4.2000000000000000e+03 1.2000000000000000e+01 2.0000000000000000e+00 2.5000000000000000e+00 
141 2 4 2.2559723595316457e+00 9.9982825202977366e-01 4.2000000000000000e+03 1.4000000000000000e+01 0.0000000000000000e+00 2.5000000000000000e+00 
142 2 4 2.2559723595342933e+00 1.0002336369008111e+00 4.2000000000000000e+03 1.4000000000000000e+01 2.0000000000000000e+00 2.5000000000000000e+00 
161 2 4 2.2559723595321080e+00 1.0000615879771855e+00 4.2000000000000000e+03 1.6000000000000000e+01 0.0000000000000000e+00 2.5000000000000000e+00 
162 2 4 2.2559723595316457e+00 9.9998130256548123e-01 4.2000000000000000e+03 1.6000000000000000e+01 2.0000000000000000e+00 2.5000000000000000e+00 
181 2 4 2.2559723595340744e+00 9.7101722868443385e-01 4.2000000000000000e+03 1.8000000000000000e+01 0.0000000000000000e+00 2.5000000000000000e+00 
182 2 4 2.2559723595316457e+00 1.0041828829150656e+00 4.2000000000000000e+03 1.8000000000000000e+01 2.0000000000000000e+00 2.5000000000000000e+00 
3 2 4 2.2559723595430619e+00 9.4371550452214792e-01 4.2000000000000000e+03 0.0000000000000000e+00 4.0000000000000000e+00 2.5000000000000000e+00 
23 2 4 2.2559723595446308e+00 1.0007602229250923e+00 4.2000000000000000e+03 2.0000000000000000e+00 4.0000000000000000e+00 2.5000000000000000e+00 
43 2 4 2.2559723595316457e+00 1.5535251020634872e-01 4.2000000000000000e+03 4.0000000000000000e+00 4.0000000000000000e+00 2.5000000000000000e+00 
63 2 4 2.2559723595316457e+00 9.7534183442883648e-01 4.2000000000000000e+03 6.0000000000000000e+00 4.0000000000000000e+00 2.5000000000000000e+00 
83 2 4 2.2559723595316457e+00 1.0000000485807496e+00 4.2000000000000000e+03 8.0000000000000000e+00 4.0000000000000000e+00 2.5000000000000000e+00 
103 2 4 2.2559723595316457e+00 9.9997331464031491e-01 4.2000000000000000e+03 1.0000000000000000e+01 4.0000000000000000e+00 2.5000000000000000e+00 
123 2 4 2.2559723595316457e+00 9.9991279440101288e-01 4.2000000000000000e+03 1.2000000000000000e+01 4.0000000000000000e+00 2.5000000000000000e+00 
143 2 4 2.2559723595316457e+00 1.0000272646034420e+00 4.2000000000000000e+03 1.4000000000000000e+01 4.0000000000000000e+00 2.5000000000000000e+00 
163 2 4 2.2559723595317074e+00 1.0205214395256850e+00 4.2000000000000000e+03 1.6000000000000000e+01 4.0000000000000000e+00 2.5000000000000000e+00 
183 2 4 2.2559723595316457e+00 1.0786197004363469e+00 4.2000000000000000e+03 1.8000000000000000e+01 4.0000000000000000e+00 2.5000000000000000e+00 
4 2 4 2.2559723595316457e+00 9.9617273159896547e-01 4.2000000000000000e+03 0.0000000000000000e+00 6.0000000000000000e+00 2.5000000000000000e+00 
5 2 4 2.2559723595316457e+00 1.0000008924443509e+00 4.2000000000000000e+03 0.0000000000000000e+00 8.0000000000000000e+00 2.5000000000000000e+00 
24 2 4 2.2559723595316457e+00 1.0012043976979959e+00 4.2000000000000000e+03 2.0000000000000000e+00 6.0000000000000000e+00 2.5000000000000000e+00 
25 2 4 2.2559723595316457e+00 1.0000000000000000e+00 4.2000000000000000e+03 2.0000000000000000e+00 8.0000000000000000e+00 2.5000000000000000e+00 
44 2 4 2.2559723595316457e+00 1.0000407956935700e+00 4.2000000000000000e+03 4.0000000000000000e+00 6.0000000000000000e+00 2.5000000000000000e+00 
45 2 4 2.2559723595316457e+00 1.0000000000000000e+00 4.2000000000000000e+03 4.0000000000000000e+00 8.0000000000000000e+00 2.5000000000000000e+00 
64 2 4 2.2559723595321741e+00 9.7164313155137438e-01 4.2000000000000000e+03 6.0000000000000000e+00 6.0000000000000000e+00 2.5000000000000000e+00 
65 2 4 2.2559723595316457e+00 1.0052407775099050e+00 4.2000000000000000e+03 6.0000000000000000e+00 8.0000000000000000e+00 2.5000000000000000e+00 
84 2 4 2.2559723595323082e+00 1.0168067371841700e+00 4.2000000000000000e+03 8.0000000000000000e+00 6.0000000000000000e+00 2.5000000000000000e+00 
85 2 4 2.2559723595316457e+00 9.7162870300894644e-01 4.2000000000000000e+03 8.0000000000000000e+00 8.0000000000000000e+00 2.5000000000000000e+00 
104 2 4 2.2559723595316457e+00 1.1650963032099171e+00 4.2000000000000000e+03 1.0000000000000000e+01 6.0000000000000000e+00 2.5000000000000000e+00 
105 2 4 2.2559723595316457e+00 7.1972075591741591e-01 4.2000000000000000e+03 1.0000000000000000e+01 8.0000000000000000e+00 2.5000000000000000e+00 
124 2 4 2.2559723595316457e+00 1.0000001785118053e+00 4.2000000000000000e+03 1.2000000000000000e+01 6.0000000000000000e+00 2.5000000000000000e+00 
125 2 4 2.2559723595321031e+00 1.0000634432881701e+00 4.2000000000000000e+03 1.2000000000000000e+01 8.0000000000000000e+00 2.5000000000000000e+00 
144 2 4 2.2559723595316457e+00 1.0000267958031079e+00 4.2000000000000000e+03 1.4000000000000000e+01 6.0000000000000000e+00 2.5000000000000000e+00 
145 2 4 2.2559723595316474e+00 1.0000013563218328e+00 4.2000000000000000e+03 1.4000000000000000e+01 8.0000000000000000e+00 2.5000000000000000e+00 
164 2 4 2.2559723595316457e+00 1.0017695265884643e+00 4.2000000000000000e+03 1.6000000000000000e+01 6.0000000000000000e+00 2.5000000000000000e+00 
165 2 4 2.2559723595316457e+00 1.0000001296148642e+00 4.2000000000000000e+03 1.6000000000000000e+01 8.0000000000000000e+00 2.5000000000000000e+00 
184 2 4 2.2559723595316457e+00 1.7607436013752775e+00 4.2000000000000000e+03 1.8000000000000000e+01 6.0000000000000000e+00 2.5000000000000000e+00 
185 2 4 2.2559723595316457e+00 1.0393529585121617e+00 4.2000000000000000e+03 1.8000000000000000e+01 8.0000000000000000e+00 2.5000000000000000e+00 
6 2 4 2.2559723595316457e+00 1.0173059240816809e+00 4.2000000000000000e+03 0.0000000000000000e+00 1.0000000000000000e+01 2.5000000000000000e+00 
26 2 4 2.2559723595316457e+00 9.5388585138822279e-01 4.2000000000000000e+03 2.0000000000000000e+00 1.0000000000000000e+01 2.5000000000000000e+00 
46 2 4 2.2559723595316457e+00 1.0000000000000000e+00 4.2000000000000000e+03 4.0000000000000000e+00 1.0000000000000000e+01 2.5000000000000000e+00 
66 2 4 2.2559723595316457e+00 9.9702888970412906e-01 4.2000000000000000e+03 6.0000000000000000e+00 1.0000000000000000e+01 2.5000000000000000e+00 
86 2 4 2.2559723595316457e+00 1.0000000000000000e+00 4.2000000000000000e+03 8.0000000000000000e+00 1.0000000000000000e+01 2.5000000000000000e+00 
106 2 4 2.2559723595316457e+00 1.0000000000000000e+00 4.2000000000000000e+03 1.0000000000000000e+01 1.0000000000000000e+01 2.5000000000000000e+00 
126 2 4 2.2559723595316457e+00 1.0000000000000000e+00 4.2000000000000000e+03 1.2000000000000000e+01 1.0000000000000000e+01 2.5000000000000000e+00 
146 2 4 2.2559723595316457e+00 1.0000000000000000e+00 4.2000000000000000e+03 1.4000000000000000e+01 1.0000000000000000e+01 2.5000000000000000e+00 
166 2 4 2.2559723595316457e+00 1.0000000000000000e+00 4.2000000000000000e+03 1.6000000000000000e+01 1.0000000000000000e+01 2.5000000000000000e+00 
186 2 4 2.2559723595337382e+00 9.9961684336174195e-01 4.2000000000000000e+03 1.8000000000000000e+01 1.0000000000000000e+01 2.5000000000000000e+00 
7 2 4 2.2559723618308900e+00 1.2491942842495989e+00 4.2000000000000000e+03 0.0000000000000000e+00 1.2000000000000000e+01 2.5000000000000000e+00 
8 2 4 2.2559723595316457e+00 1.0838635999219832e+00 4.2000000000000000e+03 0.0000000000000000e+00 1.4000000000000000e+01 2.5000000000000000e+00 
27 2 4 2.2559723595316457e+00 1.0334652372433388e+00 4.2000000000000000e+03 2.0000000000000000e+00 1.2000000000000000e+01 2.5000000000000000e+00 
28 2 4 2.2559723595316457e+00 1.0528652362682989e+00 4.2000000000000000e+03 2.0000000000000000e+00 1.4000000000000000e+01 2.5000000000000000e+00 
47 2 4 2.2559723595316457e+00 1.0000000000000000e+00 4.2000000000000000e+03 4.0000000000000000e+00 1.2000000000000000e+01 2.5000000000000000e+00 
48 2 4 2.2559723595316457e+00 2.0294521267517762e-01 4.2000000000000000e+03 4.0000000000000000e+00 1.4000000000000000e+01 2.5000000000000000e+00 
67 2 4 2.2559723595316457e+00 1.0000000000000000e+00 4.2000000000000000e+03 6.0000000000000000e+00 1.2000000000000000e+01 2.5000000000000000e+00 
68 2 4 2.2559723595316457e+00 9.9999694355158009e-01 4.2000000000000000e+03 6.0000000000000000e+00 1.4000000000000000e+01 2.5000000000000000e+00 
87 2 4 2.2559723595316457e+00 1.0000000000000000e+00 4.2000000000000000e+03 8.0000000000000000e+00 1.2000000000000000e+01 2.5000000000000000e+00 
88 2 4 2.2559723595316457e+00 1.0000000000000000e+00 4.2000000000000000e+03 8.0000000000000000e+00 1.4000000000000000e+01 2.5000000000000000e+00 
107 2 4 2.2559723595316457e+00 1.0000000000000000e+00 4.2000000000000000e+03 1.0000000000000000e+01 1.2000000000000000e+01 2.5000000000000000e+00 
108 2 4 2.2559723595316457e+00 1.0000000000000000e+00 4.2000000000000000e+03 1.0000000000000000e+01 1.4000000000000000e+01 2.5000000000000000e+00 
127 2 4 2.2559723595316457e+00 1.0000000000000000e+00 4.2000000000000000e+03 1.2000000000000000e+01 1.2000000000000000e+01 2.5000000000000000e+00 
128 2 4 2.2559723595316457e+00 1.0000000000000000e+00 4.2000000000000000e+03 1.2000000000000000e+01 1.4000000000000000e+01 2.5000000000000000e+00 
147 2 4 2.2559723595316457e+00 1.0079393893937314e+00 4.2000000000000000e+03 1.4000000000000000e+01 1.2000000000000000e+01 2.5000000000000000e+00 
148 2 4 2.2559723595316457e+00 1.0000000000000000e+00 4.2000000000000000e+03 1.4000000000000000e+01 1.4000000000000000e+01 2.5000000000000000e+00 
167 2 4 2.2559723595316457e+00 9.9427508730522784e-01 4.2000000000000000e+03 1.6000000000000000e+01 1.2000000000000000e+01 2.5000000000000000e+00 
168 2 4 2.2559723595316457e+00 9.9812407846813933e-01 4.2000000000000000e+03 1.6000000000000000e+01 1.4000000000000000e+01 2.5000000000000000e+00 
187 2 4 2.2559723595316457e+00 6.4704909045641990e-01 4.2000000000000000e+03 1.8000000000000000e+01 1.2000000000000000e+01 2.5000000000000000e+00 
188 2 4 2.2559723595316457e+00 3.7687651864192609e-02 4.2000000000000000e+03 1.8000000000000000e+01 1.4000000000000000e+01 2.5000000000000000e+00 
9 2 4 2.2559723595323775e+00 2.8684864357895501e+00 4.2000000000000000e+03 0.0000000000000000e+00 1.6000000000000000e+01 2.5000000000000000e+00 
29 2 4 2.2559723595316457e+00 2.0815248891105091e+00 4.2000000000000000e+03 2.0000000000000000e+00 1.6000000000000000e+01 2.5000000000000000e+00 
49 2 4 2.2559723595316457e+00 -2.5963381797040846e-01 4.2000000000000000e+03 4.0000000000000000e+00 1.6000000000000000e+01 2.5000000000000000e+00 
69 2 4 2.2559723595316457e+00 9.9860882493971492e-01 4.2000000000000000e+03 6.0000000000000000e+00 1.6000000000000000e+01 2.5000000000000000e+00 
89 2 4 2.2559723595316457e+00 9.9998595602920914e-01 4.2000000000000000e+03 8.0000000000000000e+00 1.6000000000000000e+01 2.5000000000000000e+00 
109 2 4 2.2559723595316457e+00 1.0000000000000000e+00 4.2000000000000000e+03 1.0000000000000000e+01 1.6000000000000000e+01 2.5000000000000000e+00 
129 2 4 2.2559723595316457e+00 9.9989439585211448e-01 4.2000000000000000e+03 1.2000000000000000e+01 1.6000000000000000e+01 2.5000000000000000e+00 
149 2 4 2.2559723595316457e+00 1.0738778621901557e+00 4.2000000000000000e+03 1.4000000000000000e+01 1.6000000000000000e+01 2.5000000000000000e+00 
169 2 4 2.2559723595316457e+00 1.3545819738134530e+00 4.2000000000000000e+03 1.6000000000000000e+01 1.6000000000000000e+01 2.5000000000000000e+00 
189 2 4 2.2559723595316457e+00 -1.2116302803751773e+00 4.2000000000000000e+03 1.8000000000000000e+01 1.6000000000000000e+01 2.5000000000000000e+00 
10 2 4 2.2559723595316457e+00 9.7351715663487859e-01 4.2000000000000000e+03 0.0000000000000000e+00 1.8000000000000000e+01 2.5000000000000000e+00 
30 2 4 2.2559723595316457e+00 3.3323300425458968e-01 4.2000000000000000e+03 2.0000000000000000e+00 1.8000000000000000e+01 2.5000000000000000e+00 
50 2 4 2.2559723595316457e+00 9.0987075769681403e-01 4.2000000000000000e+03 4.0000000000000000e+00 1.8000000000000000e+01 2.5000000000000000e+00 
70 2 4 2.2559723595316457e+00 9.9999948333501365e-01 4.2000000000000000e+03 6.0000000000000000e+00 1.8000000000000000e+01 2.5000000000000000e+00 
90 2 4 2.2559723595316457e+00 1.0000000000000000e+00 4.2000000000000000e+03 8.0000000000000000e+00 1.8000000000000000e+01 2.5000000000000000e+00 
110 2 4 2.2559723595316457e+00 1.0000645910323072e+00 4.2000000000000000e+03 1.0000000000000000e+01 1.8000000000000000e+01 2.5000000000000000e+00 
130 2 4 2.2559723595316457e+00 9.6660548737114160e-01 4.2000000000000000e+03 1.2000000000000000e+01 1.8000000000000000e+01 2.5000000000000000e+00 
150 2 4 2.2559723595316457e+00 1.0266521736286300e+00 4.2000000000000000e+03 1.4000000000000000e+01 1.8000000000000000e+01 2.5000000000000000e+00 
170 2 4 2.2559723595316457e+00 7.0877317091794989e-01 4.2000000000000000e+03 1.6000000000000000e+01 1.8000000000000000e+01 2.5000000000000000e+00 
190 2 4 2.2559723595316457e+00 -2.5677629720084223e+00 4.2000000000000000e+03 1.8000000000000000e+01 1.8000000000000000e+01 2.5000000000000000e+00 
1090 692 2 1.0280013711180731e+00 -1.3907708064655399e+03 4.2000000000000000e+03 5.4742297208722812e+00 3.2120380592741933e+00 7.8439861359003036e+00 
585 187 2 1.0280009163144932e+00 1.5134699724811728e+03 4.2000000000000000e+03 6.0189876837301615e+00 4.0542800722523475e+00 8.0588932200912495e+00 
984 586 2 1.0279992955038544e+00 8.0128449429480543e+03 4.2000000000000000e+03 1.5061191681613356e-01 1.3436487114397380e+01 6.8399557116207390e+00 
781 383 2 1.0279829306570576e+00 1.0194012563287033e+03 4.2000000000000000e+03 5.6483195998076789e+00 1.4127984823901405e+01 6.4891688273033870e+00 
632 234 2 1.0279925400238357e+00 2.6348103507121832e+03 4.2000000000000000e+03 5.8271580260498519e+00 1.4173755440213318e+01 7.1194103936042925e+00 
1285 887 2 1.0280145629696231e+00 3.3217636329207189e+03 4.2000000000000000e+03 3.1859671466589611e-03 1.5659740214286030e+01 6.4830992002997476e+00 
1409 1011 2 1.0279694455712325e+00 1.2707451137598046e+03 4.2000000000000000e+03 1.2171540679380441e+00 1.5471060267225145e+01 7.1316552022370070e+00 
1242 844 2 1.0280011733806309e+00 1.2686697816448320e+03 4.2000000000000000e+03 2.3106439950612536e+00 1.6543309972572214e+01 7.1882928846705019e+00 
625 227 2 1.0280056624627445e+00 1.6002748898028237e+03 4.2000000000000000e+03 4.4800736282921569e+00 1.5099620443387609e+01 6.3865604205743045e+00 
782 384 2 1.0280113572644183e+00 -4.1150471976522858e+03 4.2000000000000000e+03 5.6631969887583873e+00 1.5978331011016319e+01 6.4972426528711358e+00 
653 255 2 1.0280097992002040e+00 1.5832245207701999e+03 4.2000000000000000e+03 9.0866033665630628e+00 1.6462282042795170e+01 6.9105397072894101e+00 
649 251 2 1.0279938289415969e+00 1.4911985974391212e+03 4.2000000000000000e+03 9.1639739175290131e+00 1.6483575160131206e+01 6.8887712099227940e+00 
985 587 2 1.0279745475809745e+00 7.1019853459178021e+03 4.2000000000000000e+03 8.8764798628632313e+00 1.7085649086662013e+01 8.0354526681467640e+00 
1486 1088 2 1.0280072731232073e+00 -3.1855169445615220e+03 4.2000000000000000e+03 1.7876544620319175e+00 1.8804817826581253e+01 6.4313579671903067e+00 
982 584 2 1.0280045747389503e+00 -3.1854851563369907e+03 4.2000000000000000e+03 1.7962063775074284e+00 1.9069928043080662e+01 6.4324512868185328e+00 
1160 762 2 1.0279703531854383e+00 1.5806535413459574e+03 4.2000000000000000e+03 3.4284924324147887e+00 1.7454871662821279e+01 6.4354846772879215e+00 
1321 923 2 1.0279967225065196e+00 4.5215564509736618e+02 4.2000000000000000e+03 5.0251257646748995e+00 1.8924022546196046e+01 6.2760336275424553e+00 
1153 755 2 1.0279974522679716e+00 4.5215556207907628e+02 4.2000000000000000e+03 5.0250374233334840e+00 1.8922187641511538e+01 6.2764470706468893e+00 
986 588 2 1.0279796956334832e+00 -5.2817361346874077e+03 4.2000000000000000e+03 6.8382861144906135e+00 1.9250915232018393e+01 8.1060257086399741e+00 
1490 1092 2 1.0279722738411947e+00 -5.2817215484366516e+03 4.2000000000000000e+03 6.8645950608135484e+00 1.9236949557328089e+01 8.1042743786659912e+00 
1658 1260 2 1.0280166851128900e+00 -3.9126323355848072e+03 4.2000000000000000e+03 9.3027004797337174e+00 1.9048278445998712e+01 6.4362895137791298e+00 
818 420 2 1.0280165581430514e+00 -3.9126334084545351e+03 4.2000000000000000e+03 9.3031319795623908e+00 1.9047279031030762e+01 6.4366939396323337e+00 
1165 767 2 1.0279985762085153e+00 4.2570346953556318e+03 4.2000000000000000e+03 1.3736573338430902e+00 9.2116614619358161e-01 9.4913973485895955e+00 
998 600 2 1.0280015796622397e+00 -3.7394250099419887e+03 4.2000000000000000e+03 2.0336461022359389e+00 2.2691498249765485e+00 9.6648736703804055e+00 
830 432 2 1.0280010881397807e+00 -7.3493775614951992e+03 4.2000000000000000e+03 1.8905443635015471e+00 2.2392494749270631e+00 9.6652128965698321e+00 
761 363 2 1.0279994609345500e+00 -6.6647930809973184e+02 4.2000000000000000e+03 4.7690831169351355e+00 2.3605993629970481e+00 8.9380911610042624e+00 
1942 1544 2 1.0279988541672698e+00 4.7399591158016199e+02 4.2000000000000000e+03 3.7814884911773965e+00 9.8413188846310995e-01 9.0790965429790393e+00 
597 199 2 1.0279989034417039e+00 2.4715494437073271e+03 4.2000000000000000e+03 5.4366936957019165e+00 4.5951741519228291e+00 9.4194467286677561e+00 
442 44 2 1.0279985296698795e+00 7.3687453916698962e+02 4.2000000000000000e+03 5.3400272294383901e+00 4.0446751095303437e+00 9.8069279330523198e+00 
751 353 2 1.0279999996652889e+00 -2.7065933776454281e+03 4.2000000000000000e+03 2.5918075754060879e+00 7.4482494266275499e+00 9.4365278645481911e+00 
1457 1059 2 1.0279999999982126e+00 7.5048197012653818e+03 4.2000000000000000e+03 1.3656739565501592e+00 7.1092264218848067e+00 1.1054402120517073e+01 
590 192 2 1.0279999974162752e+00 -2.0102558880852373e+03 4.2000000000000000e+03 2.9383775597075985e+00 7.7545061971469922e+00 9.5212710367620073e+00 
950 552 2 1.0280003296615323e+00 -5.5582805744939224e+03 4.2000000000000000e+03 4.7562549025980161e+00 1.6298814069661457e+01 8.6425686115283824e+00 
770 372 2 1.0280156315286759e+00 -5.1269740622632708e+03 4.2000000000000000e+03 5.5443800320552850e+00 1.6154322639262578e+01 9.2264797086919739e+00 
1108 710 2 1.0279790046868034e+00 4.2027291542705689e+03 4.2000000000000000e+03 6.2927230245409094e+00 1.6157260942662528e+01 8.9568678219565516e+00 
432 34 2 1.0279964401888699e+00 2.0419760738636244e+03 4.2000000000000000e+03 2.1489036911361850e+00 1.7886509979639595e+01 9.2018946761439722e+00 
602 204 2 1.0279955071229885e+00 -3.3584716772640609e+03 4.2000000000000000e+03 2.1760554832260621e+00 1.7896874116483914e+01 9.2095286519759973e+00 
462 64 2 1.0280349498374763e+00 9.7561545207735287e+02 4.2000000000000000e+03 7.8265761672965644e+00 1.7508323035784802e+01 1.0162925407106037e+01 
1806 1408 2 1.0279714162551441e+00 -2.7874287626866435e+03 4.2000000000000000e+03 8.5103583669239597e+00 1.7982776085266956e+01 1.1084642985241752e+01 
643 245 2 1.0279687117616256e+00 3.3608862987099707e+02 4.2000000000000000e+03 8.7037266457157454e+00 1.8118719776634734e+01 1.0957052430668044e+01 
933 535 2 1.0280000001398217e+00 2.8379125369372068e+03 4.2000000000000000e+03 1.6934223335051140e+01 4.2882596989317010e+00 1.2838897685761490e+01 
762 364 2 1.0280000001808527e+00 -4.0898652671269447e+03 4.2000000000000000e+03 1.6980173940145125e+01 4.5860978556095313e+00 1.2850246564008764e+01 
1096 698 2 1.0279999997431908e+00 6.8797546488019907e+03 4.2000000000000000e+03 1.7688937831317133e+01 4.3142406618928621e+00 1.2813707701436314e+01 
634 236 2 1.0279999965567552e+00 -2.6391206877538611e+03 4.2000000000000000e+03 1.3662115656652749e+00 7.4158175317651898e+00 1.1221993511709979e+01 
938 540 2 1.0280000080681964e+00 -3.4453657432618170e+03 4.2000000000000000e+03 3.5671313377732443e+00 7.6601307756648547e+00 1.1574456117949827e+01 
445 47 2 1.0280000081043323e+00 2.1864244755079631e+03 4.2000000000000000e+03 3.5654317175621077e+00 7.6645430316289804e+00 1.1575683529650830e+01 
1309 911 2 1.0280409621237108e+00 5.7091295298941554e+02 4.2000000000000000e+03 1.5217843471439497e+01 1.6991002021138950e+01 1.3488624133859414e+01 
1641 1243 2 1.0279994194945095e+00 3.2024620740820305e+03 4.2000000000000000e+03 1.8276491680074130e+01 1.4993185893776714e+01 1.2435641207032219e+01 
1147 749 2 1.0279995095488259e+00 -2.2317985378746903e+03 4.2000000000000000e+03 1.8097453720424291e+01 1.4965413829192627e+01 1.2913704450159637e+01 
1814 1416 2 1.0280016895720441e+00 -1.8510978455913803e+03 4.2000000000000000e+03 1.8486569889141723e+01 1.6388135939197287e+01 1.3362590794509837e+01 
1320 922 2 1.0279613904097995e+00 -5.1174968611068147e+02 4.2000000000000000e+03 1.5751280721177437e+01 1.7250618259910546e+01 1.2745136529898238e+01 
1145 747 2 1.0279832242037421e+00 2.7521891092750361e+03 4.2000000000000000e+03 1.5099319498368068e+01 1.7651654908477543e+01 1.2852532404459556e+01 
1419 1021 2 1.0280028540986912e+00 -1.8670693610922642e+03 4.2000000000000000e+03 1.7613118581145208e+01 1.9017382501015362e+01 1.3200566194098123e+01 
915 517 2 1.0279982297261665e+00 -1.8630618348335704e+03 4.2000000000000000e+03 1.8678901548574494e+01 1.9257030183638395e+01 1.3394635868357053e+01 
931 533 2 1.0279996796278843e+00 -2.2746529297750485e+03 4.2000000000000000e+03 1.8173843440925271e+01 1.1553221133195880e+01 1.6651816695537718e+01 
1541 1143 2 1.0280007901751627e+00 5.2907205366843755e+03 4.2000000000000000e+03 1.9470673221786189e+01 1.5051182219464932e+01 1.5641805020749196e+01 
1544 1146 2 1.0280009675250450e+00 5.2907736905543779e+03 4.2000000000000000e+03 1.9381988982786705e+01 1.5069037179886342e+01 1.5666246088855148e+01 
1753 1355 2 1.0279856136936283e+00 3.7131153403338717e+03 4.2000000000000000e+03 1.2595316008543323e+01 1.7244311272863779e+01 1.5052773676611068e+01 
1301 903 2 1.0280048273454321e+00 3.6412314153738839e+03 4.2000000000000000e+03 1.3271301472251677e+01 1.7538939388946812e+01 1.4638072546098442e+01 
1552 1154 2 1.0279947374639451e+00 -1.9828699949893942e+03 4.2000000000000000e+03 1.2338369041393245e+01 1.7772686171461846e+01 1.5647894222382799e+01 
1141 743 2 1.0280334086768441e+00 5.5959494280865772e+02 4.2000000000000000e+03 1.1536220272436275e+01 1.9446297862866626e+01 1.5488590452645774e+01 
638 240 2 1.0279980163154621e+00 -1.8504128498378905e+03 4.2000000000000000e+03 1.8063288185722435e+01 1.8965233386004005e+01 1.4908591138315687e+01 
930 532 2 1.0279992844525434e+00 -2.2741213245367990e+03 4.2000000000000000e+03 1.9220622606567954e+01 1.1498562790711331e+01 1.6695742659677475e+01 
814 416 2 1.0280000699449887e+00 -5.9516427477054356e+02 4.2000000000000000e+03 1.7606382982660161e+01 1.3072792874246002e+01 1.7147049217962721e+01 
1822 1424 2 1.0280000097569029e+00 -1.1040359579931378e+03 4.2000000000000000e+03 1.7669470043667985e+01 1.2951222468775796e+01 1.7460040513226026e+01 
447 49 2 1.0280257471824228e+00 1.4619445412001228e+03 4.2000000000000000e+03 1.0933539085978696e+00 1.6898909098339079e+01 1.8626521722563268e+01 
785 387 2 1.0280249831250212e+00 2.6203298691161496e+02 4.2000000000000000e+03 1.0378064694997668e+00 1.6861710193865314e+01 1.8647140117425266e+01 
486 88 2 1.0279989048135774e+00 5.3095691250967825e+01 4.2000000000000000e+03 1.9472354933298583e+01 1.5829733381418981e+01 1.7800333687539094e+01 
487 89 2 1.0279988349524418e+00 5.3128605109678112e+01 4.2000000000000000e+03 1.9446674597288808e+01 1.5828241968347502e+01 1.7801241828129864e+01 
408 10 2 1.0280042459713479e+00 1.4691800559072778e+03 4.2000000000000000e+03 1.9076402345027020e+01 1.7743348756504496e+01 1.7512086273404744e+01 
405 7 2 1.0280008341518025e+00 1.4711713011802437e+03 4.2000000000000000e+03 1.7747465333606748e+01 1.8865960523634044e+01 1.8675102628639841e+01 
622 224 2 1.0279779553647117e+00 -2.6773348443175664e+03 4.2000000000000000e+03 1.6221906459549835e+00 1.7911865828980297e+01 1.9663258290499506e+01 
450 52 2 1.0280479230784643e+00 1.4689894742888773e+03 4.2000000000000000e+03 2.2658332792404340e-01 1.8366558960456302e+01 2.0710562903884576e+01 
1962 1564 2 1.0280485474085710e+00 1.4689983519181637e+03 4.2000000000000000e+03 2.2677277424973513e-01 1.9630872553433480e+01 2.0711595260048458e+01 
929 531 2 1.0279981797591109e+00 -1.0598310846341021e+03 4.2000000000000000e+03 1.8245478322746877e+01 1.9030675316623480e+01 1.9688064247360252e+01 
932 534 2 1.0279979780890862e+00 -1.0598799279172299e+03 4.2000000000000000e+03 1.8296439898209048e+01 1.9025575098747165e+01 1.9686394217907043e+01 
422 24 2 1.0280027855877023e+00 6.6650432869434337e+02 4.2000000000000000e+03 1.4368818103472440e+01 1.3382979200651180e+01 2.3165499653198612e+01 
1945 1547 2 1.0280028851301313e+00 2.5408303221021301e+03 4.2000000000000000e+03 1.4405492778536196e+01 1.3397888915322110e+01 2.3196613361718391e+01 
592 194 2 1.0279978374326255e+00 2.0842422972578086e+02 4.2000000000000000e+03 1.3814501582118131e+01 1.4587324460062078e+01 2.2323631000787739e+01 
434 36 2 1.0279984728380045e+00 2.2729485727695596e+03 4.2000000000000000e+03 1.4401304374023539e+01 1.5373656781432379e+01 2.2662014287486500e+01 
598 200 2 1.0280059448395626e+00 -2.8363197701742456e+03 4.2000000000000000e+03 1.5235607032661527e+01 1.6039734213577564e+01 2.4239200777909993e+01 
581 183 2 1.0279983731945623e+00 2.0993446646160933e+03 4.2000000000000000e+03 1.5445428882106230e+01 1.6170707237562386e+01 2.4768613200328804e+01 
823 425 2 1.0280931775548279e+00 -6.2928284005147043e+03 4.2000000000000000e+03 6.7244764035485560e-01 1.9022265316014089e+01 2.3189084680767806e+01 
1663 1265 2 1.0280931788138694e+00 -6.2928284596530802e+03 4.2000000000000000e+03 6.7245076319469832e-01 1.8977734343325725e+01 2.3189081109271342e+01 
1087 689 2 1.0280250608950006e+00 -9.2512263142740585e+02 4.2000000000000000e+03 1.7620953860319531e+01 3.4063573656841641e+00 2.5104027839540258e+01 
421 23 2 1.0280286124943885e+00 1.3202590376109499e+03 4.2000000000000000e+03 1.7521280872851545e+01 3.4341112211194229e+00 2.5140609152287009e+01 
906 508 2 1.0279724335672042e+00 -2.8349209119407806e+01 4.2000000000000000e+03 1.7542496246497247e+01 4.0250244113626401e+00 2.6908609733645100e+01 
910 512 2 1.0279751140444504e+00 -4.8555744488424061e+03 4.2000000000000000e+03 1.7600099736835357e+01 4.0142446328751866e+00 2.6938410307126329e+01 
1772 1374 2 1.0279993776719916e+00 4.5605555461053837e+03 4.2000000000000000e+03 1.5734412781949571e+01 1.6298915076997417e+01 2.5921656201929128e+01 
426 28 2 1.0280070059385968e+00 2.0110084956658552e+03 4.2000000000000000e+03 1.5860556390306151e+01 1.6254840676742095e+01 2.7497446341950525e+01 
769 371 2 1.0279901555406092e+00 -8.0363523360934573e+02 4.2000000000000000e+03 1.5908703594356915e+01 1.8040937366648034e+01 2.7667650327673396e+01 
1609 1211 2 1.0279840506513447e+00 -8.0365197599248654e+02 4.2000000000000000e+03 1.5805224633428715e+01 1.9919999922341031e+01 2.7676207350348065e+01 
595 197 2 1.0280104715513385e+00 -1.3561488020523391e+03 4.2000000000000000e+03 1.6043707147693819e+01 1.6583464388308656e+01 2.8572169905306126e+01 
773 375 2 1.0279859240602753e+00 7.4540323016607294e+02 4.2000000000000000e+03 1.7558345019358413e+01 1.7780271109794580e+01 2.9248131663247236e+01 
757 359 2 1.0280315921656185e+00 5.3592622505149862e+01 4.2000000000000000e+03 1.7750557847900875e+01 1.7649943969495347e+01 2.8872003387139102e+01 
796 398 2 1.0280000000119476e+00 -3.9445033376542233e+02 4.2000000000000000e+03 5.5517088082469945e-01 3.3680508789961876e+00 4.5358988154241906e+01 
797 399 2 1.0280000000003617e+00 -7.7213240508014451e+02 4.2000000000000000e+03 9.6985182344134180e-01 3.1233113433655797e+00 4.5656919491018158e+01 
636 238 2 1.0279999999878895e+00 1.3011155724762325e+03 4.2000000000000000e+03 5.5724283815720344e-01 3.1915525531104700e+00 4.6035915189050137e+01 
966 568 2 1.0279998893895395e+00 -4.2294778510135084e+03 4.2000000000000000e+03 1.9023120163598264e+01 7.2241856972951568e-01 4.9104315940173656e+01 
1305 907 2 1.0279998893977855e+00 1.9363175029114975e+03 4.2000000000000000e+03 1.9023143997926574e+01 7.2238799908428442e-01 4.9104287153895811e+01 