LAMMPS data file via write_data, version 30 Jul 2016, timestep = 50400000

180 atoms
2 atom types

0.0000000000000000e+00 2.0000000000000000e+01 xlo xhi
0.0000000000000000e+00 2.0000000000000000e+01 ylo yhi
0.0000000000000000e+00 2.0000000000000000e+01 zlo zhi

Masses

1 3.896
2 4.31

Atoms # meso-molecular

1 1 2 7.2535516155268209e-01 -1.9105494072161883e+07 1.0000000000000000e+00 5.7200047819405437e+00 4.6596345639847030e+00 5.2883401823681908e-01 
7 1 2 7.2535516155268209e-01 -2.3999875503938105e+07 1.0000000000000000e+00 5.7200047819405437e+00 4.6596345639847030e+00 5.2883401823681908e-01 
13 1 2 7.2535516155268209e-01 -2.1444265095039554e+07 1.0000000000000000e+00 5.7200047819405437e+00 4.6596345639847030e+00 5.2883401823681908e-01 
43 1 2 7.2535516155268209e-01 -2.4429796765481483e+07 1.0000000000000000e+00 5.7200047819405437e+00 4.6596345639847030e+00 5.2883401823681908e-01 
49 1 2 7.2535516155268209e-01 -2.0517644723014239e+07 1.0000000000000000e+00 5.7200047819405437e+00 4.6596345639847030e+00 5.2883401823681908e-01 
56 1 2 1.0280000000000000e+00 -2.0407736618784361e+07 1.0000000000000000e+00 5.6623047805136499e+00 9.7773885826943712e+00 3.7487701348309717e+00 
50 1 2 1.0280000000000000e+00 -2.4751331827307872e+07 1.0000000000000000e+00 5.6623049073237510e+00 9.7773884868439858e+00 3.7487700022744925e+00 
15 1 2 1.0280000000000000e+00 -2.3283432828076422e+07 1.0000000000000000e+00 5.6623048624488233e+00 9.7773885581013840e+00 3.7487700905168673e+00 
14 1 2 1.0280000000000000e+00 -2.4052249386863772e+07 1.0000000000000000e+00 5.6623048857190801e+00 9.7773885348741434e+00 3.7487700599505329e+00 
4 1 2 5.8028412924214567e-01 -1.4309085773688648e+07 1.0000000000000000e+00 6.4482269751689874e+00 7.5902408409392708e-01 1.2205803679225895e+01 
5 1 2 5.8028412924214567e-01 -1.4589109471742209e+07 1.0000000000000000e+00 6.4482269751689874e+00 7.5902408409392708e-01 1.2205803679225895e+01 
40 1 2 5.8028412924214567e-01 -1.6742568495322127e+07 1.0000000000000000e+00 6.4482269751689874e+00 7.5902408409392708e-01 1.2205803679225895e+01 
41 1 2 5.8028412924214567e-01 -1.5581015362193260e+07 1.0000000000000000e+00 6.4482269751689874e+00 7.5902408409392708e-01 1.2205803679225895e+01 
52 1 2 1.0280000000000000e+00 -1.9249730834716666e+07 1.0000000000000000e+00 6.3905770625514711e+00 6.4631090175521360e+00 1.2050718074377388e+01 
45 1 2 1.0280000000000000e+00 -1.6002282281604733e+07 1.0000000000000000e+00 6.3896602609920450e+00 6.4643832987710992e+00 1.2051106970586428e+01 
51 1 2 1.0280000000000000e+00 -1.2979652224198123e+07 1.0000000000000000e+00 6.3907827754433688e+00 6.4635546649576705e+00 1.2050705951585170e+01 
16 1 2 1.0280000000000000e+00 -2.1999361175772693e+07 1.0000000000000000e+00 6.3911776520689250e+00 6.4682320291281465e+00 1.2051100254483160e+01 
46 1 2 1.0280000000000000e+00 -2.2177795453463845e+07 1.0000000000000000e+00 6.4123369067397773e+00 6.0516482034585755e+00 1.2261510113078504e+01 
17 1 2 1.0280000000000000e+00 -2.6592840834406793e+07 1.0000000000000000e+00 5.2728790478298038e+00 7.6642700551515190e+00 1.5024437022797267e+01 
18 1 2 1.0280000000000000e+00 -2.3767934615081977e+07 1.0000000000000000e+00 5.2728790478298038e+00 7.6642700551515190e+00 1.5024437022797267e+01 
12 1 2 1.0280000000000000e+00 -1.7371232780484419e+07 1.0000000000000000e+00 5.2728790478298038e+00 7.6642700551515190e+00 1.5024437022797267e+01 
24 1 2 1.0280000000000000e+00 -2.5931458156082466e+07 1.0000000000000000e+00 5.2728790478298038e+00 7.6642700551515190e+00 1.5024437022797267e+01 
23 1 2 1.0280000000000000e+00 -2.1706921731980518e+07 1.0000000000000000e+00 5.2728790478298038e+00 7.6642700551515190e+00 1.5024437022797267e+01 
53 1 2 1.0280000000000000e+00 -1.7096016358176321e+07 1.0000000000000000e+00 6.0104685870273622e+00 7.6224777089987175e+00 1.4964070789086117e+01 
54 1 2 1.0280000000000000e+00 -1.7181065450111926e+07 1.0000000000000000e+00 6.0104685870273622e+00 7.6224777089987175e+00 1.4964070789086117e+01 
25 1 2 1.0280000000000000e+00 -1.9887951058863319e+07 1.0000000000000000e+00 5.3707698537258057e+00 1.0917912100977786e+01 2.9469320791248252e+00 
26 1 2 1.0280000000000000e+00 -2.0191540644651212e+07 1.0000000000000000e+00 5.3709848622623655e+00 1.0917760808189909e+01 2.9465198168481637e+00 
55 1 2 1.0280000000000000e+00 -2.0769411599040911e+07 1.0000000000000000e+00 5.3707753491393682e+00 1.0917909926143533e+01 2.9469247235741860e+00 
20 1 2 1.0280000000000000e+00 -2.0896973540681012e+07 1.0000000000000000e+00 5.3714088740792523e+00 1.0917456086227480e+01 2.9456974237104849e+00 
19 1 2 1.0280000000000000e+00 -2.4473256059412293e+07 1.0000000000000000e+00 5.8642334733164825e+00 1.0032392992190967e+01 2.7734042606961142e+00 
31 1 2 7.2535516155268209e-01 -1.8901992838925671e+07 1.0000000000000000e+00 6.3415159397720444e+00 1.7958496814607791e+01 3.0658473823535775e+00 
32 1 2 7.2535516155268209e-01 -2.3732175956382941e+07 1.0000000000000000e+00 6.3415159397720444e+00 1.7958496814607791e+01 3.0658473823535775e+00 
2 1 2 7.2535516155268209e-01 -2.0826096343774196e+07 1.0000000000000000e+00 6.3415159397720444e+00 1.7958496814607791e+01 3.0658473823535775e+00 
67 1 2 7.2535516155268209e-01 -1.8521326337939240e+07 1.0000000000000000e+00 6.3415159397720444e+00 1.7958496814607791e+01 3.0658473823535775e+00 
68 1 2 7.2535516155268209e-01 -1.9508021291211203e+07 1.0000000000000000e+00 6.3415159397720444e+00 1.7958496814607791e+01 3.0658473823535775e+00 
39 1 2 4.3521309693160926e-01 -1.5045280423771882e+07 1.0000000000000000e+00 6.5362214765356157e+00 1.8014036820796143e+01 8.0333981999758013e+00 
33 1 2 4.3521309693160926e-01 -1.4640869086556857e+07 1.0000000000000000e+00 6.5362214765356157e+00 1.8014036820796143e+01 8.0333981999758013e+00 
69 1 2 4.3521309693160926e-01 -1.6225675960283661e+07 1.0000000000000000e+00 6.5362214765356157e+00 1.8014036820796143e+01 8.0333981999758013e+00 
59 1 2 1.1666423289089820e+00 -2.0213832836009767e+07 1.0000000000000000e+00 2.9052325234190914e+00 1.3096439148112285e+01 1.2229566665689703e+01 
65 1 2 1.1666423289089820e+00 -1.7050449125061393e+07 1.0000000000000000e+00 2.9052325234190914e+00 1.3096439148112285e+01 1.2229566665689703e+01 
101 1 2 1.1666423289089820e+00 -1.5865201867902955e+07 1.0000000000000000e+00 2.9052325234190914e+00 1.3096439148112285e+01 1.2229566665689703e+01 
64 1 2 1.1666423289089820e+00 -2.0284401136119943e+07 1.0000000000000000e+00 2.9052325234190914e+00 1.3096439148112285e+01 1.2229566665689703e+01 
27 1 2 1.1666423289089820e+00 -2.1706824596048728e+07 1.0000000000000000e+00 2.9052325234190914e+00 1.3096439148112285e+01 1.2229566665689703e+01 
22 1 2 1.1666423289089820e+00 -1.9568501081906177e+07 1.0000000000000000e+00 2.9052325234190914e+00 1.3096439148112285e+01 1.2229566665689703e+01 
57 1 2 1.1666423289089820e+00 -1.8070579285117421e+07 1.0000000000000000e+00 2.9052325234190914e+00 1.3096439148112285e+01 1.2229566665689703e+01 
34 1 2 8.4478805902879217e-01 -2.0028098260248028e+07 1.0000000000000000e+00 4.8576119185469064e+00 1.3928959306760094e+01 1.2484137771297696e+01 
29 1 2 8.4478805902879217e-01 -2.1191317898555499e+07 1.0000000000000000e+00 4.8576119185469064e+00 1.3928959306760094e+01 1.2484137771297696e+01 
30 1 2 8.4478805902879217e-01 -1.7285197486633781e+07 1.0000000000000000e+00 4.8576119185469064e+00 1.3928959306760094e+01 1.2484137771297696e+01 
35 1 2 8.4478805902879217e-01 -2.4294783054210015e+07 1.0000000000000000e+00 4.8576119185469064e+00 1.3928959306760094e+01 1.2484137771297696e+01 
36 1 2 2.9014206462107284e-01 -1.4078254177581204e+07 1.0000000000000000e+00 5.0686274787191978e+00 1.8851329740220770e+01 1.7317962467285280e+01 
6 1 2 2.9014206462107284e-01 -1.4188427710312948e+07 1.0000000000000000e+00 5.0686274787191978e+00 1.8851329740220770e+01 1.7317962467285291e+01 
8 1 2 1.0279999999999998e+00 -2.0678197074733730e+07 1.0000000000000000e+00 9.7787848284685293e+00 2.4538749914284161e+00 4.0093942328740670e+00 
3 1 2 1.0279999999999998e+00 -1.5567869746052328e+07 1.0000000000000000e+00 9.7787848284685293e+00 2.4538749914284161e+00 4.0093942328740670e+00 
9 1 2 1.0279999999999998e+00 -1.6143512067552699e+07 1.0000000000000000e+00 9.7787848284685293e+00 2.4538749914284161e+00 4.0093942328740670e+00 
44 1 2 1.0279999999999998e+00 -1.9296084180137813e+07 1.0000000000000000e+00 9.7787848284685293e+00 2.4538749914284161e+00 4.0093942328740670e+00 
37 1 2 1.0280000000000005e+00 -1.7150140739774451e+07 1.0000000000000000e+00 1.0688666385965535e+01 2.4217349875923775e+00 5.5890830230719191e+00 
75 1 2 1.0280000000000005e+00 -1.8380904263736490e+07 1.0000000000000000e+00 1.0688666385965535e+01 2.4217349875923775e+00 5.5890830230719191e+00 
38 1 2 1.0280000000000005e+00 -1.5623957776694454e+07 1.0000000000000000e+00 1.0688666385965535e+01 2.4217349875923775e+00 5.5890830230719191e+00 
74 1 2 1.0280000000000005e+00 -2.2492923752829220e+07 1.0000000000000000e+00 1.0688666385965535e+01 2.4217349875923775e+00 5.5890830230719191e+00 
80 1 2 1.0280000000000005e+00 -2.2746216849661805e+07 1.0000000000000000e+00 1.0688666385965535e+01 2.4217349875923775e+00 5.5890830230719191e+00 
130 1 2 1.0280000000000002e+00 -1.8975211241244983e+07 1.0000000000000000e+00 7.6922607509572885e+00 6.0046917622663587e+00 4.7365277843437195e+00 
93 1 2 1.0280000000000000e+00 -1.7286573015131131e+07 1.0000000000000000e+00 7.7049327434498176e+00 6.0312202820754539e+00 4.7183816726496879e+00 
86 1 2 1.0280000000000000e+00 -2.1125787636912316e+07 1.0000000000000000e+00 7.7049327434498176e+00 6.0312202820754539e+00 4.7183816726496879e+00 
87 1 2 1.0280000000000000e+00 -1.8359620595586624e+07 1.0000000000000000e+00 7.7049327434498176e+00 6.0312202820754539e+00 4.7183816726496879e+00 
84 1 2 1.0279999999999994e+00 -1.7513039903134473e+07 1.0000000000000000e+00 7.6597731980374695e+00 5.2532894103610204e+00 4.6534735809285959e+00 
137 1 2 1.0280000000000002e+00 -2.1028997552756805e+07 1.0000000000000000e+00 9.3697833478889372e+00 5.4834774128297141e+00 3.7212352164112836e+00 
42 1 2 1.0279999999999998e+00 -1.5779047711014796e+07 1.0000000000000000e+00 9.5034196942899047e+00 5.6507779228510202e+00 4.0274484531159027e+00 
119 1 2 1.0280000000000000e+00 -2.4607242820125140e+07 1.0000000000000000e+00 7.5109613800213966e+00 5.5992594886269611e+00 4.4439277416658571e+00 
173 1 2 1.0280000000000007e+00 -1.7915034710728236e+07 1.0000000000000000e+00 8.6370720841776034e+00 4.3340591497785663e+00 4.0261687384755467e+00 
167 1 2 1.0279999999999998e+00 -2.6009446260757603e+07 1.0000000000000000e+00 9.4809346679154540e+00 5.5460923676138352e+00 3.8567547338943742e+00 
72 1 2 1.0279999999999991e+00 -2.3638321974909991e+07 1.0000000000000000e+00 1.0385288317164056e+01 4.4537469223023596e+00 4.3297227528568545e+00 
103 1 2 1.0279999999999998e+00 -1.8704853199893638e+07 1.0000000000000000e+00 1.0385362833589069e+01 4.4536506267613740e+00 4.3298063225341750e+00 
108 1 2 1.0279999999999998e+00 -2.1081403879576970e+07 1.0000000000000000e+00 1.0385294034609506e+01 4.4537394106742552e+00 4.3297277461603985e+00 
10 1 2 1.0280000000000000e+00 -2.4904129552320279e+07 1.0000000000000000e+00 6.8925798036412793e+00 6.2629615259765590e+00 1.2867283528739312e+01 
11 1 2 1.0280000000000000e+00 -2.3779541116827253e+07 1.0000000000000000e+00 6.8534466225110640e+00 6.1519885724907626e+00 1.2742515719866390e+01 
124 1 2 7.2535516155268209e-01 -1.3815368103680346e+07 1.0000000000000000e+00 1.1783101617512187e+01 6.1983922022029363e+00 1.1549304894267221e+01 
82 1 2 7.2535516155268209e-01 -1.5228459655178815e+07 1.0000000000000000e+00 1.1783101617512187e+01 6.1983922022029363e+00 1.1549304894267221e+01 
83 1 2 7.2535516155268209e-01 -1.4402463892999738e+07 1.0000000000000000e+00 1.1783101617512187e+01 6.1983922022029363e+00 1.1549304894267221e+01 
89 1 2 7.2535516155268209e-01 -1.5803927827756301e+07 1.0000000000000000e+00 1.1783101617512187e+01 6.1983922022029363e+00 1.1549304894267221e+01 
88 1 2 7.2535516155268209e-01 -1.4425695371099304e+07 1.0000000000000000e+00 1.1783101617512187e+01 6.1983922022029363e+00 1.1549304894267221e+01 
47 1 2 1.0280000000000000e+00 -2.3867743013257973e+07 1.0000000000000000e+00 6.6841663903244299e+00 6.9265943466411315e+00 1.3615317555419349e+01 
85 1 2 2.9014206462107284e-01 -1.0015411896137837e+07 1.0000000000000000e+00 1.1099715767033901e+01 8.3934271672580394e+00 1.8810199567834193e+01 
90 1 2 2.9014206462107284e-01 -1.0287307259584248e+07 1.0000000000000000e+00 1.1099715767033901e+01 8.3934271672580447e+00 1.8810199567834193e+01 
91 1 2 1.0154972261737549e+00 -2.4119113217566285e+07 1.0000000000000000e+00 1.0469520782745800e+01 1.3020876768828995e+01 2.8340691555664455e+00 
97 1 2 1.0154972261737549e+00 -2.4886215118528452e+07 1.0000000000000000e+00 1.0469520782745800e+01 1.3020876768828995e+01 2.8340691555664455e+00 
92 1 2 1.0154972261737549e+00 -2.1734236829519529e+07 1.0000000000000000e+00 1.0469520782745800e+01 1.3020876768828995e+01 2.8340691555664455e+00 
98 1 2 1.0154972261737549e+00 -2.3078863800049745e+07 1.0000000000000000e+00 1.0469520782745800e+01 1.3020876768828995e+01 2.8340691555664455e+00 
61 1 2 1.0154972261737549e+00 -2.0252732228788566e+07 1.0000000000000000e+00 1.0469520782745800e+01 1.3020876768828995e+01 2.8340691555664455e+00 
62 1 2 1.0154972261737549e+00 -2.1705086353500355e+07 1.0000000000000000e+00 1.0469520782745800e+01 1.3020876768828995e+01 2.8340691555664455e+00 
104 1 2 1.0154972261737549e+00 -2.1743282701807905e+07 1.0000000000000000e+00 1.0469520782745800e+01 1.3020876768828995e+01 2.8340691555664455e+00 
106 1 2 1.0280000000000000e+00 -2.3254119899756853e+07 1.0000000000000000e+00 1.0801101053749800e+01 1.2333477063280027e+01 9.6566593857071599e+00 
71 1 2 1.0280000000000000e+00 -2.0372909977278382e+07 1.0000000000000000e+00 1.0801101053749800e+01 1.2333477063280027e+01 9.6566593857071599e+00 
105 1 2 1.0280000000000000e+00 -2.2498697962335240e+07 1.0000000000000000e+00 1.0801101053751125e+01 1.2333477063280162e+01 9.6566593857087586e+00 
70 1 2 1.0280000000000000e+00 -2.2396041829905521e+07 1.0000000000000000e+00 1.0801101053740952e+01 1.2333477063286439e+01 9.6566593857025094e+00 
107 1 2 1.0280000000000000e+00 -1.8480526666254837e+07 1.0000000000000000e+00 1.0801101053749800e+01 1.2333477063280027e+01 9.6566593857071599e+00 
136 1 2 1.0280000000000000e+00 -1.7328496228142098e+07 1.0000000000000000e+00 9.4474662696325904e+00 1.1104381054876542e+01 1.1052494088637989e+01 
129 1 2 1.0280000000000000e+00 -1.8236058481114790e+07 1.0000000000000000e+00 9.4474662696325904e+00 1.1104381054876542e+01 1.1052494088637989e+01 
135 1 2 1.0280000000000000e+00 -1.8203595638187382e+07 1.0000000000000000e+00 9.4474662696325904e+00 1.1104381054876542e+01 1.1052494088637989e+01 
94 1 2 1.0280000000000000e+00 -1.8960017680748973e+07 1.0000000000000000e+00 9.1991543460590410e+00 1.1901408074331016e+01 1.0089534466594323e+01 
21 1 2 1.0280000000000000e+00 -2.3899649149992369e+07 1.0000000000000000e+00 9.5133437249366981e+00 1.1277396183757077e+01 1.1212031581222412e+01 
58 1 2 1.0280000000000000e+00 -2.8309033766419981e+07 1.0000000000000000e+00 9.7246983670812401e+00 1.2249555765869420e+01 1.1074079665567078e+01 
63 1 2 1.0280000000000000e+00 -1.1623611810805723e+07 1.0000000000000000e+00 1.0114343204326868e+01 1.0831087248730560e+01 1.0285672976780235e+01 
66 1 2 2.9014206462107284e-01 -7.1330296299128374e+06 1.0000000000000000e+00 7.2335743444272893e+00 1.2171265353656253e+01 1.7021776653746898e+01 
60 1 2 2.9014206462107284e-01 -7.7425501431041844e+06 1.0000000000000000e+00 7.2335743444272866e+00 1.2171265353656253e+01 1.7021776653746887e+01 
158 1 2 1.0280000000000000e+00 -2.2565254969495509e+07 1.0000000000000000e+00 1.6615156520876639e+01 5.7726396304600529e+00 3.1331498801950688e+00 
121 1 2 1.0280000000000000e+00 -2.3212050504796617e+07 1.0000000000000000e+00 1.6585155699919415e+01 5.9263766483645970e+00 3.0289254694148333e+00 
115 1 2 1.0280000000000000e+00 -2.3509519494799063e+07 1.0000000000000000e+00 1.6515855997097535e+01 5.8411901173666223e+00 3.0787979277072033e+00 
157 1 2 1.0280000000000000e+00 -2.3404518838970251e+07 1.0000000000000000e+00 1.6172031074984144e+01 6.0426718720955952e+00 3.0944548889721570e+00 
151 1 2 1.0280000000000000e+00 -2.4455032353610985e+07 1.0000000000000000e+00 1.6622978327390889e+01 5.7490560238205148e+00 3.1558640875996882e+00 
79 1 2 1.0280000000000000e+00 -2.3383226229560189e+07 1.0000000000000000e+00 1.7384608900330054e+01 6.6647569899448174e+00 4.0898609180808645e+00 
116 1 2 1.0280000000000000e+00 -2.5478100355707929e+07 1.0000000000000000e+00 1.6973951216324384e+01 5.8871901070523274e+00 4.4327786766167661e+00 
152 1 2 1.0280000000000000e+00 -2.3129349672882453e+07 1.0000000000000000e+00 1.6149436443464083e+01 7.3938924607559624e+00 4.6291829233524338e+00 
165 1 2 1.0280000000000000e+00 -1.4527525647831602e+07 1.0000000000000000e+00 1.6235613202214417e+01 7.2673753626286368e+00 4.8455222279062635e+00 
159 1 2 1.0280000000000000e+00 -1.5544154044509402e+07 1.0000000000000000e+00 1.6235613202214417e+01 7.2673753626286368e+00 4.8455222279062635e+00 
122 1 2 1.0280000000000000e+00 -1.7189781640654761e+07 1.0000000000000000e+00 1.6235613202214417e+01 7.2673753626286368e+00 4.8455222279062635e+00 
123 1 2 1.0280000000000000e+00 -2.0388613691888031e+07 1.0000000000000000e+00 1.6235613202214417e+01 7.2673753626286368e+00 4.8455222279062635e+00 
81 1 2 8.7042619386321851e-01 -1.7040404154181931e+07 1.0000000000000000e+00 1.3697221067974944e+01 2.3593053618042257e+00 9.1244321564069413e+00 
111 1 2 8.7042619386321851e-01 -2.0981016818475593e+07 1.0000000000000000e+00 1.3697221067974944e+01 2.3593053618042257e+00 9.1244321564069413e+00 
118 1 2 8.7042619386321851e-01 -1.9505190366266090e+07 1.0000000000000000e+00 1.3697221067974944e+01 2.3593053618042257e+00 9.1244321564069413e+00 
112 1 2 8.7042619386321851e-01 -1.4175373804242503e+07 1.0000000000000000e+00 1.3697221067974944e+01 2.3593053618042257e+00 9.1244321564069413e+00 
76 1 2 8.7042619386321851e-01 -2.1411481320545249e+07 1.0000000000000000e+00 1.3697221067974944e+01 2.3593053618042257e+00 9.1244321564069413e+00 
117 1 2 8.7042619386321851e-01 -1.9490616343348548e+07 1.0000000000000000e+00 1.3697221067974944e+01 2.3593053618042257e+00 9.1244321564069413e+00 
148 1 2 5.8028412924214567e-01 -1.3128894590606458e+07 1.0000000000000000e+00 1.8049046468756160e+01 2.9246643434335118e+00 1.2131074825955208e+01 
149 1 2 5.8028412924214567e-01 -1.6745567557771316e+07 1.0000000000000000e+00 1.8049046468756160e+01 2.9246643434335118e+00 1.2131074825955208e+01 
154 1 2 5.8028412924214567e-01 -1.4946227668034485e+07 1.0000000000000000e+00 1.8049046468756156e+01 2.9246643434335118e+00 1.2131074825955208e+01 
155 1 2 5.8028412924214567e-01 -1.3565186076003924e+07 1.0000000000000000e+00 1.8049046468756156e+01 2.9246643434335118e+00 1.2131074825955208e+01 
162 1 2 1.0280000000000002e+00 -2.0200931301835954e+07 1.0000000000000000e+00 1.6022116540202376e+01 8.6683643703620490e+00 1.5899701042960118e+01 
166 1 2 1.0279999999999996e+00 -1.8798308138198342e+07 1.0000000000000000e+00 1.4401906238664644e+01 8.5580401242428294e+00 1.5842195534208868e+01 
125 1 2 1.0279999999999996e+00 -1.5464236955108566e+07 1.0000000000000000e+00 1.4401906238664644e+01 8.5580401242428294e+00 1.5842195534208868e+01 
160 1 2 1.0279999999999996e+00 -1.9946970965886608e+07 1.0000000000000000e+00 1.4401906238664644e+01 8.5580401242428294e+00 1.5842195534208868e+01 
161 1 2 1.0279999999999996e+00 -1.6713313590830782e+07 1.0000000000000000e+00 1.4401906238664644e+01 8.5580401242428294e+00 1.5842195534208868e+01 
131 1 2 1.0279999999999985e+00 -1.7159577282952465e+07 1.0000000000000000e+00 1.4289431864890986e+01 9.4080332087591430e+00 1.5673330616810970e+01 
126 1 2 1.0279999999999998e+00 -1.6858499519296117e+07 1.0000000000000000e+00 1.6022116540203797e+01 8.6683643703641948e+00 1.5899701042959741e+01 
156 1 2 1.0279999999999998e+00 -1.8367283486514017e+07 1.0000000000000000e+00 1.6022116540203797e+01 8.6683643703641948e+00 1.5899701042959741e+01 
168 1 2 1.0279999999999982e+00 -2.3057975947440311e+07 1.0000000000000000e+00 1.6157667439740461e+01 8.8919825972768081e+00 1.5815644877349630e+01 
127 1 2 1.0279999999999994e+00 -1.6969857797726426e+07 1.0000000000000000e+00 1.6385954776274730e+01 1.2309596731903669e+01 2.6566260824714241e+00 
163 1 2 1.0279999999999978e+00 -2.1321048407590363e+07 1.0000000000000000e+00 1.6385954773566169e+01 1.2309596732356617e+01 2.6566260804533299e+00 
164 1 2 1.0280000000000011e+00 -1.5827639567345792e+07 1.0000000000000000e+00 1.6385954772248848e+01 1.2309596732577020e+01 2.6566260794707057e+00 
128 1 2 1.0280000000000011e+00 -2.0548610569190945e+07 1.0000000000000000e+00 1.6385954775045402e+01 1.2309596732109419e+01 2.6566260815536080e+00 
133 1 2 1.0280000000000005e+00 -1.9167848791008744e+07 1.0000000000000000e+00 1.6385959929797799e+01 1.2309596927998257e+01 2.6566179738995888e+00 
170 1 2 1.0280000000000005e+00 -1.8101988807260673e+07 1.0000000000000000e+00 1.7099933889497372e+01 1.3330284621663607e+01 3.2190712168910824e+00 
169 1 2 1.0280000000000005e+00 -1.7490751631079368e+07 1.0000000000000000e+00 1.6383602461713867e+01 1.4359676562279065e+01 2.6758042529062287e+00 
175 1 2 1.0279999999999998e+00 -1.8410128970708162e+07 1.0000000000000000e+00 1.6383602066008734e+01 1.4359676758591712e+01 2.6758076551354333e+00 
134 1 2 1.0280000000000000e+00 -2.0185726319214795e+07 1.0000000000000000e+00 1.6383585016203035e+01 1.4359676276731681e+01 2.6758260420296165e+00 
140 1 2 1.0279999999999998e+00 -1.8697902950862709e+07 1.0000000000000000e+00 1.6383592123501600e+01 1.4359676305210641e+01 2.6758159027937842e+00 
176 1 2 1.0279999999999998e+00 -1.8083830315655347e+07 1.0000000000000000e+00 1.6383604790219685e+01 1.4359677575186506e+01 2.6758153261654058e+00 
99 1 2 1.0279999999999991e+00 -1.3489934431016359e+07 1.0000000000000000e+00 1.9679034790768988e+01 1.9547051188341189e+01 7.0539020916309019e+00 
100 1 2 1.0280000000000000e+00 -2.1718310106357872e+07 1.0000000000000000e+00 1.9676837859175563e+01 1.9532969877763552e+01 7.0361277320687874e+00 
141 1 2 1.0280000000000000e+00 -2.7489492140921839e+07 1.0000000000000000e+00 1.9515231778031065e+01 1.7840992843709607e+01 8.3224100873240960e+00 
142 1 2 1.0280000000000000e+00 -2.5833839317390032e+07 1.0000000000000000e+00 1.9515231778031065e+01 1.7840992843709607e+01 8.3224100873240960e+00 
147 1 2 1.0280000000000002e+00 -1.9784993399592694e+07 1.0000000000000000e+00 1.8340670882799301e+01 1.8557040230271905e+01 8.0352039060926614e+00 
177 1 2 1.0279999999999998e+00 -2.1359490204638667e+07 1.0000000000000000e+00 1.9515231778031371e+01 1.7840992843708612e+01 8.3224100873223144e+00 
178 1 2 1.0279999999999998e+00 -2.6469804039311972e+07 1.0000000000000000e+00 1.9515231778030078e+01 1.7840992843708268e+01 8.3224100873226909e+00 
153 1 2 1.0279999999999994e+00 -1.8968540896320779e+07 1.0000000000000000e+00 1.8340670882799390e+01 1.8557040230270221e+01 8.0352039060927094e+00 
171 1 2 1.0280000000000005e+00 -1.9514085734438322e+07 1.0000000000000000e+00 1.9680670355218520e+01 1.9546245452559265e+01 7.0539773791487841e+00 
172 1 2 1.0280000000000002e+00 -2.0761510828947183e+07 1.0000000000000000e+00 1.9680670355216694e+01 1.9546245452562644e+01 7.0539773791516858e+00 
28 1 2 1.0279999999999994e+00 -2.6387248063479662e+07 1.0000000000000000e+00 1.9691311324305104e+01 1.9554453338638364e+01 7.0712958693595791e+00 
146 1 2 1.0279999999999991e+00 -2.0187702179812811e+07 1.0000000000000000e+00 1.8340670882799188e+01 1.8557040230271465e+01 8.0352039060920948e+00 
96 1 2 1.0282660423098202e+00 -2.1541785215682760e+07 1.0000000000000000e+00 1.5219498673598221e+01 1.3501173041627915e+01 1.1577521955949829e+01 
78 1 2 1.0282660423098202e+00 -2.3256461546106238e+07 1.0000000000000000e+00 1.5219498673598221e+01 1.3501173041627915e+01 1.1577521955949829e+01 
114 1 2 1.0282660423098202e+00 -2.3049581370743115e+07 1.0000000000000000e+00 1.5219498673598221e+01 1.3501173041627915e+01 1.1577521955949829e+01 
150 1 2 1.0282660423098202e+00 -1.8542517476817816e+07 1.0000000000000000e+00 1.5219498673598221e+01 1.3501173041627915e+01 1.1577521955949829e+01 
145 1 2 1.0282660423098202e+00 -1.8820428992567312e+07 1.0000000000000000e+00 1.5219498673598221e+01 1.3501173041627915e+01 1.1577521955949829e+01 
113 1 2 1.0282660423098202e+00 -1.4870109866410704e+07 1.0000000000000000e+00 1.5219498673598221e+01 1.3501173041627915e+01 1.1577521955949829e+01 
95 1 2 1.0281331347664930e+00 -2.1760459074915428e+07 1.0000000000000000e+00 1.6129733877888668e+01 1.4743343663989032e+01 1.2809596722281180e+01 
120 1 2 1.0281331347664930e+00 -3.2280803950012017e+07 1.0000000000000000e+00 1.6129733877888668e+01 1.4743343663989032e+01 1.2809596722281180e+01 
102 1 2 1.0281331347664930e+00 -2.7440196551916223e+07 1.0000000000000000e+00 1.6129733877888668e+01 1.4743343663989032e+01 1.2809596722281180e+01 
48 1 2 1.0261700726173972e+00 -2.4883715853810005e+07 1.0000000000000000e+00 1.6398451434783798e+01 1.5382846238353299e+01 1.2990599432858346e+01 
174 1 2 1.0279999999999989e+00 -2.2794902151926540e+07 1.0000000000000000e+00 1.5611274651863319e+01 1.0614721047445478e+01 1.4358818008582757e+01 
180 1 2 1.0280000000000009e+00 -2.0177225522300106e+07 1.0000000000000000e+00 1.5611274585474671e+01 1.0614721069383837e+01 1.4358818019645726e+01 
143 1 2 1.0279999999999996e+00 -1.4360074157098593e+07 1.0000000000000000e+00 1.5611275020464053e+01 1.0614720925797048e+01 1.4358817947352613e+01 
138 1 2 1.0279999999999996e+00 -2.2367532983459689e+07 1.0000000000000000e+00 1.5611275067036743e+01 1.0614720910462644e+01 1.4358817939660314e+01 
144 1 2 1.0280000000000022e+00 -1.3043162644080430e+07 1.0000000000000000e+00 1.5611275069528919e+01 1.0614720909640928e+01 1.4358817939247290e+01 
179 1 2 1.0280000000000014e+00 -1.7143584302594308e+07 1.0000000000000000e+00 1.5611274504576237e+01 1.0614721096171682e+01 1.4358818033193826e+01 
132 1 2 1.0285783397607877e+00 -2.0266721998695839e+07 1.0000000000000000e+00 1.7175707578157482e+01 1.6242094631320604e+01 1.4177616211072433e+01 
73 1 2 1.0285783397607855e+00 -1.5560891077343697e+07 1.0000000000000000e+00 1.7175707578157468e+01 1.6242094631320608e+01 1.4177616211072456e+01 
139 1 2 1.0285783397607855e+00 -1.1365275035080763e+07 1.0000000000000000e+00 1.7175707578157468e+01 1.6242094631320608e+01 1.4177616211072456e+01 
109 1 2 1.0285783397607855e+00 -1.3954035069268124e+07 1.0000000000000000e+00 1.7175707578157468e+01 1.6242094631320608e+01 1.4177616211072456e+01 
110 1 2 1.0285783397607855e+00 -1.6768523936293347e+07 1.0000000000000000e+00 1.7175707578157468e+01 1.6242094631320608e+01 1.4177616211072456e+01 
77 1 2 1.0285783397607877e+00 -1.4631033857320001e+07 1.0000000000000000e+00 1.7175707578157482e+01 1.6242094631320604e+01 1.4177616211072433e+01 

Velocities

1 0.0000000000000000e+00 0.0000000000000000e+00 0.0000000000000000e+00
7 0.0000000000000000e+00 0.0000000000000000e+00 0.0000000000000000e+00
13 0.0000000000000000e+00 0.0000000000000000e+00 0.0000000000000000e+00
43 0.0000000000000000e+00 0.0000000000000000e+00 0.0000000000000000e+00
49 0.0000000000000000e+00 0.0000000000000000e+00 0.0000000000000000e+00
56 1.3339772437713657e-322 -1.3339772437713657e-322 1.3339772437713657e-322
50 1.3339772437713657e-322 -1.3339772437713657e-322 1.3339772437713657e-322
15 1.3339772437713657e-322 -1.3339772437713657e-322 1.3339772437713657e-322
14 1.3339772437713657e-322 -1.3339772437713657e-322 1.3339772437713657e-322
4 0.0000000000000000e+00 0.0000000000000000e+00 0.0000000000000000e+00
5 0.0000000000000000e+00 0.0000000000000000e+00 0.0000000000000000e+00
40 0.0000000000000000e+00 0.0000000000000000e+00 0.0000000000000000e+00
41 0.0000000000000000e+00 0.0000000000000000e+00 0.0000000000000000e+00
52 1.3339772437713657e-322 -1.3339772437713657e-322 -1.3339772437713657e-322
45 1.3339772437713657e-322 -1.3339772437713657e-322 -1.3339772437713657e-322
51 1.3339772437713657e-322 -1.3339772437713657e-322 -1.3339772437713657e-322
16 1.3339772437713657e-322 -1.3339772437713657e-322 -1.3339772437713657e-322
46 1.3339772437713657e-322 -1.3339772437713657e-322 -1.3339772437713657e-322
17 -1.3339772437713657e-322 1.3339772437713657e-322 1.3339772437713657e-322
18 -1.3339772437713657e-322 1.3339772437713657e-322 1.3339772437713657e-322
12 -1.3339772437713657e-322 1.3339772437713657e-322 1.3339772437713657e-322
24 -1.3339772437713657e-322 1.3339772437713657e-322 1.3339772437713657e-322
23 -1.3339772437713657e-322 1.3339772437713657e-322 1.3339772437713657e-322
53 -1.3339772437713657e-322 1.3339772437713657e-322 1.3339772437713657e-322
54 -1.3339772437713657e-322 1.3339772437713657e-322 1.3339772437713657e-322
25 1.3339772437713657e-322 1.3339772437713657e-322 -1.3339772437713657e-322
26 1.3339772437713657e-322 1.3339772437713657e-322 -1.3339772437713657e-322
55 1.3339772437713657e-322 1.3339772437713657e-322 -1.3339772437713657e-322
20 1.3339772437713657e-322 1.3339772437713657e-322 -1.3339772437713657e-322
19 -1.3339772437713657e-322 1.3339772437713657e-322 -1.3339772437713657e-322
31 0.0000000000000000e+00 0.0000000000000000e+00 0.0000000000000000e+00
32 0.0000000000000000e+00 0.0000000000000000e+00 0.0000000000000000e+00
2 0.0000000000000000e+00 0.0000000000000000e+00 0.0000000000000000e+00
67 0.0000000000000000e+00 0.0000000000000000e+00 0.0000000000000000e+00
68 0.0000000000000000e+00 0.0000000000000000e+00 0.0000000000000000e+00
39 0.0000000000000000e+00 0.0000000000000000e+00 0.0000000000000000e+00
33 0.0000000000000000e+00 0.0000000000000000e+00 0.0000000000000000e+00
69 0.0000000000000000e+00 0.0000000000000000e+00 0.0000000000000000e+00
59 -1.4282419954479790e-12 -6.0902110297059823e-13 -1.8622873441724509e-13
65 -1.4282419954479790e-12 -6.0902110297059823e-13 -1.8622873441724509e-13
101 -1.4282419954479790e-12 -6.0902110297059823e-13 -1.8622873441724509e-13
64 -1.4282419954479790e-12 -6.0902110297059823e-13 -1.8622873441724509e-13