LAMMPS data file via write_data, version 30 Jul 2016, timestep = 50000000

180 atoms
2 atom types

0.0000000000000000e+00 2.0000000000000000e+01 xlo xhi
0.0000000000000000e+00 2.0000000000000000e+01 ylo yhi
0.0000000000000000e+00 2.0000000000000000e+01 zlo zhi

Masses

1 3.896
2 4.31

Atoms # meso-molecular

5 1 2 4.4565821125796801e-01 -5.1792335347202823e+02 1.0000000000000000e+00 5.5695159532573371e+00 8.4922411870886905e-01 1.6331778026761576e+01 
42 1 2 4.4565821125796801e-01 -4.0581272238865051e+02 1.0000000000000000e+00 5.5695159532573371e+00 8.4922411870886716e-01 1.6331778026761576e+01 
41 1 2 4.4565821125796801e-01 -3.8361914220384114e+02 1.0000000000000000e+00 5.5695159532573371e+00 8.4922411870886716e-01 1.6331778026761576e+01 
12 1 2 4.4565821125796801e-01 -6.4281972759903863e+02 1.0000000000000000e+00 5.5695159532573317e+00 8.4922411870886905e-01 1.6331778026761590e+01 
6 1 2 4.4565821125796801e-01 -5.8826697889623654e+02 1.0000000000000000e+00 5.5695159532573317e+00 8.4922411870886805e-01 1.6331778026761590e+01 
1 1 2 4.4565821125796801e-01 -5.3127368341708871e+02 1.0000000000000000e+00 5.5695159532573317e+00 8.4922411870886905e-01 1.6331778026761590e+01 
34 1 2 3.7138184271497332e-01 -4.2741166930517568e+02 1.0000000000000000e+00 5.8554392414212160e+00 1.8851560791099512e+01 7.8585172723058498e+00 
3 1 2 3.7138184271497332e-01 -4.2030011824662040e+02 1.0000000000000000e+00 5.8554392414212160e+00 1.8851560791099512e+01 7.8585172723058694e+00 
33 1 2 3.7138184271497332e-01 -5.3546221248690506e+02 1.0000000000000000e+00 5.8554392414212160e+00 1.8851560791099608e+01 7.8585172723058552e+00 
2 1 2 3.7138184271497332e-01 -5.0867781463106076e+02 1.0000000000000000e+00 5.8554392414212160e+00 1.8851560791099576e+01 7.8585172723058694e+00 
4 1 2 3.7138184271497332e-01 -4.9250966626927186e+02 1.0000000000000000e+00 5.8554392414212160e+00 1.8851560791099608e+01 7.8585172723058552e+00 
11 1 2 1.0280000000000058e+00 -4.4654477381552402e+02 1.0000000000000000e+00 7.5519217154235561e+00 4.2164857685773747e+00 9.9624857359168768e+00 
52 1 2 1.0279999999999840e+00 -4.5985345462106864e+02 1.0000000000000000e+00 7.5521104884039216e+00 4.2168528001791810e+00 9.9622797864870840e+00 
59 1 2 1.0280000000000049e+00 -3.4696555448302541e+02 1.0000000000000000e+00 7.5519063982762971e+00 4.2175713510462636e+00 9.9619325392636835e+00 
16 1 2 1.0280000000000040e+00 -4.7271515410551029e+02 1.0000000000000000e+00 7.5720059131060014e+00 4.2076953238904107e+00 9.9653955719803555e+00 
48 1 2 1.0280000000000058e+00 -4.9151406775634672e+02 1.0000000000000000e+00 7.5500781267875130e+00 4.2176164427366354e+00 9.9620881569770141e+00 
47 1 2 1.0280000000000051e+00 -4.5856145930579100e+02 1.0000000000000000e+00 7.5509197929575596e+00 4.2171044857412676e+00 9.9622666514561224e+00 
53 1 2 1.0280000000000047e+00 -4.6793836409632644e+02 1.0000000000000000e+00 7.5510347911842404e+00 4.2173923768396326e+00 9.9621084061639955e+00 
17 1 2 1.0279999999999836e+00 -5.2142132756231229e+02 1.0000000000000000e+00 7.5511569226281559e+00 4.2173580769136674e+00 9.9621139964946348e+00 
39 1 2 1.0279999999999954e+00 -4.4395260703621227e+02 1.0000000000000000e+00 7.5038480351813970e+00 5.2668493115163626e+00 1.1776886110502652e+01 
82 1 2 1.0279999999999800e+00 -3.7369442022914438e+02 1.0000000000000000e+00 7.5038815820953566e+00 5.2668226501905631e+00 1.1776907339081326e+01 
46 1 2 1.0280000000000227e+00 -4.6736943373459457e+02 1.0000000000000000e+00 7.5037634477890602e+00 5.2669022889336681e+00 1.1776841608652855e+01 
75 1 2 1.0279999999999883e+00 -3.5838954308951713e+02 1.0000000000000000e+00 7.5038745229130202e+00 5.2668335572032356e+00 1.1776899512402817e+01 
10 1 2 1.0279999999999943e+00 -5.4441942410286981e+02 1.0000000000000000e+00 8.0836947459761070e+00 4.0787407474613540e+00 1.0252425995745220e+01 
76 1 2 1.0280000000000189e+00 -4.1010479301970020e+02 1.0000000000000000e+00 7.5038973546265408e+00 5.2668333137326311e+00 1.1776902603603213e+01 
40 1 2 1.0280000000000160e+00 -5.0316026430567098e+02 1.0000000000000000e+00 7.5038074200371376e+00 5.2668967805405895e+00 1.1776850766807451e+01 
81 1 2 1.0279999999999725e+00 -4.2510290821980664e+02 1.0000000000000000e+00 7.5038659420338982e+00 5.2668321506597726e+00 1.1776899300691687e+01 
45 1 2 1.0280000000000022e+00 -4.3817914943384966e+02 1.0000000000000000e+00 7.5034539945532064e+00 5.2669887922028042e+00 1.1776746772789675e+01 
15 1 2 1.0280000000000118e+00 -5.8012774058164348e+02 1.0000000000000000e+00 8.4255675805561854e+00 4.3041786270494855e+00 1.0945906441246368e+01 
9 1 2 1.0280000000000036e+00 -4.5746792728135790e+02 1.0000000000000000e+00 7.5037851052162905e+00 5.2669395000217767e+00 1.1776820786491225e+01 
56 1 2 1.0277646509955130e+00 -3.3811138505836357e+02 1.0000000000000000e+00 1.0723556874330683e+01 1.7507810921102919e+01 2.3505746129673311e+00 
61 1 2 1.0277646509955130e+00 -3.6273182247723605e+02 1.0000000000000000e+00 1.0723556874330683e+01 1.7507810921102919e+01 2.3505746129673311e+00 
67 1 2 1.0277646509955130e+00 -5.9002722326057199e+02 1.0000000000000000e+00 1.0723556874330683e+01 1.7507810921102919e+01 2.3505746129673311e+00 
97 1 2 1.0277646509955130e+00 -5.1924822869113063e+02 1.0000000000000000e+00 1.0723556874330683e+01 1.7507810921102919e+01 2.3505746129673311e+00 
31 1 2 1.0277646509955130e+00 -6.3054303393912676e+02 1.0000000000000000e+00 1.0723556874330683e+01 1.7507810921102919e+01 2.3505746129673311e+00 
103 1 2 1.0277646509955130e+00 -6.0555009637228807e+02 1.0000000000000000e+00 1.0723556874330683e+01 1.7507810921102919e+01 2.3505746129673311e+00 
25 1 2 1.0277646509955130e+00 -4.6138300665865938e+02 1.0000000000000000e+00 1.0723556874330683e+01 1.7507810921102919e+01 2.3505746129673311e+00 
68 1 2 1.0277646509955130e+00 -3.7415799078189980e+02 1.0000000000000000e+00 1.0723556874330683e+01 1.7507810921102919e+01 2.3505746129673311e+00 
32 1 2 1.0277646509955130e+00 -5.1573629980092198e+02 1.0000000000000000e+00 1.0723556874330683e+01 1.7507810921102919e+01 2.3505746129673311e+00 
26 1 2 1.0277646509955130e+00 -4.6194810863989653e+02 1.0000000000000000e+00 1.0723556874330683e+01 1.7507810921102919e+01 2.3505746129673311e+00 
20 1 2 1.0277646509955130e+00 -3.7386942704904590e+02 1.0000000000000000e+00 1.0723556874330683e+01 1.7507810921102919e+01 2.3505746129673311e+00 
62 1 2 1.0277646509955130e+00 -3.8873910429427093e+02 1.0000000000000000e+00 1.0723556874330683e+01 1.7507810921102919e+01 2.3505746129673311e+00 
7 1 2 1.0277646468527268e+00 -5.6263107062697554e+02 1.0000000000000000e+00 1.0723578110669886e+01 1.7507744629986451e+01 2.3505557197731148e+00 
92 1 2 1.0281064446760002e+00 -3.5454523128897097e+02 1.0000000000000000e+00 1.3261418895184534e+01 1.2880776283534257e+01 6.2304709105280613e+00 
98 1 2 1.0239558094873484e+00 -4.3501025400309646e+02 1.0000000000000000e+00 1.3270681925617431e+01 1.3278774007575377e+01 6.5725309242280172e+00 
14 1 2 1.0278364984187700e+00 -4.9131832380034939e+02 1.0000000000000000e+00 1.1011043012156174e+01 1.6543022900491888e+01 4.5952795057717353e+00 
43 1 2 1.0278399036527501e+00 -5.6016899503161778e+02 1.0000000000000000e+00 1.1012368625058263e+01 1.6540387198986132e+01 4.5988421197307332e+00 
19 1 2 1.0285899608869222e+00 -4.0609566797391614e+02 1.0000000000000000e+00 1.1153511772290441e+01 1.5376222933620932e+01 6.0140315506082036e+00 
55 1 2 1.0285896576042239e+00 -3.3748013233174106e+02 1.0000000000000000e+00 1.1158861645852621e+01 1.5362319779729011e+01 6.0295566278042827e+00 
13 1 2 1.0285614300690953e+00 -5.5364611870758756e+02 1.0000000000000000e+00 1.1224951418745427e+01 1.5225936894787374e+01 6.1780563183022723e+00 
50 1 2 1.0273797783820324e+00 -5.2921689361789072e+02 1.0000000000000000e+00 1.1378853997783102e+01 1.7457047936141535e+01 6.5959094344072104e+00 
8 1 2 1.0275389772510650e+00 -6.3597387424902513e+02 1.0000000000000000e+00 1.1545590339223891e+01 1.7616187328140864e+01 6.1900994857931186e+00 
74 1 2 1.0275326925939772e+00 -3.7412933604366413e+02 1.0000000000000000e+00 1.1542801737385682e+01 1.7610912723547152e+01 6.2154639375706218e+00 
111 1 2 1.0275326925939772e+00 -4.3006905444718439e+02 1.0000000000000000e+00 1.1542801737385682e+01 1.7610912723547152e+01 6.2154639375706218e+00 
110 1 2 1.0275326925939772e+00 -4.4505292216947760e+02 1.0000000000000000e+00 1.1542801737385682e+01 1.7610912723547152e+01 6.2154639375706218e+00 
37 1 2 1.0275326925939772e+00 -5.6679438205577628e+02 1.0000000000000000e+00 1.1542801737385682e+01 1.7610912723547152e+01 6.2154639375706218e+00 
38 1 2 1.0275326925939772e+00 -4.3418657280067538e+02 1.0000000000000000e+00 1.1542801737385682e+01 1.7610912723547152e+01 6.2154639375706218e+00 
73 1 2 1.0275326925939772e+00 -5.3709867140182996e+02 1.0000000000000000e+00 1.1542801737385682e+01 1.7610912723547152e+01 6.2154639375706218e+00 
80 1 2 1.0275326925939772e+00 -4.0589579115737592e+02 1.0000000000000000e+00 1.1542801737385682e+01 1.7610912723547152e+01 6.2154639375706218e+00 
94 1 2 1.0280000007059573e+00 -3.7483165034983239e+02 1.0000000000000000e+00 8.8090444915324682e+00 1.0631183149911820e+01 8.8870337246436772e+00 
88 1 2 1.0280000007059573e+00 -3.4659858385594941e+02 1.0000000000000000e+00 8.8090445034730802e+00 1.0631183156819716e+01 8.8870336813134347e+00 
64 1 2 1.0279999992769224e+00 -5.1259451680900827e+02 1.0000000000000000e+00 8.1674326870247747e+00 1.1721548636513372e+01 8.5109813081390495e+00 
21 1 2 1.0279999991434969e+00 -4.9281421750087236e+02 1.0000000000000000e+00 8.1686056853854545e+00 1.1721563253214567e+01 8.5102752785860041e+00 
23 1 2 1.0280000004660970e+00 -3.6875192135115412e+02 1.0000000000000000e+00 8.5127586968714404e+00 1.0589206048908007e+01 9.1968070158652946e+00 
27 1 2 1.0279999993491165e+00 -5.0173832557769265e+02 1.0000000000000000e+00 8.1667518132124712e+00 1.1721867718266537e+01 8.5119798139710401e+00 
28 1 2 1.0280000000616314e+00 -4.9626803076500681e+02 1.0000000000000000e+00 8.0455712126072463e+00 1.0894049154054564e+01 9.3515380165208022e+00 
22 1 2 1.0280000001220797e+00 -4.0590377337305705e+02 1.0000000000000000e+00 8.1180728808064480e+00 1.0816268002048204e+01 9.3523932032747279e+00 
58 1 2 1.0280000000652196e+00 -4.3757968111348805e+02 1.0000000000000000e+00 8.0484028219729389e+00 1.0887529225056999e+01 9.3503266730241901e+00 
87 1 2 1.0280000007059573e+00 -3.0712856670944592e+02 1.0000000000000000e+00 8.8090445233135419e+00 1.0631183170049839e+01 8.8870336306257833e+00 
57 1 2 1.0279999992240063e+00 -3.9320630849889437e+02 1.0000000000000000e+00 8.1678821559980594e+00 1.1721622757485534e+01 8.5108321582234598e+00 
93 1 2 1.0280000007059573e+00 -3.4491751213116680e+02 1.0000000000000000e+00 8.8090444936434746e+00 1.0631183147201135e+01 8.8870336691584289e+00 
51 1 2 1.0280000007059575e+00 -3.8715891222004893e+02 1.0000000000000000e+00 8.8090444870919971e+00 1.0631183141019052e+01 8.8870336638393308e+00 
63 1 2 1.0279999993419695e+00 -4.4175359410432816e+02 1.0000000000000000e+00 8.1668333209868749e+00 1.1721616682605767e+01 8.5114793911714433e+00 
69 1 2 1.0279999993875661e+00 -3.9960577535089993e+02 1.0000000000000000e+00 8.1663454275792482e+00 1.1721593379961826e+01 8.5117455949950092e+00 
70 1 2 1.0279999993781270e+00 -4.7392632415130606e+02 1.0000000000000000e+00 8.1664402270601624e+00 1.1721447873283694e+01 8.5114256943902458e+00 
60 1 2 1.0275576742868848e+00 -4.4919117997073897e+02 1.0000000000000000e+00 1.1415774938787630e+01 1.5069245375570159e+01 6.7160485967173820e+00 
49 1 2 1.0270471282421105e+00 -4.8146961645910596e+02 1.0000000000000000e+00 1.1532567556075362e+01 1.5128004156718820e+01 6.9094710446729257e+00 
54 1 2 1.0270396506263417e+00 -4.3426772536400705e+02 1.0000000000000000e+00 1.1503582440524795e+01 1.5202399626846622e+01 6.9400833239247017e+00 
24 1 2 1.0270475635093539e+00 -5.1829515596581075e+02 1.0000000000000000e+00 1.1496222063777944e+01 1.5212371286436461e+01 6.9412822446006821e+00 
18 1 2 1.0269574677749580e+00 -6.3121991702016487e+02 1.0000000000000000e+00 1.1520241896900785e+01 1.5324157089873559e+01 7.0201427007862192e+00 
44 1 2 1.0275166220673608e+00 -4.5100496294607473e+02 1.0000000000000000e+00 1.1467320105367916e+01 1.7322292854856070e+01 6.7673758648013571e+00 
149 1 2 1.0279999999999978e+00 -5.2009647751706507e+02 1.0000000000000000e+00 1.2933101043087259e+01 1.8758324396627934e+01 1.1583169149033852e+01 
112 1 2 1.0280000000000695e+00 -5.6330199011220282e+02 1.0000000000000000e+00 1.2933336671666488e+01 1.8757350124519014e+01 1.1584056571540936e+01 
147 1 2 1.0280000000000427e+00 -4.3433381786871115e+02 1.0000000000000000e+00 1.2933773829827180e+01 1.8756969834519264e+01 1.1583898462668216e+01 
148 1 2 1.0280000000000649e+00 -4.6440178248460091e+02 1.0000000000000000e+00 1.2933901762726197e+01 1.8756872406019816e+01 1.1583834879941600e+01 
178 1 2 1.0280000000000054e+00 -5.4266755768777796e+02 1.0000000000000000e+00 1.2934282988360879e+01 1.8756222936998551e+01 1.1584103501861133e+01 
179 1 2 1.0279999999999807e+00 -5.3973884038407539e+02 1.0000000000000000e+00 1.2938138757356917e+01 1.8746636529120000e+01 1.1591029261666556e+01 
143 1 2 1.0280000000000449e+00 -3.9605762176379665e+02 1.0000000000000000e+00 1.3114263759496442e+01 1.9445931728166830e+01 1.1562690241002677e+01 
150 1 2 1.0279999999999692e+00 -3.8551677531323537e+02 1.0000000000000000e+00 1.3243568366415836e+01 1.9491716982548176e+01 1.2048741213287856e+01 
65 1 2 5.9421094834395738e-01 -3.7146471721306989e+02 1.0000000000000000e+00 6.6829191093537581e+00 1.5646641741266290e+01 1.5656247990722898e+01 
71 1 2 5.9421094834395738e-01 -5.0921356084923525e+02 1.0000000000000000e+00 6.6829191093537581e+00 1.5646641741266230e+01 1.5656247990722898e+01 
66 1 2 5.9421094834395738e-01 -5.7586916382582933e+02 1.0000000000000000e+00 6.6829191093537581e+00 1.5646641741266290e+01 1.5656247990722898e+01 
29 1 2 5.9421094834395738e-01 -4.0616493437639389e+02 1.0000000000000000e+00 6.6829191093537581e+00 1.5646641741266290e+01 1.5656247990722898e+01 
72 1 2 5.9421094834395738e-01 -3.9875076689463845e+02 1.0000000000000000e+00 6.6829191093537590e+00 1.5646641741266290e+01 1.5656247990722898e+01 
30 1 2 5.9421094834395738e-01 -5.5958468032273515e+02 1.0000000000000000e+00 6.6829191093537572e+00 1.5646641741266290e+01 1.5656247990722900e+01 
36 1 2 5.9421094834395738e-01 -4.4453705101615202e+02 1.0000000000000000e+00 6.6829191093537412e+00 1.5646641741266290e+01 1.5656247990722955e+01 
35 1 2 5.9421094834395738e-01 -4.6457235375287462e+02 1.0000000000000000e+00 6.6829191093537412e+00 1.5646641741266290e+01 1.5656247990722898e+01 
146 1 2 2.9710547417197863e-01 -4.7266966198475865e+02 1.0000000000000000e+00 1.7224958368842863e+01 3.5455919105260434e+00 3.3279962670282845e+00 
116 1 2 2.9710547417197863e-01 -4.8655081685685997e+02 1.0000000000000000e+00 1.7224958368842863e+01 3.5455919105260434e+00 3.3279962670282921e+00 
151 1 2 2.9710547417197863e-01 -5.2680037312799197e+02 1.0000000000000000e+00 1.7224958368842834e+01 3.5455919105260421e+00 3.3279962670282819e+00 
152 1 2 2.9710547417197863e-01 -3.6397021881682792e+02 1.0000000000000000e+00 1.7224958368842859e+01 3.5455919105260438e+00 3.3279962670282903e+00 
121 1 2 8.2864228817070928e-01 -5.3710048912978698e+02 1.0000000000000000e+00 1.4024433050619569e+01 9.0276792464024140e+00 1.4931812041173613e+00 
122 1 2 8.2864228817070928e-01 -6.1810119085251392e+02 1.0000000000000000e+00 1.4024433050619569e+01 9.0276792464024140e+00 1.4931812041173613e+00 
157 1 2 8.2864228817070928e-01 -5.1576755693102916e+02 1.0000000000000000e+00 1.4024433050619569e+01 9.0276792464024140e+00 1.4931812041173613e+00 
127 1 2 8.2864228817070928e-01 -4.9677451299254449e+02 1.0000000000000000e+00 1.4024433050619569e+01 9.0276792464024140e+00 1.4931812041173613e+00 
163 1 2 8.2864228817070928e-01 -4.2657917790818919e+02 1.0000000000000000e+00 1.4024433050619569e+01 9.0276792464024140e+00 1.4931812041173613e+00 
91 1 2 8.2864228817070928e-01 -4.1702018681718522e+02 1.0000000000000000e+00 1.4024433050619569e+01 9.0276792464024140e+00 1.4931812041173613e+00 
132 1 2 8.2864228817070928e-01 -4.2055134643947957e+02 1.0000000000000000e+00 1.4024433050619569e+01 9.0276792464024140e+00 1.4931812041173613e+00 
115 1 2 8.2864228817070928e-01 -5.9147716715006811e+02 1.0000000000000000e+00 1.4024433050619569e+01 9.0276792464024140e+00 1.4931812041173613e+00 
85 1 2 8.2864228817070928e-01 -5.0266531454227311e+02 1.0000000000000000e+00 1.4024433050619569e+01 9.0276792464024140e+00 1.4931812041173613e+00 
86 1 2 8.2864228817070928e-01 -4.9746707153504940e+02 1.0000000000000000e+00 1.4024433050619569e+01 9.0276792464024140e+00 1.4931812041173613e+00 
79 1 2 8.2864228817070928e-01 -4.6851915438929308e+02 1.0000000000000000e+00 1.4024433050619569e+01 9.0276792464024140e+00 1.4931812041173613e+00 
153 1 2 1.0279999999999814e+00 -4.5546896133796093e+02 1.0000000000000000e+00 1.5443241226869294e+01 6.0024845535454272e+00 1.1579271244620779e+01 
117 1 2 1.0280000000000189e+00 -5.1649233055432580e+02 1.0000000000000000e+00 1.5443230118268131e+01 6.0025135806157914e+00 1.1579254354547087e+01 
118 1 2 1.0279999999999996e+00 -4.5112542921439695e+02 1.0000000000000000e+00 1.5443236185427207e+01 6.0025616864397380e+00 1.1579234491888167e+01 
154 1 2 1.0280000000000167e+00 -5.1452099467403059e+02 1.0000000000000000e+00 1.5443274928103248e+01 6.0025591919676051e+00 1.1579248488138802e+01 
123 1 2 1.0279999999999649e+00 -4.9244737064343741e+02 1.0000000000000000e+00 1.5443227222479241e+01 6.0025687268490335e+00 1.1579228315347082e+01 
124 1 2 1.0280000000000116e+00 -5.0676103056638340e+02 1.0000000000000000e+00 1.5443670404449673e+01 6.0031468682016991e+00 1.1579112944586109e+01 
130 1 2 1.0279999999999987e+00 -4.4540201760478396e+02 1.0000000000000000e+00 1.5445254637304272e+01 6.0051791471326483e+00 1.1578722643097965e+01 
160 1 2 1.0279999999999694e+00 -5.2782928852741350e+02 1.0000000000000000e+00 1.5445310547320975e+01 6.0051707469499780e+00 1.1578745145592237e+01 
166 1 2 1.0280000000000029e+00 -4.9698259109387544e+02 1.0000000000000000e+00 1.5445430123408967e+01 6.0053230950019181e+00 1.1578716574693654e+01 
167 1 2 1.0279999999999752e+00 -5.0358860809056932e+02 1.0000000000000000e+00 1.5445567115078962e+01 6.0054734721756491e+00 1.1578694785263034e+01 
161 1 2 1.0280000000000136e+00 -4.0390789685429752e+02 1.0000000000000000e+00 1.5455086244508504e+01 6.0175147763315353e+00 1.1576644894256189e+01 
119 1 2 1.0280000000000054e+00 -3.7746470157925620e+02 1.0000000000000000e+00 1.4357943421254138e+01 6.5176509715906858e+00 1.4118755125448804e+01 
120 1 2 1.0280000000000173e+00 -3.9034479489775316e+02 1.0000000000000000e+00 1.4357223556112471e+01 6.6598478897531184e+00 1.4162816245478433e+01 
83 1 2 1.0280000000000198e+00 -3.5719795724504752e+02 1.0000000000000000e+00 1.4314693346683391e+01 6.5091643179984224e+00 1.4083858770509401e+01 
84 1 2 1.0280000000000113e+00 -4.0974743638977583e+02 1.0000000000000000e+00 1.4315099907785445e+01 6.5658972842498455e+00 1.4106257842538744e+01 
77 1 2 1.0279999999999967e+00 -3.3628626221871167e+02 1.0000000000000000e+00 1.4311789473173516e+01 6.4774073226702242e+00 1.4067287519237745e+01 
156 1 2 1.0280000000000045e+00 -5.7098363480766204e+02 1.0000000000000000e+00 1.5108013862999197e+01 6.8927995215305629e+00 1.4266363816853552e+01 
155 1 2 1.0279999999999994e+00 -6.0012493025734818e+02 1.0000000000000000e+00 1.5140686634224375e+01 6.9507145424782752e+00 1.4247910959743923e+01 
162 1 2 1.0280000000000074e+00 -5.8545149417546156e+02 1.0000000000000000e+00 1.5164571593300453e+01 7.0123752137086637e+00 1.4226590608877997e+01 
125 1 2 1.0280000000000007e+00 -2.9112510896202684e+02 1.0000000000000000e+00 1.4664087342507804e+01 7.6570632639347593e+00 1.3720272531850163e+01 
90 1 2 1.0280000000000074e+00 -2.8536329397593880e+02 1.0000000000000000e+00 1.4651063712569350e+01 7.6643370043534889e+00 1.3692929873549510e+01 
89 1 2 1.0279999999999911e+00 -3.1313272756689526e+02 1.0000000000000000e+00 1.4664647523141884e+01 7.6738684762357927e+00 1.3674458433142458e+01 
126 1 2 1.0280000000000025e+00 -2.9226996490471458e+02 1.0000000000000000e+00 1.4673254507493654e+01 7.6766093391846510e+00 1.3671768985931411e+01 
131 1 2 1.0279999999999971e+00 -3.7702148520597427e+02 1.0000000000000000e+00 1.4721727743364596e+01 7.7074358448556683e+00 1.3598221244256903e+01 
139 1 2 2.9710547417197863e-01 -3.4921007167323501e+02 1.0000000000000000e+00 1.6551961622293536e+01 1.8919764425823079e+01 1.5906603864671043e-01 
109 1 2 2.9710547417197863e-01 -3.6516246806411601e+02 1.0000000000000000e+00 1.6551961622293568e+01 1.8919764425823050e+01 1.5906603864671068e-01 
145 1 2 2.9710547417197863e-01 -2.8678652316367595e+02 1.0000000000000000e+00 1.6551961622293568e+01 1.8919764425823050e+01 1.5906603864671068e-01 
175 1 2 2.9710547417197863e-01 -2.8608425309263441e+02 1.0000000000000000e+00 1.6551961622293536e+01 1.8919764425823079e+01 1.5906603864671043e-01 
128 1 2 1.0062206275088763e+00 -5.0443333145746254e+02 1.0000000000000000e+00 1.4685085327811203e+01 1.1547480429830033e+01 4.2877434671726746e+00 
129 1 2 1.0225378362067150e+00 -3.9452193110756582e+02 1.0000000000000000e+00 1.4910417256916528e+01 1.1546290193545911e+01 4.5712673804320607e+00 
170 1 2 1.0200867211142868e+00 -4.7836662380071505e+02 1.0000000000000000e+00 1.4960865396299354e+01 1.1718787341399670e+01 4.3308693841673849e+00 
133 1 2 1.0073219636617967e+00 -5.0965843677019973e+02 1.0000000000000000e+00 1.4726340401175783e+01 1.1615695353586515e+01 4.2304556904996060e+00 
164 1 2 1.0226168697720952e+00 -3.6167455735740464e+02 1.0000000000000000e+00 1.4932305021156575e+01 1.1561990275354372e+01 4.5572310136442908e+00 
165 1 2 1.0227852338573373e+00 -4.4508595224431349e+02 1.0000000000000000e+00 1.4934352475350941e+01 1.1562269413567035e+01 4.5621164482419525e+00 
159 1 2 1.0227776339598906e+00 -3.3475068272174281e+02 1.0000000000000000e+00 1.4933935025741270e+01 1.1561995937314141e+01 4.5621641355583833e+00 
158 1 2 1.0227501184727636e+00 -3.5345008215080662e+02 1.0000000000000000e+00 1.4933813019456771e+01 1.1562120247097626e+01 4.5611837593653268e+00 
134 1 2 1.0220840375008644e+00 -5.0924046059913121e+02 1.0000000000000000e+00 1.4919549641552935e+01 1.1860356228476729e+01 4.2435592092938004e+00 
169 1 2 1.0280896908263870e+00 -5.2447587530385772e+02 1.0000000000000000e+00 1.5085830344641701e+01 1.2027255053575866e+01 4.3469718541100857e+00 
176 1 2 1.0282170634609775e+00 -4.3804358464367499e+02 1.0000000000000000e+00 1.5019976005507441e+01 1.2648828754349349e+01 4.4859316239362403e+00 
171 1 2 1.0233888417306294e+00 -6.4825417312591230e+02 1.0000000000000000e+00 1.5164924626871029e+01 1.2827566597304877e+01 4.8547205874013946e+00 
177 1 2 1.0235119355691575e+00 -6.2821310844591994e+02 1.0000000000000000e+00 1.5145815446105930e+01 1.2848144915483223e+01 4.8488934123748448e+00 
140 1 2 1.0206602810775536e+00 -4.9045199153355151e+02 1.0000000000000000e+00 1.3570876320566278e+01 1.3535703955099638e+01 6.6431023779658220e+00 
104 1 2 1.0206212745549312e+00 -4.1933224650788765e+02 1.0000000000000000e+00 1.3593976730764521e+01 1.3506413460472659e+01 6.6430022840293566e+00 
106 1 2 1.0205960184563738e+00 -3.5579919012623833e+02 1.0000000000000000e+00 1.3611481759326319e+01 1.3483546790845232e+01 6.6427110387957571e+00 
100 1 2 1.0205958007264693e+00 -3.8059597628444379e+02 1.0000000000000000e+00 1.3611938049820020e+01 1.3482577176769071e+01 6.6427530983424896e+00 
105 1 2 1.0206036588236582e+00 -4.4667074441591399e+02 1.0000000000000000e+00 1.3605703651764436e+01 1.3491409074728658e+01 6.6427927596445260e+00 
141 1 2 1.0206004023833510e+00 -4.9640918887798210e+02 1.0000000000000000e+00 1.3607978075155533e+01 1.3488512389365519e+01 6.6427355817685898e+00 
99 1 2 1.0208075855897403e+00 -4.8942056264329801e+02 1.0000000000000000e+00 1.3545713079811991e+01 1.3482216663360060e+01 6.6544350234867817e+00 
135 1 2 1.0212229158733692e+00 -4.5988778274455598e+02 1.0000000000000000e+00 1.3475928718226534e+01 1.3446810991683275e+01 6.6606062422494254e+00 
113 1 2 1.0280000000000358e+00 -3.7464733243309757e+02 1.0000000000000000e+00 1.3526074341614251e+01 1.9303921116130304e+01 1.1472031173760012e+01 
107 1 2 1.0279999999999418e+00 -3.9806266882858961e+02 1.0000000000000000e+00 1.3681808183089910e+01 1.9332729983311125e+01 1.1743850913013821e+01 
108 1 2 1.0280000000000056e+00 -3.7204840487664802e+02 1.0000000000000000e+00 1.3668018428618621e+01 1.9199718239750101e+01 1.2096276506598812e+01 
180 1 2 1.0279999999999363e+00 -6.3604077881513558e+02 1.0000000000000000e+00 1.3627239186318565e+01 1.9207566399124701e+01 1.2142859105364979e+01 
78 1 2 1.0279999999999971e+00 -5.5425136948942293e+02 1.0000000000000000e+00 1.3593183196574072e+01 1.9180227395159765e+01 1.2186586100611665e+01 
144 1 2 1.0279999999999787e+00 -4.6626924434041211e+02 1.0000000000000000e+00 1.3562585879862480e+01 1.9075268452155466e+01 1.2229441039512832e+01 
114 1 2 1.0279999999999991e+00 -5.4075944774773507e+02 1.0000000000000000e+00 1.3484574514879824e+01 1.8977079626611523e+01 1.2266761150793942e+01 
95 1 2 8.9131642251593612e-01 -4.2375202683304389e+02 1.0000000000000000e+00 1.4305859278775513e+01 1.2832780018498703e+01 1.4732408970206890e+01 
102 1 2 8.9131642251593612e-01 -4.4937038055491411e+02 1.0000000000000000e+00 1.4305859278775433e+01 1.2832780018498703e+01 1.4732408970206961e+01 
101 1 2 8.9131642251593612e-01 -4.4152579356234810e+02 1.0000000000000000e+00 1.4305859278775513e+01 1.2832780018498703e+01 1.4732408970206890e+01 
137 1 2 8.9131642251593612e-01 -3.9942356553416016e+02 1.0000000000000000e+00 1.4305859278775396e+01 1.2832780018498703e+01 1.4732408970206929e+01 
173 1 2 8.9131642251593612e-01 -3.9813314704473453e+02 1.0000000000000000e+00 1.4305859278775369e+01 1.2832780018498703e+01 1.4732408970206876e+01 
172 1 2 8.9131642251593612e-01 -3.9656222487264756e+02 1.0000000000000000e+00 1.4305859278775396e+01 1.2832780018498703e+01 1.4732408970206953e+01 
136 1 2 8.9131642251593612e-01 -3.9507260043589429e+02 1.0000000000000000e+00 1.4305859278775513e+01 1.2832780018498703e+01 1.4732408970206869e+01 
142 1 2 8.9131642251593612e-01 -4.2355603158925408e+02 1.0000000000000000e+00 1.4305859278775369e+01 1.2832780018498703e+01 1.4732408970206816e+01 
138 1 2 8.9131642251593612e-01 -4.3090763754176396e+02 1.0000000000000000e+00 1.4305859278775506e+01 1.2832780018498703e+01 1.4732408970206881e+01 
174 1 2 8.9131642251593612e-01 -4.3616725145123377e+02 1.0000000000000000e+00 1.4305859278775396e+01 1.2832780018498703e+01 1.4732408970206953e+01 
168 1 2 8.9131642251593612e-01 -4.6342808732044125e+02 1.0000000000000000e+00 1.4305859278775396e+01 1.2832780018498703e+01 1.4732408970206874e+01 
96 1 2 8.9131642251593612e-01 -4.3826425521385511e+02 1.0000000000000000e+00 1.4305859278775396e+01 1.2832780018498703e+01 1.4732408970206881e+01 

Velocities

5 -1.0177170010629893e-15 -3.0390160448408869e-16 2.7139120028346356e-15
42 -1.0177170010629893e-15 4.1698127126886417e-16 2.7139120028346356e-15
41 -1.0177170010629893e-15 4.1698127126886417e-16 2.7139120028346356e-15
12 1.0177170010629893e-15 -3.0390160448408756e-16 -2.7139120028346356e-15
6 1.0177170010629893e-15 7.7742270914534723e-17 -2.7139120028346356e-15
1 1.0177170010629893e-15 -3.0390160448408756e-16 -2.7139120028346356e-15
34 6.4228533959362051e-323 2.3484632736670051e-14 4.5664563654636801e-15
3 6.4228533959362051e-323 2.3484632736670051e-14 -4.4033686381256750e-15
33 6.4228533959362051e-323 -2.0549053644586322e-14 2.1201404553938468e-15
2 6.4228533959362051e-323 -5.8711581841674931e-15 -4.4033686381257018e-15
4 6.4228533959362051e-323 -2.0549053644586322e-14 2.1201404553938468e-15
11 -3.1150500527026820e-16 -7.6978713598022856e-16 -1.6569457851238121e-15
52 3.5341077615727198e-16 1.9998071146761049e-15 3.8996983784928151e-15
59 -2.8342015869244668e-16 -6.5047620668758722e-16 -1.4243538958077396e-15
16 -2.2377157602263140e-16 -5.8281417111927070e-16 -1.2428241175983688e-15
48 -3.1647823024207157e-16 -7.6667626821829892e-16 -1.6580093436780658e-15
47 -2.9282783144949505e-16 -6.8073348832545023e-16 -1.4820299986933994e-15
53 -2.7830947479630051e-16 -6.2184661698099160e-16 -1.3653875789354633e-15
17 3.7511367967386136e-16 2.0541249237059078e-15 4.0182749669361514e-15
39 -1.2397365814724722e-17 -6.2684346876467687e-16 -1.1176819771861534e-15
82 4.7180540077941805e-16 -2.9472327675011926e-15 -4.7630710926292017e-15
46 -8.7757891973964558e-16 3.5128567253030072e-15 5.3832829969832938e-15
75 2.1163611263270618e-16 -1.7004873406159623e-15 -2.8043340003354138e-15
10 -1.3240852515265161e-15 1.0872684649768851e-15 6.0494907288188359e-16
76 -7.6042989509907968e-16 2.9579065477592968e-15 4.5134646085739286e-15
40 -6.6721373133460500e-16 2.5081698494754114e-15 3.8057406779249164e-15
81 7.1054880756500006e-16 -4.0902762905366729e-15 -6.5584295300953256e-15
45 -2.3343450201495315e-16 4.2972575475786241e-16 5.4149915756465255e-16
15 3.7354148856169204e-15 -1.7502535765130247e-15 4.3816362528311271e-16
9 -2.7647772042244776e-16 6.3756795058887895e-16 8.6799383544219285e-16
56 1.1090452231884653e-05 -5.4985010111542349e-06 5.9535477150224170e-05
61 1.1090452231884653e-05 -5.4985010111542349e-06 5.9535477150224170e-05
67 1.1090452231884653e-05 -5.4985010111542349e-06 5.9535477150224170e-05
97 1.1090452231884653e-05 -5.4985010111542349e-06 5.9535477150224170e-05
31 1.1090452231884653e-05 -5.4985010111542349e-06 5.9535477150224170e-05
103 1.1090452231884653e-05 -5.4985010111542349e-06 5.9535477150224170e-05
25 1.1090452231884653e-05 -5.4985010111542349e-06 5.9535477150224170e-05
68 1.1090452231884653e-05 -5.4985010111542349e-06 5.9535477150224170e-05
32 1.1090452231884653e-05 -5.4985010111542349e-06 5.9535477150224170e-05
26 1.1090452231884653e-05 -5.4985010111542349e-06 5.9535477150224170e-05
20 1.1090452231884653e-05 -5.4985010111542349e-06 5.9535477150224170e-05
62 1.1090452231884653e-05 -5.4985010111542349e-06 5.9535477150224170e-05