LAMMPS data file via write_data, version 30 Jul 2016, timestep = 600000

2080 atoms
8 atom types

0.0000000000000000e+00 4.0000000000000000e+01 xlo xhi
0.0000000000000000e+00 4.0000000000000000e+01 ylo yhi
0.0000000000000000e+00 1.0000000000000000e+02 zlo zhi

Masses

1 3.896
2 21.44
3 1058.08
4 8.378
5 8.378
6 8.378
7 8.378
8 8.378

Atoms # meso-molecular

1 2 4 2.2559723595316457e+00 1.3921857368550468e+03 4.2000000000000000e+03 0.0000000000000000e+00 0.0000000000000000e+00 2.5000000000000000e+00 
2 2 4 2.2559723595316457e+00 9.1899375758373037e+02 4.2000000000000000e+03 0.0000000000000000e+00 2.0000000000000000e+00 2.5000000000000000e+00 
21 2 4 2.2559723595316457e+00 2.7277506107089912e+03 4.2000000000000000e+03 2.0000000000000000e+00 0.0000000000000000e+00 2.5000000000000000e+00 
22 2 4 2.2559723595316457e+00 1.1398100852761913e+03 4.2000000000000000e+03 2.0000000000000000e+00 2.0000000000000000e+00 2.5000000000000000e+00 
41 2 4 2.2559723595316457e+00 1.3421769993156563e+03 4.2000000000000000e+03 4.0000000000000000e+00 0.0000000000000000e+00 2.5000000000000000e+00 
42 2 4 2.2559723595316457e+00 -5.8145690287514049e+02 4.2000000000000000e+03 4.0000000000000000e+00 2.0000000000000000e+00 2.5000000000000000e+00 
61 2 4 2.2559723595316457e+00 -1.8435804324932956e+03 4.2000000000000000e+03 6.0000000000000000e+00 0.0000000000000000e+00 2.5000000000000000e+00 
62 2 4 2.2559723595316457e+00 -1.9289192174538084e+03 4.2000000000000000e+03 6.0000000000000000e+00 2.0000000000000000e+00 2.5000000000000000e+00 
81 2 4 2.2559723595316457e+00 -1.4760663446205222e+03 4.2000000000000000e+03 8.0000000000000000e+00 0.0000000000000000e+00 2.5000000000000000e+00 
82 2 4 2.2559723595316457e+00 -6.7757124312786459e+02 4.2000000000000000e+03 8.0000000000000000e+00 2.0000000000000000e+00 2.5000000000000000e+00 
101 2 4 2.2559723595316457e+00 -3.4647450177939584e+02 4.2000000000000000e+03 1.0000000000000000e+01 0.0000000000000000e+00 2.5000000000000000e+00 
102 2 4 2.2559723595316457e+00 9.7065669755937529e+02 4.2000000000000000e+03 1.0000000000000000e+01 2.0000000000000000e+00 2.5000000000000000e+00 
121 2 4 2.2559723595316457e+00 -6.6979435545366687e+02 4.2000000000000000e+03 1.2000000000000000e+01 0.0000000000000000e+00 2.5000000000000000e+00 
122 2 4 2.2559723595316457e+00 8.7372192267061541e+02 4.2000000000000000e+03 1.2000000000000000e+01 2.0000000000000000e+00 2.5000000000000000e+00 
141 2 4 2.2559723595316457e+00 -2.0075720756203368e+03 4.2000000000000000e+03 1.4000000000000000e+01 0.0000000000000000e+00 2.5000000000000000e+00 
142 2 4 2.2559723595316457e+00 -1.9610508038168757e+02 4.2000000000000000e+03 1.4000000000000000e+01 2.0000000000000000e+00 2.5000000000000000e+00 
161 2 4 2.2559723595316457e+00 1.4634536763380861e+03 4.2000000000000000e+03 1.6000000000000000e+01 0.0000000000000000e+00 2.5000000000000000e+00 
162 2 4 2.2559723595316457e+00 2.6485619889976060e+03 4.2000000000000000e+03 1.6000000000000000e+01 2.0000000000000000e+00 2.5000000000000000e+00 
181 2 4 2.2559723595316457e+00 6.5379817456202145e+03 4.2000000000000000e+03 1.8000000000000000e+01 0.0000000000000000e+00 2.5000000000000000e+00 
182 2 4 2.2559723595316457e+00 7.2341500612177078e+03 4.2000000000000000e+03 1.8000000000000000e+01 2.0000000000000000e+00 2.5000000000000000e+00 
3 2 4 2.2559723595316457e+00 5.1015481478359504e+02 4.2000000000000000e+03 0.0000000000000000e+00 4.0000000000000000e+00 2.5000000000000000e+00 
4 2 4 2.2559723595316457e+00 2.6694974885624033e+03 4.2000000000000000e+03 0.0000000000000000e+00 6.0000000000000000e+00 2.5000000000000000e+00 
23 2 4 2.2559723595316457e+00 -9.4441004772703877e+02 4.2000000000000000e+03 2.0000000000000000e+00 4.0000000000000000e+00 2.5000000000000000e+00 
24 2 4 2.2559723595316457e+00 -7.7336517835908342e+02 4.2000000000000000e+03 2.0000000000000000e+00 6.0000000000000000e+00 2.5000000000000000e+00 
43 2 4 2.2559723595316457e+00 -2.3549375563986068e+03 4.2000000000000000e+03 4.0000000000000000e+00 4.0000000000000000e+00 2.5000000000000000e+00 
44 2 4 2.2559723595316457e+00 -2.8730501978260859e+03 4.2000000000000000e+03 4.0000000000000000e+00 6.0000000000000000e+00 2.5000000000000000e+00 
63 2 4 2.2559723595316457e+00 -1.3098140134943230e+03 4.2000000000000000e+03 6.0000000000000000e+00 4.0000000000000000e+00 2.5000000000000000e+00 
64 2 4 2.2559723595316457e+00 -7.9975444294375836e+02 4.2000000000000000e+03 6.0000000000000000e+00 6.0000000000000000e+00 2.5000000000000000e+00 
83 2 4 2.2559723595316457e+00 2.9741111673637840e+02 4.2000000000000000e+03 8.0000000000000000e+00 4.0000000000000000e+00 2.5000000000000000e+00 
84 2 4 2.2559723595316457e+00 -6.4870422451567799e+02 4.2000000000000000e+03 8.0000000000000000e+00 6.0000000000000000e+00 2.5000000000000000e+00 
103 2 4 2.2559723595316457e+00 1.9297196474114853e+03 4.2000000000000000e+03 1.0000000000000000e+01 4.0000000000000000e+00 2.5000000000000000e+00 
104 2 4 2.2559723595316457e+00 -1.6170739644089235e+03 4.2000000000000000e+03 1.0000000000000000e+01 6.0000000000000000e+00 2.5000000000000000e+00 
123 2 4 2.2559723595316457e+00 2.4544404333626453e+03 4.2000000000000000e+03 1.2000000000000000e+01 4.0000000000000000e+00 2.5000000000000000e+00 
124 2 4 2.2559723595316457e+00 7.9685160085359644e+02 4.2000000000000000e+03 1.2000000000000000e+01 6.0000000000000000e+00 2.5000000000000000e+00 
143 2 4 2.2559723595316457e+00 3.7174194457804788e+03 4.2000000000000000e+03 1.4000000000000000e+01 4.0000000000000000e+00 2.5000000000000000e+00 
144 2 4 2.2559723595316457e+00 4.5815403651387260e+03 4.2000000000000000e+03 1.4000000000000000e+01 6.0000000000000000e+00 2.5000000000000000e+00 
163 2 4 2.2559723595316457e+00 5.5677904505551069e+03 4.2000000000000000e+03 1.6000000000000000e+01 4.0000000000000000e+00 2.5000000000000000e+00 
164 2 4 2.2559723595316457e+00 5.0640127348685273e+03 4.2000000000000000e+03 1.6000000000000000e+01 6.0000000000000000e+00 2.5000000000000000e+00 
183 2 4 2.2559723595316457e+00 8.6772673176652388e+03 4.2000000000000000e+03 1.8000000000000000e+01 4.0000000000000000e+00 2.5000000000000000e+00 
184 2 4 2.2559723595316457e+00 3.7307797642779424e+03 4.2000000000000000e+03 1.8000000000000000e+01 6.0000000000000000e+00 2.5000000000000000e+00 
5 2 4 2.2559723595316457e+00 1.4647665248876865e+03 4.2000000000000000e+03 0.0000000000000000e+00 8.0000000000000000e+00 2.5000000000000000e+00 
6 2 4 2.2559723595316457e+00 6.0608557706471584e+02 4.2000000000000000e+03 0.0000000000000000e+00 1.0000000000000000e+01 2.5000000000000000e+00 
25 2 4 2.2559723595316457e+00 -6.8823247345642642e+02 4.2000000000000000e+03 2.0000000000000000e+00 8.0000000000000000e+00 2.5000000000000000e+00 
26 2 4 2.2559723595316457e+00 8.1276275533003819e+00 4.2000000000000000e+03 2.0000000000000000e+00 1.0000000000000000e+01 2.5000000000000000e+00 
45 2 4 2.2559723595316457e+00 -2.0543523620522055e+03 4.2000000000000000e+03 4.0000000000000000e+00 8.0000000000000000e+00 2.5000000000000000e+00 
46 2 4 2.2559723595316457e+00 -2.3732219963109515e+02 4.2000000000000000e+03 4.0000000000000000e+00 1.0000000000000000e+01 2.5000000000000000e+00 
65 2 4 2.2559723595316457e+00 -2.6371405827930528e+02 4.2000000000000000e+03 6.0000000000000000e+00 8.0000000000000000e+00 2.5000000000000000e+00 
66 2 4 2.2559723595316457e+00 9.3076698133380387e+02 4.2000000000000000e+03 6.0000000000000000e+00 1.0000000000000000e+01 2.5000000000000000e+00 
85 2 4 2.2559723595316457e+00 -1.9692504652099688e+03 4.2000000000000000e+03 8.0000000000000000e+00 8.0000000000000000e+00 2.5000000000000000e+00 
86 2 4 2.2559723595316457e+00 8.3276811584793805e+01 4.2000000000000000e+03 8.0000000000000000e+00 1.0000000000000000e+01 2.5000000000000000e+00 
105 2 4 2.2559723595316457e+00 -4.3158251952538612e+03 4.2000000000000000e+03 1.0000000000000000e+01 8.0000000000000000e+00 2.5000000000000000e+00 
106 2 4 2.2559723595316457e+00 -1.6019645769889134e+03 4.2000000000000000e+03 1.0000000000000000e+01 1.0000000000000000e+01 2.5000000000000000e+00 
125 2 4 2.2559723595316457e+00 -8.5098246558896312e+02 4.2000000000000000e+03 1.2000000000000000e+01 8.0000000000000000e+00 2.5000000000000000e+00 
126 2 4 2.2559723595316457e+00 5.5999993506310534e+02 4.2000000000000000e+03 1.2000000000000000e+01 1.0000000000000000e+01 2.5000000000000000e+00 
145 2 4 2.2559723595316457e+00 3.0324376536688706e+03 4.2000000000000000e+03 1.4000000000000000e+01 8.0000000000000000e+00 2.5000000000000000e+00 
146 2 4 2.2559723595316457e+00 2.9301576419314750e+02 4.2000000000000000e+03 1.4000000000000000e+01 1.0000000000000000e+01 2.5000000000000000e+00 
165 2 4 2.2559723595316457e+00 2.0889895658381306e+03 4.2000000000000000e+03 1.6000000000000000e+01 8.0000000000000000e+00 2.5000000000000000e+00 
166 2 4 2.2559723595316457e+00 -3.3309095233758899e+03 4.2000000000000000e+03 1.6000000000000000e+01 1.0000000000000000e+01 2.5000000000000000e+00 
185 2 4 2.2559723595316457e+00 -5.3835446529566877e+02 4.2000000000000000e+03 1.8000000000000000e+01 8.0000000000000000e+00 2.5000000000000000e+00 
186 2 4 2.2559723595316457e+00 -5.1664349025100992e+03 4.2000000000000000e+03 1.8000000000000000e+01 1.0000000000000000e+01 2.5000000000000000e+00 
7 2 4 2.2559723595316457e+00 3.0901531499447565e+03 4.2000000000000000e+03 0.0000000000000000e+00 1.2000000000000000e+01 2.5000000000000000e+00 
8 2 4 2.2559723595316457e+00 2.9251125968388560e+03 4.2000000000000000e+03 0.0000000000000000e+00 1.4000000000000000e+01 2.5000000000000000e+00 
27 2 4 2.2559723595316457e+00 2.6742884347123836e+03 4.2000000000000000e+03 2.0000000000000000e+00 1.2000000000000000e+01 2.5000000000000000e+00 
28 2 4 2.2559723595316457e+00 3.0770211376698421e+03 4.2000000000000000e+03 2.0000000000000000e+00 1.4000000000000000e+01 2.5000000000000000e+00 
47 2 4 2.2559723595316457e+00 2.3342174235070333e+03 4.2000000000000000e+03 4.0000000000000000e+00 1.2000000000000000e+01 2.5000000000000000e+00 
48 2 4 2.2559723595316457e+00 1.8635094667429576e+03 4.2000000000000000e+03 4.0000000000000000e+00 1.4000000000000000e+01 2.5000000000000000e+00 
67 2 4 2.2559723595316457e+00 2.9217781664509348e+03 4.2000000000000000e+03 6.0000000000000000e+00 1.2000000000000000e+01 2.5000000000000000e+00 
68 2 4 2.2559723595316457e+00 1.3364553093624281e+03 4.2000000000000000e+03 6.0000000000000000e+00 1.4000000000000000e+01 2.5000000000000000e+00 
87 2 4 2.2559723595316457e+00 2.8275848324117533e+03 4.2000000000000000e+03 8.0000000000000000e+00 1.2000000000000000e+01 2.5000000000000000e+00 
88 2 4 2.2559723595316457e+00 1.9568410688101635e+03 4.2000000000000000e+03 8.0000000000000000e+00 1.4000000000000000e+01 2.5000000000000000e+00 
107 2 4 2.2559723595316457e+00 2.0445648629724988e+03 4.2000000000000000e+03 1.0000000000000000e+01 1.2000000000000000e+01 2.5000000000000000e+00 
108 2 4 2.2559723595316457e+00 1.7993215806991379e+03 4.2000000000000000e+03 1.0000000000000000e+01 1.4000000000000000e+01 2.5000000000000000e+00 
127 2 4 2.2559723595316457e+00 2.8350219131497679e+03 4.2000000000000000e+03 1.2000000000000000e+01 1.2000000000000000e+01 2.5000000000000000e+00 
128 2 4 2.2559723595316457e+00 2.0669515584030432e+03 4.2000000000000000e+03 1.2000000000000000e+01 1.4000000000000000e+01 2.5000000000000000e+00 
147 2 4 2.2559723595316457e+00 1.5831694516945640e+03 4.2000000000000000e+03 1.4000000000000000e+01 1.2000000000000000e+01 2.5000000000000000e+00 
148 2 4 2.2559723595316457e+00 2.0803858377172419e+03 4.2000000000000000e+03 1.4000000000000000e+01 1.4000000000000000e+01 2.5000000000000000e+00 
167 2 4 2.2559723595316457e+00 -3.9947193297130402e+03 4.2000000000000000e+03 1.6000000000000000e+01 1.2000000000000000e+01 2.5000000000000000e+00 
168 2 4 2.2559723595316457e+00 -1.8914930863162710e+03 4.2000000000000000e+03 1.6000000000000000e+01 1.4000000000000000e+01 2.5000000000000000e+00 
187 2 4 2.2559723595316457e+00 -6.7457075251369488e+03 4.2000000000000000e+03 1.8000000000000000e+01 1.2000000000000000e+01 2.5000000000000000e+00 
188 2 4 2.2559723595316457e+00 -3.7539529078990881e+03 4.2000000000000000e+03 1.8000000000000000e+01 1.4000000000000000e+01 2.5000000000000000e+00 
9 2 4 2.2559723595316457e+00 -1.7641844930725626e+03 4.2000000000000000e+03 0.0000000000000000e+00 1.6000000000000000e+01 2.5000000000000000e+00 
10 2 4 2.2559723595316457e+00 -4.5509039846833648e+03 4.2000000000000000e+03 0.0000000000000000e+00 1.8000000000000000e+01 2.5000000000000000e+00 
29 2 4 2.2559723595316457e+00 -1.4630978448569233e+03 4.2000000000000000e+03 2.0000000000000000e+00 1.6000000000000000e+01 2.5000000000000000e+00 
30 2 4 2.2559723595316457e+00 -5.2474343154003927e+03 4.2000000000000000e+03 2.0000000000000000e+00 1.8000000000000000e+01 2.5000000000000000e+00 
49 2 4 2.2559723595316457e+00 -1.1352894658127859e+03 4.2000000000000000e+03 4.0000000000000000e+00 1.6000000000000000e+01 2.5000000000000000e+00 
50 2 4 2.2559723595316457e+00 -3.4429202341716159e+03 4.2000000000000000e+03 4.0000000000000000e+00 1.8000000000000000e+01 2.5000000000000000e+00 
69 2 4 2.2559723595316457e+00 -1.1520563620372313e+03 4.2000000000000000e+03 6.0000000000000000e+00 1.6000000000000000e+01 2.5000000000000000e+00 
70 2 4 2.2559723595316457e+00 -1.3709412802409743e+03 4.2000000000000000e+03 6.0000000000000000e+00 1.8000000000000000e+01 2.5000000000000000e+00 
89 2 4 2.2559723595316457e+00 -4.6288794750548902e+02 4.2000000000000000e+03 8.0000000000000000e+00 1.6000000000000000e+01 2.5000000000000000e+00 
90 2 4 2.2559723595316457e+00 -6.5089506542897288e+02 4.2000000000000000e+03 8.0000000000000000e+00 1.8000000000000000e+01 2.5000000000000000e+00 
109 2 4 2.2559723595316457e+00 -2.8897018104534601e+02 4.2000000000000000e+03 1.0000000000000000e+01 1.6000000000000000e+01 2.5000000000000000e+00 
110 2 4 2.2559723595316457e+00 -1.2055032340038356e+03 4.2000000000000000e+03 1.0000000000000000e+01 1.8000000000000000e+01 2.5000000000000000e+00 
129 2 4 2.2559723595316457e+00 2.2760196198311296e+03 4.2000000000000000e+03 1.2000000000000000e+01 1.6000000000000000e+01 2.5000000000000000e+00 
130 2 4 2.2559723595316457e+00 3.7580603491072106e+03 4.2000000000000000e+03 1.2000000000000000e+01 1.8000000000000000e+01 2.5000000000000000e+00 
149 2 4 2.2559723595316457e+00 4.7938261055553157e+03 4.2000000000000000e+03 1.4000000000000000e+01 1.6000000000000000e+01 2.5000000000000000e+00 
150 2 4 2.2559723595316457e+00 7.5285395612553311e+03 4.2000000000000000e+03 1.4000000000000000e+01 1.8000000000000000e+01 2.5000000000000000e+00 
169 2 4 2.2559723595316457e+00 1.8544278948480560e+03 4.2000000000000000e+03 1.6000000000000000e+01 1.6000000000000000e+01 2.5000000000000000e+00 
170 2 4 2.2559723595316457e+00 2.7960700642622605e+03 4.2000000000000000e+03 1.6000000000000000e+01 1.8000000000000000e+01 2.5000000000000000e+00 
189 2 4 2.2559723595316457e+00 -1.6739932253274490e+03 4.2000000000000000e+03 1.8000000000000000e+01 1.6000000000000000e+01 2.5000000000000000e+00 
190 2 4 2.2559723595316457e+00 -8.5840657992365959e+02 4.2000000000000000e+03 1.8000000000000000e+01 1.8000000000000000e+01 2.5000000000000000e+00 
618 220 2 1.0279994292185926e+00 -3.8643896177488356e+05 4.2000000000000000e+03 1.9876328419629978e+01 9.0769389706970962e+00 1.7328343705531839e+01 
1834 1436 2 1.0279967877287637e+00 -3.1248240484029386e+05 4.2000000000000000e+03 1.2283642635696488e+00 1.7668257873856998e+01 3.2251355004131398e+01 
1991 1593 2 1.0279846587329504e+00 1.8506434503205138e+05 4.2000000000000000e+03 1.4628681837556197e+00 1.8252474780240995e+01 3.2500736625732515e+01 
1728 1330 2 1.0279844313279802e+00 5.9960777120551572e+05 4.2000000000000000e+03 1.4869147330976933e+00 1.8282751788385081e+01 3.2508475210504756e+01 
1233 835 2 1.0280002767739906e+00 4.4335899444528739e+05 4.2000000000000000e+03 1.7213612850106120e+01 1.8553580696754651e-01 3.5604452145356312e+01 
1762 1364 2 1.0280036823757361e+00 -3.4766341190206399e+05 4.2000000000000000e+03 1.9346755679897150e+01 4.9916692492677778e-01 3.5802120926279038e+01 
1875 1477 2 1.0280046631928936e+00 -5.1022003989066835e+05 4.2000000000000000e+03 1.9523521555331932e+01 3.8586954120487199e-01 3.5905974310561980e+01 
1338 940 2 1.0280006100651495e+00 -1.0205108930252768e+06 4.2000000000000000e+03 1.5060788139352326e+01 2.0848071308613925e+00 3.9752337800999420e+01 
1809 1411 2 1.0280007979646437e+00 3.9864262931582477e+05 4.2000000000000000e+03 1.4724591254847468e+01 1.6805878924789099e+00 4.0049655857226846e+01 
857 459 2 1.0280013376423784e+00 8.1457121297451446e+05 4.2000000000000000e+03 1.5179786146574617e+01 2.5257542444193257e+00 4.0657968771901679e+01 
885 487 2 1.0279948665292968e+00 6.2288812804661877e+05 4.2000000000000000e+03 1.9463464526085399e+01 3.4158262850170706e-01 3.7983604361552395e+01 
1346 948 2 1.0279979887035904e+00 -7.2611319545936235e+05 4.2000000000000000e+03 1.7664787237894867e+01 1.9713317588700858e+00 3.8177300892343702e+01 
1525 1127 2 1.0279936339486015e+00 3.4997137082106661e+05 4.2000000000000000e+03 1.9381202026167379e+01 3.1854999678549817e-01 3.8205106730787911e+01 
1371 973 2 1.0280006075150772e+00 -8.1797727278637281e+05 4.2000000000000000e+03 1.7171695864229235e+01 2.4039852452233519e+00 3.9939494338820907e+01 
2027 1629 2 1.0280001032556643e+00 2.9985342031952785e+05 4.2000000000000000e+03 3.9458909479099042e+00 1.1296121298508622e+01 4.0069343706607121e+01 
1439 1041 2 1.0280001156459762e+00 -6.7916948861352133e+05 4.2000000000000000e+03 2.9379677878644337e+00 1.4596063536822461e+01 3.8939792569168510e+01 
1499 1101 2 1.0280004121799591e+00 -8.4136270940917463e+05 4.2000000000000000e+03 2.4481753160704676e+00 1.3702905282004643e+01 3.8866428462991813e+01 
1311 913 2 1.0280006727344895e+00 -8.4696376546788425e+05 4.2000000000000000e+03 9.7935549240744479e-01 1.4389827294778128e+01 4.0717349670890826e+01 
1785 1387 2 1.0279997324121337e+00 1.3660328265552846e+05 4.2000000000000000e+03 1.4874646911384151e+00 1.4950303254505853e+01 4.1463053984215286e+01 
717 319 2 1.0279996547487138e+00 3.0905143048721476e+05 4.2000000000000000e+03 1.5519379068151633e+00 1.4968837589844126e+01 4.1493158604684133e+01 
1026 628 2 1.0279996327932093e+00 -8.3180376598958892e+05 4.2000000000000000e+03 1.5268988395235081e+00 1.4927918585281704e+01 4.1510635381865583e+01 
1641 1243 2 1.0279985068700921e+00 4.6829044523914286e+05 4.2000000000000000e+03 5.7120186024231376e+00 1.2218541159488284e+01 4.1331453796576568e+01 
862 464 2 1.0279987310651930e+00 -8.2581028160933580e+05 4.2000000000000000e+03 5.7059287967350460e+00 1.2238066132336265e+01 4.1127847045081090e+01 
537 139 2 1.0279992906157973e+00 4.8533505125526187e+05 4.2000000000000000e+03 4.7352633866765341e+00 1.3812028136243686e+01 3.9270081206546465e+01 
753 355 2 1.0279991927388934e+00 5.2018899465490953e+05 4.2000000000000000e+03 4.7779832774801063e+00 1.3469448249326566e+01 3.9140190389482939e+01 
1858 1460 2 1.0280015834596254e+00 -4.8525978969184496e+05 4.2000000000000000e+03 1.1555160660087816e+01 3.6471489498183063e-01 4.5073875733870139e+01 
1454 1056 2 1.0280013703169284e+00 -8.6478894682553166e+05 4.2000000000000000e+03 1.1042015593697730e+01 7.4504923090081898e-01 4.5573152859058972e+01 
1867 1469 2 1.0279880219335868e+00 -3.0577870992314373e+05 4.2000000000000000e+03 1.4683702663531733e+01 1.5776544667534549e+00 4.2178427376351223e+01 
1644 1246 2 1.0279935009081069e+00 4.7977043654386263e+05 4.2000000000000000e+03 1.3536506090218310e+01 1.6895359249851425e+00 4.4786748271357951e+01 
1157 759 2 1.0279941859079460e+00 6.9511437395375920e+05 4.2000000000000000e+03 1.4232500505271922e+01 1.3517774048616564e+00 4.5187020330834763e+01 
1070 672 2 1.0280017756616056e+00 1.3090978104230054e+05 4.2000000000000000e+03 1.7370811280822995e+01 4.7900742862364709e-01 4.2336743836985022e+01 
2031 1633 2 1.0280062592819275e+00 6.6765724328103487e+05 4.2000000000000000e+03 3.3181177110548439e+00 7.9775049974157008e+00 4.5389369246768737e+01 
695 297 2 1.0280009312605396e+00 -3.4531366855570779e+05 4.2000000000000000e+03 3.6056579046238002e+00 1.0797742527312010e+01 4.2216102845895669e+01 
915 517 2 1.0280005067849061e+00 -7.5577399728083215e+05 4.2000000000000000e+03 3.4482665363270044e+00 1.0957170224541329e+01 4.2010942344249891e+01 
1753 1355 2 1.0279974522850406e+00 2.6960264684851369e+05 4.2000000000000000e+03 5.4685444127942135e+00 9.2690776641293624e+00 4.4691710033326594e+01 
1066 668 2 1.0279985210024392e+00 -5.2802282294996059e+05 4.2000000000000000e+03 6.1105777145913063e+00 1.0121145239396332e+01 4.4627678149982223e+01 
950 552 2 1.0280011990873827e+00 -8.4943642714257201e+05 4.2000000000000000e+03 6.6590925459406174e+00 1.1373328558715293e+01 4.5241905446763248e+01 
791 393 2 1.0279943571312162e+00 -7.6598142532582162e+05 4.2000000000000000e+03 3.9526658765901796e+00 1.2079621894950726e+01 4.3744660006374978e+01 
1883 1485 2 1.0279993555865188e+00 -6.4802692597027647e+05 4.2000000000000000e+03 1.8007516498174532e+00 8.3222922491964635e-01 4.7485082029739402e+01 
2037 1639 2 1.0279977080008513e+00 6.3487270181516814e+05 4.2000000000000000e+03 6.2383910427287770e-01 2.4511104024509516e+00 4.7569475396230331e+01 
1106 708 2 1.0279985258058388e+00 -5.1404446681142569e+05 4.2000000000000000e+03 1.1237694115505275e+00 2.8062598034314354e+00 4.8417254946324519e+01 
1514 1116 2 1.0280009430855832e+00 -8.2036519581619336e+05 4.2000000000000000e+03 1.7677991267848583e+00 1.9530401084556934e+00 4.9529680574011202e+01 
1444 1046 2 1.0279918847475333e+00 1.8668679617812429e+05 4.2000000000000000e+03 4.8462368219820666e+00 3.4057088181804325e+00 4.6672874374473395e+01 
2056 1658 2 1.0280026551395269e+00 6.7317676901767787e+05 4.2000000000000000e+03 6.0435047977092911e+00 1.1070287737756159e+00 4.7096079000259259e+01 
1325 927 2 1.0280022635585631e+00 7.2863917833393055e+05 4.2000000000000000e+03 6.0779122537087531e+00 1.2587341757215573e+00 4.7069882205994993e+01 
458 60 2 1.0279871098482565e+00 4.2955872435716365e+05 4.2000000000000000e+03 7.1049577199970591e+00 1.5605389376345185e+00 4.9506741155652819e+01 
1878 1480 2 1.0279934518497416e+00 -3.7971801129264699e+05 4.2000000000000000e+03 4.8782693189926318e+00 3.9021601672048467e+00 4.6575442284528670e+01 
1614 1216 2 1.0279938773201445e+00 -8.6877748773665959e+05 4.2000000000000000e+03 1.1768924748992792e+01 2.7420926186913648e+00 4.7058822659338901e+01 
1752 1354 2 1.0279949829807209e+00 4.6216061472161557e+05 4.2000000000000000e+03 9.7001523426440723e+00 3.3783021717830097e+00 4.9917316557791132e+01 
757 359 2 1.0280001747313119e+00 4.4143244520293054e+05 4.2000000000000000e+03 9.1693794913772138e+00 3.1020738355664994e+00 4.9936489213583307e+01 
1697 1299 2 1.0279979807766761e+00 8.6517086436697468e+05 4.2000000000000000e+03 1.3239213625541950e+01 2.7355781494776612e+00 4.7626769920712931e+01 
497 99 2 1.0280091507437072e+00 5.9764463684808882e+05 4.2000000000000000e+03 1.3593821406138854e+01 1.1468969916285490e+00 4.8959437020757271e+01 
1485 1087 2 1.0280017386244300e+00 3.0356546093502553e+05 4.2000000000000000e+03 1.2902604015138351e+01 1.8095913776401857e+00 4.9188543984108122e+01 
1362 964 2 1.0280005300965240e+00 -9.1866760287989338e+05 4.2000000000000000e+03 1.2532262809896105e+01 1.0894981368653300e+00 4.9323093029275377e+01 
482 84 2 1.0280009090245119e+00 2.6304496522151231e+05 4.2000000000000000e+03 3.9025600308329955e+00 7.0566769541674699e+00 4.5848896380548261e+01 
465 67 2 1.0279912433230693e+00 3.9024091510472493e+05 4.2000000000000000e+03 4.5579406088196741e+00 4.8373412957832409e+00 4.6520684022575871e+01 
503 105 2 1.0279925562144618e+00 3.2037328459432494e+05 4.2000000000000000e+03 5.4071699628129215e+00 6.6669232046656886e+00 4.6917631306118743e+01 
703 305 2 1.0280061703502654e+00 -3.5522500613141630e+05 4.2000000000000000e+03 5.4664269293237533e+00 5.1884134333254366e+00 4.9577075055271195e+01 
1147 749 2 1.0280059721967880e+00 -8.3947557236807898e+05 4.2000000000000000e+03 5.4856625587303149e+00 5.3475684953503917e+00 4.9589959023005292e+01 
1540 1142 2 1.0279930172815650e+00 5.0145538118096761e+05 4.2000000000000000e+03 9.8373739929073931e+00 5.4565194580443865e+00 4.9272319098141757e+01 
829 431 2 1.0279932931366853e+00 3.3900784673033742e+05 4.2000000000000000e+03 9.8387251828653763e+00 5.4881858991546109e+00 4.9275802751188152e+01 
800 402 2 1.0279998047940704e+00 -5.6083305855474347e+04 4.2000000000000000e+03 2.3527644169980055e+00 1.0613691315218928e+01 4.6069992040164209e+01 
1287 889 2 1.0279927028924509e+00 -1.0195052856933688e+06 4.2000000000000000e+03 3.6005481998145106e+00 9.7582882425986064e+00 4.8259964148701009e+01 
1684 1286 2 1.0280014929847461e+00 4.3950390717558021e+05 4.2000000000000000e+03 1.4332280706853995e+00 8.6168284389229370e+00 4.8166993816861492e+01 
974 576 2 1.0279991650158995e+00 -7.5878786906663247e+05 4.2000000000000000e+03 1.7678884119887546e+00 1.0410229128340864e+01 4.6819073253733379e+01 
1673 1275 2 1.0279918316788197e+00 4.6941075688702002e+05 4.2000000000000000e+03 6.6264295752402591e-01 8.2842191225737949e+00 4.7595211184074103e+01 
1411 1013 2 1.0279818475935212e+00 1.4055736776277545e+05 4.2000000000000000e+03 2.3309658017077536e-01 8.3647183735237505e+00 4.7364992151327456e+01 
1493 1095 2 1.0279891447579665e+00 2.1992269925844640e+05 4.2000000000000000e+03 4.5567259951154400e+00 9.2130230667417070e+00 4.8219855633855374e+01 
1260 862 2 1.0279985430402678e+00 7.1277265877493832e+05 4.2000000000000000e+03 6.7993459174319657e+00 1.0801727618945856e+01 4.7198199855616302e+01 
507 109 2 1.0279917037169459e+00 8.2042947292841994e+05 4.2000000000000000e+03 4.1366667242123363e+00 1.3989345018591578e+01 4.8386313308116669e+01 
705 307 2 1.0279924481236888e+00 1.7931606845484060e+05 4.2000000000000000e+03 4.2763905755395308e+00 1.4096852708251490e+01 4.7780444990249620e+01 
1375 977 2 1.0279947703582832e+00 -1.0479539927425528e+06 4.2000000000000000e+03 4.5180973184691826e+00 1.5754921882683169e+01 4.8889655117430408e+01 
1805 1407 2 1.0279978535707401e+00 4.6731588874788239e+05 4.2000000000000000e+03 5.2130773261756689e+00 1.3073881885423642e+01 4.5900096843120281e+01 
1960 1562 2 1.0280015725001135e+00 5.2713725370084995e+05 4.2000000000000000e+03 6.7373736191137006e+00 1.2530038085010487e+01 4.7880143722676252e+01 
2002 1604 2 1.0280019253710231e+00 3.1249373603378778e+05 4.2000000000000000e+03 6.7706640261061635e+00 1.2576341355397592e+01 4.7789014961747547e+01 
1211 813 2 1.0280026103383302e+00 -8.5801866044244089e+05 4.2000000000000000e+03 8.0177693513166197e+00 1.7202578279170638e+01 4.8445885777885358e+01 
861 463 2 1.0279993610736589e+00 4.7979895470503205e+05 4.2000000000000000e+03 8.5756499307076766e+00 1.9069769378780034e+01 4.7829991214390830e+01 
1064 666 2 1.0279985222163195e+00 6.2405474990726053e+05 4.2000000000000000e+03 8.9513962246789163e+00 1.8034860478104527e+01 4.8028350238337744e+01 
1008 610 2 1.0279973502756288e+00 5.9328697154487472e+05 4.2000000000000000e+03 9.0656541380397933e+00 1.8093922707063005e+01 4.8052018574800442e+01 
1975 1577 2 1.0279992397130524e+00 6.7674064447229146e+05 4.2000000000000000e+03 7.5275200509338278e+00 3.3097219349091658e+00 5.0520141572379941e+01 
1781 1383 2 1.0279960293216612e+00 2.2083734805746749e+05 4.2000000000000000e+03 1.7825145877999969e+01 1.0384601076278512e+00 5.0896927722104145e+01 
651 253 2 1.0279760023862354e+00 -3.9940634685757128e+05 4.2000000000000000e+03 1.7947957490081073e+01 1.0486450655036694e+00 5.0778673502197250e+01 
478 80 2 1.0279759945743525e+00 1.2498292117942244e+05 4.2000000000000000e+03 1.7947997828191959e+01 1.0486483268064206e+00 5.0778654728675235e+01 
860 462 2 1.0279993956955298e+00 9.0046007987063890e+05 4.2000000000000000e+03 1.7825892854097368e+01 1.0384586034862175e+00 5.1108884713675202e+01 
1229 831 2 1.0279859047084721e+00 5.5241950219560845e+05 4.2000000000000000e+03 1.7123871976500645e+01 3.7624149604241914e+00 5.2857125602035140e+01 
1523 1125 2 1.0279860057517385e+00 -5.6824391508582036e+05 4.2000000000000000e+03 1.7125294664876741e+01 3.7618691663644226e+00 5.2855137223764132e+01 
1407 1009 2 1.0279830546531206e+00 3.8916239074485854e+05 4.2000000000000000e+03 1.7086495001093677e+01 3.8162578932979838e+00 5.2978597630547320e+01 
867 469 2 1.0280017150270160e+00 -6.1180426292193681e+05 4.2000000000000000e+03 6.7338140998698721e+00 5.1165117956747634e+00 5.0929839734014863e+01 
1492 1094 2 1.0279983813304783e+00 5.9225097637662652e+05 4.2000000000000000e+03 7.4087357979438080e+00 7.8652083283051635e+00 5.1398464872163963e+01 
567 169 2 1.0279945519857212e+00 7.1175273497819365e+05 4.2000000000000000e+03 1.1602069738199882e+01 7.0824270656339730e+00 5.1510621065091165e+01 
1510 1112 2 1.0279937044549541e+00 -5.3467979916000692e+05 4.2000000000000000e+03 1.1654731671452479e+01 7.1514077632819744e+00 5.1503870890499883e+01 
730 332 2 1.0279881914676432e+00 -3.3791609395531699e+05 4.2000000000000000e+03 1.1741668505863412e+01 7.8778859750277768e+00 5.0819372321335905e+01 
447 49 2 1.0279879306343622e+00 5.1054632117780222e+05 4.2000000000000000e+03 7.3927580787816041e+00 8.0764442009217845e+00 5.0144718060223404e+01 
1675 1277 2 1.0279983485590913e+00 -8.9095537899475219e+05 4.2000000000000000e+03 7.8530877276791085e+00 8.4734021194271634e+00 5.0819685904326008e+01 
2045 1647 2 1.0280072883207425e+00 4.9426095052141056e+05 4.2000000000000000e+03 9.4513934829620929e+00 8.3736021222192800e+00 5.2425977264839894e+01 
1406 1008 2 1.0280073018279334e+00 4.0034498540980235e+05 4.2000000000000000e+03 9.5762631698479428e+00 8.3568382512994113e+00 5.2458998728549091e+01 
1967 1569 2 1.0279678142878859e+00 3.7463613597984915e+05 4.2000000000000000e+03 1.2628603991430756e+01 1.0652179555623965e+01 5.1575004088565734e+01 
1618 1220 2 1.0280097371505792e+00 -4.8703115909838810e+05 4.2000000000000000e+03 1.3766211428415792e+01 1.0987136414049312e+01 5.1488344670927916e+01 
732 334 2 1.0280001441942157e+00 2.7259061150390480e+05 4.2000000000000000e+03 1.3857443195852417e+01 9.6807584263639370e+00 5.3073601701902419e+01 