LAMMPS data file via write_data, version 30 Jul 2016, timestep = 50400000

180 atoms
2 atom types

0.0000000000000000e+00 2.0000000000000000e+01 xlo xhi
0.0000000000000000e+00 2.0000000000000000e+01 ylo yhi
0.0000000000000000e+00 2.0000000000000000e+01 zlo zhi

Masses

1 3.896
2 4.31

Atoms # meso-molecular

37 1 2 1.0279999999999994e+00 -5.2273738337501254e+02 1.0000000000000000e+00 7.7887202092801466e+00 4.5054606510553610e+00 4.7602553492185908e+00 
38 1 2 1.0280000000000007e+00 -6.0261351516738500e+02 1.0000000000000000e+00 7.7884656146377571e+00 4.5017637674661701e+00 4.7628392999723079e+00 
43 1 2 1.0279999999999994e+00 -6.4928135142397844e+02 1.0000000000000000e+00 7.7854536951946960e+00 4.5101715246090315e+00 4.7562409707572648e+00 
44 1 2 1.0279999999999998e+00 -7.6040464902976123e+02 1.0000000000000000e+00 7.7854520740656188e+00 4.4981653453857646e+00 4.7647897921772602e+00 
73 1 2 1.0279999999999998e+00 -4.0615009002843732e+02 1.0000000000000000e+00 7.7906681577194403e+00 4.5044281882844039e+00 4.7614103493303004e+00 
74 1 2 1.0280000000000009e+00 -3.6589058462363982e+02 1.0000000000000000e+00 7.7911433153782248e+00 4.5029846369226156e+00 4.7625445634811019e+00 
79 1 2 1.0279999999999998e+00 -5.2068148087901170e+02 1.0000000000000000e+00 7.7899953881448356e+00 4.5057450759144730e+00 4.7603279320941017e+00 
80 1 2 1.0280000000000002e+00 -6.7343053864409683e+02 1.0000000000000000e+00 7.7946146801785101e+00 4.5065015953529732e+00 4.7608038373864394e+00 
1 1 2 1.0280000000000000e+00 -6.7963755998060242e+02 1.0000000000000000e+00 7.7845963094239181e+00 4.5026639137042777e+00 4.7613741644113148e+00 
7 1 2 1.0279999999999998e+00 -7.0476257374889735e+02 1.0000000000000000e+00 7.7836865753655982e+00 4.5115315886771903e+00 4.7549231583167222e+00 
13 1 2 1.0280000000000000e+00 -8.4156147447971159e+02 1.0000000000000000e+00 7.7827280319688930e+00 4.5168608045634535e+00 4.7510360417528075e+00 
50 1 2 1.0279999999999994e+00 -6.3465116268883764e+02 1.0000000000000000e+00 7.7916331853079717e+00 4.5311381560684056e+00 4.7432580107004298e+00 
49 1 2 1.0280000000000016e+00 -5.0722869093686671e+02 1.0000000000000000e+00 7.7965642232914369e+00 4.5494286983079029e+00 4.7324856744075259e+00 
14 1 2 1.0279999999999998e+00 -6.9827708638392107e+02 1.0000000000000000e+00 7.7859203539115063e+00 4.5361309950029503e+00 4.7387782734009525e+00 
8 1 2 1.0279999999999996e+00 -8.3521029201147189e+02 1.0000000000000000e+00 7.7626490523191771e+00 4.4482923245273902e+00 4.7987561371229965e+00 
3 1 2 1.0279999999999998e+00 -7.3358463211753030e+02 1.0000000000000000e+00 7.4554889939013371e+00 4.1289227264410959e+00 5.9732248623883857e+00 
39 1 2 1.0279999999999996e+00 -6.6854312405525775e+02 1.0000000000000000e+00 7.4854216758367622e+00 5.0944087870910852e+00 6.9440922669677168e+00 
9 1 2 1.0279999999999982e+00 -6.6448903292372029e+02 1.0000000000000000e+00 7.3063879343202229e+00 5.3272882758115054e+00 6.9576450399364047e+00 
10 1 2 1.0279999999999943e+00 -6.0531287638879633e+02 1.0000000000000000e+00 7.3162758302161457e+00 5.4049778780483058e+00 6.9620674492777361e+00 
4 1 2 1.0279999999999920e+00 -5.7879815222377908e+02 1.0000000000000000e+00 7.3311736547309989e+00 5.4522027240917108e+00 6.9638481757463380e+00 
46 1 2 1.0280000000000111e+00 -5.5144724319859301e+02 1.0000000000000000e+00 7.3777649132481091e+00 5.4926953012949546e+00 6.9693092255497744e+00 
45 1 2 1.0279999999999994e+00 -6.6722692850819169e+02 1.0000000000000000e+00 7.4610069601116047e+00 5.8466414540757228e+00 6.8832795313870845e+00 
21 1 2 1.0280000000000000e+00 -5.6554432955911295e+02 1.0000000000000000e+00 7.3678680489320527e+00 6.2374014792904564e+00 6.5300581909437181e+00 
58 1 2 1.0280000000000002e+00 -5.4911357448428544e+02 1.0000000000000000e+00 7.3679202079368649e+00 6.2370080354786559e+00 6.5306702749976830e+00 
16 1 2 1.0280000000000005e+00 -5.8616486106108323e+02 1.0000000000000000e+00 7.3677984240752528e+00 6.2368961346895144e+00 6.5308036017373237e+00 
22 1 2 1.0280000000000005e+00 -4.7268654193097905e+02 1.0000000000000000e+00 7.3680807504346930e+00 6.2367188167980796e+00 6.5311558348517105e+00 
86 1 2 1.0280000000000000e+00 -4.5576215414445534e+02 1.0000000000000000e+00 7.6202449392931548e+00 6.4162891072027515e+00 6.0338020798003393e+00 
87 1 2 1.0280000000000005e+00 -3.9359284593496915e+02 1.0000000000000000e+00 7.4167398150799926e+00 6.2011925675194828e+00 6.5924301166480124e+00 
51 1 2 1.0280000000000005e+00 -5.3379233505020784e+02 1.0000000000000000e+00 7.3754901547659646e+00 6.2346219665368778e+00 6.5364427140272419e+00 
52 1 2 1.0280000000000007e+00 -5.0388962363966698e+02 1.0000000000000000e+00 7.3841399905849441e+00 6.2186245123706518e+00 6.5618801088076717e+00 
57 1 2 1.0279999999999998e+00 -5.5556336392428091e+02 1.0000000000000000e+00 7.3681510758907214e+00 6.2373924100308349e+00 6.5301560557260645e+00 
15 1 2 1.0279999999999998e+00 -6.1046090377371354e+02 1.0000000000000000e+00 7.3681011683706839e+00 6.2370772453696572e+00 6.5306191256071191e+00 
20 1 2 1.0280000000000005e+00 -5.3602958023570545e+02 1.0000000000000000e+00 7.3679251262972141e+00 6.2376208257130923e+00 6.5297421690568669e+00 
82 1 2 1.0279999995222260e+00 -4.5684091874071237e+02 1.0000000000000000e+00 1.0134259926404200e+01 4.0953749710195453e+00 1.4547665707779398e+01 
81 1 2 1.0279999994525204e+00 -5.2688682991220139e+02 1.0000000000000000e+00 9.5263152862991536e+00 4.3771330655234921e+00 1.4660057568019782e+01 
88 1 2 1.0279999994762528e+00 -3.5300202946952675e+02 1.0000000000000000e+00 9.0308849920989758e+00 4.4129999299190130e+00 1.4974763631559412e+01 
75 1 2 1.0279999998880871e+00 -5.1061287832190135e+02 1.0000000000000000e+00 1.2957224023905740e+01 4.6171278891000664e+00 1.5271139000711125e+01 
125 1 2 1.0279999997884401e+00 -3.6979102103599251e+02 1.0000000000000000e+00 9.1997375144479694e+00 3.8490376318768025e+00 1.5976808480618736e+01 
119 1 2 1.0279999997884399e+00 -4.9862371473147908e+02 1.0000000000000000e+00 9.1997375155819547e+00 3.8490376306086067e+00 1.5976808480356967e+01 
149 1 2 1.0279999997884415e+00 -7.4386061290833334e+02 1.0000000000000000e+00 9.1997375145956237e+00 3.8490376329030505e+00 1.5976808482247753e+01 
155 1 2 1.0279999997884386e+00 -6.4191577327069422e+02 1.0000000000000000e+00 9.1997375143905220e+00 3.8490376329551670e+00 1.5976808482047677e+01 
120 1 2 1.0279999997884379e+00 -5.8069628721696654e+02 1.0000000000000000e+00 9.1997375145565705e+00 3.8490376325336415e+00 1.5976808481680148e+01 
114 1 2 1.0279999997884384e+00 -6.2293727718550895e+02 1.0000000000000000e+00 9.1997375151330232e+00 3.8490376317306465e+00 1.5976808481326080e+01 
162 1 2 1.0279999997884377e+00 -5.9842968031093892e+02 1.0000000000000000e+00 9.1997375140117885e+00 3.8490376331712657e+00 1.5976808481845506e+01 
150 1 2 1.0279999997884419e+00 -5.7491522001055955e+02 1.0000000000000000e+00 9.1997375146568867e+00 3.8490376327586149e+00 1.5976808482127625e+01 
126 1 2 1.0279999997884397e+00 -4.7327997917650953e+02 1.0000000000000000e+00 9.1997375145308684e+00 3.8490376321543494e+00 1.5976808481116464e+01 
156 1 2 1.0279999997884377e+00 -6.3523165930645257e+02 1.0000000000000000e+00 9.1997375144625710e+00 3.8490376329774421e+00 1.5976808482174626e+01 
53 1 2 1.0279999999436276e+00 -6.5442482344912207e+02 1.0000000000000000e+00 1.3244485311675389e+01 4.0831389213579312e+00 1.5653333640595314e+01 
90 1 2 1.0279999999436276e+00 -5.3591493013754553e+02 1.0000000000000000e+00 1.3244485311675389e+01 4.0831389213579312e+00 1.5653333640595314e+01 
6 1 2 1.0279999999436276e+00 -6.8591741779169240e+02 1.0000000000000000e+00 1.3244485311675389e+01 4.0831389213579312e+00 1.5653333640595314e+01 
12 1 2 1.0279999999436276e+00 -8.0706651800366865e+02 1.0000000000000000e+00 1.3244485311675389e+01 4.0831389213579312e+00 1.5653333640595314e+01 
78 1 2 1.0279999999436276e+00 -5.1826316613939457e+02 1.0000000000000000e+00 1.3244485311675389e+01 4.0831389213579312e+00 1.5653333640595314e+01 
48 1 2 1.0279999999436276e+00 -6.5326305848167908e+02 1.0000000000000000e+00 1.3244485311675389e+01 4.0831389213579312e+00 1.5653333640595314e+01 
42 1 2 1.0279999999436276e+00 -5.6687169934467204e+02 1.0000000000000000e+00 1.3244485311675389e+01 4.0831389213579312e+00 1.5653333640595314e+01 
41 1 2 1.0279999999436276e+00 -7.0254622339393632e+02 1.0000000000000000e+00 1.3244485311675389e+01 4.0831389213579312e+00 1.5653333640595314e+01 
47 1 2 1.0279999999436276e+00 -6.8806007100047248e+02 1.0000000000000000e+00 1.3244485311675389e+01 4.0831389213579312e+00 1.5653333640595314e+01 
84 1 2 1.0279999999436276e+00 -5.5961885068106312e+02 1.0000000000000000e+00 1.3244485311675389e+01 4.0831389213579312e+00 1.5653333640595314e+01 
11 1 2 1.0279999999436276e+00 -7.4056353278498079e+02 1.0000000000000000e+00 1.3244485311675389e+01 4.0831389213579312e+00 1.5653333640595314e+01 
5 1 2 1.0279999999436276e+00 -6.8868451982814781e+02 1.0000000000000000e+00 1.3244485311675389e+01 4.0831389213579312e+00 1.5653333640595314e+01 
89 1 2 1.0279999999436276e+00 -4.2981521898262406e+02 1.0000000000000000e+00 1.3244485311675389e+01 4.0831389213579312e+00 1.5653333640595314e+01 
54 1 2 1.0279999999436276e+00 -4.8420151346908091e+02 1.0000000000000000e+00 1.3244485311675389e+01 4.0831389213579312e+00 1.5653333640595314e+01 
83 1 2 1.0279999999436276e+00 -4.4035429287500267e+02 1.0000000000000000e+00 1.3244485311675389e+01 4.0831389213579312e+00 1.5653333640595314e+01 
18 1 2 1.0279999999436276e+00 -6.5558094935275324e+02 1.0000000000000000e+00 1.3244485311675389e+01 4.0831389213579312e+00 1.5653333640595314e+01 
17 1 2 1.0279999999436276e+00 -6.2324441045992376e+02 1.0000000000000000e+00 1.3244485311675389e+01 4.0831389213579312e+00 1.5653333640595314e+01 
113 1 2 1.0279999999431588e+00 -4.5885198416139610e+02 1.0000000000000000e+00 1.3244543488426576e+01 4.0835484827149537e+00 1.5653134896242443e+01 
77 1 2 1.0279999999462559e+00 -3.9771274293792567e+02 1.0000000000000000e+00 1.3244761786890100e+01 4.0844138140832600e+00 1.5651089516293649e+01 
40 1 2 1.0279999999466247e+00 -4.5926350270949035e+02 1.0000000000000000e+00 1.3244807689126446e+01 4.0846414288429020e+00 1.5650728314254756e+01 
76 1 2 1.0279999999465153e+00 -4.3129861159934899e+02 1.0000000000000000e+00 1.3244817730853509e+01 4.0847179857012712e+00 1.5650699853227295e+01 
111 1 2 1.0280000004259111e+00 -5.8233202761019311e+02 1.0000000000000000e+00 9.1506819678417308e+00 5.1039131772057535e+00 1.5288634141163069e+01 
112 1 2 1.0280000004810177e+00 -6.0065314434626555e+02 1.0000000000000000e+00 9.1350040444017253e+00 5.1084094991649636e+00 1.5335994330659108e+01 
124 1 2 1.0280000004390020e+00 -4.6866510309194001e+02 1.0000000000000000e+00 9.0509672960370313e+00 5.0396399840128536e+00 1.5353633655680293e+01 
118 1 2 1.0280000004790977e+00 -6.8212559294567575e+02 1.0000000000000000e+00 9.0848384732883609e+00 5.0738508837604819e+00 1.5361376590482285e+01 
117 1 2 1.0280000004873988e+00 -6.9355523338997284e+02 1.0000000000000000e+00 9.0881887625738944e+00 5.0780523306669227e+00 1.5365579530452816e+01 
148 1 2 1.0280000005285159e+00 -5.7236098695831572e+02 1.0000000000000000e+00 9.1227212028298048e+00 5.1106390333243494e+00 1.5378504202550983e+01 
147 1 2 1.0280000005253667e+00 -6.7994871363119375e+02 1.0000000000000000e+00 9.1103276138001785e+00 5.1014764443865150e+00 1.5382375262613463e+01 
123 1 2 1.0280000004817069e+00 -4.4287872485753439e+02 1.0000000000000000e+00 9.0537601927935274e+00 5.0510971545920622e+00 1.5382794564643174e+01 
154 1 2 1.0280000005322969e+00 -6.5948653313713260e+02 1.0000000000000000e+00 9.1018215833350116e+00 5.0967930670281056e+00 1.5392479382366393e+01 
153 1 2 1.0280000005297392e+00 -6.9777139212166594e+02 1.0000000000000000e+00 9.0939153403191408e+00 5.0906215530431149e+00 1.5394880312274354e+01 
159 1 2 1.0280000005146530e+00 -6.5157856587138372e+02 1.0000000000000000e+00 9.0717156265931003e+00 5.0713264878465880e+00 1.5396309021543344e+01 
160 1 2 1.0280000005338132e+00 -6.9727494330194190e+02 1.0000000000000000e+00 9.0786916765444410e+00 5.0800593069152145e+00 1.5407163512842642e+01 
68 1 2 4.7282410530841484e-01 -5.2052889144191579e+02 1.0000000000000000e+00 7.7502286033054046e+00 1.6413813189131250e+01 5.2601719430373546e+00 
69 1 2 4.7282410530841484e-01 -6.1305728604831756e+02 1.0000000000000000e+00 7.7502286033054046e+00 1.6413813189131226e+01 5.2601719430373493e+00 
26 1 2 4.7282410530841484e-01 -6.4925244551922833e+02 1.0000000000000000e+00 7.7502286033053975e+00 1.6413813189131236e+01 5.2601719430373537e+00 
2 1 2 4.7282410530841484e-01 -5.7630094917199028e+02 1.0000000000000000e+00 7.7502286033054038e+00 1.6413813189131226e+01 5.2601719430373581e+00 
31 1 2 4.7282410530841484e-01 -6.0768408482036830e+02 1.0000000000000000e+00 7.7502286033054038e+00 1.6413813189131226e+01 5.2601719430373581e+00 
63 1 2 4.7282410530841484e-01 -5.0510528921781861e+02 1.0000000000000000e+00 7.7502286033054046e+00 1.6413813189131261e+01 5.2601719430373564e+00 
32 1 2 4.7282410530841484e-01 -5.8701196895388989e+02 1.0000000000000000e+00 7.7502286033054020e+00 1.6413813189131226e+01 5.2601719430373581e+00 
62 1 2 4.7282410530841484e-01 -4.4565701054524789e+02 1.0000000000000000e+00 7.7502286033054046e+00 1.6413813189131254e+01 5.2601719430373546e+00 
33 1 2 4.7282410530841484e-01 -6.1083649575546622e+02 1.0000000000000000e+00 7.7502286033054038e+00 1.6413813189131226e+01 5.2601719430373581e+00 
105 1 2 4.7282410530841484e-01 -3.5466225553867793e+02 1.0000000000000000e+00 7.7502286033054046e+00 1.6413813189131233e+01 5.2601719430373519e+00 
27 1 2 4.7282410530841484e-01 -7.1862902365552532e+02 1.0000000000000000e+00 7.7502286033053975e+00 1.6413813189131233e+01 5.2601719430373564e+00 
59 1 2 1.0280000000000513e+00 -5.4235789767770564e+02 1.0000000000000000e+00 8.5684494653153944e+00 1.3484682356561661e+01 1.4799612831694493e+01 
65 1 2 1.0280000000000378e+00 -5.7524275373207456e+02 1.0000000000000000e+00 8.5784374537738888e+00 1.3586930116922019e+01 1.4769790554748999e+01 
95 1 2 1.0280000000000062e+00 -4.0761025783384787e+02 1.0000000000000000e+00 8.7985863022711204e+00 1.3229444064425557e+01 1.4985961343463172e+01 
100 1 2 1.0280000000000216e+00 -5.5083538239381267e+02 1.0000000000000000e+00 8.6993849524110143e+00 1.4128524859764571e+01 1.4828387826238838e+01 
101 1 2 1.0280000000000493e+00 -4.9233297667034265e+02 1.0000000000000000e+00 8.8070237253433596e+00 1.3997589109234594e+01 1.4812737497196204e+01 
64 1 2 1.0280000000000109e+00 -6.2681313228118393e+02 1.0000000000000000e+00 8.5127498329930340e+00 1.3951318604098775e+01 1.4760876679783683e+01 
29 1 2 1.0280000000000145e+00 -5.4840037499990694e+02 1.0000000000000000e+00 8.3244571192638919e+00 1.3723453355206582e+01 1.4775356817335954e+01 
34 1 2 1.0280000000000029e+00 -7.2341769659262536e+02 1.0000000000000000e+00 8.3895752440146687e+00 1.4045387779113517e+01 1.4797118043126815e+01 
23 1 2 1.0280000000000451e+00 -4.6939259711281466e+02 1.0000000000000000e+00 8.2811294851665966e+00 1.3586558034190066e+01 1.4809212133799456e+01 
28 1 2 1.0280000000000300e+00 -5.4323474179277116e+02 1.0000000000000000e+00 8.2855011230802535e+00 1.3751044507109095e+01 1.4784559847575711e+01 
35 1 2 1.0280000000000138e+00 -7.5333127853360793e+02 1.0000000000000000e+00 8.4063026763890356e+00 1.4144901480303163e+01 1.4831237712038181e+01 
71 1 2 1.0280000000000318e+00 -7.1671981321296494e+02 1.0000000000000000e+00 8.5727950747848016e+00 1.4216056625003858e+01 1.4855321064089205e+01 
70 1 2 1.0280000000000382e+00 -5.9598894133641841e+02 1.0000000000000000e+00 8.6631586290065581e+00 1.4304560488721711e+01 1.4920042090356464e+01 
106 1 2 1.0280000000000329e+00 -4.7337220961037906e+02 1.0000000000000000e+00 8.7695838033191578e+00 1.4357233953405661e+01 1.4988418105318532e+01 
107 1 2 1.0279999999999978e+00 -4.1643709693668200e+02 1.0000000000000000e+00 8.7882928053099665e+00 1.4411916125777962e+01 1.5046585876837982e+01 
96 1 2 1.0280000000000276e+00 -4.0700247621072185e+02 1.0000000000000000e+00 8.8153369481108417e+00 1.2946455469732477e+01 1.5362279464454231e+01 
60 1 2 1.0280000000000300e+00 -4.6472241631581619e+02 1.0000000000000000e+00 8.4845444759126707e+00 1.3658430949404980e+01 1.6829747405458402e+01 
66 1 2 1.0280000000000140e+00 -6.7258890599088591e+02 1.0000000000000000e+00 8.4845423401980717e+00 1.3658439568157622e+01 1.6829748185081794e+01 
102 1 2 1.0280000000000360e+00 -5.3669869634373993e+02 1.0000000000000000e+00 8.4845454337212782e+00 1.3658439930023086e+01 1.6829748378135026e+01 
97 1 2 1.0280000000000429e+00 -5.4618449166329378e+02 1.0000000000000000e+00 8.4845462278176349e+00 1.3658441358103339e+01 1.6829748565121644e+01 
61 1 2 1.0280000000000249e+00 -6.1616603846320197e+02 1.0000000000000000e+00 8.4845444924434794e+00 1.3658440384629818e+01 1.6829748377522005e+01 
24 1 2 1.0280000000000202e+00 -6.8248932769546229e+02 1.0000000000000000e+00 8.4845406274933861e+00 1.3658436376467563e+01 1.6829747770282694e+01 
72 1 2 1.0280000000000369e+00 -6.8107739654686873e+02 1.0000000000000000e+00 8.4845427858107207e+00 1.3658442939405793e+01 1.6829748554529168e+01 
19 1 2 1.0280000000000262e+00 -7.2457725267772810e+02 1.0000000000000000e+00 8.4845398804471035e+00 1.3658438006698349e+01 1.6829747900462159e+01 
30 1 2 1.0280000000000251e+00 -7.5707516375183229e+02 1.0000000000000000e+00 8.4845398128752105e+00 1.3658440778300479e+01 1.6829748182346318e+01 
25 1 2 1.0280000000000302e+00 -7.3773625971860133e+02 1.0000000000000000e+00 8.4845395218503494e+00 1.3658439516351354e+01 1.6829748037792967e+01 
55 1 2 1.0280000000000091e+00 -3.4140117572287500e+02 1.0000000000000000e+00 8.4845461138001195e+00 1.3658434604028974e+01 1.6829747864155543e+01 
108 1 2 1.0280000000000411e+00 -5.1276022151707252e+02 1.0000000000000000e+00 8.4845460242091182e+00 1.3658444162499626e+01 1.6829748843519702e+01 
36 1 2 1.0280000000000296e+00 -6.6854894888390288e+02 1.0000000000000000e+00 8.4845395197232456e+00 1.3658443852333932e+01 1.6829748483987562e+01 
67 1 2 1.0280000000000362e+00 -4.7263799083692561e+02 1.0000000000000000e+00 8.4845453888610010e+00 1.3658446816988164e+01 1.6829749084735816e+01 
127 1 2 1.0280000000000011e+00 -8.4863027235120694e+02 1.0000000000000000e+00 1.4130432637142709e+01 1.0742824641721507e+01 4.0611428781020988e+00 
128 1 2 1.0280000000000011e+00 -6.5802959634270144e+02 1.0000000000000000e+00 1.4061445254033996e+01 1.0662839210807304e+01 4.0738394858441058e+00 
133 1 2 1.0279999999999998e+00 -7.6000669024181320e+02 1.0000000000000000e+00 1.4224978663190116e+01 1.1041614891385338e+01 4.1181630932776896e+00 
164 1 2 1.0280000000000007e+00 -7.5801392809146614e+02 1.0000000000000000e+00 1.4248220177970747e+01 1.0846801672746432e+01 4.1312927658685350e+00 
169 1 2 1.0280000000000000e+00 -8.6423266667501821e+02 1.0000000000000000e+00 1.4199049066519631e+01 1.0862905153596000e+01 4.0728566956427645e+00 
170 1 2 1.0280000000000000e+00 -8.0526015163742204e+02 1.0000000000000000e+00 1.4268932114039963e+01 1.0988708317604820e+01 4.1586240856762009e+00 
163 1 2 1.0280000000000011e+00 -7.5886540737107339e+02 1.0000000000000000e+00 1.4095176739607300e+01 1.0683206771589182e+01 4.0766589741883772e+00 
92 1 2 1.0280000000000014e+00 -5.0585287122757177e+02 1.0000000000000000e+00 1.3565112295973243e+01 1.1099598105372662e+01 4.6440267268872049e+00 
158 1 2 1.0280000000000014e+00 -6.0347779541987904e+02 1.0000000000000000e+00 1.4036582759457795e+01 1.0626627375177886e+01 4.0946241815784905e+00 
122 1 2 1.0280000000000018e+00 -5.7007945728692800e+02 1.0000000000000000e+00 1.4014847199891745e+01 1.0617642693849675e+01 4.0946156133968072e+00 
85 1 2 1.0280000000000036e+00 -4.8424350175587369e+02 1.0000000000000000e+00 1.3991145032561651e+01 1.0613852203829884e+01 4.0904548535588763e+00 
91 1 2 1.0279999999999994e+00 -3.7975140710154335e+02 1.0000000000000000e+00 1.3477661363734748e+01 1.0817921926785797e+01 4.3032659419798964e+00 
56 1 2 1.0279999999999994e+00 -4.4605407080932832e+02 1.0000000000000000e+00 1.3470621918038754e+01 1.0836462467508518e+01 4.3158077992973265e+00 
157 1 2 1.0280000000000018e+00 -6.2770067258415042e+02 1.0000000000000000e+00 1.4021258464047687e+01 1.0616973098304868e+01 4.0978407279761555e+00 
121 1 2 1.0280000000000014e+00 -5.1972352057876913e+02 1.0000000000000000e+00 1.4011297114384277e+01 1.0613814329369117e+01 4.0972493540222104e+00 
134 1 2 1.0279999999999994e+00 -6.3569496473041954e+02 1.0000000000000000e+00 1.3797544436198743e+01 1.1242055325080340e+01 4.7007091393199696e+00 
98 1 2 1.0279999999999991e+00 -4.6339913170348882e+02 1.0000000000000000e+00 1.3636286484570279e+01 1.1162692943164682e+01 4.6762501888364341e+00 
99 1 2 1.0279999999999996e+00 -5.0326718803672611e+02 1.0000000000000000e+00 1.3699968906945848e+01 1.1152838424756949e+01 4.7318533286249140e+00 
93 1 2 1.0279999999999994e+00 -4.8054918967667794e+02 1.0000000000000000e+00 1.3709172109012696e+01 1.1101957139223929e+01 4.7660028440882698e+00 
94 1 2 1.0279999999999980e+00 -5.1533285694641063e+02 1.0000000000000000e+00 1.3730645629705343e+01 1.1121434221479463e+01 4.7665779928303786e+00 
135 1 2 1.0279999999999976e+00 -5.1626773079618988e+02 1.0000000000000000e+00 1.3766220048848922e+01 1.1137820698844472e+01 4.7718034016195716e+00 
165 1 2 1.0280000000000022e+00 -6.0559383468506405e+02 1.0000000000000000e+00 1.3914808658248537e+01 1.1166793870211649e+01 4.7757272078429187e+00 
171 1 2 1.0279999999999960e+00 -5.9640112804508169e+02 1.0000000000000000e+00 1.3837308057900010e+01 1.1159289478279637e+01 4.7767866981716285e+00 
129 1 2 1.0279999999999991e+00 -5.4628026410527445e+02 1.0000000000000000e+00 1.3762843274451420e+01 1.1125476754569448e+01 4.7773300142931525e+00 
130 1 2 1.0280000000000002e+00 -4.8580126876334890e+02 1.0000000000000000e+00 1.3767708811165679e+01 1.1115700926012465e+01 4.7839233385601565e+00 
139 1 2 6.8774415317587612e-01 -6.7030661505782757e+02 1.0000000000000000e+00 1.5165157980319959e+01 1.9850868773888081e+01 3.2095851358002605e+00 
140 1 2 6.8774415317587612e-01 -5.6531429015454250e+02 1.0000000000000000e+00 1.5165157980319959e+01 1.9850868773888081e+01 3.2095851358002605e+00 
175 1 2 6.8774415317587612e-01 -7.6588713294059312e+02 1.0000000000000000e+00 1.5165157980319959e+01 1.9850868773888081e+01 3.2095851358002632e+00 
176 1 2 6.8774415317587612e-01 -6.9911346291626728e+02 1.0000000000000000e+00 1.5165157980319959e+01 1.9850868773888081e+01 3.2095851358002605e+00 
177 1 2 6.8774415317587612e-01 -6.5578592743205547e+02 1.0000000000000000e+00 1.5165157980319959e+01 1.9850868773888081e+01 3.2095851358002605e+00 
141 1 2 6.8774415317587612e-01 -5.3913463520252060e+02 1.0000000000000000e+00 1.5165157980319959e+01 1.9850868773888081e+01 3.2095851358002605e+00 
103 1 2 6.8774415317587612e-01 -4.3713149558192822e+02 1.0000000000000000e+00 1.5165157980319959e+01 1.9850868773888081e+01 3.2095851358002605e+00 
104 1 2 6.8774415317587612e-01 -3.4602891289386037e+02 1.0000000000000000e+00 1.5165157980319959e+01 1.9850868773888081e+01 3.2095851358002605e+00 
109 1 2 6.8774415317587612e-01 -7.2314984544511140e+02 1.0000000000000000e+00 1.5165157980319941e+01 1.9850868773888074e+01 3.2095851358002578e+00 
110 1 2 6.8774415317587612e-01 -5.9836465527144753e+02 1.0000000000000000e+00 1.5165157980319961e+01 1.9850868773888074e+01 3.2095851358002578e+00 
146 1 2 6.8774415317587612e-01 -6.2562909298910381e+02 1.0000000000000000e+00 1.5165157980319941e+01 1.9850868773888074e+01 3.2095851358002578e+00 
145 1 2 6.8774415317587612e-01 -6.6105052746596698e+02 1.0000000000000000e+00 1.5165157980319931e+01 1.9850868773888074e+01 3.2095851358002605e+00 
152 1 2 6.8774415317587612e-01 -6.1754462051635676e+02 1.0000000000000000e+00 1.5165157980319963e+01 1.9850868773888074e+01 3.2095851358002605e+00 
151 1 2 6.8774415317587612e-01 -5.6347879355276859e+02 1.0000000000000000e+00 1.5165157980319927e+01 1.9850868773888074e+01 3.2095851358002569e+00 
116 1 2 6.8774415317587612e-01 -5.0972899573713426e+02 1.0000000000000000e+00 1.5165157980319961e+01 1.9850868773888074e+01 3.2095851358002614e+00 
115 1 2 6.8774415317587612e-01 -4.6056441201866880e+02 1.0000000000000000e+00 1.5165157980319975e+01 1.9850868773888074e+01 3.2095851358002587e+00 
131 1 2 7.7371217232286060e-01 -5.9402323375016749e+02 1.0000000000000000e+00 1.6107520102846770e+01 1.3282181540677781e+01 1.3612428868358961e+01 
136 1 2 7.7371217232286060e-01 -3.8309180741550409e+02 1.0000000000000000e+00 1.6107520102846795e+01 1.3282181540677804e+01 1.3612428868358990e+01 
137 1 2 7.7371217232286060e-01 -6.1079035545136344e+02 1.0000000000000000e+00 1.6107520102846763e+01 1.3282181540677804e+01 1.3612428868358990e+01 
166 1 2 7.7371217232286060e-01 -6.1952677069026367e+02 1.0000000000000000e+00 1.6107520102846770e+01 1.3282181540677781e+01 1.3612428868358979e+01 
167 1 2 7.7371217232286060e-01 -5.4685682981124512e+02 1.0000000000000000e+00 1.6107520102846770e+01 1.3282181540677781e+01 1.3612428868358956e+01 
172 1 2 7.7371217232286060e-01 -5.2920241901992858e+02 1.0000000000000000e+00 1.6107520102846713e+01 1.3282181540677783e+01 1.3612428868358990e+01 
173 1 2 7.7371217232286060e-01 -6.6962908690072538e+02 1.0000000000000000e+00 1.6107520102846770e+01 1.3282181540677781e+01 1.3612428868358990e+01 
132 1 2 7.7371217232286060e-01 -6.1689641862268297e+02 1.0000000000000000e+00 1.6107520102846770e+01 1.3282181540677781e+01 1.3612428868358986e+01 
138 1 2 7.7371217232286060e-01 -5.7186316262012599e+02 1.0000000000000000e+00 1.6107520102846795e+01 1.3282181540677783e+01 1.3612428868358988e+01 
168 1 2 7.7371217232286060e-01 -5.9904839508847635e+02 1.0000000000000000e+00 1.6107520102846770e+01 1.3282181540677781e+01 1.3612428868358988e+01 
174 1 2 7.7371217232286060e-01 -6.9096162685531908e+02 1.0000000000000000e+00 1.6107520102846770e+01 1.3282181540677781e+01 1.3612428868358990e+01 
143 1 2 7.7371217232286060e-01 -6.4317619963204368e+02 1.0000000000000000e+00 1.6107520102846717e+01 1.3282181540677771e+01 1.3612428868358990e+01 
144 1 2 7.7371217232286060e-01 -5.9670360367893250e+02 1.0000000000000000e+00 1.6107520102846795e+01 1.3282181540677781e+01 1.3612428868358975e+01 
142 1 2 7.7371217232286060e-01 -4.8838535914231852e+02 1.0000000000000000e+00 1.6107520102846795e+01 1.3282181540677804e+01 1.3612428868358990e+01 
179 1 2 7.7371217232286060e-01 -7.0347021615176720e+02 1.0000000000000000e+00 1.6107520102846713e+01 1.3282181540677794e+01 1.3612428868358990e+01 
180 1 2 7.7371217232286060e-01 -7.9208422973208462e+02 1.0000000000000000e+00 1.6107520102846713e+01 1.3282181540677794e+01 1.3612428868358990e+01 
161 1 2 7.7371217232286060e-01 -4.7163887363246664e+02 1.0000000000000000e+00 1.6107520102846770e+01 1.3282181540677781e+01 1.3612428868358988e+01 
178 1 2 7.7371217232286060e-01 -4.3869126565947272e+02 1.0000000000000000e+00 1.6107520102846713e+01 1.3282181540677797e+01 1.3612428868358990e+01 

Velocities

37 -1.9411533232526850e-05 -1.8298682651749863e-05 -5.4421729371842152e-05
38 -1.9411533161255468e-05 -1.8298682884735873e-05 -5.4421729700830290e-05
43 -1.9411533245004482e-05 -1.8298682608815219e-05 -5.4421729306607415e-05
44 -1.9411533215414010e-05 -1.8298682704325804e-05 -5.4421729448704313e-05
73 -1.9411533214779535e-05 -1.8298682709908283e-05 -5.4421729454994895e-05
74 -1.9411533147233458e-05 -1.8298682926845181e-05 -5.4421729760977931e-05
79 -1.9411533214775181e-05 -1.8298682709733761e-05 -5.4421729454404140e-05
80 -1.9411533187491101e-05 -1.8298682796094611e-05 -5.4421729577283427e-05
1 -1.9411533203791552e-05 -1.8298682744269178e-05 -5.4421729503728177e-05
7 -1.9411533216636383e-05 -1.8298682702375677e-05 -5.4421729441681143e-05
13 -1.9411533202658178e-05 -1.8298682749000836e-05 -5.4421729509098054e-05
50 -1.9411533242730629e-05 -1.8298682630717740e-05 -5.4421729323212465e-05
49 -1.9411533101287315e-05 -1.8298683027650742e-05 -5.4421729973231011e-05
14 -1.9411533215357282e-05 -1.8298682710428880e-05 -5.4421729446000516e-05
8 -1.9411533224200513e-05 -1.8298682642106718e-05 -5.4421729389254032e-05
3 -1.9411533168779293e-05 -1.8298682595183837e-05 -5.4421729607313035e-05
39 -1.9411533175378113e-05 -1.8298682707655138e-05 -5.4421729878404649e-05
9 -1.9411532983782676e-05 -1.8298682685391372e-05 -5.4421730457562641e-05
10 -1.9411532632199022e-05 -1.8298682627538388e-05 -5.4421732096388028e-05
4 -1.9411532505380849e-05 -1.8298682718910763e-05 -5.4421732951678801e-05
46 -1.9411533842428221e-05 -1.8298682765548519e-05 -5.4421725048429281e-05
45 -1.9411533169966355e-05 -1.8298682941965600e-05 -5.4421729896024690e-05
21 -1.9411533179839991e-05 -1.8298682839320464e-05 -5.4421729615422468e-05
58 -1.9411533192873819e-05 -1.8298682770548687e-05 -5.4421729574243175e-05
16 -1.9411533209882888e-05 -1.8298682683472205e-05 -5.4421729521959599e-05
22 -1.9411533208250015e-05 -1.8298682691409019e-05 -5.4421729526548227e-05
86 -1.9411533187835806e-05 -1.8298682843642619e-05 -5.4421729596564966e-05
87 -1.9411533196534668e-05 -1.8298682709023357e-05 -5.4421729523194139e-05
51 -1.9411533208448699e-05 -1.8298682681992283e-05 -5.4421729519664505e-05
52 -1.9411533223278982e-05 -1.8298682586982566e-05 -5.4421729449484708e-05
57 -1.9411533166870311e-05 -1.8298682907461361e-05 -5.4421729656715066e-05
15 -1.9411533166862847e-05 -1.8298682906678174e-05 -5.4421729655353952e-05
20 -1.9411533209708172e-05 -1.8298682684396762e-05 -5.4421729522801827e-05
82 -1.7010038036109469e-03 2.6284782140975697e-04 3.8428921232052803e-03
81 -1.7009807080695489e-03 2.6245859552081899e-04 3.8425095007249494e-03
88 -1.7009500513610952e-03 2.6227310280423413e-04 3.8421986096418572e-03
75 -1.7010068540490295e-03 2.6471947558663297e-04 3.8447506623406433e-03
125 -1.7010208600278071e-03 2.6238427259254798e-04 3.8420981449255312e-03
119 -1.7010208600273212e-03 2.6238427259363229e-04 3.8420981449255182e-03
149 -1.7010208600239736e-03 2.6238427259670806e-04 3.8420981449222400e-03
155 -1.7010208600349746e-03 2.6238427258438367e-04 3.8420981449309825e-03
120 -1.7010208600325338e-03 2.6238427258723192e-04 3.8420981449292430e-03