LAMMPS data file via write_data, version 30 Jul 2016, timestep = 50400000

3234 atoms
8 atom types

0.0000000000000000e+00 1.0000000000000000e+02 xlo xhi
0.0000000000000000e+00 4.0000000000000000e+01 ylo yhi
0.0000000000000000e+00 4.0000000000000000e+01 zlo zhi

Masses

1 3.896
2 5.36
3 20.064
4 8.378
5 8.378
6 8.378
7 8.378
8 8.378

Atoms # meso-molecular

225 226 2 1.0279999999999994e+00 -5.8935774238271824e+03 1.0000000000000000e+00 1.3304765490950208e+00 1.0000000000000000e+01 1.2627370151724829e-01 
104 105 2 1.0280000000000045e+00 6.3969927745477349e+01 1.0000000000000000e+00 2.7311689120432253e-01 1.0000000000000000e+01 2.2905628732238795e-02 
229 230 2 1.0279999999999985e+00 -1.1048502915134990e+04 1.0000000000000000e+00 2.5713476500166332e+00 1.0000000000000000e+01 8.6208031921675254e-01 
392 393 2 1.0279999999999918e+00 5.7645615231592328e+03 1.0000000000000000e+00 8.5489465597751551e+00 1.0000000000000000e+01 2.1141270319983343e-01 
444 445 2 1.0280000000000042e+00 1.1486928781900451e+03 1.0000000000000000e+00 9.7654508945146326e+00 1.0000000000000000e+01 1.2236469558823844e+00 
691 692 2 1.0279999999999934e+00 -1.1048516120085542e+04 1.0000000000000000e+00 1.4379715133963002e+00 1.3000000000000000e+01 5.7738533035999207e-01 
692 693 2 1.0280000000000034e+00 -7.8286122370091634e+03 1.0000000000000000e+00 6.5269955493227461e-01 1.3000000000000000e+01 1.9440155175197391e+00 
609 610 2 1.0280000000000056e+00 4.8325096409828961e+02 1.0000000000000000e+00 2.2766396266028472e+00 1.3000000000000000e+01 3.4120543580888107e-01 
690 691 2 1.0280000000000094e+00 -8.1516907004563172e+03 1.0000000000000000e+00 5.2682580939114896e+00 1.3000000000000000e+01 6.0342062644418082e-01 
484 485 2 1.0279999999999934e+00 8.6340967204812750e+02 1.0000000000000000e+00 5.9829523395586319e+00 1.3000000000000000e+01 4.6415189209845198e-01 
565 566 2 1.0279999999999920e+00 -6.7503585388592546e+02 1.0000000000000000e+00 8.1590846566235715e+00 1.3000000000000000e+01 3.0082458420597935e-01 
650 651 2 1.0279999999999916e+00 1.6083041209280364e+03 1.0000000000000000e+00 8.9201842751764016e+00 1.3000000000000000e+01 2.2774907903205233e-01 
521 522 2 1.0280000000000011e+00 -7.5482449194731657e+02 1.0000000000000000e+00 1.0730411804839212e+01 1.3000000000000000e+01 2.6759050148613850e-01 
939 940 2 1.0279999999999985e+00 -2.0615342474757135e+03 1.0000000000000000e+00 1.2081915292820993e+00 1.6000000000000000e+01 3.9777635936351269e-01 
1028 1029 2 1.0280000000000151e+00 5.9728406080397377e+01 1.0000000000000000e+00 2.3578246193678681e-01 1.6000000000000000e+01 1.7859736080128292e+00 
1069 1070 2 1.0280000000000087e+00 -1.4421640899160025e+03 1.0000000000000000e+00 2.8158320510214949e+00 1.6000000000000000e+01 6.7590791477993883e-01 
984 985 2 1.0280000000000078e+00 2.2147753683299297e+03 1.0000000000000000e+00 3.2101046646894007e+00 1.6000000000000000e+01 1.9260818404480344e+00 
1030 1031 2 1.0280000000000007e+00 1.0369983393842979e+03 1.0000000000000000e+00 4.3099398981616748e+00 1.6000000000000000e+01 1.1442987688392009e-01 
942 943 2 1.0279999999999805e+00 -6.3681374705029612e+02 1.0000000000000000e+00 4.5171878226930602e+00 1.6000000000000000e+01 1.7699848494539665e+00 
1191 1192 2 1.0279999999999989e+00 2.2603493624386709e+02 1.0000000000000000e+00 6.4086947993612702e+00 1.6000000000000000e+01 1.2908706429442962e+00 
1359 1360 2 1.0280000000000105e+00 -2.0309711138152754e+03 1.0000000000000000e+00 7.3047469741371849e+00 1.6000000000000000e+01 1.5754924378380042e+00 
1349 1350 2 1.0279999999999916e+00 -2.2698912844883063e+02 1.0000000000000000e+00 9.6662768373232453e+00 1.6000000000000000e+01 3.3246930082180909e-01 
1065 1066 2 1.0280000000000034e+00 8.1936270300479976e+01 1.0000000000000000e+00 1.1835266783369088e+01 1.6000000000000000e+01 2.8042918188412430e-01 
1569 1570 2 1.0279999999999989e+00 2.2848741957845783e+02 1.0000000000000000e+00 1.2208587602693637e+00 1.9000000000000000e+01 1.4916424349375514e+00 
1389 1390 2 1.0280000000000025e+00 1.4938865144203965e+03 1.0000000000000000e+00 3.5378867516690343e-01 1.9000000000000000e+01 2.7477783015818286e-01 
1401 1402 2 1.0279999999999998e+00 -2.0607849271298510e+03 1.0000000000000000e+00 2.0228999811433255e-02 1.9000000000000000e+01 1.7016974635318627e+00 
1485 1486 2 1.0279999999999996e+00 2.1033270923551263e+03 1.0000000000000000e+00 3.1827430796249616e+00 1.9000000000000000e+01 1.8734576651958408e+00 
1477 1478 2 1.0279999999999996e+00 -1.3127624067544266e+03 1.0000000000000000e+00 2.6394935750911035e+00 1.9000000000000000e+01 7.5205822188652516e-02 
1528 1529 2 1.0280000000000011e+00 2.3013737392805110e+03 1.0000000000000000e+00 3.7566587827119089e+00 1.9000000000000000e+01 4.6721793207870699e-01 
1524 1525 2 1.0280000000000007e+00 1.4551249543855515e+03 1.0000000000000000e+00 5.4348063714452310e+00 1.9000000000000000e+01 9.6841120519381185e-01 
1529 1530 2 1.0279999999999991e+00 -1.6240163106994146e+02 1.0000000000000000e+00 6.7645823122914894e+00 1.9000000000000000e+01 1.8929840284858193e-01 
1821 1822 2 1.0280000000000016e+00 -2.0318343622376165e+03 1.0000000000000000e+00 8.9706230996628165e+00 1.9000000000000000e+01 1.1159433782222117e+00 
1653 1654 2 1.0280000000000000e+00 2.2751466818821979e+02 1.0000000000000000e+00 9.7179931641101778e+00 1.9000000000000000e+01 5.9842182014818601e-01 
1645 1646 2 1.0279999999999994e+00 -4.5429491731804283e+03 1.0000000000000000e+00 1.1903975360875789e+01 1.9000000000000000e+01 1.3585310095864240e+00 
1603 1604 2 1.0279999999999987e+00 -2.0915049940239464e+03 1.0000000000000000e+00 1.2012385813737732e+01 1.9000000000000000e+01 8.9125757814306726e-03 
1646 1647 2 1.0280000000000014e+00 -1.0398804432697116e+03 1.0000000000000000e+00 1.3387748816373387e+01 1.9000000000000000e+01 1.3807499647172818e+00 
1484 1485 2 1.0279999999999996e+00 2.2533219544943827e+03 1.0000000000000000e+00 1.4908220417192105e+01 1.9000000000000000e+01 1.8874038041199170e+00 
1609 1610 2 1.0279999999999998e+00 -8.4725346653271081e+03 1.0000000000000000e+00 1.4962762069407978e+01 1.9000000000000000e+01 5.9852158860612903e-01 
1439 1440 2 1.0280000000000029e+00 5.0361731335302175e+03 1.0000000000000000e+00 1.6891351522242427e+01 1.9000000000000000e+01 1.2922555822152317e+00 
1775 1776 2 1.0279999999999969e+00 5.0325879780589494e+03 1.0000000000000000e+00 1.7032774016032555e+01 1.9000000000000000e+01 7.6731044357885381e-01 
395 396 2 1.0279999999999987e+00 -8.3970703216793459e+02 1.0000000000000000e+00 2.8698926980538625e-01 1.0000000000000000e+01 2.6845071930590834e+00 
394 395 2 1.0280000000000014e+00 3.8929176583231665e+03 1.0000000000000000e+00 1.7245602644754185e-01 1.0000000000000000e+01 3.9890031496323961e+00 
230 231 2 1.0280000000000020e+00 -7.8291361465064820e+03 1.0000000000000000e+00 2.4412418668620353e+00 1.0000000000000000e+01 2.2205120817729833e+00 
273 274 2 1.0280000000000020e+00 3.1407145498358832e+03 1.0000000000000000e+00 2.5915832989241427e+00 1.0000000000000000e+01 3.2184711391481193e+00 
440 441 2 1.0280000000000042e+00 -3.0533455663299435e+01 1.0000000000000000e+00 5.1199421394453601e+00 1.0000000000000000e+01 2.3362449146593880e+00 
62 63 2 1.0279999999999991e+00 1.9065743850711553e+03 1.0000000000000000e+00 4.8770663203120126e+00 1.0000000000000000e+01 2.6457689202397132e+00 
232 233 2 1.0279999999999945e+00 -5.6928937686564059e+03 1.0000000000000000e+00 7.0168435124128754e+00 1.0000000000000000e+01 3.3216125175063747e+00 
235 236 2 1.0279999999999989e+00 -8.0644912518059082e+03 1.0000000000000000e+00 7.7928013740076221e+00 1.0000000000000000e+01 3.8295923480905136e+00 
30 31 2 1.0280000000000029e+00 1.8133589154617302e+03 1.0000000000000000e+00 9.6995723565961232e+00 1.0000000000000000e+01 2.4182138163262756e+00 
317 318 2 1.0280000000000000e+00 1.2068550317482568e+03 1.0000000000000000e+00 1.0903346021828202e+01 1.0000000000000000e+01 3.3495254203416067e+00 
319 320 2 1.0279999999999945e+00 5.0118953888132057e+02 1.0000000000000000e+00 1.1213676297477480e+01 1.0000000000000000e+01 2.4651432563069138e+00 
778 779 2 1.0279999999999918e+00 1.1374258489002589e+03 1.0000000000000000e+00 1.6342278665056369e+00 1.3000000000000000e+01 3.7007673912845616e+00 
736 737 2 1.0280000000000027e+00 3.4861039356448027e+03 1.0000000000000000e+00 2.0477144213509617e+00 1.3000000000000000e+01 2.8076458143321643e+00 
904 905 2 1.0280000000000042e+00 8.8095265055749769e+02 1.0000000000000000e+00 3.7733631001836176e+00 1.3000000000000000e+01 2.6021353472068678e+00 
903 904 2 1.0279999999999991e+00 8.7334323572931311e+01 1.0000000000000000e+00 4.5826143956692844e+00 1.3000000000000000e+01 2.4410797882967166e+00 
478 479 2 1.0279999999999931e+00 -2.5951764941493811e+03 1.0000000000000000e+00 1.0742879341392078e+01 1.3000000000000000e+01 3.9519047422957008e+00 
528 529 2 1.0280000000000036e+00 3.8971772161770041e+03 1.0000000000000000e+00 1.2079807343557038e+01 1.3000000000000000e+01 2.1714717861569715e+00 
527 528 2 1.0279999999999949e+00 1.5659763209735725e+03 1.0000000000000000e+00 1.1399095448039633e+01 1.3000000000000000e+01 2.3751369032339351e+00 
861 862 2 1.0279999999999931e+00 2.3082503470446693e+02 1.0000000000000000e+00 1.3610679382796292e+01 1.3000000000000000e+01 3.1228605464284755e+00 
902 903 2 1.0280000000000042e+00 -4.5083350666268203e+01 1.0000000000000000e+00 1.3388991262963327e+01 1.3000000000000000e+01 3.7664883148458035e+00 
908 909 2 1.0279999999999987e+00 -2.6038757772895242e+03 1.0000000000000000e+00 1.5789603436297265e+01 1.3000000000000000e+01 2.9010129587302940e+00 
909 910 2 1.0279999999999982e+00 -2.6977309925551463e+03 1.0000000000000000e+00 1.5836556325987400e+01 1.3000000000000000e+01 3.2713487302371274e+00 
780 781 2 1.0280000000000085e+00 -1.4761115157033105e+03 1.0000000000000000e+00 1.8221101270613129e+01 1.3000000000000000e+01 3.9728812404699916e+00 
1149 1150 2 1.0279999999999896e+00 -5.8920323459930951e+03 1.0000000000000000e+00 1.4414811452887903e+00 1.6000000000000000e+01 2.5257684149276556e+00 
1153 1154 2 1.0280000000000113e+00 -1.1049892782675837e+04 1.0000000000000000e+00 2.2033100504572691e+00 1.6000000000000000e+01 3.5743342313710014e+00 
982 983 2 1.0280000000000100e+00 3.7715597058612830e+03 1.0000000000000000e+00 5.4245143783063003e+00 1.6000000000000000e+01 2.9895012400510153e+00 
1071 1072 2 1.0280000000000038e+00 4.8351171379811854e+02 1.0000000000000000e+00 4.6147805827911261e+00 1.6000000000000000e+01 3.8314553923729004e+00 
1024 1025 2 1.0280000000000080e+00 2.5882461672299619e+03 1.0000000000000000e+00 7.0910512680415678e+00 1.6000000000000000e+01 3.3249081290128748e+00 
1025 1026 2 1.0280000000000058e+00 2.2507730045788790e+03 1.0000000000000000e+00 8.0185057820376269e+00 1.6000000000000000e+01 3.3430865855965153e+00 
1112 1113 2 1.0280000000000087e+00 1.6064452930968419e+03 1.0000000000000000e+00 9.9497501109331061e+00 1.6000000000000000e+01 2.0545378767136073e+00 
1027 1028 2 1.0279999999999965e+00 -6.7514018296811082e+02 1.0000000000000000e+00 9.4272352118296396e+00 1.6000000000000000e+01 2.7056782704594449e+00 
983 984 2 1.0280000000000042e+00 -7.5549356140844361e+02 1.0000000000000000e+00 1.1662044950405019e+01 1.6000000000000000e+01 2.6914102159106985e+00 
1113 1114 2 1.0279999999999920e+00 3.3193072675188751e+03 1.0000000000000000e+00 1.2271281397034619e+01 1.6000000000000000e+01 2.7255913893586530e+00 
1313 1314 2 1.0279999999999945e+00 5.0319133644050144e+03 1.0000000000000000e+00 1.4250830321670906e+01 1.6000000000000000e+01 2.7565418957892982e+00 
977 978 2 1.0279999999999923e+00 5.0361543729742771e+03 1.0000000000000000e+00 1.4187743103403763e+01 1.6000000000000000e+01 3.2234573214323068e+00 
1531 1532 2 1.0280000000000014e+00 -1.4426553312360256e+03 1.0000000000000000e+00 1.9861040516894786e+00 1.9000000000000000e+01 3.0688697551335422e+00 
1492 1493 2 1.0279999999999998e+00 1.0410706582379423e+03 1.0000000000000000e+00 3.6793685371039428e+00 1.9000000000000000e+01 3.0657764518742385e+00 
1446 1447 2 1.0279999999999987e+00 2.2146922751061607e+03 1.0000000000000000e+00 5.6371970519547565e+00 1.9000000000000000e+01 2.1188728831563970e+00 
1404 1405 2 1.0280000000000022e+00 -6.3886794183370012e+02 1.0000000000000000e+00 6.7361973305076583e+00 1.9000000000000000e+01 2.8539094213454597e+00 
1811 1812 2 1.0280000000000002e+00 -2.2698209777764998e+02 1.0000000000000000e+00 8.2254509852908786e+00 1.9000000000000000e+01 2.7282537493103614e+00 
1685 1686 2 1.0279999999999996e+00 -7.4388851181678183e+02 1.0000000000000000e+00 9.1309439384183726e+00 1.9000000000000000e+01 3.2263717226553421e+00 
1695 1696 2 1.0280000000000000e+00 1.0671875502353846e+02 1.0000000000000000e+00 1.0607656895332827e+01 1.9000000000000000e+01 2.4539625397868479e+00 
1736 1737 2 1.0279999999999998e+00 2.2505355277486824e+03 1.0000000000000000e+00 1.1502197457606901e+01 1.9000000000000000e+01 3.0542467023653650e+00 
1527 1528 2 1.0279999999999991e+00 8.3505156798338319e+01 1.0000000000000000e+00 1.3834613658045914e+01 1.9000000000000000e+01 2.7827350756215972e+00 
1698 1699 2 1.0279999999999991e+00 5.7455350304392641e+02 1.0000000000000000e+00 1.8246983680859817e+01 1.9000000000000000e+01 3.9377250013737997e+00 
438 439 2 1.0280000000000049e+00 -6.6055721503999553e+02 1.0000000000000000e+00 5.1106229861509880e-02 1.0000000000000000e+01 5.4132421856974782e+00 
315 316 2 1.0279999999999989e+00 6.5713566282846523e+02 1.0000000000000000e+00 1.6367731268000807e+00 1.0000000000000000e+01 4.3465019265776368e+00 
228 229 2 1.0280000000000009e+00 -8.1470691598451640e+03 1.0000000000000000e+00 2.8546797361573208e+00 1.0000000000000000e+01 5.0888971126400211e+00 
22 23 2 1.0279999999999985e+00 8.6449463828453395e+02 1.0000000000000000e+00 3.6168136392409620e+00 1.0000000000000000e+01 5.8053969800004230e+00 
221 222 2 1.0279999999999958e+00 6.6298350402100423e+03 1.0000000000000000e+00 6.1178577943554719e+00 1.0000000000000000e+01 4.6962752313124092e+00 
222 223 2 1.0279999999999967e+00 -5.7769885436042523e+03 1.0000000000000000e+00 6.8252037168505639e+00 1.0000000000000000e+01 5.1808643366839027e+00 
16 17 2 1.0279999999999965e+00 -2.5949236581924670e+03 1.0000000000000000e+00 9.3104209662425621e+00 1.0000000000000000e+01 5.3008395555969434e+00 
57 58 2 1.0280000000000007e+00 -6.7170636627848864e+01 1.0000000000000000e+00 9.7398727341047007e+00 1.0000000000000000e+01 4.8691386310979441e+00 
437 438 2 1.0280000000000009e+00 -2.5537732830520035e+03 1.0000000000000000e+00 1.2749981946085713e+01 1.0000000000000000e+01 5.4399015153014689e+00 
17 18 2 1.0279999999999967e+00 -2.6493716462509942e+03 1.0000000000000000e+00 1.4056640487399585e+01 1.0000000000000000e+01 4.1885232757703781e+00 
61 62 2 1.0280000000000034e+00 3.8182258564785598e+03 1.0000000000000000e+00 1.4388902014451059e+01 1.0000000000000000e+01 4.6649538700411837e+00 
735 736 2 1.0279999999999991e+00 3.1398349261459152e+03 1.0000000000000000e+00 2.6244511191187181e-01 1.3000000000000000e+01 4.0804102486870599e+00 
818 819 2 1.0279999999999974e+00 1.1904490960271610e+02 1.0000000000000000e+00 5.1766708441078597e+00 1.3000000000000000e+01 4.1540697130527064e+00 
688 689 2 1.0280000000000071e+00 -1.0910499363588464e+04 1.0000000000000000e+00 4.5626912380122961e+00 1.3000000000000000e+01 4.3798661346550212e+00 
854 855 2 1.0280000000000029e+00 5.7645360528798828e+03 1.0000000000000000e+00 7.5872843541648409e+00 1.3000000000000000e+01 4.7489259492012375e+00 
852 853 2 1.0280000000000022e+00 -2.4491005530459378e+02 1.0000000000000000e+00 8.1018978112419742e+00 1.3000000000000000e+01 4.3398754799824903e+00 
906 907 2 1.0279999999999974e+00 1.1479213832081452e+03 1.0000000000000000e+00 8.8777582371556623e+00 1.3000000000000000e+01 5.8688842485542168e+00 
519 520 2 1.0280000000000025e+00 -6.2706347597786717e+01 1.0000000000000000e+00 1.0456921197506116e+01 1.3000000000000000e+01 4.8351580083791230e+00 
524 525 2 1.0280000000000007e+00 1.9022557766172777e+03 1.0000000000000000e+00 1.2090987671933027e+01 1.3000000000000000e+01 5.0105845699450953e+00 
819 820 2 1.0279999999999920e+00 9.9316816006541831e+02 1.0000000000000000e+00 1.8113289050769431e+01 1.3000000000000000e+01 4.2619671868479418e+00 
1319 1320 2 1.0280000000000049e+00 -8.3811153853246151e+02 1.0000000000000000e+00 1.0474617391215566e+00 1.6000000000000000e+01 4.5157776983927116e+00 
1063 1064 2 1.0280000000000094e+00 1.3222442099570012e+03 1.0000000000000000e+00 4.3604952693369270e-01 1.6000000000000000e+01 5.7419541744505302e+00 
1197 1198 2 1.0279999999999938e+00 3.1379202695981708e+03 1.0000000000000000e+00 2.7887048851022715e+00 1.6000000000000000e+01 5.0441443719295949e+00 
1154 1155 2 1.0280000000000200e+00 -7.8269210723181259e+03 1.0000000000000000e+00 4.0396055805299662e+00 1.6000000000000000e+01 4.9406840844461364e+00 
1611 1612 2 1.0280000000000002e+00 -5.8917787745915612e+03 1.0000000000000000e+00 1.5110488952675420e+00 1.9000000000000000e+01 4.3389131435166117e+00 
1573 1574 2 1.0279999999999998e+00 4.1661014296091880e+03 1.0000000000000000e+00 1.9050587159932161e-01 1.9000000000000000e+01 5.2204568480580154e+00 
1615 1616 2 1.0279999999999974e+00 -1.1049396100473026e+04 1.0000000000000000e+00 3.2459845456197800e+00 1.9000000000000000e+01 4.2953022408036867e+00 
1659 1660 2 1.0280000000000016e+00 3.1383851934318272e+03 1.0000000000000000e+00 3.2050175888035284e+00 1.9000000000000000e+01 5.9419271895807233e+00 
1533 1534 2 1.0280000000000029e+00 4.8383282403440569e+02 1.0000000000000000e+00 5.2695942830494902e+00 1.9000000000000000e+01 4.9573322057003164e+00 
1616 1617 2 1.0279999999999989e+00 -7.8268461478672125e+03 1.0000000000000000e+00 4.3867345627028342e+00 1.9000000000000000e+01 5.8423749421905189e+00 
1444 1445 2 1.0279999999999985e+00 3.7719554474986298e+03 1.0000000000000000e+00 5.9270717846112699e+00 1.9000000000000000e+01 4.0191869617176978e+00 
1486 1487 2 1.0280000000000014e+00 2.5883978075594068e+03 1.0000000000000000e+00 7.5138607382756799e+00 1.9000000000000000e+01 5.0920590121373843e+00 
1487 1488 2 1.0280000000000016e+00 2.2508906696781746e+03 1.0000000000000000e+00 8.0194154437344789e+00 1.9000000000000000e+01 5.4235692883382116e+00 
1489 1490 2 1.0279999999999994e+00 -6.7470730437852944e+02 1.0000000000000000e+00 9.7037457971495851e+00 1.9000000000000000e+01 4.8337041376706331e+00 
1574 1575 2 1.0280000000000009e+00 1.6073025328521676e+03 1.0000000000000000e+00 1.0714059786118579e+01 1.9000000000000000e+01 4.7850742341246750e+00 
1445 1446 2 1.0279999999999998e+00 -7.5559435176144234e+02 1.0000000000000000e+00 1.2570432468543263e+01 1.9000000000000000e+01 4.3416377100491417e+00 
1575 1576 2 1.0280000000000007e+00 3.3191624162055668e+03 1.0000000000000000e+00 1.3458210204560624e+01 1.9000000000000000e+01 4.1757507023333735e+00 
1530 1531 2 1.0279999999999991e+00 5.0654494998521045e+02 1.0000000000000000e+00 1.8525723067817641e+01 1.9000000000000000e+01 4.0526156945164589e+00 
396 397 2 1.0280000000000027e+00 2.2593593386004150e+03 1.0000000000000000e+00 1.3335379264493958e+00 1.0000000000000000e+01 6.8606792449728085e+00 
20 21 2 1.0279999999999994e+00 -8.6275844199375001e+01 1.0000000000000000e+00 5.9013428305500870e-01 1.0000000000000000e+01 7.7898689245220840e+00 
307 308 2 1.0279999999999982e+00 1.2912234300302298e+03 1.0000000000000000e+00 2.5067733444005391e+00 1.0000000000000000e+01 7.5719092210856163e+00 
347 348 2 1.0280000000000054e+00 -4.5476900410840153e+03 1.0000000000000000e+00 4.3440486580474715e+00 1.0000000000000000e+01 6.9133338444022323e+00 
211 212 2 1.0279999999999998e+00 2.0718634790742607e+02 1.0000000000000000e+00 5.6167583261280676e+00 1.0000000000000000e+01 7.4387538466206431e+00 
218 219 2 1.0279999999999982e+00 -2.9484504145096735e+03 1.0000000000000000e+00 6.9680520937636139e+00 1.0000000000000000e+01 7.5395188837970606e+00 
450 451 2 1.0279999999999976e+00 1.8703854869534221e+03 1.0000000000000000e+00 9.8496862198514208e+00 1.0000000000000000e+01 7.3600074984106714e+00 
24 25 2 1.0279999999999985e+00 1.2726525318353924e+03 1.0000000000000000e+00 1.0449670605951724e+01 1.0000000000000000e+01 6.9256972618815809e+00 
397 398 2 1.0280000000000000e+00 3.8235675384136712e+03 1.0000000000000000e+00 1.2382328321587918e+01 1.0000000000000000e+01 6.1345679785415888e+00 
26 27 2 1.0280000000000031e+00 -2.5710060270731956e+03 1.0000000000000000e+00 1.2172307166085774e+01 1.0000000000000000e+01 7.7605051301063268e+00 
769 770 2 1.0279999999999914e+00 1.2956477302604574e+03 1.0000000000000000e+00 8.7721187362584563e-01 1.3000000000000000e+01 7.5483946033055691e+00 
809 810 2 1.0280000000000007e+00 -4.5510759181504964e+03 1.0000000000000000e+00 1.8969069655527615e+00 1.3000000000000000e+01 7.1819309560040177e+00 
680 681 2 1.0279999999999987e+00 -2.9479669905558621e+03 1.0000000000000000e+00 2.9519833819219516e+00 1.3000000000000000e+01 7.9757842694427321e+00 
694 695 2 1.0279999999999982e+00 -5.6926815271255409e+03 1.0000000000000000e+00 4.2813287606408794e+00 1.3000000000000000e+01 6.9117628197793719e+00 
697 698 2 1.0280000000000040e+00 -8.0640901471342158e+03 1.0000000000000000e+00 5.0447761326621166e+00 1.3000000000000000e+01 6.6503466975645447e+00 
892 893 2 1.0279999999999927e+00 -2.7975800529690778e+03 1.0000000000000000e+00 6.3506326981306875e+00 1.3000000000000000e+01 7.5393848315233338e+00 
492 493 2 1.0279999999999954e+00 1.8132598544553589e+03 1.0000000000000000e+00 8.9544256955311123e+00 1.3000000000000000e+01 7.0203063132560155e+00 
781 782 2 1.0279999999999958e+00 5.0082426073163469e+02 1.0000000000000000e+00 1.0477169558674923e+01 1.3000000000000000e+01 6.9051236994704341e+00 
779 780 2 1.0279999999999980e+00 1.2065921560005675e+03 1.0000000000000000e+00 1.0550166988542534e+01 1.3000000000000000e+01 7.9475852710359902e+00 
817 818 2 1.0280000000000042e+00 -6.1588406402804344e+02 1.0000000000000000e+00 1.2460485198507817e+01 1.3000000000000000e+01 6.1043981693891789e+00 
734 735 2 1.0280000000000025e+00 1.5883710980094734e+03 1.0000000000000000e+00 1.3741734158391457e+01 1.3000000000000000e+01 6.5182665712795886e+00 
606 607 2 1.0280000000000011e+00 5.0368784666041540e+02 1.0000000000000000e+00 1.4051522753203347e+01 1.3000000000000000e+01 7.8421573423120581e+00 
774 775 2 1.0280000000000009e+00 5.7404886313711393e+02 1.0000000000000000e+00 1.3092475038867097e+01 1.3000000000000000e+01 7.8939381982611065e+00 
1362 1363 2 1.0280000000000062e+00 -6.6005759210986366e+02 1.0000000000000000e+00 3.2044456740298091e+00 1.6000000000000000e+01 6.6112646827452970e+00 
1194 1195 2 1.0279999999999989e+00 4.5929142833840360e+03 1.0000000000000000e+00 2.5077801638853834e+00 1.6000000000000000e+01 7.6828169480021264e+00 
1320 1321 2 1.0279999999999987e+00 2.2648279392798040e+03 1.0000000000000000e+00 4.6613364750613782e+00 1.6000000000000000e+01 7.0378837579952345e+00 
1231 1232 2 1.0279999999999949e+00 1.2940335606800822e+03 1.0000000000000000e+00 5.2535818562622980e+00 1.6000000000000000e+01 7.7896100220269071e+00 
1237 1238 2 1.0280000000000025e+00 -1.4564390940199842e+03 1.0000000000000000e+00 8.4132695625202292e+00 1.6000000000000000e+01 6.7683660108067691e+00 
1271 1272 2 1.0279999999999951e+00 -4.5438450302444617e+03 1.0000000000000000e+00 7.6972447048969581e+00 1.6000000000000000e+01 6.9003176101160566e+00 
1276 1277 2 1.0279999999999996e+00 2.5262180935765955e+03 1.0000000000000000e+00 1.0052950174284943e+01 1.6000000000000000e+01 7.9554064109148150e+00 
1281 1282 2 1.0279999999999982e+00 9.9595234593048872e+02 1.0000000000000000e+00 2.9251097960358912e+01 1.6000000000000000e+01 7.4450455128117561e+00 
1242 1243 2 1.0279999999999982e+00 -1.4719167834244058e+03 1.0000000000000000e+00 2.9419140485641684e+01 1.6000000000000000e+01 7.6953597691157389e+00 
1781 1782 2 1.0279999999999989e+00 -8.3859971489813938e+02 1.0000000000000000e+00 1.6683506805737711e+00 1.9000000000000000e+01 6.1698820371023473e+00 
1572 1573 2 1.0280000000000016e+00 4.5890852553575205e+03 1.0000000000000000e+00 8.7809643817080751e-01 1.9000000000000000e+01 7.4817404613819383e+00 
1525 1526 2 1.0279999999999989e+00 1.3219127936867762e+03 1.0000000000000000e+00 2.1757028335366608e+00 1.9000000000000000e+01 7.6237084462981910e+00 
1833 1834 2 1.0280000000000000e+00 -2.6955676055979748e+03 1.0000000000000000e+00 1.0512323766933319e+01 1.9000000000000000e+01 6.6062577072740476e+00 
1832 1833 2 1.0279999999999998e+00 -2.6033506832643416e+03 1.0000000000000000e+00 1.1207883400414909e+01 1.9000000000000000e+01 6.6288499175093856e+00 
1779 1780 2 1.0279999999999996e+00 -8.5894523161367260e+01 1.0000000000000000e+00 1.2725145168953231e+01 1.9000000000000000e+01 7.7515675563483839e+00 
1494 1495 2 1.0279999999999991e+00 -8.0041759402686012e+02 1.0000000000000000e+00 1.3776690282669025e+01 1.9000000000000000e+01 6.5820436789279544e+00 
1456 1457 2 1.0280000000000005e+00 -2.4663824737861199e+02 1.0000000000000000e+00 1.4796157534500630e+01 1.9000000000000000e+01 6.7363790954241276e+00 
1787 1788 2 1.0280000000000018e+00 1.7245487765248595e+03 1.0000000000000000e+00 1.6827495768669070e+01 1.9000000000000000e+01 7.5635576388890717e+00 
1788 1789 2 1.0279999999999991e+00 3.8275091659302784e+03 1.0000000000000000e+00 1.6889308481506216e+01 1.9000000000000000e+01 7.1725931950409532e+00 
55 56 2 1.0280000000000040e+00 6.8216103082182417e+03 1.0000000000000000e+00 7.0048407137637980e-01 1.0000000000000000e+01 9.2302810776108579e+00 
6 7 2 1.0280000000000036e+00 4.1543509894402320e+02 1.0000000000000000e+00 2.7775049847468294e+00 1.0000000000000000e+01 8.8251415383175527e+00 
128 129 2 1.0279999999999956e+00 9.1234054274530968e+02 1.0000000000000000e+00 4.3319599859875719e+00 1.0000000000000000e+01 8.5626494709107952e+00 
47 48 2 1.0280000000000027e+00 -3.6054679412797987e+03 1.0000000000000000e+00 4.9664359219779062e+00 1.0000000000000000e+01 9.7390351577211014e+00 
296 297 2 1.0279999999999987e+00 1.0029044577091911e+03 1.0000000000000000e+00 6.8092147224102950e+00 1.0000000000000000e+01 8.7904848272809915e+00 
220 221 2 1.0280000000000009e+00 -6.1108423399745197e+02 1.0000000000000000e+00 8.3160957873386288e+00 1.0000000000000000e+01 8.4234517514787886e+00 
186 187 2 1.0280000000000027e+00 4.5877319459282862e+03 1.0000000000000000e+00 9.4010769422449556e+00 1.0000000000000000e+01 9.2882174847623524e+00 
274 275 2 1.0280000000000029e+00 3.4839544864388290e+03 1.0000000000000000e+00 1.0763977407500670e+01 1.0000000000000000e+01 9.5262993689559341e+00 
27 28 2 1.0279999999999965e+00 -2.6767875775255889e+03 1.0000000000000000e+00 1.2748062895080908e+01 1.0000000000000000e+01 8.4783192283729019e+00 
316 317 2 1.0279999999999965e+00 1.1388408113278003e+03 1.0000000000000000e+00 1.1914689656115723e+01 1.0000000000000000e+01 9.9049388542710322e+00 
673 674 2 1.0280000000000096e+00 2.0996422518763640e+02 1.0000000000000000e+00 2.0556370411719862e+00 1.3000000000000000e+01 9.1680439505050728e+00 
683 684 2 1.0280000000000051e+00 6.6280549578545597e+03 1.0000000000000000e+00 4.4627057750726058e+00 1.3000000000000000e+01 8.9040889695261907e+00 
684 685 2 1.0279999999999894e+00 -5.7775486261374353e+03 1.0000000000000000e+00 4.9642893185604056e+00 1.3000000000000000e+01 9.9565786893652319e+00 
767 768 2 1.0280000000000038e+00 -1.3549257503112981e+03 1.0000000000000000e+00 6.7012147482223012e+00 1.3000000000000000e+01 8.2883188557584457e+00 
486 487 2 1.0279999999999989e+00 1.2720230737221636e+03 1.0000000000000000e+00 7.8921167828169843e+00 1.3000000000000000e+01 9.2910246941268166e+00 
488 489 2 1.0279999999999838e+00 -2.5713958757192531e+03 1.0000000000000000e+00 8.9780982808988199e+00 1.3000000000000000e+01 8.7868097560236578e+00 
859 860 2 1.0279999999999938e+00 3.8229412408164899e+03 1.0000000000000000e+00 1.1035303614628740e+01 1.3000000000000000e+01 9.9357622497697626e+00 
899 900 2 1.0279999999999900e+00 -2.5537691111998702e+03 1.0000000000000000e+00 1.1469349948257248e+01 1.3000000000000000e+01 9.4604742628900809e+00 
944 945 2 1.0280000000000145e+00 -9.4125792308731747e+01 1.0000000000000000e+00 4.3735550359769265e-01 1.6000000000000000e+01 8.0956828157615028e+00 
1104 1105 2 1.0279999999999891e+00 -1.8312087945548574e+03 1.0000000000000000e+00 1.0212187451592436e+00 1.6000000000000000e+01 9.7168905718193788e+00 
930 931 2 1.0279999999999900e+00 4.3485033300863017e+02 1.0000000000000000e+00 2.6375858915681709e+00 1.6000000000000000e+01 8.7840228208473068e+00 
1137 1138 2 1.0279999999999956e+00 -5.4047419471478715e+03 1.0000000000000000e+00 4.5172020490887883e+00 1.6000000000000000e+01 9.0291074224120056e+00 
1135 1136 2 1.0280000000000067e+00 2.0609727694591692e+02 1.0000000000000000e+00 7.0583489090766021e+00 1.6000000000000000e+01 8.8161659125357641e+00 
1052 1053 2 1.0280000000000027e+00 9.1694678809820402e+02 1.0000000000000000e+00 6.5042298613726519e+00 1.6000000000000000e+01 9.8297145883158006e+00 
1282 1283 2 1.0279999999999927e+00 9.9530063084968197e+02 1.0000000000000000e+00 8.3426758865091148e+00 1.6000000000000000e+01 8.5087210884089792e+00 
1277 1278 2 1.0280000000000018e+00 2.2265559944037641e+03 1.0000000000000000e+00 1.0014942553057679e+01 1.6000000000000000e+01 8.6370610675709916e+00 
1699 1700 2 1.0279999999999998e+00 -1.4572738676815975e+03 1.0000000000000000e+00 1.0242385575908133e+00 1.9000000000000000e+01 9.8239740907959856e+00 
1744 1745 2 1.0279999999999994e+00 9.9376695553187187e+02 1.0000000000000000e+00 1.8822559980664093e+00 1.9000000000000000e+01 9.1684050804696842e+00 
1738 1739 2 1.0279999999999980e+00 2.5268222313735323e+03 1.0000000000000000e+00 4.0905049884815163e+00 1.9000000000000000e+01 8.2304367447170090e+00 
1739 1740 2 1.0279999999999996e+00 2.2277960267580675e+03 1.0000000000000000e+00 4.6572228970702385e+00 1.9000000000000000e+01 8.3343405800008270e+00 
1597 1598 2 1.0280000000000007e+00 2.0614400592896780e+02 1.0000000000000000e+00 7.1679242106278727e+00 1.9000000000000000e+01 9.1923814205850931e+00 
1733 1734 2 1.0279999999999987e+00 -4.5517074817568300e+03 1.0000000000000000e+00 6.1756255504902038e+00 1.9000000000000000e+01 9.5030808518423537e+00 