LAMMPS data file via write_data, version 30 Jul 2016, timestep = 50000000

3234 atoms
8 atom types

0.0000000000000000e+00 1.0000000000000000e+02 xlo xhi
0.0000000000000000e+00 4.0000000000000000e+01 ylo yhi
0.0000000000000000e+00 4.0000000000000000e+01 zlo zhi

Masses

1 3.896
2 5.36
3 20.064
4 8.378
5 8.378
6 8.378
7 8.378
8 8.378

Atoms # meso-molecular

225 226 2 1.0279999999999960e+00 -5.8935774238271824e+03 1.0000000000000000e+00 1.3304765491075647e+00 1.0000000000000000e+01 1.2627370133884550e-01 
104 105 2 1.0280000000000027e+00 6.3969927745477349e+01 1.0000000000000000e+00 2.7311689119219290e-01 1.0000000000000000e+01 2.2905628740562178e-02 
229 230 2 1.0279999999999989e+00 -1.1048502915134990e+04 1.0000000000000000e+00 2.5713476500414689e+00 1.0000000000000000e+01 8.6208031901147675e-01 
392 393 2 1.0279999999999869e+00 5.7645615231592328e+03 1.0000000000000000e+00 8.5489465593231628e+00 1.0000000000000000e+01 2.1141270374423896e-01 
444 445 2 1.0279999999999982e+00 1.1486928781900451e+03 1.0000000000000000e+00 9.7654508945146326e+00 1.0000000000000000e+01 1.2236469559709457e+00 
691 692 2 1.0280000000000036e+00 -1.1048516120085542e+04 1.0000000000000000e+00 1.4399597999619653e+00 1.3000000000000000e+01 5.7723894869944692e-01 
692 693 2 1.0280000000000062e+00 -7.8286122370091634e+03 1.0000000000000000e+00 6.5468784142571657e-01 1.3000000000000000e+01 1.9438691358112343e+00 
609 610 2 1.0280000000000089e+00 4.8325096409828961e+02 1.0000000000000000e+00 2.2786279129087559e+00 1.3000000000000000e+01 3.4105905404850551e-01 
690 691 2 1.0279999999999960e+00 -8.1516907004563172e+03 1.0000000000000000e+00 5.2702463798559531e+00 1.3000000000000000e+01 6.0327424452560430e-01 
484 485 2 1.0279999999999971e+00 8.6340967204812750e+02 1.0000000000000000e+00 5.9849406255830226e+00 1.3000000000000000e+01 4.6400551028293369e-01 
565 566 2 1.0279999999999876e+00 -6.7503585388592546e+02 1.0000000000000000e+00 8.1610729427777340e+00 1.3000000000000000e+01 3.0067820221137054e-01 
650 651 2 1.0279999999999869e+00 1.6083041209280364e+03 1.0000000000000000e+00 8.9221725613343406e+00 1.3000000000000000e+01 2.2760269709427663e-01 
521 522 2 1.0279999999999947e+00 -7.5482449194731657e+02 1.0000000000000000e+00 1.0732400090997151e+01 1.3000000000000000e+01 2.6744411964379050e-01 
939 940 2 1.0279999999999843e+00 -2.0615342474757135e+03 1.0000000000000000e+00 1.2083877584675258e+00 1.6000000000000000e+01 3.9842097665407628e-01 
1028 1029 2 1.0280000000000080e+00 5.9728406080397377e+01 1.0000000000000000e+00 2.3597869153442905e-01 1.6000000000000000e+01 1.7866182255778666e+00 
1069 1070 2 1.0280000000000129e+00 -1.4421640899160025e+03 1.0000000000000000e+00 2.8160282804094767e+00 1.6000000000000000e+01 6.7655253208391497e-01 
984 985 2 1.0280000000000262e+00 2.2147753683299297e+03 1.0000000000000000e+00 3.2103008939967279e+00 1.6000000000000000e+01 1.9267264576206424e+00 
1030 1031 2 1.0280000000000113e+00 1.0369983393842979e+03 1.0000000000000000e+00 4.3101361273273699e+00 1.6000000000000000e+01 1.1507449407191142e-01 
942 943 2 1.0279999999999878e+00 -6.3681374705029612e+02 1.0000000000000000e+00 4.5173840518593096e+00 1.6000000000000000e+01 1.7706294667879232e+00 
1191 1192 2 1.0279999999999965e+00 2.2603493624386709e+02 1.0000000000000000e+00 6.4088910285275196e+00 1.6000000000000000e+01 1.2915152602418873e+00 
1359 1360 2 1.0280000000000007e+00 -2.0309711138152754e+03 1.0000000000000000e+00 7.3049432033034343e+00 1.6000000000000000e+01 1.5761370551730640e+00 
1349 1350 2 1.0280000000000167e+00 -2.2698912844883063e+02 1.0000000000000000e+00 9.6664730664894947e+00 1.6000000000000000e+01 3.3311391814159541e-01 
1065 1066 2 1.0279999999999920e+00 8.1936270300479976e+01 1.0000000000000000e+00 1.1835463012535337e+01 1.6000000000000000e+01 2.8107379901986213e-01 
1569 1570 2 1.0279999999999991e+00 2.2848741957845783e+02 1.0000000000000000e+00 1.2166301385499119e+00 1.9000000000000000e+01 1.4885266794616923e+00 
1389 1390 2 1.0280000000000022e+00 1.4938865144203965e+03 1.0000000000000000e+00 3.4956005344744090e-01 1.9000000000000000e+01 2.7166207468236425e-01 
1401 1402 2 1.0279999999999994e+00 -2.0607849271298510e+03 1.0000000000000000e+00 1.6000378091980978e-02 1.9000000000000000e+01 1.6985817080560588e+00 
1485 1486 2 1.0279999999999987e+00 2.1033270923551263e+03 1.0000000000000000e+00 3.1785144579055258e+00 1.9000000000000000e+01 1.8703419097199636e+00 
1477 1478 2 1.0279999999999996e+00 -1.3127624067544266e+03 1.0000000000000000e+00 2.6352649533716157e+00 1.9000000000000000e+01 7.2090066712801257e-02 
1528 1529 2 1.0280000000000016e+00 2.3013737392805110e+03 1.0000000000000000e+00 3.7524301609924602e+00 1.9000000000000000e+01 4.6410217660286096e-01 
1524 1525 2 1.0280000000000009e+00 1.4551249543855515e+03 1.0000000000000000e+00 5.4305777497257655e+00 1.9000000000000000e+01 9.6529544971796766e-01 
1529 1530 2 1.0279999999999989e+00 -1.6240163106994146e+02 1.0000000000000000e+00 6.7603536905720345e+00 1.9000000000000000e+01 1.8618264737273549e-01 
1821 1822 2 1.0280000000000018e+00 -2.0318343622376165e+03 1.0000000000000000e+00 8.9663944779433677e+00 1.9000000000000000e+01 1.1128276227463625e+00 
1653 1654 2 1.0279999999999998e+00 2.2751466818821979e+02 1.0000000000000000e+00 9.7137645423907291e+00 1.9000000000000000e+01 5.9530606467233216e-01 
1645 1646 2 1.0279999999999996e+00 -4.5429491731804283e+03 1.0000000000000000e+00 1.1899746739156340e+01 1.9000000000000000e+01 1.3554152541105773e+00 
1603 1604 2 1.0279999999999987e+00 -2.0915049940239464e+03 1.0000000000000000e+00 1.2008157192018283e+01 1.9000000000000000e+01 5.7968203055943626e-03 
1646 1647 2 1.0280000000000009e+00 -1.0398804432697116e+03 1.0000000000000000e+00 1.3383520194653938e+01 1.9000000000000000e+01 1.3776342092414395e+00 
1484 1485 2 1.0279999999999994e+00 2.2533219544943827e+03 1.0000000000000000e+00 1.4903991795472656e+01 1.9000000000000000e+01 1.8842880486441032e+00 
1609 1610 2 1.0280000000000002e+00 -8.4725346653271081e+03 1.0000000000000000e+00 1.4958533447688529e+01 1.9000000000000000e+01 5.9540583313033124e-01 
1439 1440 2 1.0280000000000022e+00 5.0361731335302175e+03 1.0000000000000000e+00 1.6887122900522979e+01 1.9000000000000000e+01 1.2891398267393279e+00 
1775 1776 2 1.0279999999999974e+00 5.0325879780589494e+03 1.0000000000000000e+00 1.7028545394313106e+01 1.9000000000000000e+01 7.6419468810293789e-01 
395 396 2 1.0280000000000060e+00 -8.3970703216793459e+02 1.0000000000000000e+00 2.8698926984233986e-01 1.0000000000000000e+01 2.6845071930454512e+00 
394 395 2 1.0280000000000020e+00 3.8929176583231665e+03 1.0000000000000000e+00 1.7245602645257968e-01 1.0000000000000000e+01 3.9890031496229628e+00 
230 231 2 1.0280000000000040e+00 -7.8291361465064820e+03 1.0000000000000000e+00 2.4412418668590523e+00 1.0000000000000000e+01 2.2205120817147836e+00 
273 274 2 1.0280000000000025e+00 3.1407145498358832e+03 1.0000000000000000e+00 2.5915832988539886e+00 1.0000000000000000e+01 3.2184711389574532e+00 
440 441 2 1.0280000000000007e+00 -3.0533455663299435e+01 1.0000000000000000e+00 5.1199421393728741e+00 1.0000000000000000e+01 2.3362449146593880e+00 
62 63 2 1.0280000000000025e+00 1.9065743850711553e+03 1.0000000000000000e+00 4.8770663202079101e+00 1.0000000000000000e+01 2.6457689202373529e+00 
232 233 2 1.0280000000000022e+00 -5.6928937686564059e+03 1.0000000000000000e+00 7.0168435123020689e+00 1.0000000000000000e+01 3.3216125174899833e+00 
235 236 2 1.0280000000000014e+00 -8.0644912518059082e+03 1.0000000000000000e+00 7.7928013739164559e+00 1.0000000000000000e+01 3.8295923480903924e+00 
30 31 2 1.0280000000000016e+00 1.8133589154617302e+03 1.0000000000000000e+00 9.6995723564990985e+00 1.0000000000000000e+01 2.4182138163442990e+00 
317 318 2 1.0279999999999996e+00 1.2068550317482568e+03 1.0000000000000000e+00 1.0903346021791046e+01 1.0000000000000000e+01 3.3495254203424247e+00 
319 320 2 1.0279999999999971e+00 5.0118953888132057e+02 1.0000000000000000e+00 1.1213676297439003e+01 1.0000000000000000e+01 2.4651432563210012e+00 
778 779 2 1.0279999999999934e+00 1.1374258489002589e+03 1.0000000000000000e+00 1.6362161527647743e+00 1.3000000000000000e+01 3.7006210094489282e+00 
736 737 2 1.0279999999999974e+00 3.4861039356448027e+03 1.0000000000000000e+00 2.0497027076924668e+00 1.3000000000000000e+01 2.8074994322796085e+00 
904 905 2 1.0280000000000027e+00 8.8095265055749769e+02 1.0000000000000000e+00 3.7753513865959807e+00 1.3000000000000000e+01 2.6019889652968979e+00 
903 904 2 1.0279999999999989e+00 8.7334323572931311e+01 1.0000000000000000e+00 4.5846026820968504e+00 1.3000000000000000e+01 2.4409334062600641e+00 
478 479 2 1.0280000000000054e+00 -2.5951764941493811e+03 1.0000000000000000e+00 1.0744867627544266e+01 1.3000000000000000e+01 3.9517583602089026e+00 
528 529 2 1.0279999999999980e+00 3.8971772161770041e+03 1.0000000000000000e+00 1.2081795629714762e+01 1.3000000000000000e+01 2.1713254040483299e+00 
527 528 2 1.0279999999999980e+00 1.5659763209735725e+03 1.0000000000000000e+00 1.1401083734160316e+01 1.3000000000000000e+01 2.3749905210977311e+00 
861 862 2 1.0279999999999980e+00 2.3082503470446693e+02 1.0000000000000000e+00 1.3612667668954202e+01 1.3000000000000000e+01 3.1227141643120246e+00 
902 903 2 1.0280000000000014e+00 -4.5083350666268203e+01 1.0000000000000000e+00 1.3390979549116762e+01 1.3000000000000000e+01 3.7663419327246825e+00 
908 909 2 1.0280000000000000e+00 -2.6038757772895242e+03 1.0000000000000000e+00 1.5791591722455777e+01 1.3000000000000000e+01 2.9008665766235286e+00 
909 910 2 1.0279999999999996e+00 -2.6977309925551463e+03 1.0000000000000000e+00 1.5838544612145588e+01 1.3000000000000000e+01 3.2712023481305992e+00 
780 781 2 1.0280000000000080e+00 -1.4761115157033105e+03 1.0000000000000000e+00 1.8223089556770425e+01 1.3000000000000000e+01 3.9727348583518163e+00 
1149 1150 2 1.0279999999999934e+00 -5.8920323459930951e+03 1.0000000000000000e+00 1.4416773745552114e+00 1.6000000000000000e+01 2.5264130324396734e+00 
1153 1154 2 1.0280000000000096e+00 -1.1049892782675837e+04 1.0000000000000000e+00 2.2035062796233960e+00 1.6000000000000000e+01 3.5749788490617957e+00 
982 983 2 1.0279999999999938e+00 3.7715597058612830e+03 1.0000000000000000e+00 5.4247106074743208e+00 1.6000000000000000e+01 2.9901458574461466e+00 
1071 1072 2 1.0279999999999956e+00 4.8351171379811854e+02 1.0000000000000000e+00 4.6149768120962840e+00 1.6000000000000000e+01 3.8321000099178706e+00 
1024 1025 2 1.0279999999999900e+00 2.5882461672299619e+03 1.0000000000000000e+00 7.0912474970913175e+00 1.6000000000000000e+01 3.3255527463500494e+00 
1025 1026 2 1.0279999999999878e+00 2.2507730045788790e+03 1.0000000000000000e+00 8.0187020111667877e+00 1.6000000000000000e+01 3.3437312029213349e+00 
1112 1113 2 1.0279999999999974e+00 1.6064452930968419e+03 1.0000000000000000e+00 9.9499463400992685e+00 1.6000000000000000e+01 2.0551824940592498e+00 
1027 1028 2 1.0280000000000074e+00 -6.7514018296811082e+02 1.0000000000000000e+00 9.4274314408788396e+00 1.6000000000000000e+01 2.7063228878224304e+00 
983 984 2 1.0280000000000025e+00 -7.5549356140844361e+02 1.0000000000000000e+00 1.1662241179385941e+01 1.6000000000000000e+01 2.6920548332479850e+00 
1113 1114 2 1.0280000000000027e+00 3.3193072675188751e+03 1.0000000000000000e+00 1.2271477626129535e+01 1.6000000000000000e+01 2.7262360066959395e+00 
1313 1314 2 1.0280000000000085e+00 5.0319133644050144e+03 1.0000000000000000e+00 1.4251026550642278e+01 1.6000000000000000e+01 2.7571865130550979e+00 
977 978 2 1.0280000000000016e+00 5.0361543729742771e+03 1.0000000000000000e+00 1.4187939332369993e+01 1.6000000000000000e+01 3.2241019387695933e+00 
1531 1532 2 1.0280000000000007e+00 -1.4426553312360256e+03 1.0000000000000000e+00 1.9818754299700623e+00 1.9000000000000000e+01 3.0657539996577028e+00 
1492 1493 2 1.0280000000000000e+00 1.0410706582379423e+03 1.0000000000000000e+00 3.6751399153844941e+00 1.9000000000000000e+01 3.0626606963983920e+00 
1446 1447 2 1.0279999999999985e+00 2.2146922751061607e+03 1.0000000000000000e+00 5.6329684302353078e+00 1.9000000000000000e+01 2.1157571276805505e+00 
1404 1405 2 1.0280000000000027e+00 -6.3886794183370012e+02 1.0000000000000000e+00 6.7319687087882096e+00 1.9000000000000000e+01 2.8507936658696131e+00 
1811 1812 2 1.0280000000000002e+00 -2.2698209777764998e+02 1.0000000000000000e+00 8.2212223635714246e+00 1.9000000000000000e+01 2.7251379938344984e+00 
1685 1686 2 1.0280000000000000e+00 -7.4388851181678183e+02 1.0000000000000000e+00 9.1267153166989221e+00 1.9000000000000000e+01 3.2232559671794916e+00 
1695 1696 2 1.0279999999999998e+00 1.0671875502353846e+02 1.0000000000000000e+00 1.0603428273613369e+01 1.9000000000000000e+01 2.4508467843110013e+00 
1736 1737 2 1.0280000000000000e+00 2.2505355277486824e+03 1.0000000000000000e+00 1.1497968835887443e+01 1.9000000000000000e+01 3.0511309468895225e+00 
1527 1528 2 1.0279999999999991e+00 8.3505156798338319e+01 1.0000000000000000e+00 1.3830385036326454e+01 1.9000000000000000e+01 2.7796193201457680e+00 
438 439 2 1.0280000000000071e+00 -6.6055721503999553e+02 1.0000000000000000e+00 5.1106229855914710e-02 1.0000000000000000e+01 5.4132421856744060e+00 
315 316 2 1.0279999999999976e+00 6.5713566282846523e+02 1.0000000000000000e+00 1.6367731268155588e+00 1.0000000000000000e+01 4.3465019265776368e+00 
228 229 2 1.0280000000000025e+00 -8.1470691598451640e+03 1.0000000000000000e+00 2.8546797360542389e+00 1.0000000000000000e+01 5.0888971126384348e+00 
22 23 2 1.0279999999999978e+00 8.6449463828453395e+02 1.0000000000000000e+00 3.6168136391501311e+00 1.0000000000000000e+01 5.8053969800003244e+00 
221 222 2 1.0279999999999985e+00 6.6298350402100423e+03 1.0000000000000000e+00 6.1178577943118801e+00 1.0000000000000000e+01 4.6962752313124092e+00 
222 223 2 1.0279999999999954e+00 -5.7769885436042523e+03 1.0000000000000000e+00 6.8252037168487689e+00 1.0000000000000000e+01 5.1808643366839027e+00 
16 17 2 1.0279999999999996e+00 -2.5949236581924670e+03 1.0000000000000000e+00 9.3104209662425621e+00 1.0000000000000000e+01 5.3008395555969434e+00 
57 58 2 1.0280000000000031e+00 -6.7170636627848864e+01 1.0000000000000000e+00 9.7398727341047007e+00 1.0000000000000000e+01 4.8691386310979441e+00 
437 438 2 1.0279999999999996e+00 -2.5537732830520035e+03 1.0000000000000000e+00 1.2749981946037728e+01 1.0000000000000000e+01 5.4399015153014689e+00 
17 18 2 1.0280000000000002e+00 -2.6493716462509942e+03 1.0000000000000000e+00 1.4056640487304749e+01 1.0000000000000000e+01 4.1885232757595627e+00 
61 62 2 1.0280000000000002e+00 3.8182258564785598e+03 1.0000000000000000e+00 1.4388902014372245e+01 1.0000000000000000e+01 4.6649538700411837e+00 
735 736 2 1.0279999999999967e+00 3.1398349261459152e+03 1.0000000000000000e+00 2.6443339838801555e-01 1.3000000000000000e+01 4.0802638669358950e+00 
818 819 2 1.0279999999999998e+00 1.1904490960271610e+02 1.0000000000000000e+00 5.1786591303043323e+00 1.3000000000000000e+01 4.1539233311932380e+00 
688 689 2 1.0280000000000056e+00 -1.0910499363588464e+04 1.0000000000000000e+00 4.5646795242070262e+00 1.3000000000000000e+01 4.3797197527255420e+00 
854 855 2 1.0280000000000065e+00 5.7645360528798828e+03 1.0000000000000000e+00 7.5892726403218695e+00 1.3000000000000000e+01 4.7487795671311162e+00 
852 853 2 1.0280000000000040e+00 -2.4491005530459378e+02 1.0000000000000000e+00 8.1038860973958844e+00 1.3000000000000000e+01 4.3397290979260328e+00 
906 907 2 1.0279999999999989e+00 1.1479213832081452e+03 1.0000000000000000e+00 8.8797465233136013e+00 1.3000000000000000e+01 5.8687378665126770e+00 
519 520 2 1.0279999999999954e+00 -6.2706347597786717e+01 1.0000000000000000e+00 1.0458909483664035e+01 1.3000000000000000e+01 4.8350116262726868e+00 
524 525 2 1.0279999999999978e+00 1.9022557766172777e+03 1.0000000000000000e+00 1.2092975958090966e+01 1.3000000000000000e+01 5.0104381878387079e+00 
819 820 2 1.0279999999999947e+00 9.9316816006541831e+02 1.0000000000000000e+00 1.8115277336927370e+01 1.3000000000000000e+01 4.2618208047304122e+00 
1319 1320 2 1.0279999999999985e+00 -8.3811153853246151e+02 1.0000000000000000e+00 1.0476579682533997e+00 1.6000000000000000e+01 4.5164223160134354e+00 
1063 1064 2 1.0280000000000098e+00 1.3222442099570012e+03 1.0000000000000000e+00 4.3624575630021883e-01 1.6000000000000000e+01 5.7425987920617381e+00 
1197 1198 2 1.0279999999999987e+00 3.1379202695981708e+03 1.0000000000000000e+00 2.7889011142683100e+00 1.6000000000000000e+01 5.0447889891870954e+00 
1154 1155 2 1.0280000000000074e+00 -7.8269210723181259e+03 1.0000000000000000e+00 4.0398018099654607e+00 1.6000000000000000e+01 4.9413287019473326e+00 
1611 1612 2 1.0279999999999994e+00 -5.8917787745915612e+03 1.0000000000000000e+00 1.5068202735480938e+00 1.9000000000000000e+01 4.3357973880407652e+00 
1573 1574 2 1.0280000000000000e+00 4.1661014296091880e+03 1.0000000000000000e+00 1.8627724987988872e-01 1.9000000000000000e+01 5.2173410925821777e+00 
1615 1616 2 1.0279999999999978e+00 -1.1049396100473026e+04 1.0000000000000000e+00 3.2417559239003380e+00 1.9000000000000000e+01 4.2921864853278402e+00 
1659 1660 2 1.0280000000000016e+00 3.1383851934318272e+03 1.0000000000000000e+00 3.2007889670840841e+00 1.9000000000000000e+01 5.9388114341048874e+00 
1533 1534 2 1.0280000000000025e+00 4.8383282403440569e+02 1.0000000000000000e+00 5.2653656613300415e+00 1.9000000000000000e+01 4.9542164502244761e+00 
1616 1617 2 1.0279999999999989e+00 -7.8268461478672125e+03 1.0000000000000000e+00 4.3825059409833864e+00 1.9000000000000000e+01 5.8392591867146812e+00 
1444 1445 2 1.0279999999999985e+00 3.7719554474986298e+03 1.0000000000000000e+00 5.9228431628918212e+00 1.9000000000000000e+01 4.0160712062418531e+00 
1486 1487 2 1.0280000000000007e+00 2.5883978075594068e+03 1.0000000000000000e+00 7.5096321165562152e+00 1.9000000000000000e+01 5.0889432566615378e+00 
1487 1488 2 1.0280000000000020e+00 2.2508906696781746e+03 1.0000000000000000e+00 8.0151868220150302e+00 1.9000000000000000e+01 5.4204535328623651e+00 
1489 1490 2 1.0279999999999989e+00 -6.7470730437852944e+02 1.0000000000000000e+00 9.6995171754301133e+00 1.9000000000000000e+01 4.8305883821947866e+00 
1574 1575 2 1.0280000000000011e+00 1.6073025328521676e+03 1.0000000000000000e+00 1.0709831164399120e+01 1.9000000000000000e+01 4.7819584786488285e+00 
1445 1446 2 1.0279999999999991e+00 -7.5559435176144234e+02 1.0000000000000000e+00 1.2566203846823781e+01 1.9000000000000000e+01 4.3385219545733138e+00 
1575 1576 2 1.0280000000000007e+00 3.3191624162055668e+03 1.0000000000000000e+00 1.3453981582841150e+01 1.9000000000000000e+01 4.1726349468575288e+00 
1698 1699 2 1.0280000000000005e+00 5.7455350304392641e+02 1.0000000000000000e+00 1.9219566537066644e+01 1.9000000000000000e+01 4.6543486709502817e+00 
1530 1531 2 1.0280000000000005e+00 5.0654494998521045e+02 1.0000000000000000e+00 1.9498305924024468e+01 1.9000000000000000e+01 4.7692393640929200e+00 
396 397 2 1.0280000000000082e+00 2.2593593386004150e+03 1.0000000000000000e+00 1.3335379264172864e+00 1.0000000000000000e+01 6.8606792449461551e+00 
20 21 2 1.0279999999999949e+00 -8.6275844199375001e+01 1.0000000000000000e+00 5.9013428305231708e-01 1.0000000000000000e+01 7.7898689245219392e+00 
307 308 2 1.0279999999999969e+00 1.2912234300302298e+03 1.0000000000000000e+00 2.5067733443914046e+00 1.0000000000000000e+01 7.5719092210810528e+00 
347 348 2 1.0280000000000056e+00 -4.5476900410840153e+03 1.0000000000000000e+00 4.3440486579905899e+00 1.0000000000000000e+01 6.9133338443906442e+00 
211 212 2 1.0279999999999989e+00 2.0718634790742607e+02 1.0000000000000000e+00 5.6167583260766145e+00 1.0000000000000000e+01 7.4387538465955023e+00 
218 219 2 1.0279999999999998e+00 -2.9484504145096735e+03 1.0000000000000000e+00 6.9680520936915862e+00 1.0000000000000000e+01 7.5395188837970606e+00 
450 451 2 1.0279999999999951e+00 1.8703854869534221e+03 1.0000000000000000e+00 9.8496862197661557e+00 1.0000000000000000e+01 7.3600074984070778e+00 
24 25 2 1.0279999999999987e+00 1.2726525318353924e+03 1.0000000000000000e+00 1.0449670605907848e+01 1.0000000000000000e+01 6.9256972618792085e+00 
397 398 2 1.0280000000000007e+00 3.8235675384136712e+03 1.0000000000000000e+00 1.2382328321470711e+01 1.0000000000000000e+01 6.1345679785415888e+00 
26 27 2 1.0279999999999987e+00 -2.5710060270731956e+03 1.0000000000000000e+00 1.2172307166053006e+01 1.0000000000000000e+01 7.7605051300977177e+00 
769 770 2 1.0279999999999958e+00 1.2956477302604574e+03 1.0000000000000000e+00 8.7920015975053323e-01 1.3000000000000000e+01 7.5482482215544042e+00 
809 810 2 1.0280000000000047e+00 -4.5510759181504964e+03 1.0000000000000000e+00 1.8988952517750002e+00 1.3000000000000000e+01 7.1817845742739674e+00 
680 681 2 1.0279999999999951e+00 -2.9479669905558621e+03 1.0000000000000000e+00 2.9539716680820058e+00 1.3000000000000000e+01 7.9756378876730567e+00 
694 695 2 1.0279999999999998e+00 -5.6926815271255409e+03 1.0000000000000000e+00 4.2833170467988184e+00 1.3000000000000000e+01 6.9116164380247653e+00 
697 698 2 1.0279999999999920e+00 -8.0640901471342158e+03 1.0000000000000000e+00 5.0467644188192429e+00 1.3000000000000000e+01 6.6502003157695091e+00 
892 893 2 1.0279999999999951e+00 -2.7975800529690778e+03 1.0000000000000000e+00 6.3526209842886265e+00 1.3000000000000000e+01 7.5392384496648139e+00 
492 493 2 1.0280000000000060e+00 1.8132598544553589e+03 1.0000000000000000e+00 8.9564139816890513e+00 1.3000000000000000e+01 7.0201599311884104e+00 
781 782 2 1.0279999999999969e+00 5.0082426073163469e+02 1.0000000000000000e+00 1.0479157844832862e+01 1.3000000000000000e+01 6.9049773173775195e+00 
779 780 2 1.0280000000000034e+00 1.2065921560005675e+03 1.0000000000000000e+00 1.0552155274700473e+01 1.3000000000000000e+01 7.9474388889453262e+00 
817 818 2 1.0280000000000025e+00 -6.1588406402804344e+02 1.0000000000000000e+00 1.2462473484665756e+01 1.3000000000000000e+01 6.1042517872830295e+00 
734 735 2 1.0279999999999967e+00 1.5883710980094734e+03 1.0000000000000000e+00 1.3743722444548546e+01 1.3000000000000000e+01 6.5181201891732092e+00 
606 607 2 1.0279999999999951e+00 5.0368784666041540e+02 1.0000000000000000e+00 1.4053511039357467e+01 1.3000000000000000e+01 7.8420109602059558e+00 
774 775 2 1.0280000000000000e+00 5.7404886313711393e+02 1.0000000000000000e+00 1.3094463325020589e+01 1.3000000000000000e+01 7.8937918161548204e+00 
1362 1363 2 1.0280000000000074e+00 -6.6005759210986366e+02 1.0000000000000000e+00 3.2046419035486156e+00 1.6000000000000000e+01 6.6119093000739637e+00 
1194 1195 2 1.0280000000000009e+00 4.5929142833840360e+03 1.0000000000000000e+00 2.5079763930516328e+00 1.6000000000000000e+01 7.6834615651688898e+00 
1320 1321 2 1.0279999999999911e+00 2.2648279392798040e+03 1.0000000000000000e+00 4.6615327045663628e+00 1.6000000000000000e+01 7.0385283751548853e+00 
1231 1232 2 1.0280000000000011e+00 1.2940335606800822e+03 1.0000000000000000e+00 5.2537780857838188e+00 1.6000000000000000e+01 7.7902546392474585e+00 
1237 1238 2 1.0280000000000031e+00 -1.4564390940199842e+03 1.0000000000000000e+00 8.4134657920604745e+00 1.6000000000000000e+01 6.7690106279664199e+00 
1271 1272 2 1.0279999999999982e+00 -4.5438450302444617e+03 1.0000000000000000e+00 7.6974409344184789e+00 1.6000000000000000e+01 6.9009622272742517e+00 
1276 1277 2 1.0280000000000031e+00 2.5262180935765955e+03 1.0000000000000000e+00 1.0053146403746787e+01 1.6000000000000000e+01 7.9560510280858976e+00 
1281 1282 2 1.0279999999999982e+00 9.9595234593048872e+02 1.0000000000000000e+00 2.8962295480827798e+01 1.6000000000000000e+01 7.5417591092320286e+00 
1242 1243 2 1.0279999999999982e+00 -1.4719167834244058e+03 1.0000000000000000e+00 2.9130338006110570e+01 1.6000000000000000e+01 7.7920733655360115e+00 
1781 1782 2 1.0280000000000005e+00 -8.3859971489813938e+02 1.0000000000000000e+00 1.6641220588543306e+00 1.9000000000000000e+01 6.1667662816265016e+00 
1572 1573 2 1.0280000000000011e+00 4.5890852553575205e+03 1.0000000000000000e+00 8.7386781645135869e-01 1.9000000000000000e+01 7.4786247059060917e+00 
1525 1526 2 1.0279999999999985e+00 1.3219127936867762e+03 1.0000000000000000e+00 2.1714742118172121e+00 1.9000000000000000e+01 7.6205926908223507e+00 
1833 1834 2 1.0280000000000005e+00 -2.6955676055979748e+03 1.0000000000000000e+00 1.0508095145213870e+01 1.9000000000000000e+01 6.6031419517982011e+00 
1832 1833 2 1.0280000000000002e+00 -2.6033506832643416e+03 1.0000000000000000e+00 1.1203654778695455e+01 1.9000000000000000e+01 6.6257341620335390e+00 
1779 1780 2 1.0280000000000000e+00 -8.5894523161367260e+01 1.0000000000000000e+00 1.2720916547233781e+01 1.9000000000000000e+01 7.7484518008725374e+00 
1494 1495 2 1.0279999999999994e+00 -8.0041759402686012e+02 1.0000000000000000e+00 1.3772461660949576e+01 1.9000000000000000e+01 6.5789279234521079e+00 
1456 1457 2 1.0280000000000002e+00 -2.4663824737861199e+02 1.0000000000000000e+00 1.4791928912781181e+01 1.9000000000000000e+01 6.7332633399482811e+00 
1787 1788 2 1.0280000000000016e+00 1.7245487765248595e+03 1.0000000000000000e+00 1.6823267146949622e+01 1.9000000000000000e+01 7.5604418834132252e+00 
1788 1789 2 1.0279999999999991e+00 3.8275091659302784e+03 1.0000000000000000e+00 1.6885079859786767e+01 1.9000000000000000e+01 7.1694774395651066e+00 
55 56 2 1.0280000000000016e+00 6.8216103082182417e+03 1.0000000000000000e+00 7.0048407137525581e-01 1.0000000000000000e+01 9.2302810776108615e+00 
6 7 2 1.0280000000000027e+00 4.1543509894402320e+02 1.0000000000000000e+00 2.7775049847401974e+00 1.0000000000000000e+01 8.8251415383170873e+00 
128 129 2 1.0279999999999920e+00 9.1234054274530968e+02 1.0000000000000000e+00 4.3319599859784779e+00 1.0000000000000000e+01 8.5626494709107952e+00 
47 48 2 1.0280000000000034e+00 -3.6054679412797987e+03 1.0000000000000000e+00 4.9664359219760659e+00 1.0000000000000000e+01 9.7390351577210961e+00 
296 297 2 1.0280000000000034e+00 1.0029044577091911e+03 1.0000000000000000e+00 6.8092147224057173e+00 1.0000000000000000e+01 8.7904848272781777e+00 
220 221 2 1.0280000000000031e+00 -6.1108423399745197e+02 1.0000000000000000e+00 8.3160957873132908e+00 1.0000000000000000e+01 8.4234517514787886e+00 
186 187 2 1.0279999999999969e+00 4.5877319459282862e+03 1.0000000000000000e+00 9.4010769422428275e+00 1.0000000000000000e+01 9.2882174847576078e+00 
274 275 2 1.0280000000000000e+00 3.4839544864388290e+03 1.0000000000000000e+00 1.0763977407486076e+01 1.0000000000000000e+01 9.5262993689535964e+00 
27 28 2 1.0280000000000011e+00 -2.6767875775255889e+03 1.0000000000000000e+00 1.2748062895048291e+01 1.0000000000000000e+01 8.4783192283729019e+00 
316 317 2 1.0279999999999985e+00 1.1388408113278003e+03 1.0000000000000000e+00 1.1914689656115426e+01 1.0000000000000000e+01 9.9049388542710322e+00 
673 674 2 1.0280000000000018e+00 2.0996422518763640e+02 1.0000000000000000e+00 2.0576253272760279e+00 1.3000000000000000e+01 9.1678975687539079e+00 
683 684 2 1.0279999999999943e+00 6.6280549578545597e+03 1.0000000000000000e+00 4.4646940612755364e+00 1.3000000000000000e+01 8.9039425877750258e+00 
684 685 2 1.0279999999999856e+00 -5.7775486261374353e+03 1.0000000000000000e+00 4.9662776047613129e+00 1.3000000000000000e+01 9.9564323075628192e+00 
767 768 2 1.0280000000000045e+00 -1.3549257503112981e+03 1.0000000000000000e+00 6.7032030343228168e+00 1.3000000000000000e+01 8.2881724739643072e+00 
486 487 2 1.0279999999999896e+00 1.2720230737221636e+03 1.0000000000000000e+00 7.8941050689474439e+00 1.3000000000000000e+01 9.2908783122636436e+00 
488 489 2 1.0280000000000060e+00 -2.5713958757192531e+03 1.0000000000000000e+00 8.9800865670567589e+00 1.3000000000000000e+01 8.7866633739934858e+00 
859 860 2 1.0279999999999956e+00 3.8229412408164899e+03 1.0000000000000000e+00 1.1037291900784101e+01 1.3000000000000000e+01 9.9356158676830262e+00 
899 900 2 1.0280000000000025e+00 -2.5537691111998702e+03 1.0000000000000000e+00 1.1471338234411979e+01 1.3000000000000000e+01 9.4603278807743223e+00 
944 945 2 1.0280000000000209e+00 -9.4125792308731747e+01 1.0000000000000000e+00 4.3755173335746655e-01 1.6000000000000000e+01 8.0963274330848929e+00 
1104 1105 2 1.0279999999999869e+00 -1.8312087945548574e+03 1.0000000000000000e+00 1.0214149745020340e+00 1.6000000000000000e+01 9.7175351889790296e+00 
930 931 2 1.0279999999999974e+00 4.3485033300863017e+02 1.0000000000000000e+00 2.6377821210231756e+00 1.6000000000000000e+01 8.7846674380069576e+00 
1137 1138 2 1.0279999999999985e+00 -5.4047419471478715e+03 1.0000000000000000e+00 4.5173982785373017e+00 1.6000000000000000e+01 9.0297520395716564e+00 
1135 1136 2 1.0280000000000145e+00 2.0609727694591692e+02 1.0000000000000000e+00 7.0585451385094071e+00 1.6000000000000000e+01 8.8168105296954149e+00 
1052 1053 2 1.0279999999999927e+00 9.1694678809820402e+02 1.0000000000000000e+00 6.5044260907145199e+00 1.6000000000000000e+01 9.8303592054754514e+00 
1282 1283 2 1.0279999999999869e+00 9.9530063084968197e+02 1.0000000000000000e+00 8.3428721159148242e+00 1.6000000000000000e+01 8.5093657055686300e+00 
1277 1278 2 1.0280000000000025e+00 2.2265559944037641e+03 1.0000000000000000e+00 1.0015138782481730e+01 1.6000000000000000e+01 8.6377056847306424e+00 
1699 1700 2 1.0280000000000002e+00 -1.4572738676815975e+03 1.0000000000000000e+00 1.0200099358713512e+00 1.9000000000000000e+01 9.8208583353201391e+00 
1744 1745 2 1.0279999999999996e+00 9.9376695553187187e+02 1.0000000000000000e+00 1.8780273763469493e+00 1.9000000000000000e+01 9.1652893249938430e+00 
1738 1739 2 1.0279999999999980e+00 2.5268222313735323e+03 1.0000000000000000e+00 4.0862763667620676e+00 1.9000000000000000e+01 8.2273209892411625e+00 
1739 1740 2 1.0280000000000002e+00 2.2277960267580675e+03 1.0000000000000000e+00 4.6529942753507898e+00 1.9000000000000000e+01 8.3312248245249840e+00 
1597 1598 2 1.0280000000000007e+00 2.0614400592896780e+02 1.0000000000000000e+00 7.1636955889084248e+00 1.9000000000000000e+01 9.1892656651092466e+00 
1733 1734 2 1.0279999999999987e+00 -4.5517074817568300e+03 1.0000000000000000e+00 6.1713969287707551e+00 1.9000000000000000e+01 9.4999650963665072e+00 