LAMMPS data file via write_data, version 30 Jul 2016, timestep = 600000

2080 atoms
8 atom types

0.0000000000000000e+00 4.0000000000000000e+01 xlo xhi
0.0000000000000000e+00 4.0000000000000000e+01 ylo yhi
0.0000000000000000e+00 1.0000000000000000e+02 zlo zhi

Masses

1 3.896
2 10.72
3 1058.08
4 8.378
5 8.378
6 8.378
7 8.378
8 8.378

Atoms # meso-molecular

1 2 4 2.2559723595316457e+00 5.8914447364412570e-01 4.2000000000000000e+03 0.0000000000000000e+00 0.0000000000000000e+00 2.5000000000000000e+00 
2 2 4 2.2559723595362837e+00 1.0137762364052250e+00 4.2000000000000000e+03 0.0000000000000000e+00 2.0000000000000000e+00 2.5000000000000000e+00 
21 2 4 2.2559723602276245e+00 1.0017164259830964e+00 4.2000000000000000e+03 2.0000000000000000e+00 0.0000000000000000e+00 2.5000000000000000e+00 
22 2 4 2.2559723595316457e+00 9.9270509474112545e-01 4.2000000000000000e+03 2.0000000000000000e+00 2.0000000000000000e+00 2.5000000000000000e+00 
41 2 4 2.2559723595316457e+00 1.0043818502609057e+00 4.2000000000000000e+03 4.0000000000000000e+00 0.0000000000000000e+00 2.5000000000000000e+00 
42 2 4 2.2559723595316457e+00 9.9051985907338103e-01 4.2000000000000000e+03 4.0000000000000000e+00 2.0000000000000000e+00 2.5000000000000000e+00 
61 2 4 2.2559723600754471e+00 1.0134156749263956e+00 4.2000000000000000e+03 6.0000000000000000e+00 0.0000000000000000e+00 2.5000000000000000e+00 
62 2 4 2.2559723595316457e+00 1.0000000444826984e+00 4.2000000000000000e+03 6.0000000000000000e+00 2.0000000000000000e+00 2.5000000000000000e+00 
81 2 4 2.2559723595316457e+00 9.9997793569262239e-01 4.2000000000000000e+03 8.0000000000000000e+00 0.0000000000000000e+00 2.5000000000000000e+00 
82 2 4 2.2559723595317847e+00 1.0000158752579440e+00 4.2000000000000000e+03 8.0000000000000000e+00 2.0000000000000000e+00 2.5000000000000000e+00 
101 2 4 2.2559723595316457e+00 1.0000000000000000e+00 4.2000000000000000e+03 1.0000000000000000e+01 0.0000000000000000e+00 2.5000000000000000e+00 
102 2 4 2.2559723595316457e+00 1.0000000010163221e+00 4.2000000000000000e+03 1.0000000000000000e+01 2.0000000000000000e+00 2.5000000000000000e+00 
121 2 4 2.2559723595316457e+00 1.0000000000000000e+00 4.2000000000000000e+03 1.2000000000000000e+01 0.0000000000000000e+00 2.5000000000000000e+00 
122 2 4 2.2559723595316457e+00 9.9999216739913221e-01 4.2000000000000000e+03 1.2000000000000000e+01 2.0000000000000000e+00 2.5000000000000000e+00 
141 2 4 2.2559723595316457e+00 9.9996621039534439e-01 4.2000000000000000e+03 1.4000000000000000e+01 0.0000000000000000e+00 2.5000000000000000e+00 
142 2 4 2.2559723595316457e+00 1.0004011531524384e+00 4.2000000000000000e+03 1.4000000000000000e+01 2.0000000000000000e+00 2.5000000000000000e+00 
161 2 4 2.2559723595316457e+00 1.0000000000000000e+00 4.2000000000000000e+03 1.6000000000000000e+01 0.0000000000000000e+00 2.5000000000000000e+00 
162 2 4 2.2559723595316457e+00 9.9996487558337299e-01 4.2000000000000000e+03 1.6000000000000000e+01 2.0000000000000000e+00 2.5000000000000000e+00 
181 2 4 2.2559723595316457e+00 9.9995856961443774e-01 4.2000000000000000e+03 1.8000000000000000e+01 0.0000000000000000e+00 2.5000000000000000e+00 
182 2 4 2.2559723595316457e+00 1.0000000000000000e+00 4.2000000000000000e+03 1.8000000000000000e+01 2.0000000000000000e+00 2.5000000000000000e+00 
3 2 4 2.2559723595316457e+00 -2.6631354709826409e+00 4.2000000000000000e+03 0.0000000000000000e+00 4.0000000000000000e+00 2.5000000000000000e+00 
4 2 4 2.2559723599506349e+00 5.1578718688076708e-01 4.2000000000000000e+03 0.0000000000000000e+00 6.0000000000000000e+00 2.5000000000000000e+00 
23 2 4 2.2559723595316457e+00 9.9996555002496401e-01 4.2000000000000000e+03 2.0000000000000000e+00 4.0000000000000000e+00 2.5000000000000000e+00 
24 2 4 2.2559723595316457e+00 1.0000000000000000e+00 4.2000000000000000e+03 2.0000000000000000e+00 6.0000000000000000e+00 2.5000000000000000e+00 
43 2 4 2.2559723595316457e+00 1.0000000000000000e+00 4.2000000000000000e+03 4.0000000000000000e+00 4.0000000000000000e+00 2.5000000000000000e+00 
44 2 4 2.2559723595316457e+00 1.0000000000000000e+00 4.2000000000000000e+03 4.0000000000000000e+00 6.0000000000000000e+00 2.5000000000000000e+00 
63 2 4 2.2559723595316457e+00 1.0000000000000000e+00 4.2000000000000000e+03 6.0000000000000000e+00 4.0000000000000000e+00 2.5000000000000000e+00 
64 2 4 2.2559723595316457e+00 1.0000000000000000e+00 4.2000000000000000e+03 6.0000000000000000e+00 6.0000000000000000e+00 2.5000000000000000e+00 
83 2 4 2.2559723595316457e+00 1.0000000000000000e+00 4.2000000000000000e+03 8.0000000000000000e+00 4.0000000000000000e+00 2.5000000000000000e+00 
84 2 4 2.2559723595316457e+00 1.0000000000000000e+00 4.2000000000000000e+03 8.0000000000000000e+00 6.0000000000000000e+00 2.5000000000000000e+00 
103 2 4 2.2559723595316457e+00 1.0000000000000000e+00 4.2000000000000000e+03 1.0000000000000000e+01 4.0000000000000000e+00 2.5000000000000000e+00 
104 2 4 2.2559723595316457e+00 9.9861345692308423e-01 4.2000000000000000e+03 1.0000000000000000e+01 6.0000000000000000e+00 2.5000000000000000e+00 
123 2 4 2.2559723601113091e+00 1.0109249779564788e+00 4.2000000000000000e+03 1.2000000000000000e+01 4.0000000000000000e+00 2.5000000000000000e+00 
124 2 4 2.2559723595316457e+00 1.0000000000000000e+00 4.2000000000000000e+03 1.2000000000000000e+01 6.0000000000000000e+00 2.5000000000000000e+00 
143 2 4 2.2559723595316457e+00 9.9975744368044273e-01 4.2000000000000000e+03 1.4000000000000000e+01 4.0000000000000000e+00 2.5000000000000000e+00 
144 2 4 2.2559723595316457e+00 1.0000000000000000e+00 4.2000000000000000e+03 1.4000000000000000e+01 6.0000000000000000e+00 2.5000000000000000e+00 
163 2 4 2.2559723595316457e+00 9.9976984255857992e-01 4.2000000000000000e+03 1.6000000000000000e+01 4.0000000000000000e+00 2.5000000000000000e+00 
164 2 4 2.2559723595316457e+00 9.9985667826869884e-01 4.2000000000000000e+03 1.6000000000000000e+01 6.0000000000000000e+00 2.5000000000000000e+00 
183 2 4 2.2559723595311461e+00 1.0000465378125274e+00 4.2000000000000000e+03 1.8000000000000000e+01 4.0000000000000000e+00 2.5000000000000000e+00 
184 2 4 2.2559723595316457e+00 9.6816582339465684e-01 4.2000000000000000e+03 1.8000000000000000e+01 6.0000000000000000e+00 2.5000000000000000e+00 
5 2 4 2.2559723595316457e+00 9.9834539821376911e-01 4.2000000000000000e+03 0.0000000000000000e+00 8.0000000000000000e+00 2.5000000000000000e+00 
25 2 4 2.2559723655520698e+00 1.0645280409004250e+00 4.2000000000000000e+03 2.0000000000000000e+00 8.0000000000000000e+00 2.5000000000000000e+00 
45 2 4 2.2559723595316457e+00 1.0000000000000000e+00 4.2000000000000000e+03 4.0000000000000000e+00 8.0000000000000000e+00 2.5000000000000000e+00 
65 2 4 2.2559723595316457e+00 1.0000000000000000e+00 4.2000000000000000e+03 6.0000000000000000e+00 8.0000000000000000e+00 2.5000000000000000e+00 
85 2 4 2.2559723595316457e+00 1.0000000000000000e+00 4.2000000000000000e+03 8.0000000000000000e+00 8.0000000000000000e+00 2.5000000000000000e+00 
105 2 4 2.2559723595316457e+00 1.0000000000000000e+00 4.2000000000000000e+03 1.0000000000000000e+01 8.0000000000000000e+00 2.5000000000000000e+00 
125 2 4 2.2559723595316457e+00 1.0000000000000000e+00 4.2000000000000000e+03 1.2000000000000000e+01 8.0000000000000000e+00 2.5000000000000000e+00 
145 2 4 2.2559723595535055e+00 1.0008506907955317e+00 4.2000000000000000e+03 1.4000000000000000e+01 8.0000000000000000e+00 2.5000000000000000e+00 
165 2 4 2.2559723595316457e+00 3.5666429928512156e-01 4.2000000000000000e+03 1.6000000000000000e+01 8.0000000000000000e+00 2.5000000000000000e+00 
185 2 4 2.2559723595531302e+00 2.6159459910433697e-01 4.2000000000000000e+03 1.8000000000000000e+01 8.0000000000000000e+00 2.5000000000000000e+00 
6 2 4 2.2559723595316457e+00 1.0000000000000000e+00 4.2000000000000000e+03 0.0000000000000000e+00 1.0000000000000000e+01 2.5000000000000000e+00 
7 2 4 2.2559723595316457e+00 9.9994190533504512e-01 4.2000000000000000e+03 0.0000000000000000e+00 1.2000000000000000e+01 2.5000000000000000e+00 
26 2 4 2.2559723604694448e+00 1.0158626219360147e+00 4.2000000000000000e+03 2.0000000000000000e+00 1.0000000000000000e+01 2.5000000000000000e+00 
27 2 4 2.2559723595323491e+00 1.0000753616311220e+00 4.2000000000000000e+03 2.0000000000000000e+00 1.2000000000000000e+01 2.5000000000000000e+00 
46 2 4 2.2559723595316457e+00 1.0000000000000000e+00 4.2000000000000000e+03 4.0000000000000000e+00 1.0000000000000000e+01 2.5000000000000000e+00 
47 2 4 2.2559723595316457e+00 1.0000000000000000e+00 4.2000000000000000e+03 4.0000000000000000e+00 1.2000000000000000e+01 2.5000000000000000e+00 
66 2 4 2.2559723595316457e+00 1.0000000000000000e+00 4.2000000000000000e+03 6.0000000000000000e+00 1.0000000000000000e+01 2.5000000000000000e+00 
67 2 4 2.2559723595316457e+00 1.0000000000000000e+00 4.2000000000000000e+03 6.0000000000000000e+00 1.2000000000000000e+01 2.5000000000000000e+00 
86 2 4 2.2559723595316457e+00 1.0000000000000000e+00 4.2000000000000000e+03 8.0000000000000000e+00 1.0000000000000000e+01 2.5000000000000000e+00 
87 2 4 2.2559723595316457e+00 1.0000000000000000e+00 4.2000000000000000e+03 8.0000000000000000e+00 1.2000000000000000e+01 2.5000000000000000e+00 
106 2 4 2.2559723595316457e+00 1.0000000000000000e+00 4.2000000000000000e+03 1.0000000000000000e+01 1.0000000000000000e+01 2.5000000000000000e+00 
107 2 4 2.2559723595316457e+00 1.0000000000000000e+00 4.2000000000000000e+03 1.0000000000000000e+01 1.2000000000000000e+01 2.5000000000000000e+00 
126 2 4 2.2559723595316457e+00 1.0000000000000000e+00 4.2000000000000000e+03 1.2000000000000000e+01 1.0000000000000000e+01 2.5000000000000000e+00 
127 2 4 2.2559723595316457e+00 1.0000000000000000e+00 4.2000000000000000e+03 1.2000000000000000e+01 1.2000000000000000e+01 2.5000000000000000e+00 
146 2 4 2.2559723595316457e+00 3.1696670061793097e-01 4.2000000000000000e+03 1.4000000000000000e+01 1.0000000000000000e+01 2.5000000000000000e+00 
147 2 4 2.2559723595316457e+00 2.9722757362164265e-01 4.2000000000000000e+03 1.4000000000000000e+01 1.2000000000000000e+01 2.5000000000000000e+00 
166 2 4 2.2559723595316457e+00 -1.8724872427838412e+02 4.2000000000000000e+03 1.6000000000000000e+01 1.0000000000000000e+01 2.5000000000000000e+00 
167 2 4 2.2559723595316457e+00 -1.9277480067732142e+02 4.2000000000000000e+03 1.6000000000000000e+01 1.2000000000000000e+01 2.5000000000000000e+00 
186 2 4 2.2559723595316457e+00 -1.9254102793573065e+02 4.2000000000000000e+03 1.8000000000000000e+01 1.0000000000000000e+01 2.5000000000000000e+00 
187 2 4 2.2559723595853165e+00 -1.9363877218674691e+02 4.2000000000000000e+03 1.8000000000000000e+01 1.2000000000000000e+01 2.5000000000000000e+00 
8 2 4 2.2559723595316457e+00 1.0001410317849748e+00 4.2000000000000000e+03 0.0000000000000000e+00 1.4000000000000000e+01 2.5000000000000000e+00 
9 2 4 2.2559723596949057e+00 1.0262072569188641e+00 4.2000000000000000e+03 0.0000000000000000e+00 1.6000000000000000e+01 2.5000000000000000e+00 
28 2 4 2.2559723595316457e+00 1.0000000000000000e+00 4.2000000000000000e+03 2.0000000000000000e+00 1.4000000000000000e+01 2.5000000000000000e+00 
29 2 4 2.2559723595316457e+00 1.0000000000000000e+00 4.2000000000000000e+03 2.0000000000000000e+00 1.6000000000000000e+01 2.5000000000000000e+00 
48 2 4 2.2559723595316457e+00 9.9999813271602722e-01 4.2000000000000000e+03 4.0000000000000000e+00 1.4000000000000000e+01 2.5000000000000000e+00 
49 2 4 2.2559723595316457e+00 9.9999770049471470e-01 4.2000000000000000e+03 4.0000000000000000e+00 1.6000000000000000e+01 2.5000000000000000e+00 
68 2 4 2.2559723595316457e+00 1.0000000000000000e+00 4.2000000000000000e+03 6.0000000000000000e+00 1.4000000000000000e+01 2.5000000000000000e+00 
69 2 4 2.2559723595316457e+00 1.0000000000000000e+00 4.2000000000000000e+03 6.0000000000000000e+00 1.6000000000000000e+01 2.5000000000000000e+00 
88 2 4 2.2559723595316457e+00 1.0000000000000000e+00 4.2000000000000000e+03 8.0000000000000000e+00 1.4000000000000000e+01 2.5000000000000000e+00 
89 2 4 2.2559723595316457e+00 1.0000000000000000e+00 4.2000000000000000e+03 8.0000000000000000e+00 1.6000000000000000e+01 2.5000000000000000e+00 
108 2 4 2.2559723595316457e+00 1.0000000000000000e+00 4.2000000000000000e+03 1.0000000000000000e+01 1.4000000000000000e+01 2.5000000000000000e+00 
109 2 4 2.2559723595316457e+00 1.0000000000000000e+00 4.2000000000000000e+03 1.0000000000000000e+01 1.6000000000000000e+01 2.5000000000000000e+00 
128 2 4 2.2559723595316457e+00 1.0000000000000000e+00 4.2000000000000000e+03 1.2000000000000000e+01 1.4000000000000000e+01 2.5000000000000000e+00 
129 2 4 2.2559723595316457e+00 1.0000000000000000e+00 4.2000000000000000e+03 1.2000000000000000e+01 1.6000000000000000e+01 2.5000000000000000e+00 
148 2 4 2.2559723595316457e+00 3.7355830434197146e-01 4.2000000000000000e+03 1.4000000000000000e+01 1.4000000000000000e+01 2.5000000000000000e+00 
149 2 4 2.2559723595316457e+00 4.0981093943850200e-01 4.2000000000000000e+03 1.4000000000000000e+01 1.6000000000000000e+01 2.5000000000000000e+00 
168 2 4 2.2559723595316457e+00 -1.9342285356028756e+02 4.2000000000000000e+03 1.6000000000000000e+01 1.4000000000000000e+01 2.5000000000000000e+00 
169 2 4 2.2559723595316457e+00 -1.9446741469266811e+02 4.2000000000000000e+03 1.6000000000000000e+01 1.6000000000000000e+01 2.5000000000000000e+00 
188 2 4 2.2559723596978447e+00 -1.9487009168114062e+02 4.2000000000000000e+03 1.8000000000000000e+01 1.4000000000000000e+01 2.5000000000000000e+00 
189 2 4 2.2559723779278942e+00 -1.9761091508123911e+02 4.2000000000000000e+03 1.8000000000000000e+01 1.6000000000000000e+01 2.5000000000000000e+00 
10 2 4 2.2559723595316457e+00 1.0000028444132991e+00 4.2000000000000000e+03 0.0000000000000000e+00 1.8000000000000000e+01 2.5000000000000000e+00 
30 2 4 2.2559723595316457e+00 9.9999977643867943e-01 4.2000000000000000e+03 2.0000000000000000e+00 1.8000000000000000e+01 2.5000000000000000e+00 
50 2 4 2.2559723595316457e+00 9.1731699188442140e-01 4.2000000000000000e+03 4.0000000000000000e+00 1.8000000000000000e+01 2.5000000000000000e+00 
70 2 4 2.2559723645117331e+00 1.0552474514215497e+00 4.2000000000000000e+03 6.0000000000000000e+00 1.8000000000000000e+01 2.5000000000000000e+00 
90 2 4 2.2559723595316457e+00 1.0000000000000000e+00 4.2000000000000000e+03 8.0000000000000000e+00 1.8000000000000000e+01 2.5000000000000000e+00 
110 2 4 2.2559723595316457e+00 1.0000000000000000e+00 4.2000000000000000e+03 1.0000000000000000e+01 1.8000000000000000e+01 2.5000000000000000e+00 
130 2 4 2.2559723595316457e+00 9.9398016133963485e-01 4.2000000000000000e+03 1.2000000000000000e+01 1.8000000000000000e+01 2.5000000000000000e+00 
150 2 4 2.2559723595316457e+00 2.5095958973044574e-01 4.2000000000000000e+03 1.4000000000000000e+01 1.8000000000000000e+01 2.5000000000000000e+00 
170 2 4 2.2559723595316457e+00 -1.9439721363852539e+02 4.2000000000000000e+03 1.6000000000000000e+01 1.8000000000000000e+01 2.5000000000000000e+00 
190 2 4 2.2559723595316457e+00 -1.9598384123253632e+02 4.2000000000000000e+03 1.8000000000000000e+01 1.8000000000000000e+01 2.5000000000000000e+00 
758 360 2 1.0279999999995857e+00 -5.0521311908536554e+03 4.2000000000000000e+03 1.8185227265382963e+01 8.3118992710197825e-01 1.1858683933651847e+01 
759 361 2 1.0279999999995828e+00 -5.0521312108419006e+03 4.2000000000000000e+03 1.9814804345699631e+01 8.3118992015537452e-01 1.1858682808401785e+01 
1773 1375 2 1.0279999999996341e+00 1.6416631602545181e+03 4.2000000000000000e+03 1.9654161048290600e+01 9.1985548523912286e-01 1.1948657178435466e+01 
1776 1378 2 1.0279999999996221e+00 1.6416631616937329e+03 4.2000000000000000e+03 1.8345870900508103e+01 9.1985553058508263e-01 1.1948658008398482e+01 
905 507 2 1.0280000052259559e+00 3.2205328448403702e+03 4.2000000000000000e+03 6.3115877015969135e-01 1.5259177626343002e+01 1.0525953295740901e+01 
1093 695 2 1.0280000105761953e+00 3.0564092910425647e+03 4.2000000000000000e+03 8.1392667203518654e-01 1.5856377462143882e+01 1.0531178242457322e+01 
744 346 2 1.0280000271508478e+00 -8.1041904231317801e+02 4.2000000000000000e+03 9.5612592158441001e-01 1.6536698535836127e+01 1.0723595260854070e+01 
1097 699 2 1.0280000064606492e+00 3.7057265829767348e+03 4.2000000000000000e+03 5.2183997220836909e-01 1.5270795504904648e+01 1.1807111815227850e+01 
943 545 2 1.0279998959888861e+00 -7.9494459260722999e+02 4.2000000000000000e+03 1.5770835306314510e+00 1.7509967959074650e+01 1.0366212300556928e+01 
1292 894 2 1.0280000249604715e+00 7.7524988640615675e+02 4.2000000000000000e+03 2.2388552136986775e+00 1.8563374344630844e+01 1.0520658676933998e+01 
1124 726 2 1.0280000249598207e+00 7.7524989496551780e+02 4.2000000000000000e+03 2.2388545002550977e+00 1.9436777593860938e+01 1.0520657296431533e+01 
1274 876 2 1.0280000127181601e+00 -3.8848057536053975e+03 4.2000000000000000e+03 2.1135193189362798e+00 1.9899277105144886e+01 1.0522106743389372e+01 
1106 708 2 1.0280000127193507e+00 -3.8848057713585781e+03 4.2000000000000000e+03 2.1135207409106389e+00 1.8100875193427640e+01 1.0522109790104230e+01 
1095 697 2 1.0279999270547875e+00 -2.7990863886359398e+03 4.2000000000000000e+03 1.7451233704147231e+01 1.9366620470592313e+01 1.7442766753879464e+01 
1263 865 2 1.0279999270548157e+00 -2.7990863887982673e+03 4.2000000000000000e+03 1.7451233692803395e+01 1.8633379902559010e+01 1.7442766756081973e+01 
1242 844 2 1.0279999140590617e+00 2.9404993000629092e+03 4.2000000000000000e+03 1.7343340327073992e+01 1.8998488765636619e+01 1.7509708751441757e+01 
1074 676 2 1.0279999140590366e+00 2.9404992999658343e+03 4.2000000000000000e+03 1.7343340326699714e+01 1.9001511635515108e+01 1.7509708752312775e+01 
1078 680 2 1.0280002746178329e+00 -4.3921597674515788e+03 4.2000000000000000e+03 1.8267012598371490e+01 1.7532542069695300e+01 1.8890394269235028e+01 
1079 681 2 1.0280002746176320e+00 -4.3921597674756076e+03 4.2000000000000000e+03 1.9732989673457560e+01 1.7532542233921891e+01 1.8890394944832778e+01 
1084 686 2 1.0280004915526577e+00 4.7300799024961125e+03 4.2000000000000000e+03 1.9454970331231575e+01 1.7159030215213608e+01 2.0677507330824589e+01 
1081 683 2 1.0280004915524452e+00 4.7300798999423805e+03 4.2000000000000000e+03 1.8545029062587840e+01 1.7159030749487982e+01 2.0677507148343356e+01 
583 185 2 1.0279996666304507e+00 -3.0461915570815650e+03 4.2000000000000000e+03 1.7543114474230165e+01 1.8908200137499335e+01 2.1868657725780519e+01 
1759 1361 2 1.0279996666304021e+00 -3.0461915584218800e+03 4.2000000000000000e+03 1.7543114472236116e+01 1.9091800083063426e+01 2.1868657740618193e+01 
1296 898 2 1.0280001531381435e+00 -2.0515017121299505e+02 4.2000000000000000e+03 1.8696648609109175e+01 1.6877453427328735e+01 2.2379832923733513e+01 
1293 895 2 1.0280001531382457e+00 -2.0515017160177808e+02 4.2000000000000000e+03 1.9303351040188179e+01 1.6877453355219107e+01 2.2379832750163779e+01 
1305 907 2 1.0279999738781485e+00 2.2445051536142846e+03 4.2000000000000000e+03 1.7563124857749756e+01 1.9029899928952915e+01 2.5849854585538246e+01 
1137 739 2 1.0279999738781493e+00 2.2445051535563612e+03 4.2000000000000000e+03 1.7563124854628018e+01 1.8970099851521056e+01 2.5849854580862896e+01 
1300 902 2 1.0280004097996118e+00 1.9130474118446341e+03 4.2000000000000000e+03 1.9690199157684241e+01 1.7415090889632069e+01 2.3847120395154221e+01 
1297 899 2 1.0280004097995294e+00 1.9130474119470628e+03 4.2000000000000000e+03 1.8309800653053596e+01 1.7415090861076976e+01 2.3847120625270037e+01 
1136 738 2 1.0279999804906126e+00 9.7612483728586437e+02 4.2000000000000000e+03 1.7584363117907433e+01 1.9250062555199744e+01 2.5830470720765657e+01 
1304 906 2 1.0279999804906352e+00 9.7612483716192162e+02 4.2000000000000000e+03 1.7584363109296959e+01 1.8749937249948228e+01 2.5830470722364399e+01 
1021 623 2 1.0279999859632336e+00 3.2726138893975673e+01 4.2000000000000000e+03 1.0159965503602149e+00 1.7349957600129219e+01 6.9543068686441032e+01 
662 264 2 1.0280000470488353e+00 -4.1821416328904770e+03 4.2000000000000000e+03 9.1871116619961224e-01 1.9714188118562639e+01 6.8899509538120796e+01 
1838 1440 2 1.0280000470637274e+00 -4.1821419027421498e+03 4.2000000000000000e+03 9.1877456640342769e-01 1.8286393521556572e+01 6.8899606846168993e+01 
666 268 2 1.0280000350231402e+00 -3.4095189159616129e+03 4.2000000000000000e+03 5.5313518923196026e-01 1.7943872218727400e+01 6.8778062583035492e+01 
870 472 2 1.0280000380181531e+00 -6.0298973596032347e+03 4.2000000000000000e+03 5.2221941787866422e-01 1.5895027981602968e+01 7.1598216744221006e+01 
498 100 2 1.0280000798291600e+00 2.8633804608712908e+03 4.2000000000000000e+03 2.4768470032431791e-01 1.5868465577337421e+01 7.2138722938470124e+01 
510 112 2 1.0279999416283783e+00 1.2830330126447636e+03 4.2000000000000000e+03 9.9218187466325480e-01 1.7120402967259491e+01 7.0181535761461603e+01 
478 80 2 1.0280027040696089e+00 2.0638806862638803e+03 4.2000000000000000e+03 1.7280790813943113e+01 1.5834584893723097e+01 7.4082109618788081e+01 
749 351 2 1.0279942732688014e+00 1.7347112049096565e+03 4.2000000000000000e+03 1.6955121891742021e+01 1.5732312483835825e+01 7.4552476936848066e+01 
1621 1223 2 1.0280007044546189e+00 1.6351340466724084e+03 4.2000000000000000e+03 1.7767470606804437e+01 1.5802625356273360e+01 7.4926394093703664e+01 
1600 1202 2 1.0280001722308370e+00 2.0652404078470549e+03 4.2000000000000000e+03 1.5605108783060505e+01 1.6722797663757202e+01 7.4218442355949151e+01 
782 384 2 1.0280038797178663e+00 -4.1709185206386319e+03 4.2000000000000000e+03 1.5296453713773387e+01 1.6858733883614221e+01 7.4501075746358154e+01 
420 22 2 1.0280024324292503e+00 3.9666734638253320e+03 4.2000000000000000e+03 1.5042197256542302e+01 1.6842725386426299e+01 7.4861328381201687e+01 
633 235 2 1.0280054757492179e+00 2.1403219774017853e+03 4.2000000000000000e+03 1.6434522165270259e+01 1.8350672664843017e+01 7.4941250527656464e+01 
1809 1411 2 1.0280049505133939e+00 2.1403201648563613e+03 4.2000000000000000e+03 1.6434442642600363e+01 1.9648474952947677e+01 7.4940767712642213e+01 
962 564 2 1.0279912149294188e+00 -1.2981767607792392e+03 4.2000000000000000e+03 1.4285053218317710e+01 1.7430392232622349e+01 7.6152097576844483e+01 
1831 1433 2 1.0279886123324498e+00 -2.7902838556655511e+03 4.2000000000000000e+03 1.9113902806261375e+01 1.6839001922583009e+01 7.4023414944546815e+01 
1830 1432 2 1.0279886381817200e+00 -2.7902837848131567e+03 4.2000000000000000e+03 1.8885247075495272e+01 1.6838957865928094e+01 7.4023456814167417e+01 
815 417 2 1.0280312706172101e+00 -6.1667240775207711e+03 4.2000000000000000e+03 1.8780989788211546e+01 1.6529036512975903e+01 7.9677334420901190e+01 
814 416 2 1.0280312511040792e+00 -6.1667261768573844e+03 4.2000000000000000e+03 1.9219423497973253e+01 1.6528956743997735e+01 7.9677116594411345e+01 
846 448 2 1.0280000063158856e+00 -6.3363622713044406e+03 4.2000000000000000e+03 5.8928608584428028e+00 1.6964975202892777e+01 7.8562458844670019e+01 
704 306 2 1.0280000066063475e+00 3.4216441819456977e+03 4.2000000000000000e+03 5.0846230972968529e+00 1.7339614923123143e+01 7.8701874196446141e+01 
841 443 2 1.0280000101646913e+00 1.7655093761050584e+03 4.2000000000000000e+03 6.5745697797964882e+00 1.7682623442844367e+01 7.8846514159319185e+01 
516 118 2 1.0280000083993286e+00 2.9033389132661496e+03 4.2000000000000000e+03 4.9679118180582238e+00 1.7557893530798466e+01 7.9071742026808877e+01 
1885 1487 2 1.0280000063619388e+00 1.8738048377034761e+03 4.2000000000000000e+03 5.9945087677295765e+00 1.6938135726397689e+01 7.9198613629072099e+01 
1683 1285 2 1.0280000063627623e+00 -2.6984719896392480e+03 4.2000000000000000e+03 5.9973847659363289e+00 1.6938209795779965e+01 7.9196340202754442e+01 
617 219 2 1.0280051185452923e+00 3.0392900146326806e+03 4.2000000000000000e+03 1.3891403935815100e+01 1.7176930103599624e+01 7.7743627134116693e+01 
1130 732 2 1.0280052245514473e+00 -5.8310915048233010e+03 4.2000000000000000e+03 1.3892501011425439e+01 1.7177688291229551e+01 7.7789620272159326e+01 
937 539 2 1.0280137450305646e+00 1.6872386902787084e+03 4.2000000000000000e+03 1.4376653322515487e+01 1.6922610191741679e+01 7.8021675068374549e+01 
1970 1572 2 1.0280131033614393e+00 1.0418711802714477e+03 4.2000000000000000e+03 1.4335446897351662e+01 1.6927953830084693e+01 7.8013795691117068e+01 
1625 1227 2 1.0279978785083121e+00 7.6407217795738165e+02 4.2000000000000000e+03 1.4728826629430893e+01 1.7596489099606330e+01 7.9662095286538658e+01 
1823 1425 2 1.0280470978533369e+00 -5.4650564497608511e+03 4.2000000000000000e+03 1.8410750607186309e+01 1.8026899718307362e+01 7.7277339573580406e+01 
1822 1424 2 1.0280464254246666e+00 -5.4650566581080020e+03 4.2000000000000000e+03 1.9589876750361167e+01 1.8027063004437501e+01 7.7276684043674265e+01 
647 249 2 1.0280466496430898e+00 -5.4650544269234224e+03 4.2000000000000000e+03 1.8409987092791106e+01 1.9972623627112341e+01 7.7276018396630135e+01 
646 248 2 1.0280465905662077e+00 -5.4650567366370569e+03 4.2000000000000000e+03 1.9589122498775978e+01 1.9972917432991544e+01 7.7275966303929550e+01 
810 412 2 1.0279193845013479e+00 -5.7354173370185490e+03 4.2000000000000000e+03 1.7337658088630892e+01 1.8889310018306055e+01 7.8342115498551223e+01 
1650 1252 2 1.0279194469894657e+00 -5.7354165579552091e+03 4.2000000000000000e+03 1.7338024529562144e+01 1.9110912000235732e+01 7.8340995199855740e+01 
466 68 2 1.0279667892340683e+00 2.3657529083011973e+03 4.2000000000000000e+03 1.8243449043424619e+01 1.6359514809218151e+01 8.1570966401706755e+01 
467 69 2 1.0279662707086541e+00 2.3657519496194063e+03 4.2000000000000000e+03 1.9755791699549622e+01 1.6358832686383746e+01 8.1566763742194468e+01 
470 72 2 1.0280156711110700e+00 1.9872139343975850e+03 4.2000000000000000e+03 1.4706362308718488e+01 1.8939449233156658e+01 8.0695737032603461e+01 
1982 1584 2 1.0280155972299285e+00 1.9872160295548554e+03 4.2000000000000000e+03 1.4705990301376181e+01 1.9060021690820491e+01 8.0695385784740253e+01 
813 415 2 1.0280512418481056e+00 7.3041174535375899e+02 4.2000000000000000e+03 1.5750145465523945e+01 1.8830795770713440e+01 8.1480593761792264e+01 
1653 1255 2 1.0280511484370725e+00 7.3041250281970815e+02 4.2000000000000000e+03 1.5749985511242292e+01 1.9168596940927298e+01 8.1480489025642129e+01 
1634 1236 2 1.0280023415055257e+00 -6.6931543789159605e+03 4.2000000000000000e+03 1.8148660833269595e+01 1.6708314050516488e+01 8.0199946256417704e+01 
1635 1237 2 1.0280025075447794e+00 -6.6931571123924905e+03 4.2000000000000000e+03 1.9852048052716892e+01 1.6708199500884607e+01 8.0198609294889266e+01 
482 84 2 1.0280027419375493e+00 2.6963578727714194e+03 4.2000000000000000e+03 1.7539526215262942e+01 1.8388566477082794e+01 8.2560674404843468e+01 
1994 1596 2 1.0280027208321658e+00 2.6963570614780429e+03 4.2000000000000000e+03 1.7539475899461735e+01 1.9611520006324739e+01 8.2560115911338826e+01 
1317 919 2 1.0280159757434892e+00 2.1099222781870399e+03 4.2000000000000000e+03 1.8931405875990471e+01 9.2998023524729090e-01 8.5758159044725858e+01 
1320 922 2 1.0280160369796125e+00 2.1099223207743553e+03 4.2000000000000000e+03 1.9067198542895149e+01 9.3001452304210352e-01 8.5758102758785213e+01 
748 350 2 1.0280375166626594e+00 8.5480810462705551e+02 4.2000000000000000e+03 1.8152656101054482e+01 3.3216092236838408e+00 8.5978654458968450e+01 
745 347 2 1.0280384390003523e+00 8.5480988597348778e+02 4.2000000000000000e+03 1.9846527889155492e+01 3.3218731742637240e+00 8.5979514025864276e+01 
598 200 2 1.0279716733117645e+00 -4.5374760304779556e+03 4.2000000000000000e+03 1.7777806289158985e+01 2.7878403225441506e+00 8.6363872424908550e+01 
1593 1195 2 1.0279714883692499e+00 1.6108213076063953e+03 4.2000000000000000e+03 1.8176351634992564e+01 3.6656119770283718e-01 8.6408886143489781e+01 
1596 1198 2 1.0279724467758493e+00 1.6108224830870574e+03 4.2000000000000000e+03 1.9822271438745300e+01 3.6678708345031646e-01 8.6407711311707757e+01 
1938 1540 2 1.0279946075168800e+00 3.2500896336870346e+03 4.2000000000000000e+03 1.7419161119822931e+01 5.2115245311100900e+00 8.6090680930014685e+01 
1916 1518 2 1.0279795949294792e+00 2.3813765827782295e+03 4.2000000000000000e+03 1.7112572682543593e+01 5.7476661023762530e+00 8.6089948233162076e+01 
580 182 2 1.0280142574595041e+00 1.2911664996511608e+03 4.2000000000000000e+03 1.6504938456446919e+01 7.7676495276807689e+00 8.5636933066901179e+01 
575 177 2 1.0279026217964851e+00 -2.6899616218187375e+03 4.2000000000000000e+03 1.6648285193402412e+01 9.3123529395096813e+00 8.6232286695086913e+01 
1144 746 2 1.0279872422197904e+00 -1.7785895691947047e+02 4.2000000000000000e+03 1.9928706246695729e+01 6.7787897435307158e+00 8.4790043245236660e+01 
1141 743 2 1.0279872158943550e+00 -1.7785907770025216e+02 4.2000000000000000e+03 1.8072939318217646e+01 6.7782760937496320e+00 8.4790021686566845e+01 
1145 747 2 1.0280558052727538e+00 3.8778148134929493e+03 4.2000000000000000e+03 1.7911836078803642e+01 8.5521733841222645e+00 8.5096005282473470e+01 
1321 923 2 1.0280049534528812e+00 1.5651557366316845e+03 4.2000000000000000e+03 1.7247373423498914e+01 6.9819710410957798e+00 8.5110363338318095e+01 
422 24 2 1.0279650007045109e+00 4.4288468983642852e+03 4.2000000000000000e+03 1.9788864238153845e+01 1.0926092565959543e+01 8.5237982004303547e+01 
423 25 2 1.0279606005037227e+00 4.4288490621938899e+03 4.2000000000000000e+03 1.8215935190906748e+01 1.0926000586741628e+01 8.5236609634344475e+01 
1665 1267 2 1.0279774898697940e+00 2.9091220303593445e+03 4.2000000000000000e+03 1.9341522599308057e+01 1.2546019769703449e+01 8.5331978571509580e+01 
1668 1270 2 1.0279777496346318e+00 2.9091182720008810e+03 4.2000000000000000e+03 1.8660546388143100e+01 1.2545493906675794e+01 8.5331719824336332e+01 
421 23 2 1.0280097104398220e+00 2.5194102772686820e+03 4.2000000000000000e+03 1.7969797604383235e+01 1.1323403864982708e+01 8.5539298726091289e+01 
961 563 2 1.0279923868837826e+00 1.4839204259324631e+03 4.2000000000000000e+03 1.6268619003034413e+01 1.5784719240247412e+01 8.4554479068568142e+01 