LAMMPS data file via write_data, version 30 Jul 2016, timestep = 50400000

180 atoms
2 atom types

0.0000000000000000e+00 2.0000000000000000e+01 xlo xhi
0.0000000000000000e+00 2.0000000000000000e+01 ylo yhi
0.0000000000000000e+00 2.0000000000000000e+01 zlo zhi

Masses

1 3.896
2 100

Atoms # meso-molecular

146 1 2 3.3664287424634649e+00 -2.9293586539165128e+05 1.0000000000000000e+00 7.5711983247538417e-01 4.3551277977600616e-01 2.6299702065358623e+00 
2 1 2 3.3660724527653341e+00 -3.3946222335499981e+06 1.0000000000000000e+00 4.6266395618328922e+00 4.0978114710871694e-01 2.6352453533182314e+00 
151 1 2 3.3662346574674151e+00 -4.2163939539793174e+05 1.0000000000000000e+00 7.2075435698035606e-01 4.0400742716940776e+00 3.0503120463875122e-01 
7 1 2 3.3661426277472080e+00 -7.0179404204687674e+05 1.0000000000000000e+00 4.6251868277337103e+00 4.0380566273278760e+00 2.8571090809466748e-01 
19 1 2 3.3662585767037663e+00 -3.7850551913188971e+06 1.0000000000000000e+00 2.6617303882060650e+00 7.3014847017511224e+00 1.2828550136329644e+00 
13 1 2 3.3662542959522921e+00 -7.3666241210043605e+04 1.0000000000000000e+00 6.5887225507219238e+00 7.3022929836206707e+00 1.2806531448153256e+00 
3 1 2 3.3660320524935625e+00 -8.9568666920243744e+06 1.0000000000000000e+00 2.6506949487475731e+00 9.3207943036212004e-01 5.9777142217837023e+00 
39 1 2 3.3660316139698927e+00 -8.4784723185851090e+06 1.0000000000000000e+00 6.5986168368356344e+00 9.3495857233556900e-01 5.9774154191625755e+00 
8 1 2 3.3661879131633166e+00 -2.2851191423240760e+06 1.0000000000000000e+00 2.6759037571598938e+00 4.0978717075341473e+00 3.6346808524494194e+00 
44 1 2 3.3661849227696181e+00 -6.1973811359310811e+06 1.0000000000000000e+00 6.5768561986087111e+00 4.0994912301932374e+00 3.6361160351883441e+00 
158 1 2 3.3661970884995651e+00 -4.6739495662510575e+05 1.0000000000000000e+00 7.0619116118581948e-01 7.3922234445741610e+00 4.6023627401530325e+00 
14 1 2 3.3662116347793734e+00 -9.6229803388700751e+05 1.0000000000000000e+00 4.6265469624607416e+00 7.3893354477110709e+00 4.6068204477953110e+00 
148 1 2 3.3660881331614174e+00 -3.2830700068675872e+05 1.0000000000000000e+00 6.6759527740385904e-01 3.4646150381690388e-01 9.2825112058210220e+00 
4 1 2 3.3660696305416740e+00 4.7066057436951414e+04 1.0000000000000000e+00 4.6237965288510088e+00 3.4189443568197653e-01 9.2719440242412254e+00 
9 1 2 3.3662781028763455e+00 -1.8436013396269241e+06 1.0000000000000000e+00 6.9729886765125848e-01 4.2210014809137908e+00 6.9866628765757186e+00 
45 1 2 3.3662223261710742e+00 -2.2774570288711106e+06 1.0000000000000000e+00 4.6249754763698201e+00 4.2147917363496257e+00 6.9672014763872916e+00 
21 1 2 3.3662040018342099e+00 -4.5772685103713404e+06 1.0000000000000000e+00 2.6725387387909789e+00 7.5032836055286900e+00 7.9407957637261104e+00 
15 1 2 3.3662036754897202e+00 -4.2956818022541367e+06 1.0000000000000000e+00 6.5808103880122824e+00 7.5008920462468245e+00 7.9397532926837684e+00 
5 1 2 3.3662170559536033e+00 -2.1749428099053283e+06 1.0000000000000000e+00 2.6504448695614053e+00 8.9455138442733906e-01 1.2568284170401567e+01 
41 1 2 3.3662246527104447e+00 -4.6304009864020522e+05 1.0000000000000000e+00 6.5990916877334742e+00 8.9488153159868666e-01 1.2569097233388545e+01 
10 1 2 3.3662643677131885e+00 1.4233654893906323e+04 1.0000000000000000e+00 2.6622929515398877e+00 4.0206826098018853e+00 1.0284870274192389e+01 
46 1 2 3.3662634968984806e+00 -8.5048483699007693e+05 1.0000000000000000e+00 6.5905589249546352e+00 4.0175472840086135e+00 1.0284828415144029e+01 
160 1 2 3.3668879894921382e+00 -5.1359455681433240e+06 1.0000000000000000e+00 7.6432284224195435e-01 7.2873606413256438e+00 1.1279239960754301e+01 
16 1 2 3.3662491098015601e+00 -4.0366877735406900e+05 1.0000000000000000e+00 4.6274282264887185e+00 7.2845871098630921e+00 1.1278367259438278e+01 
150 1 2 3.3660813942293561e+00 -7.2211640768142068e+05 1.0000000000000000e+00 6.7190841346233054e-01 8.9300507266693563e-01 1.5903055999836376e+01 
6 1 2 3.3661232005017525e+00 -1.7491996824528112e+06 1.0000000000000000e+00 4.6251057683546097e+00 9.2374359506380121e-01 1.5899892684737734e+01 
156 1 2 3.3661520224301587e+00 -1.0977876771568607e+05 1.0000000000000000e+00 6.8137887295021704e-01 4.1018126006702085e+00 1.3619860301378367e+01 
11 1 2 3.3661207681957732e+00 -9.4609200913258852e+05 1.0000000000000000e+00 4.6274619620781410e+00 4.1594109521472866e+00 1.3630314917037248e+01 
17 1 2 3.3661601456378296e+00 -3.6050774694944191e+05 1.0000000000000000e+00 2.6704335083480961e+00 7.5241834523630571e+00 1.4629134034623551e+01 
53 1 2 3.3661542578558037e+00 -3.8322417441265085e+06 1.0000000000000000e+00 6.5816958162233306e+00 7.5223567856609170e+00 1.4628447985295475e+01 
1 1 2 3.3660533394201519e+00 -4.9989248753358849e+05 1.0000000000000000e+00 2.6770036445657168e+00 7.8100175833263275e-01 1.9260010343058838e+01 
37 1 2 3.3660514486765178e+00 -4.1179554317446850e+05 1.0000000000000000e+00 6.5735440310633564e+00 7.8086665150874524e-01 1.9260243941503862e+01 
12 1 2 3.3661654446433249e+00 -7.6301181481161923e+05 1.0000000000000000e+00 2.6418723619347859e+00 4.1355401056855357e+00 1.6954829264414332e+01 
48 1 2 3.3661603779488067e+00 -3.0688537825807096e+06 1.0000000000000000e+00 6.6094367038814141e+00 4.1381710667755325e+00 1.6954058136835030e+01 
162 1 2 3.3661833842624604e+00 -8.6306132609931007e+05 1.0000000000000000e+00 6.9543056660532998e-01 7.3859038334594453e+00 1.7964899981634179e+01 
18 1 2 3.3662238582873898e+00 -8.0799880414057418e+05 1.0000000000000000e+00 4.6257152902973360e+00 7.3777585451676480e+00 1.7958766058628886e+01 
164 1 2 3.3660866807173653e+00 -6.4334155908426607e+05 1.0000000000000000e+00 7.3227811074856253e-01 1.0576204854768212e+01 2.2170476093703888e+00 
55 1 2 3.3660337456774276e+00 -5.9921482331291167e+06 1.0000000000000000e+00 4.6261579520977616e+00 1.0606274855981976e+01 2.2238814879905289e+00 
25 1 2 3.3660231580779114e+00 -5.5226700271574138e+06 1.0000000000000000e+00 2.6506885564321281e+00 1.3874700741107400e+01 1.1695068318658766e+00 
61 1 2 3.3660233480438726e+00 -2.0096736950136290e+06 1.0000000000000000e+00 6.5991148316075394e+00 1.3876203368549369e+01 1.1702969348367180e+00 
175 1 2 3.3668879704640280e+00 -3.3291788066621777e+06 1.0000000000000000e+00 7.8653762963147411e-01 1.7451000187716399e+01 1.9560622844908518e-01 
31 1 2 3.3661731550851481e+00 -8.2232034767807683e+05 1.0000000000000000e+00 4.6272451846622324e+00 1.7157673773313441e+01 1.9417514666641472e-01 
20 1 2 3.3660649984078277e+00 -1.2759808770024884e+06 1.0000000000000000e+00 2.6702372154398732e+00 1.0661574651561711e+01 5.6018200772262823e+00 
56 1 2 3.3660694670331908e+00 -1.6292384446041596e+06 1.0000000000000000e+00 6.5808624462946348e+00 1.0662076643338281e+01 5.6015156254826941e+00 
170 1 2 3.3659897822186222e+00 -3.8410773496619257e+05 1.0000000000000000e+00 6.0528994364633881e-01 1.3853843847484136e+01 4.5057876907401022e+00 
26 1 2 3.3661128950857648e+00 -6.9920438321032068e+06 1.0000000000000000e+00 4.6236848295831230e+00 1.3871667278478217e+01 4.5121637030400024e+00 
32 1 2 3.3660895425637594e+00 -4.5615941245653257e+06 1.0000000000000000e+00 2.6486023111769423e+00 1.7114406692389494e+01 3.5641594663236815e+00 
68 1 2 3.3660926333731136e+00 -3.8773530522002224e+06 1.0000000000000000e+00 6.6030458470091196e+00 1.7113373713901183e+01 3.5646786051488273e+00 
165 1 2 3.3662737044433788e+00 -1.3646255784647869e+07 1.0000000000000000e+00 6.1569560527829403e-01 1.0719844384180186e+01 8.8689571120136836e+00 
27 1 2 3.3660601992396249e+00 -8.3367978236957768e+05 1.0000000000000000e+00 2.6282830812388496e+00 1.3918798035824491e+01 7.8427132653806888e+00 
63 1 2 3.3660629535602387e+00 -9.6150185475530056e+05 1.0000000000000000e+00 6.6219450679241225e+00 1.3918244560161272e+01 7.8422584708726033e+00 
177 1 2 3.3661033243727356e+00 5.7920020454701400e+04 1.0000000000000000e+00 6.6502890830489580e-01 1.7169881465177383e+01 6.9075207768979636e+00 
33 1 2 3.3660661926600133e+00 3.3225001452401634e+03 1.0000000000000000e+00 4.6262951247240904e+00 1.7206296270267881e+01 6.9007291006558260e+00 
22 1 2 3.3661319280740294e+00 -4.8293419757405273e+05 1.0000000000000000e+00 2.6771325562491324e+00 1.0580551112031484e+01 1.2125851774501793e+01 
58 1 2 3.3661321572788263e+00 -2.1444592352992487e+06 1.0000000000000000e+00 6.5815987169661652e+00 1.0581771852414393e+01 1.2125463567952181e+01 
28 1 2 3.3660955695890555e+00 -4.2814514628310123e+05 1.0000000000000000e+00 6.4053468908717903e-01 1.3825455133062585e+01 1.1212489454182981e+01 
64 1 2 3.3661697173173568e+00 -5.8842269154535998e+06 1.0000000000000000e+00 4.6271459196869573e+00 1.3817695899076909e+01 1.1157923827630107e+01 
34 1 2 3.3660991780491263e+00 -2.2147257801393731e+06 1.0000000000000000e+00 2.6350949135863577e+00 1.7069706078272333e+01 1.0239430907574150e+01 
70 1 2 3.3661008891703568e+00 -1.9680954002978201e+06 1.0000000000000000e+00 6.6162337307191930e+00 1.7070295547068390e+01 1.0240628943783335e+01 
168 1 2 3.3660945004582512e+00 -1.4717767007932814e+06 1.0000000000000000e+00 7.2805215636614962e-01 1.1157583750846369e+01 1.5447091659281918e+01 
23 1 2 3.3660938974856740e+00 -4.6542252526514680e+05 1.0000000000000000e+00 4.6280536034905913e+00 1.0859368911039541e+01 1.5467907007095983e+01 
29 1 2 3.3661915335383465e+00 -2.4229834914270818e+05 1.0000000000000000e+00 2.6747733002264935e+00 1.4427130996736635e+01 1.4450657561680426e+01 
65 1 2 3.3661877916556575e+00 -9.8025914620236792e+06 1.0000000000000000e+00 6.5792734655222525e+00 1.4426095446466341e+01 1.4450766833553725e+01 
179 1 2 3.3660950277255846e+00 -1.6541078875099571e+05 1.0000000000000000e+00 6.5551207254986865e-01 1.7686578970091531e+01 1.3533148238209300e+01 
35 1 2 3.3662394810929981e+00 -2.9515297633433663e+06 1.0000000000000000e+00 4.6261944843121432e+00 1.7674638771948871e+01 1.3502535164857784e+01 
24 1 2 3.3660859421101321e+00 -9.2354984774235971e+04 1.0000000000000000e+00 2.6835294858297902e+00 1.0686574317588587e+01 1.8832916399741546e+01 
60 1 2 3.3660878527318912e+00 -3.8367944641475896e+06 1.0000000000000000e+00 6.5686652179056457e+00 1.0688005212311671e+01 1.8831933310314273e+01 
30 1 2 3.3665536535204250e+00 -2.6574340915094718e+05 1.0000000000000000e+00 7.7495989237046603e-01 1.4399374045294961e+01 1.7790679398969651e+01 
66 1 2 3.3661071202414794e+00 -1.2647432640890125e+06 1.0000000000000000e+00 4.6254840223533389e+00 1.4002433520400126e+01 1.7808109577284796e+01 
36 1 2 3.3661944968225259e+00 -3.5417247734166065e+05 1.0000000000000000e+00 2.6765009651031439e+00 1.7655732093099179e+01 1.6843121219326878e+01 
72 1 2 3.3661917733699842e+00 -1.5386830644774809e+06 1.0000000000000000e+00 6.5724162234656500e+00 1.7657533321654238e+01 1.6845032838630516e+01 
38 1 2 3.3664298339401459e+00 -5.3846263543096511e+05 1.0000000000000000e+00 8.4968332905246662e+00 4.3745355306057587e-01 2.6305446101428163e+00 
74 1 2 3.3662964288255677e+00 -1.9522614278684195e+07 1.0000000000000000e+00 1.2609854638115513e+01 4.8341504113608752e-01 2.6424849637877190e+00 
43 1 2 3.3662338618992673e+00 -1.2624775948544706e+06 1.0000000000000000e+00 8.5315318424207440e+00 4.0426484474744067e+00 3.0587641581990971e-01 
79 1 2 3.3695976020762242e+00 -2.0705561924220042e+06 1.0000000000000000e+00 1.2339403987154160e+01 3.5873908129618735e+00 4.2569086381842963e-01 
85 1 2 3.3659172326581448e+00 -4.4147361329745073e+06 1.0000000000000000e+00 1.0801093485059329e+01 7.4241535367981051e+00 1.2651747466950827e+00 
75 1 2 3.3661488886732176e+00 -2.2232328736684505e+07 1.0000000000000000e+00 1.0568277436234812e+01 3.9037101202518265e-01 5.9694157917881645e+00 
80 1 2 3.3671209597074214e+00 -1.8693451975794576e+07 1.0000000000000000e+00 1.0423098328195065e+01 3.5440167620324483e+00 3.7140029282212321e+00 
86 1 2 3.3694429789619011e+00 -5.0786376027205735e+06 1.0000000000000000e+00 1.2297291419636775e+01 6.6160443547617866e+00 4.8707972041097021e+00 
50 1 2 3.3661934248866467e+00 -1.0096858395954572e+07 1.0000000000000000e+00 8.5458694615312929e+00 7.3912753169669729e+00 4.6030858723226373e+00 
40 1 2 3.3660926781868068e+00 -3.9671620453760430e+05 1.0000000000000000e+00 8.5786860855120963e+00 3.5024178368549930e-01 9.2811063013384860e+00 
76 1 2 3.3660116404616400e+00 -9.4525600376613822e+05 1.0000000000000000e+00 1.2636769687714432e+01 3.2889298036421666e-01 9.3206702166327755e+00 
81 1 2 3.3662792647648692e+00 -9.1103564671573006e+06 1.0000000000000000e+00 8.5568680669156425e+00 4.2222099410799547e+00 6.9876181095297278e+00 
117 1 2 3.3663788257450848e+00 -2.0220994619453286e+06 1.0000000000000000e+00 1.2620620709474450e+01 3.5027733861925667e+00 7.0440930576268794e+00 
51 1 2 3.3670662117597794e+00 -2.3000289474940272e+06 1.0000000000000000e+00 1.0510739141295973e+01 7.4444427435147471e+00 8.0674741694663084e+00 
77 1 2 3.3660874743831943e+00 -1.4608719048761011e+06 1.0000000000000000e+00 1.0584216122938493e+01 9.2283828359053377e-01 1.2560332396224426e+01 
82 1 2 3.3660768387974218e+00 -2.8787832356598461e+06 1.0000000000000000e+00 1.0592567403909818e+01 4.1164205174742863e+00 1.0288082378796652e+01 
52 1 2 3.3668784089697308e+00 -2.1693239311488165e+05 1.0000000000000000e+00 8.4918555315061344e+00 7.2845906970508922e+00 1.1278547541340746e+01 
88 1 2 3.3660584797883151e+00 -1.5126347030719507e+06 1.0000000000000000e+00 1.2662796828783744e+01 7.3141278806120829e+00 1.1283496509983516e+01 
42 1 2 3.3660807728889428e+00 -5.3987864821253764e+05 1.0000000000000000e+00 8.5779720941636324e+00 8.9289757246916324e-01 1.5901973374652780e+01 
114 1 2 3.3660627585492180e+00 -2.4064965710324692e+06 1.0000000000000000e+00 1.2511139323067136e+01 8.0381026167059322e-01 1.5942830677691639e+01 
47 1 2 3.3661516761547960e+00 -2.0958104410613345e+06 1.0000000000000000e+00 8.5739223994306339e+00 4.1000019451091596e+00 1.3619200133355601e+01 
83 1 2 3.3660451871573476e+00 -2.8069944402835174e+06 1.0000000000000000e+00 1.2585506781370622e+01 4.1341965362045849e+00 1.3630544485462881e+01 
89 1 2 3.3672431495730510e+00 -9.6844067344279203e+05 1.0000000000000000e+00 1.0484022911036659e+01 7.3388353644978910e+00 1.4501601498937797e+01 
73 1 2 3.3671543655828122e+00 -2.4270870377357169e+06 1.0000000000000000e+00 1.0464191629758320e+01 5.6073142692775435e-01 1.9259432329283083e+01 
78 1 2 3.3659767534559264e+00 -4.7333818967860062e+06 1.0000000000000000e+00 1.0590585039449474e+01 4.1442282101883245e+00 1.6979879042682121e+01 
54 1 2 3.3661797417772097e+00 -5.1626417207612060e+06 1.0000000000000000e+00 8.5584293134423994e+00 7.3862207012119159e+00 1.7963953826666899e+01 
90 1 2 3.3699325327433973e+00 -1.1918986006301052e+06 1.0000000000000000e+00 1.2289895198481315e+01 8.2376737970492098e+00 1.7652568753007820e+01 
49 1 2 3.3660821598008552e+00 -7.3255932734701261e+06 1.0000000000000000e+00 8.5184017353628647e+00 1.0575521362205279e+01 2.2175583451619096e+00 
91 1 2 3.3693658102851569e+00 -1.7921331998807827e+06 1.0000000000000000e+00 1.2311892252970939e+01 1.1252872820997968e+01 2.0957409087001677e+00 
97 1 2 3.3673650899357725e+00 -1.1963278548288505e+05 1.0000000000000000e+00 1.0480780151549130e+01 1.4374126141629961e+01 1.1151757158148587e+00 
67 1 2 3.3669034442955788e+00 -1.6794399926327364e+05 1.0000000000000000e+00 8.4655691313406098e+00 1.7450602232045416e+01 1.9770254070888604e-01 
103 1 2 3.3661131572552150e+00 -3.4610721536240568e+06 1.0000000000000000e+00 1.2640545026706512e+01 1.7463249058043768e+01 2.1635734277024510e-01 
92 1 2 3.3660247656969871e+00 -4.0705798175392486e+06 1.0000000000000000e+00 1.0635650131959244e+01 1.0584918684810651e+01 5.5275384325169350e+00 
62 1 2 3.3659910014750274e+00 -4.1740906507053683e+06 1.0000000000000000e+00 8.6447949142140406e+00 1.3849012437563152e+01 4.5071173581707820e+00 
98 1 2 3.3663243669175387e+00 -1.0780597685796034e+06 1.0000000000000000e+00 1.2618511535242527e+01 1.4136969749794629e+01 4.5814019981122778e+00 
104 1 2 3.3662282248703237e+00 -9.0319130662285525e+05 1.0000000000000000e+00 1.0580557702190475e+01 1.7304343084254050e+01 3.5860313365847150e+00 
57 1 2 3.3662807576755185e+00 -1.2343731496796852e+06 1.0000000000000000e+00 8.6364839011983783e+00 1.0720844513846036e+01 8.8657818571163247e+00 
94 1 2 3.3660646101236109e+00 -1.0016423847193964e+06 1.0000000000000000e+00 1.2600003284964687e+01 1.0676094435659286e+01 8.8882387420535149e+00 
99 1 2 3.3660726111909662e+00 -5.1423259328038478e+05 1.0000000000000000e+00 1.0613515378530956e+01 1.3941357961445206e+01 7.8806883282155953e+00 
69 1 2 3.3661072227877469e+00 -3.2136908650450612e+05 1.0000000000000000e+00 8.5858199234584163e+00 1.7171392697108811e+01 6.9079344415584618e+00 
105 1 2 3.3660902201129428e+00 -1.7211987129118477e+06 1.0000000000000000e+00 1.2612193863467438e+01 1.7202083809276321e+01 6.9494634270775295e+00 
95 1 2 3.3660479404845440e+00 -1.6631985831641956e+04 1.0000000000000000e+00 1.0591431859856709e+01 1.0532685024834144e+01 1.2218526118190963e+01 
100 1 2 3.3660980884887950e+00 -3.2129835711315223e+06 1.0000000000000000e+00 8.6109177032070452e+00 1.3825485690178958e+01 1.1209943874551382e+01 
136 1 2 3.3660325692433224e+00 2.4589831227596016e+04 1.0000000000000000e+00 1.2575527854699912e+01 1.3814898222937867e+01 1.1253437006478164e+01 
106 1 2 3.3660638876733526e+00 -4.7944680833256437e+05 1.0000000000000000e+00 1.0584667334930389e+01 1.7084560010690581e+01 1.0254150172220124e+01 
59 1 2 3.3661022391717306e+00 -6.9418511905438965e+06 1.0000000000000000e+00 8.5270518685052963e+00 1.1160770557824334e+01 1.5445536056531772e+01 
131 1 2 3.3663627251051147e+00 -7.4901201311009852e+06 1.0000000000000000e+00 1.2646165503629136e+01 1.1317637361776685e+01 1.5436695732423523e+01 
101 1 2 3.3661121905990572e+00 -5.2814020990193645e+06 1.0000000000000000e+00 1.0552452826059854e+01 1.4444763191305949e+01 1.4512612261085513e+01 
71 1 2 3.3660945667512041e+00 -3.9048359588467665e+06 1.0000000000000000e+00 8.5956972518793666e+00 1.7689038504338907e+01 1.3534387733893594e+01 
107 1 2 3.3660786638178588e+00 -9.2536725066235336e+05 1.0000000000000000e+00 1.2560079901021615e+01 1.7696124068911157e+01 1.3542672916725264e+01 
96 1 2 3.3672705198175188e+00 -3.7717828957466860e+06 1.0000000000000000e+00 1.0387664343048911e+01 1.1270948919208408e+01 1.8814412935310123e+01 
102 1 2 3.3665540132566627e+00 -1.3574464081268504e+06 1.0000000000000000e+00 8.4747625134078941e+00 1.4402169919833348e+01 1.7793949129100742e+01 
138 1 2 3.3660304625600124e+00 -6.8688462952064686e+06 1.0000000000000000e+00 1.2639446256948535e+01 1.4357819346243046e+01 1.7849700978108654e+01 
108 1 2 3.3661793655096393e+00 -1.1033230135562867e+06 1.0000000000000000e+00 1.0571468327095459e+01 1.7539392974438169e+01 1.6882423701861807e+01 
110 1 2 3.3663008881365868e+00 1.8505974633407110e+05 1.0000000000000000e+00 1.6642198598970804e+01 4.8385828098171552e-01 2.6382458705959246e+00 
115 1 2 3.3695672490644450e+00 -1.0573623583845301e+06 1.0000000000000000e+00 1.6911164302773450e+01 3.5891405383670718e+00 4.2509309527211592e-01 
122 1 2 3.3785689548880646e+00 -6.8328110406135453e+05 1.0000000000000000e+00 1.4627429983984101e+01 8.4732388593454466e+00 2.7217452090017105e+00 
157 1 2 3.3659172304724079e+00 -1.1603453962709308e+06 1.0000000000000000e+00 1.8451483591613869e+01 7.4240072626117000e+00 1.2647339566083591e+00 
111 1 2 3.3662460222142432e+00 -1.8659362166397264e+06 1.0000000000000000e+00 1.4627757648709323e+01 3.8137359866745918e-01 5.9604575556720558e+00 
147 1 2 3.3661513626462121e+00 -3.5885165400995058e+06 1.0000000000000000e+00 1.8683057272909004e+01 3.8891822845730956e-01 5.9667046946892714e+00 
116 1 2 3.3659445343049579e+00 -4.5904280952627835e+05 1.0000000000000000e+00 1.4628226747968494e+01 3.7061855244647424e+00 3.6410985177981807e+00 
152 1 2 3.3671002654223741e+00 -6.6772375956162007e+05 1.0000000000000000e+00 1.8829053511738998e+01 3.5422110069048602e+00 3.7137680042632506e+00 
123 1 2 3.3694333334438507e+00 -1.1687231072244139e+07 1.0000000000000000e+00 1.6954957406452426e+01 6.6147197462152407e+00 4.8733059078602832e+00 
112 1 2 3.3660117779648875e+00 -1.6800573088646939e+06 1.0000000000000000e+00 1.6617104907375829e+01 3.2604715779950005e-01 9.3212981272827840e+00 
153 1 2 3.3663869247611959e+00 -2.2743403234319794e+06 1.0000000000000000e+00 1.6632379773403564e+01 3.5002565260154395e+00 7.0443093185251344e+00 
87 1 2 3.3659729456344287e+00 -1.3143925463281661e+07 1.0000000000000000e+00 1.4624191728423519e+01 7.4313559772924309e+00 7.8993434517874119e+00 
159 1 2 3.3670670093020636e+00 -1.2878390119377926e+06 1.0000000000000000e+00 1.8744436039408729e+01 7.4424587548093184e+00 8.0674756393899472e+00 
113 1 2 3.3659805635626010e+00 -8.6269702403631283e+05 1.0000000000000000e+00 1.4624493139854788e+01 9.1267225971829036e-01 1.2646423160931805e+01 
149 1 2 3.3660873094885240e+00 -5.9409436550915544e+05 1.0000000000000000e+00 1.8664708128016390e+01 9.2591220809145969e-01 1.2562508677433405e+01 
118 1 2 3.3660806521460267e+00 -2.5658893304913878e+06 1.0000000000000000e+00 1.4627794124204248e+01 4.0589383749788546e+00 1.0313783544281252e+01 
154 1 2 3.3660707186522227e+00 -2.7337588965635132e+06 1.0000000000000000e+00 1.8662591418005132e+01 4.1179697473672787e+00 1.0288577260455295e+01 
124 1 2 3.3660544124365721e+00 -3.1609907339162501e+06 1.0000000000000000e+00 1.6589764534485433e+01 7.3150510375720303e+00 1.1284692396474684e+01 
119 1 2 3.3660634210457303e+00 -2.4811029486565264e+06 1.0000000000000000e+00 1.6738588898528391e+01 8.0402111913856034e-01 1.5942144051544055e+01 
155 1 2 3.3660444194707280e+00 -9.8394541387854738e+05 1.0000000000000000e+00 1.6667928458373051e+01 4.1379037390155444e+00 1.3631761777900531e+01 
125 1 2 3.3659954436058683e+00 -6.3868978234051615e+06 1.0000000000000000e+00 1.4625036256112779e+01 7.3516588102005853e+00 1.4663046544278894e+01 
161 1 2 3.3672401081021084e+00 -2.1065403513117589e+05 1.0000000000000000e+00 1.8770424577100631e+01 7.3419995455680978e+00 1.4500859428288592e+01 
109 1 2 3.3660751018739568e+00 -6.8002925803004194e+05 1.0000000000000000e+00 1.4624472171064953e+01 6.8376580811180598e-01 1.9248118164971011e+01 
145 1 2 3.3671411250542622e+00 -4.6709309932137944e+05 1.0000000000000000e+00 1.8785869965380009e+01 5.6140809515142720e-01 1.9259357932365241e+01 
84 1 2 3.3664746851879253e+00 -3.0358092589847539e+06 1.0000000000000000e+00 1.4624496224541380e+01 3.8889367336379035e+00 1.6922706967265231e+01 
121 1 2 3.3792294300301378e+00 -2.8350163783550169e+06 1.0000000000000000e+00 1.4623613087000427e+01 6.3789869494092715e+00 1.9783364989998898e+01 
120 1 2 3.3659781399647812e+00 -2.0612846289246550e+06 1.0000000000000000e+00 1.8660406750156138e+01 4.1485728943721769e+00 1.6978959254919435e+01 
126 1 2 3.3698955496960195e+00 -6.2693416243553432e+06 1.0000000000000000e+00 1.6963033078124827e+01 8.2323264374532137e+00 1.7653887655371708e+01 
127 1 2 3.3694014403572008e+00 -2.5008993813577746e+06 1.0000000000000000e+00 1.6941289998859045e+01 1.1253186698433540e+01 2.0987766383006656e+00 
133 1 2 3.3661191119999123e+00 1.0706821206444177e+05 1.0000000000000000e+00 1.4626753792556801e+01 1.4250448436486197e+01 1.2118835645070380e+00 
169 1 2 3.3673560416590829e+00 -2.6019976050719144e+06 1.0000000000000000e+00 1.8770124749019399e+01 1.4374195247564462e+01 1.1131540456072173e+00 
139 1 2 3.3661177372553674e+00 -3.4733532302901298e+06 1.0000000000000000e+00 1.6609663002568194e+01 1.7463295676185421e+01 2.1354496699768680e-01 
93 1 2 3.3665461884239938e+00 -2.7586924406362409e+06 1.0000000000000000e+00 1.4626123046494516e+01 1.0938789492256543e+01 5.5928839133567649e+00 
128 1 2 3.3660274669143830e+00 -1.9283844158991585e+06 1.0000000000000000e+00 1.8617332164015274e+01 1.0581194120533786e+01 5.5285846389357891e+00 
134 1 2 3.3663309098163725e+00 -3.0114336163418209e+06 1.0000000000000000e+00 1.6629818693560804e+01 1.4135923567111346e+01 4.5839728376241116e+00 
140 1 2 3.3662033742785158e+00 -2.0541191497842250e+06 1.0000000000000000e+00 1.4626401433443606e+01 1.7308877818298644e+01 3.5906614879191778e+00 
176 1 2 3.3662214889968176e+00 -1.1356490906431940e+06 1.0000000000000000e+00 1.8666135438371448e+01 1.7304591611686995e+01 3.5853065643393340e+00 
129 1 2 3.3660645961755997e+00 -6.4714812472451432e+06 1.0000000000000000e+00 1.6653244834443370e+01 1.0673067710920549e+01 8.8876427715908761e+00 
135 1 2 3.3661305638211916e+00 -2.2854851982686426e+06 1.0000000000000000e+00 1.4622182003446611e+01 1.3982038132188352e+01 7.9481830230534252e+00 
171 1 2 3.3660719402520396e+00 -3.3137155946073798e+06 1.0000000000000000e+00 1.8637945740683190e+01 1.3938688165297108e+01 7.8806392467821418e+00 
141 1 2 3.3660921616054007e+00 -1.1253398449728100e+06 1.0000000000000000e+00 1.6638733915735571e+01 1.7201952552948836e+01 6.9519205034016434e+00 
130 1 2 3.3661333151346060e+00 -8.3260438772788120e+05 1.0000000000000000e+00 1.4626303693128122e+01 1.0577103849069312e+01 1.2197811490423295e+01 
166 1 2 3.3660459465251282e+00 -7.0401076809950368e+06 1.0000000000000000e+00 1.8658830012065660e+01 1.0534794834036784e+01 1.2219483081327226e+01 
172 1 2 3.3660316250371003e+00 -3.2627475028945771e+06 1.0000000000000000e+00 1.6675028817368773e+01 1.3816058658250624e+01 1.1251074022796178e+01 
142 1 2 3.3660347262365744e+00 -1.0375698977585643e+06 1.0000000000000000e+00 1.4622392350001121e+01 1.7077120467620663e+01 1.0307279170279097e+01 
178 1 2 3.3660670473281042e+00 -2.6952226026556757e+06 1.0000000000000000e+00 1.8665509839689534e+01 1.7081937578823968e+01 1.0254778021011562e+01 
167 1 2 3.3663499492871227e+00 -2.9398150785083086e+06 1.0000000000000000e+00 1.6604350585222441e+01 1.1315856472825146e+01 1.5440969367306867e+01 
137 1 2 3.3661245938935438e+00 -5.4929923350135582e+06 1.0000000000000000e+00 1.4626482247503514e+01 1.4523817876150833e+01 1.4481153706185317e+01 
173 1 2 3.3661144669113745e+00 -1.0542376324564896e+06 1.0000000000000000e+00 1.8695010042931340e+01 1.4443576939036879e+01 1.4512650771700931e+01 
143 1 2 3.3660762522064429e+00 -6.7599097946326085e+05 1.0000000000000000e+00 1.6689433775964819e+01 1.7696287782927122e+01 1.3543103000786882e+01 
132 1 2 3.3659691018764168e+00 -5.7613161703232797e+06 1.0000000000000000e+00 1.4627152696391898e+01 1.1112900356815580e+01 1.8887225780342249e+01 
163 1 2 3.3672455881438386e+00 -2.1560084048560890e+06 1.0000000000000000e+00 1.8864139738243423e+01 1.1269092384349102e+01 1.8814797308300431e+01 
174 1 2 3.3660360567377237e+00 -1.2250638563276944e+05 1.0000000000000000e+00 1.6612676462803428e+01 1.4357391414171564e+01 1.7851661397466884e+01 
144 1 2 3.3660454041574561e+00 -6.8208981321956124e+05 1.0000000000000000e+00 1.4625367212350124e+01 1.7610409704861450e+01 1.6855656807691609e+01 
180 1 2 3.3661744990534261e+00 1.9316819027220852e+04 1.0000000000000000e+00 1.8679567535016073e+01 1.7538479153307478e+01 1.6881622306735085e+01 

Velocities

146 4.1115875484870015e-02 4.0544889197934178e-03 -4.8502574333985908e-02
2 -1.4105432025055705e-03 -2.4522630942963277e-02 1.3990322491985317e-02
151 -2.2592507628956267e-02 -4.6455531898946266e-02 -5.7368090326829838e-02
7 7.8893049547768476e-02 8.5944507130272553e-03 -1.5473059242478323e-02
19 -6.9140060669240236e-02 2.9939134529130039e-03 -5.3751845673884517e-02
13 -4.1651916412821850e-02 1.2810082799180481e-02 1.0056657680099302e-03
3 2.3456061336632431e-02 1.6609609820622359e-02 5.4988104948237616e-03
39 -5.7032139267764514e-02 9.9596099010039948e-02 1.8855398057021730e-02
8 7.0879325365244966e-02 -1.6633406959973215e-02 6.3244836038040902e-02
44 1.7273015953860309e-02 -1.2046691120849820e-02 2.9709228238191512e-02
158 1.9828264460608543e-02 2.9468249586632703e-02 -4.4833928386171298e-02
14 -1.0833478120425245e-02 4.4935298676089419e-02 -4.4948085153970353e-03
148 1.2073899587927994e-02 8.0238519691204907e-03 4.6236516907583833e-02
4 -5.6090213210550743e-02 2.0267069592107927e-02 1.8152801642304619e-02
9 1.7089693775953894e-02 4.3924301700178976e-02 -4.3931763420577162e-02
45 8.8381379804768928e-02 5.5024932533995270e-02 7.6961089507038751e-03
21 -1.3512345164810344e-01 7.9296956743742358e-03 -7.8052151231480085e-02
15 1.1108526951382726e-01 4.7730451964374199e-02 4.7302019287489352e-02
5 4.3413470300214443e-03 2.0404439580121113e-03 -3.4962475387656830e-02
41 1.3904320957260610e-01 -3.0663846400834405e-02 -1.9206638001739985e-02
10 4.0210298420445559e-02 -2.1562237163691520e-02 -1.2020066877545041e-02
46 5.2134920484690157e-02 5.3483897633136351e-02 -2.8181462473653655e-02
160 7.8759202355150135e-03 -5.5878757563977553e-02 -5.8535657757328989e-02
16 -7.8653614219546100e-02 1.0435978986509396e-01 -1.7132440246312778e-02
150 -8.7077416326532014e-02 5.9629427350137874e-03 6.0710585950246782e-02
6 4.1990309725598524e-03 -2.5347366707566828e-02 -2.6844064034828773e-02
156 1.2763593054868154e-02 -2.8300431031878830e-02 5.8070506817619647e-02
11 -7.9104373974711595e-02 -2.9480544686690521e-02 2.3225053115184680e-02
17 -5.8950348830506004e-02 3.1009111408638667e-02 2.8175655937446770e-02
53 6.8130698143103852e-02 -2.2642789877258516e-02 3.3317514464210600e-02
1 -9.0547945140843134e-02 3.6404461034885267e-02 4.4213719567462777e-02
37 -1.1689494497630175e-01 -7.4245259208182868e-02 5.7218397913718022e-02
12 7.8713506957830776e-02 5.6101431669162256e-04 -2.0518608727635976e-02
48 -2.0533270700170782e-02 7.1627999064243497e-02 5.2092159470787214e-02
162 -5.3238635206849507e-03 8.6494201493082245e-05 2.5731661590423390e-02
18 2.5546947702012246e-03 -3.8888549238149514e-03 -2.6449880279749316e-02
164 5.3633266307180467e-02 1.2494488981533379e-02 -6.2239823179716949e-02
55 3.7174616781414406e-02 4.6298670322971486e-03 2.3721771056794187e-02
25 3.7507538962874870e-02 -2.8612979095493773e-02 -1.6938146284946401e-02
61 3.6047548493930909e-02 -3.6007863779113761e-02 -5.8264114511827496e-02
175 1.1927398699693526e-01 1.6101870793289480e-02 -9.1340209704335179e-02
31 6.4106397006555372e-03 6.0384796650880750e-02 -6.0605783902026996e-03
20 -1.4690771856336478e-04 -2.0733740415999638e-02 -4.2423708870823286e-02