LAMMPS data file via write_data, version 30 Jul 2016, timestep = 50000000

180 atoms
2 atom types

0.0000000000000000e+00 2.0000000000000000e+01 xlo xhi
0.0000000000000000e+00 2.0000000000000000e+01 ylo yhi
0.0000000000000000e+00 2.0000000000000000e+01 zlo zhi

Masses

1 3.896
2 100

Atoms # meso-molecular

146 1 2 3.3664310484446451e+00 -2.9293781344632740e+05 1.0000000000000000e+00 7.5839345789448953e-01 4.4102852758637073e-01 2.6251929736278834e+00 
2 1 2 3.3660758517634575e+00 -3.3946127155561000e+06 1.0000000000000000e+00 4.6267074954352347e+00 4.0482230731902386e-01 2.6304470847202976e+00 
151 1 2 3.3662336521314322e+00 -4.2164814638270315e+05 1.0000000000000000e+00 7.2026917686264513e-01 4.0348487802201491e+00 3.0776679744380003e-01 
7 1 2 3.3661490849097122e+00 -7.0177195645641175e+05 1.0000000000000000e+00 4.6269710393119734e+00 4.0365816506484746e+00 2.8689142707529236e-01 
19 1 2 3.3662443950968073e+00 -3.7851022382050706e+06 1.0000000000000000e+00 2.6612349242448134e+00 7.2998852411987016e+00 1.2801765667252285e+00 
13 1 2 3.3662499569726805e+00 -7.3681231831759913e+04 1.0000000000000000e+00 6.5903565065188596e+00 7.3018145491856217e+00 1.2800560986080887e+00 
3 1 2 3.3660275888776767e+00 -8.9568824924194664e+06 1.0000000000000000e+00 2.6544317053014868e+00 9.3220900740337198e-01 5.9761471765614962e+00 
39 1 2 3.3660326424925673e+00 -8.4784733983957246e+06 1.0000000000000000e+00 6.5997439207230792e+00 9.3248022886390081e-01 5.9759471030978721e+00 
8 1 2 3.3661925651263536e+00 -2.2851029980402854e+06 1.0000000000000000e+00 2.6769111021975496e+00 4.0990839589090147e+00 3.6361007278953106e+00 
44 1 2 3.3661946153897930e+00 -6.1973490623327354e+06 1.0000000000000000e+00 6.5756487143577713e+00 4.1021607843986745e+00 3.6376098723741737e+00 
158 1 2 3.3661872454197397e+00 -4.6742139405559690e+05 1.0000000000000000e+00 7.0603937604885381e-01 7.3899717274686365e+00 4.6045690508534536e+00 
14 1 2 3.3662060081701872e+00 -9.6231449732591107e+05 1.0000000000000000e+00 4.6262491558398340e+00 7.3922234275595651e+00 4.6049376931107115e+00 
148 1 2 3.3660924519293380e+00 -3.2829170136753918e+05 1.0000000000000000e+00 6.7284280760504644e-01 3.4504009421680482e-01 9.2809297707095588e+00 
4 1 2 3.3660736338774404e+00 4.7083681173033510e+04 1.0000000000000000e+00 4.6269107523167508e+00 3.4118856323839303e-01 9.2706193363361074e+00 
9 1 2 3.3662880212289772e+00 -1.8435802958072524e+06 1.0000000000000000e+00 6.9691078877181012e-01 4.2221925785519989e+00 6.9876685307103141e+00 
45 1 2 3.3662264222055329e+00 -2.2774454373615864e+06 1.0000000000000000e+00 4.6257198858816331e+00 4.2180043115073156e+00 6.9675903942388677e+00 
21 1 2 3.3662057007322375e+00 -4.5772626049838252e+06 1.0000000000000000e+00 2.6724678279931871e+00 7.5049176992866080e+00 7.9407313268909272e+00 
15 1 2 3.3662058337892500e+00 -4.2956729898944935e+06 1.0000000000000000e+00 6.5807161470386584e+00 7.5029144824064469e+00 7.9386521919885302e+00 
5 1 2 3.3662258492176877e+00 -2.1749139446235527e+06 1.0000000000000000e+00 2.6523985061061772e+00 8.9642552857564461e-01 1.2565801994922182e+01 
41 1 2 3.3662229033589757e+00 -4.6304626849575556e+05 1.0000000000000000e+00 6.6008078060815087e+00 8.9702068278964309e-01 1.2566787227749273e+01 
10 1 2 3.3662644075062507e+00 1.4233532043783340e+04 1.0000000000000000e+00 2.6620989772153978e+00 4.0221766501618701e+00 1.0285766602922100e+01 
46 1 2 3.3662656795788322e+00 -8.5048103248172940e+05 1.0000000000000000e+00 6.5913558287381342e+00 4.0216570972082133e+00 1.0285138453231404e+01 
160 1 2 3.3668973613157331e+00 -5.1359284039533474e+06 1.0000000000000000e+00 7.6179455465667889e-01 7.2879347676265365e+00 1.1277609641648489e+01 
16 1 2 3.3662480696359975e+00 -4.0367382839995273e+05 1.0000000000000000e+00 4.6267957349272706e+00 7.2856688475258435e+00 1.1277538563631683e+01 
150 1 2 3.3660810085750268e+00 -7.2211775911855686e+05 1.0000000000000000e+00 6.7369047241605540e-01 8.8942937669062572e-01 1.5898845527014327e+01 
6 1 2 3.3661276274005720e+00 -1.7491835679553833e+06 1.0000000000000000e+00 4.6268749613366040e+00 9.1825731381573206e-01 1.5898129494753592e+01 
156 1 2 3.3661487807831767e+00 -1.0978849235738143e+05 1.0000000000000000e+00 6.8045570686517387e-01 4.1001165687403045e+00 1.3622013198252032e+01 
11 1 2 3.3661173998105078e+00 -9.4610585221891850e+05 1.0000000000000000e+00 4.6260257163449072e+00 4.1581241067779251e+00 1.3632197972793113e+01 
17 1 2 3.3661624816263549e+00 -3.6050147169145243e+05 1.0000000000000000e+00 2.6721280279188493e+00 7.5177112851226084e+00 1.4626987982872940e+01 
53 1 2 3.3661610547580909e+00 -3.8322184426935036e+06 1.0000000000000000e+00 6.5819832977807637e+00 7.5249903916803378e+00 1.4628600187735026e+01 
1 1 2 3.3660555659036184e+00 -4.9988406898129440e+05 1.0000000000000000e+00 2.6802919407358377e+00 7.7983377921355479e-01 1.9256761835361527e+01 
37 1 2 3.3660550684788295e+00 -4.1178042201340024e+05 1.0000000000000000e+00 6.5760212398671776e+00 7.8313305399229249e-01 1.9256421194931306e+01 
12 1 2 3.3661619479330338e+00 -7.6302377686445392e+05 1.0000000000000000e+00 2.6446794429833669e+00 4.1327901163299892e+00 1.6957042458203649e+01 
48 1 2 3.3661660470616197e+00 -3.0688360789211444e+06 1.0000000000000000e+00 6.6092197858485653e+00 4.1313694156726353e+00 1.6956299991179797e+01 
162 1 2 3.3661819610658053e+00 -8.6306410966133885e+05 1.0000000000000000e+00 6.9596239354889500e-01 7.3813159900041843e+00 1.7962408571331903e+01 
18 1 2 3.3662241723038662e+00 -8.0800003866528720e+05 1.0000000000000000e+00 4.6264601310465254e+00 7.3786418407913770e+00 1.7955935222121383e+01 
164 1 2 3.3660832872367497e+00 -6.4335677788839571e+05 1.0000000000000000e+00 7.3311504879165457e-01 1.0577873166561075e+01 2.2205921538235636e+00 
55 1 2 3.3660320600623321e+00 -5.9921564766839212e+06 1.0000000000000000e+00 4.6272282466780110e+00 1.0606012190958186e+01 2.2227280084329650e+00 
25 1 2 3.3660247267010686e+00 -5.5226643582446454e+06 1.0000000000000000e+00 2.6536269096300455e+00 1.3877719243226808e+01 1.1694956603794004e+00 
61 1 2 3.3660243272645585e+00 -2.0096706340404383e+06 1.0000000000000000e+00 6.5987996416587498e+00 1.3877317276103323e+01 1.1699884805620961e+00 
175 1 2 3.3668711257339807e+00 -3.3292110270044855e+06 1.0000000000000000e+00 7.8312074270372023e-01 1.7452858815807151e+01 1.9390263361650004e-01 
31 1 2 3.3661704868089712e+00 -8.2232374676571367e+05 1.0000000000000000e+00 4.6236338382921414e+00 1.7159070542778991e+01 1.9439014145289690e-01 
20 1 2 3.3660651671961381e+00 -1.2759754910715804e+06 1.0000000000000000e+00 2.6697242645046457e+00 1.0660713383791613e+01 5.6028019799676789e+00 
56 1 2 3.3660666232269647e+00 -1.6292471352568797e+06 1.0000000000000000e+00 6.5817429009887229e+00 1.0664880282611811e+01 5.6024429375342200e+00 
170 1 2 3.3659888114400114e+00 -3.8410959623838624e+05 1.0000000000000000e+00 6.0622966581712168e-01 1.3845875685322063e+01 4.5064026424893795e+00 
26 1 2 3.3661147185339053e+00 -6.9920375427526208e+06 1.0000000000000000e+00 4.6253045925404113e+00 1.3871202231502268e+01 4.5122198503624746e+00 
32 1 2 3.3660891358552307e+00 -4.5615978398639709e+06 1.0000000000000000e+00 2.6459004831688233e+00 1.7112572291790077e+01 3.5626338208687622e+00 
68 1 2 3.3660934065605277e+00 -3.8773483509796658e+06 1.0000000000000000e+00 6.6021012582922660e+00 1.7112240117674176e+01 3.5615512275996069e+00 
165 1 2 3.3662785203612882e+00 -1.3646239577828480e+07 1.0000000000000000e+00 6.1365986633793213e-01 1.0720905869115558e+01 8.8692670669667208e+00 
27 1 2 3.3660619847153552e+00 -8.3367337193902314e+05 1.0000000000000000e+00 2.6292176557560820e+00 1.3916030513485099e+01 7.8416879856959962e+00 
63 1 2 3.3660616054430723e+00 -9.6150610318704578e+05 1.0000000000000000e+00 6.6215477304721819e+00 1.3918130583504762e+01 7.8445927896945555e+00 
177 1 2 3.3661047714514898e+00 5.7924005450361430e+04 1.0000000000000000e+00 6.6605829031456387e-01 1.7167693406861776e+01 6.9066947953719842e+00 
33 1 2 3.3660621880745882e+00 3.3083005913345423e+03 1.0000000000000000e+00 4.6245691042549764e+00 1.7209467578559462e+01 6.8981289823761278e+00 
22 1 2 3.3661314828657916e+00 -4.8294005758878950e+05 1.0000000000000000e+00 2.6695935056856914e+00 1.0581667457893992e+01 1.2128524005031000e+01 
58 1 2 3.3661325503502146e+00 -2.1444580930632749e+06 1.0000000000000000e+00 6.5778007023532581e+00 1.0582146347209955e+01 1.2126680344038510e+01 
28 1 2 3.3660996373965828e+00 -4.2812904697466281e+05 1.0000000000000000e+00 6.4106811848605649e-01 1.3825370233149998e+01 1.1210990821562559e+01 
64 1 2 3.3661686830926296e+00 -5.8842312251055529e+06 1.0000000000000000e+00 4.6245860010241220e+00 1.3817972179711861e+01 1.1159433978603486e+01 
34 1 2 3.3660966540374675e+00 -2.2147333059929777e+06 1.0000000000000000e+00 2.6351699739695396e+00 1.7069550559954958e+01 1.0239373326932670e+01 
70 1 2 3.3660959463089668e+00 -1.9681108277995000e+06 1.0000000000000000e+00 6.6153109450190790e+00 1.7070956534524285e+01 1.0239954449485552e+01 
168 1 2 3.3661016367715466e+00 -1.4717518653743509e+06 1.0000000000000000e+00 7.2599944031888386e-01 1.1158823720021035e+01 1.5448951763897684e+01 
23 1 2 3.3660938850404407e+00 -4.6542302312539122e+05 1.0000000000000000e+00 4.6256568533884792e+00 1.0857298853503169e+01 1.5469591351132951e+01 
29 1 2 3.3661885829766458e+00 -2.4230977299352444e+05 1.0000000000000000e+00 2.6717365374789197e+00 1.4427636545410987e+01 1.4451434309858991e+01 
65 1 2 3.3661938553358897e+00 -9.8025737793959044e+06 1.0000000000000000e+00 6.5781109171148318e+00 1.4431561196141436e+01 1.4449977826598566e+01 
179 1 2 3.3660942219888668e+00 -1.6541277598146506e+05 1.0000000000000000e+00 6.5456844424844418e-01 1.7689159991351548e+01 1.3533152418898482e+01 
35 1 2 3.3662386052070725e+00 -2.9515333129769876e+06 1.0000000000000000e+00 4.6249443572109135e+00 1.7677332279644776e+01 1.3503406508679554e+01 
24 1 2 3.3660812247629770e+00 -9.2373295410739534e+04 1.0000000000000000e+00 2.6818428197114463e+00 1.0688237639862676e+01 1.8833821520944923e+01 
60 1 2 3.3660874644242500e+00 -3.8367963844615524e+06 1.0000000000000000e+00 6.5687142012407618e+00 1.0684673787271061e+01 1.8831578017263467e+01 
30 1 2 3.3665494687179089e+00 -2.6575603984154400e+05 1.0000000000000000e+00 7.7452270142860014e-01 1.4399129180385843e+01 1.7793145127172213e+01 
66 1 2 3.3661089827529107e+00 -1.2647389489820474e+06 1.0000000000000000e+00 4.6235440576281830e+00 1.4003453326551456e+01 1.7808017808772327e+01 
36 1 2 3.3661986017004373e+00 -3.5415506369605381e+05 1.0000000000000000e+00 2.6762163250714579e+00 1.7654650386157606e+01 1.6843885424958813e+01 
72 1 2 3.3662003747029288e+00 -1.5386603226352411e+06 1.0000000000000000e+00 6.5731122423384614e+00 1.7654801167187774e+01 1.6843231567271058e+01 
38 1 2 3.3664398767460946e+00 -5.3843994439725508e+05 1.0000000000000000e+00 8.4952369180654479e+00 4.3762481513681584e-01 2.6286305291801098e+00 
74 1 2 3.3663027061412421e+00 -1.9522596609034274e+07 1.0000000000000000e+00 1.2609616934148061e+01 4.8244824318448715e-01 2.6417546681152269e+00 
43 1 2 3.3662329384559349e+00 -1.2624724624650332e+06 1.0000000000000000e+00 8.5304052830126285e+00 4.0401237974730577e+00 3.0742672313016239e-01 
79 1 2 3.3696084846567413e+00 -2.0705506140853195e+06 1.0000000000000000e+00 1.2340432875857484e+01 3.5885269361395937e+00 4.2907172420052392e-01 
85 1 2 3.3659172349706949e+00 -4.4147360496061528e+06 1.0000000000000000e+00 1.0797074852649349e+01 7.4230990623409969e+00 1.2616044385996155e+00 
75 1 2 3.3661529853924201e+00 -2.2232316981471024e+07 1.0000000000000000e+00 1.0566794208279447e+01 3.9015196268669461e-01 5.9676665387760295e+00 
80 1 2 3.3671353726453082e+00 -1.8693413825202011e+07 1.0000000000000000e+00 1.0419688221586714e+01 3.5422880754459580e+00 3.7154421367357475e+00 
86 1 2 3.3694342981287275e+00 -5.0786364073998677e+06 1.0000000000000000e+00 1.2296447325748764e+01 6.6122880157527755e+00 4.8734503873777939e+00 
50 1 2 3.3661943661140690e+00 -1.0096855914427498e+07 1.0000000000000000e+00 8.5463324356308448e+00 7.3925646809354424e+00 4.6037001877546482e+00 
40 1 2 3.3660949781423763e+00 -3.9670643935034290e+05 1.0000000000000000e+00 8.5792691894475368e+00 3.4798761753319757e-01 9.2799345634457691e+00 
76 1 2 3.3660144455780623e+00 -9.4524385150266334e+05 1.0000000000000000e+00 1.2637799158872234e+01 3.2619450803421618e-01 9.3192903016899233e+00 
81 1 2 3.3662909650174986e+00 -9.1103260307506062e+06 1.0000000000000000e+00 8.5549507333810642e+00 4.2210676742935105e+00 6.9883890299038365e+00 
117 1 2 3.3663918520525158e+00 -2.0220643066209522e+06 1.0000000000000000e+00 1.2619613547183027e+01 3.5011275759861933e+00 7.0474442733421911e+00 
51 1 2 3.3670749528437987e+00 -2.3000197188071823e+06 1.0000000000000000e+00 1.0508764973083824e+01 7.4454034731927710e+00 8.0672214742552573e+00 
77 1 2 3.3660883623581235e+00 -1.4608688914060697e+06 1.0000000000000000e+00 1.0586652501652537e+01 9.2410844506491596e-01 1.2558350577428829e+01 
82 1 2 3.3660754401725730e+00 -2.8787897813434568e+06 1.0000000000000000e+00 1.0589631227651248e+01 4.1174866373528589e+00 1.0289289971945301e+01 
52 1 2 3.3668796791445130e+00 -2.1692374203795046e+05 1.0000000000000000e+00 8.4899249034294577e+00 7.2878148919603829e+00 1.1277752451219714e+01 
88 1 2 3.3660575474612142e+00 -1.5126363239051963e+06 1.0000000000000000e+00 1.2661889411172771e+01 7.3169775553626595e+00 1.1286130017432040e+01 
42 1 2 3.3660788478696375e+00 -5.3988296494502993e+05 1.0000000000000000e+00 8.5816067127002054e+00 8.9042503014918284e-01 1.5900213740693472e+01 
114 1 2 3.3660598793379530e+00 -2.4065042314575203e+06 1.0000000000000000e+00 1.2512531407332968e+01 8.0390565793492252e-01 1.5939531991808126e+01 
47 1 2 3.3661504930285773e+00 -2.0958190241708728e+06 1.0000000000000000e+00 8.5735619553901188e+00 4.1010129432247000e+00 1.3622796530599951e+01 
83 1 2 3.3660430836675843e+00 -2.8070024879683857e+06 1.0000000000000000e+00 1.2584830291182318e+01 4.1349765000690075e+00 1.3632548987811752e+01 
89 1 2 3.3672498629024390e+00 -9.6842617431283300e+05 1.0000000000000000e+00 1.0483157381598149e+01 7.3401552442237969e+00 1.4501750628587768e+01 
73 1 2 3.3671366055552601e+00 -2.4271342556584869e+06 1.0000000000000000e+00 1.0467031033000300e+01 5.6231450564733165e-01 1.9259010503492973e+01 
78 1 2 3.3659773604932277e+00 -4.7333779715284128e+06 1.0000000000000000e+00 1.0591549855235456e+01 4.1408514833228214e+00 1.6981837155637077e+01 
54 1 2 3.3661836641427811e+00 -5.1626277303220527e+06 1.0000000000000000e+00 8.5582006991972790e+00 7.3785653118543939e+00 1.7963505782940210e+01 
90 1 2 3.3699436473532969e+00 -1.1919040122848987e+06 1.0000000000000000e+00 1.2289424042929618e+01 8.2319887532506719e+00 1.7653400898733988e+01 
49 1 2 3.3660867272385313e+00 -7.3255816210483201e+06 1.0000000000000000e+00 8.5186719223607010e+00 1.0576780830639850e+01 2.2173471266625722e+00 
91 1 2 3.3693794019556873e+00 -1.7921041729179388e+06 1.0000000000000000e+00 1.2310030138502984e+01 1.1254216165319951e+01 2.0972068664097097e+00 
97 1 2 3.3673523715514646e+00 -1.1965538787736591e+05 1.0000000000000000e+00 1.0478453377379749e+01 1.4374994624339640e+01 1.1138917963551140e+00 
67 1 2 3.3668916600719441e+00 -1.6796871198623753e+05 1.0000000000000000e+00 8.4638435510619274e+00 1.7452051619813243e+01 1.9493084203766273e-01 
103 1 2 3.3661111854556962e+00 -3.4610812318976307e+06 1.0000000000000000e+00 1.2641694957905202e+01 1.7463213139902336e+01 2.1529715002391653e-01 
92 1 2 3.3660233617029700e+00 -4.0705859533447763e+06 1.0000000000000000e+00 1.0634758210684041e+01 1.0585360588067275e+01 5.5297978122022409e+00 
62 1 2 3.3659889056436922e+00 -4.1740985732233720e+06 1.0000000000000000e+00 8.6431236968937473e+00 1.3852406328961019e+01 4.5080671170446394e+00 
98 1 2 3.3663292086974761e+00 -1.0780516094454175e+06 1.0000000000000000e+00 1.2618650937068180e+01 1.4135443270934767e+01 4.5831175684861982e+00 
104 1 2 3.3662240172929421e+00 -9.0320269492736738e+05 1.0000000000000000e+00 1.0581403986585816e+01 1.7304608755718249e+01 3.5867085574432647e+00 
57 1 2 3.3662799901674147e+00 -1.2343744762916337e+06 1.0000000000000000e+00 8.6356120315991056e+00 1.0721305809676718e+01 8.8687852310658251e+00 
94 1 2 3.3660613562451789e+00 -1.0016556108226712e+06 1.0000000000000000e+00 1.2602527466871527e+01 1.0675547939491590e+01 8.8884120172390197e+00 
99 1 2 3.3660711766144020e+00 -5.1424085835228401e+05 1.0000000000000000e+00 1.0612393368508194e+01 1.3939267443046155e+01 7.8820614986572020e+00 
69 1 2 3.3661034536388810e+00 -3.2138417955501558e+05 1.0000000000000000e+00 8.5827544293990332e+00 1.7170760411639513e+01 6.9066791803192071e+00 
105 1 2 3.3660869083537586e+00 -1.7212095978776205e+06 1.0000000000000000e+00 1.2614284529406142e+01 1.7202935810069793e+01 6.9488187251180760e+00 
95 1 2 3.3660452501013958e+00 -1.6642236594071386e+04 1.0000000000000000e+00 1.0592962414228179e+01 1.0536477200596506e+01 1.2219820328457100e+01 
100 1 2 3.3660983682350230e+00 -3.2129858810560736e+06 1.0000000000000000e+00 8.6098404856419464e+00 1.3827317266280803e+01 1.1212780794486516e+01 
136 1 2 3.3660325775692446e+00 2.4589821373776122e+04 1.0000000000000000e+00 1.2576462996970998e+01 1.3818047295703208e+01 1.1251733142477397e+01 
106 1 2 3.3660607726549787e+00 -4.7945716431437916e+05 1.0000000000000000e+00 1.0584704688152792e+01 1.7084823705625755e+01 1.0254731076338095e+01 
59 1 2 3.3660957589083274e+00 -6.9418694002146553e+06 1.0000000000000000e+00 8.5240791805255078e+00 1.1164368352132977e+01 1.5444952903494519e+01 
131 1 2 3.3663541482953159e+00 -7.4901490349662388e+06 1.0000000000000000e+00 1.2644875604056827e+01 1.1315297742097075e+01 1.5442158257807876e+01 
101 1 2 3.3661097145666394e+00 -5.2814102263196846e+06 1.0000000000000000e+00 1.0557062694648582e+01 1.4446618235757473e+01 1.4513084328749702e+01 
71 1 2 3.3660943301853226e+00 -3.9048384458037689e+06 1.0000000000000000e+00 8.5960172704855289e+00 1.7690474827798532e+01 1.3533765077660329e+01 
107 1 2 3.3660774991463023e+00 -9.2537030390358146e+05 1.0000000000000000e+00 1.2562313750447492e+01 1.7697756925771969e+01 1.3541016897568115e+01 
96 1 2 3.3672273659749332e+00 -3.7718632052906356e+06 1.0000000000000000e+00 1.0387216702334031e+01 1.1270304471383856e+01 1.8815279089663534e+01 
102 1 2 3.3665503749622752e+00 -1.3574580178254449e+06 1.0000000000000000e+00 8.4736630012311132e+00 1.4400683755416496e+01 1.7792424653436843e+01 
138 1 2 3.3660331111803776e+00 -6.8688367623875299e+06 1.0000000000000000e+00 1.2638653415406933e+01 1.4356907635094583e+01 1.7851978724174003e+01 
108 1 2 3.3661716040619338e+00 -1.1033439140305324e+06 1.0000000000000000e+00 1.0572947231009982e+01 1.7538034233979168e+01 1.6881846021059388e+01 
110 1 2 3.3663016709291336e+00 1.8506600958747807e+05 1.0000000000000000e+00 1.6646097424386259e+01 4.8347319692572932e-01 2.6411172874273370e+00 
115 1 2 3.3696011965601946e+00 -1.0573192930543052e+06 1.0000000000000000e+00 1.6911478969354018e+01 3.5903179478791429e+00 4.2784155169234389e-01 
122 1 2 3.3785289127725466e+00 -6.8332965215068252e+05 1.0000000000000000e+00 1.4623991043833714e+01 8.4736366362384139e+00 2.7232484846031744e+00 
157 1 2 3.3659172314236132e+00 -1.1603454310293894e+06 1.0000000000000000e+00 1.8463816651721938e+01 7.4065781089151912e+00 1.2649845059454254e+00 
111 1 2 3.3662557369926693e+00 -1.8659060908384882e+06 1.0000000000000000e+00 1.4627413263793859e+01 3.8359741180183354e-01 5.9573153186441852e+00 
147 1 2 3.3661490584154614e+00 -3.5885275195797738e+06 1.0000000000000000e+00 1.8688889065373363e+01 3.9049413337224609e-01 5.9656913593413661e+00 
116 1 2 3.3659446836316405e+00 -4.5904118112800503e+05 1.0000000000000000e+00 1.4627118203445265e+01 3.7030540041032123e+00 3.6447569996935494e+00 
152 1 2 3.3671200022202075e+00 -6.6767322247898648e+05 1.0000000000000000e+00 1.8831011576925334e+01 3.5438925636715832e+00 3.7162533580895349e+00 
123 1 2 3.3694108055484571e+00 -1.1687266693086892e+07 1.0000000000000000e+00 1.6953396383737161e+01 6.6146002117202407e+00 4.8740694503393120e+00 
112 1 2 3.3660151885474070e+00 -1.6800430965908517e+06 1.0000000000000000e+00 1.6615410677768477e+01 3.2632640057575973e-01 9.3195567090519109e+00 
153 1 2 3.3663828118172270e+00 -2.2743468828337798e+06 1.0000000000000000e+00 1.6629558767138644e+01 3.5003616013403045e+00 7.0471740310965743e+00 
87 1 2 3.3659746591354573e+00 -1.3143916947803624e+07 1.0000000000000000e+00 1.4622507641985601e+01 7.4297508971805613e+00 7.9003930095928867e+00 
159 1 2 3.3670828032825728e+00 -1.2878128822609626e+06 1.0000000000000000e+00 1.8741614765940369e+01 7.4440607511314427e+00 8.0676212503411602e+00 
113 1 2 3.3659829058048780e+00 -8.6268582223389612e+05 1.0000000000000000e+00 1.4627479056157135e+01 9.1478231629469120e-01 1.2643184999208868e+01 
149 1 2 3.3660866920951391e+00 -5.9409618955635861e+05 1.0000000000000000e+00 1.8665134694956034e+01 9.2492445833545722e-01 1.2559152701415311e+01 
118 1 2 3.3660868332706051e+00 -2.5658684484652486e+06 1.0000000000000000e+00 1.4625631137676628e+01 4.0616896822195097e+00 1.0314592221323023e+01 
154 1 2 3.3660724481383313e+00 -2.7337529181580236e+06 1.0000000000000000e+00 1.8662998609167261e+01 4.1206777082397581e+00 1.0288814125405953e+01 
124 1 2 3.3660563812958535e+00 -3.1609832481855308e+06 1.0000000000000000e+00 1.6586685391472898e+01 7.3180196158661346e+00 1.1284280687526227e+01 
119 1 2 3.3660657723209231e+00 -2.4810943473786614e+06 1.0000000000000000e+00 1.6739072915855687e+01 8.0455640903784398e-01 1.5939101328897264e+01 
155 1 2 3.3660453669278492e+00 -9.8394279319123260e+05 1.0000000000000000e+00 1.6668662519998616e+01 4.1362820648592056e+00 1.3631653520396615e+01 
125 1 2 3.3659980801771359e+00 -6.3868865870983731e+06 1.0000000000000000e+00 1.4624815228915804e+01 7.3511743068683275e+00 1.4662242609902348e+01 
161 1 2 3.3672395309721979e+00 -2.1065732606582326e+05 1.0000000000000000e+00 1.8770166559290960e+01 7.3406185294901229e+00 1.4499753232957289e+01 
109 1 2 3.3660703022217562e+00 -6.8004963519098319e+05 1.0000000000000000e+00 1.4625228274815647e+01 6.8558457467548306e-01 1.9246869305867261e+01 
145 1 2 3.3671454064533588e+00 -4.6709641056018422e+05 1.0000000000000000e+00 1.8785894668466913e+01 5.6613853438372908e-01 1.9256173475612602e+01 
84 1 2 3.3664667919490481e+00 -3.0358257300524083e+06 1.0000000000000000e+00 1.4627217947502244e+01 3.8890044592683819e+00 1.6923278667235223e+01 
121 1 2 3.3793161811912675e+00 -2.8349073221013164e+06 1.0000000000000000e+00 1.4624425062864191e+01 6.3790621437030888e+00 1.9785142789888514e+01 
120 1 2 3.3659772532679848e+00 -2.0612877637195939e+06 1.0000000000000000e+00 1.8660478886363599e+01 4.1454434560223277e+00 1.6979159856994727e+01 
126 1 2 3.3698920326911672e+00 -6.2693554609452412e+06 1.0000000000000000e+00 1.6962953570999282e+01 8.2303277368215735e+00 1.7653547513750965e+01 
127 1 2 3.3693990155397691e+00 -2.5009005487881298e+06 1.0000000000000000e+00 1.6940576765922565e+01 1.1251581316290178e+01 2.1002101304877998e+00 
133 1 2 3.3661138013031437e+00 1.0704654062095311e+05 1.0000000000000000e+00 1.4627601654777694e+01 1.4250255713509457e+01 1.2128597665881800e+00 
169 1 2 3.3673405918619337e+00 -2.6020391998935286e+06 1.0000000000000000e+00 1.8769159708477019e+01 1.4373447977671068e+01 1.1159659556790753e+00 
139 1 2 3.3661092559565340e+00 -3.4733888133153250e+06 1.0000000000000000e+00 1.6612340426627963e+01 1.7466461713945549e+01 2.1360483312306972e-01 
93 1 2 3.3665565032310640e+00 -2.7586707385801557e+06 1.0000000000000000e+00 1.4626924410750384e+01 1.0939922297203827e+01 5.5923252619638015e+00 
128 1 2 3.3660265366437039e+00 -1.9283879669239933e+06 1.0000000000000000e+00 1.8615794340260425e+01 1.0581147336067696e+01 5.5307067176109337e+00 
134 1 2 3.3663325018856005e+00 -3.0114373467411795e+06 1.0000000000000000e+00 1.6634526887017952e+01 1.4136681921095620e+01 4.5812725005481667e+00 
140 1 2 3.3662017719749748e+00 -2.0541222460099473e+06 1.0000000000000000e+00 1.4627830048399384e+01 1.7308568530739009e+01 3.5918029069901278e+00 
176 1 2 3.3662290534815718e+00 -1.1356325298655729e+06 1.0000000000000000e+00 1.8674601967223904e+01 1.7305966941770016e+01 3.5825884327964501e+00 
129 1 2 3.3660641709091599e+00 -6.4714865474208826e+06 1.0000000000000000e+00 1.6648188381365934e+01 1.0671810726807978e+01 8.8902095317202257e+00 
135 1 2 3.3661328567361886e+00 -2.2854798402882041e+06 1.0000000000000000e+00 1.4625579253247667e+01 1.3982893802868393e+01 7.9470300503007856e+00 
171 1 2 3.3660716962960646e+00 -3.3137184369634469e+06 1.0000000000000000e+00 1.8636000175628475e+01 1.3939706183350289e+01 7.8827440318681745e+00 
141 1 2 3.3660871494882940e+00 -1.1253570451363767e+06 1.0000000000000000e+00 1.6640450143741539e+01 1.7204392485749494e+01 6.9467339774422099e+00 
130 1 2 3.3661330214865570e+00 -8.3260387141569646e+05 1.0000000000000000e+00 1.4626616358114131e+01 1.0579955450009630e+01 1.2200775038397714e+01 
166 1 2 3.3660433395220992e+00 -7.0401190907062199e+06 1.0000000000000000e+00 1.8657819535063133e+01 1.0537963463189106e+01 1.2221682114342252e+01 
172 1 2 3.3660355126078900e+00 -3.2627329859352871e+06 1.0000000000000000e+00 1.6673204911839463e+01 1.3817868192283713e+01 1.1252160016511562e+01 
142 1 2 3.3660365013398250e+00 -1.0375610699202315e+06 1.0000000000000000e+00 1.4626133078148829e+01 1.7076712262732173e+01 1.0305070993971320e+01 
178 1 2 3.3660619958779856e+00 -2.6952424433859303e+06 1.0000000000000000e+00 1.8664262656460540e+01 1.7083290604108946e+01 1.0255939903921041e+01 
167 1 2 3.3663515746019179e+00 -2.9398114370811167e+06 1.0000000000000000e+00 1.6603462360948985e+01 1.1316203160374416e+01 1.5444491669543531e+01 
137 1 2 3.3661222236442061e+00 -5.4930005507897073e+06 1.0000000000000000e+00 1.4625941154190855e+01 1.4524007264476571e+01 1.4481522291735223e+01 
173 1 2 3.3661068258641853e+00 -1.0542631047357284e+06 1.0000000000000000e+00 1.8695768777249182e+01 1.4444637248046721e+01 1.4511604234691426e+01 
143 1 2 3.3660806551388780e+00 -6.7597463247615076e+05 1.0000000000000000e+00 1.6688047915993035e+01 1.7696583167135209e+01 1.3542315485734898e+01 
132 1 2 3.3659653850161186e+00 -5.7613332251888486e+06 1.0000000000000000e+00 1.4626407730296805e+01 1.1110632112213411e+01 1.8889195923954240e+01 
163 1 2 3.3672380462335680e+00 -2.1560267549735182e+06 1.0000000000000000e+00 1.8860903432320381e+01 1.1269571665141241e+01 1.8815154119234414e+01 
174 1 2 3.3660348662303283e+00 -1.2251626075447341e+05 1.0000000000000000e+00 1.6611555679787987e+01 1.4358575967177845e+01 1.7849492640540625e+01 
144 1 2 3.3660449908883834e+00 -6.8209215531297820e+05 1.0000000000000000e+00 1.4625006933886675e+01 1.7611474568111571e+01 1.6854002198091482e+01 
180 1 2 3.3661709261127295e+00 1.9307020856576215e+04 1.0000000000000000e+00 1.8679078488897062e+01 1.7540824993339520e+01 1.6880738088146522e+01 

Velocities

146 -5.4993923373743432e-02 3.1489430047502175e-02 7.9190945640895363e-02
2 -1.2645234168692641e-02 -5.2742889574158833e-02 5.5582577822812188e-02
151 1.2552253414186249e-01 -4.2422850398108738e-02 9.3016324021589547e-02
7 -8.6666243759983483e-02 -2.9696455320414560e-02 3.7954970802144071e-02
19 3.0642521985600416e-03 3.6706876565448833e-03 -3.8534419552719863e-02
13 -1.1873946585322084e-02 -5.4013331701855377e-02 3.1393583661890663e-02
3 -5.7609116575053437e-02 -6.1517315916716414e-02 4.2084198699030566e-02
39 -7.3807093740322988e-02 -1.6484965118139436e-02 3.0418949759509994e-02
8 -1.8151071729641484e-02 9.0046402250993002e-02 4.4317208582691552e-02
44 1.0379318928607145e-02 3.6923134356804249e-02 3.6395663807634111e-03
158 -1.3107838178223436e-02 -2.4106442143442455e-02 3.0558148819217774e-02
14 -1.6024201741855208e-02 3.9220843867295546e-02 -6.3044986794738009e-02
148 8.6002495320858345e-03 5.6029300183063631e-02 -4.9128821236439857e-02
4 3.2391499407091857e-02 -1.1789327925348654e-02 -6.1756132615893168e-02
9 3.9245076927315083e-02 1.6028505813603718e-02 3.7527310406475854e-02
45 -1.5037651510732634e-02 -8.5109720447210492e-04 -1.0919755510679764e-02
21 -3.2155843139415101e-02 9.5854464816728067e-03 3.8661164660531371e-02
15 2.0727413958996816e-02 -5.2172435386781860e-02 5.4416595012525451e-02
5 8.1266840207033040e-03 2.3403213857692393e-03 1.5148092033039786e-02
41 2.1827597975467926e-02 -3.8776417667227372e-03 -4.1922600563990074e-02
10 -7.8892360123752975e-02 1.0043826600427864e-02 -1.8464532970222634e-02
46 -9.4498870653710113e-03 1.2699055869867318e-02 4.0501666480958015e-02
160 -5.6065752641629371e-02 -2.3726841062400306e-02 -1.6227937403136838e-02
16 -1.7778844792027595e-02 -3.9810752877321491e-02 -5.4267039102760845e-02
150 -1.0980144157834486e-02 -5.7873473305597632e-02 5.9670315579318468e-03
6 -1.5636924957646306e-02 5.4108391122561710e-02 6.6443147789297358e-02
156 1.8446923744395497e-02 -3.9745986728960639e-02 -3.5284326768559957e-02
11 3.2002476716456313e-02 7.5857992139566604e-04 -6.6033124068688706e-02
17 -1.9606928141041008e-02 7.1398083344238847e-02 2.3757539363820978e-02
53 4.6392045326804209e-02 -5.0686205557236172e-02 7.9751184547775349e-03
1 3.4428777719976489e-02 2.1484067369765422e-02 4.8743656686631991e-02
37 -1.8878418830483527e-02 -2.8012885659363402e-02 1.1518399294253622e-02
12 -5.2313229376139504e-02 -3.8778565993721738e-02 -7.1244204355689247e-02
48 -3.7259144313661646e-02 -1.7370399346197409e-02 -9.3463563880993739e-03
162 9.0363589788201269e-03 -1.6877232493049871e-02 2.7894287622159335e-02
18 5.8233284336356633e-02 -1.9295938024561493e-03 -1.3120404255362251e-02
164 -5.5089963304565885e-02 -6.0985840852117983e-03 7.8584904318713733e-02
55 -2.4497075361632540e-02 -7.5662013935462622e-03 -4.7316369235127741e-02
25 -3.3519574323109856e-03 1.0905765887540419e-02 -1.4490076102207924e-02
61 8.4677317422263160e-03 -8.3815499537087008e-03 -2.1731933517231725e-02
175 7.8309735621765741e-03 2.9331179884509128e-02 -2.5437439758353532e-02
31 -1.3321993939116620e-02 -1.0400054734000566e-01 1.0392188426550024e-01