LAMMPS data file via write_data, version 30 Jul 2016, timestep = 50000000

2080 atoms
8 atom types

0.0000000000000000e+00 4.0000000000000000e+01 xlo xhi
0.0000000000000000e+00 4.0000000000000000e+01 ylo yhi
0.0000000000000000e+00 1.0000000000000000e+02 zlo zhi

Masses

1 3.896
2 5.36
3 20.064
4 8.378
5 8.378
6 8.378
7 8.378
8 8.378

Atoms # meso-molecular

1 2 4 1.0280892035478624e+00 -2.8236380807445636e+02 1.0000000000000000e+00 0.0000000000000000e+00 0.0000000000000000e+00 2.5000000000000000e+00 
2 2 4 1.0278983862052822e+00 -2.6764003863830033e+02 1.0000000000000000e+00 0.0000000000000000e+00 2.0000000000000000e+00 2.5000000000000000e+00 
21 2 4 1.0279889954226633e+00 -2.6691588749032940e+02 1.0000000000000000e+00 2.0000000000000000e+00 0.0000000000000000e+00 2.5000000000000000e+00 
22 2 4 1.0280070210455341e+00 -2.7383712186375885e+02 1.0000000000000000e+00 2.0000000000000000e+00 2.0000000000000000e+00 2.5000000000000000e+00 
41 2 4 1.0279886782934662e+00 -2.7588961124820042e+02 1.0000000000000000e+00 4.0000000000000000e+00 0.0000000000000000e+00 2.5000000000000000e+00 
42 2 4 1.0279905465393953e+00 -2.6685885759770235e+02 1.0000000000000000e+00 4.0000000000000000e+00 2.0000000000000000e+00 2.5000000000000000e+00 
61 2 4 1.0280549964215002e+00 -2.5445283971674499e+02 1.0000000000000000e+00 6.0000000000000000e+00 0.0000000000000000e+00 2.5000000000000000e+00 
62 2 4 1.0280065150088173e+00 -2.4497338510171318e+02 1.0000000000000000e+00 6.0000000000000000e+00 2.0000000000000000e+00 2.5000000000000000e+00 
81 2 4 1.0279062346993262e+00 -2.6882104607237397e+02 1.0000000000000000e+00 8.0000000000000000e+00 0.0000000000000000e+00 2.5000000000000000e+00 
82 2 4 1.0280146409688795e+00 -2.5215977442434794e+02 1.0000000000000000e+00 8.0000000000000000e+00 2.0000000000000000e+00 2.5000000000000000e+00 
101 2 4 1.0281146034188597e+00 -2.6395756393431094e+02 1.0000000000000000e+00 1.0000000000000000e+01 0.0000000000000000e+00 2.5000000000000000e+00 
102 2 4 1.0279607557457977e+00 -2.8676209178290759e+02 1.0000000000000000e+00 1.0000000000000000e+01 2.0000000000000000e+00 2.5000000000000000e+00 
121 2 4 1.0279944181899698e+00 -2.3614392558516451e+02 1.0000000000000000e+00 1.2000000000000000e+01 0.0000000000000000e+00 2.5000000000000000e+00 
122 2 4 1.0279709854580794e+00 -2.7904243857811622e+02 1.0000000000000000e+00 1.2000000000000000e+01 2.0000000000000000e+00 2.5000000000000000e+00 
141 2 4 1.0279823573701683e+00 -2.9923889233413195e+02 1.0000000000000000e+00 1.4000000000000000e+01 0.0000000000000000e+00 2.5000000000000000e+00 
142 2 4 1.0280175061319090e+00 -2.8021101802772324e+02 1.0000000000000000e+00 1.4000000000000000e+01 2.0000000000000000e+00 2.5000000000000000e+00 
161 2 4 1.0279929040035494e+00 -2.8160638903150544e+02 1.0000000000000000e+00 1.6000000000000000e+01 0.0000000000000000e+00 2.5000000000000000e+00 
162 2 4 1.0280332637739562e+00 -2.7664225948527212e+02 1.0000000000000000e+00 1.6000000000000000e+01 2.0000000000000000e+00 2.5000000000000000e+00 
181 2 4 1.0280002915706794e+00 -2.7516996650081131e+02 1.0000000000000000e+00 1.8000000000000000e+01 0.0000000000000000e+00 2.5000000000000000e+00 
182 2 4 1.0280022882902744e+00 -2.0676331419524703e+02 1.0000000000000000e+00 1.8000000000000000e+01 2.0000000000000000e+00 2.5000000000000000e+00 
3 2 4 1.0280190425004065e+00 -2.3250421460876308e+02 1.0000000000000000e+00 0.0000000000000000e+00 4.0000000000000000e+00 2.5000000000000000e+00 
4 2 4 1.0280420180998351e+00 -2.0754201628397308e+02 1.0000000000000000e+00 0.0000000000000000e+00 6.0000000000000000e+00 2.5000000000000000e+00 
23 2 4 1.0280770624942439e+00 -2.3396796031655393e+02 1.0000000000000000e+00 2.0000000000000000e+00 4.0000000000000000e+00 2.5000000000000000e+00 
24 2 4 1.0278566858174398e+00 -1.8167554312749007e+02 1.0000000000000000e+00 2.0000000000000000e+00 6.0000000000000000e+00 2.5000000000000000e+00 
43 2 4 1.0279853487510873e+00 -2.5133877756980198e+02 1.0000000000000000e+00 4.0000000000000000e+00 4.0000000000000000e+00 2.5000000000000000e+00 
44 2 4 1.0280638034671492e+00 -2.4950640708672486e+02 1.0000000000000000e+00 4.0000000000000000e+00 6.0000000000000000e+00 2.5000000000000000e+00 
63 2 4 1.0279324788864697e+00 -2.7071058001242113e+02 1.0000000000000000e+00 6.0000000000000000e+00 4.0000000000000000e+00 2.5000000000000000e+00 
64 2 4 1.0280503792498479e+00 -2.5434541642273985e+02 1.0000000000000000e+00 6.0000000000000000e+00 6.0000000000000000e+00 2.5000000000000000e+00 
83 2 4 1.0281022198127168e+00 -2.6713871402897087e+02 1.0000000000000000e+00 8.0000000000000000e+00 4.0000000000000000e+00 2.5000000000000000e+00 
84 2 4 1.0278696899116793e+00 -2.7593344691251576e+02 1.0000000000000000e+00 8.0000000000000000e+00 6.0000000000000000e+00 2.5000000000000000e+00 
103 2 4 1.0279298607894067e+00 -2.6907987061035033e+02 1.0000000000000000e+00 1.0000000000000000e+01 4.0000000000000000e+00 2.5000000000000000e+00 
104 2 4 1.0281065071332092e+00 -2.5718105107604771e+02 1.0000000000000000e+00 1.0000000000000000e+01 6.0000000000000000e+00 2.5000000000000000e+00 
123 2 4 1.0281132193824893e+00 -2.4649883587191957e+02 1.0000000000000000e+00 1.2000000000000000e+01 4.0000000000000000e+00 2.5000000000000000e+00 
124 2 4 1.0278712860643699e+00 -2.2993017151821942e+02 1.0000000000000000e+00 1.2000000000000000e+01 6.0000000000000000e+00 2.5000000000000000e+00 
143 2 4 1.0279391412576901e+00 -2.2508508771699778e+02 1.0000000000000000e+00 1.4000000000000000e+01 4.0000000000000000e+00 2.5000000000000000e+00 
144 2 4 1.0280622678918616e+00 -2.3492976991684560e+02 1.0000000000000000e+00 1.4000000000000000e+01 6.0000000000000000e+00 2.5000000000000000e+00 
163 2 4 1.0279626613708728e+00 -2.2001026848972282e+02 1.0000000000000000e+00 1.6000000000000000e+01 4.0000000000000000e+00 2.5000000000000000e+00 
164 2 4 1.0280779353061136e+00 -1.5960424006306806e+02 1.0000000000000000e+00 1.6000000000000000e+01 6.0000000000000000e+00 2.5000000000000000e+00 
183 2 4 1.0279969910644640e+00 -2.2003544427092683e+02 1.0000000000000000e+00 1.8000000000000000e+01 4.0000000000000000e+00 2.5000000000000000e+00 
184 2 4 1.0279352749234547e+00 -2.0298507073779805e+02 1.0000000000000000e+00 1.8000000000000000e+01 6.0000000000000000e+00 2.5000000000000000e+00 
5 2 4 1.0279071993625526e+00 -2.4994411682542287e+02 1.0000000000000000e+00 0.0000000000000000e+00 8.0000000000000000e+00 2.5000000000000000e+00 
6 2 4 1.0281243920045056e+00 -2.3179794505503511e+02 1.0000000000000000e+00 0.0000000000000000e+00 1.0000000000000000e+01 2.5000000000000000e+00 
25 2 4 1.0281551910201268e+00 -2.4177377965184510e+02 1.0000000000000000e+00 2.0000000000000000e+00 8.0000000000000000e+00 2.5000000000000000e+00 
26 2 4 1.0278965529564406e+00 -2.6029875219075262e+02 1.0000000000000000e+00 2.0000000000000000e+00 1.0000000000000000e+01 2.5000000000000000e+00 
45 2 4 1.0279509676692526e+00 -2.4350174337735660e+02 1.0000000000000000e+00 4.0000000000000000e+00 8.0000000000000000e+00 2.5000000000000000e+00 
46 2 4 1.0279956590977286e+00 -2.4782750377223502e+02 1.0000000000000000e+00 4.0000000000000000e+00 1.0000000000000000e+01 2.5000000000000000e+00 
65 2 4 1.0279617013556470e+00 -2.2718855570786175e+02 1.0000000000000000e+00 6.0000000000000000e+00 8.0000000000000000e+00 2.5000000000000000e+00 
66 2 4 1.0280252435352106e+00 -2.3771518837291435e+02 1.0000000000000000e+00 6.0000000000000000e+00 1.0000000000000000e+01 2.5000000000000000e+00 
85 2 4 1.0281117032229203e+00 -2.3932089766882953e+02 1.0000000000000000e+00 8.0000000000000000e+00 8.0000000000000000e+00 2.5000000000000000e+00 
86 2 4 1.0279555399349021e+00 -1.6095122890200315e+02 1.0000000000000000e+00 8.0000000000000000e+00 1.0000000000000000e+01 2.5000000000000000e+00 
105 2 4 1.0279006058905480e+00 -2.5575530802986350e+02 1.0000000000000000e+00 1.0000000000000000e+01 8.0000000000000000e+00 2.5000000000000000e+00 
106 2 4 1.0280465648877668e+00 -2.4630495312095007e+02 1.0000000000000000e+00 1.0000000000000000e+01 1.0000000000000000e+01 2.5000000000000000e+00 
125 2 4 1.0281375376181050e+00 -2.6448093962652592e+02 1.0000000000000000e+00 1.2000000000000000e+01 8.0000000000000000e+00 2.5000000000000000e+00 
126 2 4 1.0278978034636399e+00 -2.6529447734566634e+02 1.0000000000000000e+00 1.2000000000000000e+01 1.0000000000000000e+01 2.5000000000000000e+00 
145 2 4 1.0279413234428569e+00 -1.6869116283033071e+02 1.0000000000000000e+00 1.4000000000000000e+01 8.0000000000000000e+00 2.5000000000000000e+00 
146 2 4 1.0280454404290600e+00 -1.3244327131945317e+02 1.0000000000000000e+00 1.4000000000000000e+01 1.0000000000000000e+01 2.5000000000000000e+00 
165 2 4 1.0279233048925829e+00 -1.2557505815180174e+02 1.0000000000000000e+00 1.6000000000000000e+01 8.0000000000000000e+00 2.5000000000000000e+00 
166 2 4 1.0280701691986871e+00 6.5859429287675979e+01 1.0000000000000000e+00 1.6000000000000000e+01 1.0000000000000000e+01 2.5000000000000000e+00 
185 2 4 1.0280887738257984e+00 -1.4734730177953338e+02 1.0000000000000000e+00 1.8000000000000000e+01 8.0000000000000000e+00 2.5000000000000000e+00 
186 2 4 1.0279530467997791e+00 -4.4032233894872014e+01 1.0000000000000000e+00 1.8000000000000000e+01 1.0000000000000000e+01 2.5000000000000000e+00 
7 2 4 1.0279756389323118e+00 -2.5766956482583026e+02 1.0000000000000000e+00 0.0000000000000000e+00 1.2000000000000000e+01 2.5000000000000000e+00 
8 2 4 1.0279821344418456e+00 -1.9146278623390822e+02 1.0000000000000000e+00 0.0000000000000000e+00 1.4000000000000000e+01 2.5000000000000000e+00 
27 2 4 1.0279538260659375e+00 -2.5824951658350312e+02 1.0000000000000000e+00 2.0000000000000000e+00 1.2000000000000000e+01 2.5000000000000000e+00 
28 2 4 1.0280999873497536e+00 -1.7270886218544308e+02 1.0000000000000000e+00 2.0000000000000000e+00 1.4000000000000000e+01 2.5000000000000000e+00 
47 2 4 1.0281439527551191e+00 -2.6128034714598294e+02 1.0000000000000000e+00 4.0000000000000000e+00 1.2000000000000000e+01 2.5000000000000000e+00 
48 2 4 1.0278360966339042e+00 -1.4431095394573001e+02 1.0000000000000000e+00 4.0000000000000000e+00 1.4000000000000000e+01 2.5000000000000000e+00 
67 2 4 1.0279081751923156e+00 -2.6286647508972305e+02 1.0000000000000000e+00 6.0000000000000000e+00 1.2000000000000000e+01 2.5000000000000000e+00 
68 2 4 1.0280571817328490e+00 -1.4184737713975582e+02 1.0000000000000000e+00 6.0000000000000000e+00 1.4000000000000000e+01 2.5000000000000000e+00 
87 2 4 1.0280240100969564e+00 -1.7284421007542952e+02 1.0000000000000000e+00 8.0000000000000000e+00 1.2000000000000000e+01 2.5000000000000000e+00 
88 2 4 1.0280580832450308e+00 -1.7596650837016890e+02 1.0000000000000000e+00 8.0000000000000000e+00 1.4000000000000000e+01 2.5000000000000000e+00 
107 2 4 1.0279911285421388e+00 -1.1724289941689985e+02 1.0000000000000000e+00 1.0000000000000000e+01 1.2000000000000000e+01 2.5000000000000000e+00 
108 2 4 1.0279372197338716e+00 -1.7436039935308571e+02 1.0000000000000000e+00 1.0000000000000000e+01 1.4000000000000000e+01 2.5000000000000000e+00 
127 2 4 1.0280680190125029e+00 -1.3767848082456172e+02 1.0000000000000000e+00 1.2000000000000000e+01 1.2000000000000000e+01 2.5000000000000000e+00 
128 2 4 1.0279993543524089e+00 -1.1205376170739186e+02 1.0000000000000000e+00 1.2000000000000000e+01 1.4000000000000000e+01 2.5000000000000000e+00 
147 2 4 1.0279657563006526e+00 -1.1542705851752488e+02 1.0000000000000000e+00 1.4000000000000000e+01 1.2000000000000000e+01 2.5000000000000000e+00 
148 2 4 1.0280169016707719e+00 5.8063229732882355e+01 1.0000000000000000e+00 1.4000000000000000e+01 1.4000000000000000e+01 2.5000000000000000e+00 
167 2 4 1.0279813666595847e+00 5.9196255139577225e+01 1.0000000000000000e+00 1.6000000000000000e+01 1.2000000000000000e+01 2.5000000000000000e+00 
168 2 4 1.0280113023488204e+00 1.8717993120022177e+02 1.0000000000000000e+00 1.6000000000000000e+01 1.4000000000000000e+01 2.5000000000000000e+00 
187 2 4 1.0279742230654230e+00 7.3444477582499431e+01 1.0000000000000000e+00 1.8000000000000000e+01 1.2000000000000000e+01 2.5000000000000000e+00 
188 2 4 1.0280634086557190e+00 1.9517416247580931e+02 1.0000000000000000e+00 1.8000000000000000e+01 1.4000000000000000e+01 2.5000000000000000e+00 
9 2 4 1.0279635518067711e+00 -2.1160973277573044e+02 1.0000000000000000e+00 0.0000000000000000e+00 1.6000000000000000e+01 2.5000000000000000e+00 
10 2 4 1.0279969191709291e+00 -1.9833504980549054e+02 1.0000000000000000e+00 0.0000000000000000e+00 1.8000000000000000e+01 2.5000000000000000e+00 
29 2 4 1.0279793999939209e+00 -2.3765418544398972e+02 1.0000000000000000e+00 2.0000000000000000e+00 1.6000000000000000e+01 2.5000000000000000e+00 
30 2 4 1.0280314742259125e+00 -2.2604586936128050e+02 1.0000000000000000e+00 2.0000000000000000e+00 1.8000000000000000e+01 2.5000000000000000e+00 
49 2 4 1.0280679390250955e+00 -1.7063963613305251e+02 1.0000000000000000e+00 4.0000000000000000e+00 1.6000000000000000e+01 2.5000000000000000e+00 
50 2 4 1.0279384590068277e+00 -2.0025620978790462e+02 1.0000000000000000e+00 4.0000000000000000e+00 1.8000000000000000e+01 2.5000000000000000e+00 
69 2 4 1.0280528644747529e+00 -1.6482501455663160e+02 1.0000000000000000e+00 6.0000000000000000e+00 1.6000000000000000e+01 2.5000000000000000e+00 
70 2 4 1.0279620958362996e+00 -1.7073298118468063e+02 1.0000000000000000e+00 6.0000000000000000e+00 1.8000000000000000e+01 2.5000000000000000e+00 
89 2 4 1.0278331630377802e+00 -1.4885898468220122e+02 1.0000000000000000e+00 8.0000000000000000e+00 1.6000000000000000e+01 2.5000000000000000e+00 
90 2 4 1.0281340653266406e+00 -1.7889629484402289e+02 1.0000000000000000e+00 8.0000000000000000e+00 1.8000000000000000e+01 2.5000000000000000e+00 
109 2 4 1.0281710394514165e+00 -7.1173395056850282e+01 1.0000000000000000e+00 1.0000000000000000e+01 1.6000000000000000e+01 2.5000000000000000e+00 
110 2 4 1.0279094348096600e+00 -1.7636736051725310e+02 1.0000000000000000e+00 1.0000000000000000e+01 1.8000000000000000e+01 2.5000000000000000e+00 
129 2 4 1.0279422910404865e+00 -3.5328169110801390e+01 1.0000000000000000e+00 1.2000000000000000e+01 1.6000000000000000e+01 2.5000000000000000e+00 
130 2 4 1.0279497247539209e+00 -1.2441190581204067e+02 1.0000000000000000e+00 1.2000000000000000e+01 1.8000000000000000e+01 2.5000000000000000e+00 
149 2 4 1.0280136989627244e+00 7.9120792309438556e+01 1.0000000000000000e+00 1.4000000000000000e+01 1.6000000000000000e+01 2.5000000000000000e+00 
150 2 4 1.0280468216720295e+00 -4.5230701549959576e+01 1.0000000000000000e+00 1.4000000000000000e+01 1.8000000000000000e+01 2.5000000000000000e+00 
169 2 4 1.0279690835879134e+00 1.4064753440663415e+02 1.0000000000000000e+00 1.6000000000000000e+01 1.6000000000000000e+01 2.5000000000000000e+00 
170 2 4 1.0280170319655983e+00 6.0766570210623648e+01 1.0000000000000000e+00 1.6000000000000000e+01 1.8000000000000000e+01 2.5000000000000000e+00 
189 2 4 1.0279540539320109e+00 6.0373598510319255e+01 1.0000000000000000e+00 1.8000000000000000e+01 1.6000000000000000e+01 2.5000000000000000e+00 
190 2 4 1.0280211614633750e+00 2.0068689265421455e+02 1.0000000000000000e+00 1.8000000000000000e+01 1.8000000000000000e+01 2.5000000000000000e+00 
1195 797 2 1.0280005912714469e+00 -3.5557355425058398e+02 1.0000000000000000e+00 2.7604893030651318e+00 3.8696521334846699e+00 6.0150738268326922e+00 
1690 1292 2 1.0280005912718155e+00 -3.0115060434283591e+03 1.0000000000000000e+00 2.7604893591857715e+00 3.8696521001231083e+00 6.0150739294270936e+00 
1470 1072 2 1.0280005912722339e+00 -4.0529975812741359e+03 1.0000000000000000e+00 2.7604894227016974e+00 3.8696520623638619e+00 6.0150740455316045e+00 
863 465 2 1.0280005912722356e+00 1.8818739316668816e+03 1.0000000000000000e+00 2.7604894230666797e+00 3.8696520621461108e+00 6.0150740461940355e+00 
813 415 2 1.0280005912721106e+00 5.8910056436949453e+03 1.0000000000000000e+00 2.7604894042675050e+00 3.8696520733225119e+00 6.0150740118335628e+00 
1836 1438 2 1.0280005912720913e+00 -3.8850488512174293e+03 1.0000000000000000e+00 2.7604894011588614e+00 3.8696520751717727e+00 6.0150740061585477e+00 
1345 947 2 1.0280005912722709e+00 -1.9944973281579760e+03 1.0000000000000000e+00 2.7604894287405983e+00 3.8696520587724801e+00 6.0150740565623337e+00 
1784 1386 2 1.0280005912722854e+00 2.2290294219829070e+03 1.0000000000000000e+00 2.7604894307638124e+00 3.8696520575714701e+00 6.0150740602714912e+00 
1696 1298 2 1.0280005912629995e+00 5.8725509712571011e+03 1.0000000000000000e+00 2.7604880145930393e+00 3.8696528994371686e+00 6.0150714713701658e+00 
1628 1230 2 1.0280005912191519e+00 8.0359130068008071e+03 1.0000000000000000e+00 2.7604813279539657e+00 3.8696568745836810e+00 6.0150592475269260e+00 
556 158 2 1.0279997272144870e+00 4.5657119185447136e+03 1.0000000000000000e+00 4.2873628930924745e+00 1.6657651305504242e+00 5.4130844082701017e+00 
1281 883 2 1.0279989949188193e+00 -2.7756427510509770e+03 1.0000000000000000e+00 4.1732648505875130e+00 4.3397000412343451e-01 5.6074506830084747e+00 
1792 1394 2 1.0280007322249549e+00 -3.7770468056644650e+03 1.0000000000000000e+00 4.7123634617936405e+00 2.5986504340885448e+00 6.8971580310517568e+00 
1908 1510 2 1.0280004495550519e+00 -5.1261104122629531e+03 1.0000000000000000e+00 4.7395506436192969e+00 1.6684949646111022e+00 6.6718562044845289e+00 
567 169 2 1.0280004490885530e+00 -1.9119634744887289e+03 1.0000000000000000e+00 4.7409145762739859e+00 1.6677586749764275e+00 6.6722490567509443e+00 
491 93 2 1.0280003437774632e+00 3.0769219003975873e+03 1.0000000000000000e+00 4.9154519739947844e+00 1.4833732999884421e+00 6.7040969863686390e+00 
620 222 2 1.0280004440620296e+00 -1.3283245604864646e+03 1.0000000000000000e+00 7.3680510250017210e+00 2.2609240076852113e+00 5.9819459109264645e+00 
971 573 2 1.0280000689572455e+00 -1.9296534435551146e+03 1.0000000000000000e+00 5.0298805061767142e+00 9.6277923475283511e-01 6.6858051130720293e+00 
1339 941 2 1.0280004440769350e+00 -3.0116572410924600e+03 1.0000000000000000e+00 7.3680516404380807e+00 2.2609195177468693e+00 5.9819538881470340e+00 
885 487 2 1.0280004440660298e+00 8.1927583916781095e+03 1.0000000000000000e+00 7.3680511901405890e+00 2.2609228030361721e+00 5.9819480512341663e+00 
1343 945 2 1.0280004440694885e+00 -2.1446516160674137e+03 1.0000000000000000e+00 7.3680513329518282e+00 2.2609217611852963e+00 5.9819499022847999e+00 
1193 795 2 1.0280004440791961e+00 2.9111634542808656e+02 1.0000000000000000e+00 7.3680517337155083e+00 2.2609188371280635e+00 5.9819550973734694e+00 
1360 962 2 1.0280004440671293e+00 6.8269020852878668e+02 1.0000000000000000e+00 7.3680512355338221e+00 2.2609224718912753e+00 5.9819486395768839e+00 
617 219 2 1.0280004440730031e+00 -1.1935009598856786e+03 1.0000000000000000e+00 7.3680514780338706e+00 2.2609207026998930e+00 5.9819517828762523e+00 
1363 965 2 1.0280004440672690e+00 -6.3256507520164757e+02 1.0000000000000000e+00 7.3680512412947241e+00 2.2609224298619646e+00 5.9819487142511019e+00 
1426 1028 2 1.0280004440655690e+00 5.2065212679414626e+03 1.0000000000000000e+00 7.3680511711721417e+00 2.2609229414085847e+00 5.9819478053889217e+00 
2056 1658 2 1.0280002164884787e+00 -2.8613254530602303e+03 1.0000000000000000e+00 1.1417881393625082e+01 3.3916372890808226e+00 6.6201083848785940e+00 
1658 1260 2 1.0280002165751203e+00 1.3975839821841121e+03 1.0000000000000000e+00 1.1417914328304260e+01 3.3917872237260860e+00 6.6201173362652668e+00 
1097 699 2 1.0280002165900088e+00 1.1111280422687231e+02 1.0000000000000000e+00 1.1417919989442838e+01 3.3918129954005183e+00 6.6201188747879280e+00 
518 120 2 1.0280002167918552e+00 4.6019151684686931e+03 1.0000000000000000e+00 1.1417996763685553e+01 3.3921624841049245e+00 6.6201397358919118e+00 
1507 1109 2 1.0280002165042283e+00 -2.6351425599252575e+03 1.0000000000000000e+00 1.1417887379449160e+01 3.3916645400108165e+00 6.6201100118727174e+00 
696 298 2 1.0280002164644153e+00 6.4917498634893221e+01 1.0000000000000000e+00 1.1417872247904734e+01 3.3915956517850812e+00 6.6201058989222537e+00 
714 316 2 1.0280002164883555e+00 -1.1350442582611090e+03 1.0000000000000000e+00 1.1417881346752612e+01 3.3916370756913770e+00 6.6201083721380947e+00 
1689 1291 2 1.0280002199142946e+00 8.3634363466483628e+03 1.0000000000000000e+00 1.1419191805658715e+01 3.3975992466740030e+00 6.6204635424477614e+00 
1796 1398 2 1.0280005468860614e+00 -2.1756332428373435e+03 1.0000000000000000e+00 1.0728562750432577e+01 1.4069903016020638e-01 5.8419810202065543e+00 
1220 822 2 1.0280005468860618e+00 -7.9453621167796905e+02 1.0000000000000000e+00 1.0728562750431957e+01 1.4069903015998367e-01 5.8419810202060143e+00 
2032 1634 2 1.0280005468860620e+00 -1.6668266203887085e+03 1.0000000000000000e+00 1.0728562750433253e+01 1.4069903016047994e-01 5.8419810202072275e+00 
1474 1076 2 1.0280005468860620e+00 -3.2223330833731216e+03 1.0000000000000000e+00 1.0728562750433085e+01 1.4069903016040555e-01 5.8419810202070428e+00 
512 114 2 1.0280005468860616e+00 1.3627698862431944e+03 1.0000000000000000e+00 1.0728562750433387e+01 1.4069903016052682e-01 5.8419810202073403e+00 
1217 819 2 1.0280005468860616e+00 -8.2421970084615987e+02 1.0000000000000000e+00 1.0728562750431976e+01 1.4069903015998633e-01 5.8419810202060196e+00 
1475 1077 2 1.0280005468860616e+00 -3.2514312617319147e+03 1.0000000000000000e+00 1.0728562750433902e+01 1.4069903016071855e-01 5.8419810202078075e+00 
509 111 2 1.0280005468860618e+00 1.4144291042659115e+03 1.0000000000000000e+00 1.0728562750432921e+01 1.4069903016034294e-01 5.8419810202068891e+00 
768 370 2 1.0280008991421183e+00 1.1411109365626157e+03 1.0000000000000000e+00 1.5695821622540999e+01 2.7605828552195044e+00 6.1945265587732319e+00 
456 58 2 1.0280008991381884e+00 2.9112718361032071e+03 1.0000000000000000e+00 1.5695822573599786e+01 2.7605857580208886e+00 6.1945287502665609e+00 
516 118 2 1.0280008991418117e+00 1.5251932704482226e+03 1.0000000000000000e+00 1.5695821696993796e+01 2.7605830824524062e+00 6.1945267303252010e+00 
521 123 2 1.0280008991401961e+00 8.9601524298480035e+02 1.0000000000000000e+00 1.5695822087748580e+01 2.7605842751190059e+00 6.1945276307390706e+00 
638 240 2 1.0280008991401961e+00 -8.2505818434973116e+03 1.0000000000000000e+00 1.5695822087748580e+01 2.7605842751190059e+00 6.1945276307390706e+00 
793 395 2 1.0280008991395089e+00 8.3988586063466391e+03 1.0000000000000000e+00 1.5695822254314878e+01 2.7605847834880324e+00 6.1945280145367843e+00 
1240 842 2 1.0280008991381884e+00 8.8672503797584031e+03 1.0000000000000000e+00 1.5695822573599457e+01 2.7605857580203637e+00 6.1945287502661506e+00 
1525 1127 2 1.0280008991417029e+00 4.7149250171098793e+03 1.0000000000000000e+00 1.5695821723083139e+01 2.7605831621019123e+00 6.1945267904568215e+00 
1003 605 2 1.0280008991403777e+00 -2.8105987397910512e+03 1.0000000000000000e+00 1.5695822043635198e+01 2.7605841404679095e+00 6.1945275290833752e+00 
1371 973 2 1.0279996341444140e+00 8.4481901008490229e+02 1.0000000000000000e+00 1.3685034872787405e+01 3.5777187678040359e+00 6.9171948660249853e+00 
729 331 2 1.0279988337378423e+00 -3.7904708126973469e+03 1.0000000000000000e+00 1.4017823669653405e+01 1.7638522716913880e+00 5.7006562866307204e+00 
2029 1631 2 1.0279988322700704e+00 -2.0950106903091086e+02 1.0000000000000000e+00 1.4019167853235425e+01 1.7648360257898439e+00 5.7020549820895461e+00 
2065 1667 2 1.0279996506163560e+00 5.5970989098571654e+03 1.0000000000000000e+00 1.3648684431297223e+01 3.6067292594969120e+00 6.9270203951472391e+00 
1668 1270 2 1.0279988325486480e+00 7.6792393579792270e+03 1.0000000000000000e+00 1.4018832976719857e+01 1.7645283556409233e+00 5.7017997729597436e+00 
1189 791 2 1.0279988324175753e+00 1.7042987861002321e+03 1.0000000000000000e+00 1.4018984123143692e+01 1.7646632305422538e+00 5.7019209680730327e+00 
1810 1412 2 1.0279994331154869e+00 -4.8691622323207948e+03 1.0000000000000000e+00 1.9010733040145954e+01 3.9253698099673762e+00 6.2497260776644019e+00 
713 315 2 1.0279994331154878e+00 1.4237765239710063e+03 1.0000000000000000e+00 1.9010733040146015e+01 3.9253698099673557e+00 6.2497260776643824e+00 
1637 1239 2 1.0279994331154876e+00 4.5688594916344182e+03 1.0000000000000000e+00 1.9010733040146047e+01 3.9253698099673628e+00 6.2497260776643726e+00 
550 152 2 1.0279994331154871e+00 5.0687668687673277e+03 1.0000000000000000e+00 1.9010733040145954e+01 3.9253698099673793e+00 6.2497260776644019e+00 
688 290 2 1.0279994331154876e+00 -1.8547556786710807e+03 1.0000000000000000e+00 1.9010733040146047e+01 3.9253698099673628e+00 6.2497260776643726e+00 
1147 749 2 1.0279994331154878e+00 -2.7311837592790589e+03 1.0000000000000000e+00 1.9010733040146032e+01 3.9253698099673588e+00 6.2497260776643762e+00 
1347 949 2 1.0279994331154869e+00 -1.8875362854824941e+03 1.0000000000000000e+00 1.9010733040190104e+01 3.9253698099375383e+00 6.2497260776502488e+00 
1391 993 2 1.0279994331154927e+00 -9.2446100747954546e+01 1.0000000000000000e+00 1.9010733033574017e+01 3.9253698143723188e+00 6.2497260797700402e+00 
1705 1307 2 1.0279994331238782e+00 1.4011255524350711e+03 1.0000000000000000e+00 1.9010721152462636e+01 3.9253777710514646e+00 6.2497298862390611e+00 
692 294 2 1.0279994330307740e+00 -2.6511373280225284e+03 1.0000000000000000e+00 1.9010852926341229e+01 3.9252880205506089e+00 6.2496876181296717e+00 
478 80 2 1.0279994328777267e+00 3.5353691183426969e+02 1.0000000000000000e+00 1.9011069071203298e+01 3.9251365813217558e+00 6.2496181476680635e+00 
940 542 2 1.0280064779208160e+00 1.0631804771076567e+01 1.0000000000000000e+00 1.9894783109514037e+01 2.6138561437610326e+00 5.3312110344055492e+00 
937 539 2 1.0279978250404189e+00 -2.4898344751135031e+02 1.0000000000000000e+00 1.9545575996217163e+01 3.2871352308521100e+00 6.1194210907950710e+00 
1255 857 2 1.0279996847140618e+00 4.1274196421663428e+03 1.0000000000000000e+00 2.7504437034956988e+00 7.8558603874118464e+00 5.8971921363019835e+00 
751 353 2 1.0279996847417114e+00 1.6167632096154207e+03 1.0000000000000000e+00 2.7505229147139296e+00 7.8559172204810608e+00 5.8972196548957792e+00 
1754 1356 2 1.0279996847173789e+00 -5.2596039548611889e+03 1.0000000000000000e+00 2.7504532127074435e+00 7.8558672097839226e+00 5.8971954395956212e+00 
883 485 2 1.0279996850730087e+00 -4.2583455266844276e+03 1.0000000000000000e+00 2.7514644668514561e+00 7.8565933081133901e+00 5.8975471573108678e+00 
637 239 2 1.0279996849518631e+00 -1.0605437498795675e+03 1.0000000000000000e+00 2.7511217916306294e+00 7.8563471336498063e+00 5.8974278794368917e+00 
1831 1433 2 1.0279996848569504e+00 -7.7370094127440289e+03 1.0000000000000000e+00 2.7508520113954398e+00 7.8561534182101180e+00 5.8973340422045561e+00 
503 105 2 1.0279996848538775e+00 1.3777313744626824e+03 1.0000000000000000e+00 2.7508432577286213e+00 7.8561471340058526e+00 5.8973309984285285e+00 
894 496 2 1.0279996848552717e+00 -3.3224860732233601e+03 1.0000000000000000e+00 2.7508472306635228e+00 7.8561499861411077e+00 5.8973323798671284e+00 
1272 874 2 1.0279996848538482e+00 -5.6769963638267143e+01 1.0000000000000000e+00 2.7508431769631496e+00 7.8561470760252341e+00 5.8973309703459469e+00 
992 594 2 1.0279993835703043e+00 4.6460998961593314e+03 1.0000000000000000e+00 3.4531915354897635e+00 6.6414091160485658e+00 7.1897359206424616e+00 
1341 943 2 1.0279993835703052e+00 -7.5167637155651721e+02 1.0000000000000000e+00 3.4531915313462465e+00 6.6414091114332496e+00 7.1897359207252487e+00 
460 62 2 1.0279993835703123e+00 5.6594234994798057e+02 1.0000000000000000e+00 3.4531915041533026e+00 6.6414090811446407e+00 7.1897359212683556e+00 
1457 1059 2 1.0279993835703090e+00 5.6851259685056757e+03 1.0000000000000000e+00 3.4531915166777307e+00 6.6414090950953852e+00 7.1897359210180518e+00 
921 523 2 1.0279993835703103e+00 2.5343438047288946e+03 1.0000000000000000e+00 3.4531915126607400e+00 6.6414090906205798e+00 7.1897359210984373e+00 
461 63 2 1.0279993793173170e+00 -1.6004277832934420e+03 1.0000000000000000e+00 3.4724197737867253e+00 6.6627748923487129e+00 7.1893307790747256e+00 
814 416 2 1.0279996841290366e+00 6.0420649978391441e+02 1.0000000000000000e+00 5.6033814296823365e+00 4.6717389075743503e+00 7.2596538057875000e+00 
537 139 2 1.0279996841290338e+00 -1.6018992518782070e+03 1.0000000000000000e+00 5.6033814345437722e+00 4.6717389163254976e+00 7.2596538050976731e+00 
2074 1676 2 1.0279996841290391e+00 -8.1240204719515514e+03 1.0000000000000000e+00 5.6033814194631653e+00 4.6717388891734162e+00 7.2596538072370294e+00 
562 164 2 1.0279996841290322e+00 -8.0741182292679096e+03 1.0000000000000000e+00 5.6033814420444150e+00 4.6717389298276029e+00 7.2596538040333431e+00 
405 7 2 1.0279996841290342e+00 -8.6066974335116868e+02 1.0000000000000000e+00 5.6033814351570124e+00 4.6717389174306279e+00 7.2596538050107835e+00 
1206 808 2 1.0279996841284589e+00 3.5224548990014559e+03 1.0000000000000000e+00 5.6033831655979380e+00 4.6717420397993559e+00 7.2596535602482142e+00 
812 414 2 1.0280009755711692e+00 4.5005849771985022e+03 1.0000000000000000e+00 6.7065669569500415e+00 5.9827601990297952e+00 5.4675776728907053e+00 
1807 1409 2 1.0280009734584061e+00 -6.1183729938757042e+03 1.0000000000000000e+00 6.7040188116917445e+00 5.9826535180250797e+00 5.4658371051271413e+00 
1355 957 2 1.0280009734584055e+00 7.8895000738881606e+02 1.0000000000000000e+00 6.7040188109249730e+00 5.9826535179925466e+00 5.4658371046042031e+00 
1334 936 2 1.0280009734584046e+00 -1.8621613230549572e+03 1.0000000000000000e+00 6.7040188101247562e+00 5.9826535179586298e+00 5.4658371040584566e+00 
1235 837 2 1.0280009734584059e+00 -1.9454275971925420e+03 1.0000000000000000e+00 6.7040188109825198e+00 5.9826535179950753e+00 5.4658371046434402e+00 
1287 889 2 1.0279998547205651e+00 7.7060686078190372e+01 1.0000000000000000e+00 7.1355676284009038e+00 6.0378500361189280e+00 6.1865662746907004e+00 
671 273 2 1.0279999231292385e+00 -7.1198651504991694e+03 1.0000000000000000e+00 7.3879624988343569e+00 7.6733239518874043e+00 6.7692633440458136e+00 
876 478 2 1.0279999254261174e+00 2.3322467876505875e+03 1.0000000000000000e+00 7.3835866245504018e+00 7.6778228683854097e+00 6.7719272039059550e+00 