LAMMPS data file via write_data, version 30 Jul 2016, timestep = 50400000

2080 atoms
8 atom types

0.0000000000000000e+00 4.0000000000000000e+01 xlo xhi
0.0000000000000000e+00 4.0000000000000000e+01 ylo yhi
0.0000000000000000e+00 1.0000000000000000e+02 zlo zhi

Masses

1 3.896
2 5.36
3 20.064
4 8.378
5 8.378
6 8.378
7 8.378
8 8.378

Atoms # meso-molecular

1 2 4 1.0280859776633740e+00 -2.8236397340149938e+02 1.0000000000000000e+00 0.0000000000000000e+00 0.0000000000000000e+00 2.5000000000000000e+00 
2 2 4 1.0279064100206208e+00 -2.6764017603601224e+02 1.0000000000000000e+00 0.0000000000000000e+00 2.0000000000000000e+00 2.5000000000000000e+00 
21 2 4 1.0279885410811591e+00 -2.6691588410141321e+02 1.0000000000000000e+00 2.0000000000000000e+00 0.0000000000000000e+00 2.5000000000000000e+00 
22 2 4 1.0280042690274003e+00 -2.7383708329948558e+02 1.0000000000000000e+00 2.0000000000000000e+00 2.0000000000000000e+00 2.5000000000000000e+00 
41 2 4 1.0279799101981428e+00 -2.7588959141358231e+02 1.0000000000000000e+00 4.0000000000000000e+00 0.0000000000000000e+00 2.5000000000000000e+00 
42 2 4 1.0279975027273598e+00 -2.6685881131501276e+02 1.0000000000000000e+00 4.0000000000000000e+00 2.0000000000000000e+00 2.5000000000000000e+00 
61 2 4 1.0280703054246794e+00 -2.5445305080652332e+02 1.0000000000000000e+00 6.0000000000000000e+00 0.0000000000000000e+00 2.5000000000000000e+00 
62 2 4 1.0279958121748303e+00 -2.4497337689534564e+02 1.0000000000000000e+00 6.0000000000000000e+00 2.0000000000000000e+00 2.5000000000000000e+00 
81 2 4 1.0278959415161704e+00 -2.6882113549225579e+02 1.0000000000000000e+00 8.0000000000000000e+00 0.0000000000000000e+00 2.5000000000000000e+00 
82 2 4 1.0280184628252753e+00 -2.5215974470029056e+02 1.0000000000000000e+00 8.0000000000000000e+00 2.0000000000000000e+00 2.5000000000000000e+00 
101 2 4 1.0281208081624182e+00 -2.6395749092349837e+02 1.0000000000000000e+00 1.0000000000000000e+01 0.0000000000000000e+00 2.5000000000000000e+00 
102 2 4 1.0279615072950636e+00 -2.8676208237724001e+02 1.0000000000000000e+00 1.0000000000000000e+01 2.0000000000000000e+00 2.5000000000000000e+00 
121 2 4 1.0279938342460182e+00 -2.3614393547708505e+02 1.0000000000000000e+00 1.2000000000000000e+01 0.0000000000000000e+00 2.5000000000000000e+00 
122 2 4 1.0279680664796305e+00 -2.7904238139832864e+02 1.0000000000000000e+00 1.2000000000000000e+01 2.0000000000000000e+00 2.5000000000000000e+00 
141 2 4 1.0279825076713875e+00 -2.9923889383946619e+02 1.0000000000000000e+00 1.4000000000000000e+01 0.0000000000000000e+00 2.5000000000000000e+00 
142 2 4 1.0280187700597960e+00 -2.8021100763608217e+02 1.0000000000000000e+00 1.4000000000000000e+01 2.0000000000000000e+00 2.5000000000000000e+00 
161 2 4 1.0279984334329879e+00 -2.8160637967579191e+02 1.0000000000000000e+00 1.6000000000000000e+01 0.0000000000000000e+00 2.5000000000000000e+00 
162 2 4 1.0280236220879839e+00 -2.7664224356210957e+02 1.0000000000000000e+00 1.6000000000000000e+01 2.0000000000000000e+00 2.5000000000000000e+00 
181 2 4 1.0280029938348454e+00 -2.7516994565122599e+02 1.0000000000000000e+00 1.8000000000000000e+01 0.0000000000000000e+00 2.5000000000000000e+00 
182 2 4 1.0280059774901718e+00 -2.0676329460725836e+02 1.0000000000000000e+00 1.8000000000000000e+01 2.0000000000000000e+00 2.5000000000000000e+00 
3 2 4 1.0280162864200724e+00 -2.3250418843087107e+02 1.0000000000000000e+00 0.0000000000000000e+00 4.0000000000000000e+00 2.5000000000000000e+00 
4 2 4 1.0280430134437990e+00 -2.0754207765003827e+02 1.0000000000000000e+00 0.0000000000000000e+00 6.0000000000000000e+00 2.5000000000000000e+00 
23 2 4 1.0280762628444047e+00 -2.3396808651793350e+02 1.0000000000000000e+00 2.0000000000000000e+00 4.0000000000000000e+00 2.5000000000000000e+00 
24 2 4 1.0278579587122765e+00 -1.8167583192850327e+02 1.0000000000000000e+00 2.0000000000000000e+00 6.0000000000000000e+00 2.5000000000000000e+00 
43 2 4 1.0279835599183762e+00 -2.5133876329931991e+02 1.0000000000000000e+00 4.0000000000000000e+00 4.0000000000000000e+00 2.5000000000000000e+00 
44 2 4 1.0280637733405220e+00 -2.4950655442686116e+02 1.0000000000000000e+00 4.0000000000000000e+00 6.0000000000000000e+00 2.5000000000000000e+00 
63 2 4 1.0279360182930595e+00 -2.7071040232880938e+02 1.0000000000000000e+00 6.0000000000000000e+00 4.0000000000000000e+00 2.5000000000000000e+00 
64 2 4 1.0280502559192495e+00 -2.5434538365612252e+02 1.0000000000000000e+00 6.0000000000000000e+00 6.0000000000000000e+00 2.5000000000000000e+00 
83 2 4 1.0281032956738310e+00 -2.6713876457298738e+02 1.0000000000000000e+00 8.0000000000000000e+00 4.0000000000000000e+00 2.5000000000000000e+00 
84 2 4 1.0278683058568061e+00 -2.7593386405669139e+02 1.0000000000000000e+00 8.0000000000000000e+00 6.0000000000000000e+00 2.5000000000000000e+00 
103 2 4 1.0279277605713735e+00 -2.6908007999451036e+02 1.0000000000000000e+00 1.0000000000000000e+01 4.0000000000000000e+00 2.5000000000000000e+00 
104 2 4 1.0281071013877718e+00 -2.5718092862892030e+02 1.0000000000000000e+00 1.0000000000000000e+01 6.0000000000000000e+00 2.5000000000000000e+00 
123 2 4 1.0281143211079797e+00 -2.4649871987963309e+02 1.0000000000000000e+00 1.2000000000000000e+01 4.0000000000000000e+00 2.5000000000000000e+00 
124 2 4 1.0278737068619117e+00 -2.2993035164408784e+02 1.0000000000000000e+00 1.2000000000000000e+01 6.0000000000000000e+00 2.5000000000000000e+00 
143 2 4 1.0279428470652312e+00 -2.2508509271749600e+02 1.0000000000000000e+00 1.4000000000000000e+01 4.0000000000000000e+00 2.5000000000000000e+00 
144 2 4 1.0280543787507004e+00 -2.3492974977643547e+02 1.0000000000000000e+00 1.4000000000000000e+01 6.0000000000000000e+00 2.5000000000000000e+00 
163 2 4 1.0279676807901785e+00 -2.2001032874050719e+02 1.0000000000000000e+00 1.6000000000000000e+01 4.0000000000000000e+00 2.5000000000000000e+00 
164 2 4 1.0280769571724626e+00 -1.5960437292401980e+02 1.0000000000000000e+00 1.6000000000000000e+01 6.0000000000000000e+00 2.5000000000000000e+00 
183 2 4 1.0279949114625018e+00 -2.2003547044121817e+02 1.0000000000000000e+00 1.8000000000000000e+01 4.0000000000000000e+00 2.5000000000000000e+00 
184 2 4 1.0279359926451208e+00 -2.0298518189424567e+02 1.0000000000000000e+00 1.8000000000000000e+01 6.0000000000000000e+00 2.5000000000000000e+00 
5 2 4 1.0279061634144537e+00 -2.4994421541743367e+02 1.0000000000000000e+00 0.0000000000000000e+00 8.0000000000000000e+00 2.5000000000000000e+00 
6 2 4 1.0281283578848950e+00 -2.3179802201108083e+02 1.0000000000000000e+00 0.0000000000000000e+00 1.0000000000000000e+01 2.5000000000000000e+00 
25 2 4 1.0281533724856724e+00 -2.4177359676174186e+02 1.0000000000000000e+00 2.0000000000000000e+00 8.0000000000000000e+00 2.5000000000000000e+00 
26 2 4 1.0278950159150415e+00 -2.6029873172313211e+02 1.0000000000000000e+00 2.0000000000000000e+00 1.0000000000000000e+01 2.5000000000000000e+00 
45 2 4 1.0279525028926946e+00 -2.4350170246045758e+02 1.0000000000000000e+00 4.0000000000000000e+00 8.0000000000000000e+00 2.5000000000000000e+00 
46 2 4 1.0279967861218484e+00 -2.4782749729329427e+02 1.0000000000000000e+00 4.0000000000000000e+00 1.0000000000000000e+01 2.5000000000000000e+00 
65 2 4 1.0279595327429472e+00 -2.2718851031182203e+02 1.0000000000000000e+00 6.0000000000000000e+00 8.0000000000000000e+00 2.5000000000000000e+00 
66 2 4 1.0280256358981674e+00 -2.3771511090629099e+02 1.0000000000000000e+00 6.0000000000000000e+00 1.0000000000000000e+01 2.5000000000000000e+00 
85 2 4 1.0281140688482622e+00 -2.3932083045963893e+02 1.0000000000000000e+00 8.0000000000000000e+00 8.0000000000000000e+00 2.5000000000000000e+00 
86 2 4 1.0279543504853237e+00 -1.6095119430005445e+02 1.0000000000000000e+00 8.0000000000000000e+00 1.0000000000000000e+01 2.5000000000000000e+00 
105 2 4 1.0278996011695318e+00 -2.5575530835743373e+02 1.0000000000000000e+00 1.0000000000000000e+01 8.0000000000000000e+00 2.5000000000000000e+00 
106 2 4 1.0280463149480077e+00 -2.4630496193934320e+02 1.0000000000000000e+00 1.0000000000000000e+01 1.0000000000000000e+01 2.5000000000000000e+00 
125 2 4 1.0281351649365447e+00 -2.6448094973832497e+02 1.0000000000000000e+00 1.2000000000000000e+01 8.0000000000000000e+00 2.5000000000000000e+00 
126 2 4 1.0279013983914975e+00 -2.6529442037996961e+02 1.0000000000000000e+00 1.2000000000000000e+01 1.0000000000000000e+01 2.5000000000000000e+00 
145 2 4 1.0279492158661798e+00 -1.6869120045792775e+02 1.0000000000000000e+00 1.4000000000000000e+01 8.0000000000000000e+00 2.5000000000000000e+00 
146 2 4 1.0280344559746495e+00 -1.3244319030890628e+02 1.0000000000000000e+00 1.4000000000000000e+01 1.0000000000000000e+01 2.5000000000000000e+00 
165 2 4 1.0279223000400932e+00 -1.2557512239957944e+02 1.0000000000000000e+00 1.6000000000000000e+01 8.0000000000000000e+00 2.5000000000000000e+00 
166 2 4 1.0280752786993232e+00 6.5859444095003838e+01 1.0000000000000000e+00 1.6000000000000000e+01 1.0000000000000000e+01 2.5000000000000000e+00 
185 2 4 1.0280888448490551e+00 -1.4734719946271383e+02 1.0000000000000000e+00 1.8000000000000000e+01 8.0000000000000000e+00 2.5000000000000000e+00 
186 2 4 1.0279480318995544e+00 -4.4032280942789619e+01 1.0000000000000000e+00 1.8000000000000000e+01 1.0000000000000000e+01 2.5000000000000000e+00 
7 2 4 1.0279709375019697e+00 -2.5766954566481752e+02 1.0000000000000000e+00 0.0000000000000000e+00 1.2000000000000000e+01 2.5000000000000000e+00 
8 2 4 1.0279824062355465e+00 -1.9146275159330534e+02 1.0000000000000000e+00 0.0000000000000000e+00 1.4000000000000000e+01 2.5000000000000000e+00 
27 2 4 1.0279548937031551e+00 -2.5824963884661986e+02 1.0000000000000000e+00 2.0000000000000000e+00 1.2000000000000000e+01 2.5000000000000000e+00 
28 2 4 1.0281017844923492e+00 -1.7270894519666041e+02 1.0000000000000000e+00 2.0000000000000000e+00 1.4000000000000000e+01 2.5000000000000000e+00 
47 2 4 1.0281434238175764e+00 -2.6128018358368126e+02 1.0000000000000000e+00 4.0000000000000000e+00 1.2000000000000000e+01 2.5000000000000000e+00 
48 2 4 1.0278351288378638e+00 -1.4431187286572927e+02 1.0000000000000000e+00 4.0000000000000000e+00 1.4000000000000000e+01 2.5000000000000000e+00 
67 2 4 1.0279075062425134e+00 -2.6286654100380218e+02 1.0000000000000000e+00 6.0000000000000000e+00 1.2000000000000000e+01 2.5000000000000000e+00 
68 2 4 1.0280593955894533e+00 -1.4184732144753056e+02 1.0000000000000000e+00 6.0000000000000000e+00 1.4000000000000000e+01 2.5000000000000000e+00 
87 2 4 1.0280253610578407e+00 -1.7284416737563140e+02 1.0000000000000000e+00 8.0000000000000000e+00 1.2000000000000000e+01 2.5000000000000000e+00 
88 2 4 1.0280567968245560e+00 -1.7596661893882464e+02 1.0000000000000000e+00 8.0000000000000000e+00 1.4000000000000000e+01 2.5000000000000000e+00 
107 2 4 1.0279906345332130e+00 -1.1724290895527248e+02 1.0000000000000000e+00 1.0000000000000000e+01 1.2000000000000000e+01 2.5000000000000000e+00 
108 2 4 1.0279378609321312e+00 -1.7436049674921961e+02 1.0000000000000000e+00 1.0000000000000000e+01 1.4000000000000000e+01 2.5000000000000000e+00 
127 2 4 1.0280672818952565e+00 -1.3767853510507220e+02 1.0000000000000000e+00 1.2000000000000000e+01 1.2000000000000000e+01 2.5000000000000000e+00 
128 2 4 1.0279962300057941e+00 -1.1205380516396623e+02 1.0000000000000000e+00 1.2000000000000000e+01 1.4000000000000000e+01 2.5000000000000000e+00 
147 2 4 1.0279740882260251e+00 -1.1542708688881328e+02 1.0000000000000000e+00 1.4000000000000000e+01 1.2000000000000000e+01 2.5000000000000000e+00 
148 2 4 1.0280142247522952e+00 5.8063220078900066e+01 1.0000000000000000e+00 1.4000000000000000e+01 1.4000000000000000e+01 2.5000000000000000e+00 
167 2 4 1.0279755110072066e+00 5.9196267005446309e+01 1.0000000000000000e+00 1.6000000000000000e+01 1.2000000000000000e+01 2.5000000000000000e+00 
168 2 4 1.0280103188367478e+00 1.8717995710905660e+02 1.0000000000000000e+00 1.6000000000000000e+01 1.4000000000000000e+01 2.5000000000000000e+00 
187 2 4 1.0279843098231860e+00 7.3444442490612573e+01 1.0000000000000000e+00 1.8000000000000000e+01 1.2000000000000000e+01 2.5000000000000000e+00 
188 2 4 1.0280567994658996e+00 1.9517418249412080e+02 1.0000000000000000e+00 1.8000000000000000e+01 1.4000000000000000e+01 2.5000000000000000e+00 
9 2 4 1.0279620830665848e+00 -2.1160974675675305e+02 1.0000000000000000e+00 0.0000000000000000e+00 1.6000000000000000e+01 2.5000000000000000e+00 
10 2 4 1.0280000831350291e+00 -1.9833505620793937e+02 1.0000000000000000e+00 0.0000000000000000e+00 1.8000000000000000e+01 2.5000000000000000e+00 
29 2 4 1.0279785657261138e+00 -2.3765421795561622e+02 1.0000000000000000e+00 2.0000000000000000e+00 1.6000000000000000e+01 2.5000000000000000e+00 
30 2 4 1.0280330219163683e+00 -2.2604581097677655e+02 1.0000000000000000e+00 2.0000000000000000e+00 1.8000000000000000e+01 2.5000000000000000e+00 
49 2 4 1.0280687751642503e+00 -1.7063950363871865e+02 1.0000000000000000e+00 4.0000000000000000e+00 1.6000000000000000e+01 2.5000000000000000e+00 
50 2 4 1.0279345279817313e+00 -2.0025624701864140e+02 1.0000000000000000e+00 4.0000000000000000e+00 1.8000000000000000e+01 2.5000000000000000e+00 
69 2 4 1.0280511349282648e+00 -1.6482508368440480e+02 1.0000000000000000e+00 6.0000000000000000e+00 1.6000000000000000e+01 2.5000000000000000e+00 
70 2 4 1.0279674497841933e+00 -1.7073315927292316e+02 1.0000000000000000e+00 6.0000000000000000e+00 1.8000000000000000e+01 2.5000000000000000e+00 
89 2 4 1.0278328962081804e+00 -1.4885909752349477e+02 1.0000000000000000e+00 8.0000000000000000e+00 1.6000000000000000e+01 2.5000000000000000e+00 
90 2 4 1.0281299699473689e+00 -1.7889649357192542e+02 1.0000000000000000e+00 8.0000000000000000e+00 1.8000000000000000e+01 2.5000000000000000e+00 
109 2 4 1.0281705825755183e+00 -7.1173940230180818e+01 1.0000000000000000e+00 1.0000000000000000e+01 1.6000000000000000e+01 2.5000000000000000e+00 
110 2 4 1.0279158728221756e+00 -1.7636741438364979e+02 1.0000000000000000e+00 1.0000000000000000e+01 1.8000000000000000e+01 2.5000000000000000e+00 
129 2 4 1.0279492657972151e+00 -3.5328179898381691e+01 1.0000000000000000e+00 1.2000000000000000e+01 1.6000000000000000e+01 2.5000000000000000e+00 
130 2 4 1.0279362264934591e+00 -1.2441194735530462e+02 1.0000000000000000e+00 1.2000000000000000e+01 1.8000000000000000e+01 2.5000000000000000e+00 
149 2 4 1.0280121197060990e+00 7.9120767582860708e+01 1.0000000000000000e+00 1.4000000000000000e+01 1.6000000000000000e+01 2.5000000000000000e+00 
150 2 4 1.0280543675965497e+00 -4.5230842003788489e+01 1.0000000000000000e+00 1.4000000000000000e+01 1.8000000000000000e+01 2.5000000000000000e+00 
169 2 4 1.0279744132875503e+00 1.4064752121922473e+02 1.0000000000000000e+00 1.6000000000000000e+01 1.6000000000000000e+01 2.5000000000000000e+00 
170 2 4 1.0280053260393140e+00 6.0766555936997790e+01 1.0000000000000000e+00 1.6000000000000000e+01 1.8000000000000000e+01 2.5000000000000000e+00 
189 2 4 1.0279589389425980e+00 6.0373628180641752e+01 1.0000000000000000e+00 1.8000000000000000e+01 1.6000000000000000e+01 2.5000000000000000e+00 
190 2 4 1.0280216622753711e+00 2.0068690688041178e+02 1.0000000000000000e+00 1.8000000000000000e+01 1.8000000000000000e+01 2.5000000000000000e+00 
1195 797 2 1.0280006181013637e+00 -3.5557351875674368e+02 1.0000000000000000e+00 2.7588215043882256e+00 3.8590030899479784e+00 6.0122620020133768e+00 
1690 1292 2 1.0280006181017567e+00 -3.0115060079354116e+03 1.0000000000000000e+00 2.7588215607196314e+00 3.8590030577214374e+00 6.0122621175927593e+00 
1470 1072 2 1.0280006181021997e+00 -4.0529975457811756e+03 1.0000000000000000e+00 2.7588216244746917e+00 3.8590030212460764e+00 6.0122622483917727e+00 
863 465 2 1.0280006181022037e+00 1.8818739671606361e+03 1.0000000000000000e+00 2.7588216248412811e+00 3.8590030210354147e+00 6.0122622491377342e+00 
813 415 2 1.0280006181020720e+00 5.8910056791947245e+03 1.0000000000000000e+00 2.7588216059710935e+00 3.8590030318321187e+00 6.0122622104287888e+00 
1836 1438 2 1.0280006181020500e+00 -3.8850488157244754e+03 1.0000000000000000e+00 2.7588216028504826e+00 3.8590030336188850e+00 6.0122622040358262e+00 
1345 947 2 1.0280006181022432e+00 -1.9944972926642201e+03 1.0000000000000000e+00 2.7588216305367235e+00 3.8590030177763008e+00 6.0122622608181571e+00 
1784 1386 2 1.0280006181022576e+00 2.2290294574758682e+03 1.0000000000000000e+00 2.7588216325670247e+00 3.8590030166168594e+00 6.0122622649973447e+00 
1696 1298 2 1.0280006180923456e+00 5.8725510067566383e+03 1.0000000000000000e+00 2.7588202110747249e+00 3.8590038298456117e+00 6.0122593484309839e+00 
1628 1230 2 1.0280006180455492e+00 8.0359130422991730e+03 1.0000000000000000e+00 2.7588134993212337e+00 3.8590076698292486e+00 6.0122455775260759e+00 
556 158 2 1.0279994872323022e+00 4.5657119914349387e+03 1.0000000000000000e+00 4.3282993455757408e+00 1.6107473241669463e+00 5.3994706259086032e+00 
1281 883 2 1.0279988698037283e+00 -2.7756426836394321e+03 1.0000000000000000e+00 4.1749487085601462e+00 3.9989706773790223e-01 5.6078941787467436e+00 
1792 1394 2 1.0280007989150783e+00 -3.7770467368100603e+03 1.0000000000000000e+00 4.7278254821969359e+00 2.5950409372424481e+00 6.9027362745685936e+00 
1908 1510 2 1.0280005137263710e+00 -5.1261103525249146e+03 1.0000000000000000e+00 4.7188149435676854e+00 1.6856715107922222e+00 6.6676986090379815e+00 
567 169 2 1.0280005132100802e+00 -1.9119634148331859e+03 1.0000000000000000e+00 4.7201467977210525e+00 1.6849535770852659e+00 6.6680893421986323e+00 
491 93 2 1.0280004029286405e+00 3.0769219474427746e+03 1.0000000000000000e+00 4.8928047940699866e+00 1.4974987044765500e+00 6.6990422661363764e+00 
620 222 2 1.0280003885408937e+00 -1.3283245560594221e+03 1.0000000000000000e+00 7.3711426613835282e+00 2.2706943062435689e+00 5.9833196692803163e+00 
971 573 2 1.0280001409710227e+00 -1.9296534093970070e+03 1.0000000000000000e+00 5.0145086718013410e+00 9.4842177726198817e-01 6.6784994920377718e+00 
1339 941 2 1.0280003885589168e+00 -3.0116572366633027e+03 1.0000000000000000e+00 7.3711435491370354e+00 2.2706887171746892e+00 5.9833291559170201e+00 
885 487 2 1.0280003885457283e+00 8.1927583960522079e+03 1.0000000000000000e+00 7.3711428995923924e+00 2.2706928067004681e+00 5.9833222145677762e+00 
1343 945 2 1.0280003885499120e+00 -2.1446516116383618e+03 1.0000000000000000e+00 7.3711431055943981e+00 2.2706915098067042e+00 5.9833244158662087e+00 
1193 795 2 1.0280003885616475e+00 2.9111634985482812e+02 1.0000000000000000e+00 7.3711436836875173e+00 2.2706878699396280e+00 5.9833305939489989e+00 
1360 962 2 1.0280003885470599e+00 6.8269021295527170e+02 1.0000000000000000e+00 7.3711429650706428e+00 2.2706923944924857e+00 5.9833229142341517e+00 
617 219 2 1.0280003885541600e+00 -1.1935009554584660e+03 1.0000000000000000e+00 7.3711433148720173e+00 2.2706901922049902e+00 5.9833266522955553e+00 
1363 965 2 1.0280003885472280e+00 -6.3256507077516028e+02 1.0000000000000000e+00 7.3711429733808806e+00 2.2706923421742857e+00 5.9833230030378504e+00 
1426 1028 2 1.0280003885451743e+00 5.2065212723758641e+03 1.0000000000000000e+00 7.3711428722310819e+00 2.2706929789459713e+00 5.9833219222044622e+00 
2056 1658 2 1.0280001787868152e+00 -2.8613254433924076e+03 1.0000000000000000e+00 1.1415064232623223e+01 3.3941194572129256e+00 6.6122771492142540e+00 
1658 1260 2 1.0280001788787880e+00 1.3975839918492363e+03 1.0000000000000000e+00 1.1415094988968049e+01 3.3942655920561657e+00 6.6122854275209564e+00 
1097 699 2 1.0280001788945952e+00 1.1111281389210895e+02 1.0000000000000000e+00 1.1415100275760445e+01 3.3942907108607314e+00 6.6122868503749599e+00 
518 120 2 1.0280001791088857e+00 4.6019151781430883e+03 1.0000000000000000e+00 1.1415171975577628e+01 3.3946313530228749e+00 6.6123061435410486e+00 
1507 1109 2 1.0280001788035320e+00 -2.6351425502579068e+03 1.0000000000000000e+00 1.1415069822474623e+01 3.3941460173241986e+00 6.6122786538576541e+00 
696 298 2 1.0280001787612696e+00 6.4917508304113070e+01 1.0000000000000000e+00 1.1415055691966336e+01 3.3940788756186331e+00 6.6122748502145878e+00 
714 316 2 1.0280001787866841e+00 -1.1350442485933731e+03 1.0000000000000000e+00 1.1415064188851552e+01 3.3941192492335364e+00 6.6122771374318603e+00 
1689 1291 2 1.0280001824267999e+00 8.3634363561651862e+03 1.0000000000000000e+00 1.1416288570018141e+01 3.3999320925763401e+00 6.6126057119057347e+00 
1796 1398 2 1.0280005672350117e+00 -2.1756332319234070e+03 1.0000000000000000e+00 1.0727232491553496e+01 1.4509567203130558e-01 5.8415847198776039e+00 
1220 822 2 1.0280005672350121e+00 -7.9453620062705772e+02 1.0000000000000000e+00 1.0727232491552826e+01 1.4509567203107868e-01 5.8415847198770239e+00 
2032 1634 2 1.0280005672350117e+00 -1.6668266093346301e+03 1.0000000000000000e+00 1.0727232491554220e+01 1.4509567203158341e-01 5.8415847198783180e+00 
1474 1076 2 1.0280005672350123e+00 -3.2223330724591851e+03 1.0000000000000000e+00 1.0727232491554039e+01 1.4509567203150825e-01 5.8415847198781234e+00 
512 114 2 1.0280005672350114e+00 1.3627698972972728e+03 1.0000000000000000e+00 1.0727232491554361e+01 1.4509567203163048e-01 5.8415847198784370e+00 
1217 819 2 1.0280005672350121e+00 -8.2421968979524854e+02 1.0000000000000000e+00 1.0727232491552845e+01 1.4509567203108109e-01 5.8415847198770292e+00 
1475 1077 2 1.0280005672350121e+00 -3.2514312508179783e+03 1.0000000000000000e+00 1.0727232491554917e+01 1.4509567203182552e-01 5.8415847198789352e+00 
509 111 2 1.0280005672350117e+00 1.4144291153199899e+03 1.0000000000000000e+00 1.0727232491553867e+01 1.4509567203144563e-01 5.8415847198779627e+00 
768 370 2 1.0280008942608709e+00 1.1411109397234341e+03 1.0000000000000000e+00 1.5698338793756250e+01 2.7568433533042755e+00 6.1958181554761866e+00 
456 58 2 1.0280008942569010e+00 2.9112718392633219e+03 1.0000000000000000e+00 1.5698339839235697e+01 2.7568464464830211e+00 6.1958204814130440e+00 
516 118 2 1.0280008942605592e+00 1.5251932736090323e+03 1.0000000000000000e+00 1.5698338875600042e+01 2.7568435954401158e+00 6.1958183375525948e+00 
521 123 2 1.0280008942589285e+00 8.9601524614571213e+02 1.0000000000000000e+00 1.5698339305149327e+01 2.7568448663265999e+00 6.1958192932050409e+00 
638 240 2 1.0280008942589285e+00 -8.2505818404095990e+03 1.0000000000000000e+00 1.5698339305149327e+01 2.7568448663265999e+00 6.1958192932050409e+00 
793 395 2 1.0280008942582326e+00 8.3988586094343336e+03 1.0000000000000000e+00 1.5698339488251751e+01 2.7568454080367673e+00 6.1958197005481637e+00 
1240 842 2 1.0280008942569008e+00 8.8672503828460685e+03 1.0000000000000000e+00 1.5698339839235341e+01 2.7568464464824634e+00 6.1958204814126105e+00 
1525 1127 2 1.0280008942604497e+00 4.7149250202677604e+03 1.0000000000000000e+00 1.5698338904280023e+01 2.7568436803132634e+00 6.1958184013730806e+00 
1003 605 2 1.0280008942591121e+00 -2.8105987366308736e+03 1.0000000000000000e+00 1.5698339256656075e+01 2.7568447228447135e+00 6.1958191853131037e+00 
1371 973 2 1.0279996059216248e+00 8.4481900651932540e+02 1.0000000000000000e+00 1.3697307554372834e+01 3.5861084252762407e+00 6.9113877079433603e+00 
729 331 2 1.0279987945254139e+00 -3.7904708005298885e+03 1.0000000000000000e+00 1.4017514092682866e+01 1.7710836808722419e+00 5.7009047273332136e+00 
2029 1631 2 1.0279987931495558e+00 -2.0950105686410393e+02 1.0000000000000000e+00 1.4018734171857519e+01 1.7720160711234836e+00 5.7021000256051311e+00 
2065 1667 2 1.0279996218818397e+00 5.5970989060051797e+03 1.0000000000000000e+00 1.3660415021945676e+01 3.6163334219129344e+00 6.9214728960945493e+00 
1668 1270 2 1.0279987934150447e+00 7.6792393701438923e+03 1.0000000000000000e+00 1.4018427394165247e+01 1.7717251466057304e+00 5.7018849381349632e+00 
1189 791 2 1.0279987932904648e+00 1.7042987982682116e+03 1.0000000000000000e+00 1.4018565677337588e+01 1.7718527130894379e+00 5.7019873414310291e+00 
1810 1412 2 1.0279993865775390e+00 -4.8691622559978678e+03 1.0000000000000000e+00 1.9013537190270874e+01 3.9259725692169298e+00 6.2487471295317736e+00 
713 315 2 1.0279993865775396e+00 1.4237765002979006e+03 1.0000000000000000e+00 1.9013537190270938e+01 3.9259725692169134e+00 6.2487471295317532e+00 
1637 1239 2 1.0279993865775392e+00 4.5688594679573453e+03 1.0000000000000000e+00 1.9013537190270970e+01 3.9259725692169178e+00 6.2487471295317434e+00 
550 152 2 1.0279993865775396e+00 5.0687668450902547e+03 1.0000000000000000e+00 1.9013537190270881e+01 3.9259725692169338e+00 6.2487471295317709e+00 
688 290 2 1.0279993865775392e+00 -1.8547557023441864e+03 1.0000000000000000e+00 1.9013537190270970e+01 3.9259725692169178e+00 6.2487471295317434e+00 
1147 749 2 1.0279993865775392e+00 -2.7311837829522378e+03 1.0000000000000000e+00 1.9013537190270931e+01 3.9259725692169165e+00 6.2487471295317558e+00 
1347 949 2 1.0279993865775385e+00 -1.8875363091555998e+03 1.0000000000000000e+00 1.9013537190311986e+01 3.9259725691883340e+00 6.2487471295184536e+00 
1391 993 2 1.0279993865775434e+00 -9.2446124421139231e+01 1.0000000000000000e+00 1.9013537184150081e+01 3.9259725734427269e+00 6.2487471315143681e+00 
1705 1307 2 1.0279993865864550e+00 1.4011255287616675e+03 1.0000000000000000e+00 1.9013526119042027e+01 3.9259802067037124e+00 6.2487507154028741e+00 
692 294 2 1.0279993864877197e+00 -2.6511373516924823e+03 1.0000000000000000e+00 1.9013648857057973e+01 3.9258941316007898e+00 6.2487109116835358e+00 
478 80 2 1.0279993863260657e+00 3.5353688816989836e+02 1.0000000000000000e+00 1.9013850221072651e+01 3.9257489693854857e+00 6.2486454713091533e+00 
940 542 2 1.0280069637608962e+00 1.0631756204924880e+01 1.0000000000000000e+00 1.9888641106747706e+01 2.5928682510835936e+00 5.3351345217770669e+00 
937 539 2 1.0279978561761998e+00 -2.4898342538475072e+02 1.0000000000000000e+00 1.9517995547032857e+01 3.3128361959350512e+00 6.1207712412166666e+00 
1255 857 2 1.0279996713102961e+00 4.1274196277583287e+03 1.0000000000000000e+00 2.7525382186284491e+00 7.8540940292912778e+00 5.8972882858420084e+00 
751 353 2 1.0279996713339175e+00 1.6167631952141496e+03 1.0000000000000000e+00 2.7526169907145221e+00 7.8541494602234749e+00 5.8973146656216437e+00 
1754 1356 2 1.0279996713131299e+00 -5.2596039692690829e+03 1.0000000000000000e+00 2.7525476751458071e+00 7.8541006833543152e+00 5.8972914524354971e+00 
883 485 2 1.0279996716173894e+00 -4.2583455410796305e+03 1.0000000000000000e+00 2.7535532969159142e+00 7.8548088632177686e+00 5.8976286146927670e+00 
637 239 2 1.0279996715136386e+00 -1.0605437642731215e+03 1.0000000000000000e+00 2.7532125353952304e+00 7.8545687641294553e+00 5.8975142727360916e+00 
1831 1433 2 1.0279996714324298e+00 -7.7370094271469225e+03 1.0000000000000000e+00 2.7529442586115773e+00 7.8543798295385763e+00 5.8974243189813640e+00 
503 105 2 1.0279996714298012e+00 1.3777313600655382e+03 1.0000000000000000e+00 2.7529355536771392e+00 7.8543737004257572e+00 5.8974214011761150e+00 
894 496 2 1.0279996714309947e+00 -3.3224860876203024e+03 1.0000000000000000e+00 2.7529395044948348e+00 7.8543764821715776e+00 5.8974227254419240e+00 
1272 874 2 1.0279996714297774e+00 -5.6769978035412059e+01 1.0000000000000000e+00 2.7529354733612816e+00 7.8543736438760723e+00 5.8974213742560622e+00 
992 594 2 1.0279993660747679e+00 4.6460998772418416e+03 1.0000000000000000e+00 3.4401520865076263e+00 6.6350239415724213e+00 7.1848943177419997e+00 
1341 943 2 1.0279993660747722e+00 -7.5167639050625348e+02 1.0000000000000000e+00 3.4401520823492042e+00 6.6350239370874995e+00 7.1848943178031774e+00 
460 62 2 1.0279993660747768e+00 5.6594233099824066e+02 1.0000000000000000e+00 3.4401520550576792e+00 6.6350239076551576e+00 7.1848943182041385e+00 
1457 1059 2 1.0279993660747757e+00 5.6851259495881859e+03 1.0000000000000000e+00 3.4401520676275026e+00 6.6350239212116966e+00 7.1848943180192402e+00 
921 523 2 1.0279993660747764e+00 2.5343437858114048e+03 1.0000000000000000e+00 3.4401520635959861e+00 6.6350239168633500e+00 7.1848943180786584e+00 
461 63 2 1.0279993618942513e+00 -1.6004278009798127e+03 1.0000000000000000e+00 3.4594652953887266e+00 6.6558245949798991e+00 7.1845839175160959e+00 
814 416 2 1.0279996646379082e+00 6.0420651554729807e+02 1.0000000000000000e+00 5.5916320869377598e+00 4.6641671381959631e+00 7.2659007550212742e+00 
537 139 2 1.0279996646379075e+00 -1.6018992361150388e+03 1.0000000000000000e+00 5.5916320919062725e+00 4.6641671470572525e+00 7.2659007543382339e+00 
2074 1676 2 1.0279996646379088e+00 -8.1240204561990076e+03 1.0000000000000000e+00 5.5916320764935463e+00 4.6641671195642980e+00 7.2659007564566123e+00 
562 164 2 1.0279996646379053e+00 -8.0741182135153658e+03 1.0000000000000000e+00 5.5916320995726814e+00 4.6641671607285247e+00 7.2659007532841162e+00 
405 7 2 1.0279996646379022e+00 -8.6066972758778502e+02 1.0000000000000000e+00 5.5916320925331977e+00 4.6641671481763707e+00 7.2659007542521730e+00 
1206 808 2 1.0279996646372167e+00 3.5224549147617390e+03 1.0000000000000000e+00 5.5916338612209238e+00 4.6641703096971741e+00 7.2659005118572626e+00 
812 414 2 1.0280010343992236e+00 4.5005850255542300e+03 1.0000000000000000e+00 6.7043659684488395e+00 5.9808898589475872e+00 5.4641192989999832e+00 
1807 1409 2 1.0280010318760129e+00 -6.1183729456312949e+03 1.0000000000000000e+00 6.7013445946361561e+00 5.9807358287345282e+00 5.4620932850520125e+00 
1355 957 2 1.0280010318759987e+00 7.8895005563059385e+02 1.0000000000000000e+00 6.7013445937274501e+00 5.9807358286875045e+00 5.4620932844436645e+00 
1334 936 2 1.0280010318760084e+00 -1.8621612748134235e+03 1.0000000000000000e+00 6.7013445927790229e+00 5.9807358286385828e+00 5.4620932838089296e+00 
1235 837 2 1.0280010318760038e+00 -1.9454275489510082e+03 1.0000000000000000e+00 6.7013445937957208e+00 5.9807358286911718e+00 5.4620932844893764e+00 
1287 889 2 1.0279996355889740e+00 7.7060718572164859e+01 1.0000000000000000e+00 7.1269776349596006e+00 6.0474910475616115e+00 6.2405153147731962e+00 
671 273 2 1.0279999526534860e+00 -7.1198651079392912e+03 1.0000000000000000e+00 7.3872593487869640e+00 7.6612703124243984e+00 6.7618867233893774e+00 
876 478 2 1.0279999550965835e+00 2.3322468302537973e+03 1.0000000000000000e+00 7.3828281713452828e+00 7.6656627397597310e+00 6.7645729772419720e+00 