LAMMPS data file via write_data, version 30 Jul 2016, timestep = 600000

2080 atoms
8 atom types

0.0000000000000000e+00 4.0000000000000000e+01 xlo xhi
0.0000000000000000e+00 4.0000000000000000e+01 ylo yhi
0.0000000000000000e+00 1.0000000000000000e+02 zlo zhi

Masses

1 3.896
2 8.612
3 20.064
4 8.378
5 8.378
6 8.378
7 8.378
8 8.378

Atoms # meso-molecular

1 2 4 2.2559723595316457e+00 1.9908870407092612e-02 1.0000000000000000e+00 0.0000000000000000e+00 0.0000000000000000e+00 2.5000000000000000e+00 
2 2 4 2.2559723611417390e+00 2.6422803866947696e-02 1.0000000000000000e+00 0.0000000000000000e+00 2.0000000000000000e+00 2.5000000000000000e+00 
21 2 4 2.2559723595316457e+00 1.6113539332357612e-04 1.0000000000000000e+00 2.0000000000000000e+00 0.0000000000000000e+00 2.5000000000000000e+00 
22 2 4 2.2559723595316457e+00 1.1246464790726951e-06 1.0000000000000000e+00 2.0000000000000000e+00 2.0000000000000000e+00 2.5000000000000000e+00 
41 2 4 2.2559723595316457e+00 3.5003365718099468e-07 1.0000000000000000e+00 4.0000000000000000e+00 0.0000000000000000e+00 2.5000000000000000e+00 
42 2 4 2.2559723602344537e+00 1.4854002512192313e-02 1.0000000000000000e+00 4.0000000000000000e+00 2.0000000000000000e+00 2.5000000000000000e+00 
61 2 4 2.2559723595316457e+00 1.2040485785835020e-06 1.0000000000000000e+00 6.0000000000000000e+00 0.0000000000000000e+00 2.5000000000000000e+00 
62 2 4 2.2559723595316457e+00 2.9999140697307925e-05 1.0000000000000000e+00 6.0000000000000000e+00 2.0000000000000000e+00 2.5000000000000000e+00 
81 2 4 2.2559723595875734e+00 2.0107654370838993e-03 1.0000000000000000e+00 8.0000000000000000e+00 0.0000000000000000e+00 2.5000000000000000e+00 
82 2 4 2.2559723595316457e+00 5.1993629810605231e-06 1.0000000000000000e+00 8.0000000000000000e+00 2.0000000000000000e+00 2.5000000000000000e+00 
101 2 4 2.2559723595316457e+00 5.7416182951048216e-07 1.0000000000000000e+00 1.0000000000000000e+01 0.0000000000000000e+00 2.5000000000000000e+00 
102 2 4 2.2559723595321892e+00 6.5726417232244238e-05 1.0000000000000000e+00 1.0000000000000000e+01 2.0000000000000000e+00 2.5000000000000000e+00 
121 2 4 2.2559723595316457e+00 0.0000000000000000e+00 1.0000000000000000e+00 1.2000000000000000e+01 0.0000000000000000e+00 2.5000000000000000e+00 
122 2 4 2.2559723595316457e+00 0.0000000000000000e+00 1.0000000000000000e+00 1.2000000000000000e+01 2.0000000000000000e+00 2.5000000000000000e+00 
141 2 4 2.2559723595316457e+00 0.0000000000000000e+00 1.0000000000000000e+00 1.4000000000000000e+01 0.0000000000000000e+00 2.5000000000000000e+00 
142 2 4 2.2559723595316457e+00 0.0000000000000000e+00 1.0000000000000000e+00 1.4000000000000000e+01 2.0000000000000000e+00 2.5000000000000000e+00 
161 2 4 2.2559723595316457e+00 0.0000000000000000e+00 1.0000000000000000e+00 1.6000000000000000e+01 0.0000000000000000e+00 2.5000000000000000e+00 
162 2 4 2.2559723595316457e+00 0.0000000000000000e+00 1.0000000000000000e+00 1.6000000000000000e+01 2.0000000000000000e+00 2.5000000000000000e+00 
181 2 4 2.2559723595316457e+00 0.0000000000000000e+00 1.0000000000000000e+00 1.8000000000000000e+01 0.0000000000000000e+00 2.5000000000000000e+00 
182 2 4 2.2559723595316457e+00 0.0000000000000000e+00 1.0000000000000000e+00 1.8000000000000000e+01 2.0000000000000000e+00 2.5000000000000000e+00 
3 2 4 2.2559723595316457e+00 7.0075763850294755e-04 1.0000000000000000e+00 0.0000000000000000e+00 4.0000000000000000e+00 2.5000000000000000e+00 
4 2 4 2.2559723595316457e+00 -2.1170197693658188e-01 1.0000000000000000e+00 0.0000000000000000e+00 6.0000000000000000e+00 2.5000000000000000e+00 
23 2 4 2.2559723595316457e+00 6.8187857203906801e-06 1.0000000000000000e+00 2.0000000000000000e+00 4.0000000000000000e+00 2.5000000000000000e+00 
24 2 4 2.2559723595316457e+00 0.0000000000000000e+00 1.0000000000000000e+00 2.0000000000000000e+00 6.0000000000000000e+00 2.5000000000000000e+00 
43 2 4 2.2559723595316457e+00 2.4675975044562512e-05 1.0000000000000000e+00 4.0000000000000000e+00 4.0000000000000000e+00 2.5000000000000000e+00 
44 2 4 2.2559723595316457e+00 1.5655992802770717e-05 1.0000000000000000e+00 4.0000000000000000e+00 6.0000000000000000e+00 2.5000000000000000e+00 
63 2 4 2.2559723595316457e+00 -1.8763702705385520e-08 1.0000000000000000e+00 6.0000000000000000e+00 4.0000000000000000e+00 2.5000000000000000e+00 
64 2 4 2.2559723595916279e+00 1.6689575347242987e-03 1.0000000000000000e+00 6.0000000000000000e+00 6.0000000000000000e+00 2.5000000000000000e+00 
83 2 4 2.2559723595316457e+00 2.2967364999133207e-07 1.0000000000000000e+00 8.0000000000000000e+00 4.0000000000000000e+00 2.5000000000000000e+00 
84 2 4 2.2559723595366803e+00 3.2353317170036837e-04 1.0000000000000000e+00 8.0000000000000000e+00 6.0000000000000000e+00 2.5000000000000000e+00 
103 2 4 2.2559723595393568e+00 3.5932683564521858e-04 1.0000000000000000e+00 1.0000000000000000e+01 4.0000000000000000e+00 2.5000000000000000e+00 
104 2 4 2.2559723595316457e+00 0.0000000000000000e+00 1.0000000000000000e+00 1.0000000000000000e+01 6.0000000000000000e+00 2.5000000000000000e+00 
123 2 4 2.2559723595316457e+00 0.0000000000000000e+00 1.0000000000000000e+00 1.2000000000000000e+01 4.0000000000000000e+00 2.5000000000000000e+00 
124 2 4 2.2559723595316457e+00 0.0000000000000000e+00 1.0000000000000000e+00 1.2000000000000000e+01 6.0000000000000000e+00 2.5000000000000000e+00 
143 2 4 2.2559723595316457e+00 0.0000000000000000e+00 1.0000000000000000e+00 1.4000000000000000e+01 4.0000000000000000e+00 2.5000000000000000e+00 
144 2 4 2.2559723595316457e+00 0.0000000000000000e+00 1.0000000000000000e+00 1.4000000000000000e+01 6.0000000000000000e+00 2.5000000000000000e+00 
163 2 4 2.2559723595316457e+00 0.0000000000000000e+00 1.0000000000000000e+00 1.6000000000000000e+01 4.0000000000000000e+00 2.5000000000000000e+00 
164 2 4 2.2559723595316457e+00 0.0000000000000000e+00 1.0000000000000000e+00 1.6000000000000000e+01 6.0000000000000000e+00 2.5000000000000000e+00 
183 2 4 2.2559723595316457e+00 0.0000000000000000e+00 1.0000000000000000e+00 1.8000000000000000e+01 4.0000000000000000e+00 2.5000000000000000e+00 
184 2 4 2.2559723595316457e+00 0.0000000000000000e+00 1.0000000000000000e+00 1.8000000000000000e+01 6.0000000000000000e+00 2.5000000000000000e+00 
5 2 4 2.2559723606568185e+00 2.1818520068259056e-02 1.0000000000000000e+00 0.0000000000000000e+00 8.0000000000000000e+00 2.5000000000000000e+00 
6 2 4 2.2559723595316457e+00 3.6518396354615751e-04 1.0000000000000000e+00 0.0000000000000000e+00 1.0000000000000000e+01 2.5000000000000000e+00 
25 2 4 2.2559723595316457e+00 2.0681104863009979e-05 1.0000000000000000e+00 2.0000000000000000e+00 8.0000000000000000e+00 2.5000000000000000e+00 
26 2 4 2.2559723595316457e+00 3.2846755366523045e-07 1.0000000000000000e+00 2.0000000000000000e+00 1.0000000000000000e+01 2.5000000000000000e+00 
45 2 4 2.2559723595316457e+00 1.8571627477995697e-06 1.0000000000000000e+00 4.0000000000000000e+00 8.0000000000000000e+00 2.5000000000000000e+00 
46 2 4 2.2559723595319676e+00 3.3154788000380532e-05 1.0000000000000000e+00 4.0000000000000000e+00 1.0000000000000000e+01 2.5000000000000000e+00 
65 2 4 2.2559723595499546e+00 6.8307209720315618e-04 1.0000000000000000e+00 6.0000000000000000e+00 8.0000000000000000e+00 2.5000000000000000e+00 
66 2 4 2.2559723595408583e+00 5.1483236063831848e-04 1.0000000000000000e+00 6.0000000000000000e+00 1.0000000000000000e+01 2.5000000000000000e+00 
85 2 4 2.2559723595359396e+00 2.3047547318272787e-04 1.0000000000000000e+00 8.0000000000000000e+00 8.0000000000000000e+00 2.5000000000000000e+00 
86 2 4 2.2559723595316457e+00 0.0000000000000000e+00 1.0000000000000000e+00 8.0000000000000000e+00 1.0000000000000000e+01 2.5000000000000000e+00 
105 2 4 2.2559723595316457e+00 0.0000000000000000e+00 1.0000000000000000e+00 1.0000000000000000e+01 8.0000000000000000e+00 2.5000000000000000e+00 
106 2 4 2.2559723595316457e+00 0.0000000000000000e+00 1.0000000000000000e+00 1.0000000000000000e+01 1.0000000000000000e+01 2.5000000000000000e+00 
125 2 4 2.2559723595316457e+00 0.0000000000000000e+00 1.0000000000000000e+00 1.2000000000000000e+01 8.0000000000000000e+00 2.5000000000000000e+00 
126 2 4 2.2559723595316457e+00 0.0000000000000000e+00 1.0000000000000000e+00 1.2000000000000000e+01 1.0000000000000000e+01 2.5000000000000000e+00 
145 2 4 2.2559723595316457e+00 -1.1954715176228711e+02 1.0000000000000000e+00 1.4000000000000000e+01 8.0000000000000000e+00 2.5000000000000000e+00 
146 2 4 2.2559723595316457e+00 -5.6919220585344681e+02 1.0000000000000000e+00 1.4000000000000000e+01 1.0000000000000000e+01 2.5000000000000000e+00 
165 2 4 2.2559723595316457e+00 -5.6930591565792975e+02 1.0000000000000000e+00 1.6000000000000000e+01 8.0000000000000000e+00 2.5000000000000000e+00 
166 2 4 2.2559723595316457e+00 -2.2033227203941606e+03 1.0000000000000000e+00 1.6000000000000000e+01 1.0000000000000000e+01 2.5000000000000000e+00 
185 2 4 2.2559723595316457e+00 -7.1166823732076330e+02 1.0000000000000000e+00 1.8000000000000000e+01 8.0000000000000000e+00 2.5000000000000000e+00 
186 2 4 2.2559723595316457e+00 -2.8500112468885668e+03 1.0000000000000000e+00 1.8000000000000000e+01 1.0000000000000000e+01 2.5000000000000000e+00 
7 2 4 2.2559723595316457e+00 0.0000000000000000e+00 1.0000000000000000e+00 0.0000000000000000e+00 1.2000000000000000e+01 2.5000000000000000e+00 
8 2 4 2.2559723595316457e+00 0.0000000000000000e+00 1.0000000000000000e+00 0.0000000000000000e+00 1.4000000000000000e+01 2.5000000000000000e+00 
27 2 4 2.2559723597268224e+00 4.7805388296787597e-03 1.0000000000000000e+00 2.0000000000000000e+00 1.2000000000000000e+01 2.5000000000000000e+00 
28 2 4 2.2559723595316457e+00 1.0108934349506504e-05 1.0000000000000000e+00 2.0000000000000000e+00 1.4000000000000000e+01 2.5000000000000000e+00 
47 2 4 2.2559723595316457e+00 1.2727007812661469e-06 1.0000000000000000e+00 4.0000000000000000e+00 1.2000000000000000e+01 2.5000000000000000e+00 
48 2 4 2.2559723595446024e+00 5.4253173528178312e-04 1.0000000000000000e+00 4.0000000000000000e+00 1.4000000000000000e+01 2.5000000000000000e+00 
67 2 4 2.2559723595647383e+00 1.4067424447827713e-03 1.0000000000000000e+00 6.0000000000000000e+00 1.2000000000000000e+01 2.5000000000000000e+00 
68 2 4 2.2559723595316457e+00 0.0000000000000000e+00 1.0000000000000000e+00 6.0000000000000000e+00 1.4000000000000000e+01 2.5000000000000000e+00 
87 2 4 2.2559723595316457e+00 0.0000000000000000e+00 1.0000000000000000e+00 8.0000000000000000e+00 1.2000000000000000e+01 2.5000000000000000e+00 
88 2 4 2.2559723595316457e+00 0.0000000000000000e+00 1.0000000000000000e+00 8.0000000000000000e+00 1.4000000000000000e+01 2.5000000000000000e+00 
107 2 4 2.2559723595316457e+00 0.0000000000000000e+00 1.0000000000000000e+00 1.0000000000000000e+01 1.2000000000000000e+01 2.5000000000000000e+00 
108 2 4 2.2559723595316457e+00 0.0000000000000000e+00 1.0000000000000000e+00 1.0000000000000000e+01 1.4000000000000000e+01 2.5000000000000000e+00 
127 2 4 2.2559723595316457e+00 0.0000000000000000e+00 1.0000000000000000e+00 1.2000000000000000e+01 1.2000000000000000e+01 2.5000000000000000e+00 
128 2 4 2.2559723595316457e+00 0.0000000000000000e+00 1.0000000000000000e+00 1.2000000000000000e+01 1.4000000000000000e+01 2.5000000000000000e+00 
147 2 4 2.2559723595316457e+00 -7.1143731729473166e+02 1.0000000000000000e+00 1.4000000000000000e+01 1.2000000000000000e+01 2.5000000000000000e+00 
148 2 4 2.2559723595316457e+00 -7.1849616246543110e+02 1.0000000000000000e+00 1.4000000000000000e+01 1.4000000000000000e+01 2.5000000000000000e+00 
167 2 4 2.2559723595316457e+00 -2.8481860860813481e+03 1.0000000000000000e+00 1.6000000000000000e+01 1.2000000000000000e+01 2.5000000000000000e+00 
168 2 4 2.2559723595316457e+00 -2.8772837325131700e+03 1.0000000000000000e+00 1.6000000000000000e+01 1.4000000000000000e+01 2.5000000000000000e+00 
187 2 4 2.2559723595316457e+00 -3.6466510469142795e+03 1.0000000000000000e+00 1.8000000000000000e+01 1.2000000000000000e+01 2.5000000000000000e+00 
188 2 4 2.2559723595316457e+00 -3.6726472510322074e+03 1.0000000000000000e+00 1.8000000000000000e+01 1.4000000000000000e+01 2.5000000000000000e+00 
9 2 4 2.2559723595316457e+00 0.0000000000000000e+00 1.0000000000000000e+00 0.0000000000000000e+00 1.6000000000000000e+01 2.5000000000000000e+00 
10 2 4 2.2559723595316483e+00 4.4966652255648795e-06 1.0000000000000000e+00 0.0000000000000000e+00 1.8000000000000000e+01 2.5000000000000000e+00 
29 2 4 2.2559723596502637e+00 3.2302031947296517e-03 1.0000000000000000e+00 2.0000000000000000e+00 1.6000000000000000e+01 2.5000000000000000e+00 
30 2 4 2.2559723597440819e+00 5.2609637263594470e-03 1.0000000000000000e+00 2.0000000000000000e+00 1.8000000000000000e+01 2.5000000000000000e+00 
49 2 4 2.2559723595316457e+00 0.0000000000000000e+00 1.0000000000000000e+00 4.0000000000000000e+00 1.6000000000000000e+01 2.5000000000000000e+00 
50 2 4 2.2559723595316457e+00 0.0000000000000000e+00 1.0000000000000000e+00 4.0000000000000000e+00 1.8000000000000000e+01 2.5000000000000000e+00 
69 2 4 2.2559723595316457e+00 0.0000000000000000e+00 1.0000000000000000e+00 6.0000000000000000e+00 1.6000000000000000e+01 2.5000000000000000e+00 
70 2 4 2.2559723595316457e+00 0.0000000000000000e+00 1.0000000000000000e+00 6.0000000000000000e+00 1.8000000000000000e+01 2.5000000000000000e+00 
89 2 4 2.2559723595316457e+00 0.0000000000000000e+00 1.0000000000000000e+00 8.0000000000000000e+00 1.6000000000000000e+01 2.5000000000000000e+00 
90 2 4 2.2559723595316457e+00 0.0000000000000000e+00 1.0000000000000000e+00 8.0000000000000000e+00 1.8000000000000000e+01 2.5000000000000000e+00 
109 2 4 2.2559723595316457e+00 0.0000000000000000e+00 1.0000000000000000e+00 1.0000000000000000e+01 1.6000000000000000e+01 2.5000000000000000e+00 
110 2 4 2.2559723595316457e+00 0.0000000000000000e+00 1.0000000000000000e+00 1.0000000000000000e+01 1.8000000000000000e+01 2.5000000000000000e+00 
129 2 4 2.2559723595316457e+00 0.0000000000000000e+00 1.0000000000000000e+00 1.2000000000000000e+01 1.6000000000000000e+01 2.5000000000000000e+00 
130 2 4 2.2559723595316457e+00 0.0000000000000000e+00 1.0000000000000000e+00 1.2000000000000000e+01 1.8000000000000000e+01 2.5000000000000000e+00 
149 2 4 2.2559723595316457e+00 -7.1851448694139219e+02 1.0000000000000000e+00 1.4000000000000000e+01 1.6000000000000000e+01 2.5000000000000000e+00 
150 2 4 2.2559723595316457e+00 -7.1857212788538027e+02 1.0000000000000000e+00 1.4000000000000000e+01 1.8000000000000000e+01 2.5000000000000000e+00 
169 2 4 2.2559723595316457e+00 -2.8787090595595910e+03 1.0000000000000000e+00 1.6000000000000000e+01 1.6000000000000000e+01 2.5000000000000000e+00 
170 2 4 2.2559723595316457e+00 -2.8783711020428564e+03 1.0000000000000000e+00 1.6000000000000000e+01 1.8000000000000000e+01 2.5000000000000000e+00 
189 2 4 2.2559723595316457e+00 -3.6725926291056667e+03 1.0000000000000000e+00 1.8000000000000000e+01 1.6000000000000000e+01 2.5000000000000000e+00 
190 2 4 2.2559723595316457e+00 -3.6723300931316971e+03 1.0000000000000000e+00 1.8000000000000000e+01 1.8000000000000000e+01 2.5000000000000000e+00 
736 338 2 1.0279999462551910e+00 -3.7656012819276498e+01 1.0000000000000000e+00 1.7604678045997346e+01 1.5621416145465194e+01 6.5590237530647940e+01 
1734 1336 2 1.0279998503032135e+00 -1.7877873651919222e+03 1.0000000000000000e+00 1.6464579057108093e+01 1.5618298929805150e+01 6.5832732849322625e+01 
1921 1523 2 1.0280003412749432e+00 4.6680448116809185e+02 1.0000000000000000e+00 1.7167891868442386e+01 1.5533719315344735e+01 6.5925042237136424e+01 
592 194 2 1.0280000203400215e+00 1.1987710219637122e+03 1.0000000000000000e+00 1.5455769028345047e+01 1.7083513994417995e+01 6.4979841670129346e+01 
1314 916 2 1.0280022170591339e+00 -3.2072749091158215e+02 1.0000000000000000e+00 1.5662614496304260e+01 1.9404737166908749e+01 6.5011257149539617e+01 
1146 748 2 1.0280022214535287e+00 -3.2072586200360479e+02 1.0000000000000000e+00 1.5662331949771191e+01 1.8594470228831611e+01 6.5011441283241851e+01 
747 349 2 1.0279998262228218e+00 -5.6716669707622418e+02 1.0000000000000000e+00 1.5242926399238726e+01 1.7058155817871953e+01 6.5137706205298770e+01 
1575 1177 2 1.0280023398973801e+00 -6.9737895492591247e+02 1.0000000000000000e+00 1.5541366208183112e+01 1.8702038537058741e+01 6.5124668190007768e+01 
1071 673 2 1.0280023381296335e+00 -6.9737238897850875e+02 1.0000000000000000e+00 1.5542113136038928e+01 1.9296005592987786e+01 6.5124192683124264e+01 
714 316 2 1.0279990491718130e+00 -1.5479453190038471e+03 1.0000000000000000e+00 1.5426793533595459e+01 1.6179436672845846e+01 6.5441390909785596e+01 
434 36 2 1.0279985953007962e+00 -1.9914418060926866e+03 1.0000000000000000e+00 1.5210214129513814e+01 1.6082454690962159e+01 6.5743210028107100e+01 
1933 1535 2 1.0279980632362393e+00 6.9578085746806482e+02 1.0000000000000000e+00 1.8933960050380360e+01 1.6290162379325054e+01 6.4930745773286532e+01 
938 540 2 1.0279981365983928e+00 1.2801751651638681e+03 1.0000000000000000e+00 1.9227328105195678e+01 1.7198364298905773e+01 6.4792580912731012e+01 
1588 1190 2 1.0279996669659357e+00 8.4038659390924988e+02 1.0000000000000000e+00 1.6234869825754984e+01 1.6529245627255218e+01 6.4777196864208591e+01 
1284 886 2 1.0279984481303246e+00 2.4660317009727323e+03 1.0000000000000000e+00 1.8531274904843517e+01 1.7271724137477353e+01 6.4776162153276317e+01 
1936 1538 2 1.0279980632782606e+00 6.9578083273053096e+02 1.0000000000000000e+00 1.9065602469178451e+01 1.6290183110712395e+01 6.4930753407557987e+01 
939 541 2 1.0279981375641720e+00 1.2801751676320721e+03 1.0000000000000000e+00 1.8772475233398076e+01 1.7198364328751168e+01 6.4792487694385315e+01 
1281 883 2 1.0279984463189549e+00 2.4660286183492167e+03 1.0000000000000000e+00 1.9468485120152600e+01 1.7271849651791989e+01 6.4776387805284301e+01 
1970 1572 2 1.0280015556980435e+00 1.4074514596888591e+03 1.0000000000000000e+00 1.1410653501874188e+01 1.3125050541636048e+01 7.0609758479080654e+01 
479 81 2 1.0280020504500935e+00 2.2161582363533294e+03 1.0000000000000000e+00 1.1700350781730680e+01 1.3295339173289694e+01 7.0420362458061732e+01 
623 225 2 1.0280028022396759e+00 -1.7401448520028052e+03 1.0000000000000000e+00 1.0591696464539954e+01 1.3797528044916623e+01 7.0303702777658842e+01 
433 35 2 1.0279984220442391e+00 -2.3561091772695659e+03 1.0000000000000000e+00 9.0130349380726287e+00 1.5641263415401786e+01 6.8364187849583431e+01 
576 178 2 1.0279982161816132e+00 -1.9101381808067916e+02 1.0000000000000000e+00 9.4594648001407613e+00 1.5649050870812315e+01 6.8229750864849080e+01 
449 51 2 1.0279977613604891e+00 -8.9126279861272656e+02 1.0000000000000000e+00 1.0308010566089871e+01 1.5704411003480248e+01 6.8048295995146617e+01 
422 24 2 1.0279977380032488e+00 1.1944511074456486e+03 1.0000000000000000e+00 1.0360914111902524e+01 1.5709094046078494e+01 6.8038352106445316e+01 
605 207 2 1.0279976706543670e+00 1.9362156234797881e+03 1.0000000000000000e+00 1.0384033916010516e+01 1.5759606898226455e+01 6.8013645321081995e+01 
773 375 2 1.0280023825881877e+00 -4.2118067982902204e+02 1.0000000000000000e+00 1.3678438623423274e+01 1.3368726366972302e+01 7.0828592556456300e+01 
853 455 2 1.0280030874916355e+00 1.7245827756498138e+03 1.0000000000000000e+00 1.3304182952961357e+01 1.3472072855939203e+01 7.0493893799695954e+01 
1227 829 2 1.0279993551866939e+00 1.1212152301497940e+03 1.0000000000000000e+00 1.2016900122804227e+01 1.5001236535437645e+01 6.8484714079642629e+01 
696 298 2 1.0279952817514209e+00 1.3374542277875739e+03 1.0000000000000000e+00 1.3916608208096969e+01 1.5835197229819416e+01 6.8054183642659908e+01 
727 329 2 1.0279953635590686e+00 -2.4916628509525740e+03 1.0000000000000000e+00 1.4482048785397787e+01 1.5934480156285723e+01 6.6936367101107038e+01 
545 147 2 1.0279961216780722e+00 -2.8183581649417675e+02 1.0000000000000000e+00 1.4594076126654549e+01 1.5958396486973847e+01 6.6698906170067943e+01 
1209 811 2 1.0280002643318473e+00 2.7552193309785566e+03 1.0000000000000000e+00 1.8487168130936997e+01 1.5618672687087722e+01 7.0194176306999509e+01 
1212 814 2 1.0280002646408513e+00 2.7552185333145294e+03 1.0000000000000000e+00 1.9514091911479102e+01 1.5618535597463355e+01 7.0194169441065185e+01 
1043 645 2 1.0280015117057673e+00 -4.4213739650788330e+02 1.0000000000000000e+00 1.6750041824618602e+01 1.4376284238822914e+01 6.9709299565246027e+01 
521 123 2 1.0280016704239126e+00 3.2412069175682853e+02 1.0000000000000000e+00 1.8128927396687256e+01 1.5065261886757224e+01 6.8730808462218036e+01 
524 126 2 1.0280016867472781e+00 3.2411986318682659e+02 1.0000000000000000e+00 1.9872027613869463e+01 1.5065346326839718e+01 6.8730290115379461e+01 
1552 1154 2 1.0280010589266091e+00 3.0019557115476937e+03 1.0000000000000000e+00 1.8081282100480610e+01 1.4780626660278198e+01 6.8700501628392388e+01 
1549 1151 2 1.0280010731478502e+00 3.0019561534839422e+03 1.0000000000000000e+00 1.9919287539621823e+01 1.4780280098250302e+01 6.8699909375883280e+01 
1053 655 2 1.0280016865329753e+00 2.5827487181091319e+03 1.0000000000000000e+00 1.8941286137745259e+01 1.4991346317260490e+01 6.8488365736498565e+01 
1056 658 2 1.0280016879362075e+00 2.5827487346531288e+03 1.0000000000000000e+00 1.9059177321160487e+01 1.4991323943651189e+01 6.8488305004948430e+01 
1838 1440 2 1.0280000757806538e+00 -2.2448822316994138e+03 1.0000000000000000e+00 6.8370325528928788e+00 1.7725423085141770e+01 6.9741395749853467e+01 
1433 1035 2 1.0279991636109416e+00 1.6938069440798281e+03 1.0000000000000000e+00 7.2548542576293542e+00 1.6670078138791052e+01 6.9429272148948527e+01 
1310 912 2 1.0279992165665193e+00 -1.0584311819312434e+03 1.0000000000000000e+00 6.5984961109448799e+00 1.8452403864617057e+01 6.9412868166168835e+01 
1142 744 2 1.0279991620948088e+00 -1.0584309053957045e+03 1.0000000000000000e+00 6.5987663914976196e+00 1.9546161727638520e+01 6.9412846269802145e+01 
1450 1052 2 1.0279999209439483e+00 5.1934407631767363e+02 1.0000000000000000e+00 6.7868394311659550e+00 1.8535629280141201e+01 6.9187236802955269e+01 
946 548 2 1.0279998701695248e+00 5.1934387752975476e+02 1.0000000000000000e+00 6.7872116584995368e+00 1.9462980246247007e+01 6.9187208033443738e+01 
893 495 2 1.0279988373996187e+00 -2.0223773641122523e+03 1.0000000000000000e+00 7.6669643939852010e+00 1.6168015934751423e+01 6.9005101606874248e+01 
1641 1243 2 1.0279988749098468e+00 5.3680248401212361e+02 1.0000000000000000e+00 7.8807887974003146e+00 1.6174791372225961e+01 6.8758216150121257e+01 
861 463 2 1.0279990038070870e+00 1.3172047498842715e+03 1.0000000000000000e+00 7.7955669530749008e+00 1.6396179289314141e+01 6.8739101618620808e+01 
1815 1417 2 1.0280049494505541e+00 -1.8569337839034793e+03 1.0000000000000000e+00 8.4664726962682035e+00 1.9231628082514010e+01 6.8968900057534270e+01 
639 241 2 1.0280050651199100e+00 -1.8569418948354742e+03 1.0000000000000000e+00 8.4672134326188058e+00 1.8767611785036419e+01 6.8967789615017438e+01 
566 168 2 1.0280008585546219e+00 -3.6565621006624451e+03 1.0000000000000000e+00 1.1630579860274752e+01 1.7269015269363063e+01 6.8630685628829255e+01 
1576 1178 2 1.0280004688978790e+00 1.2344594582114682e+03 1.0000000000000000e+00 1.1926249389819787e+01 1.7352943518834795e+01 6.8494148758451260e+01 
1901 1503 2 1.0279991364934304e+00 -1.1697904294458706e+03 1.0000000000000000e+00 1.1752421574991113e+01 1.7356089709296498e+01 6.8396579090102492e+01 
614 216 2 1.0279986253489066e+00 -2.4527289825620805e+03 1.0000000000000000e+00 8.6457300845407836e+00 1.6019058243966263e+01 6.8325517121341377e+01 
2075 1677 2 1.0280015996204672e+00 -1.5944198473409122e+03 1.0000000000000000e+00 1.2446555884861999e+01 1.7188881625097160e+01 6.8661229954677893e+01 
1381 983 2 1.0280019861421696e+00 2.3349324599481379e+03 1.0000000000000000e+00 1.3420392869332753e+01 1.6530460772513106e+01 6.8618642812467328e+01 
1730 1332 2 1.0280014553174421e+00 -2.8013305123487407e+03 1.0000000000000000e+00 1.3684057837706323e+01 1.6460672095793434e+01 6.8451548813465578e+01 
1565 1167 2 1.0280003143838992e+00 1.1339714804706168e+03 1.0000000000000000e+00 1.3734792043290573e+01 1.6768319233383288e+01 6.8284096410014541e+01 
1868 1470 2 1.0279988079794837e+00 1.0929770514083643e+03 1.0000000000000000e+00 1.4144854202689318e+01 1.7183145845460178e+01 6.7815068456891424e+01 
957 559 2 1.0279988653590084e+00 1.2320428351927166e+02 1.0000000000000000e+00 3.9308775709898325e+00 1.1494095986924913e+01 7.3532968964326614e+01 
1974 1576 2 1.0279995171232879e+00 1.6204155661324928e+03 1.0000000000000000e+00 3.5244623990629922e+00 1.0685547405327416e+01 7.3679131333834349e+01 
1130 732 2 1.0279996281783323e+00 -2.4296587239409362e+02 1.0000000000000000e+00 3.1875686063886706e+00 1.0921173030873996e+01 7.3646214113941326e+01 
1115 717 2 1.0279997890747636e+00 1.7771582328403006e+03 1.0000000000000000e+00 3.0259819852820362e+00 1.0633789152928445e+01 7.3714449869076901e+01 
1133 735 2 1.0279998475267846e+00 7.1328684857752904e+01 1.0000000000000000e+00 2.4106636915110013e+00 9.8439764334156497e+00 7.4107132228622490e+01 
1787 1389 2 1.0279999550411991e+00 -1.4167087458885214e+03 1.0000000000000000e+00 2.2553432714994859e+00 9.9368116581980104e+00 7.4115546117021879e+01 
420 22 2 1.0279990596755706e+00 2.2860511138241573e+03 1.0000000000000000e+00 2.2905339452621991e+00 9.3006608476600636e+00 7.4581337937835613e+01 
619 221 2 1.0279996394132920e+00 -2.6899271402589370e+03 1.0000000000000000e+00 1.0487873950741644e+00 1.0827591398456955e+01 7.4627408388538370e+01 
450 52 2 1.0279991866004830e+00 1.5927745822265565e+03 1.0000000000000000e+00 6.0269970706988785e+00 1.1400237930444487e+01 7.3363570946594891e+01 
1249 851 2 1.0279986765482378e+00 1.8823361214212059e+03 1.0000000000000000e+00 5.9744568094471555e+00 1.0021559095079432e+01 7.4607510791668830e+01 
2038 1640 2 1.0280024617477221e+00 1.8357056913321681e+01 1.0000000000000000e+00 7.5506295187860628e+00 1.1288854697469025e+01 7.4891894841789693e+01 
1878 1480 2 1.0280012831234395e+00 -2.6728482758258697e+03 1.0000000000000000e+00 8.5082841226146648e+00 1.1747359598899216e+01 7.4283503589315274e+01 
1620 1222 2 1.0280013689759657e+00 2.5440275061337692e+02 1.0000000000000000e+00 8.4552776024524015e+00 1.1722947142419528e+01 7.4318881242176616e+01 
1956 1558 2 1.0279995275991245e+00 -1.2363680455947231e+03 1.0000000000000000e+00 2.0386937979464586e+00 1.5636362039236070e+01 7.3323054301712034e+01 
1506 1108 2 1.0279995276065630e+00 -1.1125052335284047e+03 1.0000000000000000e+00 1.9729115662194157e+00 1.5719039202505872e+01 7.3467933686865521e+01 
1773 1375 2 1.0280007953819821e+00 1.9313043900027242e+02 1.0000000000000000e+00 1.4641202394738151e+00 1.5187094640653319e+01 7.3606174422402603e+01 
1462 1064 2 1.0280015322940479e+00 -1.9408320733985347e+03 1.0000000000000000e+00 1.0975880890703804e+00 1.4796020561297519e+01 7.3766271243898032e+01 
794 396 2 1.0280016010264692e+00 -1.8446534292254594e+03 1.0000000000000000e+00 9.4969368799289933e-01 1.4519205199604171e+01 7.3842510472748302e+01 
797 399 2 1.0280015912407363e+00 1.4558737115866181e+03 1.0000000000000000e+00 7.5620811250454090e-01 1.4211507768609522e+01 7.4012287230253804e+01 
1126 728 2 1.0279993140634680e+00 1.2969488745005040e+03 1.0000000000000000e+00 1.2114795591712815e+00 1.2986315094935168e+01 7.4020627398712719e+01 
1745 1347 2 1.0280028296486967e+00 -3.3259288101327047e+03 1.0000000000000000e+00 9.4911717813967345e-01 1.5219414173079269e+01 7.4115045737619070e+01 
1199 801 2 1.0279984626072523e+00 -8.8665424490063674e+02 1.0000000000000000e+00 9.8490663728101357e-01 1.2497420946702585e+01 7.4446328833088060e+01 
461 63 2 1.0280008662914246e+00 -7.3410357461037208e+01 1.0000000000000000e+00 3.4985116801941865e+00 1.3936576813546379e+01 7.4861769474232887e+01 
1788 1390 2 1.0279957366100696e+00 2.8983022090822496e+03 1.0000000000000000e+00 7.8296377963753727e+00 1.4258610087849531e+01 7.1145591142204452e+01 
445 47 2 1.0279983636529353e+00 3.1285043871692397e+02 1.0000000000000000e+00 7.3254300058409951e+00 1.4298262953418497e+01 7.1415873048973950e+01 
897 499 2 1.0280004186032772e+00 -2.2231177370659188e+03 1.0000000000000000e+00 6.9160091682708158e+00 1.4290676557496051e+01 7.1679524209563681e+01 
1121 723 2 1.0280001310779068e+00 1.4228744742063759e+03 1.0000000000000000e+00 6.6398710965247316e+00 1.3963510106171467e+01 7.1737570603863730e+01 
1262 864 2 1.0280001092388087e+00 1.0599124979910187e+03 1.0000000000000000e+00 6.6209007907174113e+00 1.3278227654210335e+01 7.1874391361672593e+01 
1665 1267 2 1.0280001135529571e+00 1.6217639061485088e+03 1.0000000000000000e+00 6.6292989955929951e+00 1.3275512897278166e+01 7.1871154987187666e+01 
1006 608 2 1.0280027392575737e+00 -2.6748178106157280e+02 1.0000000000000000e+00 5.9879284435556199e+00 1.4204265521653841e+01 7.2316890126707548e+01 
625 227 2 1.0279994889016548e+00 9.0232565942597341e+02 1.0000000000000000e+00 5.6311637412002788e+00 1.3452594553823763e+01 7.2429449172596236e+01 
724 326 2 1.0279993687147553e+00 7.1507463885808136e+02 1.0000000000000000e+00 5.0157452530875641e+00 1.4515321054018234e+01 7.2922559875970677e+01 
1389 991 2 1.0279987071249228e+00 3.2751084588635226e+03 1.0000000000000000e+00 4.7609236548951568e+00 1.4551670403798989e+01 7.3343731311886586e+01 
1883 1485 2 1.0279986125132927e+00 -1.4064035517423088e+03 1.0000000000000000e+00 4.7640339108526053e+00 1.4227097903013879e+01 7.3556791260296464e+01 
1958 1560 2 1.0280062878887717e+00 2.5382192344126897e+03 1.0000000000000000e+00 9.3711273515273970e+00 1.4236762909294072e+01 7.0873686587653694e+01 
729 331 2 1.0280008026743146e+00 6.5591532814056677e+02 1.0000000000000000e+00 9.6564281543414552e+00 1.3405433245062204e+01 7.0973944169913452e+01 
1994 1596 2 1.0279970528807878e+00 2.3723516147718237e+03 1.0000000000000000e+00 1.0735819375581855e+01 1.2562447939991429e+01 7.3032952515430608e+01 
741 343 2 1.0279976166589313e+00 -3.5597643264148442e+03 1.0000000000000000e+00 1.0179118241128794e+01 1.2645243316775440e+01 7.3290330087464270e+01 