LAMMPS data file via write_data, version 30 Jul 2016, timestep = 50000000

384 atoms
2 atom types

0.0000000000000000e+00 2.0000000000000000e+01 xlo xhi
0.0000000000000000e+00 2.0000000000000000e+01 ylo yhi
0.0000000000000000e+00 2.0000000000000000e+01 zlo zhi

Masses

1 3.89
2 0.42

Atoms # meso-molecular

233 1 2 1.1309481869220472e-01 1.0294836423386513e+00 1.0000000000000000e+00 2.6499890559159458e+00 3.1149688453055158e-01 5.9962961713476801e-02 
163 1 2 1.1309481869220472e-01 1.2387108444674677e-01 1.0000000000000000e+00 6.4248198056529686e+00 3.6165707775366290e-01 6.5819714976282773e-01 
307 1 2 1.1309481869220472e-01 -2.1455705073188014e+00 1.0000000000000000e+00 4.9275333019809544e+00 2.6468721189545406e+00 4.1304212069370905e-01 
276 1 2 1.1309481869220472e-01 4.1757034353141409e-01 1.0000000000000000e+00 1.5564881924139813e+00 4.6192515199513657e+00 6.3551734237726543e-01 
223 1 2 1.1309481869220472e-01 -1.4726715706404110e+00 1.0000000000000000e+00 4.1553233766380622e+00 5.5124451892045014e+00 1.0464291025389589e+00 
162 1 2 1.1309481869220472e-01 7.6864540545026272e-01 1.0000000000000000e+00 6.2740984926843746e+00 4.5442554361658214e+00 9.1713082963432058e-01 
165 1 2 1.1309481869220472e-01 -1.5567434779407563e+00 1.0000000000000000e+00 2.4553978701593224e+00 6.9745799887743756e+00 8.6622723117906164e-01 
362 1 2 1.1309481869220472e-01 6.0739297050114960e-01 1.0000000000000000e+00 8.5316351960386039e-01 8.2108128790757338e+00 7.7009961273204564e-01 
355 1 2 1.1309481869220472e-01 -2.7505742670698705e+00 1.0000000000000000e+00 5.9262809928172677e+00 8.2011663337804119e+00 6.4087472022150815e-02 
373 1 2 1.1309481869220472e-01 3.9345182108451737e-01 1.0000000000000000e+00 3.5491257425815124e+00 8.7608699067099796e+00 7.1151234544094977e-01 
86 1 2 1.1309481869220472e-01 -3.0437335559977439e+00 1.0000000000000000e+00 2.0919017034453393e+00 2.7400910903538183e+00 1.5605229768687838e+00 
141 1 2 1.1309481869220472e-01 -1.0459647494648477e+01 1.0000000000000000e+00 4.1068700868786117e+00 2.9083374299988356e+00 2.2299826874014670e+00 
213 1 2 1.1309481869220472e-01 7.6243046205057485e-01 1.0000000000000000e+00 6.7425295181213574e-01 6.4759492437526678e+00 2.1750210746186163e+00 
87 1 2 1.1309481869220472e-01 3.8974879126071733e+00 1.0000000000000000e+00 4.2505450863208987e+00 8.5095635057573364e+00 2.6000811481007871e+00 
22 1 2 1.1309498762400545e-01 -7.7772115550333947e+00 1.0000000000000000e+00 5.3513462688774389e+00 9.1070495456171419e-01 3.4357839998373660e+00 
258 1 2 1.1309481869220472e-01 4.4124561126359998e-02 1.0000000000000000e+00 1.1056187101686530e+00 1.5050167954397564e+00 3.2794368778118610e+00 
178 1 2 1.1309481869220472e-01 6.2660972486563005e-01 1.0000000000000000e+00 4.2388176633712122e+00 5.1082674597484594e+00 3.9794168312506546e+00 
145 1 2 1.1309481869220472e-01 2.3246901974684744e+00 1.0000000000000000e+00 1.7493955474461338e+00 8.3908811015815221e+00 3.6773381904482849e+00 
376 1 2 1.1309481869220472e-01 -1.4966214522425987e+00 1.0000000000000000e+00 2.3337529556834609e+00 3.3415773292273354e-01 5.4537939661496377e+00 
204 1 2 1.1309481869220472e-01 2.1634911456357404e+00 1.0000000000000000e+00 5.3985409867690750e+00 2.4706390005973251e+00 4.8669184615984733e+00 
56 1 2 1.1309481869220472e-01 1.1649521035552890e+00 1.0000000000000000e+00 2.5284652894757698e-01 3.1005980284421559e+00 4.3449941956123794e+00 
172 1 2 1.1309481869220472e-01 2.6724316040019624e-01 1.0000000000000000e+00 2.2351177489516241e+00 3.8228697782008192e+00 4.6899154664234333e+00 
287 1 2 1.1309481869220472e-01 -3.0917908872410176e+00 1.0000000000000000e+00 6.2759616007919190e+00 4.6918590615854088e+00 5.2569754822543677e+00 
183 1 2 1.1309481869220472e-01 5.2787540864351845e-01 1.0000000000000000e+00 1.6878529269283942e+00 5.8567826523289339e+00 4.9540526645138865e+00 
13 1 2 1.1309481869220472e-01 3.2100215686346245e-01 1.0000000000000000e+00 2.8889697551828784e+00 9.7687859942709210e+00 4.9813056615168749e+00 
174 1 2 1.1309481869220472e-01 3.0726354867289729e-01 1.0000000000000000e+00 4.6332872358684387e+00 6.0005395139595297e-01 6.5553688915788140e+00 
356 1 2 1.1309481869220472e-01 6.4250008128304681e-01 1.0000000000000000e+00 5.8724778480295923e+00 2.7311909708209088e+00 6.9577444391746655e+00 
49 1 2 1.1309481869220472e-01 5.0666325045330085e-01 1.0000000000000000e+00 1.1321500330500407e+00 4.2532705294665574e+00 6.3243135718932910e+00 
168 1 2 1.1309481869220472e-01 1.6299069131163124e+00 1.0000000000000000e+00 4.8432239433014646e+00 9.2888347117333936e+00 6.8107232989718129e+00 
146 1 2 1.1309481869220472e-01 1.0651740124973557e+00 1.0000000000000000e+00 1.4865320953181110e-01 4.1646854288830415e-01 7.7214473945614781e+00 
58 1 2 1.1309481869220472e-01 7.0289783185503363e-01 1.0000000000000000e+00 1.3018290205542506e+00 2.5988551896157146e+00 7.8229964962718022e+00 
365 1 2 1.1309481869220472e-01 3.6873299589113007e-01 1.0000000000000000e+00 3.6073986066233097e+00 4.1632013261975347e+00 7.2278127726259376e+00 
134 1 2 1.1309481869220472e-01 -1.2470399186589063e+00 1.0000000000000000e+00 5.9021842333180832e+00 5.1576181901679430e+00 8.1496011863131965e+00 
85 1 2 1.1309481869220472e-01 1.5437228365264699e-01 1.0000000000000000e+00 4.5109422566482014e+00 6.7262372377728701e+00 8.2811504862714607e+00 
124 1 2 1.1309481869220472e-01 -1.9297171400111170e+00 1.0000000000000000e+00 1.2629181746291720e+00 6.7807251186751785e+00 8.9036658365976447e+00 
77 1 2 1.1309483532017607e-01 2.1529412360616607e+00 1.0000000000000000e+00 3.3527487724208491e+00 7.4174126140994705e+00 9.9127687734853822e+00 
241 1 2 1.1309489725889754e-01 5.0825080186343896e-01 1.0000000000000000e+00 4.4177603333556323e+00 9.3030976887724659e+00 9.4390990588035564e+00 
207 1 2 1.1309481869220472e-01 3.3396499631912782e-02 1.0000000000000000e+00 1.5543379477688835e+00 5.9078885639470846e-01 1.0298430829072233e+01 
64 1 2 1.1309481869220472e-01 1.1729434913579606e+00 1.0000000000000000e+00 3.3205763202548324e+00 7.0492729246635866e-01 1.1385992981696157e+01 
17 1 2 1.1309481869220472e-01 4.8140160475802474e-01 1.0000000000000000e+00 1.1064414585323417e+00 3.5407781594640979e+00 1.0212098150238820e+01 
267 1 2 1.1309481869220472e-01 -5.8487385642315832e+00 1.0000000000000000e+00 4.9381186698585298e+00 2.9434933014554070e+00 1.0385304323197643e+01 
383 1 2 1.1309481869220472e-01 5.5206738297010749e-01 1.0000000000000000e+00 5.7288821187534760e+00 4.8749056149602614e+00 1.0225720094618943e+01 
83 1 2 1.1309481869220472e-01 -1.0304020381271188e+00 1.0000000000000000e+00 7.3437215166050196e-01 5.7486301081851305e+00 1.1373761223176517e+01 
217 1 2 1.1309489725889754e-01 2.4716896254492488e-01 1.0000000000000000e+00 5.3474901382505822e+00 8.9399906269070666e+00 1.1138627511912162e+01 
289 1 2 1.1309481869220472e-01 1.4369147701028830e+00 1.0000000000000000e+00 8.1971593036797930e-01 1.0656023966032726e+00 1.2443522080713930e+01 
143 1 2 1.1309483532017607e-01 3.5296189654489513e-01 1.0000000000000000e+00 4.2639650175794692e+00 7.0902701386325599e+00 1.1640309259172833e+01 
327 1 2 1.1309481869220472e-01 -5.9922271283002626e-01 1.0000000000000000e+00 3.7861198813212753e+00 6.9360212558690759e-01 1.3747307394962526e+01 
340 1 2 1.1309481869220472e-01 -3.1557180080787187e-02 1.0000000000000000e+00 2.4478205706516594e+00 4.7691328136914448e+00 1.4076332928973633e+01 
14 1 2 1.1309481869220472e-01 2.0265486168044744e-01 1.0000000000000000e+00 5.0590462777231977e+00 4.6841448023272303e+00 1.2962605110792143e+01 
338 1 2 1.1309481869220472e-01 1.4685896872518606e-01 1.0000000000000000e+00 5.7665586507438604e+00 7.0908639557683433e+00 1.3917839388688984e+01 
152 1 2 1.1309481869220472e-01 3.5207118217300082e-01 1.0000000000000000e+00 2.0784571049147353e+00 9.6084966373139622e+00 1.3916168436874669e+01 
10 1 2 1.1309481869220472e-01 1.6063242798254063e+00 1.0000000000000000e+00 4.3867918448942405e+00 9.5839020714437293e+00 1.2971989864972612e+01 
303 1 2 1.1309481869220472e-01 4.7341962405495841e-01 1.0000000000000000e+00 3.0808213365356363e-01 3.8067503402746308e+00 1.5363671284172343e+01 
260 1 2 1.1309481869220472e-01 1.8988855574369401e+00 1.0000000000000000e+00 6.6526788038231857e+00 4.4200282021833370e+00 1.5087326523520277e+01 
123 1 2 1.1309481869220472e-01 4.3425966032181618e-01 1.0000000000000000e+00 3.2698046167891199e+00 6.5780712826950936e+00 1.5224522155775720e+01 
7 1 2 1.1309481869220472e-01 6.4272237064619675e-01 1.0000000000000000e+00 4.3426734695715465e+00 8.3347921417938089e+00 1.5438107100688756e+01 
369 1 2 1.1309481869220472e-01 3.8169441778157531e-01 1.0000000000000000e+00 2.3811491212353739e+00 1.1958277075463710e+00 1.5791476649651969e+01 
268 1 2 1.1309481869220472e-01 -5.5842812476886863e+00 1.0000000000000000e+00 5.3322743221739364e+00 1.7528619466419060e+00 1.6209099387975311e+01 
206 1 2 1.1309481869220472e-01 -1.7139178147779650e+00 1.0000000000000000e+00 3.4358865974606951e+00 4.8690891426867697e+00 1.6282831598086165e+01 
371 1 2 1.1309481869220472e-01 -3.4489095899153774e+00 1.0000000000000000e+00 6.4253427917047336e-03 6.6757147970848489e+00 1.6993410336453781e+01 
74 1 2 1.1309481869220472e-01 -4.0668576519180349e-02 1.0000000000000000e+00 8.1914598701899344e-01 8.5253548848439262e+00 1.6879767435995955e+01 
309 1 2 1.1309481869220472e-01 -5.8280111695830650e-01 1.0000000000000000e+00 7.9881730324073985e-01 3.0740508447211845e-03 1.8262973803076019e+01 
36 1 2 1.1309481869220472e-01 4.0857042767788154e-01 1.0000000000000000e+00 1.7073768034910772e+00 2.5103307601097153e+00 1.7799608905082220e+01 
9 1 2 1.1309481869220472e-01 5.9927169126785551e-01 1.0000000000000000e+00 4.7731483035519284e+00 3.4277777216764225e+00 1.7409572251275797e+01 
227 1 2 1.1309481869220472e-01 5.0267864344245705e-01 1.0000000000000000e+00 2.4743676676874795e+00 6.7963719049333209e+00 1.7686780513653595e+01 
363 1 2 1.1309481869220472e-01 8.6208776342193350e-01 1.0000000000000000e+00 6.3621803451733570e+00 5.9179274172715175e+00 1.8198620244536482e+01 
150 1 2 1.1309481869220472e-01 5.1114291331963069e-01 1.0000000000000000e+00 2.7138557933921863e+00 9.9260082423114540e+00 1.7962194444160307e+01 
297 1 2 1.1309481869220472e-01 -3.7283309846536783e+00 1.0000000000000000e+00 4.9928327392311243e+00 8.8756821039659854e+00 1.7693720250082997e+01 
102 1 2 1.1309481869220472e-01 -5.4578650810778373e-01 1.0000000000000000e+00 3.4944842581620974e+00 4.2770443796461262e+00 1.9087036874019560e+01 
304 1 2 1.1309481869220472e-01 6.3494620540037117e-01 1.0000000000000000e+00 6.3043842390018554e+00 1.1404491704850358e+01 9.8811634904613432e-01 
308 1 2 1.1309481869220472e-01 5.0681159855110358e-01 1.0000000000000000e+00 4.1608479449093370e+00 1.5256621828649266e+01 8.4906172780161560e-01 
117 1 2 1.1309481869220472e-01 -1.8843943546757569e+00 1.0000000000000000e+00 6.4789910180018007e+00 1.6609039553530284e+01 1.2734316033587181e+00 
181 1 2 1.1309481869220472e-01 9.8969083012881254e-01 1.0000000000000000e+00 6.9674802030259636e-02 1.7563627373083460e+01 9.4477985398332442e-01 
128 1 2 1.1309481869220472e-01 1.8723850919202005e+00 1.0000000000000000e+00 4.8154081657665833e+00 1.9186166784029897e+01 1.0034145298714627e+00 
30 1 2 1.1309481869220472e-01 1.9667551869755868e+00 1.0000000000000000e+00 2.7259996314546706e+00 1.0118684128387009e+01 2.1489187998924031e+00 
333 1 2 1.1309481869220472e-01 8.1944814951910216e-01 1.0000000000000000e+00 9.1165706804434155e-01 1.1669934731269821e+01 1.7508987817089916e+00 
253 1 2 1.1309481869220472e-01 5.6945234658908861e-01 1.0000000000000000e+00 1.2876941710453309e+00 1.3922417126790570e+01 1.6246621430216659e+00 
135 1 2 1.1309481869220472e-01 5.0655514966325876e-01 1.0000000000000000e+00 6.6351200031098108e+00 1.4598540350548415e+01 2.3896136836409294e+00 
154 1 2 1.1309481869220472e-01 9.6162253984510437e-01 1.0000000000000000e+00 9.9650399858596539e-01 1.1127942201705212e+01 3.8272897958011241e+00 
285 1 2 1.1309481869220472e-01 -1.0808007999079354e+01 1.0000000000000000e+00 4.7259217194190724e+00 1.0213490415902745e+01 4.2476345318355566e+00 
359 1 2 1.1309481869220472e-01 -5.0429380488195541e-01 1.0000000000000000e+00 4.7880130883359178e-04 1.3086606840164059e+01 3.4635721861689035e+00 
84 1 2 1.1309481869220472e-01 -1.9735867957858320e+00 1.0000000000000000e+00 2.8104110934521764e+00 1.4628156209773787e+01 4.2716134533543055e+00 
224 1 2 1.1309481869220472e-01 -4.3435186418847305e-01 1.0000000000000000e+00 5.0148930335926689e+00 1.5015790256042646e+01 3.8879419724094992e+00 
274 1 2 1.1309481869220472e-01 -2.5346236375296394e-01 1.0000000000000000e+00 1.1455976127711571e+00 1.5922915180786353e+01 4.1795161571842403e+00 
180 1 2 1.1309481869220472e-01 -6.9974865154441401e-02 1.0000000000000000e+00 2.1941900063557845e-01 1.7813945840014139e+01 3.2051663533315784e+00 
339 1 2 1.1309481869220472e-01 6.0659390048879214e-01 1.0000000000000000e+00 2.9709164102149739e+00 1.7440683541006155e+01 3.6700897874098071e+00 
61 1 2 1.1309481869220472e-01 1.1290266442986554e+00 1.0000000000000000e+00 3.4488026477846607e+00 1.2638527163091288e+01 4.4115676009380325e+00 
342 1 2 1.1309481869220472e-01 3.3226469980105069e+00 1.0000000000000000e+00 5.7080124372152996e+00 1.2815534708900685e+01 4.3046866820612912e+00 
380 1 2 1.1309481869220472e-01 4.9682799989229542e-01 1.0000000000000000e+00 4.0562813118328045e-01 1.9103238382244115e+01 5.4475603424080292e+00 
248 1 2 1.1309481869220472e-01 6.8420415211816921e-01 1.0000000000000000e+00 6.0573978462856761e+00 1.0981234964656577e+01 6.1348022081721298e+00 
284 1 2 1.1309481869220472e-01 2.9482322015711049e-01 1.0000000000000000e+00 1.2566315851107099e+00 1.2245902391736280e+01 6.1651055280206828e+00 
24 1 2 1.1309481869220472e-01 7.5971193174527785e-01 1.0000000000000000e+00 5.5387086053770229e-01 1.4043939762467478e+01 6.8546406121932124e+00 
197 1 2 1.1309481869220472e-01 8.8104130055671237e-01 1.0000000000000000e+00 5.5577673239750398e+00 1.5319555017100130e+01 6.1973173958326724e+00 
332 1 2 1.1309481869220472e-01 4.9707986546453120e-01 1.0000000000000000e+00 2.8714520430620469e+00 1.8242695306030981e+01 6.3696715335671303e+00 
377 1 2 1.1309481869220472e-01 3.8997878710648426e-01 1.0000000000000000e+00 2.2285550032232408e+00 1.0343957107297845e+01 7.7255491329050692e+00 
220 1 2 1.1309481869220472e-01 -1.5356160307743663e+00 1.0000000000000000e+00 2.7878891336854354e+00 1.3589747155807654e+01 7.6877718037796221e+00 
374 1 2 1.1309481869220472e-01 8.0830124151082983e-02 1.0000000000000000e+00 4.3300225417891571e+00 1.5928792677940502e+01 7.6660088314306245e+00 
350 1 2 1.1309481869220472e-01 -2.2440955021521825e-01 1.0000000000000000e+00 1.0412340429089511e+00 1.7437974049466796e+01 7.2745861882769640e+00 
222 1 2 1.1309481869220472e-01 3.5221669609409501e-01 1.0000000000000000e+00 6.4653973477318623e+00 1.8290121218484614e+01 8.3116932927449181e+00 
264 1 2 1.1309483770127761e-01 1.1178464914679440e+00 1.0000000000000000e+00 4.8369985190759461e-02 1.0707551356601986e+01 9.6419809933597502e+00 
35 1 2 1.1309481869220472e-01 9.6894799103468165e-01 1.0000000000000000e+00 5.8511359830893523e+00 1.0738895917120624e+01 8.9601917452224455e+00 
148 1 2 1.1309481869220472e-01 -2.2225469046531705e+00 1.0000000000000000e+00 5.4979214602807200e+00 1.3531861128696542e+01 8.6443604746874048e+00 
131 1 2 1.1309481869220472e-01 -4.2440998262466589e+00 1.0000000000000000e+00 5.8165880389935927e+00 1.9677395182971335e+01 9.6296313676398633e+00 
379 1 2 1.1309481869220472e-01 9.0313182102503475e-01 1.0000000000000000e+00 2.4984838396452860e+00 1.0416844171206897e+01 1.0491990026517772e+01 
101 1 2 1.1309481869220472e-01 -4.7460851484986866e-01 1.0000000000000000e+00 4.5736573838405947e+00 1.1304398496443312e+01 1.1075866173441817e+01 
27 1 2 1.1309487211069974e-01 7.5177533704570587e-01 1.0000000000000000e+00 1.4961487068682442e+00 1.2423277786413276e+01 1.1315525674908203e+01 
95 1 2 1.1309481869220472e-01 8.9014297214156568e-01 1.0000000000000000e+00 4.3641553963967477e+00 1.4697761851270961e+01 1.0410948337972650e+01 
67 1 2 1.1309481869220472e-01 -3.9609947973325612e+00 1.0000000000000000e+00 2.0024963671871107e-01 1.6491464330333013e+01 1.0827517400308313e+01 
337 1 2 1.1309481869220472e-01 5.8605275625392605e-01 1.0000000000000000e+00 1.7850131451228586e+00 1.8295813072386974e+01 1.0623414861281260e+01 
142 1 2 1.1309487211069974e-01 5.2737737383239380e-01 1.0000000000000000e+00 7.3296042022823116e-01 1.0714111981197076e+01 1.1941148317185611e+01 
45 1 2 1.1309481869220472e-01 6.6277605755227786e-01 1.0000000000000000e+00 3.8810139629227178e+00 1.3157022684486995e+01 1.1796156019095402e+01 
88 1 2 1.1309481898325824e-01 5.0035110239477310e-01 1.0000000000000000e+00 5.8696426259324408e+00 1.3421311157412825e+01 1.2150311938129617e+01 
236 1 2 1.1309481869220472e-01 1.9265791277409754e+00 1.0000000000000000e+00 4.2942069209027833e+00 1.6808420669470703e+01 1.2147197656805035e+01 
19 1 2 1.1309481869220472e-01 1.8305780052605708e-01 1.0000000000000000e+00 1.2090330479457423e+00 1.7596865878900626e+01 1.2783157828682059e+01 
179 1 2 1.1309481869220472e-01 4.9100488989309277e-01 1.0000000000000000e+00 1.7797455252358192e+00 1.3649461447730701e+01 1.3212692516252561e+01 
186 1 2 1.1309482331633895e-01 7.7280462027636598e-01 1.0000000000000000e+00 6.5056921486052310e+00 1.5201316288761962e+01 1.3540216786084265e+01 
302 1 2 1.1309481869220472e-01 5.4156864103652858e-01 1.0000000000000000e+00 1.2073369281124144e+00 1.1940379556769365e+01 1.4795037009954736e+01 
70 1 2 1.1309481869220472e-01 4.1547039231343164e-01 1.0000000000000000e+00 3.6712888924866309e+00 1.3625142725774799e+01 1.4298161440278539e+01 
240 1 2 1.1309482331633895e-01 2.9768029735819879e-01 1.0000000000000000e+00 5.1059142105313082e+00 1.5196634287265843e+01 1.4948599940299065e+01 
261 1 2 1.1309481869220472e-01 3.8716349769382639e+00 1.0000000000000000e+00 2.2516676790007852e+00 1.8255124491808530e+01 1.5410205384156461e+01 
47 1 2 1.1309481869220472e-01 3.0647467450752863e-01 1.0000000000000000e+00 6.4157967185004479e+00 1.1126557385202599e+01 1.5738046183601641e+01 
361 1 2 1.1309481869220472e-01 3.1980683046343761e-01 1.0000000000000000e+00 4.7079951660231032e+00 1.2352677692895604e+01 1.6491842981149254e+01 
82 1 2 1.1309481869220472e-01 1.8382464249488271e+00 1.0000000000000000e+00 2.3287211711531635e+00 1.5397538426198913e+01 1.6425577356487157e+01 
345 1 2 1.1309481869220472e-01 4.8891311476254196e-01 1.0000000000000000e+00 4.8520602954037004e+00 1.1476028601954184e+01 1.8424512678385010e+01 
232 1 2 1.1309481869220472e-01 9.8853604777174475e-01 1.0000000000000000e+00 2.2103826855141500e+00 1.3280905542832526e+01 1.7887070532919466e+01 
193 1 2 1.1309481869220472e-01 -1.3963769964727546e+00 1.0000000000000000e+00 2.3518543536281507e+00 1.5329724267173992e+01 1.8529541227401271e+01 
318 1 2 1.1309481869220472e-01 3.8897606895245196e-01 1.0000000000000000e+00 5.5914737375003858e+00 1.4853023494772071e+01 1.7598137836667835e+01 
228 1 2 1.1309486341634471e-01 1.2844744347526706e+00 1.0000000000000000e+00 4.6513547745397696e+00 1.6889528952462030e+01 1.7954155503502840e+01 
140 1 2 1.1309481869220472e-01 6.9297471506133568e-01 1.0000000000000000e+00 6.1911862989196198e+00 1.8566984255213171e+01 1.8425779834323301e+01 
94 1 2 1.1309481869220472e-01 -5.3542533280581184e-01 1.0000000000000000e+00 3.7119322222574413e+00 1.9110338912945249e+01 1.7285123048567321e+01 
295 1 2 1.1309481869220472e-01 -3.2995487028734205e-01 1.0000000000000000e+00 6.5029208694041314e+00 1.0098665465641032e+01 1.9385164725367613e+01 
239 1 2 1.1309481869220472e-01 6.5905772821364206e-01 1.0000000000000000e+00 1.4356699939990831e+00 1.2976716866496444e+01 1.9706443566567163e+01 
108 1 2 1.1309481869220472e-01 -1.2386912037685908e-01 1.0000000000000000e+00 3.4528056096847357e+00 1.2910260172832814e+01 1.9904554569146150e+01 
200 1 2 1.1309481869220472e-01 6.0165779541977771e-01 1.0000000000000000e+00 2.5527285102189223e-01 1.4783888178612397e+01 1.9557283690898913e+01 
120 1 2 1.1309486341634471e-01 -5.4000931640461847e+00 1.0000000000000000e+00 3.1403720207260557e+00 1.7223748694664099e+01 1.9180948816840026e+01 
139 1 2 1.1309481869220472e-01 -9.0906683208066097e-01 1.0000000000000000e+00 9.7425484868108878e+00 5.1820900660481861e+00 1.3870031656752180e+00 
57 1 2 1.1309481869220472e-01 1.5211881829480616e+00 1.0000000000000000e+00 1.1012041981723682e+01 7.9621090556179936e+00 1.0486745870978791e+00 
300 1 2 1.1309481869220472e-01 2.5890769502328235e+00 1.0000000000000000e+00 8.9695977192448861e+00 9.5438432452047728e+00 6.1072956771190778e-01 
231 1 2 1.1309481869220472e-01 -7.2618931511619333e-01 1.0000000000000000e+00 6.9316754427372205e+00 2.3579530524728556e+00 1.6647099715975795e+00 
78 1 2 1.1309481869220472e-01 1.3176728992801934e+00 1.0000000000000000e+00 1.0060831695101239e+01 2.1002378909539732e+00 2.2073081927813312e+00 
185 1 2 1.1309481869220472e-01 -1.3344213909834002e+00 1.0000000000000000e+00 1.2499769007041250e+01 2.5257924843003021e+00 2.1521560188053264e+00 
244 1 2 1.1309481869220472e-01 1.3458616661257316e-02 1.0000000000000000e+00 7.6055755068853585e+00 7.2948621693309326e+00 2.8348221561824989e+00 
198 1 2 1.1309498762400545e-01 5.0352956222411172e-01 1.0000000000000000e+00 7.1551361963696145e+00 9.4694090460230407e-01 4.2136778985821417e+00 
293 1 2 1.1309481869220472e-01 5.3928616822273678e-02 1.0000000000000000e+00 7.7148204137668257e+00 2.8930757937558726e+00 3.6602002453173488e+00 
382 1 2 1.1309481964222516e-01 4.5059831717320603e-01 1.0000000000000000e+00 1.1500439610357496e+01 3.3806916021392595e+00 3.8733433073479069e+00 
366 1 2 1.1309481869220472e-01 6.3819773303853555e-01 1.0000000000000000e+00 8.4556605548522157e+00 4.9999514641406035e+00 3.2861091571302556e+00 
317 1 2 1.1309481964222516e-01 5.4090492484844976e-01 1.0000000000000000e+00 1.2220536323352382e+01 5.1995092191917678e+00 4.2412145520648812e+00 
349 1 2 1.1309481869220472e-01 1.4156418817601155e+00 1.0000000000000000e+00 1.0185420681727674e+01 6.8587105025294894e+00 3.5699342428729697e+00 
89 1 2 1.1309481869220472e-01 -2.7415408220733406e+00 1.0000000000000000e+00 8.1790013749928718e+00 9.2376737324190881e+00 4.2711138970683464e+00 
188 1 2 1.1309481869220472e-01 -9.7131815849152203e-01 1.0000000000000000e+00 1.3029837702896351e+01 8.7672663514726672e+00 2.8798867756686586e+00 
247 1 2 1.1309481869220472e-01 -4.7658561291887447e-01 1.0000000000000000e+00 9.4694658459136782e+00 4.6042845552905760e+00 5.0624790458727471e+00 
335 1 2 1.1309481869220472e-01 3.8675970507915425e-01 1.0000000000000000e+00 8.2866965069675533e+00 8.1762226019727358e-01 6.5326570798138990e+00 
114 1 2 1.1309481869220472e-01 5.7652503512987896e-01 1.0000000000000000e+00 1.1467398963007389e+01 4.0247019551446579e+00 6.4373204587382435e+00 
196 1 2 1.1309481869220472e-01 1.3318613636814989e+00 1.0000000000000000e+00 8.5422644810389539e+00 6.8852116966134362e+00 6.3069349781430493e+00 
230 1 2 1.1309481869220472e-01 -5.3279556922422291e+00 1.0000000000000000e+00 1.2309686643506922e+01 9.3786425667260751e+00 6.3114715759980857e+00 
216 1 2 1.1309481869220472e-01 7.8156770055347691e-01 1.0000000000000000e+00 1.0653910000593815e+01 1.1705655080556798e+00 8.0066498800890820e+00 
360 1 2 1.1309481869220472e-01 1.1922498380165174e+00 1.0000000000000000e+00 9.3335723386187759e+00 5.4321908262004941e+00 7.8432665105787533e+00 
288 1 2 1.1309481869220472e-01 -8.4365838582498540e+00 1.0000000000000000e+00 6.9570073508713932e+00 6.9131177081849859e+00 8.0099748895001479e+00 
107 1 2 1.1309481869220472e-01 -3.5346464060768146e-01 1.0000000000000000e+00 1.2606082996803458e+01 7.4751833232062257e+00 7.5042204579720924e+00 
69 1 2 1.1309481869220472e-01 7.2324138733935672e-01 1.0000000000000000e+00 6.8704113636117867e+00 9.4922022643908903e+00 7.7725007762732981e+00 
133 1 2 1.1309481869220472e-01 -5.8708738361399737e-01 1.0000000000000000e+00 1.0562474798144867e+01 9.8641510665107361e+00 7.8742580126048045e+00 
97 1 2 1.1309481879664332e-01 6.0094903739096794e-01 1.0000000000000000e+00 1.1337603231020250e+01 5.1422775901247650e+00 9.3595765562199862e+00 
330 1 2 1.1309481869220472e-01 4.6080874651668047e-01 1.0000000000000000e+00 1.3241744968142468e+01 6.1871086659749235e+00 9.6018172413713057e+00 
336 1 2 1.1309481869220472e-01 9.3367127076313139e-01 1.0000000000000000e+00 1.2203806774868378e+01 8.0993039908641400e+00 9.8823339096120488e+00 
381 1 2 1.1309481869220472e-01 1.0575702639366109e+00 1.0000000000000000e+00 1.2559898969023143e+01 6.1389870928700456e-02 1.0105872559309802e+01 
250 1 2 1.1309481869220472e-01 1.2836530564542028e+00 1.0000000000000000e+00 7.9429120355566658e+00 1.4604148809297441e+00 1.0005759494138067e+01 
137 1 2 1.1309481869220472e-01 2.8800562267514251e-01 1.0000000000000000e+00 1.0258093554011097e+01 2.5529181783265149e+00 1.0345389377459053e+01 
63 1 2 1.1309481869220472e-01 8.9067022663083217e-01 1.0000000000000000e+00 1.2716577472189920e+01 2.3212342661649030e+00 1.0352834280996136e+01 
76 1 2 1.1309481879664332e-01 1.0111284839914074e+00 1.0000000000000000e+00 1.1037102932484860e+01 5.9585461210676725e+00 1.1154440441032165e+01 
242 1 2 1.1309481869220472e-01 4.9862736586721101e-01 1.0000000000000000e+00 9.3455427499203285e+00 8.3449464213868563e+00 1.0490460146690376e+01 
91 1 2 1.1309481869220472e-01 -1.0650479872598191e+00 1.0000000000000000e+00 8.8198265232511588e+00 1.1830234958705306e+00 1.2684129880308538e+01 
155 1 2 1.1309481869220472e-01 3.5255876496622685e-01 1.0000000000000000e+00 7.0112042472106850e+00 2.7974011421329039e+00 1.2472929270575687e+01 
4 1 2 1.1309481869220472e-01 1.0906855304565508e+00 1.0000000000000000e+00 1.0925977254531343e+01 2.5230286915409783e+00 1.2343290242778197e+01 
262 1 2 1.1309481869220472e-01 2.2267894284408900e+00 1.0000000000000000e+00 7.0498166889236469e+00 4.9050720242102122e+00 1.1793404002478987e+01 
283 1 2 1.1309481869220472e-01 8.3137173698379541e-01 1.0000000000000000e+00 9.1812531469538694e+00 5.0710584587494250e+00 1.2076424659255608e+01 
221 1 2 1.1309481869220472e-01 1.6416113046506777e+00 1.0000000000000000e+00 1.3269413348349042e+01 4.4957027709082906e+00 1.2326024468675326e+01 
353 1 2 1.1309481869220472e-01 1.5003222985664162e+00 1.0000000000000000e+00 7.3185171511125944e+00 7.4944528943645414e+00 1.1830861812198190e+01 
290 1 2 1.1309481869220472e-01 1.5522585809805634e+00 1.0000000000000000e+00 1.2101896503325262e+01 7.9620180129147986e+00 1.1882982477640324e+01 
191 1 2 1.1309481869220472e-01 -2.1380152068314637e+00 1.0000000000000000e+00 1.0868423038917028e+01 7.4949677373492771e-03 1.3316848563019480e+01 
384 1 2 1.1309481869220472e-01 -1.0079056278610281e+00 1.0000000000000000e+00 1.3022110543348660e+01 5.6128165969424770e-01 1.3323984552333188e+01 
372 1 2 1.1309481869220472e-01 5.7267476819272178e-01 1.0000000000000000e+00 8.6674649751504198e+00 6.3748862360777796e+00 1.4265861142703013e+01 
65 1 2 1.1309481869220472e-01 1.2560901921135198e-01 1.0000000000000000e+00 1.0746301182392150e+01 6.9094214422762255e+00 1.3753406278505652e+01 
159 1 2 1.1309481869220472e-01 1.6575729335611156e-01 1.0000000000000000e+00 9.4289256364919627e+00 8.8356605505323369e+00 1.4164289822141525e+01 
316 1 2 1.1309481869220472e-01 1.0416094056473404e+00 1.0000000000000000e+00 1.0532429070903813e+01 3.4404765867693621e-01 1.5436756709779328e+01 
166 1 2 1.1309481869220472e-01 3.1106255469760008e-01 1.0000000000000000e+00 9.3424691160491946e+00 3.7207190887923987e+00 1.4333326387205510e+01 
115 1 2 1.1309481869220472e-01 4.2708440714231555e-01 1.0000000000000000e+00 1.3326686377995790e+01 9.1746202569739896e+00 1.5101183812524123e+01 
177 1 2 1.1309481879477319e-01 1.9109653476182173e-01 1.0000000000000000e+00 7.8444500120841454e+00 9.1909988723889269e-01 1.6114264596525746e+01 
50 1 2 1.1309481869220472e-01 4.5014857801532360e-01 1.0000000000000000e+00 1.2162335580657173e+01 4.1624388208354048e+00 1.6138000074260219e+01 
277 1 2 1.1309481869220472e-01 6.1379830635518418e-01 1.0000000000000000e+00 7.8931895653104629e+00 4.9022065693746502e+00 1.6906524546411998e+01 
125 1 2 1.1309481869220472e-01 -4.1485182801997000e+00 1.0000000000000000e+00 9.4826233356823284e+00 5.8247219673334287e+00 1.6062443932550053e+01 
323 1 2 1.1309481869220472e-01 4.7317194842648413e-01 1.0000000000000000e+00 8.3720595224986560e+00 8.4260652436566410e+00 1.5923678542136662e+01 
60 1 2 1.1309481869220472e-01 8.5046539652633646e-01 1.0000000000000000e+00 1.1181270253246751e+01 7.7655387696915881e+00 1.6698970454462433e+01 
319 1 2 1.1309481869220472e-01 6.8782439873461321e-01 1.0000000000000000e+00 1.3105051868279119e+01 1.2470839705203898e+00 1.8543317590420934e+01 
229 1 2 1.1309481869220472e-01 -4.2051370276486928e+00 1.0000000000000000e+00 8.9862412918600416e+00 8.1666695507482121e+00 1.8130389828898693e+01 
251 1 2 1.1309481869220472e-01 1.8073785833138274e+00 1.0000000000000000e+00 1.1040034978152251e+01 1.7363909308826606e+00 1.8805589487000880e+01 
325 1 2 1.1309481869220472e-01 5.7419570767162287e-01 1.0000000000000000e+00 6.7166502788893645e+00 3.1598686530593696e+00 1.9002602356921859e+01 
270 1 2 1.1309481869220472e-01 2.1470378747491808e-01 1.0000000000000000e+00 1.1651149147947246e+01 3.8529885333668918e+00 1.8699255770973835e+01 
320 1 2 1.1309481869220472e-01 5.8059443663929877e-01 1.0000000000000000e+00 9.2209680882438452e+00 4.9016735820019788e+00 1.8710710912572754e+01 
129 1 2 1.1309481869220472e-01 1.0265107560763871e+00 1.0000000000000000e+00 1.1271536923517548e+01 9.3876751758115446e+00 1.9162294574974094e+01 
111 1 2 1.1309481869220472e-01 5.7118750337731183e-01 1.0000000000000000e+00 1.3283252724267458e+01 9.5546188339761162e+00 1.8639785385151249e+01 
218 1 2 1.1309481869220472e-01 -3.3945831821163153e-01 1.0000000000000000e+00 1.1917129387529039e+01 1.2741146727305033e+01 1.1707984868711412e+00 