LAMMPS data file via write_data, version 30 Jul 2016, timestep = 50400000

384 atoms
2 atom types

0.0000000000000000e+00 2.0000000000000000e+01 xlo xhi
0.0000000000000000e+00 2.0000000000000000e+01 ylo yhi
0.0000000000000000e+00 2.0000000000000000e+01 zlo zhi

Masses

1 3.89
2 0.42

Atoms # meso-molecular

86 1 2 1.1309481869220472e-01 -3.0437245328071181e+00 1.0000000000000000e+00 2.7323175250473022e+00 2.1544059738979260e+00 7.9017642125983201e-01 
276 1 2 1.1309483174814536e-01 4.1759493310050960e-01 1.0000000000000000e+00 5.4189104308757519e-01 4.0705609906422042e+00 6.4868002187402174e-01 
223 1 2 1.1309481869220472e-01 -1.4726706555263673e+00 1.0000000000000000e+00 4.0986229625738417e+00 5.4716053359303176e+00 1.1930849032490523e+00 
162 1 2 1.1309481869220472e-01 7.6864661522908251e-01 1.0000000000000000e+00 6.4780618489235495e+00 4.4966497362063640e+00 8.1583939172508202e-01 
362 1 2 1.1309481869220472e-01 6.0739486574959911e-01 1.0000000000000000e+00 3.3732387751203921e-02 7.7220617382407131e+00 1.0418192783048064e+00 
373 1 2 1.1309481869220472e-01 3.9345697977310845e-01 1.0000000000000000e+00 3.0461344606454892e+00 8.8139295993442470e+00 1.8248201301226882e-01 
22 1 2 1.1309481869220472e-01 -7.7773604864150245e+00 1.0000000000000000e+00 4.3266503569890107e+00 3.4532768076214881e-01 2.3585246925559513e+00 
141 1 2 1.1309481869220472e-01 -1.0459634777997964e+01 1.0000000000000000e+00 4.3103483404192904e+00 2.9845517331185416e+00 2.8270315869020459e+00 
213 1 2 1.1309481869220472e-01 7.6243407802741059e-01 1.0000000000000000e+00 1.3059386415638095e+00 5.7300233531562315e+00 2.6462946439805561e+00 
165 1 2 1.1309481869220472e-01 -1.5567379496497851e+00 1.0000000000000000e+00 3.0131773374409687e+00 7.5103299247506863e+00 1.7572160521774727e+00 
30 1 2 1.1309481869220472e-01 1.9667556926665914e+00 1.0000000000000000e+00 1.6564345435026375e+00 9.3758933504003643e+00 1.7699753715799142e+00 
258 1 2 1.1309481869220472e-01 4.4125895339752419e-02 1.0000000000000000e+00 1.6532012925687227e+00 1.4124223371092475e+00 2.8823242496346522e+00 
56 1 2 1.1309481869220472e-01 1.1649536748260443e+00 1.0000000000000000e+00 7.0177457192137888e-02 2.7113030421993152e+00 3.3446567701643337e+00 
172 1 2 1.1309481869220472e-01 2.6724852208349381e-01 1.0000000000000000e+00 1.8844342040419180e+00 3.6177386198009280e+00 3.1885180476664559e+00 
183 1 2 1.1309481869220472e-01 5.2787789950385089e-01 1.0000000000000000e+00 2.4997540587632430e+00 5.2580835189813540e+00 4.1992588458683722e+00 
178 1 2 1.1309481869220472e-01 6.2661382376752639e-01 1.0000000000000000e+00 5.1211027150223387e+00 5.3947512442754286e+00 3.4750479172197495e+00 
145 1 2 1.1309481869220472e-01 2.3246918294932217e+00 1.0000000000000000e+00 2.1514871044395880e+00 8.0510524146716662e+00 3.5546047367680647e+00 
87 1 2 1.1309481869220472e-01 3.8974886467341006e+00 1.0000000000000000e+00 4.8416716214981834e+00 8.3438892648704943e+00 3.3238373727326418e+00 
204 1 2 1.1309482989511811e-01 2.1635115247482677e+00 1.0000000000000000e+00 5.2226630676436532e+00 2.1866024334703189e+00 4.7616159248566907e+00 
13 1 2 1.1309481869220472e-01 3.2100503600892982e-01 1.0000000000000000e+00 2.7091611245690088e+00 9.1384621702381157e+00 5.2040518988473234e+00 
174 1 2 1.1309481879973320e-01 3.0726420537841881e-01 1.0000000000000000e+00 5.3559996990004821e+00 3.8248259537668017e-01 6.0739722101600337e+00 
356 1 2 1.1309483000264658e-01 6.4252197966656033e-01 1.0000000000000000e+00 5.0139365347168932e+00 2.2338050642208769e+00 6.7322298775410649e+00 
49 1 2 1.1309481869220472e-01 5.0666535582517924e-01 1.0000000000000000e+00 1.5077329134635096e+00 4.2631287468204437e+00 6.5628404781872565e+00 
85 1 2 1.1309481869220472e-01 1.5437228365264699e-01 1.0000000000000000e+00 4.3772575023594360e+00 6.2474048862258718e+00 6.1230849736221744e+00 
168 1 2 1.1309481869220472e-01 1.6299098391551365e+00 1.0000000000000000e+00 4.8618026015687592e+00 8.1943728196545500e+00 6.1440644446050827e+00 
58 1 2 1.1309481869220472e-01 7.0290195152968904e-01 1.0000000000000000e+00 9.6717348012312487e-01 2.4434555191529830e+00 7.9576375161587212e+00 
365 1 2 1.1309481869220472e-01 3.6873794181748265e-01 1.0000000000000000e+00 3.4654641505925370e+00 2.2751318755653189e+00 8.1993002959908114e+00 
134 1 2 1.1309481869220472e-01 -1.2470393052758157e+00 1.0000000000000000e+00 5.4265764736294058e+00 4.6526678151943646e+00 8.0884251036443384e+00 
241 1 2 1.1309481869220472e-01 5.0816828940665315e-01 1.0000000000000000e+00 4.1188595474633933e+00 9.2459727768134456e+00 8.2535932332936763e+00 
69 1 2 1.1309481869220472e-01 7.2324235236691103e-01 1.0000000000000000e+00 6.4279954651332556e+00 9.4511359362463097e+00 7.6744167887148320e+00 
207 1 2 1.1309481869220472e-01 3.3399156626850141e-02 1.0000000000000000e+00 1.3247939690367334e+00 1.0741368309571122e+00 9.5585906227972810e+00 
124 1 2 1.1309481869220472e-01 -1.9297171400111170e+00 1.0000000000000000e+00 1.6709651880518464e+00 6.0005529113043679e+00 8.8623429561912754e+00 
64 1 2 1.1309481869220472e-01 1.1729437362707578e+00 1.0000000000000000e+00 3.8373535996586496e+00 1.1443770336000678e+00 1.1305306609872176e+01 
267 1 2 1.1309481869220472e-01 -5.8487378435712092e+00 1.0000000000000000e+00 5.3020761628500761e+00 2.9541340204955757e+00 1.0313812201389453e+01 
83 1 2 1.1309481869220472e-01 -1.0304020381271188e+00 1.0000000000000000e+00 2.3717892666934950e-01 5.5389738957941344e+00 1.0614341203329660e+01 
383 1 2 1.1309481869220472e-01 5.5206974242923157e-01 1.0000000000000000e+00 4.7035531227178247e+00 5.4873377986933400e+00 1.0857628276211114e+01 
77 1 2 1.1309481869220472e-01 2.1529159674703564e+00 1.0000000000000000e+00 2.7517463804203830e+00 7.8076218087436198e+00 1.0068815204447652e+01 
217 1 2 1.1309481869220472e-01 2.4708548903114935e-01 1.0000000000000000e+00 6.1980651488528880e+00 9.7757047075817223e+00 1.1394528322644913e+01 
289 1 2 1.1309481869220472e-01 1.4369155791898351e+00 1.0000000000000000e+00 2.5812057686109924e-01 1.4602072755587430e+00 1.2210298213074530e+01 
17 1 2 1.1309481869220472e-01 4.8140241384498916e-01 1.0000000000000000e+00 1.1459078737644773e-01 3.4862366275788403e+00 1.1525336946215056e+01 
143 1 2 1.1309481869220472e-01 3.5293714599009995e-01 1.0000000000000000e+00 4.5793403943841389e+00 7.1044484269613983e+00 1.2643983688900690e+01 
340 1 2 1.1309481869220472e-01 -3.1556379137442081e-02 1.0000000000000000e+00 2.8302714259399773e+00 4.6769744496983412e+00 1.3636171338010477e+01 
14 1 2 1.1309481869220472e-01 2.0265571004046862e-01 1.0000000000000000e+00 4.6994779407946412e+00 4.3199440823537918e+00 1.2990878188089987e+01 
122 1 2 1.1309481869220472e-01 6.0197061666711726e-01 1.0000000000000000e+00 4.2998967725587123e-01 5.8803068851107447e+00 1.4268531680614238e+01 
338 1 2 1.1309481869220472e-01 1.4686001221466510e-01 1.0000000000000000e+00 6.2747048009505209e+00 6.9956673000605099e+00 1.4017138381715613e+01 
327 1 2 1.1309481869220472e-01 -5.9922121490146996e-01 1.0000000000000000e+00 3.9188190804910237e+00 8.1185613796813527e-01 1.4812747027804749e+01 
303 1 2 1.1309481869220472e-01 4.7342192252411619e-01 1.0000000000000000e+00 1.4083571483066075e+00 3.1521082014819104e+00 1.4930631848572453e+01 
123 1 2 1.1309481869220472e-01 4.3426121417183761e-01 1.0000000000000000e+00 2.9417280634645961e+00 6.6391756931435149e+00 1.4604173319418834e+01 
7 1 2 1.1309481869220472e-01 6.4272753888014955e-01 1.0000000000000000e+00 3.5662026533673723e+00 8.4426513781224557e+00 1.5595275141622487e+01 
152 1 2 1.1309482492177794e-01 3.5209385801095899e-01 1.0000000000000000e+00 2.3250166716127061e+00 9.3701620977703080e+00 1.4317550065415654e+01 
369 1 2 1.1309481869220472e-01 3.8169845604821562e-01 1.0000000000000000e+00 1.5537271848000191e+00 1.1407977570971362e+00 1.5756432643015678e+01 
268 1 2 1.1309483494773262e-01 -5.5842551294134806e+00 1.0000000000000000e+00 5.7277575056116463e+00 2.7711515449666191e+00 1.6000853558373503e+01 
206 1 2 1.1309483494773262e-01 -1.7138870634402150e+00 1.0000000000000000e+00 4.5332040663499527e+00 4.3123311969819760e+00 1.6347346018598415e+01 
9 1 2 1.1309481869220472e-01 5.9927838615290696e-01 1.0000000000000000e+00 4.5958787980343141e+00 2.7934316034603031e+00 1.7704493824837453e+01 
74 1 2 1.1309481869220472e-01 -4.0668425779249534e-02 1.0000000000000000e+00 2.6836321974430760e-01 8.2532306424145574e+00 1.7458345427646822e+01 
227 1 2 1.1309481869220472e-01 5.0267884570629806e-01 1.0000000000000000e+00 2.5118944831443040e+00 7.5409039499224493e+00 1.7265903307026182e+01 
150 1 2 1.1309481869220472e-01 5.1114321300074061e-01 1.0000000000000000e+00 1.9390558092499146e+00 9.4382776059786018e+00 1.7792772316731156e+01 
36 1 2 1.1309481869220472e-01 4.0857211331039045e-01 1.0000000000000000e+00 1.5387658932904928e+00 2.1446945774666846e+00 1.8685769339371021e+01 
102 1 2 1.1309481869220472e-01 -5.4578586912887506e-01 1.0000000000000000e+00 2.9840389617001870e+00 3.8657432656853894e+00 1.9687531572444364e+01 
307 1 2 1.1309481869220472e-01 -2.1455646264009198e+00 1.0000000000000000e+00 5.3513912400759978e+00 2.8720671084133880e+00 1.9725287375911158e+01 
363 1 2 1.1309481869220472e-01 8.6208804365427838e-01 1.0000000000000000e+00 6.6193480888728038e+00 6.2379767913978963e+00 1.8766251634645521e+01 
355 1 2 1.1309481869220472e-01 -2.7505742670698705e+00 1.0000000000000000e+00 5.4980621375976702e+00 8.5188761183056894e+00 1.9292707234506899e+01 
297 1 2 1.1309481869220472e-01 -3.7283279891805154e+00 1.0000000000000000e+00 4.0867694581257350e+00 9.7660674383470809e+00 1.8619062605589530e+01 
308 1 2 1.1309481869220472e-01 5.0681301952661728e-01 1.0000000000000000e+00 4.6673963354213512e+00 1.5427072527251770e+01 2.8593936080063765e-02 
181 1 2 1.1309481869220472e-01 9.8969581810496976e-01 1.0000000000000000e+00 3.6113408266853014e-01 1.6489773162600784e+01 6.2644442275299017e-01 
120 1 2 1.1309481869220472e-01 -5.4001465913980606e+00 1.0000000000000000e+00 2.8366822873938222e+00 1.7647207811772436e+01 4.1397530053767945e-01 
233 1 2 1.1309481869220472e-01 1.0294836423386513e+00 1.0000000000000000e+00 3.4521125463890958e+00 1.9807489636299465e+01 2.2398518342933058e-01 
163 1 2 1.1309482164904869e-01 1.2388220200546415e-01 1.0000000000000000e+00 6.0101495785246177e+00 1.9424446569402960e+01 2.8667109815338937e-01 
333 1 2 1.1309481869220472e-01 8.1944814951910216e-01 1.0000000000000000e+00 2.4484843190425214e+00 1.1429593682162848e+01 1.5003064959424761e+00 
253 1 2 1.1309481869220472e-01 5.6945484258190948e-01 1.0000000000000000e+00 1.3406237315524914e+00 1.5185110878323961e+01 1.7921719813761083e+00 
117 1 2 1.1309482286752641e-01 -1.8843832691443665e+00 1.0000000000000000e+00 6.3935613677172176e+00 1.6635131973501981e+01 1.6140240310901011e+00 
128 1 2 1.1309482582437037e-01 1.8724054129691345e+00 1.0000000000000000e+00 5.1277060706970321e+00 1.8163879602406052e+01 1.5442299564153681e+00 
154 1 2 1.1309481869220472e-01 9.6162285379296986e-01 1.0000000000000000e+00 8.0167854408772177e-01 1.0458676597189271e+01 3.2768239345305052e+00 
359 1 2 1.1309481869220472e-01 -5.0429313839236212e-01 1.0000000000000000e+00 4.8354891649981796e-01 1.3111666811719832e+01 3.3291874255556162e+00 
61 1 2 1.1309481869220472e-01 1.1290279101382965e+00 1.0000000000000000e+00 5.0138262701842411e+00 1.3160879069955200e+01 3.3579756186392147e+00 
339 1 2 1.1309481869220472e-01 6.0659390048879214e-01 1.0000000000000000e+00 3.6289735390033879e+00 1.6747967137300993e+01 4.0400448907618332e+00 
285 1 2 1.1309481869220472e-01 -1.0808007499197750e+01 1.0000000000000000e+00 4.3314825601086575e+00 1.0483981308927044e+01 4.3100657828126101e+00 
284 1 2 1.1309481869220472e-01 2.9482472912769209e-01 1.0000000000000000e+00 1.5849562696039055e+00 1.2437542833245420e+01 5.4163308698341446e+00 
84 1 2 1.1309481869220472e-01 -1.9735862050454847e+00 1.0000000000000000e+00 3.0351981864152164e+00 1.4762438563594879e+01 5.1683398657661490e+00 
224 1 2 1.1309481869220472e-01 -4.3434911149325706e-01 1.0000000000000000e+00 5.2478713950063103e+00 1.5256193952429934e+01 4.7202720803484066e+00 
274 1 2 1.1309481869220472e-01 -2.5346236375296394e-01 1.0000000000000000e+00 1.1613530342719420e+00 1.5821193047847222e+01 5.1887275784609859e+00 
376 1 2 1.1309481869220472e-01 -1.4966201919977675e+00 1.0000000000000000e+00 1.8732114996604610e+00 1.9794790775606376e+01 4.8389147570735096e+00 
248 1 2 1.1309481869220472e-01 6.8420678689355974e-01 1.0000000000000000e+00 4.8614985731648170e+00 1.0451995134286298e+01 6.7157712246562298e+00 
197 1 2 1.1309481869210669e-01 8.8104342492182997e-01 1.0000000000000000e+00 6.2238884325335233e+00 1.5993524138062030e+01 6.8992917826281959e+00 
377 1 2 1.1309481869220472e-01 3.8997878710648426e-01 1.0000000000000000e+00 2.3239076479366276e+00 1.0940726952926687e+01 7.3118756971321481e+00 
220 1 2 1.1309481869220472e-01 -1.5356160307743663e+00 1.0000000000000000e+00 2.2486068862050916e+00 1.3533243811937236e+01 7.5547763814601403e+00 
24 1 2 1.1309481869220472e-01 7.5971308817411964e-01 1.0000000000000000e+00 7.7607180092379879e-01 1.4906613917169365e+01 7.6348116527400878e+00 
350 1 2 1.1309481869220472e-01 -2.2440685903342628e-01 1.0000000000000000e+00 8.9703699918163160e-01 1.6887383207628005e+01 8.2872398025457770e+00 
374 1 2 1.1309481869220472e-01 8.0832160215242338e-02 1.0000000000000000e+00 2.9388831312353414e+00 1.6043983958764635e+01 8.0640010801961068e+00 
146 1 2 1.1309481869220472e-01 1.0651760172991869e+00 1.0000000000000000e+00 6.0276185428959583e-01 1.9648983791803431e+01 8.2938155551509976e+00 
332 1 2 1.1309481869220472e-01 4.9708260566092732e-01 1.0000000000000000e+00 2.5527808838378956e+00 1.8646305802472011e+01 7.3220470457576452e+00 
264 1 2 1.1309481869220472e-01 1.1178179012032714e+00 1.0000000000000000e+00 1.3829546004447670e+00 1.0496037299939680e+01 9.4214174896641172e+00 
35 1 2 1.1309481869220472e-01 9.6895072805283955e-01 1.0000000000000000e+00 5.2381842279830080e+00 1.1130238208451198e+01 8.7094676721123161e+00 
131 1 2 1.1309481869220472e-01 -4.2440998262466589e+00 1.0000000000000000e+00 4.5914477539497573e+00 1.9534958974721061e+01 9.3008336695939171e+00 
379 1 2 1.1309481923747733e-01 9.0313599536278832e-01 1.0000000000000000e+00 3.1606814450537457e+00 1.0068985937701383e+01 1.1052237997723426e+01 
101 1 2 1.1309485874257758e-01 -4.7455227703986491e-01 1.0000000000000000e+00 4.8495090172510578e+00 1.1413005366417382e+01 1.0659369425866315e+01 
27 1 2 1.1309481869220472e-01 7.5171205141863917e-01 1.0000000000000000e+00 9.6449642054805063e-01 1.3043305648357322e+01 1.0728989017719950e+01 
95 1 2 1.1309481869220472e-01 8.9014432375285724e-01 1.0000000000000000e+00 3.9659697390412281e+00 1.5160806490241566e+01 1.0124398657428726e+01 
67 1 2 1.1309481869220472e-01 -3.9609947973325612e+00 1.0000000000000000e+00 4.2880131159327750e-01 1.6557737397367230e+01 1.0883876625506179e+01 
337 1 2 1.1309481869220472e-01 5.8605501902373047e-01 1.0000000000000000e+00 2.4396309099412821e+00 1.7818332694508292e+01 1.0261460956083299e+01 
142 1 2 1.1309481869220472e-01 5.2731841725023987e-01 1.0000000000000000e+00 1.2261775001550872e+00 1.0710960376745783e+01 1.2414994549369233e+01 
88 1 2 1.1309485874257758e-01 5.0040316860542033e-01 1.0000000000000000e+00 5.3901916686537152e+00 1.2083135380311997e+01 1.2437286807622890e+01 
45 1 2 1.1309481869220472e-01 6.6277746057787001e-01 1.0000000000000000e+00 2.7022584626079440e+00 1.3393249797361554e+01 1.2086672575211688e+01 
236 1 2 1.1309481869220472e-01 1.9265791277409754e+00 1.0000000000000000e+00 4.0122494896332084e+00 1.6793264368012384e+01 1.2611158157756579e+01 
19 1 2 1.1309481869220472e-01 1.8305780052605708e-01 1.0000000000000000e+00 2.0512701711899028e+00 1.8277992440986036e+01 1.2304867948092104e+01 
10 1 2 1.1309481923747733e-01 1.6063342544164567e+00 1.0000000000000000e+00 3.4844956462177294e+00 1.0380599996303662e+01 1.2992444190464429e+01 
70 1 2 1.1309481869220472e-01 4.1547145897634774e-01 1.0000000000000000e+00 3.2328310148908366e+00 1.3166743387317583e+01 1.4012057431976721e+01 
179 1 2 1.1309481869220472e-01 4.9100605101700168e-01 1.0000000000000000e+00 9.0458159824638518e-01 1.4314070105640871e+01 1.3278627674451039e+01 
302 1 2 1.1309482492177794e-01 5.4158812181761906e-01 1.0000000000000000e+00 1.9336872016678195e+00 1.1295316030939047e+01 1.4598881138889373e+01 
192 1 2 1.1309481871014054e-01 4.6450234423495296e-01 1.0000000000000000e+00 1.3007714952073993e-01 1.4078645018907867e+01 1.5330339557282633e+01 
240 1 2 1.1309481869220472e-01 2.9767078036693989e-01 1.0000000000000000e+00 4.2551239547599771e+00 1.5535982830976822e+01 1.4540030021449944e+01 
26 1 2 1.1309481869220472e-01 2.0053766016149241e+00 1.0000000000000000e+00 6.2422933770016291e+00 1.4596255923758093e+01 1.5711561115952094e+01 
261 1 2 1.1309481869220472e-01 3.8716355682592827e+00 1.0000000000000000e+00 2.3618828181704394e+00 1.9281579191567971e+01 1.5668670423675389e+01 
47 1 2 1.1309481869220472e-01 3.0647560456976497e-01 1.0000000000000000e+00 5.3238433522464730e+00 1.1271223708984698e+01 1.6232268429526890e+01 
361 1 2 1.1309481869220472e-01 3.1980709324557055e-01 1.0000000000000000e+00 4.3703982109202535e+00 1.3266997964215824e+01 1.6566737684328793e+01 
82 1 2 1.1309481869220472e-01 1.8382535665878486e+00 1.0000000000000000e+00 2.0287537690872850e+00 1.4901644332033547e+01 1.6696148865433216e+01 
169 1 2 1.1309481869220472e-01 1.0414677536689969e+00 1.0000000000000000e+00 2.0005720204761862e-01 1.7435477126574874e+01 1.6349596960524494e+01 
364 1 2 1.1309481869220472e-01 2.9820949345142295e-01 1.0000000000000000e+00 6.0555652597551877e+00 1.7157229347604638e+01 1.6460106945537763e+01 
345 1 2 1.1309481869220472e-01 4.8891451643710304e-01 1.0000000000000000e+00 4.9594851030382996e+00 1.2146748505484707e+01 1.8452755027440084e+01 
232 1 2 1.1309481869220472e-01 9.8853644651686967e-01 1.0000000000000000e+00 2.2166327640122949e+00 1.3410557640155886e+01 1.8102452028739233e+01 
318 1 2 1.1309481869220472e-01 3.8898258881273740e-01 1.0000000000000000e+00 6.1842729909392302e+00 1.4386717077836771e+01 1.8247296885253057e+01 
94 1 2 1.1309481869220472e-01 -5.3542533280581184e-01 1.0000000000000000e+00 2.8292265705738617e+00 1.9364879755038114e+01 1.7804171019748729e+01 
239 1 2 1.1309481869220472e-01 6.5905813348467257e-01 1.0000000000000000e+00 6.6310094763951888e-01 1.3334249715653034e+01 1.9755414373106813e+01 
108 1 2 1.1309481869220472e-01 -1.2386909851002668e-01 1.0000000000000000e+00 3.4814228065202721e+00 1.3133725849023714e+01 1.9849749834935103e+01 
193 1 2 1.1309481869220472e-01 -1.3963741203274886e+00 1.0000000000000000e+00 2.5792771243349359e+00 1.5262388998284548e+01 1.9440184624944241e+01 
2 1 2 1.1309481869220472e-01 1.1011001616727083e+00 1.0000000000000000e+00 7.6797420910744274e-01 1.6643639257914309e+01 1.8576417115117760e+01 
228 1 2 1.1309482205546047e-01 1.2844292950085134e+00 1.0000000000000000e+00 6.3262698660034884e+00 1.6408581928350792e+01 1.8776465108306741e+01 
309 1 2 1.1309481869220472e-01 -5.8279995187663869e-01 1.0000000000000000e+00 5.0766178549311758e-02 1.9591154224766900e+01 1.9003097683776694e+01 
78 1 2 1.1309481869220472e-01 1.3176735707613858e+00 1.0000000000000000e+00 1.0150378672941430e+01 2.8325532204754276e+00 1.1484824972357908e+00 
139 1 2 1.1309481869220472e-01 -9.0906683208066097e-01 1.0000000000000000e+00 9.8383514449108542e+00 5.3956366239071762e+00 8.0306359136565120e-01 
57 1 2 1.1309481869220472e-01 1.5211882606109737e+00 1.0000000000000000e+00 1.0615121691386085e+01 7.8225844104564572e+00 8.0355061108235137e-01 
53 1 2 1.1309481869220472e-01 2.9426869479537987e-01 1.0000000000000000e+00 1.2872885809014022e+01 7.3806918709246236e+00 5.9572869329891720e-01 
198 1 2 1.1309483101714136e-01 5.0340197378386187e-01 1.0000000000000000e+00 7.6197524911810701e+00 4.9157728703957304e-01 2.8424535155519850e+00 
231 1 2 1.1309483101714136e-01 -7.2616599926338210e-01 1.0000000000000000e+00 7.5193729184523743e+00 2.3055050750164914e+00 2.0506885391788758e+00 
185 1 2 1.1309481869220472e-01 -1.3344181724164659e+00 1.0000000000000000e+00 1.2051948304291711e+01 2.0012411905478897e+00 1.8942379993067222e+00 
55 1 2 1.1309481869220472e-01 5.4555198699384577e-02 1.0000000000000000e+00 1.2848267428003847e+01 4.1522402390841959e+00 2.8044927780430808e+00 
188 1 2 1.1309482536613634e-01 -9.7130440111070382e-01 1.0000000000000000e+00 1.2161467665129525e+01 8.5590264344070217e+00 2.5267763587120524e+00 
21 1 2 1.1309482536613634e-01 -2.2263450332314880e+00 1.0000000000000000e+00 1.0814394787317317e+01 9.8836366618265394e+00 1.9196517172461609e+00 
382 1 2 1.1309481869220472e-01 4.5059811014427420e-01 1.0000000000000000e+00 1.0585758870180360e+01 2.0274908167951349e+00 3.4934119089336857e+00 
293 1 2 1.1309481869220472e-01 5.3929752655654084e-02 1.0000000000000000e+00 7.8797660753427943e+00 3.3493094087022617e+00 3.7624551539388746e+00 
366 1 2 1.1309481869220472e-01 6.3819785070058344e-01 1.0000000000000000e+00 9.0854781970343392e+00 5.4663008930833534e+00 3.4246967626807279e+00 
244 1 2 1.1309481869220472e-01 1.3459598893435412e-02 1.0000000000000000e+00 7.0541328922136177e+00 7.2394389105036279e+00 3.1299970270312625e+00 
349 1 2 1.1309481900260941e-01 1.4156436983609146e+00 1.0000000000000000e+00 9.2374728821987730e+00 7.3202641344083688e+00 4.2761521754335279e+00 
89 1 2 1.1309481869220472e-01 -2.7415388535156850e+00 1.0000000000000000e+00 8.3985277173188511e+00 9.3136448276133503e+00 3.9067433556602156e+00 
335 1 2 1.1309481869220472e-01 3.8676077408400933e-01 1.0000000000000000e+00 9.4114016104129110e+00 1.2015972329683715e+00 5.4332454897202265e+00 
287 1 2 1.1309481869220472e-01 -3.0917897002059669e+00 1.0000000000000000e+00 7.0697775158600660e+00 5.1568906367214096e+00 4.7456732333228615e+00 
247 1 2 1.1309481869220472e-01 -4.7658526599262774e-01 1.0000000000000000e+00 9.7094919553115240e+00 4.7392036704093323e+00 5.5771382270150074e+00 
317 1 2 1.1309481869220472e-01 5.4090239676589968e-01 1.0000000000000000e+00 1.2585531813115702e+01 5.3998797746320939e+00 4.6659516704791448e+00 
114 1 2 1.1309481869220472e-01 5.7652526439403529e-01 1.0000000000000000e+00 1.1386372795012788e+01 3.6044052616405602e+00 7.0253930407715348e+00 
196 1 2 1.1309481900260941e-01 1.3318632342780090e+00 1.0000000000000000e+00 8.3724780823389970e+00 6.6780046737492542e+00 5.9524628425314114e+00 
164 1 2 1.1309481869220472e-01 9.3227492718829019e-01 1.0000000000000000e+00 9.0771923904311596e+00 9.8460331517969557e+00 6.3427508775883190e+00 
230 1 2 1.1309481869220472e-01 -5.3279556922422291e+00 1.0000000000000000e+00 1.3095956336771707e+01 9.2207598244683773e+00 6.5455912887700709e+00 
216 1 2 1.1309481869220472e-01 7.8156871954711926e-01 1.0000000000000000e+00 1.2163243563463340e+01 7.9679468542122600e-01 7.5672592138007699e+00 
360 1 2 1.1309481869220472e-01 1.1922498920122284e+00 1.0000000000000000e+00 8.8262761531612703e+00 5.1843236305892519e+00 7.7201244587580922e+00 
107 1 2 1.1309481869220472e-01 -3.5346315030316844e-01 1.0000000000000000e+00 1.2761490097135315e+01 7.1998858246155075e+00 7.1875470926560485e+00 
381 1 2 1.1309481869220472e-01 1.0575709574150904e+00 1.0000000000000000e+00 1.3203032748932703e+01 2.1676498490297821e-01 9.6244345309779664e+00 
250 1 2 1.1309481869220472e-01 1.2836548938761330e+00 1.0000000000000000e+00 7.9208730458302252e+00 1.4525149881880459e+00 8.8031617802030748e+00 
97 1 2 1.1309481869220472e-01 6.0094911750098212e-01 1.0000000000000000e+00 1.0678588008915963e+01 6.1591644510470873e+00 9.2757468086013599e+00 
330 1 2 1.1309481869220472e-01 4.6080994204224046e-01 1.0000000000000000e+00 1.2754579477116302e+01 6.1912209822257500e+00 9.0033109078482436e+00 
288 1 2 1.1309481869220472e-01 -8.4365829297598935e+00 1.0000000000000000e+00 7.1815587634711102e+00 7.3663116756075366e+00 9.2395825098837694e+00 
242 1 2 1.1309481869220472e-01 4.9862736586721101e-01 1.0000000000000000e+00 9.3281916558476912e+00 8.3676094462658224e+00 9.6744418608584883e+00 
63 1 2 1.1309481869220472e-01 8.9067035782118964e-01 1.0000000000000000e+00 1.2915376809648606e+01 2.4460374147966846e+00 1.0579961575154597e+01 
137 1 2 1.1309481869220472e-01 2.8800805243450966e-01 1.0000000000000000e+00 9.6746262182080134e+00 3.3020077956354283e+00 1.0676717123823208e+01 
91 1 2 1.1309481869220472e-01 -1.0650401878035862e+00 1.0000000000000000e+00 7.9294323298717195e+00 9.2237216524085719e-01 1.2834756651610101e+01 
191 1 2 1.1309481869220472e-01 -2.1379978834286004e+00 1.0000000000000000e+00 1.0635547495876036e+01 3.5000271904621788e-01 1.1520813285972434e+01 
155 1 2 1.1309481869220631e-01 3.5256332361849968e-01 1.0000000000000000e+00 6.6803149682297454e+00 3.5139006408425191e+00 1.2427718456205712e+01 
221 1 2 1.1309481869220472e-01 1.6416119535852536e+00 1.0000000000000000e+00 1.3118173736607881e+01 4.2828452940175739e+00 1.2764582592340506e+01 
262 1 2 1.1309481977857594e-01 2.2267990775904343e+00 1.0000000000000000e+00 7.2400189393238730e+00 5.5511296657522902e+00 1.1749233213429537e+01 
283 1 2 1.1309481977857594e-01 8.3137756536890084e-01 1.0000000000000000e+00 9.1868379357645882e+00 5.1574739405687433e+00 1.1626158730712083e+01 
76 1 2 1.1309481869220472e-01 1.0111281834438424e+00 1.0000000000000000e+00 1.1441852689986284e+01 6.4258560019015043e+00 1.1826121597216781e+01 
353 1 2 1.1309481869220472e-01 1.5003224677362366e+00 1.0000000000000000e+00 8.0665750131856040e+00 8.2162221751181903e+00 1.2146451265358168e+01 
290 1 2 1.1309481869220472e-01 1.5522613046493317e+00 1.0000000000000000e+00 1.1947877058918063e+01 8.5257646536003424e+00 1.2646663851678680e+01 
384 1 2 1.1309481869220472e-01 -1.0079023971421823e+00 1.0000000000000000e+00 1.2993652848776799e+01 1.2825803389710058e+00 1.3602856514524436e+01 
4 1 2 1.1309481869220472e-01 1.0906875037501140e+00 1.0000000000000000e+00 1.0981847335084547e+01 2.1814886784568697e+00 1.3481407675092745e+01 
260 1 2 1.1309481869220631e-01 1.8988858400137223e+00 1.0000000000000000e+00 7.4081304352215538e+00 4.4784303459843935e+00 1.4020706961249022e+01 
166 1 2 1.1309481869220472e-01 3.1106310243982255e-01 1.0000000000000000e+00 1.0000429913370757e+01 4.3423139125287173e+00 1.4228564955609137e+01 
159 1 2 1.1309481869220472e-01 1.6575826252787684e-01 1.0000000000000000e+00 9.6574638022710158e+00 8.5036506815500044e+00 1.3984618802284226e+01 
316 1 2 1.1309481932701004e-01 1.0416135019143233e+00 1.0000000000000000e+00 9.2898190726107401e+00 4.4421980309194570e-01 1.4871642380077258e+01 
50 1 2 1.1309481869220472e-01 4.5015149302181812e-01 1.0000000000000000e+00 1.1450108849144728e+01 3.2854909418339719e+00 1.5283703716607757e+01 
372 1 2 1.1309481869220472e-01 5.7267595124378379e-01 1.0000000000000000e+00 8.5864666715210785e+00 6.7317136946950455e+00 1.4298742444452699e+01 
65 1 2 1.1309481869220472e-01 1.2560901921135198e-01 1.0000000000000000e+00 1.1244850515764162e+01 7.0187507164434058e+00 1.4464490108901517e+01 
323 1 2 1.1309481869220472e-01 4.7317371018623378e-01 1.0000000000000000e+00 8.6544733615415712e+00 9.6703388114370501e+00 1.5697413259992260e+01 
313 1 2 1.1309481869220472e-01 -4.8911761851490039e-04 1.0000000000000000e+00 1.1394360122477039e+01 9.7375505161763876e+00 1.4586606037411299e+01 
177 1 2 1.1309481932701004e-01 1.9110212935437679e-01 1.0000000000000000e+00 9.0828303224454174e+00 1.2670031753596247e+00 1.6673202234675845e+01 
125 1 2 1.1309481869220472e-01 -4.1485177946603438e+00 1.0000000000000000e+00 9.5143736799911238e+00 5.1992330548064762e+00 1.6431187459734272e+01 
60 1 2 1.1309481869220472e-01 8.5046979507860421e-01 1.0000000000000000e+00 1.2129394645134099e+01 7.7551101058204690e+00 1.7128827839083304e+01 
325 1 2 1.1309481869220472e-01 5.7419608417824164e-01 1.0000000000000000e+00 7.5943192445767203e+00 2.3918556130920630e+00 1.8448036162770908e+01 
251 1 2 1.1309481869220472e-01 1.8073814302117981e+00 1.0000000000000000e+00 1.1287424881489617e+01 2.0957911771506321e+00 1.7608219019455181e+01 
320 1 2 1.1309481869220472e-01 5.8059486725417653e-01 1.0000000000000000e+00 1.0277642039522341e+01 4.2078041500100030e+00 1.8215765841785107e+01 
277 1 2 1.1309481869220472e-01 6.1379896309414783e-01 1.0000000000000000e+00 7.7929704561605551e+00 4.2921377902018500e+00 1.7531286324984208e+01 
229 1 2 1.1309481869220472e-01 -4.2051319482328360e+00 1.0000000000000000e+00 8.2002984081073684e+00 8.3122664518385996e+00 1.8553184471420924e+01 
270 1 2 1.1309481869220472e-01 2.1470382602419702e-01 1.0000000000000000e+00 1.2093346886726032e+01 3.2375100520605016e+00 1.9886840560087890e+01 
129 1 2 1.1309481869220472e-01 1.0265108801746103e+00 1.0000000000000000e+00 1.1275535941307604e+01 8.8842180114212326e+00 1.8966044695070334e+01 
300 1 2 1.1309481869220472e-01 2.5890782142917725e+00 1.0000000000000000e+00 8.5208722933357333e+00 1.0224839177471148e+01 3.3740309648450950e-01 
328 1 2 1.1309481869220472e-01 2.9120276963917424e-01 1.0000000000000000e+00 7.5891076305999610e+00 1.2329690615602528e+01 3.3325082774086162e-01 
271 1 2 1.1309481869220472e-01 -8.2682828362039267e+00 1.0000000000000000e+00 8.7101071134047068e+00 1.4262091668538186e+01 8.9542479081365656e-01 
73 1 2 1.1309481869220472e-01 5.3637476511220417e-01 1.0000000000000000e+00 1.2499106232576491e+01 1.7921925287618475e+01 1.2840664491619678e+00 
304 1 2 1.1309481869220472e-01 6.3494814983798231e-01 1.0000000000000000e+00 6.8469999750013883e+00 1.1196352882681266e+01 1.8236882703395352e+00 
218 1 2 1.1309481869220472e-01 -3.3945626926990013e-01 1.0000000000000000e+00 1.2407100813279664e+01 1.2546526448974721e+01 2.0093299485126361e+00 
135 1 2 1.1309481869220472e-01 5.0655721097257933e-01 1.0000000000000000e+00 7.3098551174610051e+00 1.4864980987374929e+01 2.3693466175395259e+00 
298 1 2 1.1309481869220472e-01 -3.5900632355922077e+00 1.0000000000000000e+00 9.0705489920234044e+00 1.6602236505338187e+01 1.6972861348416359e+00 