LAMMPS data file via write_data, version 30 Jul 2016, timestep = 1000000

2080 atoms
8 atom types

0.0000000000000000e+00 4.0000000000000000e+01 xlo xhi
0.0000000000000000e+00 4.0000000000000000e+01 ylo yhi
0.0000000000000000e+00 1.0000000000000000e+02 zlo zhi

Masses

1 3.896
2 21.44
3 1058.08
4 8.378
5 8.378
6 8.378
7 8.378
8 8.378

Atoms # meso-molecular

1 2 4 2.2559723595316457e+00 -3.2394946081470971e+03 4.2000000000000000e+03 0.0000000000000000e+00 0.0000000000000000e+00 2.5000000000000000e+00 
2 2 4 2.2559723595316457e+00 -1.4744934296788099e+03 4.2000000000000000e+03 0.0000000000000000e+00 2.0000000000000000e+00 2.5000000000000000e+00 
3 2 4 2.2559723595316457e+00 -2.0889924376337973e+02 4.2000000000000000e+03 0.0000000000000000e+00 4.0000000000000000e+00 2.5000000000000000e+00 
21 2 4 2.2559723595316457e+00 -3.9380396166033029e+02 4.2000000000000000e+03 2.0000000000000000e+00 0.0000000000000000e+00 2.5000000000000000e+00 
22 2 4 2.2559723595316457e+00 4.1141013777391902e+02 4.2000000000000000e+03 2.0000000000000000e+00 2.0000000000000000e+00 2.5000000000000000e+00 
23 2 4 2.2559723595316457e+00 4.1361051294518700e+02 4.2000000000000000e+03 2.0000000000000000e+00 4.0000000000000000e+00 2.5000000000000000e+00 
41 2 4 2.2559723595316457e+00 4.4584680414967461e+03 4.2000000000000000e+03 4.0000000000000000e+00 0.0000000000000000e+00 2.5000000000000000e+00 
42 2 4 2.2559723595316457e+00 3.5215274067450309e+03 4.2000000000000000e+03 4.0000000000000000e+00 2.0000000000000000e+00 2.5000000000000000e+00 
43 2 4 2.2559723595316457e+00 1.3311068059295569e+03 4.2000000000000000e+03 4.0000000000000000e+00 4.0000000000000000e+00 2.5000000000000000e+00 
61 2 4 2.2559723595316457e+00 4.9055961342917999e+03 4.2000000000000000e+03 6.0000000000000000e+00 0.0000000000000000e+00 2.5000000000000000e+00 
62 2 4 2.2559723595316457e+00 3.5415535160519917e+03 4.2000000000000000e+03 6.0000000000000000e+00 2.0000000000000000e+00 2.5000000000000000e+00 
63 2 4 2.2559723595316457e+00 1.2349956335862787e+03 4.2000000000000000e+03 6.0000000000000000e+00 4.0000000000000000e+00 2.5000000000000000e+00 
81 2 4 2.2559723595316457e+00 6.0686363865180351e+02 4.2000000000000000e+03 8.0000000000000000e+00 0.0000000000000000e+00 2.5000000000000000e+00 
82 2 4 2.2559723595316457e+00 5.3349916955638696e+02 4.2000000000000000e+03 8.0000000000000000e+00 2.0000000000000000e+00 2.5000000000000000e+00 
83 2 4 2.2559723595316457e+00 1.7059940964707371e+02 4.2000000000000000e+03 8.0000000000000000e+00 4.0000000000000000e+00 2.5000000000000000e+00 
101 2 4 2.2559723595316457e+00 -1.6230311572075859e+03 4.2000000000000000e+03 1.0000000000000000e+01 0.0000000000000000e+00 2.5000000000000000e+00 
102 2 4 2.2559723595316457e+00 -1.3111184043926417e+03 4.2000000000000000e+03 1.0000000000000000e+01 2.0000000000000000e+00 2.5000000000000000e+00 
103 2 4 2.2559723595316457e+00 -2.1421919896278013e+02 4.2000000000000000e+03 1.0000000000000000e+01 4.0000000000000000e+00 2.5000000000000000e+00 
121 2 4 2.2559723595316457e+00 -3.0349399972061119e+03 4.2000000000000000e+03 1.2000000000000000e+01 0.0000000000000000e+00 2.5000000000000000e+00 
122 2 4 2.2559723595316457e+00 -2.8654192919514489e+03 4.2000000000000000e+03 1.2000000000000000e+01 2.0000000000000000e+00 2.5000000000000000e+00 
123 2 4 2.2559723595316457e+00 -6.6671991702915511e+02 4.2000000000000000e+03 1.2000000000000000e+01 4.0000000000000000e+00 2.5000000000000000e+00 
141 2 4 2.2559723595316457e+00 -6.9648578470485736e+03 4.2000000000000000e+03 1.4000000000000000e+01 0.0000000000000000e+00 2.5000000000000000e+00 
142 2 4 2.2559723595316457e+00 -5.3544638006032765e+03 4.2000000000000000e+03 1.4000000000000000e+01 2.0000000000000000e+00 2.5000000000000000e+00 
143 2 4 2.2559723595316457e+00 -1.5271208947718719e+03 4.2000000000000000e+03 1.4000000000000000e+01 4.0000000000000000e+00 2.5000000000000000e+00 
161 2 4 2.2559723595316457e+00 -6.2361418194146208e+03 4.2000000000000000e+03 1.6000000000000000e+01 0.0000000000000000e+00 2.5000000000000000e+00 
162 2 4 2.2559723595316457e+00 -3.4545856783704921e+03 4.2000000000000000e+03 1.6000000000000000e+01 2.0000000000000000e+00 2.5000000000000000e+00 
163 2 4 2.2559723595316457e+00 1.1901055419511067e+03 4.2000000000000000e+03 1.6000000000000000e+01 4.0000000000000000e+00 2.5000000000000000e+00 
181 2 4 2.2559723595316457e+00 9.3244696062284947e+02 4.2000000000000000e+03 1.8000000000000000e+01 0.0000000000000000e+00 2.5000000000000000e+00 
182 2 4 2.2559723595316457e+00 3.5702547237120630e+03 4.2000000000000000e+03 1.8000000000000000e+01 2.0000000000000000e+00 2.5000000000000000e+00 
183 2 4 2.2559723595316457e+00 5.6654341658589346e+03 4.2000000000000000e+03 1.8000000000000000e+01 4.0000000000000000e+00 2.5000000000000000e+00 
4 2 4 2.2559723595316457e+00 -4.6851311693706742e+02 4.2000000000000000e+03 0.0000000000000000e+00 6.0000000000000000e+00 2.5000000000000000e+00 
5 2 4 2.2559723595316457e+00 -7.5555136981711848e+02 4.2000000000000000e+03 0.0000000000000000e+00 8.0000000000000000e+00 2.5000000000000000e+00 
24 2 4 2.2559723595316457e+00 -1.5626806651784750e+02 4.2000000000000000e+03 2.0000000000000000e+00 6.0000000000000000e+00 2.5000000000000000e+00 
25 2 4 2.2559723595316457e+00 7.2567236573111722e+02 4.2000000000000000e+03 2.0000000000000000e+00 8.0000000000000000e+00 2.5000000000000000e+00 
44 2 4 2.2559723595316457e+00 -2.6904938849706981e+00 4.2000000000000000e+03 4.0000000000000000e+00 6.0000000000000000e+00 2.5000000000000000e+00 
45 2 4 2.2559723595316457e+00 9.3574849071944811e+02 4.2000000000000000e+03 4.0000000000000000e+00 8.0000000000000000e+00 2.5000000000000000e+00 
64 2 4 2.2559723595316457e+00 -2.9859208734825422e+01 4.2000000000000000e+03 6.0000000000000000e+00 6.0000000000000000e+00 2.5000000000000000e+00 
65 2 4 2.2559723595316457e+00 -8.7796954249616363e+02 4.2000000000000000e+03 6.0000000000000000e+00 8.0000000000000000e+00 2.5000000000000000e+00 
84 2 4 2.2559723595316457e+00 1.0712464830091785e+02 4.2000000000000000e+03 8.0000000000000000e+00 6.0000000000000000e+00 2.5000000000000000e+00 
85 2 4 2.2559723595316457e+00 -1.2044974361053942e+03 4.2000000000000000e+03 8.0000000000000000e+00 8.0000000000000000e+00 2.5000000000000000e+00 
104 2 4 2.2559723595316457e+00 9.5630346421364425e+02 4.2000000000000000e+03 1.0000000000000000e+01 6.0000000000000000e+00 2.5000000000000000e+00 
105 2 4 2.2559723595316457e+00 1.4972518973901165e+03 4.2000000000000000e+03 1.0000000000000000e+01 8.0000000000000000e+00 2.5000000000000000e+00 
124 2 4 2.2559723595316457e+00 1.8377187065639203e+03 4.2000000000000000e+03 1.2000000000000000e+01 6.0000000000000000e+00 2.5000000000000000e+00 
125 2 4 2.2559723595316457e+00 3.1792751561268215e+03 4.2000000000000000e+03 1.2000000000000000e+01 8.0000000000000000e+00 2.5000000000000000e+00 
144 2 4 2.2559723595316457e+00 1.5132018244037918e+03 4.2000000000000000e+03 1.4000000000000000e+01 6.0000000000000000e+00 2.5000000000000000e+00 
145 2 4 2.2559723595316457e+00 4.3044095464144812e+02 4.2000000000000000e+03 1.4000000000000000e+01 8.0000000000000000e+00 2.5000000000000000e+00 
164 2 4 2.2559723595316457e+00 2.1311521479360244e+03 4.2000000000000000e+03 1.6000000000000000e+01 6.0000000000000000e+00 2.5000000000000000e+00 
165 2 4 2.2559723595316457e+00 -3.5114270667634955e+03 4.2000000000000000e+03 1.6000000000000000e+01 8.0000000000000000e+00 2.5000000000000000e+00 
184 2 4 2.2559723595316457e+00 3.3243067884265256e+03 4.2000000000000000e+03 1.8000000000000000e+01 6.0000000000000000e+00 2.5000000000000000e+00 
185 2 4 2.2559723595316457e+00 -5.2544843369127921e+03 4.2000000000000000e+03 1.8000000000000000e+01 8.0000000000000000e+00 2.5000000000000000e+00 
6 2 4 2.2559723595316457e+00 2.5639825931526934e+02 4.2000000000000000e+03 0.0000000000000000e+00 1.0000000000000000e+01 2.5000000000000000e+00 
7 2 4 2.2559723595316457e+00 1.2863054937734014e+03 4.2000000000000000e+03 0.0000000000000000e+00 1.2000000000000000e+01 2.5000000000000000e+00 
8 2 4 2.2559723595316457e+00 1.2031671752337375e+03 4.2000000000000000e+03 0.0000000000000000e+00 1.4000000000000000e+01 2.5000000000000000e+00 
26 2 4 2.2559723595316457e+00 3.6594702756687116e+03 4.2000000000000000e+03 2.0000000000000000e+00 1.0000000000000000e+01 2.5000000000000000e+00 
27 2 4 2.2559723595316457e+00 5.0207391713677953e+03 4.2000000000000000e+03 2.0000000000000000e+00 1.2000000000000000e+01 2.5000000000000000e+00 
28 2 4 2.2559723595316457e+00 3.0244993305441026e+03 4.2000000000000000e+03 2.0000000000000000e+00 1.4000000000000000e+01 2.5000000000000000e+00 
46 2 4 2.2559723595316457e+00 3.0233605498920110e+03 4.2000000000000000e+03 4.0000000000000000e+00 1.0000000000000000e+01 2.5000000000000000e+00 
47 2 4 2.2559723595316457e+00 3.9176211787879583e+03 4.2000000000000000e+03 4.0000000000000000e+00 1.2000000000000000e+01 2.5000000000000000e+00 
48 2 4 2.2559723595316457e+00 2.3305702212901469e+03 4.2000000000000000e+03 4.0000000000000000e+00 1.4000000000000000e+01 2.5000000000000000e+00 
66 2 4 2.2559723595316457e+00 -2.6000039749855096e+03 4.2000000000000000e+03 6.0000000000000000e+00 1.0000000000000000e+01 2.5000000000000000e+00 
67 2 4 2.2559723595316457e+00 -3.1000371933837546e+03 4.2000000000000000e+03 6.0000000000000000e+00 1.2000000000000000e+01 2.5000000000000000e+00 
68 2 4 2.2559723595316457e+00 -1.0156967468206083e+03 4.2000000000000000e+03 6.0000000000000000e+00 1.4000000000000000e+01 2.5000000000000000e+00 
86 2 4 2.2559723595316457e+00 -4.3922134750046207e+03 4.2000000000000000e+03 8.0000000000000000e+00 1.0000000000000000e+01 2.5000000000000000e+00 
87 2 4 2.2559723595316457e+00 -5.8124076725692739e+03 4.2000000000000000e+03 8.0000000000000000e+00 1.2000000000000000e+01 2.5000000000000000e+00 
88 2 4 2.2559723595316457e+00 -1.6455910036990285e+03 4.2000000000000000e+03 8.0000000000000000e+00 1.4000000000000000e+01 2.5000000000000000e+00 
106 2 4 2.2559723595316457e+00 1.1273575671526812e+02 4.2000000000000000e+03 1.0000000000000000e+01 1.0000000000000000e+01 2.5000000000000000e+00 
107 2 4 2.2559723595316457e+00 -2.7016869870885516e+03 4.2000000000000000e+03 1.0000000000000000e+01 1.2000000000000000e+01 2.5000000000000000e+00 
108 2 4 2.2559723595316457e+00 -2.1805322319894744e+03 4.2000000000000000e+03 1.0000000000000000e+01 1.4000000000000000e+01 2.5000000000000000e+00 
126 2 4 2.2559723595316457e+00 2.5112142048050350e+03 4.2000000000000000e+03 1.2000000000000000e+01 1.0000000000000000e+01 2.5000000000000000e+00 
127 2 4 2.2559723595316457e+00 -1.5216385489702120e+03 4.2000000000000000e+03 1.2000000000000000e+01 1.2000000000000000e+01 2.5000000000000000e+00 
128 2 4 2.2559723595316457e+00 -5.8749621656371291e+03 4.2000000000000000e+03 1.2000000000000000e+01 1.4000000000000000e+01 2.5000000000000000e+00 
146 2 4 2.2559723595316457e+00 -2.9873534656936740e+03 4.2000000000000000e+03 1.4000000000000000e+01 1.0000000000000000e+01 2.5000000000000000e+00 
147 2 4 2.2559723595316457e+00 -7.0952051583307293e+03 4.2000000000000000e+03 1.4000000000000000e+01 1.2000000000000000e+01 2.5000000000000000e+00 
148 2 4 2.2559723595316457e+00 -1.1250074591377310e+04 4.2000000000000000e+03 1.4000000000000000e+01 1.4000000000000000e+01 2.5000000000000000e+00 
166 2 4 2.2559723595316457e+00 -1.2235978237542095e+04 4.2000000000000000e+03 1.6000000000000000e+01 1.0000000000000000e+01 2.5000000000000000e+00 
167 2 4 2.2559723595316457e+00 -1.7478873586593330e+04 4.2000000000000000e+03 1.6000000000000000e+01 1.2000000000000000e+01 2.5000000000000000e+00 
168 2 4 2.2559723595316457e+00 -1.8337396649462866e+04 4.2000000000000000e+03 1.6000000000000000e+01 1.4000000000000000e+01 2.5000000000000000e+00 
186 2 4 2.2559723595316457e+00 -1.7430761392331253e+04 4.2000000000000000e+03 1.8000000000000000e+01 1.0000000000000000e+01 2.5000000000000000e+00 
187 2 4 2.2559723595316457e+00 -2.4379584435420540e+04 4.2000000000000000e+03 1.8000000000000000e+01 1.2000000000000000e+01 2.5000000000000000e+00 
188 2 4 2.2559723595316457e+00 -2.3441022755406608e+04 4.2000000000000000e+03 1.8000000000000000e+01 1.4000000000000000e+01 2.5000000000000000e+00 
9 2 4 2.2559723595316457e+00 1.6365796876998747e+03 4.2000000000000000e+03 0.0000000000000000e+00 1.6000000000000000e+01 2.5000000000000000e+00 
10 2 4 2.2559723595316457e+00 1.1502502818249468e+03 4.2000000000000000e+03 0.0000000000000000e+00 1.8000000000000000e+01 2.5000000000000000e+00 
29 2 4 2.2559723595316457e+00 8.4933904664787951e+02 4.2000000000000000e+03 2.0000000000000000e+00 1.6000000000000000e+01 2.5000000000000000e+00 
30 2 4 2.2559723595316457e+00 -1.1832948012357167e+02 4.2000000000000000e+03 2.0000000000000000e+00 1.8000000000000000e+01 2.5000000000000000e+00 
49 2 4 2.2559723595316457e+00 3.7965210170114699e+02 4.2000000000000000e+03 4.0000000000000000e+00 1.6000000000000000e+01 2.5000000000000000e+00 
50 2 4 2.2559723595316457e+00 -5.1479641815537192e+01 4.2000000000000000e+03 4.0000000000000000e+00 1.8000000000000000e+01 2.5000000000000000e+00 
69 2 4 2.2559723595316457e+00 1.1569244246371791e+03 4.2000000000000000e+03 6.0000000000000000e+00 1.6000000000000000e+01 2.5000000000000000e+00 
70 2 4 2.2559723595316457e+00 1.2992768251952157e+03 4.2000000000000000e+03 6.0000000000000000e+00 1.8000000000000000e+01 2.5000000000000000e+00 
89 2 4 2.2559723595316457e+00 3.7225448458862884e+03 4.2000000000000000e+03 8.0000000000000000e+00 1.6000000000000000e+01 2.5000000000000000e+00 
90 2 4 2.2559723595316457e+00 4.1743351328082317e+03 4.2000000000000000e+03 8.0000000000000000e+00 1.8000000000000000e+01 2.5000000000000000e+00 
109 2 4 2.2559723595316457e+00 1.8600100204204937e+03 4.2000000000000000e+03 1.0000000000000000e+01 1.6000000000000000e+01 2.5000000000000000e+00 
110 2 4 2.2559723595316457e+00 3.6034866056940091e+03 4.2000000000000000e+03 1.0000000000000000e+01 1.8000000000000000e+01 2.5000000000000000e+00 
129 2 4 2.2559723595316457e+00 -5.2886269454637422e+03 4.2000000000000000e+03 1.2000000000000000e+01 1.6000000000000000e+01 2.5000000000000000e+00 
130 2 4 2.2559723595316457e+00 -2.2521373698609882e+03 4.2000000000000000e+03 1.2000000000000000e+01 1.8000000000000000e+01 2.5000000000000000e+00 
149 2 4 2.2559723595316457e+00 -1.1833579039303368e+04 4.2000000000000000e+03 1.4000000000000000e+01 1.6000000000000000e+01 2.5000000000000000e+00 
150 2 4 2.2559723595316457e+00 -9.5042092987081924e+03 4.2000000000000000e+03 1.4000000000000000e+01 1.8000000000000000e+01 2.5000000000000000e+00 
169 2 4 2.2559723595316457e+00 -1.8157761627671716e+04 4.2000000000000000e+03 1.6000000000000000e+01 1.6000000000000000e+01 2.5000000000000000e+00 
170 2 4 2.2559723595316457e+00 -1.7740606278457759e+04 4.2000000000000000e+03 1.6000000000000000e+01 1.8000000000000000e+01 2.5000000000000000e+00 
189 2 4 2.2559723595316457e+00 -2.2157801302951757e+04 4.2000000000000000e+03 1.8000000000000000e+01 1.6000000000000000e+01 2.5000000000000000e+00 
190 2 4 2.2559723595316457e+00 -2.2948384489400254e+04 4.2000000000000000e+03 1.8000000000000000e+01 1.8000000000000000e+01 2.5000000000000000e+00 
1026 628 2 1.0279597827996130e+00 -3.5861808266443847e+05 4.2000000000000000e+03 6.8398314980527397e+00 4.0859053089235600e+00 1.1433964911017329e+01 
658 260 2 1.0279597827845353e+00 -1.4160161064622749e+05 4.2000000000000000e+03 6.8398319151573572e+00 4.0859053815244621e+00 1.1433964817290592e+01 
1807 1409 2 1.0279597826840432e+00 -4.5611139033754374e+05 4.2000000000000000e+03 6.8398346828820564e+00 4.0859058632168681e+00 1.1433964195082048e+01 
1845 1447 2 1.0279598186835006e+00 2.6720182155350532e+05 4.2000000000000000e+03 6.8412812080891614e+00 4.0861805956554500e+00 1.1433640926687003e+01 
1012 614 2 1.0280064674393092e+00 -1.6310097843327017e+04 4.2000000000000000e+03 8.4410709542082625e+00 3.1978822145452961e+00 1.1332770111139526e+01 
566 168 2 1.0280038656398860e+00 3.4792322586357116e+05 4.2000000000000000e+03 8.7378527647971023e+00 3.2291991783753424e+00 1.1289002036450878e+01 
1083 685 2 1.0280031109677512e+00 -5.4281340026402590e+05 4.2000000000000000e+03 9.3204211053433195e+00 2.6811923596792648e+00 1.1273464357266468e+01 
407 9 2 1.0280965355384728e+00 2.3734267921210019e+05 4.2000000000000000e+03 1.1172834945228734e+01 1.9402033924197537e+00 1.1124914192865361e+01 
475 77 2 1.0278860158697953e+00 1.4327006300254635e+05 4.2000000000000000e+03 1.1252505392386526e+01 1.8587661183917668e+00 1.1143347429710351e+01 
1806 1408 2 1.0279135540710453e+00 -4.7577143423106172e+05 4.2000000000000000e+03 1.2350958547118108e+01 1.3009511191463168e+00 1.1090891387570618e+01 
659 261 2 1.0279543846159431e+00 -1.4645592266553812e+05 4.2000000000000000e+03 1.2360375518053596e+01 1.2918140198979120e+00 1.1091332200527663e+01 
986 588 2 1.0280196744895178e+00 -6.6281165163033502e+05 4.2000000000000000e+03 1.2446367158857363e+01 1.2370378453678212e+00 1.1017357658736231e+01 
610 212 2 1.0280039307078217e+00 -2.5630356757353686e+05 4.2000000000000000e+03 1.2510362275085111e+01 1.2241991195852246e+00 1.1166161573078398e+01 
2062 1664 2 1.0280181357985911e+00 1.5090971817816707e+05 4.2000000000000000e+03 1.4733977912148653e+01 3.5502205758199279e-01 1.0741904165229597e+01 
2046 1648 2 1.0280347935190957e+00 7.6521928506452939e+04 4.2000000000000000e+03 4.7975063846628760e+00 5.2759946691147359e+00 1.1506483600671805e+01 
474 76 2 1.0279100966194092e+00 1.4968546728190267e+05 4.2000000000000000e+03 2.5666433041535415e+00 6.2987491641408493e+00 1.1748238012907319e+01 
1046 648 2 1.0278995480399979e+00 -5.6756714779852866e+05 4.2000000000000000e+03 2.5618776848518872e+00 6.2952647746067276e+00 1.1748192649445437e+01 
1466 1068 2 1.0278990870340465e+00 -5.5220229705154872e+05 4.2000000000000000e+03 2.5615963653529628e+00 6.2950948383014129e+00 1.1748140077856215e+01 
611 213 2 1.0280659513781203e+00 -2.6828048086291732e+05 4.2000000000000000e+03 2.4042978129281947e+00 6.5803295612187167e+00 1.1840052563524278e+01 
1310 912 2 1.0280617501658944e+00 -5.4118835360464104e+05 4.2000000000000000e+03 2.4061837868575493e+00 6.5647901236130739e+00 1.1858987605014635e+01 
1927 1529 2 1.0280654572092864e+00 4.1363160930813471e+05 4.2000000000000000e+03 4.8378681422345435e+00 5.2756655973807440e+00 1.1495281888943552e+01 
1237 839 2 1.0279971841010338e+00 6.2619711632845679e+05 4.2000000000000000e+03 9.8725054261302709e+00 9.6910051698353286e+00 1.3231002926767214e+01 
979 581 2 1.0279979116072173e+00 -9.0689833335281641e+05 4.2000000000000000e+03 9.5821898320788250e+00 9.9420264754734333e+00 1.2969954427966078e+01 
1978 1580 2 1.0279983409244184e+00 3.1928759417836892e+05 4.2000000000000000e+03 9.6210968849230536e+00 9.9985094649045685e+00 1.2947073876594816e+01 
879 481 2 1.0279968218678559e+00 -6.5787554718844872e+05 4.2000000000000000e+03 1.0076903613126857e+01 9.5186989694101189e+00 1.3416871561140443e+01 
1069 671 2 1.0279888904253667e+00 4.3360340862412413e+05 4.2000000000000000e+03 4.5088154819870114e+00 1.4377771758587544e+01 1.3154171003941514e+01 
1859 1461 2 1.0279989815691637e+00 -4.0007602955888712e+05 4.2000000000000000e+03 5.0038308787955934e+00 1.2063753852828572e+01 1.4126441735575789e+01 
1483 1085 2 1.0279985706386452e+00 -9.0583511600080493e+05 4.2000000000000000e+03 5.0350657754441155e+00 1.2309122004758603e+01 1.4248886675480371e+01 
534 136 2 1.0279998181716370e+00 8.1831388955379531e+04 4.2000000000000000e+03 7.3092988996005044e+00 1.0407739060323646e+01 1.2228363208321676e+01 
1144 746 2 1.0279990889398409e+00 2.2016574369406630e+05 4.2000000000000000e+03 7.0893859968134905e+00 1.0700668559067550e+01 1.2083741439756711e+01 
1811 1413 2 1.0279998801209653e+00 -5.4591961017598223e+05 4.2000000000000000e+03 5.8467430303085619e+00 1.1035492358252391e+01 1.2365160735313474e+01 
476 78 2 1.0280012098694089e+00 4.7768557294426713e+05 4.2000000000000000e+03 7.1141699473272197e+00 1.3360035014824925e+01 1.1779855990770903e+01 
1321 923 2 1.0279959075942857e+00 3.7227179141027509e+05 4.2000000000000000e+03 3.2955536872049604e+00 1.6229041707519237e+01 1.2712554564214292e+01 
1240 842 2 1.0279966692075897e+00 6.2207214801425883e+05 4.2000000000000000e+03 3.1781104186521949e+00 1.6312598111611596e+01 1.2613337649029370e+01 
1986 1588 2 1.0279974909587035e+00 1.3159569397324303e+05 4.2000000000000000e+03 2.2930412021978746e+00 1.7123572970514605e+01 1.2637069859070790e+01 
1765 1367 2 1.0279968230167669e+00 6.1008663755059490e+04 4.2000000000000000e+03 1.7081799888535658e+00 1.7746339345722813e+01 1.3387562547694843e+01 
1259 861 2 1.0279887101063094e+00 -5.3678689382582332e+05 4.2000000000000000e+03 1.5503447337743925e+00 1.9299968525224383e+01 1.1627179136518809e+01 
1832 1434 2 1.0280008568810339e+00 1.8637427124726953e+05 4.2000000000000000e+03 4.1005370420355911e+00 1.8889967340865034e+01 1.0378837534376784e+01 
1744 1346 2 1.0280076280577854e+00 5.6490784193284262e+05 4.2000000000000000e+03 3.6111611183451058e+00 1.9207693819987419e+01 1.3325931247331502e+01 
1790 1392 2 1.0280004164248893e+00 -3.7053940099296684e+05 4.2000000000000000e+03 4.4182434979575609e+00 1.9032878927914187e+01 1.0317791907355618e+01 
1312 914 2 1.0280001254151387e+00 2.0144835286662792e+05 4.2000000000000000e+03 1.5448881094891036e+00 1.8252394645319804e+01 1.4223128225492475e+01 
752 354 2 1.0280015340197219e+00 2.6944110743939120e+05 4.2000000000000000e+03 5.7877862007013361e+00 1.5090880976219118e+01 1.1168776143955172e+01 
1833 1435 2 1.0279978669350507e+00 1.7045873768586552e+05 4.2000000000000000e+03 8.3655525948908114e+00 1.6575150848324196e+01 1.1766647042246596e+01 
1914 1516 2 1.0279971467426103e+00 4.3852361873293394e+05 4.2000000000000000e+03 8.0085571298782661e+00 1.6981442282996099e+01 1.1476335657780796e+01 
1634 1236 2 1.0279970935333755e+00 -6.4748415311021428e+05 4.2000000000000000e+03 7.9276220462088300e+00 1.7087883299421723e+01 1.1419655441593926e+01 
2079 1681 2 1.0279972567427784e+00 3.3791140212534874e+05 4.2000000000000000e+03 7.8217917456263875e+00 1.7188859741254706e+01 1.1314859418628194e+01 
582 184 2 1.0279998021708794e+00 -4.2608405081610812e+05 4.2000000000000000e+03 6.4796927016100483e+00 1.7946148214503552e+01 1.0204785273971362e+01 
707 309 2 1.0280007787081062e+00 1.0029707026828801e+04 4.2000000000000000e+03 5.2380636387829700e+00 1.8462100453896312e+01 1.0050475596637606e+01 
605 207 2 1.0279980111571754e+00 1.8470506360129651e+05 4.2000000000000000e+03 5.6360740102970510e+00 1.9011231977483654e+01 1.0271366330020863e+01 
1072 674 2 1.0279969527814388e+00 4.4898244246043422e+05 4.2000000000000000e+03 1.1757794483623195e+01 1.5080682382021754e+01 1.4257763887361108e+01 
418 20 2 1.0279966417936210e+00 1.5520878130195948e+05 4.2000000000000000e+03 1.1654378858740454e+01 1.5274504433030804e+01 1.4189791915769801e+01 
1457 1059 2 1.0279974714535425e+00 8.4654442506601772e+04 4.2000000000000000e+03 1.0572904313213620e+01 1.6205504965503859e+01 1.4205274046279882e+01 
467 69 2 1.0279997283350810e+00 3.2546194372056972e+05 4.2000000000000000e+03 1.4306260308546790e+01 4.4394734865471772e+00 1.8432532859140757e+01 
2076 1678 2 1.0280001985351255e+00 4.0469326512702735e+05 4.2000000000000000e+03 1.4332328111773666e+01 4.3124199534525927e+00 1.8499518495666898e+01 
1908 1510 2 1.0280003050098403e+00 3.3897380910474836e+05 4.2000000000000000e+03 1.4350376635165794e+01 4.2949013414911681e+00 1.8521441882880218e+01 
1396 998 2 1.0280003704185301e+00 2.6247996030999348e+05 4.2000000000000000e+03 9.9655851284168513e+00 6.2813416723869606e+00 1.8663238446532162e+01 
1313 915 2 1.0280009975996611e+00 3.2425653465617582e+05 4.2000000000000000e+03 9.8424349825389417e+00 6.6168424264136503e+00 1.8402050328139349e+01 
1251 853 2 1.0280011242370986e+00 -5.4356880829678371e+05 4.2000000000000000e+03 9.8184753011072523e+00 6.7114951790089252e+00 1.8330922440465375e+01 
1810 1412 2 1.0280013715694731e+00 -5.3971283841696987e+05 4.2000000000000000e+03 9.8913520476426964e+00 6.7579492546396001e+00 1.7504125217856885e+01 
956 558 2 1.0280013031785755e+00 1.1413364961200634e+05 4.2000000000000000e+03 9.7772555046385783e+00 6.9337830158695821e+00 1.8150229656824241e+01 
1066 668 2 1.0279921824875584e+00 -4.5207239315514232e+05 4.2000000000000000e+03 9.5840364168591474e+00 9.6431441761912673e+00 1.6003300188822738e+01 
2077 1679 2 1.0279990638056771e+00 1.7568516365586864e+05 4.2000000000000000e+03 1.2420553605802757e+01 9.4172072545334284e+00 1.5090957021765167e+01 
1127 729 2 1.0279958633396269e+00 -7.4615956189778703e+05 4.2000000000000000e+03 1.2524847951089003e+01 8.3155309898680994e+00 1.6093318314407934e+01 
1297 899 2 1.0279936937082952e+00 2.9850020054265187e+05 4.2000000000000000e+03 1.2779636638415333e+01 7.2784695947854354e+00 1.6864418795526415e+01 
1766 1368 2 1.0279945065774445e+00 -1.5169015128757342e+05 4.2000000000000000e+03 1.2766607256250879e+01 7.9802309356805017e+00 1.7204981701137964e+01 
950 552 2 1.0279986340926734e+00 -6.8605045958926342e+05 4.2000000000000000e+03 1.2066145109416501e+01 9.1959046994494109e+00 1.7214067454417066e+01 
991 593 2 1.0280030858586402e+00 -7.0038162099297519e+05 4.2000000000000000e+03 6.2016894692943572e+00 1.3902783565195609e+01 1.4418857518736374e+01 
1286 888 2 1.0279990671572139e+00 -6.6439186048529786e+05 4.2000000000000000e+03 5.7596505119167611e+00 1.1153345078520857e+01 1.4444420652751353e+01 
1551 1153 2 1.0280054095546558e+00 -5.3306918059580680e+05 4.2000000000000000e+03 6.7756679811924299e+00 1.3878663596480420e+01 1.4492126030956824e+01 
656 258 2 1.0279985954444435e+00 2.0650470438600177e+05 4.2000000000000000e+03 6.1013244574039005e+00 1.0893294642365930e+01 1.4495018307118190e+01 
759 361 2 1.0280011775884426e+00 -7.1083599577810452e+05 4.2000000000000000e+03 1.2212267785097934e+01 1.1757538151821226e+01 1.4879056919378543e+01 
1759 1361 2 1.0280001729058066e+00 -4.3417226045095921e+05 4.2000000000000000e+03 1.2158875279477916e+01 1.1790255949019729e+01 1.5174457946940558e+01 
1490 1092 2 1.0279998477781775e+00 -6.5343942966099805e+05 4.2000000000000000e+03 1.2016656304728022e+01 1.2618884033860247e+01 1.5131549418687728e+01 
1160 762 2 1.0279991008590512e+00 2.9507555023813527e+05 4.2000000000000000e+03 1.1767812449951482e+01 1.3619609377274443e+01 1.5285004972615367e+01 
531 133 2 1.0280004895093278e+00 2.4045585916619483e+05 4.2000000000000000e+03 4.1637551223987233e+00 1.9758520180120680e+01 1.7410940843969858e+01 
2051 1653 2 1.0279990830812207e+00 2.1838929211831081e+05 4.2000000000000000e+03 1.0658727906035274e+01 1.5843642010896193e+01 1.4817681298489550e+01 
691 293 2 1.0279990187500696e+00 -2.4808349075555577e+05 4.2000000000000000e+03 1.0516601757914151e+01 1.6007667119112309e+01 1.4637657707685417e+01 
419 21 2 1.0279982735971855e+00 1.4986724784752890e+05 4.2000000000000000e+03 1.0640736338378503e+01 1.6044975722476480e+01 1.4553643846153326e+01 
1294 896 2 1.0280001987879095e+00 -7.4473438701538905e+05 4.2000000000000000e+03 1.4531808131209591e+01 3.4012668216505535e+00 1.9273733595241339e+01 
729 331 2 1.0280001108518435e+00 3.4875120440915797e+05 4.2000000000000000e+03 1.4878538654502780e+01 3.5982835890845046e+00 1.9444014465572984e+01 
1550 1152 2 1.0279998065270206e+00 -5.7948208863398223e+05 4.2000000000000000e+03 1.4915091681677520e+01 3.5820491072812159e+00 1.9499538382865477e+01 
666 268 2 1.0279862799625821e+00 -3.9842757989370037e+05 4.2000000000000000e+03 1.4225431275042533e+01 2.2500647612527551e+00 2.1060821121834365e+01 
1339 941 2 1.0280027267755059e+00 -6.3120456798085838e+05 4.2000000000000000e+03 1.4192733750993385e+01 3.7402999668888617e+00 2.3204964556607255e+01 
1796 1398 2 1.0279983580552898e+00 1.6983686559449052e+05 4.2000000000000000e+03 1.4687415556516401e+01 4.9009764616580992e-02 2.3173515885387204e+01 
1599 1201 2 1.0279993208993681e+00 -7.0191290347156476e+05 4.2000000000000000e+03 1.8678587904253117e+01 4.7984129004017575e+00 2.3213812734598463e+01 
617 219 2 1.0279995708465406e+00 1.6885697285290671e+05 4.2000000000000000e+03 1.8870575701090065e+01 4.7588929075327684e+00 2.3394917322327068e+01 
1764 1366 2 1.0279996412005892e+00 2.3338961619156695e+05 4.2000000000000000e+03 1.8953280425979148e+01 4.7139360230896248e+00 2.3481490448770913e+01 
590 192 2 1.0280003876100792e+00 -1.4611394085557677e+05 4.2000000000000000e+03 1.9085793530605127e+01 3.4616857619007217e+00 2.3670674210646947e+01 
1747 1349 2 1.0280004305884125e+00 2.8613884943496663e+05 4.2000000000000000e+03 1.9096763986609869e+01 3.4930226978109431e+00 2.3742244116600904e+01 
1157 759 2 1.0280005952317117e+00 3.1790529256621451e+05 4.2000000000000000e+03 1.7367813109594689e+01 1.5934327148315841e-01 2.2247360489594140e+01 
2050 1652 2 1.0279988908511843e+00 2.3552295881911513e+05 4.2000000000000000e+03 1.1489057495428330e+01 5.0364102748858564e+00 2.0671401484553197e+01 
545 147 2 1.0280041833049900e+00 5.1179322856106953e+05 4.2000000000000000e+03 1.3043433030750837e+01 5.8574264272735883e+00 2.2644771686828836e+01 
1557 1159 2 1.0279931456183236e+00 4.3354665113535209e+05 4.2000000000000000e+03 1.2032808869591859e+01 5.9824138600487329e+00 2.1351680630619498e+01 
1882 1484 2 1.0279936703150416e+00 -1.5617201113483219e+04 4.2000000000000000e+03 1.1735870899339501e+01 6.1465244947848356e+00 2.1043684905887226e+01 
1145 747 2 1.0279982588368068e+00 3.0235373905188130e+05 4.2000000000000000e+03 1.3164225175598677e+01 6.5294172374654584e+00 2.3382198746001084e+01 
1171 773 2 1.0280026024805691e+00 -6.5912975130882813e+05 4.2000000000000000e+03 1.8090106992004465e+01 5.1909286420589389e+00 2.3712846181995364e+01 
1100 702 2 1.0280004896727974e+00 2.2439051219992331e+05 4.2000000000000000e+03 4.1606665088140966e+00 1.9407153766868809e+01 2.0105018931908866e+01 
1086 688 2 1.0280004924152981e+00 -6.0510774428500386e+05 4.2000000000000000e+03 4.0411823729809084e+00 1.9407003509087421e+01 2.0091309292795923e+01 
600 202 2 1.0280003471822159e+00 1.2675408248936293e+05 4.2000000000000000e+03 4.6420684699564587e+00 1.9452356264584925e+01 2.0074146782040344e+01 