LAMMPS data file via write_data, version 30 Jul 2016, timestep = 50000000

1520 atoms
8 atom types

0.0000000000000000e+00 4.0000000000000000e+01 xlo xhi
0.0000000000000000e+00 4.0000000000000000e+01 ylo yhi
0.0000000000000000e+00 1.0000000000000000e+02 zlo zhi

Masses

1 3.896
2 5.36
3 20.064
4 8.378
5 8.378
6 8.378
7 8.378
8 8.378

Atoms # meso-molecular

877 878 2 1.0279999999842606e+00 -8.5801180903292982e+02 1.0000000000000000e+00 8.6253756527544212e+00 1.0069068324835213e-01 5.2116505911105353e+00 
432 433 2 1.0279999999875944e+00 -1.8317876527182136e+03 1.0000000000000000e+00 8.9047128327443019e+00 2.1961011875336942e-01 5.2343645303313737e+00 
192 193 2 1.0280000000007830e+00 7.1294993910300254e+03 1.0000000000000000e+00 1.9929609394273232e+01 1.9179817808923569e+00 5.0046184006394450e+00 
357 358 2 1.0280000000003808e+00 -4.0668223112408532e+03 1.0000000000000000e+00 1.9807667050403658e+01 2.0178057398886469e+00 5.5111237289470658e+00 
1443 1444 2 1.0279999999937024e+00 -2.3006038542025508e+03 1.0000000000000000e+00 8.2270488685786134e+00 3.9372481992901626e-01 6.8748929166051420e+00 
793 794 2 1.0279999999975007e+00 -8.5833938796708344e+02 1.0000000000000000e+00 8.9595442654673256e+00 7.6199831153646214e-01 7.5122102014033665e+00 
332 333 2 1.0280000000003811e+00 -1.8321791130912720e+03 1.0000000000000000e+00 9.3725116346483421e+00 8.7512993225849589e-01 7.6968422298997714e+00 
774 775 2 1.0279999999967766e+00 6.8212852705428259e+02 1.0000000000000000e+00 1.0041315472755423e+01 1.7936757226353266e+00 6.2836088843079398e+00 
1268 1269 2 1.0279999999969225e+00 4.1780611281486035e+03 1.0000000000000000e+00 1.0042204104537870e+01 1.8110643699363445e+00 6.3237559843536930e+00 
489 490 2 1.0280000000039171e+00 -2.2444587532352180e+03 1.0000000000000000e+00 1.0514527160466368e+01 1.5591730361968539e+00 6.5892405512445613e+00 
1320 1321 2 1.0279999999986413e+00 4.1782026144862220e+03 1.0000000000000000e+00 1.0067608120851313e+01 1.8687201556669280e+00 6.6240726319188088e+00 
573 574 2 1.0280000000050815e+00 -2.2443399718476830e+03 1.0000000000000000e+00 1.0525875399255289e+01 1.5601124397493260e+00 6.6668441111213417e+00 
898 899 2 1.0279999999990808e+00 6.8237233060405458e+02 1.0000000000000000e+00 1.0076815220499482e+01 1.8664973267444209e+00 6.6701579287325226e+00 
480 481 2 1.0279999999996632e+00 -4.2056973352809728e+03 1.0000000000000000e+00 1.9086013481228136e+01 1.2253319412161307e+01 1.0609066099145398e+01 
1090 1091 2 1.0280000000002674e+00 -3.9555799051765163e+01 1.0000000000000000e+00 1.9219713822227497e+01 1.1863102020654917e+01 1.0792616370300573e+01 
293 294 2 1.0280000000004381e+00 5.8720446760120576e+03 1.0000000000000000e+00 1.8905821656632060e+01 1.2078726782423027e+01 1.0805574282583796e+01 
310 311 2 1.0280000000003375e+00 -1.7011233306532718e+03 1.0000000000000000e+00 1.8841515807045845e+01 1.1925393967547043e+01 1.0968159721453155e+01 
914 915 2 1.0280000000000720e+00 -2.1838475116825120e+03 1.0000000000000000e+00 1.8931507413770571e+01 1.1549912172490165e+01 1.1405447517710703e+01 
1371 1372 2 1.0280000000003868e+00 -8.9818714456198950e+02 1.0000000000000000e+00 1.7709108619464843e+01 1.2049872853120627e+01 1.1786377884197725e+01 
1348 1349 2 1.0279999999977163e+00 2.5931298578317155e+03 1.0000000000000000e+00 1.9927853791857853e+01 1.3662459978868618e+01 1.0533523559455707e+01 
916 917 2 1.0279999999951461e+00 2.6314792209204188e+03 1.0000000000000000e+00 1.8587981753002538e+01 1.4398430585993335e+01 1.1593917178023748e+01 
1366 1367 2 1.0280000000003777e+00 1.8120770121459784e+03 1.0000000000000000e+00 1.6640072963567647e+01 1.8776377533641856e+01 1.1560448782990363e+01 
302 303 2 1.0279999999999898e+00 1.8120776332023415e+03 1.0000000000000000e+00 1.6639725032808073e+01 1.9504755246878759e+01 1.1560488325993507e+01 
1402 1403 2 1.0279999999997969e+00 1.7277412480620148e+02 1.0000000000000000e+00 1.7771282389324512e+01 1.9058114179997499e+01 1.0207692115196421e+01 
34 35 2 1.0279999999998168e+00 1.7277508377253940e+02 1.0000000000000000e+00 1.7771282047924021e+01 1.9227270410835061e+01 1.0207812166458146e+01 
167 168 2 1.0280000000000529e+00 1.1559976322635088e+04 1.0000000000000000e+00 1.9424777268618087e+01 1.8998456512614503e+01 1.0343021961859607e+01 
1231 1232 2 1.0279999999996146e+00 1.1559947256043542e+04 1.0000000000000000e+00 1.9424773314250643e+01 1.9290276290759735e+01 1.0343592957940903e+01 
114 115 2 1.0280000000003351e+00 2.9603549987012102e+03 1.0000000000000000e+00 1.9070858999138721e+01 1.7743911251393495e+01 1.0962591341352256e+01 
298 299 2 1.0279999999987763e+00 -3.3052064195696448e+03 1.0000000000000000e+00 1.8518043598473490e+01 1.7494981417097645e+01 1.1192819080437545e+01 
130 131 2 1.0280000000002709e+00 4.8888407031599706e+02 1.0000000000000000e+00 1.9198840637943587e+01 1.7342587296354015e+01 1.1413164556027784e+01 
1080 1081 2 1.0280000000002065e+00 2.9125069426176615e+03 1.0000000000000000e+00 1.6808239671869231e+01 1.8403865474444650e+01 1.1424938207219885e+01 
320 321 2 1.0280000000000327e+00 2.9125037756254396e+03 1.0000000000000000e+00 1.6807743897591173e+01 1.9877848397665410e+01 1.1425030884243194e+01 
12 13 2 1.0280000000003211e+00 4.7645568329383068e+03 1.0000000000000000e+00 1.6839163943214686e+01 1.8396040633777975e+01 1.1963086412961998e+01 
1380 1381 2 1.0279999999998750e+00 4.7645596563508534e+03 1.0000000000000000e+00 1.6838396066035148e+01 1.9884877537840648e+01 1.1963347495267060e+01 
1046 1047 2 1.0279999999898595e+00 2.8015615263759028e+03 1.0000000000000000e+00 1.8637254472510598e+01 1.6704772683217687e+01 1.2060423903614186e+01 
274 275 2 1.0279999999533687e+00 8.5471067053930568e+01 1.0000000000000000e+00 1.4791486068148332e+01 1.2279624066738071e-01 1.2479545978298605e+01 
491 492 2 1.0280000000067380e+00 3.9456546945858935e+02 1.0000000000000000e+00 1.5729121616505575e+01 1.3158704082102155e+00 1.3414070844317923e+01 
887 888 2 1.0279999999780376e+00 9.0902523625866684e+02 1.0000000000000000e+00 1.5370144497186667e+01 1.9686463060231365e+00 1.3632761729674572e+01 
324 325 2 1.0279999999942293e+00 8.7205626011424320e+03 1.0000000000000000e+00 1.5344599683707255e+01 1.9241006573890027e+00 1.3718655875007515e+01 
440 441 2 1.0279999999959697e+00 8.7206029157342873e+03 1.0000000000000000e+00 1.5352387802961237e+01 1.9204148006678188e+00 1.3731653595269396e+01 
787 788 2 1.0280000000017486e+00 9.0905624909520543e+02 1.0000000000000000e+00 1.5439397810819569e+01 1.9224198047405636e+00 1.3765048061070972e+01 
575 576 2 1.0280000000175431e+00 3.9457702746145492e+02 1.0000000000000000e+00 1.5564440515686758e+01 1.3418462719524618e+00 1.3968530144787982e+01 
1516 1517 2 1.0279999999730951e+00 -4.9543128698633991e+03 1.0000000000000000e+00 1.6614800240921568e+01 5.3346513936514635e+00 1.3526904408974337e+01 
446 447 2 1.0279999999722544e+00 -3.0677818979985195e+03 1.0000000000000000e+00 1.6030152745653723e+01 3.7089671981324686e+00 1.3613273293658686e+01 
314 315 2 1.0279999999727703e+00 -3.0678749130282340e+03 1.0000000000000000e+00 1.6029446889554503e+01 3.7129661471244257e+00 1.3616635112817457e+01 
1376 1377 2 1.0279999999981708e+00 -4.9544871489395900e+03 1.0000000000000000e+00 1.6729116834948226e+01 5.0268588547156767e+00 1.3643140731419136e+01 
20 21 2 1.0280000000117830e+00 2.4741083713828630e+02 1.0000000000000000e+00 1.6667632277561214e+01 4.8847933558326950e+00 1.3644039087700822e+01 
1346 1347 2 1.0279999999995513e+00 -4.7149999480622009e+03 1.0000000000000000e+00 1.6717962489255072e+01 5.0040938314391950e+00 1.3654708685177834e+01 
136 137 2 1.0280000000088116e+00 2.4747710976767667e+02 1.0000000000000000e+00 1.6669166599228245e+01 4.8985765857705408e+00 1.3665766975865948e+01 
1238 1239 2 1.0279999999935074e+00 -4.7149008630295193e+03 1.0000000000000000e+00 1.6738751598486022e+01 5.0858481832825229e+00 1.3696644476887096e+01 
755 756 2 1.0279999999921290e+00 -2.9650548344129456e+03 1.0000000000000000e+00 1.9797795188916826e+01 9.8562718267581815e+00 1.3470076425267703e+01 
922 923 2 1.0279999999994054e+00 4.0780207944546284e+01 1.0000000000000000e+00 1.7277473077256285e+01 7.9512529745303526e+00 1.3583612823130295e+01 
632 633 2 1.0279999999924136e+00 -1.9842001549593142e+03 1.0000000000000000e+00 1.7267950008026446e+01 7.8688346945607792e+00 1.3615653184899331e+01 
1372 1373 2 1.0279999999948937e+00 -1.5618524279929638e+03 1.0000000000000000e+00 1.7112627158398190e+01 9.5217449906735112e+00 1.3645449869573763e+01 
1364 1365 2 1.0279999999677516e+00 -3.2237590759415070e+03 1.0000000000000000e+00 1.7271644677370226e+01 7.7951758433558291e+00 1.3682092404250868e+01 
1224 1225 2 1.0279999999693232e+00 -3.2236720600798744e+03 1.0000000000000000e+00 1.7274659451319735e+01 7.7954195109226152e+00 1.3685081719862810e+01 
740 741 2 1.0279999999944991e+00 -1.9840644406965207e+03 1.0000000000000000e+00 1.7314208250102254e+01 7.8266757861985816e+00 1.3714953309569589e+01 
1054 1055 2 1.0280000000060117e+00 4.0961938628273089e+01 1.0000000000000000e+00 1.7355513924790571e+01 7.9248906813532622e+00 1.3766925068038933e+01 
1520 1521 2 1.0279999999958354e+00 -1.5617608272416485e+03 1.0000000000000000e+00 1.7122952284286907e+01 9.5205321990424512e+00 1.3806939930272524e+01 
615 616 2 1.0280000000016569e+00 -2.9649912037301438e+03 1.0000000000000000e+00 1.9792146286515404e+01 9.8534117385081466e+00 1.3846018716922099e+01 
308 309 2 1.0279999999999339e+00 2.3130385004371628e+03 1.0000000000000000e+00 1.7349945089465265e+01 1.1890528162497501e+01 1.2239733935213611e+01 
770 771 2 1.0279999999990386e+00 -2.2238881875198895e+03 1.0000000000000000e+00 1.6842530495121675e+01 1.3134120036199299e+01 1.2837699619044306e+01 
312 313 2 1.0279999999975766e+00 2.8059372241485175e+02 1.0000000000000000e+00 1.6864989093103329e+01 1.1733484773927426e+01 1.3076674177109737e+01 
919 920 2 1.0279999999949452e+00 -8.0662935093720466e+02 1.0000000000000000e+00 1.9686051515087499e+01 1.0086714117195767e+01 1.3158573451000686e+01 
316 317 2 1.0279999999950196e+00 5.3263304299055098e+03 1.0000000000000000e+00 1.6904119522350019e+01 1.1200188200012548e+01 1.3451291685192448e+01 
448 449 2 1.0279999999951148e+00 5.3263985758225999e+03 1.0000000000000000e+00 1.6909735232419731e+01 1.1179668593431511e+01 1.3993921852995033e+01 
1059 1060 2 1.0280000000108216e+00 -8.0664961801926552e+02 1.0000000000000000e+00 1.9669347690646781e+01 1.0090328958464672e+01 1.4150093113933906e+01 
452 453 2 1.0279999999981706e+00 2.8070283329017263e+02 1.0000000000000000e+00 1.6856756652355934e+01 1.1760595494330540e+01 1.4380377638714757e+01 
902 903 2 1.0279999999993936e+00 -2.2238512794529397e+03 1.0000000000000000e+00 1.6840864672529971e+01 1.3122117370875802e+01 1.4595255618411237e+01 
295 296 2 1.0280000000195662e+00 2.0932347954139817e+02 1.0000000000000000e+00 1.9656638731319095e+01 1.4630072982103375e+01 1.2271906622877811e+01 
1396 1397 2 1.0279999999983651e+00 -7.0910431880617966e+02 1.0000000000000000e+00 1.7524022742614804e+01 1.4526016483422458e+01 1.2543362787856804e+01 
1384 1385 2 1.0279999999985259e+00 2.1797709773093247e+03 1.0000000000000000e+00 1.7390869329708845e+01 1.4425461964828559e+01 1.2632328271771694e+01 
1386 1387 2 1.0279999999986178e+00 -2.0428459052208898e+03 1.0000000000000000e+00 1.7454094806157300e+01 1.4569931187622863e+01 1.2661131296930330e+01 
478 479 2 1.0279999999962106e+00 4.5178233819102104e+02 1.0000000000000000e+00 1.7849863606164352e+01 1.5662513672622794e+01 1.2987605685480604e+01 
586 587 2 1.0279999999971838e+00 4.5177817028014670e+02 1.0000000000000000e+00 1.7843245927790488e+01 1.5651104111642846e+01 1.4440450193490630e+01 
1502 1503 2 1.0279999999991338e+00 -2.0428809646250315e+03 1.0000000000000000e+00 1.7467327314549799e+01 1.4575015364866839e+01 1.4772479574077316e+01 
1508 1509 2 1.0279999999991467e+00 2.1798527124740363e+03 1.0000000000000000e+00 1.7407217991251898e+01 1.4436297095359675e+01 1.4801187761249643e+01 
1496 1497 2 1.0279999999988501e+00 -7.0913182088749090e+02 1.0000000000000000e+00 1.7532647473235368e+01 1.4524018354941818e+01 1.4887144233337372e+01 
127 128 2 1.0280000000132485e+00 -9.2269103343859797e+01 1.0000000000000000e+00 1.8083730806828246e+01 1.8265325464467061e+01 1.3391527429708834e+01 
27 28 2 1.0280000000080038e+00 -9.2498856517383047e+01 1.0000000000000000e+00 1.8076873553736778e+01 1.8269417447437341e+01 1.4033688220982809e+01 
732 733 2 1.0279999999975602e+00 -1.1460093640552391e+03 1.0000000000000000e+00 1.1501220685258398e+01 1.1657149612149706e+00 1.7557561726207481e+01 
1450 1451 2 1.0279999999979552e+00 -3.9156377935866306e+02 1.0000000000000000e+00 1.1430951080171345e+01 1.1369433547212815e+00 1.7606534082011660e+01 
671 672 2 1.0279999999970011e+00 8.3941882080268315e+03 1.0000000000000000e+00 1.1567980164913829e+01 1.2785407852781439e+00 1.7714891319460090e+01 
188 189 2 1.0279999999971126e+00 2.5655166747184876e+02 1.0000000000000000e+00 1.1675253004423425e+01 1.2873340911766695e+00 1.7802131663654944e+01 
1438 1439 2 1.0279999999993028e+00 -3.9158692657504469e+02 1.0000000000000000e+00 1.1390262424184462e+01 1.0506932814250849e+00 1.7913883005909042e+01 
640 641 2 1.0279999999994240e+00 -1.1460594256636246e+03 1.0000000000000000e+00 1.1409600193578731e+01 1.0358691985111130e+00 1.7945819575599941e+01 
699 700 2 1.0279999999991096e+00 8.3942487529975660e+03 1.0000000000000000e+00 1.1451380158293308e+01 1.0953264140688130e+00 1.7962307998656350e+01 
272 273 2 1.0279999999991738e+00 2.5664638174164310e+02 1.0000000000000000e+00 1.1495699939111592e+01 1.0864149543036152e+00 1.7998102554495595e+01 
456 457 2 1.0280000000000098e+00 2.3129516578162311e+03 1.0000000000000000e+00 1.7346454185097958e+01 1.1867683542605992e+01 1.5199435618242292e+01 
1519 1520 2 1.0280000000001437e+00 -8.9827896314128225e+02 1.0000000000000000e+00 1.7710101357686092e+01 1.2021328959055650e+01 1.5649976819508195e+01 
1062 1063 2 1.0279999999991092e+00 -2.1837669457685388e+03 1.0000000000000000e+00 1.8943009716825721e+01 1.1534561863888731e+01 1.6000812263451092e+01 
450 451 2 1.0279999999995715e+00 -1.7012640074645169e+03 1.0000000000000000e+00 1.8844127640197598e+01 1.1888020013810031e+01 1.6452615069036668e+01 
161 162 2 1.0279999999993854e+00 5.8720002867281410e+03 1.0000000000000000e+00 1.8904560943062432e+01 1.2040947872228102e+01 1.6621525566711949e+01 
1190 1191 2 1.0279999999993270e+00 -3.9620893068270220e+01 1.0000000000000000e+00 1.9217833251484986e+01 1.1823632010614880e+01 1.6625795615791031e+01 
588 589 2 1.0279999999996483e+00 -4.2057015367881013e+03 1.0000000000000000e+00 1.9081249021954342e+01 1.2214619680126219e+01 1.6823121310057051e+01 
163 164 2 1.0280000000099647e+00 2.0942779942276078e+02 1.0000000000000000e+00 1.9626850579521989e+01 1.4652033317264765e+01 1.5200649556018204e+01 
1064 1065 2 1.0279999999972693e+00 2.6315095261237475e+03 1.0000000000000000e+00 1.8590619151195561e+01 1.4373143971420655e+01 1.5826369933611298e+01 
1240 1241 2 1.0279999999996934e+00 2.5934009412148780e+03 1.0000000000000000e+00 1.9919624126535890e+01 1.3640529643903509e+01 1.6905359995339470e+01 
1218 1219 2 1.0280000000000491e+00 1.8122387964212571e+03 1.0000000000000000e+00 1.6632683418353107e+01 1.8774100014951074e+01 1.5871029875832647e+01 
154 155 2 1.0279999999995075e+00 1.8122393282138733e+03 1.0000000000000000e+00 1.6632362769089063e+01 1.9506354739932195e+01 1.5871121071245041e+01 
930 931 2 1.0279999999938725e+00 2.8017910972974478e+03 1.0000000000000000e+00 1.8621577600266438e+01 1.6726413758328338e+01 1.5372747806333978e+01 
144 145 2 1.0280000000000813e+00 4.7647079948796982e+03 1.0000000000000000e+00 1.6834025268978085e+01 1.8392472580894061e+01 1.5469094054092018e+01 
1512 1513 2 1.0279999999991316e+00 4.7647105163346168e+03 1.0000000000000000e+00 1.6833447242374760e+01 1.9888124181013826e+01 1.5469205265656965e+01 
1204 1205 2 1.0280000000001106e+00 2.9123302085698679e+03 1.0000000000000000e+00 1.6797821187375494e+01 1.8405720020102606e+01 1.6007127213393787e+01 
444 445 2 1.0279999999996314e+00 2.9123246054835308e+03 1.0000000000000000e+00 1.6797275124792694e+01 1.9875125907990171e+01 1.6007339561435248e+01 
22 23 2 1.0280000000011189e+00 4.8816014041512494e+02 1.0000000000000000e+00 1.9177984889703936e+01 1.7356689281963213e+01 1.6025530009708294e+01 
158 159 2 1.0280000000000167e+00 -3.3053108123725588e+03 1.0000000000000000e+00 1.8503721020842207e+01 1.7495308139549305e+01 1.6243730191789428e+01 
38 39 2 1.0280000000006775e+00 2.9604548248807669e+03 1.0000000000000000e+00 1.9054092418741433e+01 1.7749393401594393e+01 1.6476993653116217e+01 
1355 1356 2 1.0279999999988401e+00 1.1560261364784636e+04 1.0000000000000000e+00 1.9414861942220206e+01 1.9271792957795235e+01 1.7092863520451260e+01 
291 292 2 1.0279999999991709e+00 1.1560289421960188e+04 1.0000000000000000e+00 1.9414831547485520e+01 1.9014841962842496e+01 1.7093196084839718e+01 
1486 1487 2 1.0279999999998777e+00 1.7269941874727300e+02 1.0000000000000000e+00 1.7769607040110856e+01 1.9056388923801705e+01 1.7235457875260163e+01 
118 119 2 1.0279999999998000e+00 1.7270047000072390e+02 1.0000000000000000e+00 1.7769588442773390e+01 1.9227611928780092e+01 1.7235388753879811e+01 
857 858 2 1.0279999999993057e+00 -1.0978942721626390e+03 1.0000000000000000e+00 1.9851750145236654e+01 1.8888255474027311e+00 2.0846086199712015e+01 
401 402 2 1.0280000000002296e+00 -4.0670029087405028e+03 1.0000000000000000e+00 1.9501667373591996e+01 2.0839599323879203e+00 2.1384693888168293e+01 
268 269 2 1.0280000000008598e+00 7.1299142277891042e+03 1.0000000000000000e+00 1.9609237129099345e+01 1.9938687928826415e+00 2.1942494203413805e+01 
1266 1267 2 1.0280000000010485e+00 2.1105389997957479e+02 1.0000000000000000e+00 1.9788059280751135e+01 1.9356919273957778e+00 2.2083193398304800e+01 
1175 1176 2 1.0280000000000000e+00 2.7878117355913737e+03 1.0000000000000000e+00 2.6280672507941274e+00 2.7181201320547310e+00 2.6610217429129452e+01 
218 219 2 1.0280000000000007e+00 -6.3887720183604097e+02 1.0000000000000000e+00 2.6254743649381980e+00 2.7205224443159399e+00 2.6610216658293783e+01 
1156 1157 2 1.0280000000000018e+00 -3.1403218566592550e+03 1.0000000000000000e+00 2.6287146824377485e+00 2.7181340842191757e+00 2.6611598524899918e+01 
512 513 2 1.0280000000000002e+00 -7.6911064248401963e+03 1.0000000000000000e+00 2.6301047421075423e+00 2.7180603720054934e+00 2.6614581773665737e+01 
238 239 2 1.0280000000000016e+00 -6.3840986460956242e+02 1.0000000000000000e+00 2.6309712275665120e+00 2.7194056999541845e+00 2.6620611507833416e+01 
556 557 2 1.0280000000000016e+00 -7.6909549609319220e+03 1.0000000000000000e+00 2.6313860636707256e+00 2.7191560640775858e+00 2.6621118001395345e+01 
1128 1129 2 1.0280000000000025e+00 -3.1403213893051525e+03 1.0000000000000000e+00 2.6313031363255823e+00 2.7199734699207405e+00 2.6623613621864010e+01 
1107 1108 2 1.0280000000000031e+00 2.7880297156728607e+03 1.0000000000000000e+00 2.6312241597679020e+00 2.7205722197993798e+00 2.6625611387161513e+01 
223 224 2 1.0280000000000071e+00 8.3589568994620868e+02 1.0000000000000000e+00 1.9979625639917598e-01 2.5856140940832478e-01 2.7073660621273053e+01 
352 353 2 1.0279999999999938e+00 -2.1268016710904940e+03 1.0000000000000000e+00 4.9966817316522055e-02 1.9368058193579522e+01 2.5304110702729709e+01 
62 63 2 1.0279999999999974e+00 -2.1932106692036314e+03 1.0000000000000000e+00 1.6752749191305152e-01 1.9195612638290346e+01 2.5393676839827933e+01 
1159 1160 2 1.0279999999999998e+00 5.4800303223247852e+02 1.0000000000000000e+00 1.2392866591851264e+00 1.9209065928666444e+01 2.6510283382279486e+01 
1123 1124 2 1.0279999999999998e+00 5.4798494735464351e+02 1.0000000000000000e+00 1.2390854249308008e+00 1.9208903741539775e+01 2.6643719275013225e+01 
795 796 2 1.0280000000000036e+00 4.0403733501543934e+03 1.0000000000000000e+00 5.7306200064701185e-01 5.9520166014881160e-01 2.7542658197592573e+01 
879 880 2 1.0279999999999998e+00 4.0398768067056280e+03 1.0000000000000000e+00 5.0588148549432443e-01 2.9153434000896328e-01 2.8855640441748790e+01 
235 236 2 1.0279999999999938e+00 8.3550363350147370e+02 1.0000000000000000e+00 2.7714164993424523e-01 1.4838299771678004e-01 2.9200222589122141e+01 
90 91 2 1.0279999999999960e+00 -2.1931375878631588e+03 1.0000000000000000e+00 1.7011245280931919e-01 1.9186908351661998e+01 2.7753282892068519e+01 
412 413 2 1.0280000000000009e+00 -2.1268196773518739e+03 1.0000000000000000e+00 5.0692177445924101e-02 1.9354952810279446e+01 2.7843425105116854e+01 
791 792 2 1.0279999999990415e+00 6.7456990812365461e+02 1.0000000000000000e+00 1.7957902414076411e+01 3.9311519176949938e-01 8.8513459069615195e+01 
639 640 2 1.0279999999992986e+00 6.7453820075759347e+02 1.0000000000000000e+00 1.7957899133931779e+01 3.9312064667910313e-01 8.8513460179934128e+01 
472 473 2 1.0279999999991392e+00 -2.4287955313450284e+03 1.0000000000000000e+00 1.7957890033990115e+01 3.9313788832776198e-01 8.8513463178266974e+01 
928 929 2 1.0279999999993525e+00 -2.4287351000859226e+03 1.0000000000000000e+00 1.7957893192714366e+01 3.9310225457204639e-01 8.8513463294765259e+01 
101 102 2 1.0279999999992884e+00 9.5242497125572569e+01 1.0000000000000000e+00 1.8128646519223683e+01 1.0476643080692625e+00 8.9609992638419342e+01 
266 267 2 1.0279999999992147e+00 -6.3953607294691164e+02 1.0000000000000000e+00 1.7696391192661984e+01 8.0490232428462460e-01 8.9964478076369630e+01 
390 391 2 1.0279999999993525e+00 -6.7049646761860640e+02 1.0000000000000000e+00 1.7707035467206659e+01 7.1766804130632589e-01 9.0025997801483186e+01 
1330 1331 2 1.0280000000013720e+00 -6.3906362221933432e+02 1.0000000000000000e+00 1.7649347171820409e+01 3.2180535357675405e-01 9.0120529292365134e+01 
1150 1151 2 1.0280000000009903e+00 -6.6995412233940704e+02 1.0000000000000000e+00 1.7660281069529496e+01 3.6964461001838034e-01 9.0121393753680110e+01 
525 526 2 1.0279999999997140e+00 -5.4072559866570409e+03 1.0000000000000000e+00 6.6119098253281710e+00 1.1024159964780582e+00 9.2117574316984786e+01 
1453 1454 2 1.0280000000009566e+00 -2.3426611204533274e+03 1.0000000000000000e+00 5.7845492861740251e+00 1.3127859013565486e+00 9.3033056788985903e+01 
1433 1434 2 1.0280000000009775e+00 -2.3419460095861377e+03 1.0000000000000000e+00 5.7964075705341784e+00 1.4158431099696962e+00 9.3503699540977692e+01 
684 685 2 1.0279999999998621e+00 3.0664697438926860e+03 1.0000000000000000e+00 6.9195141041649668e+00 1.5493646002659143e+00 9.2056136441048125e+01 
1067 1068 2 1.0279999999988156e+00 -4.0060938772272027e+02 1.0000000000000000e+00 7.1381034138803132e+00 7.8402602721824577e-01 9.2134307796450855e+01 
1279 1280 2 1.0279999999993246e+00 1.3260094927321716e+03 1.0000000000000000e+00 8.4007740510915667e+00 2.4434838644804686e+00 9.2402219724784686e+01 
1473 1474 2 1.0280000000001137e+00 2.8951911942119968e+03 1.0000000000000000e+00 6.7120507731246946e+00 2.2788620256629728e+00 9.2455177555109245e+01 
107 108 2 1.0279999999980369e+00 1.3335597830519537e+03 1.0000000000000000e+00 9.1139188673694029e+00 2.1042927919167966e+00 9.2603049624179491e+01 
245 246 2 1.0279999999970795e+00 1.1454067596044606e+03 1.0000000000000000e+00 9.3745084295213719e+00 1.5495062347293265e+00 9.2768250116349833e+01 
264 265 2 1.0279999999994640e+00 2.5970869100489540e+03 1.0000000000000000e+00 8.2725106483968496e+00 3.0619112922052611e+00 9.3199958351711274e+01 
37 38 2 1.0279999999993643e+00 3.9240937328306120e+02 1.0000000000000000e+00 7.9167890425846856e+00 3.1062574317047722e+00 9.3602094820707933e+01 
227 228 2 1.0279999999976643e+00 -1.0410486949241792e+02 1.0000000000000000e+00 9.8720068181178462e+00 2.7391234752837201e+00 9.3721188778615314e+01 
373 374 2 1.0279999999986988e+00 -2.3478100116997030e+03 1.0000000000000000e+00 1.0998192157232193e+01 1.1394563518011231e+00 9.3385156950481303e+01 
343 344 2 1.0280000000004585e+00 1.7483286517705828e+03 1.0000000000000000e+00 1.1950363469897749e+01 2.1034360220510582e+00 9.3659217581941647e+01 
1471 1472 2 1.0280000000004583e+00 -2.2208974879846619e+02 1.0000000000000000e+00 1.2153151526820722e+01 2.0739904194866665e+00 9.3769681762241689e+01 
539 540 2 1.0279999999984988e+00 1.0714731563336866e+03 1.0000000000000000e+00 1.8023510932138432e+01 3.8792985516253521e-02 9.3878992349221633e+01 
538 539 2 1.0279999999988858e+00 1.0714298663986144e+03 1.0000000000000000e+00 1.7780931261781621e+01 1.7166260305022583e-02 9.3884613519481789e+01 
537 538 2 1.0280000000016667e+00 -5.4074944120294003e+03 1.0000000000000000e+00 6.5843342157107685e+00 1.4505810447338956e+00 9.4736018777825095e+01 
196 197 2 1.0279999999989327e+00 2.6094591068765249e+03 1.0000000000000000e+00 8.3083475625860519e+00 2.9729201577485536e+00 9.4062361117306480e+01 
1413 1414 2 1.0279999999983529e+00 2.8951446355899811e+03 1.0000000000000000e+00 6.7689066467351973e+00 2.4439406394008940e+00 9.4301891683293675e+01 
209 210 2 1.0280000000022829e+00 1.1433791173112618e+03 1.0000000000000000e+00 9.6060255192532473e+00 7.0975677645867652e-01 9.4393397008179477e+01 
1307 1308 2 1.0280000000032441e+00 1.3277817837341042e+03 1.0000000000000000e+00 8.7796785453644457e+00 6.3409484750098166e-01 9.4590762068335764e+01 
688 689 2 1.0279999999989231e+00 3.0671629125766667e+03 1.0000000000000000e+00 6.9648133302736532e+00 1.9337318997864825e+00 9.4780017024445470e+01 
47 48 2 1.0280000000049339e+00 1.3333923704075646e+03 1.0000000000000000e+00 9.4834721299849392e+00 1.0276389923633549e+00 9.4812739452746754e+01 
967 968 2 1.0280000000174903e+00 -2.9983875800158910e+02 1.0000000000000000e+00 7.8490953681483289e+00 2.7543281615252418e-01 9.4856569634751708e+01 
1215 1216 2 1.0280000000052307e+00 -4.0006870149857855e+02 1.0000000000000000e+00 7.1550859885063050e+00 1.0935497676249086e+00 9.5035859722938767e+01 
92 93 2 1.0279999999995619e+00 -3.9744238540093249e+02 1.0000000000000000e+00 1.2691270743856350e+01 1.6736829720587674e+00 9.4034843351935137e+01 
1263 1264 2 1.0279999999971323e+00 1.8856463498261505e+03 1.0000000000000000e+00 1.2910954995100244e+01 5.0404294996268928e-01 9.4274286051688634e+01 
558 559 2 1.0279999999953897e+00 1.9548448009140197e+03 1.0000000000000000e+00 1.1451286317228782e+01 1.5827664735840141e-01 9.4277484350864498e+01 
113 114 2 1.0279999999999982e+00 4.0357679562142880e+02 1.0000000000000000e+00 1.1375785696872798e+01 2.6746583959361145e+00 9.4326475759110565e+01 
1295 1296 2 1.0279999999996061e+00 -1.0083553218975547e+02 1.0000000000000000e+00 1.1003211249453253e+01 2.6847192426277364e+00 9.4343972447684038e+01 
1419 1420 2 1.0279999999993974e+00 -2.2231760985883298e+02 1.0000000000000000e+00 1.2616078659915512e+01 1.8839291323280349e+00 9.5651891351845421e+01 
419 420 2 1.0279999999996001e+00 1.7480754065709618e+03 1.0000000000000000e+00 1.2396200077729461e+01 1.9443020882183264e+00 9.5668639510743972e+01 
385 386 2 1.0280000000014540e+00 -2.3487632091976966e+03 1.0000000000000000e+00 1.1181832986673385e+01 1.1666616939940508e+00 9.5698977161455446e+01 
64 65 2 1.0279999999988285e+00 -3.9886557865161876e+02 1.0000000000000000e+00 1.3265321061309914e+01 1.3645732464083564e+00 9.5798480002786292e+01 
506 507 2 1.0280000000004903e+00 1.9535264498109295e+03 1.0000000000000000e+00 1.1607730125726663e+01 7.2350100371509329e-01 9.5917082478094642e+01 
1323 1324 2 1.0279999999990397e+00 1.8841532402179723e+03 1.0000000000000000e+00 1.3508296954687006e+01 6.2022350426403516e-01 9.6222999193436706e+01 
1310 1311 2 1.0279999999999965e+00 -6.0899362020125477e+02 1.0000000000000000e+00 1.8910594300788851e+01 1.4212644155014935e+00 9.4745188506885725e+01 
1311 1312 2 1.0280000000006970e+00 -6.0906939056452802e+02 1.0000000000000000e+00 1.6981077347807968e+01 1.3811702985716836e+00 9.4749435126151297e+01 
407 408 2 1.0280000000002343e+00 1.2214680622534574e+03 1.0000000000000000e+00 1.8983823995813005e+01 1.4712413402930866e+00 9.4851211105311066e+01 
406 407 2 1.0280000000011023e+00 1.2213909373774263e+03 1.0000000000000000e+00 1.6909855347651121e+01 1.4368271405386293e+00 9.4857227925504205e+01 
277 278 2 1.0279999999999130e+00 1.5588462509190222e+03 1.0000000000000000e+00 1.7176025540310278e+01 1.9044173019095625e+00 9.4883794680195820e+01 
280 281 2 1.0279999999997127e+00 1.5588848681365503e+03 1.0000000000000000e+00 1.8718150942047718e+01 1.8836942387848687e+00 9.4884542018028995e+01 
1023 1024 2 1.0280000000002414e+00 -1.4593123859362964e+02 1.0000000000000000e+00 1.6816736423965068e+01 2.4137894175286920e+00 9.5785186878572986e+01 
1022 1023 2 1.0279999999998297e+00 -1.4593865237376917e+02 1.0000000000000000e+00 1.9043132773165244e+01 2.3649724195848156e+00 9.5797691517243678e+01 
505 506 2 1.0279999999998364e+00 -6.6272759127051522e+03 1.0000000000000000e+00 1.8693769326348242e+01 3.1957490210930173e+00 9.6462355822645549e+01 
508 509 2 1.0279999999999538e+00 -6.6271125173110886e+03 1.0000000000000000e+00 1.6834322057692766e+01 2.7480681055158089e+00 9.6487473486455428e+01 
565 566 2 1.0280000000001124e+00 -6.7394254817173933e+03 1.0000000000000000e+00 1.8174093374993951e+01 5.9301109667231131e+00 9.5975870018153614e+01 
568 569 2 1.0280000000000313e+00 -6.7394085661428580e+03 1.0000000000000000e+00 1.7712428757830576e+01 5.9183484477050268e+00 9.5983339521842638e+01 
1468 1469 2 1.0279999999999898e+00 -1.0392181975587168e+03 1.0000000000000000e+00 1.7761434773838765e+01 6.3516165645929528e+00 9.6257516220837530e+01 
1465 1466 2 1.0280000000001377e+00 -1.0392130393432694e+03 1.0000000000000000e+00 1.8147091989612498e+01 6.3554054648877649e+00 9.6258704338167931e+01 
1421 1422 2 1.0279999999998932e+00 -1.0399737397310084e+03 1.0000000000000000e+00 1.8197112678011745e+01 6.3597682141027461e+00 9.6647313519904230e+01 
1424 1425 2 1.0279999999997707e+00 -1.0399238344749720e+03 1.0000000000000000e+00 1.7732415301853951e+01 6.3676020923642156e+00 9.6648536270744600e+01 
557 558 2 1.0280000000033875e+00 -6.6264966852319249e+03 1.0000000000000000e+00 1.8142983654593341e+01 4.3085211392677278e+00 9.6703112745757181e+01 