LAMMPS data file via write_data, version 30 Jul 2016, timestep = 50400000

1520 atoms
8 atom types

0.0000000000000000e+00 4.0000000000000000e+01 xlo xhi
0.0000000000000000e+00 4.0000000000000000e+01 ylo yhi
0.0000000000000000e+00 1.0000000000000000e+02 zlo zhi

Masses

1 3.896
2 5.36
3 20.064
4 8.378
5 8.378
6 8.378
7 8.378
8 8.378

Atoms # meso-molecular

877 878 2 1.0279999999853660e+00 -8.5801180903292982e+02 1.0000000000000000e+00 8.6231826984277546e+00 8.6694216646795746e-02 3.2742631758734304e+00 
432 433 2 1.0279999999885174e+00 -1.8317876527182136e+03 1.0000000000000000e+00 8.9025196384329135e+00 2.0561429048036306e-01 3.2969766977203472e+00 
1443 1444 2 1.0279999999941374e+00 -2.3006038542025508e+03 1.0000000000000000e+00 8.2248562667043998e+00 3.7972968528929019e-01 4.9375033142156104e+00 
793 794 2 1.0279999999978469e+00 -8.5833938796708344e+02 1.0000000000000000e+00 8.9573506536839371e+00 7.4800491184434437e-01 5.5748196990102725e+00 
332 333 2 1.0280000000004670e+00 -1.8321791130912720e+03 1.0000000000000000e+00 9.3703176776721637e+00 8.6113731752316158e-01 5.7594515867665868e+00 
774 775 2 1.0279999999970808e+00 6.8212852705428259e+02 1.0000000000000000e+00 1.0039121348290402e+01 1.7796825159283995e+00 4.3462180444327272e+00 
1268 1269 2 1.0279999999972360e+00 4.1780611281486035e+03 1.0000000000000000e+00 1.0040009980019127e+01 1.7970711975998044e+00 4.3863651127836487e+00 
489 490 2 1.0280000000037051e+00 -2.2444587532352180e+03 1.0000000000000000e+00 1.0512333309177896e+01 1.5451808178706417e+00 4.6518492345303537e+00 
1320 1321 2 1.0279999999988574e+00 4.1782026144862220e+03 1.0000000000000000e+00 1.0065414000400279e+01 1.8547273212344046e+00 4.6866815676879545e+00 
573 574 2 1.0280000000048928e+00 -2.2443399718476830e+03 1.0000000000000000e+00 1.0523681611266964e+01 1.5461203588182659e+00 4.7294527804319557e+00 
898 899 2 1.0279999999992417e+00 6.8237233060405458e+02 1.0000000000000000e+00 1.0074621102333628e+01 1.8525045619122098e+00 4.7327668431292915e+00 
192 193 2 1.0280000000006537e+00 7.1294993910300254e+03 1.0000000000000000e+00 1.9927421140871779e+01 1.9040137894036040e+00 3.0672249938967502e+00 
357 358 2 1.0280000000004499e+00 -4.0668223112408532e+03 1.0000000000000000e+00 1.9805478806433705e+01 2.0038377163742753e+00 3.5737303716934123e+00 
480 481 2 1.0280000000001417e+00 -4.2056973352809728e+03 1.0000000000000000e+00 1.9083828105814874e+01 1.2239353244208814e+01 8.6716678199002626e+00 
1090 1091 2 1.0280000000002971e+00 -3.9555799051765163e+01 1.0000000000000000e+00 1.9217528429572358e+01 1.1849135800133645e+01 8.8552181161030106e+00 
293 294 2 1.0280000000003966e+00 5.8720446760120576e+03 1.0000000000000000e+00 1.8903636267998994e+01 1.2064760572048169e+01 8.8681760178261779e+00 
310 311 2 1.0280000000004395e+00 -1.7011233306532718e+03 1.0000000000000000e+00 1.8839330407988218e+01 1.1911427719737652e+01 9.0307614744812952e+00 
1348 1349 2 1.0279999999982987e+00 2.5931298578317155e+03 1.0000000000000000e+00 1.9925668451974055e+01 1.3648493831102138e+01 8.5961252390187468e+00 
1402 1403 2 1.0279999999997396e+00 1.7277412480620148e+02 1.0000000000000000e+00 1.7769097297364443e+01 1.9044148154817503e+01 8.2702936057916503e+00 
34 35 2 1.0279999999998060e+00 1.7277508377253940e+02 1.0000000000000000e+00 1.7769096950970283e+01 1.9213304381534023e+01 8.2704136591384181e+00 
167 168 2 1.0279999999999390e+00 1.1559976322635088e+04 1.0000000000000000e+00 1.9422592159238935e+01 1.8984490437394776e+01 8.4056234412889985e+00 
1231 1232 2 1.0279999999995593e+00 1.1559947256043542e+04 1.0000000000000000e+00 1.9422588197269764e+01 1.9276310211872072e+01 8.4061944536469095e+00 
114 115 2 1.0280000000002345e+00 2.9603549987012102e+03 1.0000000000000000e+00 1.9068673894093813e+01 1.7729945179112001e+01 9.0251928031358695e+00 
274 275 2 1.0279999999566545e+00 8.5471067053930568e+01 1.0000000000000000e+00 1.4789299583714595e+01 1.0882712733972383e-01 1.0542153567301112e+01 
491 492 2 1.0280000000062519e+00 3.9456546945858935e+02 1.0000000000000000e+00 1.5726934656751375e+01 1.3019033273526839e+00 1.1476675239656760e+01 
887 888 2 1.0279999999797664e+00 9.0902523625866684e+02 1.0000000000000000e+00 1.5367957920080608e+01 1.9546788420892873e+00 1.1695365794074581e+01 
324 325 2 1.0279999999947902e+00 8.7205626011424320e+03 1.0000000000000000e+00 1.5342412982301976e+01 1.9101334339713569e+00 1.1781259853251155e+01 
440 441 2 1.0279999999964009e+00 8.7206029157342873e+03 1.0000000000000000e+00 1.5350201077022270e+01 1.9064476068538914e+00 1.1794257573907087e+01 
787 788 2 1.0280000000017719e+00 9.0905624909520543e+02 1.0000000000000000e+00 1.5437211000148583e+01 1.9084527153403918e+00 1.1827652063967454e+01 
575 576 2 1.0280000000163401e+00 3.9457702746145492e+02 1.0000000000000000e+00 1.5562253823343793e+01 1.3278793736433259e+00 1.2031134763490810e+01 
1516 1517 2 1.0279999999752496e+00 -4.9543128698633991e+03 1.0000000000000000e+00 1.6612613831903129e+01 5.3206841315574653e+00 1.1589507863803544e+01 
446 447 2 1.0279999999744474e+00 -3.0677818979985195e+03 1.0000000000000000e+00 1.6027966478037477e+01 3.6950002169350378e+00 1.1675876944407319e+01 
314 315 2 1.0279999999748879e+00 -3.0678749130282340e+03 1.0000000000000000e+00 1.6027260621537287e+01 3.6989991611787700e+00 1.1679238749011480e+01 
20 21 2 1.0280000000108678e+00 2.4741083713828630e+02 1.0000000000000000e+00 1.6665445541371351e+01 4.8708262614410778e+00 1.1706642284062841e+01 
1376 1377 2 1.0279999999981788e+00 -4.9544871489395900e+03 1.0000000000000000e+00 1.6726930067753383e+01 5.0128918131788280e+00 1.1705743892550800e+01 
1346 1347 2 1.0279999999994678e+00 -4.7149999480622009e+03 1.0000000000000000e+00 1.6715775729093789e+01 4.9901267863501895e+00 1.1717311844387087e+01 
136 137 2 1.0280000000081355e+00 2.4747710976767667e+02 1.0000000000000000e+00 1.6666979857885540e+01 4.8846095022723519e+00 1.1728370174244317e+01 
1238 1239 2 1.0279999999939389e+00 -4.7149008630295193e+03 1.0000000000000000e+00 1.6736564816811651e+01 5.0718811381044437e+00 1.1759247556322391e+01 
755 756 2 1.0279999999927860e+00 -2.9650548344129456e+03 1.0000000000000000e+00 1.9795609165695041e+01 9.8423052578589854e+00 1.1532678063508072e+01 
922 923 2 1.0279999999995380e+00 4.0780207944546284e+01 1.0000000000000000e+00 1.7275287035716037e+01 7.9372858539220958e+00 1.1646215080426321e+01 
632 633 2 1.0279999999930243e+00 -1.9842001549593142e+03 1.0000000000000000e+00 1.7265763985658140e+01 7.8548676567161504e+00 1.1678255470124173e+01 
1372 1373 2 1.0279999999952190e+00 -1.5618524279929638e+03 1.0000000000000000e+00 1.7110441762530108e+01 9.5077775334237202e+00 1.1708051726523705e+01 
1364 1365 2 1.0279999999699285e+00 -3.2237590759415070e+03 1.0000000000000000e+00 1.7269458685085066e+01 7.7812090133706189e+00 1.1744694577593650e+01 
1224 1225 2 1.0279999999714153e+00 -3.2236720600798744e+03 1.0000000000000000e+00 1.7272473445097610e+01 7.7814526733061902e+00 1.1747683882334991e+01 
740 741 2 1.0279999999950564e+00 -1.9840644406965207e+03 1.0000000000000000e+00 1.7312022143596206e+01 7.8127087819039218e+00 1.1777555442127651e+01 
1054 1055 2 1.0280000000057286e+00 4.0961938628273089e+01 1.0000000000000000e+00 1.7353327814457963e+01 7.9109235551308075e+00 1.1829527201910635e+01 
1520 1521 2 1.0279999999960108e+00 -1.5617608272416485e+03 1.0000000000000000e+00 1.7120766840730809e+01 9.5065647426927384e+00 1.1869541637229513e+01 
615 616 2 1.0280000000015233e+00 -2.9649912037301438e+03 1.0000000000000000e+00 1.9789960320607488e+01 9.8394449901951493e+00 1.1908620236247678e+01 
914 915 2 1.0280000000000680e+00 -2.1838475116825120e+03 1.0000000000000000e+00 1.8929321988607917e+01 1.1535945847790897e+01 9.4680493155202488e+00 
1371 1372 2 1.0280000000004079e+00 -8.9818714456198950e+02 1.0000000000000000e+00 1.7706923241113451e+01 1.2035906469898482e+01 9.8489796886278906e+00 
308 309 2 1.0279999999996403e+00 2.3130385004371628e+03 1.0000000000000000e+00 1.7347759757525555e+01 1.1876561691331400e+01 1.0302335758267237e+01 
770 771 2 1.0279999999990965e+00 -2.2238881875198895e+03 1.0000000000000000e+00 1.6840345311478291e+01 1.3120153687951957e+01 1.0900301275314442e+01 
312 313 2 1.0279999999975338e+00 2.8059372241485175e+02 1.0000000000000000e+00 1.6862803971089978e+01 1.1719518174144810e+01 1.1139275935096450e+01 
919 920 2 1.0279999999952971e+00 -8.0662935093720466e+02 1.0000000000000000e+00 1.9683865582309370e+01 1.0072747474215472e+01 1.1221175185408132e+01 
316 317 2 1.0279999999952723e+00 5.3263304299055098e+03 1.0000000000000000e+00 1.6901934470718892e+01 1.1186221432860100e+01 1.1513893408520152e+01 
448 449 2 1.0279999999959679e+00 5.3263985758225999e+03 1.0000000000000000e+00 1.6907550135891853e+01 1.1165701826750903e+01 1.2056523309831499e+01 
916 917 2 1.0279999999954768e+00 2.6314792209204188e+03 1.0000000000000000e+00 1.8585796423858454e+01 1.4384464429241266e+01 9.6565188725179603e+00 
295 296 2 1.0280000000180649e+00 2.0932347954139817e+02 1.0000000000000000e+00 1.9654453462699486e+01 1.4616106954969698e+01 1.0334508223135121e+01 
1396 1397 2 1.0279999999980580e+00 -7.0910431880617966e+02 1.0000000000000000e+00 1.7521837489900854e+01 1.4512050344652387e+01 1.0605964391241262e+01 
1384 1385 2 1.0279999999986988e+00 2.1797709773093247e+03 1.0000000000000000e+00 1.7388684091830960e+01 1.4411495817977285e+01 1.0694929866307449e+01 
1386 1387 2 1.0279999999983629e+00 -2.0428459052208898e+03 1.0000000000000000e+00 1.7451909563030899e+01 1.4555965046498669e+01 1.0723732878712553e+01 
478 479 2 1.0279999999965463e+00 4.5178233819102104e+02 1.0000000000000000e+00 1.7847678429570198e+01 1.5648547517880569e+01 1.1050207177157647e+01 
1366 1367 2 1.0280000000004690e+00 1.8120770121459784e+03 1.0000000000000000e+00 1.6637887851015080e+01 1.8762411592603886e+01 9.6230502332212033e+00 
302 303 2 1.0279999999997516e+00 1.8120776332023415e+03 1.0000000000000000e+00 1.6637539933699482e+01 1.9490789311142109e+01 9.6230898316664124e+00 
298 299 2 1.0279999999988034e+00 -3.3052064195696448e+03 1.0000000000000000e+00 1.8515858513489320e+01 1.7481015396752564e+01 9.2554205839232253e+00 
130 131 2 1.0280000000001297e+00 4.8888407031599706e+02 1.0000000000000000e+00 1.9196655500208934e+01 1.7328621249150331e+01 9.4757659973525445e+00 
1080 1081 2 1.0279999999998908e+00 2.9125069426176615e+03 1.0000000000000000e+00 1.6806054578945808e+01 1.8389899498037092e+01 9.4875396362762565e+00 
320 321 2 1.0279999999999609e+00 2.9125037756254396e+03 1.0000000000000000e+00 1.6805558785547223e+01 1.9863882426586407e+01 9.4876324140564421e+00 
12 13 2 1.0280000000004603e+00 4.7645568329383068e+03 1.0000000000000000e+00 1.6836978825453034e+01 1.8382074667218660e+01 1.0025687847099030e+01 
1380 1381 2 1.0279999999995559e+00 4.7645596563508534e+03 1.0000000000000000e+00 1.6836210969530129e+01 1.9870911579756399e+01 1.0025949044811368e+01 
1046 1047 2 1.0279999999906100e+00 2.8015615263759028e+03 1.0000000000000000e+00 1.8635069423157042e+01 1.6690806766213516e+01 1.0123025476199732e+01 
127 128 2 1.0280000000121303e+00 -9.2269103343859797e+01 1.0000000000000000e+00 1.8081545639481078e+01 1.8251359424578027e+01 1.1454129004543308e+01 
27 28 2 1.0280000000073803e+00 -9.2498856517383047e+01 1.0000000000000000e+00 1.8074688396094988e+01 1.8255451445552836e+01 1.2096289649517276e+01 
1395 1396 2 1.0279999999864557e+00 -9.2477462320135913e+01 1.0000000000000000e+00 1.8074298092700452e+01 1.9998786365049824e+01 1.2098351681853929e+01 
1059 1060 2 1.0280000000098799e+00 -8.0664961801926552e+02 1.0000000000000000e+00 1.9667161834878669e+01 1.0076362164359907e+01 1.2212694796820688e+01 
452 453 2 1.0279999999984193e+00 2.8070283329017263e+02 1.0000000000000000e+00 1.6854571477827818e+01 1.1746628928852669e+01 1.2442978995379725e+01 
902 903 2 1.0279999999999363e+00 -2.2238512794529397e+03 1.0000000000000000e+00 1.6838679445891717e+01 1.3108151046421865e+01 1.2657856965077348e+01 
456 457 2 1.0280000000002927e+00 2.3129516578162311e+03 1.0000000000000000e+00 1.7344268796275532e+01 1.1853717149153699e+01 1.3262036933648787e+01 
1519 1520 2 1.0280000000004570e+00 -8.9827896314128225e+02 1.0000000000000000e+00 1.7707915931395906e+01 1.2007362693594809e+01 1.3712578153521852e+01 
1062 1063 2 1.0279999999992548e+00 -2.1837669457685388e+03 1.0000000000000000e+00 1.8940824206296490e+01 1.1520595800324037e+01 1.4063413695978282e+01 
450 451 2 1.0279999999993612e+00 -1.7012640074645169e+03 1.0000000000000000e+00 1.8841942189254610e+01 1.1874053999640484e+01 1.4515216489848491e+01 
161 162 2 1.0279999999996272e+00 5.8720002867281410e+03 1.0000000000000000e+00 1.8902375506667763e+01 1.2026981874400120e+01 1.4684126987710627e+01 
1190 1191 2 1.0279999999995055e+00 -3.9620893068270220e+01 1.0000000000000000e+00 1.9215647793825585e+01 1.1809666042795270e+01 1.4688397059518937e+01 
588 589 2 1.0279999999995784e+00 -4.2057015367881013e+03 1.0000000000000000e+00 1.9079063595174485e+01 1.2200653699821148e+01 1.4885722735508962e+01 
586 587 2 1.0279999999973428e+00 4.5177817028014670e+02 1.0000000000000000e+00 1.7841060711197372e+01 1.5637137979056249e+01 1.2503051582038722e+01 
1502 1503 2 1.0279999999993197e+00 -2.0428809646250315e+03 1.0000000000000000e+00 1.7465142024576327e+01 1.4561049258614007e+01 1.2835080925226926e+01 
1508 1509 2 1.0279999999994069e+00 2.1798527124740363e+03 1.0000000000000000e+00 1.7405032704081417e+01 1.4422330981684583e+01 1.2863789107646575e+01 
1496 1497 2 1.0279999999991565e+00 -7.0913182088749090e+02 1.0000000000000000e+00 1.7530462174856904e+01 1.4510052252947670e+01 1.2949745576646935e+01 
163 164 2 1.0280000000094516e+00 2.0942779942276078e+02 1.0000000000000000e+00 1.9624665250002913e+01 1.4638067374121196e+01 1.3263251060145445e+01 
1064 1065 2 1.0279999999976335e+00 2.6315095261237475e+03 1.0000000000000000e+00 1.8588433787832589e+01 1.4359177912627697e+01 1.3888971286401890e+01 
1240 1241 2 1.0279999999994600e+00 2.5934009412148780e+03 1.0000000000000000e+00 1.9917438740066483e+01 1.3626563658421460e+01 1.4967961466437318e+01 
1218 1219 2 1.0280000000000507e+00 1.8122387964212571e+03 1.0000000000000000e+00 1.6630498211996340e+01 1.8760134008250184e+01 1.3933631386513984e+01 
154 155 2 1.0279999999990825e+00 1.8122393282138733e+03 1.0000000000000000e+00 1.6630177577654585e+01 1.9492388670453195e+01 1.3933722548284919e+01 
930 931 2 1.0279999999944021e+00 2.8017910972974478e+03 1.0000000000000000e+00 1.8619392476096220e+01 1.6712447799374253e+01 1.3435349203664916e+01 
144 145 2 1.0280000000002651e+00 4.7647079948796982e+03 1.0000000000000000e+00 1.6831840054475542e+01 1.8378506580154344e+01 1.3531695579858765e+01 
1512 1513 2 1.0279999999991860e+00 4.7647105163346168e+03 1.0000000000000000e+00 1.6831262041043896e+01 1.9874158060218210e+01 1.3531806731752692e+01 
1204 1205 2 1.0280000000004950e+00 2.9123302085698679e+03 1.0000000000000000e+00 1.6795635980348059e+01 1.8391753996330468e+01 1.4069728741376641e+01 
444 445 2 1.0279999999994800e+00 2.9123246054835308e+03 1.0000000000000000e+00 1.6795089892803158e+01 1.9861159773886058e+01 1.4069941035001083e+01 
22 23 2 1.0280000000010614e+00 4.8816014041512494e+02 1.0000000000000000e+00 1.9175799733211971e+01 1.7342723225757187e+01 1.4088131547847054e+01 
158 159 2 1.0279999999999081e+00 -3.3053108123725588e+03 1.0000000000000000e+00 1.8501535864012986e+01 1.7481342084600850e+01 1.4306331703368965e+01 
38 39 2 1.0280000000004847e+00 2.9604548248807669e+03 1.0000000000000000e+00 1.9051907275309180e+01 1.7735427323419817e+01 1.4539595195774840e+01 
732 733 2 1.0279999999977432e+00 -1.1460093640552391e+03 1.0000000000000000e+00 1.1499033645656866e+01 1.1517495451691491e+00 1.5620167435295469e+01 
1450 1451 2 1.0279999999981209e+00 -3.9156377935866306e+02 1.0000000000000000e+00 1.1428764057736645e+01 1.1229779573035199e+00 1.5669139767339091e+01 
671 672 2 1.0279999999972240e+00 8.3941882080268315e+03 1.0000000000000000e+00 1.1565793104373205e+01 1.2645753204456780e+00 1.5777496970342682e+01 
188 189 2 1.0279999999973219e+00 2.5655166747184876e+02 1.0000000000000000e+00 1.1673065899532897e+01 1.2733686227399539e+00 1.5864737277263727e+01 
1438 1439 2 1.0279999999993481e+00 -3.9158692657504469e+02 1.0000000000000000e+00 1.1388075382922416e+01 1.0367279228980362e+00 1.5976488606115959e+01 
640 641 2 1.0279999999994660e+00 -1.1460594256636246e+03 1.0000000000000000e+00 1.1407413145001305e+01 1.0219038432428345e+00 1.6008425171839853e+01 
699 700 2 1.0279999999991645e+00 8.3942487529975660e+03 1.0000000000000000e+00 1.1449193108793564e+01 1.0813610448094861e+00 1.6024913584594778e+01 
272 273 2 1.0279999999992255e+00 2.5664638174164310e+02 1.0000000000000000e+00 1.1493512877994482e+01 1.0724495868380899e+00 1.6060708134581287e+01 
1355 1356 2 1.0279999999989924e+00 1.1560261364784636e+04 1.0000000000000000e+00 1.9412676785391035e+01 1.9257826758088889e+01 1.5155465043522614e+01 
291 292 2 1.0279999999992244e+00 1.1560289421960188e+04 1.0000000000000000e+00 1.9412646397110429e+01 1.9000875796632734e+01 1.5155797604940748e+01 
1486 1487 2 1.0279999999996872e+00 1.7269941874727300e+02 1.0000000000000000e+00 1.7767421853205729e+01 1.9042422797738645e+01 1.5298059398816903e+01 
118 119 2 1.0279999999995866e+00 1.7270047000072390e+02 1.0000000000000000e+00 1.7767403249651814e+01 1.9213645788366247e+01 1.5297990280399722e+01 
857 858 2 1.0279999999994038e+00 -1.0978942721626390e+03 1.0000000000000000e+00 1.9849563247174480e+01 1.8748637994710127e+00 1.8908692375529235e+01 
401 402 2 1.0280000000002321e+00 -4.0670029087405028e+03 1.0000000000000000e+00 1.9499480473482194e+01 2.0699982207070033e+00 1.9447300018213046e+01 
268 269 2 1.0280000000007252e+00 7.1299142277891042e+03 1.0000000000000000e+00 1.9607050206590046e+01 1.9799071126821168e+00 2.0005100359961965e+01 
1266 1267 2 1.0280000000007887e+00 2.1105389997957479e+02 1.0000000000000000e+00 1.9785872368325567e+01 1.9217302495390769e+00 2.0145799572108729e+01 
352 353 2 1.0279999999999978e+00 -2.1268016710904940e+03 1.0000000000000000e+00 5.2273567341292633e-02 1.9398822551041043e+01 2.3346590386276191e+01 
62 63 2 1.0279999999999969e+00 -2.1932106692036314e+03 1.0000000000000000e+00 1.6983424194428740e-01 1.9226376995751867e+01 2.3436156523371832e+01 
1175 1176 2 1.0280000000000002e+00 2.7878117355913737e+03 1.0000000000000000e+00 2.6533623057336611e+00 2.8718002998451375e+00 2.4250502714623615e+01 
218 219 2 1.0280000000000000e+00 -6.3887720183604097e+02 1.0000000000000000e+00 2.6507694198777316e+00 2.8742026121064939e+00 2.4250501943788720e+01 
1156 1157 2 1.0280000000000009e+00 -3.1403218566592550e+03 1.0000000000000000e+00 2.6540097373772822e+00 2.8718142520100103e+00 2.4251883810394702e+01 
512 513 2 1.0280000000000011e+00 -7.6911064248401963e+03 1.0000000000000000e+00 2.6553997970470760e+00 2.8717405397967566e+00 2.4254867059161175e+01 
238 239 2 1.0280000000000027e+00 -6.3840986460956242e+02 1.0000000000000000e+00 2.6562662825060457e+00 2.8730858677456768e+00 2.4260896793328875e+01 
556 557 2 1.0280000000000029e+00 -7.6909549609319220e+03 1.0000000000000000e+00 2.6566811186102592e+00 2.8728362318690781e+00 2.4261403286890665e+01 
1128 1129 2 1.0280000000000038e+00 -3.1403213893051525e+03 1.0000000000000000e+00 2.6565981912651160e+00 2.8736536377122328e+00 2.4263898907359174e+01 
1107 1108 2 1.0280000000000051e+00 2.7880297156728607e+03 1.0000000000000000e+00 2.6565192147074357e+00 2.8742523875908721e+00 2.4265896672656520e+01 
223 224 2 1.0280000000000054e+00 8.3589568994620868e+02 1.0000000000000000e+00 2.2509131147361924e-01 4.1224157728750077e-01 2.4713945906917655e+01 
795 796 2 1.0280000000000076e+00 4.0403733501543934e+03 1.0000000000000000e+00 5.9835705555652019e-01 7.4888182785860258e-01 2.5182943483049922e+01 
879 880 2 1.0279999999999920e+00 4.0398768067056280e+03 1.0000000000000000e+00 5.3117654035910200e-01 4.4521450785351518e-01 2.6495925726593679e+01 
235 236 2 1.0279999999999931e+00 8.3550363350147370e+02 1.0000000000000000e+00 3.0243670490740460e-01 3.0206316564285929e-01 2.6840507873783242e+01 
1299 1300 2 1.0279999999999943e+00 8.3513326193478179e+02 1.0000000000000000e+00 2.8203957780120875e-01 3.4487317501514875e-02 2.6860150886232926e+01 
1159 1160 2 1.0279999999999996e+00 5.4800303223247852e+02 1.0000000000000000e+00 1.2415934092673178e+00 1.9239830286127965e+01 2.4552763065862241e+01 
1123 1124 2 1.0279999999999982e+00 5.4798494735464351e+02 1.0000000000000000e+00 1.2413921750129628e+00 1.9239668099001296e+01 2.4686198958605502e+01 
90 91 2 1.0280000000000042e+00 -2.1931375878631588e+03 1.0000000000000000e+00 1.7241920284069640e-01 1.9217672709123519e+01 2.5795762575699271e+01 
412 413 2 1.0279999999999985e+00 -2.1268196773518739e+03 1.0000000000000000e+00 5.2998927470734619e-02 1.9385717167740967e+01 2.5885904788745037e+01 
791 792 2 1.0279999999994316e+00 6.7456990812365461e+02 1.0000000000000000e+00 1.7955707496619993e+01 3.7907610512268625e-01 8.6576083782529025e+01 
639 640 2 1.0279999999994540e+00 6.7453820075759347e+02 1.0000000000000000e+00 1.7955704216476306e+01 3.7908156003207272e-01 8.6576084892847120e+01 
472 473 2 1.0279999999994529e+00 -2.4287955313450284e+03 1.0000000000000000e+00 1.7955695116537566e+01 3.7909880167997756e-01 8.6576087891180819e+01 
928 929 2 1.0279999999994582e+00 -2.4287351000859226e+03 1.0000000000000000e+00 1.7955698275258236e+01 3.7906316792663813e-01 8.6576088007677996e+01 
101 102 2 1.0279999999995246e+00 9.5242497125572569e+01 1.0000000000000000e+00 1.8126451590394964e+01 1.0336252336892866e+00 8.7672617342298281e+01 
525 526 2 1.0279999999998468e+00 -5.4072559866570409e+03 1.0000000000000000e+00 6.6097157278489460e+00 1.0883807224540529e+00 9.0180197844790584e+01 
684 685 2 1.0279999999998850e+00 3.0664697438926860e+03 1.0000000000000000e+00 6.9173200227377825e+00 1.5353293093035745e+00 9.0118759980953669e+01 
1067 1068 2 1.0279999999990048e+00 -4.0060938772272027e+02 1.0000000000000000e+00 7.1359092519368224e+00 7.6999073943340546e-01 9.0196931427596965e+01 
1279 1280 2 1.0279999999992826e+00 1.3260094927321716e+03 1.0000000000000000e+00 8.3985800050685597e+00 2.4294484060204318e+00 9.0464843428275444e+01 
1473 1474 2 1.0279999999999629e+00 2.8951911942119968e+03 1.0000000000000000e+00 6.7098567085380383e+00 2.2648268079281531e+00 9.0517801058491145e+01 
107 108 2 1.0279999999982641e+00 1.3335597830519537e+03 1.0000000000000000e+00 9.1117247601867213e+00 2.0902572120042060e+00 9.0665673464859054e+01 
245 246 2 1.0279999999974549e+00 1.1454067596044606e+03 1.0000000000000000e+00 9.3723143126233186e+00 1.5354706949174868e+00 9.0830874007551273e+01 
266 267 2 1.0279999999993519e+00 -6.3953607294691164e+02 1.0000000000000000e+00 1.7694196280854595e+01 7.9086328812575046e-01 8.8027102788344990e+01 
390 391 2 1.0279999999994844e+00 -6.7049646761860640e+02 1.0000000000000000e+00 1.7704840554191694e+01 7.0362901836387748e-01 8.8088622522003291e+01 
1330 1331 2 1.0280000000013820e+00 -6.3906362221933432e+02 1.0000000000000000e+00 1.7647152237865722e+01 3.0776636440665306e-01 8.8183154101692708e+01 
1150 1151 2 1.0280000000010496e+00 -6.6995412233940704e+02 1.0000000000000000e+00 1.7658086140785400e+01 3.5560562221866571e-01 8.8184018548625517e+01 
1453 1454 2 1.0280000000008371e+00 -2.3426611204533274e+03 1.0000000000000000e+00 5.7823551264010922e+00 1.2987508820903306e+00 9.1095680158860517e+01 
1433 1434 2 1.0280000000008906e+00 -2.3419460095861377e+03 1.0000000000000000e+00 5.7942133862202638e+00 1.4018081890352567e+00 9.1566322935385756e+01 
537 538 2 1.0280000000014637e+00 -5.4074944120294003e+03 1.0000000000000000e+00 6.5821399936056491e+00 1.4365463374203116e+00 9.2798642404377617e+01 
264 265 2 1.0279999999994351e+00 2.5970869100489540e+03 1.0000000000000000e+00 8.2703166266864407e+00 3.0478758554713257e+00 9.1262581978388951e+01 
37 38 2 1.0279999999993363e+00 3.9240937328306120e+02 1.0000000000000000e+00 7.9145950283078070e+00 3.0922220940883585e+00 9.1664718394886961e+01 
227 228 2 1.0279999999978220e+00 -1.0410486949241792e+02 1.0000000000000000e+00 9.8698127470162351e+00 2.7250874773713245e+00 9.1783812615914769e+01 
196 197 2 1.0279999999989642e+00 2.6094591068765249e+03 1.0000000000000000e+00 8.3061535426197484e+00 2.9588847719638878e+00 9.2124984675548703e+01 
1413 1414 2 1.0279999999985288e+00 2.8951446355899811e+03 1.0000000000000000e+00 6.7667126119048469e+00 2.4299055964952205e+00 9.2364515144145301e+01 
209 210 2 1.0280000000022425e+00 1.1433791173112618e+03 1.0000000000000000e+00 9.6038316898041458e+00 6.9572087946286509e-01 9.2456020870621074e+01 
1307 1308 2 1.0280000000030898e+00 1.3277817837341042e+03 1.0000000000000000e+00 8.7774846940473683e+00 6.2005930192579106e-01 9.2653385877436492e+01 
688 689 2 1.0279999999988609e+00 3.0671629125766667e+03 1.0000000000000000e+00 6.9626192369050193e+00 1.9196970345761930e+00 9.2842640527879880e+01 
47 48 2 1.0280000000045943e+00 1.3333923704075646e+03 1.0000000000000000e+00 9.4812783039173798e+00 1.0136031857831294e+00 9.2875363556300016e+01 
967 968 2 1.0280000000159617e+00 -2.9983875800158910e+02 1.0000000000000000e+00 7.8469016249571233e+00 2.6139747046781708e-01 9.2919193795401682e+01 
1215 1216 2 1.0280000000047576e+00 -4.0006870149857855e+02 1.0000000000000000e+00 7.1528918123796501e+00 1.0795150625959120e+00 9.3098483671327543e+01 
373 374 2 1.0279999999989224e+00 -2.3478100116997030e+03 1.0000000000000000e+00 1.0995998106948608e+01 1.1254201062974747e+00 9.1447781094863004e+01 
343 344 2 1.0280000000005187e+00 1.7483286517705828e+03 1.0000000000000000e+00 1.1948169330874201e+01 2.0893994902422182e+00 9.1721841740874638e+01 
1471 1472 2 1.0280000000004024e+00 -2.2208974879846619e+02 1.0000000000000000e+00 1.2150957380381339e+01 2.0599538340992272e+00 9.1832305950892561e+01 
92 93 2 1.0279999999997596e+00 -3.9744238540093249e+02 1.0000000000000000e+00 1.2689076499848857e+01 1.6596462139461066e+00 9.2097467667338307e+01 
1263 1264 2 1.0279999999975191e+00 1.8856463498261505e+03 1.0000000000000000e+00 1.2908760542925409e+01 4.9000614002039489e-01 9.2336910605134847e+01 
558 559 2 1.0279999999957339e+00 1.9548448009140197e+03 1.0000000000000000e+00 1.1449092261202001e+01 1.4424028773372341e-01 9.2340108696267095e+01 
113 114 2 1.0280000000000467e+00 4.0357679562142880e+02 1.0000000000000000e+00 1.1373591580774448e+01 2.6606219600362024e+00 9.2389099866207189e+01 
1295 1296 2 1.0279999999996936e+00 -1.0083553218975547e+02 1.0000000000000000e+00 1.1001017160618790e+01 2.6706828893445911e+00 9.2406596498004888e+01 
1419 1420 2 1.0279999999994462e+00 -2.2231760985883298e+02 1.0000000000000000e+00 1.2613884406509932e+01 1.8698922069556094e+00 9.3714515639670125e+01 
419 420 2 1.0279999999997556e+00 1.7480754065709618e+03 1.0000000000000000e+00 1.2394005873743669e+01 1.9302652279942423e+00 9.3731263796276906e+01 
385 386 2 1.0280000000015019e+00 -2.3487632091976966e+03 1.0000000000000000e+00 1.1179638911486727e+01 1.1526251711367421e+00 9.3761601518748407e+01 
64 65 2 1.0279999999991365e+00 -3.9886557865161876e+02 1.0000000000000000e+00 1.3263126610608115e+01 1.3505361201094137e+00 9.3861104367586037e+01 
539 540 2 1.0279999999986229e+00 1.0714731563336866e+03 1.0000000000000000e+00 1.8021316093641747e+01 2.4754629271999909e-02 9.1941617372127794e+01 
538 539 2 1.0279999999989358e+00 1.0714298663986144e+03 1.0000000000000000e+00 1.7778736433810320e+01 3.1279148592193006e-03 9.1947238520705724e+01 
1310 1311 2 1.0280000000001193e+00 -6.0899362020125477e+02 1.0000000000000000e+00 1.8908399411231194e+01 1.4072261056207269e+00 9.2807813457615339e+01 
1311 1312 2 1.0280000000009508e+00 -6.0906939056452802e+02 1.0000000000000000e+00 1.6978882499162051e+01 1.3671320651548784e+00 9.2812060017673588e+01 
407 408 2 1.0280000000003811e+00 1.2214680622534574e+03 1.0000000000000000e+00 1.8981629110484164e+01 1.4572030328777150e+00 9.2913836050662596e+01 
406 407 2 1.0280000000012668e+00 1.2213909373774263e+03 1.0000000000000000e+00 1.6907660482978823e+01 1.4227889191863394e+00 9.2919852808198812e+01 
277 278 2 1.0280000000001637e+00 1.5588462509190222e+03 1.0000000000000000e+00 1.7173830720326563e+01 1.8903790138554901e+00 9.2946419636878332e+01 
280 281 2 1.0279999999997251e+00 1.5588848681365503e+03 1.0000000000000000e+00 1.8715956045380100e+01 1.8696558950534405e+00 9.2947167003820525e+01 
1023 1024 2 1.0280000000004690e+00 -1.4593123859362964e+02 1.0000000000000000e+00 1.6814541558843359e+01 2.3997511182074764e+00 9.3847811888711135e+01 
1022 1023 2 1.0280000000002081e+00 -1.4593865237376917e+02 1.0000000000000000e+00 1.9040937890605012e+01 2.3509340372360796e+00 9.3860316542900563e+01 
506 507 2 1.0280000000004335e+00 1.9535264498109295e+03 1.0000000000000000e+00 1.1605536002621520e+01 7.0946432875742771e-01 9.3979706835961082e+01 
1323 1324 2 1.0279999999994083e+00 1.8841532402179723e+03 1.0000000000000000e+00 1.3506102427962624e+01 6.0618624559430712e-01 9.4285623658508129e+01 
505 506 2 1.0279999999998142e+00 -6.6272759127051522e+03 1.0000000000000000e+00 1.8691574458648539e+01 3.1817105662663088e+00 9.4524980939247655e+01 
508 509 2 1.0280000000004861e+00 -6.6271125173110886e+03 1.0000000000000000e+00 1.6832127202782846e+01 2.7340297339224153e+00 9.4550098583746248e+01 
954 955 2 1.0279999999995280e+00 -1.4504338421427298e+02 1.0000000000000000e+00 1.8893197956369981e+01 2.4481092267887941e+00 9.5395079781878238e+01 
955 956 2 1.0279999999999703e+00 -1.4498717941094299e+02 1.0000000000000000e+00 1.6913613327182020e+01 2.4526448212737151e+00 9.5432979383154162e+01 
355 356 2 1.0279999999997855e+00 1.2200082598029203e+03 1.0000000000000000e+00 1.8846432276649335e+01 1.1515357195227847e+00 9.6167261779959389e+01 
180 181 2 1.0279999999995824e+00 1.5579597987249126e+03 1.0000000000000000e+00 1.8611481877740381e+01 1.6976573705183289e+00 9.6197029183999717e+01 
354 355 2 1.0280000000000484e+00 1.2199448042241736e+03 1.0000000000000000e+00 1.7039265403426114e+01 1.2283784115089438e+00 9.6199772958047902e+01 