LAMMPS data file via write_data, version 30 Jul 2016, timestep = 50400000

2080 atoms
8 atom types

0.0000000000000000e+00 4.0000000000000000e+01 xlo xhi
0.0000000000000000e+00 4.0000000000000000e+01 ylo yhi
0.0000000000000000e+00 1.0000000000000000e+02 zlo zhi

Masses

1 3.896
2 5.36
3 20.064
4 8.378
5 8.378
6 8.378
7 8.378
8 8.378

Atoms # meso-molecular

1 2 4 1.0280724754042576e+00 -2.6774355906602023e+02 1.0000000000000000e+00 0.0000000000000000e+00 0.0000000000000000e+00 2.5000000000000000e+00 
2 2 4 1.0280299042897605e+00 -2.6552290439497608e+02 1.0000000000000000e+00 0.0000000000000000e+00 2.0000000000000000e+00 2.5000000000000000e+00 
3 2 4 1.0279989247643078e+00 -2.5350183061278091e+02 1.0000000000000000e+00 0.0000000000000000e+00 4.0000000000000000e+00 2.5000000000000000e+00 
21 2 4 1.0279674568167134e+00 -2.4008972582305253e+02 1.0000000000000000e+00 2.0000000000000000e+00 0.0000000000000000e+00 2.5000000000000000e+00 
22 2 4 1.0279652336867515e+00 -2.8183851209913769e+02 1.0000000000000000e+00 2.0000000000000000e+00 2.0000000000000000e+00 2.5000000000000000e+00 
23 2 4 1.0279870319929425e+00 -2.4141193321541613e+02 1.0000000000000000e+00 2.0000000000000000e+00 4.0000000000000000e+00 2.5000000000000000e+00 
41 2 4 1.0279393703301798e+00 -2.4683502029874245e+02 1.0000000000000000e+00 4.0000000000000000e+00 0.0000000000000000e+00 2.5000000000000000e+00 
42 2 4 1.0281043778739405e+00 -2.5188652924979397e+02 1.0000000000000000e+00 4.0000000000000000e+00 2.0000000000000000e+00 2.5000000000000000e+00 
43 2 4 1.0280198755845424e+00 -2.8471583581222291e+02 1.0000000000000000e+00 4.0000000000000000e+00 4.0000000000000000e+00 2.5000000000000000e+00 
61 2 4 1.0280975394750429e+00 -2.5780301748936432e+02 1.0000000000000000e+00 6.0000000000000000e+00 0.0000000000000000e+00 2.5000000000000000e+00 
62 2 4 1.0278919540973483e+00 -2.8288805833808152e+02 1.0000000000000000e+00 6.0000000000000000e+00 2.0000000000000000e+00 2.5000000000000000e+00 
63 2 4 1.0279391360818340e+00 -2.6705795232864580e+02 1.0000000000000000e+00 6.0000000000000000e+00 4.0000000000000000e+00 2.5000000000000000e+00 
81 2 4 1.0279344180434429e+00 -2.5570571607851093e+02 1.0000000000000000e+00 8.0000000000000000e+00 0.0000000000000000e+00 2.5000000000000000e+00 
82 2 4 1.0280663272761141e+00 -2.8309656400372415e+02 1.0000000000000000e+00 8.0000000000000000e+00 2.0000000000000000e+00 2.5000000000000000e+00 
83 2 4 1.0280478021680195e+00 -2.6651626983525449e+02 1.0000000000000000e+00 8.0000000000000000e+00 4.0000000000000000e+00 2.5000000000000000e+00 
101 2 4 1.0279676899304200e+00 -2.4336436259928126e+02 1.0000000000000000e+00 1.0000000000000000e+01 0.0000000000000000e+00 2.5000000000000000e+00 
102 2 4 1.0280172778919821e+00 -2.8550763093005418e+02 1.0000000000000000e+00 1.0000000000000000e+01 2.0000000000000000e+00 2.5000000000000000e+00 
103 2 4 1.0279771889611264e+00 -2.7572743053244352e+02 1.0000000000000000e+00 1.0000000000000000e+01 4.0000000000000000e+00 2.5000000000000000e+00 
121 2 4 1.0280047760162689e+00 -2.9253085919596037e+02 1.0000000000000000e+00 1.2000000000000000e+01 0.0000000000000000e+00 2.5000000000000000e+00 
122 2 4 1.0280209859412437e+00 -2.6802494983599092e+02 1.0000000000000000e+00 1.2000000000000000e+01 2.0000000000000000e+00 2.5000000000000000e+00 
123 2 4 1.0279137976714214e+00 -2.7183943577155162e+02 1.0000000000000000e+00 1.2000000000000000e+01 4.0000000000000000e+00 2.5000000000000000e+00 
141 2 4 1.0279205910065516e+00 -2.8265276224131128e+02 1.0000000000000000e+00 1.4000000000000000e+01 0.0000000000000000e+00 2.5000000000000000e+00 
142 2 4 1.0280958585850450e+00 -2.1715571808732324e+02 1.0000000000000000e+00 1.4000000000000000e+01 2.0000000000000000e+00 2.5000000000000000e+00 
143 2 4 1.0280001140089838e+00 -2.2480630647688216e+02 1.0000000000000000e+00 1.4000000000000000e+01 4.0000000000000000e+00 2.5000000000000000e+00 
161 2 4 1.0281159243858797e+00 -2.7313580638802483e+02 1.0000000000000000e+00 1.6000000000000000e+01 0.0000000000000000e+00 2.5000000000000000e+00 
162 2 4 1.0278201177092730e+00 -2.4153791852438462e+02 1.0000000000000000e+00 1.6000000000000000e+01 2.0000000000000000e+00 2.5000000000000000e+00 
163 2 4 1.0280861189469757e+00 -2.0810989107171653e+02 1.0000000000000000e+00 1.6000000000000000e+01 4.0000000000000000e+00 2.5000000000000000e+00 
181 2 4 1.0279489244017626e+00 -2.7162363089028162e+02 1.0000000000000000e+00 1.8000000000000000e+01 0.0000000000000000e+00 2.5000000000000000e+00 
182 2 4 1.0281021390915877e+00 -2.7048835166303866e+02 1.0000000000000000e+00 1.8000000000000000e+01 2.0000000000000000e+00 2.5000000000000000e+00 
183 2 4 1.0279580862498900e+00 -2.4484998721005582e+02 1.0000000000000000e+00 1.8000000000000000e+01 4.0000000000000000e+00 2.5000000000000000e+00 
4 2 4 1.0280343914599641e+00 -2.3866696817785021e+02 1.0000000000000000e+00 0.0000000000000000e+00 6.0000000000000000e+00 2.5000000000000000e+00 
5 2 4 1.0279673549426371e+00 -2.0656312917121980e+02 1.0000000000000000e+00 0.0000000000000000e+00 8.0000000000000000e+00 2.5000000000000000e+00 
24 2 4 1.0279576752918780e+00 -2.4234347280942399e+02 1.0000000000000000e+00 2.0000000000000000e+00 6.0000000000000000e+00 2.5000000000000000e+00 
25 2 4 1.0280450830639416e+00 -2.3571295404959724e+02 1.0000000000000000e+00 2.0000000000000000e+00 8.0000000000000000e+00 2.5000000000000000e+00 
44 2 4 1.0280071785629994e+00 -2.6808609089573855e+02 1.0000000000000000e+00 4.0000000000000000e+00 6.0000000000000000e+00 2.5000000000000000e+00 
45 2 4 1.0279728059941111e+00 -2.6158506074280359e+02 1.0000000000000000e+00 4.0000000000000000e+00 8.0000000000000000e+00 2.5000000000000000e+00 
64 2 4 1.0280238987721617e+00 -2.5818491031706259e+02 1.0000000000000000e+00 6.0000000000000000e+00 6.0000000000000000e+00 2.5000000000000000e+00 
65 2 4 1.0280413480207604e+00 -2.6202923115378962e+02 1.0000000000000000e+00 6.0000000000000000e+00 8.0000000000000000e+00 2.5000000000000000e+00 
84 2 4 1.0280132221762845e+00 -2.3165029468640978e+02 1.0000000000000000e+00 8.0000000000000000e+00 6.0000000000000000e+00 2.5000000000000000e+00 
85 2 4 1.0279069504032621e+00 -2.3521151416677887e+02 1.0000000000000000e+00 8.0000000000000000e+00 8.0000000000000000e+00 2.5000000000000000e+00 
104 2 4 1.0279597121714512e+00 -2.4692411189472128e+02 1.0000000000000000e+00 1.0000000000000000e+01 6.0000000000000000e+00 2.5000000000000000e+00 
105 2 4 1.0280836384199599e+00 -2.3114471205628985e+02 1.0000000000000000e+00 1.0000000000000000e+01 8.0000000000000000e+00 2.5000000000000000e+00 
124 2 4 1.0281253836446722e+00 -2.5097782557232119e+02 1.0000000000000000e+00 1.2000000000000000e+01 6.0000000000000000e+00 2.5000000000000000e+00 
125 2 4 1.0279183962233598e+00 -2.2440654445535645e+02 1.0000000000000000e+00 1.2000000000000000e+01 8.0000000000000000e+00 2.5000000000000000e+00 
144 2 4 1.0279634803872446e+00 -2.1106544111410869e+02 1.0000000000000000e+00 1.4000000000000000e+01 6.0000000000000000e+00 2.5000000000000000e+00 
145 2 4 1.0280086791650320e+00 -9.2951223300055545e+01 1.0000000000000000e+00 1.4000000000000000e+01 8.0000000000000000e+00 2.5000000000000000e+00 
164 2 4 1.0279790843992949e+00 -1.6033367860269513e+02 1.0000000000000000e+00 1.6000000000000000e+01 6.0000000000000000e+00 2.5000000000000000e+00 
165 2 4 1.0279900647452069e+00 7.4363451682187247e+01 1.0000000000000000e+00 1.6000000000000000e+01 8.0000000000000000e+00 2.5000000000000000e+00 
184 2 4 1.0279939882073332e+00 -1.8996742228087030e+02 1.0000000000000000e+00 1.8000000000000000e+01 6.0000000000000000e+00 2.5000000000000000e+00 
185 2 4 1.0280543788075283e+00 5.2426881071001311e+01 1.0000000000000000e+00 1.8000000000000000e+01 8.0000000000000000e+00 2.5000000000000000e+00 
6 2 4 1.0279908801102566e+00 -1.8862170077640954e+02 1.0000000000000000e+00 0.0000000000000000e+00 1.0000000000000000e+01 2.5000000000000000e+00 
7 2 4 1.0280092464099468e+00 -2.0622111115686630e+02 1.0000000000000000e+00 0.0000000000000000e+00 1.2000000000000000e+01 2.5000000000000000e+00 
8 2 4 1.0280549247655137e+00 -2.3003643498634662e+02 1.0000000000000000e+00 0.0000000000000000e+00 1.4000000000000000e+01 2.5000000000000000e+00 
26 2 4 1.0280027720190188e+00 -2.1240906426193979e+02 1.0000000000000000e+00 2.0000000000000000e+00 1.0000000000000000e+01 2.5000000000000000e+00 
27 2 4 1.0279808634762246e+00 -1.9497843932728608e+02 1.0000000000000000e+00 2.0000000000000000e+00 1.2000000000000000e+01 2.5000000000000000e+00 
28 2 4 1.0279663777047141e+00 -2.1812712758557240e+02 1.0000000000000000e+00 2.0000000000000000e+00 1.4000000000000000e+01 2.5000000000000000e+00 
46 2 4 1.0279936890327173e+00 -2.5188824805557741e+02 1.0000000000000000e+00 4.0000000000000000e+00 1.0000000000000000e+01 2.5000000000000000e+00 
47 2 4 1.0280545655869460e+00 -2.1489203545435129e+02 1.0000000000000000e+00 4.0000000000000000e+00 1.2000000000000000e+01 2.5000000000000000e+00 
48 2 4 1.0279507227802178e+00 -2.2621134562897294e+02 1.0000000000000000e+00 4.0000000000000000e+00 1.4000000000000000e+01 2.5000000000000000e+00 
66 2 4 1.0279498521778923e+00 -2.6263548558463987e+02 1.0000000000000000e+00 6.0000000000000000e+00 1.0000000000000000e+01 2.5000000000000000e+00 
67 2 4 1.0280008126350644e+00 -2.4555685668834155e+02 1.0000000000000000e+00 6.0000000000000000e+00 1.2000000000000000e+01 2.5000000000000000e+00 
68 2 4 1.0280116102172163e+00 -2.3221495733330093e+02 1.0000000000000000e+00 6.0000000000000000e+00 1.4000000000000000e+01 2.5000000000000000e+00 
86 2 4 1.0281314459794870e+00 -2.6375389049933557e+02 1.0000000000000000e+00 8.0000000000000000e+00 1.0000000000000000e+01 2.5000000000000000e+00 
87 2 4 1.0279260697323018e+00 -2.6986000055824405e+02 1.0000000000000000e+00 8.0000000000000000e+00 1.2000000000000000e+01 2.5000000000000000e+00 
88 2 4 1.0280327114377934e+00 -2.3401034043509645e+02 1.0000000000000000e+00 8.0000000000000000e+00 1.4000000000000000e+01 2.5000000000000000e+00 
106 2 4 1.0279157217949102e+00 -2.4895017297120319e+02 1.0000000000000000e+00 1.0000000000000000e+01 1.0000000000000000e+01 2.5000000000000000e+00 
107 2 4 1.0280134552968980e+00 -2.5052715977668410e+02 1.0000000000000000e+00 1.0000000000000000e+01 1.2000000000000000e+01 2.5000000000000000e+00 
108 2 4 1.0280182988078992e+00 -2.0608670487365188e+02 1.0000000000000000e+00 1.0000000000000000e+01 1.4000000000000000e+01 2.5000000000000000e+00 
126 2 4 1.0280240905227878e+00 -1.9806875876379794e+02 1.0000000000000000e+00 1.2000000000000000e+01 1.0000000000000000e+01 2.5000000000000000e+00 
127 2 4 1.0280607711784424e+00 -2.1013844728789320e+02 1.0000000000000000e+00 1.2000000000000000e+01 1.2000000000000000e+01 2.5000000000000000e+00 
128 2 4 1.0279160443017614e+00 -2.1533354639945733e+02 1.0000000000000000e+00 1.2000000000000000e+01 1.4000000000000000e+01 2.5000000000000000e+00 
146 2 4 1.0280019283338373e+00 3.2177732929358669e+01 1.0000000000000000e+00 1.4000000000000000e+01 1.0000000000000000e+01 2.5000000000000000e+00 
147 2 4 1.0279769377589960e+00 5.3674864603115459e+01 1.0000000000000000e+00 1.4000000000000000e+01 1.2000000000000000e+01 2.5000000000000000e+00 
148 2 4 1.0280334794496389e+00 3.6745785266654876e+00 1.0000000000000000e+00 1.4000000000000000e+01 1.4000000000000000e+01 2.5000000000000000e+00 
166 2 4 1.0280855016366643e+00 2.9002704729030626e+02 1.0000000000000000e+00 1.6000000000000000e+01 1.0000000000000000e+01 2.5000000000000000e+00 
167 2 4 1.0278863770389433e+00 3.6341627991506772e+02 1.0000000000000000e+00 1.6000000000000000e+01 1.2000000000000000e+01 2.5000000000000000e+00 
168 2 4 1.0280921129378930e+00 3.3652405916457485e+02 1.0000000000000000e+00 1.6000000000000000e+01 1.4000000000000000e+01 2.5000000000000000e+00 
186 2 4 1.0278870145540131e+00 2.4390299948219308e+02 1.0000000000000000e+00 1.8000000000000000e+01 1.0000000000000000e+01 2.5000000000000000e+00 
187 2 4 1.0281236835956793e+00 2.9972524171140731e+02 1.0000000000000000e+00 1.8000000000000000e+01 1.2000000000000000e+01 2.5000000000000000e+00 
188 2 4 1.0279401689034795e+00 3.5398322150546500e+02 1.0000000000000000e+00 1.8000000000000000e+01 1.4000000000000000e+01 2.5000000000000000e+00 
9 2 4 1.0278647565720762e+00 -2.4484297292300661e+02 1.0000000000000000e+00 0.0000000000000000e+00 1.6000000000000000e+01 2.5000000000000000e+00 
10 2 4 1.0280627057672012e+00 -2.1636480234706607e+02 1.0000000000000000e+00 0.0000000000000000e+00 1.8000000000000000e+01 2.5000000000000000e+00 
29 2 4 1.0280542768028065e+00 -2.4749889901588639e+02 1.0000000000000000e+00 2.0000000000000000e+00 1.6000000000000000e+01 2.5000000000000000e+00 
30 2 4 1.0280190454273346e+00 -2.0728295392228949e+02 1.0000000000000000e+00 2.0000000000000000e+00 1.8000000000000000e+01 2.5000000000000000e+00 
49 2 4 1.0280727164622117e+00 -2.5429448020502556e+02 1.0000000000000000e+00 4.0000000000000000e+00 1.6000000000000000e+01 2.5000000000000000e+00 
50 2 4 1.0279220498583355e+00 -2.2380523573903403e+02 1.0000000000000000e+00 4.0000000000000000e+00 1.8000000000000000e+01 2.5000000000000000e+00 
69 2 4 1.0279548686934730e+00 -2.6411279041635544e+02 1.0000000000000000e+00 6.0000000000000000e+00 1.6000000000000000e+01 2.5000000000000000e+00 
70 2 4 1.0280320669238074e+00 -2.6683814180368631e+02 1.0000000000000000e+00 6.0000000000000000e+00 1.8000000000000000e+01 2.5000000000000000e+00 
89 2 4 1.0280228393497521e+00 -2.3645613202851726e+02 1.0000000000000000e+00 8.0000000000000000e+00 1.6000000000000000e+01 2.5000000000000000e+00 
90 2 4 1.0279547253831181e+00 -2.7876523811389302e+02 1.0000000000000000e+00 8.0000000000000000e+00 1.8000000000000000e+01 2.5000000000000000e+00 
109 2 4 1.0279554045123083e+00 -1.6500297185796617e+02 1.0000000000000000e+00 1.0000000000000000e+01 1.6000000000000000e+01 2.5000000000000000e+00 
110 2 4 1.0280544592777172e+00 -2.4557593507118685e+02 1.0000000000000000e+00 1.0000000000000000e+01 1.8000000000000000e+01 2.5000000000000000e+00 
129 2 4 1.0280537168494877e+00 -1.9419399397380499e+02 1.0000000000000000e+00 1.2000000000000000e+01 1.6000000000000000e+01 2.5000000000000000e+00 
130 2 4 1.0279719477175535e+00 -2.6421476680560431e+02 1.0000000000000000e+00 1.2000000000000000e+01 1.8000000000000000e+01 2.5000000000000000e+00 
149 2 4 1.0280025612218624e+00 -1.0574240189453073e+02 1.0000000000000000e+00 1.4000000000000000e+01 1.6000000000000000e+01 2.5000000000000000e+00 
150 2 4 1.0280131628311815e+00 -2.6258634199422340e+02 1.0000000000000000e+00 1.4000000000000000e+01 1.8000000000000000e+01 2.5000000000000000e+00 
169 2 4 1.0279016823046019e+00 5.7416025452557193e+01 1.0000000000000000e+00 1.6000000000000000e+01 1.6000000000000000e+01 2.5000000000000000e+00 
170 2 4 1.0280303736464600e+00 -3.3174785885980089e+02 1.0000000000000000e+00 1.6000000000000000e+01 1.8000000000000000e+01 2.5000000000000000e+00 
189 2 4 1.0280529568530674e+00 -2.5982722252870900e+02 1.0000000000000000e+00 1.8000000000000000e+01 1.6000000000000000e+01 2.5000000000000000e+00 
190 2 4 1.0279962644447755e+00 -7.0490169078040287e+02 1.0000000000000000e+00 1.8000000000000000e+01 1.8000000000000000e+01 2.5000000000000000e+00 
1811 1413 2 1.0280004463625874e+00 -4.1194056664290861e+02 1.0000000000000000e+00 4.5740756579781845e+00 1.9075654367046533e+00 7.2059432457713370e+00 
1554 1156 2 1.0280004620274692e+00 2.5272915375525699e+03 1.0000000000000000e+00 4.4061699358971094e+00 1.9878575547096371e+00 7.2325660754414463e+00 
1146 748 2 1.0280004603297732e+00 -3.1926908233767676e+02 1.0000000000000000e+00 4.4314620326672856e+00 1.9791930328067313e+00 7.2289634414866120e+00 
593 195 2 1.0280004544709651e+00 7.9746449430698522e+02 1.0000000000000000e+00 4.5009807140705744e+00 1.9540179013850574e+00 7.2183912785386495e+00 
1563 1165 2 1.0279992182235846e+00 6.7856441477413782e+03 1.0000000000000000e+00 1.7629189641134522e+00 2.5285683086340360e+00 6.8339098276392169e+00 
637 239 2 1.0280004554116429e+00 -2.9425378794360058e+03 1.0000000000000000e+00 4.0019647225493529e+00 2.1031388631651016e+00 7.2715134025610917e+00 
1992 1594 2 1.0279992180853164e+00 -7.8176953334859554e+03 1.0000000000000000e+00 1.7620616402176930e+00 2.5275720384703142e+00 6.8342107466936373e+00 
1511 1113 2 1.0279992379445626e+00 -6.1367159499943921e+02 1.0000000000000000e+00 1.7491639140048292e+00 2.4858382690677887e+00 6.8558653160583187e+00 
1944 1546 2 1.0279993359156261e+00 -5.7315487114727175e+03 1.0000000000000000e+00 1.7132827698530853e+00 2.2925571954134996e+00 6.9530646660581645e+00 
1482 1084 2 1.0279992209291147e+00 4.4672051952247978e+02 1.0000000000000000e+00 1.7364266177846539e+00 2.4905914294886218e+00 6.8478879797723264e+00 
482 84 2 1.0280004668047227e+00 -7.1685359150936233e+02 1.0000000000000000e+00 4.2542293649682064e+00 2.0344241632129600e+00 7.2513955222862743e+00 
2048 1650 2 1.0280004459905887e+00 -5.0369644705297742e+03 1.0000000000000000e+00 4.5786154096006717e+00 1.9164585923843753e+00 7.2053333585638928e+00 
1096 698 2 1.0279992149835855e+00 -1.4499308855738880e+03 1.0000000000000000e+00 1.7603934306845901e+00 2.5289691656051012e+00 6.8325968614039443e+00 
1840 1442 2 1.0279994178661289e+00 -2.5329114448269074e+03 1.0000000000000000e+00 2.8314607571853795e-01 5.9637666437557368e-01 5.8900902992503639e+00 
1037 639 2 1.0279988874814101e+00 -2.6820929263686076e+03 1.0000000000000000e+00 1.3485871470371378e+00 2.5398414089474386e+00 6.5314798419930726e+00 
2018 1620 2 1.0279995116294902e+00 7.6434778060421570e+02 1.0000000000000000e+00 2.0821838033024163e+00 2.7440620828563076e+00 6.8390520340989678e+00 
641 243 2 1.0280009753017223e+00 -3.5301680044709515e+03 1.0000000000000000e+00 2.7225724285321800e+00 4.4898272247856799e+00 6.3521495821574092e+00 
1184 786 2 1.0280001861930899e+00 -1.7172750494833604e+03 1.0000000000000000e+00 4.9058463817593383e+00 4.1205921570345767e+00 7.2627066148848378e+00 
1316 918 2 1.0280000649482672e+00 -5.9748067896296007e+01 1.0000000000000000e+00 2.7328604993216632e+00 4.8040982017455995e+00 6.5048080412874487e+00 
1901 1503 2 1.0279998692399002e+00 -6.4098248489394609e+03 1.0000000000000000e+00 2.7362065748830942e+00 4.8639183038679485e+00 6.5244566866275653e+00 
1049 651 2 1.0279997413531696e+00 -4.8542267354466903e+03 1.0000000000000000e+00 2.7378666775662608e+00 4.9074076195874330e+00 6.5366784093014818e+00 
872 474 2 1.0279996663001250e+00 1.6026874061670997e+03 1.0000000000000000e+00 2.7385266952478697e+00 4.9348149381299393e+00 6.5436586782966257e+00 
1660 1262 2 1.0279996290848414e+00 9.8113131418513797e+02 1.0000000000000000e+00 2.7387506703968656e+00 4.9489526758246623e+00 6.5470870929663363e+00 
646 248 2 1.0279995914133293e+00 -2.9596838179650108e+03 1.0000000000000000e+00 2.7389153008358673e+00 4.9636116686363918e+00 6.5505786211514936e+00 
1579 1181 2 1.0279995279552858e+00 4.9135803227221322e+03 1.0000000000000000e+00 2.7395901130681253e+00 4.9879198116197587e+00 6.5577039206914414e+00 
786 388 2 1.0279995127109223e+00 1.3035984903937310e+03 1.0000000000000000e+00 2.7393343950773885e+00 4.9948098722692329e+00 6.5585976644462196e+00 
1666 1268 2 1.0280003323366076e+00 -1.4297647987021617e+03 1.0000000000000000e+00 5.0505717205512646e+00 1.5843152064573509e+00 7.1030426832133156e+00 
939 541 2 1.0279993050798744e+00 -3.1287064983624776e+02 1.0000000000000000e+00 5.1422444182617051e+00 1.1687526546069773e-02 6.0858489251716730e+00 
1296 898 2 1.0279992998145138e+00 -2.0485574731224174e+03 1.0000000000000000e+00 5.1551399016282708e+00 5.9377571826720104e-03 6.0904968709627472e+00 
1380 982 2 1.0280007788549974e+00 -4.6713391587248871e+03 1.0000000000000000e+00 7.1623750277630229e+00 3.1788875255516560e+00 6.4421363673709324e+00 
1725 1327 2 1.0279999102682567e+00 1.3320429397406726e+03 1.0000000000000000e+00 8.3532933129756728e+00 3.1208201201188355e+00 6.0816104711346251e+00 
2068 1670 2 1.0280001088091095e+00 6.1514708283322589e+03 1.0000000000000000e+00 6.3101619711911283e+00 2.1570904950402952e+00 6.2782014770644876e+00 
1527 1129 2 1.0279999159144293e+00 -1.2813059781200757e+03 1.0000000000000000e+00 8.2910610597194729e+00 3.2862761074618096e+00 6.1391443914186885e+00 
605 207 2 1.0279999049945856e+00 -1.3248334979446115e+03 1.0000000000000000e+00 8.0988788781971728e+00 3.3619637693819637e+00 6.2244304872113805e+00 
1299 901 2 1.0279999134758089e+00 1.5969122130438416e+02 1.0000000000000000e+00 8.2503722055919493e+00 3.3242265590387423e+00 6.1618681418170258e+00 
1907 1509 2 1.0279999112720160e+00 -1.1304077283038512e+04 1.0000000000000000e+00 8.3526195025411880e+00 3.1303766865490754e+00 6.0839493273677467e+00 
1105 707 2 1.0279999123276617e+00 -7.1015090607644277e+02 1.0000000000000000e+00 8.3523045353151968e+00 3.1392389580197562e+00 6.0860254797836575e+00 
1118 720 2 1.0280018620179256e+00 -1.3914340300508554e+03 1.0000000000000000e+00 6.7292730989821656e+00 2.9170227812416956e+00 6.3680188797390374e+00 
944 546 2 1.0279996738120418e+00 3.7265422065828052e+03 1.0000000000000000e+00 9.9290548707849240e+00 1.7706749208757402e+00 8.1222248847017209e+00 
1465 1067 2 1.0279996743847191e+00 1.1410925927351102e+04 1.0000000000000000e+00 9.9085265740343953e+00 1.7382803441735684e+00 8.1232497678183950e+00 
826 428 2 1.0279996930480477e+00 -1.2314430876032034e+03 1.0000000000000000e+00 9.3528802825903750e+00 8.8012725627294608e-01 8.0872181472488212e+00 
1254 856 2 1.0279996893127625e+00 -1.2246335674627144e+03 1.0000000000000000e+00 9.7493624608735256e+00 1.4142614334065180e+00 8.1305481941647848e+00 
858 460 2 1.0279989206843794e+00 1.2234319181545807e+03 1.0000000000000000e+00 8.4180163349637098e+00 4.5778724983252195e+00 6.9297358333214065e+00 
1464 1066 2 1.0279991464990523e+00 7.5642832072121964e+03 1.0000000000000000e+00 8.2675686060476554e+00 4.4985373947770304e+00 6.4677755655852023e+00 
494 96 2 1.0279997160470076e+00 9.0093575374111538e+02 1.0000000000000000e+00 9.7707823958742406e+00 8.8975164979153143e-01 8.1348205981859287e+00 
1646 1248 2 1.0280001104791712e+00 2.8074088312762376e+02 1.0000000000000000e+00 5.0831149638745616e+00 4.7827741322474688e+00 7.2570626925403996e+00 
1421 1023 2 1.0280001041631062e+00 6.1122787746988788e+03 1.0000000000000000e+00 5.1046467634155865e+00 4.8890991444567646e+00 7.2570307118188513e+00 
1126 728 2 1.0279995193469738e+00 -1.5321124812663934e+03 1.0000000000000000e+00 1.0203775317763991e+01 3.8833848098878523e+00 7.7628222214851794e+00 
1219 821 2 1.0279997338135636e+00 6.2568642523478195e+02 1.0000000000000000e+00 1.0235455432865161e+01 2.2892195359784213e+00 8.0889022485848727e+00 
1113 715 2 1.0279998300093693e+00 2.4667548340893059e+03 1.0000000000000000e+00 1.0878133223985792e+01 3.6581370135684286e+00 7.8658508297916416e+00 
462 64 2 1.0279998339378347e+00 1.5547853967504520e+03 1.0000000000000000e+00 1.0892161208080084e+01 3.6170762920143225e+00 7.8762007252257416e+00 
785 387 2 1.0279998354255684e+00 7.8859014147864173e+02 1.0000000000000000e+00 1.0911848732408528e+01 3.6510032219665365e+00 7.8674643904122474e+00 
833 435 2 1.0279998367140935e+00 1.5702023897342799e+03 1.0000000000000000e+00 1.0920949236795060e+01 3.6494290763349522e+00 7.8677710683133188e+00 
1240 842 2 1.0279998417683358e+00 -4.0254714009779482e+03 1.0000000000000000e+00 1.0962542754807172e+01 3.6428963505604948e+00 7.8687966311927635e+00 
578 180 2 1.0279998464948734e+00 -6.1773341537389351e+03 1.0000000000000000e+00 1.1018792386507585e+01 3.6328137256158723e+00 7.8699568174442289e+00 
1737 1339 2 1.0279997617477912e+00 3.3383913652761476e+02 1.0000000000000000e+00 1.0641329958456248e+01 2.0279793623684186e+00 8.1222220083623231e+00 
1302 904 2 1.0280011987868358e+00 -1.1825382811082811e+03 1.0000000000000000e+00 1.1329415506254692e+01 5.1210055639513374e-01 5.7359986899670625e+00 
623 225 2 1.0280011997280658e+00 3.7640681829010032e+02 1.0000000000000000e+00 1.1328276550439812e+01 5.0865808253943445e-01 5.7359990614999861e+00 
983 585 2 1.0279997874890108e+00 -3.2288433164742451e+03 1.0000000000000000e+00 1.1533820699692871e+01 3.2157215093503679e+00 7.9136340897105395e+00 
508 110 2 1.0279997881181451e+00 -7.2268845357166692e+03 1.0000000000000000e+00 1.3248138077393227e+01 2.1763273766069311e+00 7.4639841000517944e+00 
665 267 2 1.0280011985691622e+00 -4.2887258397334790e+03 1.0000000000000000e+00 1.1329692317706993e+01 5.1288159668919253e-01 5.7360018231594418e+00 
1697 1299 2 1.0280011993484497e+00 -6.1394504815191704e+02 1.0000000000000000e+00 1.1328744076412859e+01 5.1003398178494674e-01 5.7360008555525202e+00 
751 353 2 1.0280012077471945e+00 3.7640842989115598e+01 1.0000000000000000e+00 1.1318606423987806e+01 4.7990946447615568e-01 5.7360145514252592e+00 
503 105 2 1.0279997617256158e+00 3.5306706339053248e+03 1.0000000000000000e+00 1.3294144859272183e+01 2.1276776124836938e+00 7.4429031222787456e+00 
1391 993 2 1.0279997637635720e+00 -5.8323538069875246e+02 1.0000000000000000e+00 1.3291127948209514e+01 2.1315215902278291e+00 7.4443347687066286e+00 
581 183 2 1.0280008752297147e+00 -1.7607846428613909e+03 1.0000000000000000e+00 1.2498841110370739e+01 1.7121812798129006e+00 5.9106456850183324e+00 
684 286 2 1.0280008312821354e+00 1.1066230365932904e+03 1.0000000000000000e+00 1.3413052831481641e+01 2.5348087386608502e+00 6.0531800461087952e+00 
1044 646 2 1.0279997666494372e+00 -3.9001316165514635e+02 1.0000000000000000e+00 1.3286593793175124e+01 2.1364589881352734e+00 7.4464369254003504e+00 
1431 1033 2 1.0279997259977165e+00 -2.1540785013972950e+03 1.0000000000000000e+00 1.3343680532606296e+01 2.0678033072870741e+00 7.4192709591396255e+00 
582 184 2 1.0279997726056287e+00 1.0277789452220127e+03 1.0000000000000000e+00 1.3277253326210406e+01 2.1477573157502152e+00 7.4508129101575191e+00 
2059 1661 2 1.0280002762476450e+00 3.9967204552699400e+03 1.0000000000000000e+00 1.3525738930682332e+01 4.6777231692461818e+00 6.0769052910219141e+00 
1173 775 2 1.0280003634232926e+00 1.9697888840624348e+03 1.0000000000000000e+00 1.3489259137789626e+01 4.7451345665266489e+00 6.0789498463131881e+00 
1515 1117 2 1.0279998110568798e+00 9.1356639256619326e+02 1.0000000000000000e+00 1.1147527699683222e+01 2.7040638983710461e+00 8.0275994390215981e+00 
1512 1114 2 1.0280001444976044e+00 1.0148460163845275e+04 1.0000000000000000e+00 1.5608412692375955e+01 2.8034639271927264e+00 6.3811279451572416e+00 
1153 755 2 1.0280001499960967e+00 -1.1784967874704673e+03 1.0000000000000000e+00 1.5607893993417809e+01 2.8064646777272708e+00 6.3809340767064295e+00 
950 552 2 1.0280000378457994e+00 -1.5621035729712085e+03 1.0000000000000000e+00 1.5628205667390391e+01 2.7514733113989833e+00 6.3789207091888755e+00 
2027 1629 2 1.0280001472438840e+00 1.6397672817350381e+03 1.0000000000000000e+00 1.5608191979239830e+01 2.8050134080850495e+00 6.3810045165263602e+00 
1303 905 2 1.0280001268881005e+00 -9.7009420422237918e+02 1.0000000000000000e+00 1.7541238255984194e+01 2.4055853058539474e+00 7.6142901590582621e+00 
715 317 2 1.0280001503856795e+00 7.6356493043297974e+02 1.0000000000000000e+00 1.7600174965973718e+01 2.4143504633060924e+00 7.6252522115598085e+00 
843 445 2 1.0280003598717959e+00 2.4414077850947747e+03 1.0000000000000000e+00 1.8121647824813451e+01 1.8420774275542049e+00 7.6830202319194436e+00 
1700 1302 2 1.0280001332629045e+00 -3.5257742288850335e+02 1.0000000000000000e+00 1.7566487833151257e+01 2.4323486771258382e+00 7.6189447997821240e+00 
1182 784 2 1.0279999449704342e+00 -2.2243142619303367e+03 1.0000000000000000e+00 1.5670372189071813e+01 2.7222657342948162e+00 6.3614706662651086e+00 
1516 1118 2 1.0279999090917613e+00 9.6636800789028566e+03 1.0000000000000000e+00 1.7453900388983584e+01 3.2756046310515914e+00 7.5697108361857666e+00 
1513 1115 2 1.0279999089789733e+00 9.6636404132942116e+03 1.0000000000000000e+00 1.7454499997353349e+01 3.2781522740660667e+00 7.5697068073408138e+00 
1245 847 2 1.0280037983557566e+00 -2.7702346083081593e+03 1.0000000000000000e+00 1.5150319917968801e+01 2.8416988193273292e+00 6.5728461982183610e+00 
1869 1471 2 1.0280000906461140e+00 -2.1367045994745235e+03 1.0000000000000000e+00 1.8975535487471507e+01 3.0234849367450534e+00 7.5969651995231766e+00 
1916 1518 2 1.0280002080011608e+00 -3.7517099524034497e+03 1.0000000000000000e+00 1.8466818463658079e+01 2.9821372384609370e+00 7.6572646138637710e+00 
1255 857 2 1.0280000955059787e+00 -9.6505505349980649e+02 1.0000000000000000e+00 1.9637435958239337e+01 2.4051072405920575e+00 7.5039524130536321e+00 
855 457 2 1.0280000597482362e+00 -3.7864617532462876e+02 1.0000000000000000e+00 1.9660659547770997e+01 2.5060265441754486e+00 7.4847939778556620e+00 
544 146 2 1.0279995961898170e+00 -3.1553739326228379e+03 1.0000000000000000e+00 1.9991871791655075e+01 3.1749169034429916e+00 7.2375542161520219e+00 
1823 1425 2 1.0280001601463418e+00 -3.2657999230403007e+03 1.0000000000000000e+00 1.7097453585985285e+01 9.3674213679066098e-01 7.4232060244951352e+00 
1468 1070 2 1.0279999374007518e+00 1.1684738422807812e+04 1.0000000000000000e+00 1.9917701120122405e+01 2.5422253268969510e+00 7.3869191460933310e+00 
1351 953 2 1.0279997989929290e+00 -1.9555219263886147e+03 1.0000000000000000e+00 1.9618738763998579e+01 3.7848213276640358e-01 7.6126194050604008e+00 
413 15 2 1.0279996780432059e+00 -8.5818258327143482e+01 1.0000000000000000e+00 3.9265242552693240e+00 6.8985633784491300e+00 5.7992698971414942e+00 
662 264 2 1.0279995909059945e+00 -4.3340905673014477e+03 1.0000000000000000e+00 3.3867348349582631e+00 8.1715680386934846e+00 7.1182157993584578e+00 
1217 819 2 1.0279994915921653e+00 -4.1207553452561606e+03 1.0000000000000000e+00 3.6886760382901711e+00 8.2325658406456927e+00 7.1338745435049455e+00 
1976 1578 2 1.0279999634782779e+00 -7.3947698612144841e+03 1.0000000000000000e+00 2.1875890171344907e+00 7.8980579514628726e+00 6.9776045039998928e+00 
816 418 2 1.0279998732216546e+00 2.4123321766067113e+02 1.0000000000000000e+00 2.3454862126856710e+00 7.6565393745299888e+00 6.9693010372848345e+00 
1490 1092 2 1.0280000005263932e+00 9.0187013714815657e+02 1.0000000000000000e+00 5.9166837517493109e-01 9.6331337405901980e+00 7.1977800985169980e+00 