LAMMPS data file via write_data, version 30 Jul 2016, timestep = 50000000

2080 atoms
8 atom types

0.0000000000000000e+00 4.0000000000000000e+01 xlo xhi
0.0000000000000000e+00 4.0000000000000000e+01 ylo yhi
0.0000000000000000e+00 1.0000000000000000e+02 zlo zhi

Masses

1 3.896
2 5.36
3 20.064
4 8.378
5 8.378
6 8.378
7 8.378
8 8.378

Atoms # meso-molecular

1 2 4 1.0280676718932180e+00 -2.6774336310624341e+02 1.0000000000000000e+00 0.0000000000000000e+00 0.0000000000000000e+00 2.5000000000000000e+00 
2 2 4 1.0280211291490604e+00 -2.6552286767363188e+02 1.0000000000000000e+00 0.0000000000000000e+00 2.0000000000000000e+00 2.5000000000000000e+00 
3 2 4 1.0280044065570382e+00 -2.5350184941456570e+02 1.0000000000000000e+00 0.0000000000000000e+00 4.0000000000000000e+00 2.5000000000000000e+00 
21 2 4 1.0279721450848402e+00 -2.4008966887105950e+02 1.0000000000000000e+00 2.0000000000000000e+00 0.0000000000000000e+00 2.5000000000000000e+00 
22 2 4 1.0279642454243689e+00 -2.8183853456783930e+02 1.0000000000000000e+00 2.0000000000000000e+00 2.0000000000000000e+00 2.5000000000000000e+00 
23 2 4 1.0279992725448370e+00 -2.4141194135332293e+02 1.0000000000000000e+00 2.0000000000000000e+00 4.0000000000000000e+00 2.5000000000000000e+00 
41 2 4 1.0279469073410155e+00 -2.4683483827732215e+02 1.0000000000000000e+00 4.0000000000000000e+00 0.0000000000000000e+00 2.5000000000000000e+00 
42 2 4 1.0280965125408614e+00 -2.5188663371196773e+02 1.0000000000000000e+00 4.0000000000000000e+00 2.0000000000000000e+00 2.5000000000000000e+00 
43 2 4 1.0280126941055394e+00 -2.8471581080839519e+02 1.0000000000000000e+00 4.0000000000000000e+00 4.0000000000000000e+00 2.5000000000000000e+00 
61 2 4 1.0280925389376647e+00 -2.5780296035187109e+02 1.0000000000000000e+00 6.0000000000000000e+00 0.0000000000000000e+00 2.5000000000000000e+00 
62 2 4 1.0279002708680973e+00 -2.8288769351615662e+02 1.0000000000000000e+00 6.0000000000000000e+00 2.0000000000000000e+00 2.5000000000000000e+00 
63 2 4 1.0279487080986280e+00 -2.6705777155622974e+02 1.0000000000000000e+00 6.0000000000000000e+00 4.0000000000000000e+00 2.5000000000000000e+00 
81 2 4 1.0279311368705990e+00 -2.5570558142119157e+02 1.0000000000000000e+00 8.0000000000000000e+00 0.0000000000000000e+00 2.5000000000000000e+00 
82 2 4 1.0280605404330363e+00 -2.8309660795840875e+02 1.0000000000000000e+00 8.0000000000000000e+00 2.0000000000000000e+00 2.5000000000000000e+00 
83 2 4 1.0280390626193749e+00 -2.6651636405958567e+02 1.0000000000000000e+00 8.0000000000000000e+00 4.0000000000000000e+00 2.5000000000000000e+00 
101 2 4 1.0279752046674075e+00 -2.4336415060519479e+02 1.0000000000000000e+00 1.0000000000000000e+01 0.0000000000000000e+00 2.5000000000000000e+00 
102 2 4 1.0280206031923007e+00 -2.8550766957376311e+02 1.0000000000000000e+00 1.0000000000000000e+01 2.0000000000000000e+00 2.5000000000000000e+00 
103 2 4 1.0279831264668224e+00 -2.7572747886562240e+02 1.0000000000000000e+00 1.0000000000000000e+01 4.0000000000000000e+00 2.5000000000000000e+00 
121 2 4 1.0279999283038697e+00 -2.9253085664021455e+02 1.0000000000000000e+00 1.2000000000000000e+01 0.0000000000000000e+00 2.5000000000000000e+00 
122 2 4 1.0280197639364088e+00 -2.6802499951246062e+02 1.0000000000000000e+00 1.2000000000000000e+01 2.0000000000000000e+00 2.5000000000000000e+00 
123 2 4 1.0279068036715342e+00 -2.7183916005700144e+02 1.0000000000000000e+00 1.2000000000000000e+01 4.0000000000000000e+00 2.5000000000000000e+00 
141 2 4 1.0279201752356555e+00 -2.8265291842168602e+02 1.0000000000000000e+00 1.4000000000000000e+01 0.0000000000000000e+00 2.5000000000000000e+00 
142 2 4 1.0280947733503658e+00 -2.1715553382000112e+02 1.0000000000000000e+00 1.4000000000000000e+01 2.0000000000000000e+00 2.5000000000000000e+00 
143 2 4 1.0280093434983177e+00 -2.2480634273163452e+02 1.0000000000000000e+00 1.4000000000000000e+01 4.0000000000000000e+00 2.5000000000000000e+00 
161 2 4 1.0281176499090199e+00 -2.7313573657801209e+02 1.0000000000000000e+00 1.6000000000000000e+01 0.0000000000000000e+00 2.5000000000000000e+00 
162 2 4 1.0278279300273052e+00 -2.4153757399308046e+02 1.0000000000000000e+00 1.6000000000000000e+01 2.0000000000000000e+00 2.5000000000000000e+00 
163 2 4 1.0280699706866552e+00 -2.0810978885186270e+02 1.0000000000000000e+00 1.6000000000000000e+01 4.0000000000000000e+00 2.5000000000000000e+00 
181 2 4 1.0279442731869173e+00 -2.7162379772901363e+02 1.0000000000000000e+00 1.8000000000000000e+01 0.0000000000000000e+00 2.5000000000000000e+00 
182 2 4 1.0281028224313002e+00 -2.7048814442668066e+02 1.0000000000000000e+00 1.8000000000000000e+01 2.0000000000000000e+00 2.5000000000000000e+00 
183 2 4 1.0279604596452696e+00 -2.4485003503666397e+02 1.0000000000000000e+00 1.8000000000000000e+01 4.0000000000000000e+00 2.5000000000000000e+00 
4 2 4 1.0280289289565272e+00 -2.3866693628480411e+02 1.0000000000000000e+00 0.0000000000000000e+00 6.0000000000000000e+00 2.5000000000000000e+00 
5 2 4 1.0279786460297504e+00 -2.0656307443948592e+02 1.0000000000000000e+00 0.0000000000000000e+00 8.0000000000000000e+00 2.5000000000000000e+00 
24 2 4 1.0279509287467596e+00 -2.4234341560725366e+02 1.0000000000000000e+00 2.0000000000000000e+00 6.0000000000000000e+00 2.5000000000000000e+00 
25 2 4 1.0280420504539087e+00 -2.3571287649098213e+02 1.0000000000000000e+00 2.0000000000000000e+00 8.0000000000000000e+00 2.5000000000000000e+00 
44 2 4 1.0280049003188758e+00 -2.6808608323147604e+02 1.0000000000000000e+00 4.0000000000000000e+00 6.0000000000000000e+00 2.5000000000000000e+00 
45 2 4 1.0279773132579879e+00 -2.6158505997736904e+02 1.0000000000000000e+00 4.0000000000000000e+00 8.0000000000000000e+00 2.5000000000000000e+00 
64 2 4 1.0280260392531364e+00 -2.5818494547723185e+02 1.0000000000000000e+00 6.0000000000000000e+00 6.0000000000000000e+00 2.5000000000000000e+00 
65 2 4 1.0280405353510338e+00 -2.6202928800491037e+02 1.0000000000000000e+00 6.0000000000000000e+00 8.0000000000000000e+00 2.5000000000000000e+00 
84 2 4 1.0280085294319425e+00 -2.3165035905976353e+02 1.0000000000000000e+00 8.0000000000000000e+00 6.0000000000000000e+00 2.5000000000000000e+00 
85 2 4 1.0279094153775115e+00 -2.3521144059422193e+02 1.0000000000000000e+00 8.0000000000000000e+00 8.0000000000000000e+00 2.5000000000000000e+00 
104 2 4 1.0279656297853399e+00 -2.4692412916094352e+02 1.0000000000000000e+00 1.0000000000000000e+01 6.0000000000000000e+00 2.5000000000000000e+00 
105 2 4 1.0280845559079683e+00 -2.3114446903867048e+02 1.0000000000000000e+00 1.0000000000000000e+01 8.0000000000000000e+00 2.5000000000000000e+00 
124 2 4 1.0281214379056889e+00 -2.5097771337303897e+02 1.0000000000000000e+00 1.2000000000000000e+01 6.0000000000000000e+00 2.5000000000000000e+00 
125 2 4 1.0279150534672907e+00 -2.2440671805075627e+02 1.0000000000000000e+00 1.2000000000000000e+01 8.0000000000000000e+00 2.5000000000000000e+00 
144 2 4 1.0279677674606753e+00 -2.1106551662674889e+02 1.0000000000000000e+00 1.4000000000000000e+01 6.0000000000000000e+00 2.5000000000000000e+00 
145 2 4 1.0280029616220130e+00 -9.2951251739273275e+01 1.0000000000000000e+00 1.4000000000000000e+01 8.0000000000000000e+00 2.5000000000000000e+00 
164 2 4 1.0279826962949343e+00 -1.6033370724937905e+02 1.0000000000000000e+00 1.6000000000000000e+01 6.0000000000000000e+00 2.5000000000000000e+00 
165 2 4 1.0279883194615205e+00 7.4363432682872570e+01 1.0000000000000000e+00 1.6000000000000000e+01 8.0000000000000000e+00 2.5000000000000000e+00 
184 2 4 1.0279998485203607e+00 -1.8996742948201074e+02 1.0000000000000000e+00 1.8000000000000000e+01 6.0000000000000000e+00 2.5000000000000000e+00 
185 2 4 1.0280466830527977e+00 5.2426942508649219e+01 1.0000000000000000e+00 1.8000000000000000e+01 8.0000000000000000e+00 2.5000000000000000e+00 
6 2 4 1.0279810910136600e+00 -1.8862168123810181e+02 1.0000000000000000e+00 0.0000000000000000e+00 1.0000000000000000e+01 2.5000000000000000e+00 
7 2 4 1.0280131791218652e+00 -2.0622111148028921e+02 1.0000000000000000e+00 0.0000000000000000e+00 1.2000000000000000e+01 2.5000000000000000e+00 
8 2 4 1.0280508027829347e+00 -2.3003645346696811e+02 1.0000000000000000e+00 0.0000000000000000e+00 1.4000000000000000e+01 2.5000000000000000e+00 
26 2 4 1.0280075561262254e+00 -2.1240906195303802e+02 1.0000000000000000e+00 2.0000000000000000e+00 1.0000000000000000e+01 2.5000000000000000e+00 
27 2 4 1.0279788337445106e+00 -1.9497843056621923e+02 1.0000000000000000e+00 2.0000000000000000e+00 1.2000000000000000e+01 2.5000000000000000e+00 
28 2 4 1.0279650470360375e+00 -2.1812708825397414e+02 1.0000000000000000e+00 2.0000000000000000e+00 1.4000000000000000e+01 2.5000000000000000e+00 
46 2 4 1.0279895822253031e+00 -2.5188822978048535e+02 1.0000000000000000e+00 4.0000000000000000e+00 1.0000000000000000e+01 2.5000000000000000e+00 
47 2 4 1.0280563563169856e+00 -2.1489207109057443e+02 1.0000000000000000e+00 4.0000000000000000e+00 1.2000000000000000e+01 2.5000000000000000e+00 
48 2 4 1.0279574277896653e+00 -2.2621132939028288e+02 1.0000000000000000e+00 4.0000000000000000e+00 1.4000000000000000e+01 2.5000000000000000e+00 
66 2 4 1.0279505348022084e+00 -2.6263552357264632e+02 1.0000000000000000e+00 6.0000000000000000e+00 1.0000000000000000e+01 2.5000000000000000e+00 
67 2 4 1.0280002991670143e+00 -2.4555687304093681e+02 1.0000000000000000e+00 6.0000000000000000e+00 1.2000000000000000e+01 2.5000000000000000e+00 
68 2 4 1.0280024054567709e+00 -2.3221497539813933e+02 1.0000000000000000e+00 6.0000000000000000e+00 1.4000000000000000e+01 2.5000000000000000e+00 
86 2 4 1.0281294523050255e+00 -2.6375374663765501e+02 1.0000000000000000e+00 8.0000000000000000e+00 1.0000000000000000e+01 2.5000000000000000e+00 
87 2 4 1.0279310020711809e+00 -2.6985998161118965e+02 1.0000000000000000e+00 8.0000000000000000e+00 1.2000000000000000e+01 2.5000000000000000e+00 
88 2 4 1.0280381735355986e+00 -2.3401032433744425e+02 1.0000000000000000e+00 8.0000000000000000e+00 1.4000000000000000e+01 2.5000000000000000e+00 
106 2 4 1.0279123420759040e+00 -2.4895030761755766e+02 1.0000000000000000e+00 1.0000000000000000e+01 1.0000000000000000e+01 2.5000000000000000e+00 
107 2 4 1.0280102901685677e+00 -2.5052716738653291e+02 1.0000000000000000e+00 1.0000000000000000e+01 1.2000000000000000e+01 2.5000000000000000e+00 
108 2 4 1.0280133242617451e+00 -2.0608669778489838e+02 1.0000000000000000e+00 1.0000000000000000e+01 1.4000000000000000e+01 2.5000000000000000e+00 
126 2 4 1.0280267255486595e+00 -1.9806879094030180e+02 1.0000000000000000e+00 1.2000000000000000e+01 1.0000000000000000e+01 2.5000000000000000e+00 
127 2 4 1.0280671958048762e+00 -2.1013840312235226e+02 1.0000000000000000e+00 1.2000000000000000e+01 1.2000000000000000e+01 2.5000000000000000e+00 
128 2 4 1.0279167437410037e+00 -2.1533347694103034e+02 1.0000000000000000e+00 1.2000000000000000e+01 1.4000000000000000e+01 2.5000000000000000e+00 
146 2 4 1.0280136435969374e+00 3.2177734656873881e+01 1.0000000000000000e+00 1.4000000000000000e+01 1.0000000000000000e+01 2.5000000000000000e+00 
147 2 4 1.0279591242768238e+00 5.3674854127160764e+01 1.0000000000000000e+00 1.4000000000000000e+01 1.2000000000000000e+01 2.5000000000000000e+00 
148 2 4 1.0280386476016643e+00 3.6745023262849874e+00 1.0000000000000000e+00 1.4000000000000000e+01 1.4000000000000000e+01 2.5000000000000000e+00 
166 2 4 1.0280803703411749e+00 2.9002705177979465e+02 1.0000000000000000e+00 1.6000000000000000e+01 1.0000000000000000e+01 2.5000000000000000e+00 
167 2 4 1.0278981217971306e+00 3.6341657242742309e+02 1.0000000000000000e+00 1.6000000000000000e+01 1.2000000000000000e+01 2.5000000000000000e+00 
168 2 4 1.0280912359874874e+00 3.3652421155014241e+02 1.0000000000000000e+00 1.6000000000000000e+01 1.4000000000000000e+01 2.5000000000000000e+00 
186 2 4 1.0278966798753992e+00 2.4390303206494710e+02 1.0000000000000000e+00 1.8000000000000000e+01 1.0000000000000000e+01 2.5000000000000000e+00 
187 2 4 1.0281141925559130e+00 2.9972565988692378e+02 1.0000000000000000e+00 1.8000000000000000e+01 1.2000000000000000e+01 2.5000000000000000e+00 
188 2 4 1.0279402361784000e+00 3.5398315173381354e+02 1.0000000000000000e+00 1.8000000000000000e+01 1.4000000000000000e+01 2.5000000000000000e+00 
9 2 4 1.0278724190029815e+00 -2.4484273482387118e+02 1.0000000000000000e+00 0.0000000000000000e+00 1.6000000000000000e+01 2.5000000000000000e+00 
10 2 4 1.0280540882668836e+00 -2.1636470521882643e+02 1.0000000000000000e+00 0.0000000000000000e+00 1.8000000000000000e+01 2.5000000000000000e+00 
29 2 4 1.0280552684705209e+00 -2.4749888550039373e+02 1.0000000000000000e+00 2.0000000000000000e+00 1.6000000000000000e+01 2.5000000000000000e+00 
30 2 4 1.0280189868475100e+00 -2.0728296066803858e+02 1.0000000000000000e+00 2.0000000000000000e+00 1.8000000000000000e+01 2.5000000000000000e+00 
49 2 4 1.0280631643831810e+00 -2.5429439696246666e+02 1.0000000000000000e+00 4.0000000000000000e+00 1.6000000000000000e+01 2.5000000000000000e+00 
50 2 4 1.0279297656662967e+00 -2.2380531333277870e+02 1.0000000000000000e+00 4.0000000000000000e+00 1.8000000000000000e+01 2.5000000000000000e+00 
69 2 4 1.0279644913341577e+00 -2.6411273705333076e+02 1.0000000000000000e+00 6.0000000000000000e+00 1.6000000000000000e+01 2.5000000000000000e+00 
70 2 4 1.0280249292732815e+00 -2.6683816429833701e+02 1.0000000000000000e+00 6.0000000000000000e+00 1.8000000000000000e+01 2.5000000000000000e+00 
89 2 4 1.0280189637021591e+00 -2.3645610446124039e+02 1.0000000000000000e+00 8.0000000000000000e+00 1.6000000000000000e+01 2.5000000000000000e+00 
90 2 4 1.0279595868749130e+00 -2.7876531075234652e+02 1.0000000000000000e+00 8.0000000000000000e+00 1.8000000000000000e+01 2.5000000000000000e+00 
109 2 4 1.0279555738538741e+00 -1.6500298656670836e+02 1.0000000000000000e+00 1.0000000000000000e+01 1.6000000000000000e+01 2.5000000000000000e+00 
110 2 4 1.0280511447914498e+00 -2.4557591525325967e+02 1.0000000000000000e+00 1.0000000000000000e+01 1.8000000000000000e+01 2.5000000000000000e+00 
129 2 4 1.0280577617501026e+00 -1.9419395437916461e+02 1.0000000000000000e+00 1.2000000000000000e+01 1.6000000000000000e+01 2.5000000000000000e+00 
130 2 4 1.0279736486873241e+00 -2.6421475508349948e+02 1.0000000000000000e+00 1.2000000000000000e+01 1.8000000000000000e+01 2.5000000000000000e+00 
149 2 4 1.0280006258860801e+00 -1.0574240871857859e+02 1.0000000000000000e+00 1.4000000000000000e+01 1.6000000000000000e+01 2.5000000000000000e+00 
150 2 4 1.0280013437364852e+00 -2.6258635549647482e+02 1.0000000000000000e+00 1.4000000000000000e+01 1.8000000000000000e+01 2.5000000000000000e+00 
169 2 4 1.0279014452112691e+00 5.7416118020301091e+01 1.0000000000000000e+00 1.6000000000000000e+01 1.6000000000000000e+01 2.5000000000000000e+00 
170 2 4 1.0280376981510986e+00 -3.3174789201222137e+02 1.0000000000000000e+00 1.6000000000000000e+01 1.8000000000000000e+01 2.5000000000000000e+00 
189 2 4 1.0280532217171936e+00 -2.5982730549915470e+02 1.0000000000000000e+00 1.8000000000000000e+01 1.6000000000000000e+01 2.5000000000000000e+00 
190 2 4 1.0279952860466302e+00 -7.0490170580951622e+02 1.0000000000000000e+00 1.8000000000000000e+01 1.8000000000000000e+01 2.5000000000000000e+00 
1811 1413 2 1.0280002768343086e+00 -4.1194057237989443e+02 1.0000000000000000e+00 4.5714964300556451e+00 1.9127632610773466e+00 7.2107266556162015e+00 
1554 1156 2 1.0280002809166646e+00 2.5272915304123171e+03 1.0000000000000000e+00 4.4086959550222886e+00 1.9911288743538635e+00 7.2360809299684741e+00 
1146 748 2 1.0280002804048287e+00 -3.1926908926306436e+02 1.0000000000000000e+00 4.4332713986855454e+00 1.9826909091211271e+00 7.2326355821794008e+00 
593 195 2 1.0280002784019755e+00 7.9746448800017606e+02 1.0000000000000000e+00 4.5007463414854705e+00 1.9581844117821221e+00 7.2225624076677741e+00 
1563 1165 2 1.0279992303683037e+00 6.7856441246840850e+03 1.0000000000000000e+00 1.7687787921549900e+00 2.5395369767400156e+00 6.8425485786684375e+00 
637 239 2 1.0280002680306066e+00 -2.9425378890127531e+03 1.0000000000000000e+00 4.0132553711330186e+00 2.1039676223994692e+00 7.2742172094645676e+00 
1992 1594 2 1.0279992302646379e+00 -7.8176953565222138e+03 1.0000000000000000e+00 1.7679482598556158e+00 2.5385529549306480e+00 6.8428415715152555e+00 
1511 1113 2 1.0279992485471470e+00 -6.1367161718168052e+02 1.0000000000000000e+00 1.7563107748660201e+00 2.4968841722498731e+00 6.8643380252120325e+00 
1944 1546 2 1.0279993314223477e+00 -5.7315487294085824e+03 1.0000000000000000e+00 1.7244789251828065e+00 2.3042701955967049e+00 6.9602233086869401e+00 
1482 1084 2 1.0279992333769210e+00 4.4672049723525782e+02 1.0000000000000000e+00 1.7433361592708936e+00 2.5019142860596846e+00 6.8562665382165111e+00 
482 84 2 1.0280002808260269e+00 -7.1685359979814552e+02 1.0000000000000000e+00 4.2606869619127901e+00 2.0365331528285591e+00 7.2542375475852356e+00 
2048 1650 2 1.0280002759100151e+00 -5.0369644761526706e+03 1.0000000000000000e+00 4.5759520318615490e+00 1.9215504802599817e+00 7.2101692750585507e+00 
1096 698 2 1.0279992274257053e+00 -1.4499309086456853e+03 1.0000000000000000e+00 1.7662164965618206e+00 2.5399982565290982e+00 6.8412090316106866e+00 
1840 1442 2 1.0279995334635756e+00 -2.5329114360435074e+03 1.0000000000000000e+00 3.0844752440878187e-01 6.2411819293410753e-01 5.8816957261961260e+00 
1037 639 2 1.0279988227516399e+00 -2.6820929465954796e+03 1.0000000000000000e+00 1.3488899699182058e+00 2.5630593322845852e+00 6.5138623635399728e+00 
2018 1620 2 1.0279994904757985e+00 7.6434775697492705e+02 1.0000000000000000e+00 2.0830076856039295e+00 2.7488965927720783e+00 6.8502566691089486e+00 
641 243 2 1.0280008681773150e+00 -3.5301679797113948e+03 1.0000000000000000e+00 2.7024147309588273e+00 4.5112683862312775e+00 6.3681401477933131e+00 
1184 786 2 1.0280001064842614e+00 -1.7172750175107717e+03 1.0000000000000000e+00 4.9083842022860411e+00 4.1309467542465024e+00 7.2666775282122851e+00 
1316 918 2 1.0280001389268756e+00 -5.9748055841401779e+01 1.0000000000000000e+00 2.7140703513425777e+00 4.8177154658596404e+00 6.5012437606406355e+00 
1901 1503 2 1.0279999740119197e+00 -6.4098248394467691e+03 1.0000000000000000e+00 2.7166556419008359e+00 4.8761781719462016e+00 6.5196460490820849e+00 
1049 651 2 1.0279998639497150e+00 -4.8542267276546991e+03 1.0000000000000000e+00 2.7178142956550349e+00 4.9188133409545385e+00 6.5312215964436362e+00 
872 474 2 1.0279997985922187e+00 1.6026874129688822e+03 1.0000000000000000e+00 2.7181818005888765e+00 4.9457315274992490e+00 6.5378711752979779e+00 
1660 1262 2 1.0279997659790130e+00 9.8113132049164494e+02 1.0000000000000000e+00 2.7182616575506993e+00 4.9596293582267990e+00 6.5411484732063254e+00 
646 248 2 1.0279997328058335e+00 -2.9596838121624583e+03 1.0000000000000000e+00 2.7182817568308235e+00 4.9740455388764913e+00 6.5444994136407244e+00 
1579 1181 2 1.0279996757111054e+00 4.9135803276406350e+03 1.0000000000000000e+00 2.7187402854435150e+00 4.9979123579831839e+00 6.5515533133338693e+00 
1666 1268 2 1.0280002352015982e+00 -1.4297648023313261e+03 1.0000000000000000e+00 5.0359306991070945e+00 1.5935545902448363e+00 7.1132560364930981e+00 
939 541 2 1.0279994484710195e+00 -3.1287067499080831e+02 1.0000000000000000e+00 5.1275151871332412e+00 1.3294676801921082e-02 6.0823720557754033e+00 
1296 898 2 1.0279994455048185e+00 -2.0485574986525385e+03 1.0000000000000000e+00 5.1408407280417832e+00 7.4143166887948040e-03 6.0870391526747714e+00 
1380 982 2 1.0280009313912621e+00 -4.6713391408710431e+03 1.0000000000000000e+00 7.1304364264262805e+00 3.1708648221575086e+00 6.4309709850183463e+00 
1725 1327 2 1.0279999016111596e+00 1.3320429270208549e+03 1.0000000000000000e+00 8.3371743007492292e+00 3.1235448656067115e+00 6.0834151748678362e+00 
2068 1670 2 1.0280004187557545e+00 6.1514708429304201e+03 1.0000000000000000e+00 6.3039914402149169e+00 2.2005400900187921e+00 6.2680477122984435e+00 
1527 1129 2 1.0279999169038330e+00 -1.2813059911662024e+03 1.0000000000000000e+00 8.2756564729318765e+00 3.2932687624999399e+00 6.1419200001945846e+00 
605 207 2 1.0279999139774256e+00 -1.3248335068463816e+03 1.0000000000000000e+00 8.0770331154403294e+00 3.3635727947951874e+00 6.2276931444381738e+00 
1299 901 2 1.0279999176966366e+00 1.5969120890333289e+02 1.0000000000000000e+00 8.2340192491323574e+00 3.3309408268564131e+00 6.1649015120456312e+00 
1907 1509 2 1.0279999030114677e+00 -1.1304077295872728e+04 1.0000000000000000e+00 8.3366849663381384e+00 3.1334523088347219e+00 6.0857947723116785e+00 
1105 707 2 1.0279999044467951e+00 -7.1015091903414930e+02 1.0000000000000000e+00 8.3365706508361193e+00 3.1426491537986059e+00 6.0879022997009633e+00 
1118 720 2 1.0280019705285963e+00 -1.3914339939364222e+03 1.0000000000000000e+00 6.7131928114871808e+00 2.9357177201311031e+00 6.3605983284565593e+00 
944 546 2 1.0279996422773185e+00 3.7265421637180461e+03 1.0000000000000000e+00 9.9001486716723370e+00 1.7909654130305530e+00 8.1297172780746596e+00 
1465 1067 2 1.0279996421659294e+00 1.1410925884623150e+04 1.0000000000000000e+00 9.8803260496407272e+00 1.7597536610292579e+00 8.1307634679525265e+00 
826 428 2 1.0279996643588885e+00 -1.2314431222728265e+03 1.0000000000000000e+00 9.3350818448746935e+00 9.1385732660733532e-01 8.0980987915049916e+00 
1254 856 2 1.0279996552500787e+00 -1.2246336086618696e+03 1.0000000000000000e+00 9.7286632808248061e+00 1.4441602482146101e+00 8.1391620946803727e+00 
858 460 2 1.0279988881374915e+00 1.2234318892176825e+03 1.0000000000000000e+00 8.4326192837474920e+00 4.5932460241671151e+00 6.9424751726642571e+00 
1464 1066 2 1.0279998590668364e+00 7.5642831726942759e+03 1.0000000000000000e+00 8.2991685908209156e+00 4.5267373264064483e+00 6.4427692157828451e+00 
494 96 2 1.0279996831004907e+00 9.0093571207621972e+02 1.0000000000000000e+00 9.7606767484206376e+00 9.1839666161784117e-01 8.1469245258934126e+00 
1646 1248 2 1.0280000552969770e+00 2.8074093296328368e+02 1.0000000000000000e+00 5.0852973062040414e+00 4.8043974725524592e+00 7.2596829197228097e+00 
1421 1023 2 1.0280000497091368e+00 6.1122788269685007e+03 1.0000000000000000e+00 5.1060935377714749e+00 4.9110387172562744e+00 7.2595426086081432e+00 
1126 728 2 1.0279995481909323e+00 -1.5321124968394379e+03 1.0000000000000000e+00 1.0149806187589943e+01 3.8858241217781697e+00 7.7596842403214650e+00 
1219 821 2 1.0279997133318848e+00 6.2568638407519427e+02 1.0000000000000000e+00 1.0198764544761335e+01 2.2855872441617620e+00 8.0975753669507018e+00 
1113 715 2 1.0279998445711100e+00 2.4667547957076004e+03 1.0000000000000000e+00 1.0865401860429124e+01 3.6491827032465665e+00 7.8713206701208120e+00 
462 64 2 1.0279998474266938e+00 1.5547853573213995e+03 1.0000000000000000e+00 1.0880166053446708e+01 3.6067617910949172e+00 7.8821414821368272e+00 
785 387 2 1.0279998489008906e+00 7.8859010179023915e+02 1.0000000000000000e+00 1.0901132911323868e+01 3.6417743141259962e+00 7.8729595601674989e+00 
833 435 2 1.0279998498905072e+00 1.5702023496968047e+03 1.0000000000000000e+00 1.0910774824882509e+01 3.6401387355328971e+00 7.8732635367679977e+00 
1240 842 2 1.0279998535330144e+00 -4.0254714426069336e+03 1.0000000000000000e+00 1.0954829178918596e+01 3.6333464727945559e+00 7.8742424530181863e+00 
578 180 2 1.0279998562325285e+00 -6.1773341975412322e+03 1.0000000000000000e+00 1.1014369106033236e+01 3.6228710966514810e+00 7.8752862388445672e+00 
1737 1339 2 1.0279997427371583e+00 3.3383907951965489e+02 1.0000000000000000e+00 1.0626632215004562e+01 2.0219327120659027e+00 8.1333061619628175e+00 
1302 904 2 1.0280011855144446e+00 -1.1825382935208934e+03 1.0000000000000000e+00 1.1308959513395955e+01 5.0717313746706483e-01 5.7340766163541721e+00 
623 225 2 1.0280011862025946e+00 3.7640680592033794e+02 1.0000000000000000e+00 1.1307959436659468e+01 5.0393201565374512e-01 5.7340987716484868e+00 
983 585 2 1.0279997854316194e+00 -3.2288433857782411e+03 1.0000000000000000e+00 1.1557300531124580e+01 3.1949396548233238e+00 7.9162294909500677e+00 
508 110 2 1.0279998916725284e+00 -7.2268846072394581e+03 1.0000000000000000e+00 1.3240117797446896e+01 2.1818343889343375e+00 7.4718546566191337e+00 
665 267 2 1.0280011853556850e+00 -4.2887258521535205e+03 1.0000000000000000e+00 1.1309204410381954e+01 5.0790802877612617e-01 5.7340746646542016e+00 
1697 1299 2 1.0280011859254790e+00 -6.1394506053944008e+02 1.0000000000000000e+00 1.1308371097531815e+01 5.0522693036543553e-01 5.7340917823850486e+00 
751 353 2 1.0280011920313148e+00 3.7640830973561101e+01 1.0000000000000000e+00 1.1299467482195785e+01 4.7689941015630050e-01 5.7342938111562693e+00 
503 105 2 1.0279998699058068e+00 3.5306705615458945e+03 1.0000000000000000e+00 1.3286545770787624e+01 2.1321208626285872e+00 7.4510794224349794e+00 
1391 993 2 1.0279998717109766e+00 -5.8323545299236980e+02 1.0000000000000000e+00 1.3283483803430681e+01 2.1360528018436646e+00 7.4524919456148933e+00 
581 183 2 1.0280008999319612e+00 -1.7607846892243867e+03 1.0000000000000000e+00 1.2456544769692503e+01 1.6967409974851131e+00 5.9011365915571465e+00 
684 286 2 1.0280008371061409e+00 1.1066229657418999e+03 1.0000000000000000e+00 1.3398805781317739e+01 2.5508906585323583e+00 6.0500020242793342e+00 
1044 646 2 1.0279998741877845e+00 -3.9001323385155524e+02 1.0000000000000000e+00 1.3278888478632256e+01 2.1411052613035171e+00 7.4545704327898958e+00 
1431 1033 2 1.0279998380837658e+00 -2.1540785750124069e+03 1.0000000000000000e+00 1.3336930790529202e+01 2.0709566368080417e+00 7.4276994651872146e+00 
582 184 2 1.0279998792411964e+00 1.0277788732324582e+03 1.0000000000000000e+00 1.3269430878199772e+01 2.1526594871903093e+00 7.4588840182816565e+00 
2059 1661 2 1.0279999544421654e+00 3.9967204038344876e+03 1.0000000000000000e+00 1.3482808451007395e+01 4.6540841032079996e+00 6.0804478668273081e+00 
1173 775 2 1.0280000351808294e+00 1.9697888316973124e+03 1.0000000000000000e+00 1.3443808446560903e+01 4.7231136269364633e+00 6.0823624876965088e+00 
1515 1117 2 1.0279998129888934e+00 9.1356632923278369e+02 1.0000000000000000e+00 1.1148818038659758e+01 2.6792803738356956e+00 8.0368484093887105e+00 
1512 1114 2 1.0280000319149194e+00 1.0148460126010295e+04 1.0000000000000000e+00 1.5596618400566923e+01 2.7942344052491119e+00 6.3809561961442904e+00 
1153 755 2 1.0280000373009979e+00 -1.1784968254473788e+03 1.0000000000000000e+00 1.5596105550203937e+01 2.7972053403877619e+00 6.3807926136691977e+00 
950 552 2 1.0279999324949809e+00 -1.5621036114142767e+03 1.0000000000000000e+00 1.5616216148886604e+01 2.7426611091620394e+00 6.3783332234224099e+00 
2027 1629 2 1.0280000346288560e+00 1.6397672437517663e+03 1.0000000000000000e+00 1.5596400150765703e+01 2.7957680789880230e+00 6.3808488134007666e+00 
1303 905 2 1.0280001953999116e+00 -9.7009421750028196e+02 1.0000000000000000e+00 1.7531189855485565e+01 2.4207489636511927e+00 7.6146012716374640e+00 
715 317 2 1.0280002186935870e+00 7.6356491751777321e+02 1.0000000000000000e+00 1.7590926510905970e+01 2.4299611589282035e+00 7.6257305360046157e+00 
843 445 2 1.0280004197900636e+00 2.4414077685557018e+03 1.0000000000000000e+00 1.8109545793963690e+01 1.8637345056499193e+00 7.6832530628112581e+00 
1700 1302 2 1.0280002015601344e+00 -3.5257743590168491e+02 1.0000000000000000e+00 1.7556974755279956e+01 2.4474656165705371e+00 7.6193620338897317e+00 
1182 784 2 1.0279998583835743e+00 -2.2243143001095223e+03 1.0000000000000000e+00 1.5657938768583065e+01 2.7134231023574444e+00 6.3609993414990118e+00 
1516 1118 2 1.0279999751160906e+00 9.6636800652970614e+03 1.0000000000000000e+00 1.7453321223027043e+01 3.2758707857664500e+00 7.5717156553970941e+00 
1513 1115 2 1.0279999749958273e+00 9.6636403996919962e+03 1.0000000000000000e+00 1.7453981912783856e+01 3.2783977279613685e+00 7.5717196057555558e+00 
1245 847 2 1.0280032750602375e+00 -2.7702346533582186e+03 1.0000000000000000e+00 1.5149062136691860e+01 2.8487851230763468e+00 6.5616911252688492e+00 
1869 1471 2 1.0280001161962560e+00 -2.1367046047410827e+03 1.0000000000000000e+00 1.8962060812150263e+01 3.0370751765415003e+00 7.5995306193885561e+00 
1916 1518 2 1.0280002515105207e+00 -3.7517099592765039e+03 1.0000000000000000e+00 1.8463422960851439e+01 2.9975396671900807e+00 7.6580301284364749e+00 
1255 857 2 1.0280000873160000e+00 -9.6505506456845967e+02 1.0000000000000000e+00 1.9634486905496328e+01 2.4220736193101424e+00 7.5031976423986855e+00 
855 457 2 1.0280000529965101e+00 -3.7864618588379557e+02 1.0000000000000000e+00 1.9656081577790122e+01 2.5203836061098537e+00 7.4850070764359433e+00 
544 146 2 1.0279996142297381e+00 -3.1553739434903882e+03 1.0000000000000000e+00 1.9971995133907637e+01 3.1597331442864669e+00 7.2532805150613067e+00 
1823 1425 2 1.0280002259406733e+00 -3.2657999536257776e+03 1.0000000000000000e+00 1.7096593444531745e+01 9.4962272468283560e-01 7.4234211488943789e+00 
1468 1070 2 1.0279999235908024e+00 1.1684738410550186e+04 1.0000000000000000e+00 1.9916207233747777e+01 2.5481114386083976e+00 7.3871159880539139e+00 
1351 953 2 1.0279998484152986e+00 -1.9555219368987314e+03 1.0000000000000000e+00 1.9596472671081642e+01 4.1371920400088069e-01 7.6067042113229570e+00 
786 388 2 1.0279996625095347e+00 1.3035984951176681e+03 1.0000000000000000e+00 2.7184176646016751e+00 5.0047158466038058e+00 6.5523396487533656e+00 
413 15 2 1.0279996328675716e+00 -8.5818213016802773e+01 1.0000000000000000e+00 3.9303063749633287e+00 6.9217684995414341e+00 5.7968274244741886e+00 
662 264 2 1.0279996288104247e+00 -4.3340905319055237e+03 1.0000000000000000e+00 3.3843781239290744e+00 8.1785863206677600e+00 7.1248192271974675e+00 
1217 819 2 1.0279995051033326e+00 -4.1207553072763358e+03 1.0000000000000000e+00 3.6843021644928888e+00 8.2380915886650090e+00 7.1392102266878474e+00 
1976 1578 2 1.0280001012690672e+00 -7.3947698299058293e+03 1.0000000000000000e+00 2.1861050384122018e+00 7.9205140008444008e+00 6.9909339319925596e+00 
816 418 2 1.0280000078154063e+00 2.4123324568070137e+02 1.0000000000000000e+00 2.3508970824407918e+00 7.6734064377185458e+00 6.9836328397378011e+00 
1490 1092 2 1.0279999062555016e+00 9.0187014705893228e+02 1.0000000000000000e+00 5.9098967511949396e-01 9.6487881954897858e+00 7.1990160798980041e+00 