LAMMPS data file via write_data, version 30 Jul 2016, timestep = 50000000

4620 atoms
8 atom types

0.0000000000000000e+00 1.0000000000000000e+02 xlo xhi
0.0000000000000000e+00 4.0000000000000000e+01 ylo yhi
0.0000000000000000e+00 4.0000000000000000e+01 zlo zhi

Masses

1 3.896
2 5.36
3 20.064
4 8.378
5 8.378
6 8.378
7 8.378
8 8.378

Atoms # meso-molecular

4364 4365 2 1.0280000000000000e+00 1.1833110884540173e+02 1.0000000000000000e+00 8.2310469779693793e+00 8.6599860823261654e+00 1.3780162097422894e+00 
206 207 2 1.0280000000000000e+00 1.1790817712609001e+02 1.0000000000000000e+00 9.0355094162987424e+00 9.2448604359841973e+00 8.1398146505982205e-01 
4114 4115 2 1.0279940486665315e+00 8.5722424970808595e+02 1.0000000000000000e+00 2.5069568762282838e+01 1.2547644602837817e+01 1.5782254646534479e+00 
165 166 2 1.0279999999999896e+00 -9.2773774348129245e+02 1.0000000000000000e+00 1.5779668243719820e+01 1.5171314059753225e+01 1.2843583139957779e+00 
1132 1133 2 1.0279999999999896e+00 6.4881611909313301e+02 1.0000000000000000e+00 1.6772168149372430e+01 1.5600925441150110e+01 9.1321007445716917e-01 
1516 1517 2 1.0280059785084490e+00 -1.8226474960430005e+02 1.0000000000000000e+00 2.6737550766875703e+01 1.5374208323207789e+01 1.1242305325089790e+00 
2344 2345 2 1.0279999999999996e+00 -1.6955778357646949e+02 1.0000000000000000e+00 1.7235052235113685e-01 1.7601289865568802e+01 1.1346806462025270e+00 
880 881 2 1.0280059906129664e+00 8.5938311539973063e+02 1.0000000000000000e+00 2.5883162903556848e+01 1.3263714879667949e+01 1.9425143501302058e+00 
1094 1095 2 1.0279940365620137e+00 8.3052269376052891e+02 1.0000000000000000e+00 2.6520734127416020e+01 1.6031639391356048e+01 2.0342708873239390e+00 
1263 1264 2 1.0280000000000005e+00 3.7350257208386847e+02 1.0000000000000000e+00 2.7832261722208333e+01 1.8934495374790123e+00 6.5779834011926166e+00 
1300 1301 2 1.0280000000000005e+00 3.8521855016075506e+02 1.0000000000000000e+00 2.7707287432819157e+01 2.2764080595138911e+00 7.6480755536969092e+00 
3401 3402 2 1.0279999999999978e+00 2.2511864285464732e+01 1.0000000000000000e+00 1.4074992133815092e+01 7.1657520941291466e+00 7.5559555842932689e+00 
2979 2980 2 1.0279999999999978e+00 -6.2895300226120912e+02 1.0000000000000000e+00 1.4965785832080615e+01 7.5718666703313104e+00 8.1466590256116014e+00 
4247 4248 2 1.0280000000000002e+00 -6.9462379578218815e+02 1.0000000000000000e+00 1.5230023453260438e+01 1.2122818438383185e+00 9.3121258174960602e+00 
2484 2485 2 1.0279999999999991e+00 1.4975912171093296e+02 1.0000000000000000e+00 1.8685525195645489e+01 6.4073870403936040e-01 9.3346278475453932e+00 
4249 4250 2 1.0280000000000002e+00 -2.1060685084625356e+03 1.0000000000000000e+00 1.5045275884441873e+01 2.0958879748992110e+00 1.0013896120676502e+01 
329 330 2 1.0280000000000000e+00 -1.0337072100061589e+03 1.0000000000000000e+00 8.5280431666094192e-01 4.3414890896240861e+00 1.1073737397986553e+01 
287 288 2 1.0280000000000000e+00 2.4615320444329445e+03 1.0000000000000000e+00 1.8891586015238564e+00 4.0574341657358390e+00 1.0683025721785469e+01 
683 684 2 1.0279999999999994e+00 2.5348177679148621e+03 1.0000000000000000e+00 2.6496829140887765e+01 5.7479846050641044e+00 1.0937205504474486e+01 
680 681 2 1.0279999999999994e+00 4.0312181175507749e+02 1.0000000000000000e+00 2.7524234515738879e+01 5.2925666060528833e+00 1.1147932008176328e+01 
841 842 2 1.0280000000000036e+00 -5.7626944539029431e+01 1.0000000000000000e+00 1.9480272429068791e+01 1.6509248000244305e+01 1.2565727899671959e+01 
799 800 2 1.0280000000000036e+00 -1.8147811016820683e+03 1.0000000000000000e+00 2.0018337285314320e+01 1.5868116010157328e+01 1.3344707359747328e+01 
2766 2767 2 1.0280000000000005e+00 1.2469048407329583e+03 1.0000000000000000e+00 1.1346383780793143e+01 1.7198136060057966e+01 1.4432972935379716e+01 
3330 3331 2 1.0280000000000009e+00 -4.3371110136348648e+02 1.0000000000000000e+00 3.0763711715737987e+01 4.9837433229468813e+00 1.5347390273498402e+01 
2910 2911 2 1.0280000000000009e+00 -2.1840204130382990e+03 1.0000000000000000e+00 2.9665157367205993e+01 5.2780404259027014e+00 1.5465460489776653e+01 
3400 3401 2 1.0280000000000007e+00 -2.6930459443352941e+00 1.0000000000000000e+00 1.1195557073119758e+01 6.9302925647608342e+00 1.6323964475171380e+01 
4523 4524 2 1.0280000000000005e+00 -5.2727515873052903e+02 1.0000000000000000e+00 1.0371937714905638e+01 1.7134402719328435e+01 1.5027755200931200e+01 
668 669 2 1.0279999999999996e+00 4.1315638743636362e+02 1.0000000000000000e+00 8.9833817070329669e+00 3.7917044565474232e+00 1.7966547928293863e+01 
1087 1088 2 1.0279999999999996e+00 -7.3888606890318130e+01 1.0000000000000000e+00 1.0124736676525171e+01 3.8468615121169010e+00 1.8007039289040296e+01 
3316 3317 2 1.0280000000000007e+00 -9.4742497888675217e+01 1.0000000000000000e+00 1.1160423517725942e+01 7.3791878036517913e+00 1.7374979087460456e+01 
3775 3776 2 1.0280000000000000e+00 -4.9703792789774320e+02 1.0000000000000000e+00 1.5870293081797469e+01 1.8204776476621433e+01 1.7576522669654963e+01 
2939 2940 2 1.0280000000000000e+00 -6.9606493409751261e+02 1.0000000000000000e+00 1.6183607227590027e+01 1.7128581927639079e+01 1.7802382263752023e+01 
3645 3646 2 1.0280000000000005e+00 -6.3043025527263057e+02 1.0000000000000000e+00 2.3687136923380134e+01 1.7453551921901436e+01 1.7795523866131912e+01 
4283 4284 2 1.0279999999999949e+00 1.1312057306388192e+03 1.0000000000000000e+00 3.0583194714525025e+01 1.9927169513776783e+00 1.9819206554167664e+01 
1006 1007 2 1.0280000000000047e+00 -9.8128860095346539e+01 1.0000000000000000e+00 2.7290644133116999e+01 7.2973510678471927e+00 1.9727339637265196e+01 
1090 1091 2 1.0280000000000047e+00 -4.3727097512044786e+00 1.0000000000000000e+00 2.7205528645233311e+01 8.1812029543803817e+00 1.9006968750948456e+01 
4107 4108 2 1.0280000000000005e+00 2.3080943010842208e+02 1.0000000000000000e+00 2.3104195749285218e+01 1.8144231121281759e+01 1.8495891518545225e+01 
4325 4326 2 1.0279999999999949e+00 -4.7200912009993107e+02 1.0000000000000000e+00 3.0419836747694493e+01 3.0983984020312767e+00 2.0060361528846421e+01 
2505 2506 2 1.0280000000000009e+00 9.9817964725641076e+01 1.0000000000000000e+00 9.8196793476679627e+00 1.1186011837032625e+01 2.1253871812304954e+01 
2506 2507 2 1.0280000000000009e+00 2.8522035347320571e+02 1.0000000000000000e+00 1.0902220738355316e+01 1.1332390934622113e+01 2.1591585174042855e+01 
671 672 2 1.0280000084114800e+00 -4.2433283739942755e+02 1.0000000000000000e+00 1.2291449933478752e+01 3.5635251457423105e+00 2.3223826012697881e+01 
1050 1051 2 1.0279999913665885e+00 -1.0887733222326701e+03 1.0000000000000000e+00 1.3415054751266819e+01 3.7170800692513488e+00 2.3006013225162942e+01 
4418 4419 2 1.0279999993528808e+00 2.4427688830841362e+03 1.0000000000000000e+00 1.2053791016992539e+01 5.6350825742546498e+00 2.3071793972824683e+01 
4460 4461 2 1.0279999991110023e+00 -1.0281117814198810e+03 1.0000000000000000e+00 1.3192531042117578e+01 5.7882645694023820e+00 2.3204303496973949e+01 
1428 1429 2 1.0280000364185229e+00 -3.9412030513967062e+02 1.0000000000000000e+00 1.2176572491053573e+01 7.8497774527112654e+00 2.2659571766041264e+01 
365 366 2 1.0279992521789996e+00 -5.3906806444575477e+02 1.0000000000000000e+00 3.3149251778063260e+01 1.6214612502563511e+01 2.2285748074898049e+01 
2304 2305 2 1.0280007458473501e+00 1.2400017863608509e+03 1.0000000000000000e+00 3.2599794756103456e+01 1.5561490243340312e+01 2.3046605821316874e+01 
40 41 2 1.0280000000000000e+00 -9.4932663229770628e+02 1.0000000000000000e+00 2.6539376564941843e+00 1.8761591726506587e+01 2.2687671227893688e+01 
1174 1175 2 1.0280000000000000e+00 -1.8488438108832304e+02 1.0000000000000000e+00 3.6438037066692877e+00 1.9171890858656756e+01 2.2288681450673394e+01 
1928 1929 2 1.0279999629678580e+00 -1.1401619276132174e+03 1.0000000000000000e+00 1.3078013381292173e+01 8.0302418465449215e+00 2.3342496287453503e+01 
114 115 2 1.0280000000000000e+00 -3.5812656389070053e+03 1.0000000000000000e+00 2.2802620124541232e+01 1.9311344741843161e+01 2.3457760065437668e+01 
1777 1778 2 1.0280000000000016e+00 1.0819566943922905e+03 1.0000000000000000e+00 1.8381176230055189e+01 1.5440221993596626e+00 2.6652392713982749e+01 
429 430 2 1.0280000000000016e+00 1.2913370982740498e+03 1.0000000000000000e+00 1.7711315292758179e+01 1.5626859756032050e+00 2.7578843471227103e+01 
2116 2117 2 1.0279999999999989e+00 9.8227981085887222e+01 1.0000000000000000e+00 2.7623398422187311e+01 5.8571721834501425e+00 2.7670220188582178e+01 
48 49 2 1.0280000000000005e+00 6.8497486887046057e+02 1.0000000000000000e+00 1.9810655449564692e+01 1.1104275694671442e+01 2.6858629376969368e+01 
595 596 2 1.0280000000000005e+00 -8.6687364925410725e+02 1.0000000000000000e+00 2.0381702750149437e+01 1.2045678623924799e+01 2.7166912562931259e+01 
2559 2560 2 1.0280000000000007e+00 1.3154825942462694e+03 1.0000000000000000e+00 3.3045740938948164e+01 1.2320643007423991e+01 2.6872945940543609e+01 
2115 2116 2 1.0279999999999989e+00 2.8440702087386563e+02 1.0000000000000000e+00 2.8536498778852192e+01 5.9698061605643158e+00 2.8349141644508162e+01 
3405 3406 2 1.0280000000000020e+00 6.2121871369847815e+02 1.0000000000000000e+00 1.3453529544660311e-01 1.1284382537371936e+01 3.1545872193323930e+01 
127 128 2 1.0279999999999996e+00 -1.2643703152583220e+02 1.0000000000000000e+00 6.2804337073993342e+00 1.1068914394521830e+01 3.6162067047576656e+01 
295 296 2 1.0279999999999996e+00 -1.3183584349300583e+02 1.0000000000000000e+00 6.3468899932527476e+00 1.2207342188848163e+01 3.6245366127010897e+01 
3189 3190 2 1.0280000000000000e+00 -1.2370628495161181e+03 1.0000000000000000e+00 1.0334969557699752e+01 1.2436712199238569e+01 3.6165203544745296e+01 
3154 3155 2 1.0280000000000000e+00 -1.2972544343914401e+03 1.0000000000000000e+00 1.0996750542409693e+01 1.3296115738068899e+01 3.5803479197788960e+01 
2 3 2 1.0280000000000009e+00 -6.8786892557875603e+01 1.0000000000000000e+00 8.1377392638947388e+00 1.5560113275318527e+01 3.6442929479061654e+01 
3191 3192 2 1.0280000000000005e+00 -3.5978762793293839e+01 1.0000000000000000e+00 4.0577184313944592e+00 9.3444686463317019e+00 3.8183051943688788e+01 
1891 1892 2 1.0280000000000009e+00 -5.2485021903824122e+02 1.0000000000000000e+00 7.4303615823081062e+00 1.6425906225046798e+01 3.6682496591271729e+01 
4112 4113 2 1.0280000000000005e+00 -5.3709591627042670e+01 1.0000000000000000e+00 3.5914832989788534e+00 8.8062061876797184e+00 3.9077630807940601e+01 
3485 3486 2 1.0280000000000000e+00 -4.7141547682261319e+02 1.0000000000000000e+00 3.2179448536759729e+01 2.0498189807052004e+01 7.2978426751494507e-01 
3482 3483 2 1.0280000000000000e+00 -1.2476905481428435e+00 1.0000000000000000e+00 3.2651141257300118e+01 2.0537737897046526e+01 1.7706084329846619e+00 
1135 1136 2 1.0279999999999996e+00 -5.9520369309444686e+02 1.0000000000000000e+00 2.1860650616793944e+01 2.7669366019375797e+01 2.5141197955574111e+00 
2060 2061 2 1.0279999999999996e+00 2.1039138666158865e+03 1.0000000000000000e+00 2.2617644130908136e+01 2.7025617726779707e+01 3.0797362493734282e+00 
924 925 2 1.0280000000000000e+00 6.0804843800295549e-01 1.0000000000000000e+00 1.1759705632989990e+01 2.9341860315167622e+01 4.9533033113404334e+00 
1386 1387 2 1.0280000000000000e+00 6.9995779722704538e+02 1.0000000000000000e+00 1.1812759855881646e+01 3.0075850470025667e+01 4.0781937642187227e+00 
2435 2436 2 1.0280000000000000e+00 -2.8220875253689542e+02 1.0000000000000000e+00 5.1916104542672175e+00 3.6890543869160950e+01 6.2380175597958569e+00 
704 705 2 1.0280000000000000e+00 2.5157804784925802e+03 1.0000000000000000e+00 1.8763909586351456e+01 2.4427115251862663e+01 7.1364476489601891e+00 
247 248 2 1.0280000000000000e+00 -1.1170483261394938e+02 1.0000000000000000e+00 1.8864753576669248e+01 2.5540718497161144e+01 6.8975097508857806e+00 
3854 3855 2 1.0280000000000000e+00 -6.5498962502782115e+02 1.0000000000000000e+00 4.4992328922570390e+00 3.6479286303367871e+01 7.0497154984784274e+00 
1515 1516 2 1.0279999999999996e+00 -1.6577130228171237e+02 1.0000000000000000e+00 9.3285015291179771e+00 3.3347065012657907e+01 8.9941702324895552e+00 
1096 1097 2 1.0279999999999996e+00 7.4223195448511524e+02 1.0000000000000000e+00 8.7352792959704306e+00 3.3911707375513714e+01 9.7920670940116388e+00 
2442 2443 2 1.0280000000000002e+00 -1.2380371510261866e+03 1.0000000000000000e+00 1.9423969538987773e+01 3.9877273022303093e+01 9.7579399334294425e+00 
2698 2699 2 1.0280000000000005e+00 -7.0091249279032309e+02 1.0000000000000000e+00 3.3133200527124885e+01 2.0367035373460990e+01 1.1520660039643609e+01 
3830 3831 2 1.0279999999999996e+00 -1.5716690922847274e+03 1.0000000000000000e+00 2.1861073554610662e+01 3.5489463949014734e+01 1.0393448962672657e+01 
4293 4294 2 1.0279999999999996e+00 -8.0260173302722706e+02 1.0000000000000000e+00 2.2269133081895362e+01 3.6204649168531539e+01 1.1186777735273040e+01 
177 178 2 1.0280000000000047e+00 2.0529884913269012e+01 1.0000000000000000e+00 2.6418382899266248e+01 3.1873406496552086e+01 1.2723744189422654e+01 
87 88 2 1.0280000000000047e+00 -6.1168597629364172e+02 1.0000000000000000e+00 2.5758226580438755e+01 3.2801552765819174e+01 1.2824298428599516e+01 
2063 2064 2 1.0280000000000000e+00 -1.8911943505725078e+03 1.0000000000000000e+00 3.3216569630948499e+01 3.2903662060243470e+01 1.2108147680855939e+01 
3133 3134 2 1.0280000026196705e+00 3.7566218238436943e+02 1.0000000000000000e+00 3.2424451099403342e+01 3.7252764493955731e+01 1.3190491695791378e+01 
2937 2938 2 1.0280000000000000e+00 -1.8260783667699795e+02 1.0000000000000000e+00 9.7286381448976460e+00 2.0728864618722724e+01 1.3487630447035484e+01 
3443 3444 2 1.0280000000000000e+00 8.2309045597206523e+02 1.0000000000000000e+00 1.0615691419634500e+01 2.0020867225642029e+01 1.3626371921109762e+01 
4516 4517 2 1.0279999974375476e+00 -6.0752183579379221e+02 1.0000000000000000e+00 3.2094117874700231e+01 3.6411940071873097e+01 1.3904648338549366e+01 
3748 3749 2 1.0280000000000000e+00 2.3544545869655917e+02 1.0000000000000000e+00 1.5126401753381554e+01 3.1135357159049452e+01 1.9918782474582095e+01 
2310 2311 2 1.0280000000000018e+00 1.7747152831023016e+02 1.0000000000000000e+00 1.3054472137218335e+01 3.2045501870196695e+01 1.8682469051116371e+01 
1385 1386 2 1.0280000000000018e+00 5.4054563714652966e+02 1.0000000000000000e+00 1.2022914560671095e+01 3.2535742727638038e+01 1.8736560505357264e+01 
260 261 2 1.0280000000000005e+00 2.4430077848118026e+03 1.0000000000000000e+00 5.4941745990409858e+00 3.0382859433296176e+01 2.1431044849510585e+01 
3286 3287 2 1.0280000000000000e+00 -6.3936989455428284e+02 1.0000000000000000e+00 1.4906244764543501e+01 3.1725478415146728e+01 2.0873067977367647e+01 
3654 3655 2 1.0279999999999994e+00 -3.5003146468688101e+02 1.0000000000000000e+00 2.3878422525609658e+01 3.6447881052555289e+01 2.1332156978622500e+01 
3613 3614 2 1.0279999999999994e+00 -3.4601679733949629e+02 1.0000000000000000e+00 2.4755507602850535e+01 3.6933903287569507e+01 2.0782723477812901e+01 
575 576 2 1.0280000000000000e+00 1.9455251294941270e+03 1.0000000000000000e+00 2.3499001983290164e+01 2.0064236287893433e+01 2.2952211211072282e+01 
2688 2689 2 1.0280000000000005e+00 -5.0395872855093762e+02 1.0000000000000000e+00 2.0299532233159972e+01 2.9960498124099704e+01 2.2047267882382553e+01 
2603 2604 2 1.0280000000000005e+00 -6.1617398245112092e+01 1.0000000000000000e+00 2.1430516875037934e+01 2.9792730895485938e+01 2.2057313493273544e+01 
302 303 2 1.0280000000000005e+00 -1.0329517739518797e+03 1.0000000000000000e+00 6.5860231034544103e+00 3.0379123588585777e+01 2.1770494263021945e+01 
1551 1552 2 1.0280000000000016e+00 -1.8406837219167505e+02 1.0000000000000000e+00 2.9216568370938759e+01 3.2777960476174776e+01 2.2467869809198067e+01 
1133 1134 2 1.0280000000000016e+00 8.2220023672836510e+02 1.0000000000000000e+00 3.0019931244077583e+01 3.3414803961509584e+01 2.2974240707559616e+01 
3530 3531 2 1.0279999999999994e+00 3.0149043912112269e+01 1.0000000000000000e+00 3.0425828282147762e+01 2.2658662296439651e+01 2.4289394769710515e+01 
3362 3363 2 1.0279999999999994e+00 3.4897766701780704e+01 1.0000000000000000e+00 3.1462861788331537e+01 2.2886616830124236e+01 2.3865164578560034e+01 
120 121 2 1.0280000000000020e+00 -2.1002012177135348e+03 1.0000000000000000e+00 1.8516159925153713e-01 2.0781514415519204e+01 2.5067261588237443e+01 
1978 1979 2 1.0280000000000000e+00 -1.3024520195041196e+03 1.0000000000000000e+00 9.0393492715904455e-01 2.9359641783754114e+01 2.8011698963291344e+01 
1 2 2 1.0280000000000000e+00 -9.9021145803191428e+02 1.0000000000000000e+00 3.3763986607990376e-01 2.9789827610097703e+01 2.7116364904925867e+01 
3110 3111 2 1.0280000000000007e+00 3.2236895631044518e+02 1.0000000000000000e+00 2.3121424574922326e+01 2.2791514258466663e+01 2.9455020218484457e+01 
3153 3154 2 1.0280000000000007e+00 7.3037189308019350e+01 1.0000000000000000e+00 2.2290528575498318e+01 2.3491973861946523e+01 2.9099575146085424e+01 
1553 1554 2 1.0279999999999883e+00 -6.9696192882916512e+02 1.0000000000000000e+00 3.1710927331277766e+01 3.1455461295660154e+01 3.2580266556798314e+01 
541 542 2 1.0279999999999883e+00 -5.0467382081295881e+02 1.0000000000000000e+00 3.2406845294792348e+01 3.2359064262794469e+01 3.2661339877333319e+01 
1845 1846 2 1.0279999999999996e+00 -7.0293722096160491e+02 1.0000000000000000e+00 1.4594393777467561e+01 3.6343307440685251e+01 3.4275265587638721e+01 
1382 1383 2 1.0279999999999996e+00 -2.5934673849032706e+01 1.0000000000000000e+00 1.3541032327552850e+01 3.6779744124750714e+01 3.4360855856327774e+01 
3236 3237 2 1.0279999999999978e+00 5.3574096013860344e+02 1.0000000000000000e+00 2.8315266345977648e+01 3.2363057297538866e+01 3.5195047446598359e+01 
2311 2312 2 1.0279999999999978e+00 1.7117455138954520e+02 1.0000000000000000e+00 2.9301922682073059e+01 3.2399299244260177e+01 3.5771735241856227e+01 
2982 2983 2 1.0280000000000011e+00 -8.7909974725835605e+02 1.0000000000000000e+00 2.8091220840817041e+01 3.3696987601554227e+01 3.9030863096113549e+01 
2520 2521 2 1.0280000000000011e+00 -6.0011025492626072e+02 1.0000000000000000e+00 2.9179213161200355e+01 3.3893109276667126e+01 3.9322722680154534e+01 
594 595 2 1.0279999954185444e+00 -5.0229839732578694e+02 1.0000000000000000e+00 4.2604949607442052e+01 7.9266480341415779e-01 4.7046473414914253e-01 
1523 1524 2 1.0280000115414225e+00 -1.7198518570901927e+03 1.0000000000000000e+00 4.3412089438962717e+01 1.0604977477615480e+00 1.5927306898127342e+00 
2010 2011 2 1.0280000002678591e+00 2.2127811837585250e+03 1.0000000000000000e+00 4.6507522758143843e+01 8.9490304549138766e-01 6.5103990124005589e-03 
1544 1545 2 1.0280000052023663e+00 -1.7153315721687984e+03 1.0000000000000000e+00 4.7447474530576166e+01 6.2488182616245347e-01 1.1829211667443904e+00 
540 541 2 1.0280000032512218e+00 -2.4916081924540845e+02 1.0000000000000000e+00 4.9284215083963197e+01 7.9838388350327832e-02 6.6134238827470404e-01 
84 85 2 1.0279999970350300e+00 -3.2290754895164628e+02 1.0000000000000000e+00 5.1569759607096763e+01 1.5036922394473273e+00 1.1906103641746790e+00 
126 127 2 1.0280000032778338e+00 -1.1033968760348812e+03 1.0000000000000000e+00 5.1184192796632956e+01 8.7697415281627322e-01 2.9208423177123777e-01 
187 188 2 1.0279999990177415e+00 5.7424374655915449e+02 1.0000000000000000e+00 4.4955715356838262e+01 2.7982956617535448e+00 1.5360550914150977e+00 
53 54 2 1.0279999993472499e+00 -2.7021400121798501e+02 1.0000000000000000e+00 4.3729911558276051e+01 3.1166365471580089e+00 8.7555543934971181e-01 
539 540 2 1.0280000019145017e+00 4.2654363777314887e+02 1.0000000000000000e+00 4.8023068272589775e+01 3.0201963047164080e+00 2.1988634558811435e-01 
621 622 2 1.0279999991737454e+00 -1.0239363296492786e+03 1.0000000000000000e+00 4.8958156538978329e+01 2.6312320561814193e+00 1.6092415171654899e+00 
3940 3941 2 1.0279999999105460e+00 -1.9889250302048627e+03 1.0000000000000000e+00 5.0097284810395188e+01 2.8173756041485514e+00 4.8884124989242156e-01 
3568 3569 2 1.0279999994623303e+00 -6.9686339053983559e+00 1.0000000000000000e+00 4.0108873463274456e+01 3.8392434091588208e+00 1.3410696708798837e+00 
636 637 2 1.0279999977164287e+00 1.6668208296425742e+03 1.0000000000000000e+00 4.1947695935038595e+01 3.4219996151304199e+00 1.0365826818600559e+00 
978 979 2 1.0279999996918530e+00 7.6459124093167805e+00 1.0000000000000000e+00 4.4685118337424200e+01 4.8294554275734720e+00 1.2892391451884428e+00 
4229 4230 2 1.0280000007691097e+00 -1.1098958797777871e+02 1.0000000000000000e+00 4.6322183098385281e+01 3.8779905800245422e+00 1.3818613620518811e+00 
159 160 2 1.0280000024566529e+00 2.3603583450761542e+02 1.0000000000000000e+00 4.8627870891241429e+01 4.4493255738823763e+00 8.2149086161362950e-01 
706 707 2 1.0280000000433611e+00 -1.9796001335051778e+03 1.0000000000000000e+00 5.0296405617291505e+01 4.1371084988283169e+00 6.6458861313949402e-01 
1348 1349 2 1.0280000000633229e+00 -7.1876163203612759e+02 1.0000000000000000e+00 5.2987080878806196e+01 3.5006089797832960e+00 1.2813635469846798e+00 
3652 3653 2 1.0280000001929086e+00 -1.0018094787125725e+02 1.0000000000000000e+00 3.9931606527909871e+01 5.0737902438667941e+00 1.1995176107152348e+00 
974 975 2 1.0280000000765244e+00 4.2614817857266576e+02 1.0000000000000000e+00 4.3901287997284903e+01 6.3933391458839770e+00 1.0346185844531135e+00 
4260 4261 2 1.0280000011187840e+00 -1.2697966527837980e+03 1.0000000000000000e+00 4.6273406591366296e+01 5.9756586847070814e+00 8.5145583630477450e-01 
3142 3143 2 1.0279999975249547e+00 -5.8731406391611654e+02 1.0000000000000000e+00 4.9607023935288346e+01 6.0624955690221460e+00 8.7777507243867481e-01 
2140 2141 2 1.0279999995302433e+00 3.6613176599561200e+02 1.0000000000000000e+00 5.2204475843734294e+01 6.3672353074945791e+00 1.0181123796461133e+00 
555 556 2 1.0280000000182006e+00 -2.5529581451839903e+02 1.0000000000000000e+00 4.2945558732225813e+01 6.9735330852486346e+00 3.2774409083564565e-01 
1066 1067 2 1.0280000004743384e+00 3.5552163926298897e+02 1.0000000000000000e+00 4.6053928199819282e+01 7.3604367272997582e+00 3.5249776888347950e-01 
756 757 2 1.0280000004324703e+00 3.3875650731401555e+02 1.0000000000000000e+00 5.2647589275256998e+01 7.4535758604374660e+00 8.6718590599251322e-01 
4334 4335 2 1.0280000000440936e+00 2.4433079645647977e+03 1.0000000000000000e+00 4.2896911749876956e+01 9.1783446999851144e+00 1.1112996002563560e+00 
1063 1064 2 1.0280000004537793e+00 -5.4155613132798976e+02 1.0000000000000000e+00 4.4996782448941019e+01 8.5010627524246161e+00 6.7923546871453888e-01 
578 579 2 1.0279999998036180e+00 4.9281655014016314e+02 1.0000000000000000e+00 4.8727521930071774e+01 9.5893003383600988e+00 1.5126199110368224e+00 
1542 1543 2 1.0280000001289895e+00 -3.2863553777247182e+02 1.0000000000000000e+00 4.8840336023940203e+01 8.8967601413854087e+00 6.3159533731449086e-02 
115 116 2 1.0280000001826095e+00 -1.0997868238387518e+03 1.0000000000000000e+00 5.0547597972220096e+01 9.9680157446367499e+00 1.2541620865441487e+00 
4292 4293 2 1.0279999999105762e+00 -1.0275494771484214e+03 1.0000000000000000e+00 4.3419190449197771e+01 1.0336270156829215e+01 1.2911489805913003e+00 
352 353 2 1.0280000000939966e+00 -5.9927506243775360e+02 1.0000000000000000e+00 4.5452305138708297e+01 1.0142717942066058e+01 3.7602961418808384e-01 
3761 3762 2 1.0279999999897576e+00 6.0338381851123859e+02 1.0000000000000000e+00 4.7140741981119760e+01 1.0424759797495627e+01 9.3443673715112818e-01 
996 997 2 1.0279999999542835e+00 -4.5236768143599011e+02 1.0000000000000000e+00 5.0308637105833711e+01 1.1562950631079900e+01 1.2548110394411802e+00 
1967 1968 2 1.0280000001153262e+00 -1.1411916815056861e+03 1.0000000000000000e+00 5.1406014056246399e+01 1.0553481656136814e+01 2.0572681712756175e-01 
1862 1863 2 1.0280000000633760e+00 -2.1355762829036195e+02 1.0000000000000000e+00 4.4969457772793170e+01 1.2350820069638271e+01 1.0320134532875143e+00 
1807 1808 2 1.0279999999463858e+00 -3.6808387667984334e+02 1.0000000000000000e+00 4.3495613701376818e+01 1.2063635199139307e+01 1.1531909366642695e-01 
1530 1531 2 1.0280000000288914e+00 -2.5460629999077009e+03 1.0000000000000000e+00 4.6222286929511533e+01 1.1835710509935154e+01 1.6005925825115084e+00 
1528 1529 2 1.0280000000620477e+00 -2.4676208654080019e+03 1.0000000000000000e+00 4.7508891415968378e+01 1.2241245203661595e+01 6.2638911889384596e-01 
1079 1080 2 1.0280000001337986e+00 1.6781642869631037e+02 1.0000000000000000e+00 4.8832951794179387e+01 1.3003219522780322e+01 1.3409041405736393e+00 
1880 1881 2 1.0280000000677672e+00 -2.5072124654765241e+02 1.0000000000000000e+00 5.1702710899443545e+01 1.2518754602714980e+01 3.4018877686883425e-01 
623 624 2 1.0280000000887397e+00 -1.5731185950295444e+03 1.0000000000000000e+00 5.4092747626613182e+01 1.2433686916980857e+01 1.1699010799263809e+00 
1044 1045 2 1.0280000000982041e+00 -5.3938032679400726e+02 1.0000000000000000e+00 5.5202773537613517e+01 1.3160041919831491e+01 1.9414497771075231e-01 
4083 4084 2 1.0279999999530898e+00 -3.0388833112726388e+02 1.0000000000000000e+00 4.3922281096840891e+01 1.3528211101800583e+01 1.2813539906707943e+00 
1693 1694 2 1.0279999999035903e+00 -4.2857091908133356e+02 1.0000000000000000e+00 4.5912875289331467e+01 1.4175603290735676e+01 5.1154828738958835e-01 
983 984 2 1.0279999997771565e+00 -2.3811998445833035e+02 1.0000000000000000e+00 4.7473171226206830e+01 1.3928161835558896e+01 9.2134886595227772e-01 
527 528 2 1.0279999998109277e+00 6.2032148084993401e+02 1.0000000000000000e+00 4.9441424267759928e+01 1.4778831389993083e+01 5.7935999109812686e-01 
994 995 2 1.0280000002431000e+00 -9.4871557999949800e+02 1.0000000000000000e+00 5.0350507481032501e+01 1.3586643934502018e+01 6.6487912810805982e-01 
957 958 2 1.0279999998759963e+00 3.1460193191822009e+02 1.0000000000000000e+00 5.3231489288578267e+01 1.3735938530482281e+01 9.7787511561643015e-01 
1888 1889 2 1.0280000001928857e+00 -7.9719192264539129e+02 1.0000000000000000e+00 5.4035270206490388e+01 1.4968303803610779e+01 1.2128535189195831e-01 
493 494 2 1.0279999999334251e+00 1.6317242399731930e+02 1.0000000000000000e+00 5.5295817622537818e+01 1.4632038423558051e+01 9.1471231222548888e-01 
1632 1633 2 1.0280000000085061e+00 7.5023682852039701e+02 1.0000000000000000e+00 5.7506539871979854e+01 1.3722735768794546e+01 9.7100056155357994e-01 
710 711 2 1.0280000000000000e+00 3.9814890097582287e+02 1.0000000000000000e+00 6.5034887854328787e+01 1.3609971280806677e+01 9.9705201954470901e-01 
1313 1314 2 1.0279999999061213e+00 2.1883158036104220e+02 1.0000000000000000e+00 4.4744663611452467e+01 1.5154012983831388e+01 1.0644829439483869e+00 
269 270 2 1.0280000000721565e+00 1.0853106254988825e+03 1.0000000000000000e+00 4.3685921289588592e+01 1.6019298697882579e+01 1.4110434029788285e-02 
936 937 2 1.0279999998819864e+00 -5.9670409470822356e+01 1.0000000000000000e+00 4.6669099043283900e+01 1.5955772800537520e+01 6.9877665447467885e-01 
569 570 2 1.0279999998130265e+00 -1.3794837692538091e+00 1.0000000000000000e+00 5.0836148917139305e+01 1.5652327696535488e+01 5.0259772459513151e-02 
1076 1077 2 1.0279999997675671e+00 -2.6618083065546841e+02 1.0000000000000000e+00 5.3180615401030195e+01 1.5999946171588372e+01 1.4866500386752797e+00 
1127 1128 2 1.0280000000376981e+00 1.8011821457966435e+03 1.0000000000000000e+00 5.6782473673987262e+01 1.5246457212708426e+01 5.4157583373318763e-01 
1046 1047 2 1.0279999998987084e+00 5.0577595474306156e+02 1.0000000000000000e+00 6.0854306182156343e+01 1.6524348198406589e+01 1.0157727636172980e+00 
3404 3405 2 1.0280000000000000e+00 8.2350615614237154e+02 1.0000000000000000e+00 3.3751907232313798e+01 1.6702018238280434e+01 6.6052832371786563e-01 
2902 2903 2 1.0280000000000000e+00 -1.8633915548992101e+02 1.0000000000000000e+00 3.4752693370285485e+01 1.7152920140122561e+01 9.8066516698587991e-01 
730 731 2 1.0279999998588416e+00 1.7552753432952118e+03 1.0000000000000000e+00 4.4550193573932489e+01 1.7642659737368700e+01 1.8985450321695317e-02 
566 567 2 1.0280000000470109e+00 1.0250632809324554e+02 1.0000000000000000e+00 4.7764426635749849e+01 1.6794672499379178e+01 1.1014287648211833e+00 
1447 1448 2 1.0279999997741107e+00 9.5453398351111355e+02 1.0000000000000000e+00 5.1116005731648102e+01 1.7066294895642525e+01 3.9792455763628282e-01 
1870 1871 2 1.0280000000890686e+00 -6.5049910151475933e+02 1.0000000000000000e+00 5.2618682948435264e+01 1.7534590919781227e+01 1.5690188426740928e+00 
918 919 2 1.0280000000799847e+00 1.0603783874382152e+01 1.0000000000000000e+00 5.5219961562049846e+01 1.7040300342656355e+01 4.4563355317430248e-01 
1926 1927 2 1.0280000000049789e+00 -1.0373693985159677e+02 1.0000000000000000e+00 5.6755003421097008e+01 1.7333889584489551e+01 8.5340327815400419e-01 
1047 1048 2 1.0280000001392644e+00 1.0612103996477163e+03 1.0000000000000000e+00 5.9627751737517414e+01 1.6725001005024737e+01 4.6845802116889612e-01 
3356 3357 2 1.0279999999993490e+00 5.0594736975799708e+02 1.0000000000000000e+00 6.1004380184300913e+01 1.7976143095595024e+01 1.5874846700177467e+00 
938 939 2 1.0280000001672567e+00 1.7114226161515237e+01 1.0000000000000000e+00 4.6738353241669380e+01 1.8683088056051162e+01 1.6242999775786229e+00 
1783 1784 2 1.0279999999805567e+00 9.3440630659659928e+02 1.0000000000000000e+00 4.9708543603019550e+01 1.8570916049852546e+01 6.9982430405618123e-01 
1326 1327 2 1.0279999997615488e+00 -5.3585469364256733e+02 1.0000000000000000e+00 5.1242391109176992e+01 1.8506243575518393e+01 1.2521082302161144e+00 
4176 4177 2 1.0279999999445268e+00 7.5870926294456535e+02 1.0000000000000000e+00 5.2829757248609894e+01 1.9784330613862561e+01 2.4159968490719266e-01 
1778 1779 2 1.0279999997971201e+00 8.5110508871016214e+02 1.0000000000000000e+00 5.4008668091425889e+01 1.9060920613830671e+01 1.3936396780777138e+00 
3357 3358 2 1.0280000000051042e+00 1.0621871302937757e+03 1.0000000000000000e+00 6.0146310039944261e+01 1.8668733956488222e+01 8.0108532557191470e-01 