LAMMPS data file via write_data, version 30 Jul 2016, timestep = 50400000

4620 atoms
8 atom types

0.0000000000000000e+00 1.0000000000000000e+02 xlo xhi
0.0000000000000000e+00 4.0000000000000000e+01 ylo yhi
0.0000000000000000e+00 4.0000000000000000e+01 zlo zhi

Masses

1 3.896
2 5.36
3 20.064
4 8.378
5 8.378
6 8.378
7 8.378
8 8.378

Atoms # meso-molecular

4364 4365 2 1.0280000000000000e+00 1.1833110884540173e+02 1.0000000000000000e+00 7.8635371466910673e+00 8.2306497874546469e+00 1.4920469188841330e+00 
206 207 2 1.0280000000000000e+00 1.1790817712609001e+02 1.0000000000000000e+00 8.6679995850204303e+00 8.8155241411126788e+00 9.2801217420166560e-01 
4114 4115 2 1.0280000000000002e+00 8.5722427416954361e+02 1.0000000000000000e+00 2.5020504489984500e+01 1.2511758452610765e+01 9.0751196622715291e-01 
880 881 2 1.0280000000000002e+00 8.5938315793976221e+02 1.0000000000000000e+00 2.5835556102121569e+01 1.3223214713451044e+01 1.2775036903544279e+00 
165 166 2 1.0279999999999869e+00 -9.2773774348129245e+02 1.0000000000000000e+00 1.5715037523033411e+01 1.4967372887181394e+01 1.2205374426525104e+00 
1132 1133 2 1.0279999999999869e+00 6.4881611909313301e+02 1.0000000000000000e+00 1.6707537428712641e+01 1.5396984268578279e+01 8.4938920318507427e-01 
1094 1095 2 1.0280000000000000e+00 8.3052273881209157e+02 1.0000000000000000e+00 2.6822309118330708e+01 1.6178215929644757e+01 1.2077948632583950e+00 
1516 1517 2 1.0280000000000000e+00 -1.8226468647407600e+02 1.0000000000000000e+00 2.7042991234037732e+01 1.5528810152407480e+01 2.9294812322121289e-01 
1263 1264 2 1.0279999999999996e+00 3.7350257208386847e+02 1.0000000000000000e+00 2.7722879888129174e+01 6.3379163105159608e-01 6.2019558159454871e+00 
1300 1301 2 1.0279999999999996e+00 3.8521855016075506e+02 1.0000000000000000e+00 2.7597905598739999e+01 1.0167501530864798e+00 7.2720479684497796e+00 
3401 3402 2 1.0280000000000002e+00 2.2511864285464732e+01 1.0000000000000000e+00 1.4425833058838114e+01 6.8158932223004456e+00 7.4835641357243041e+00 
2979 2980 2 1.0280000000000002e+00 -6.2895300226120912e+02 1.0000000000000000e+00 1.5316626757103636e+01 7.2220077985026094e+00 8.0742675770426278e+00 
4247 4248 2 1.0280000000000005e+00 -6.9462379578218815e+02 1.0000000000000000e+00 1.5520028399184676e+01 2.2426800765491112e-01 8.3604813639453894e+00 
4249 4250 2 1.0280000000000005e+00 -2.1060685084625356e+03 1.0000000000000000e+00 1.5335280830366111e+01 1.1078741387158033e+00 9.0622516671258317e+00 
2484 2485 2 1.0279999999999991e+00 1.4975912171093296e+02 1.0000000000000000e+00 1.8112795541720637e+01 6.2972007340922742e-01 9.3334115760174559e+00 
329 330 2 1.0280000000000002e+00 -1.0337072100061589e+03 1.0000000000000000e+00 1.3143577304143801e+00 4.1382509326535439e+00 1.0515248342095822e+01 
287 288 2 1.0280000000000002e+00 2.4615320444329445e+03 1.0000000000000000e+00 2.3507120153122227e+00 3.8541960088927336e+00 1.0124536665894738e+01 
680 681 2 1.0279999999999994e+00 4.0312181175507749e+02 1.0000000000000000e+00 2.7491744073757598e+01 4.6903734303723290e+00 1.1192508951912602e+01 
683 684 2 1.0279999999999994e+00 2.5348177679148621e+03 1.0000000000000000e+00 2.6464338698906484e+01 5.1457914293835501e+00 1.0981782448210760e+01 
2698 2699 2 1.0280000000000005e+00 -7.0091249279032309e+02 1.0000000000000000e+00 3.3313250896760749e+01 1.9937277303263695e+01 1.0351028819677559e+01 
841 842 2 1.0279999999999994e+00 -5.7626944539029431e+01 1.0000000000000000e+00 1.9347850905722098e+01 1.5788241298435029e+01 1.1970141403994479e+01 
799 800 2 1.0279999999999994e+00 -1.8147811016820683e+03 1.0000000000000000e+00 1.9885915761967627e+01 1.5147109308348027e+01 1.2749120864069839e+01 
2766 2767 2 1.0280000000000005e+00 1.2469048407329583e+03 1.0000000000000000e+00 1.0742244918478558e+01 1.7238421731390151e+01 1.2997838500622315e+01 
3443 3444 2 1.0280000000000000e+00 8.2309045597206523e+02 1.0000000000000000e+00 1.0054948392156616e+01 1.9985730125656879e+01 1.2583815901284037e+01 
2910 2911 2 1.0280000000000009e+00 -2.1840204130382990e+03 1.0000000000000000e+00 2.9615900855092477e+01 4.7066455602577539e+00 1.4923100492507949e+01 
3330 3331 2 1.0280000000000009e+00 -4.3371110136348648e+02 1.0000000000000000e+00 3.0714455203624471e+01 4.4123484573019338e+00 1.4805030276229697e+01 
4523 4524 2 1.0280000000000005e+00 -5.2727515873052903e+02 1.0000000000000000e+00 9.7677988525910528e+00 1.7174688390660620e+01 1.3592620766173798e+01 
3400 3401 2 1.0280000000000007e+00 -2.6930459443352941e+00 1.0000000000000000e+00 1.0259899233557249e+01 7.3505788601270021e+00 1.6026956754709119e+01 
668 669 2 1.0279999999999996e+00 4.1315638743636362e+02 1.0000000000000000e+00 8.7276661480829798e+00 3.5989577588337927e+00 1.7702264213736640e+01 
1087 1088 2 1.0279999999999996e+00 -7.3888606890318130e+01 1.0000000000000000e+00 9.8690211175751834e+00 3.6541148144032705e+00 1.7742755574483073e+01 
3316 3317 2 1.0280000000000007e+00 -9.4742497888675217e+01 1.0000000000000000e+00 1.0224765678163433e+01 7.7994740990179592e+00 1.7077971366998195e+01 
3775 3776 2 1.0280000000000000e+00 -4.9703792789774320e+02 1.0000000000000000e+00 1.5954871086841491e+01 1.8200366254389579e+01 1.7077535774118672e+01 
2939 2940 2 1.0280000000000000e+00 -6.9606493409751261e+02 1.0000000000000000e+00 1.6268185232634050e+01 1.7124171705407225e+01 1.7303395368215732e+01 
4283 4284 2 1.0280000000000002e+00 1.1312057306388192e+03 1.0000000000000000e+00 3.0784641681721286e+01 1.4265788876598307e+00 1.9886607084835447e+01 
1006 1007 2 1.0280000000000000e+00 -9.8128860095346539e+01 1.0000000000000000e+00 2.7122897744603975e+01 6.7294810235259535e+00 1.9896907612925979e+01 
1090 1091 2 1.0280000000000000e+00 -4.3727097512044786e+00 1.0000000000000000e+00 2.7037782256720288e+01 7.6133329100591656e+00 1.9176536726609253e+01 
4107 4108 2 1.0280000000000005e+00 2.3080943010842208e+02 1.0000000000000000e+00 2.3318854997173212e+01 1.7639404873277240e+01 1.9529254923701476e+01 
3645 3646 2 1.0280000000000005e+00 -6.3043025527263057e+02 1.0000000000000000e+00 2.3901796171268128e+01 1.6948725673896917e+01 1.8828887271288163e+01 
4325 4326 2 1.0280000000000002e+00 -4.7200912009993107e+02 1.0000000000000000e+00 3.0621283714890755e+01 2.5322603383134186e+00 2.0127762059514204e+01 
2505 2506 2 1.0280000000000009e+00 9.9817964725641076e+01 1.0000000000000000e+00 9.7576421811529794e+00 1.1019632679115007e+01 2.1462477150819144e+01 
365 366 2 1.0279999999999989e+00 -5.3906806444575477e+02 1.0000000000000000e+00 3.3301543031333956e+01 1.6499860336469464e+01 2.1546182689429042e+01 
1174 1175 2 1.0280000000000000e+00 -1.8488438108832304e+02 1.0000000000000000e+00 3.2556827671930213e+00 1.9026382030559038e+01 2.1180564278607235e+01 
40 41 2 1.0280000000000000e+00 -9.4932663229770628e+02 1.0000000000000000e+00 2.2658167170179180e+00 1.8616082898408870e+01 2.1579554055827529e+01 
671 672 2 1.0280000000748353e+00 -4.2433283739462036e+02 1.0000000000000000e+00 1.2445200459019647e+01 3.4236423435217249e+00 2.2990073103647237e+01 
1050 1051 2 1.0279999999103850e+00 -1.0887733222326701e+03 1.0000000000000000e+00 1.3568789553030316e+01 3.5772475248375422e+00 2.2772264071828570e+01 
4418 4419 2 1.0280000000173839e+00 2.4427688830841362e+03 1.0000000000000000e+00 1.2208198768797784e+01 5.4953810495899083e+00 2.2838330099356913e+01 
4460 4461 2 1.0279999998933587e+00 -1.0281117813610385e+03 1.0000000000000000e+00 1.3346903891077256e+01 5.6485850882001980e+00 2.2970834962880204e+01 
1428 1429 2 1.0280000005468286e+00 -3.9412030510327236e+02 1.0000000000000000e+00 1.2333607607692420e+01 7.7110938818664643e+00 2.2426972119124617e+01 
1928 1929 2 1.0279999994019220e+00 -1.1401619275754424e+03 1.0000000000000000e+00 1.3235042770572157e+01 7.8914631714764001e+00 2.3109891582223568e+01 
2506 2507 2 1.0280000000000009e+00 2.8522035347320571e+02 1.0000000000000000e+00 1.0840183571840333e+01 1.1166011776704496e+01 2.1800190512557045e+01 
2304 2305 2 1.0279999999999989e+00 1.2400017872193930e+03 1.0000000000000000e+00 3.2752088439109684e+01 1.5846735389606980e+01 2.2307037782287257e+01 
114 115 2 1.0280000000000000e+00 -3.5812656389070053e+03 1.0000000000000000e+00 2.3267349648737859e+01 1.9095435699020957e+01 2.4392289035202538e+01 
575 576 2 1.0280000000000000e+00 1.9455251294941270e+03 1.0000000000000000e+00 2.3963731507486791e+01 1.9848327245071228e+01 2.3886740180837151e+01 
1777 1778 2 1.0280000000000016e+00 1.0819566943922905e+03 1.0000000000000000e+00 1.8033200113866769e+01 9.4658518909617184e-01 2.6615672511992557e+01 
122 123 2 1.0280000000000002e+00 -7.0002233850138339e+02 1.0000000000000000e+00 5.2303665536049004e-01 1.9730955408388695e+01 2.6104221968745161e+01 
429 430 2 1.0280000000000016e+00 1.2913370982740498e+03 1.0000000000000000e+00 1.7363339176569760e+01 9.6524896533971427e-01 2.7542123269236910e+01 
2116 2117 2 1.0279999999999989e+00 9.8227981085887222e+01 1.0000000000000000e+00 2.7717440110401785e+01 5.5512620957889105e+00 2.7658052600400723e+01 
48 49 2 1.0280000000000005e+00 6.8497486887046057e+02 1.0000000000000000e+00 1.9318805648854649e+01 1.0669750727552509e+01 2.6815592394635935e+01 
595 596 2 1.0280000000000005e+00 -8.6687364925410725e+02 1.0000000000000000e+00 1.9889852949439394e+01 1.1611153656805866e+01 2.7123875580597826e+01 
2558 2559 2 1.0280000000000007e+00 -1.9054200013616951e+03 1.0000000000000000e+00 3.2994353727682572e+01 1.1854849617308510e+01 2.7065797957766872e+01 
2559 2560 2 1.0280000000000007e+00 1.3154825942462694e+03 1.0000000000000000e+00 3.2447628096494462e+01 1.2801980174170689e+01 2.6732019872928099e+01 
2115 2116 2 1.0279999999999989e+00 2.8440702087386563e+02 1.0000000000000000e+00 2.8630540467066666e+01 5.6638960729030838e+00 2.8336974056326707e+01 
127 128 2 1.0279999999999996e+00 -1.2643703152583220e+02 1.0000000000000000e+00 6.1904765694828487e+00 1.0591180839761723e+01 3.6571308905400528e+01 
3189 3190 2 1.0280000000000000e+00 -1.2370628495161181e+03 1.0000000000000000e+00 1.0900006218004693e+01 1.1484817229635551e+01 3.5764935065761406e+01 
295 296 2 1.0279999999999996e+00 -1.3183584349300583e+02 1.0000000000000000e+00 6.2569328553362622e+00 1.1729608634088056e+01 3.6654607984834769e+01 
3154 3155 2 1.0280000000000000e+00 -1.2972544343914401e+03 1.0000000000000000e+00 1.1561787202714633e+01 1.2344220768465881e+01 3.5403210718805070e+01 
2 3 2 1.0280000000000009e+00 -6.8786892557875603e+01 1.0000000000000000e+00 8.0835386071319792e+00 1.5927197222912964e+01 3.6590538101631005e+01 
4112 4113 2 1.0280000000000005e+00 -5.3709591627042670e+01 1.0000000000000000e+00 2.9113587673520511e+00 8.4992415025424730e+00 3.8283073789005662e+01 
3191 3192 2 1.0280000000000005e+00 -3.5978762793293839e+01 1.0000000000000000e+00 3.3775938997676569e+00 9.0375039611944565e+00 3.7388494924753850e+01 
1891 1892 2 1.0280000000000009e+00 -5.2485021903824122e+02 1.0000000000000000e+00 7.3761609255453466e+00 1.6792990172641236e+01 3.6830105213841080e+01 
3485 3486 2 1.0280000000000000e+00 -4.7141547682261319e+02 1.0000000000000000e+00 3.1649543442733112e+01 2.0415495952443653e+01 6.9399599223832920e-01 
1135 1136 2 1.0280000000000000e+00 -5.9520369309444686e+02 1.0000000000000000e+00 2.2837837757243530e+01 2.7664171855343579e+01 8.2041870258223748e-01 
2060 2061 2 1.0280000000000000e+00 2.1039138666158865e+03 1.0000000000000000e+00 2.3594831271357723e+01 2.7020423562747489e+01 1.3860351563982531e+00 
3482 3483 2 1.0280000000000000e+00 -1.2476905481428435e+00 1.0000000000000000e+00 3.2121236163273501e+01 2.0455044042438175e+01 1.7348201577080460e+00 
1386 1387 2 1.0279999999999996e+00 6.9995779722704538e+02 1.0000000000000000e+00 1.2307551799476565e+01 3.0529130899875987e+01 2.6081572079034316e+00 
924 925 2 1.0279999999999996e+00 6.0804843800295549e-01 1.0000000000000000e+00 1.2254497576584908e+01 2.9795140744891864e+01 3.4832667549193963e+00 
704 705 2 1.0280000000000000e+00 2.5157804784925802e+03 1.0000000000000000e+00 1.9312064197475575e+01 2.4153934421017286e+01 6.2609863927601062e+00 
247 248 2 1.0280000000000000e+00 -1.1170483261394938e+02 1.0000000000000000e+00 1.9412908187793366e+01 2.5267537666315768e+01 6.0220484946856976e+00 
3854 3855 2 1.0280000000000000e+00 -6.5498962502782115e+02 1.0000000000000000e+00 4.5885028731755551e+00 3.7827585101488467e+01 6.1180219864488308e+00 
2435 2436 2 1.0280000000000000e+00 -2.8220875253689542e+02 1.0000000000000000e+00 5.2808804351857335e+00 3.8238842667281546e+01 5.3063240477662603e+00 
1515 1516 2 1.0279999999999996e+00 -1.6577130228171237e+02 1.0000000000000000e+00 9.5289795398436237e+00 3.2983732673864864e+01 8.3160644021577674e+00 
1096 1097 2 1.0279999999999996e+00 7.4223195448511524e+02 1.0000000000000000e+00 8.9357573066960772e+00 3.3548375036720671e+01 9.1139612636798510e+00 
2442 2443 2 1.0280000000000002e+00 -1.2380371510261866e+03 1.0000000000000000e+00 1.8851239885062920e+01 3.9866254391672960e+01 9.7567236619015052e+00 
3830 3831 2 1.0279999999999996e+00 -1.5716690922847274e+03 1.0000000000000000e+00 2.1516848740269175e+01 3.5365531042410893e+01 1.0102015523868879e+01 
4293 4294 2 1.0279999999999996e+00 -8.0260173302722706e+02 1.0000000000000000e+00 2.1924908267553874e+01 3.6080716261927698e+01 1.0895344296469261e+01 
2937 2938 2 1.0280000000000000e+00 -1.8260783667699795e+02 1.0000000000000000e+00 9.1678951174197625e+00 2.0693727518737575e+01 1.2445074427209759e+01 
177 178 2 1.0280000000000018e+00 2.0529884913269012e+01 1.0000000000000000e+00 2.6253400439572374e+01 3.2065898151168334e+01 1.1898122615825763e+01 
87 88 2 1.0280000000000018e+00 -6.1168597629364172e+02 1.0000000000000000e+00 2.5593244120744881e+01 3.2994044420435429e+01 1.1998676855002625e+01 
2063 2064 2 1.0280056739471120e+00 -1.8911940601151339e+03 1.0000000000000000e+00 3.3161586531806172e+01 3.3636225805614998e+01 1.2355773099816979e+01 
3133 3134 2 1.0279994676556568e+00 3.7566229712220689e+02 1.0000000000000000e+00 3.2430817173146224e+01 3.7302897106332914e+01 1.3223840776555123e+01 
4516 4517 2 1.0280005266135175e+00 -6.0752170497158022e+02 1.0000000000000000e+00 3.2110707695124162e+01 3.6456584019209053e+01 1.3935818645153029e+01 
1385 1386 2 1.0279999999999996e+00 5.4054569315688298e+02 1.0000000000000000e+00 1.1058987049399496e+01 3.1450573685531872e+01 1.8397304438584129e+01 
2310 2311 2 1.0279999999999996e+00 1.7747193356775358e+02 1.0000000000000000e+00 1.2089459323476355e+01 3.0959149819432600e+01 1.8334039174452421e+01 
3748 3749 2 1.0280000000000011e+00 2.3544602522414556e+02 1.0000000000000000e+00 1.5089010273582163e+01 3.1059440430353103e+01 1.9236243640590420e+01 
260 261 2 1.0280000000000005e+00 2.4430077848118026e+03 1.0000000000000000e+00 5.3789070105002397e+00 3.0403256872766974e+01 2.0270946633264288e+01 
302 303 2 1.0280000000000005e+00 -1.0329517739518797e+03 1.0000000000000000e+00 6.4707555149136642e+00 3.0399521028056576e+01 2.0610396046775648e+01 
3286 3287 2 1.0280000000000011e+00 -6.3936967727388196e+02 1.0000000000000000e+00 1.4853394732679519e+01 3.1655659243340697e+01 2.0183017880514360e+01 
3654 3655 2 1.0279999999999994e+00 -3.5003146468688101e+02 1.0000000000000000e+00 2.3831042347962001e+01 3.7283080374169089e+01 2.0708734508708297e+01 
3613 3614 2 1.0279999999999994e+00 -3.4601679733949629e+02 1.0000000000000000e+00 2.4708127425202878e+01 3.7769102609183307e+01 2.0159301007898698e+01 
2688 2689 2 1.0280000000000005e+00 -5.0395872855093762e+02 1.0000000000000000e+00 2.1172674681814080e+01 3.0418671305627559e+01 2.1718853570459455e+01 
2603 2604 2 1.0280000000000005e+00 -6.1617398245112092e+01 1.0000000000000000e+00 2.2303659323692042e+01 3.0250904077013793e+01 2.1728899181350446e+01 
1551 1552 2 1.0280000000000016e+00 -1.8406837219167505e+02 1.0000000000000000e+00 2.8875208497592823e+01 3.3266603245089136e+01 2.1996231888302294e+01 
1133 1134 2 1.0280000000000016e+00 8.2220023672836510e+02 1.0000000000000000e+00 2.9678571370731646e+01 3.3903446730423944e+01 2.2502602786663843e+01 
3530 3531 2 1.0279999999999994e+00 3.0149043912112269e+01 1.0000000000000000e+00 3.0494763518333770e+01 2.3333558780027523e+01 2.4334468951963817e+01 
3362 3363 2 1.0279999999999994e+00 3.4897766701780704e+01 1.0000000000000000e+00 3.1531797024517545e+01 2.3561513313712108e+01 2.3910238760813336e+01 
120 121 2 1.0280000000000002e+00 -2.1002012177135348e+03 1.0000000000000000e+00 1.0786133265322173e+00 2.0198243976638359e+01 2.5220848336643964e+01 
1 2 2 1.0280000000000002e+00 -9.9021145803191428e+02 1.0000000000000000e+00 1.1536873161450267e+00 2.9607039607408254e+01 2.7191278541109149e+01 
1978 1979 2 1.0280000000000002e+00 -1.3024520195041196e+03 1.0000000000000000e+00 1.7199823772241660e+00 2.9176853781064665e+01 2.8086612599474627e+01 
3110 3111 2 1.0280000000000007e+00 3.2236895631044518e+02 1.0000000000000000e+00 2.2478999398399861e+01 2.2842949193710950e+01 2.9115562571781389e+01 
3153 3154 2 1.0280000000000007e+00 7.3037189308019350e+01 1.0000000000000000e+00 2.1648103398975852e+01 2.3543408797190811e+01 2.8760117499382357e+01 
1553 1554 2 1.0280000000000127e+00 -6.9696192882916512e+02 1.0000000000000000e+00 3.1347701691845181e+01 3.2049732036038066e+01 3.1957315254877621e+01 
541 542 2 1.0280000000000127e+00 -5.0467382081295881e+02 1.0000000000000000e+00 3.2043619653938677e+01 3.2953335004266783e+01 3.2038388575412625e+01 
1845 1846 2 1.0279999999999996e+00 -7.0293722096160491e+02 1.0000000000000000e+00 1.3681108828289732e+01 3.6583858489276693e+01 3.3224169123372455e+01 
1382 1383 2 1.0279999999999996e+00 -2.5934673849032706e+01 1.0000000000000000e+00 1.2627747378375021e+01 3.7020295173342156e+01 3.3309759392061508e+01 
3236 3237 2 1.0279999999999978e+00 5.3574096013860344e+02 1.0000000000000000e+00 2.8335819957057424e+01 3.3006950823414549e+01 3.5089377031602375e+01 
2311 2312 2 1.0279999999999978e+00 1.7117455138954520e+02 1.0000000000000000e+00 2.9322476293152835e+01 3.3043192770135860e+01 3.5666064826860243e+01 
2982 2983 2 1.0280000000000011e+00 -8.7909974725835605e+02 1.0000000000000000e+00 2.8023553099184792e+01 3.4034637913175700e+01 3.8112944489566885e+01 
2520 2521 2 1.0280000000000011e+00 -6.0011025492626072e+02 1.0000000000000000e+00 2.9111545419568106e+01 3.4230759588288599e+01 3.8404804073607870e+01 
594 595 2 1.0280000019364721e+00 -5.0229839728436247e+02 1.0000000000000000e+00 4.2606182469513577e+01 7.9312434294739875e-01 4.9216152831506382e-01 
1523 1524 2 1.0279999998111473e+00 -1.7198518570901927e+03 1.0000000000000000e+00 4.3413642956497938e+01 1.0608996384090794e+00 1.6145575205783020e+00 
2010 2011 2 1.0280000016675677e+00 2.2127811837734184e+03 1.0000000000000000e+00 4.6509207766759580e+01 8.9631772958483946e-01 2.8064241004975159e-02 
1544 1545 2 1.0279999991472768e+00 -1.7153315721642930e+03 1.0000000000000000e+00 4.7449002444679543e+01 6.2587070429200842e-01 1.2047662568912236e+00 
540 541 2 1.0279999996727152e+00 -2.4916081919594311e+02 1.0000000000000000e+00 4.9285565604633049e+01 8.1264362002168661e-02 6.8320996227571928e-01 
84 85 2 1.0279999965906998e+00 -3.2290754895164628e+02 1.0000000000000000e+00 5.1570828961218361e+01 1.5048758308105623e+00 1.2127002413828876e+00 
126 127 2 1.0280000038911787e+00 -1.1033968760348812e+03 1.0000000000000000e+00 5.1185475003997787e+01 8.7811612919192306e-01 3.1408641581457958e-01 
187 188 2 1.0280000011151862e+00 5.7424374655915449e+02 1.0000000000000000e+00 4.4956436731956941e+01 2.7990088835012514e+00 1.5583322398241144e+00 
53 54 2 1.0279999984255659e+00 -2.7021400121798501e+02 1.0000000000000000e+00 4.3730613194457071e+01 3.1173810416043657e+00 8.9793858804527904e-01 
539 540 2 1.0279999986132318e+00 4.2654363781862361e+02 1.0000000000000000e+00 4.8023942844838416e+01 3.0212484964669879e+00 2.4226913107058423e-01 
621 622 2 1.0280000015326007e+00 -1.0239363296492786e+03 1.0000000000000000e+00 4.8959010791888126e+01 2.6321481352534102e+00 1.6316243627434748e+00 
3940 3941 2 1.0280000001361480e+00 -1.9889250302048627e+03 1.0000000000000000e+00 5.0098162085597096e+01 2.8182545350899781e+00 5.1130751084040471e-01 
3568 3569 2 1.0279999993808984e+00 -6.9686339048265111e+00 1.0000000000000000e+00 4.0109536192877258e+01 3.8399213515195516e+00 1.3635524233188405e+00 
636 637 2 1.0280000012675854e+00 1.6668208296425742e+03 1.0000000000000000e+00 4.1948366284856192e+01 3.4227024983538836e+00 1.0590392778112649e+00 
978 979 2 1.0280000001821981e+00 7.6459124131167435e+00 1.0000000000000000e+00 4.4685632894810752e+01 4.8301701452051811e+00 1.3117890563049082e+00 
4229 4230 2 1.0280000004126362e+00 -1.1098958797179507e+02 1.0000000000000000e+00 4.6322780907223311e+01 3.8787548650656896e+00 1.4043620765605573e+00 
159 160 2 1.0279999992125000e+00 2.3603583451270237e+02 1.0000000000000000e+00 4.8628503314984314e+01 4.4502229186235329e+00 8.4404887163959652e-01 
706 707 2 1.0280000010353081e+00 -1.9796001335051778e+03 1.0000000000000000e+00 5.0297166796835306e+01 4.1380319760815549e+00 6.8716873654340416e-01 
1348 1349 2 1.0280000000470875e+00 -7.1876163203612759e+02 1.0000000000000000e+00 5.2987700044908763e+01 3.5014347747293115e+00 1.3040549011252980e+00 
3652 3653 2 1.0280000006570384e+00 -1.0018094787125725e+02 1.0000000000000000e+00 3.9932203351971076e+01 5.0744602664214868e+00 1.2220476635616753e+00 
974 975 2 1.0280000004829772e+00 4.2614817857266576e+02 1.0000000000000000e+00 4.3901682954182156e+01 6.3940556922775302e+00 1.0572664910365053e+00 
4260 4261 2 1.0280000001483478e+00 -1.2697966527837980e+03 1.0000000000000000e+00 4.6273844485904505e+01 5.9764522183674380e+00 8.7407730184281218e-01 
3142 3143 2 1.0280000011525119e+00 -5.8731406391611654e+02 1.0000000000000000e+00 4.9607589715415656e+01 6.0633552988836206e+00 9.0044855486512143e-01 
2140 2141 2 1.0279999994376232e+00 3.6613176599561200e+02 1.0000000000000000e+00 5.2204890981631621e+01 6.3679381017175558e+00 1.0409289303803329e+00 
555 556 2 1.0280000000366192e+00 -2.5529581451839903e+02 1.0000000000000000e+00 4.2945905338674109e+01 6.9742644727249425e+00 3.5042719959373991e-01 
1066 1067 2 1.0279999999476748e+00 3.5552163926298897e+02 1.0000000000000000e+00 4.6054270197837454e+01 7.3612245487691546e+00 3.7518104742315339e-01 
756 757 2 1.0280000007418564e+00 3.3875650731401555e+02 1.0000000000000000e+00 5.2648011353267258e+01 7.4542837426971804e+00 8.9000329429971403e-01 
4334 4335 2 1.0280000000141698e+00 2.4433079645647977e+03 1.0000000000000000e+00 4.2897165345117784e+01 9.1790016676425150e+00 1.1340638665552401e+00 
1063 1064 2 1.0279999994609137e+00 -5.4155613132798976e+02 1.0000000000000000e+00 4.4997067890344979e+01 8.5017827319878112e+00 7.0198550585576847e-01 
578 579 2 1.0280000006782146e+00 4.9281655014016314e+02 1.0000000000000000e+00 4.8727813079666014e+01 9.5899433136544374e+00 1.5354636079325676e+00 
1542 1543 2 1.0280000014022812e+00 -3.2863553777247182e+02 1.0000000000000000e+00 4.8840592255510650e+01 8.8974101445962255e+00 8.6012154046048797e-02 
115 116 2 1.0280000008589967e+00 -1.0997868238387518e+03 1.0000000000000000e+00 5.0547963044549107e+01 9.9686229076890776e+00 1.2769838536313456e+00 
4292 4293 2 1.0280000002830703e+00 -1.0275494771484214e+03 1.0000000000000000e+00 4.3419444183990301e+01 1.0336923493845049e+01 1.3139336476012329e+00 
352 353 2 1.0280000003657079e+00 -5.9927506243775360e+02 1.0000000000000000e+00 4.5452559423199865e+01 1.0143416900814897e+01 3.9881461222970177e-01 
3761 3762 2 1.0279999998529030e+00 6.0338381851123859e+02 1.0000000000000000e+00 4.7141029173617461e+01 1.0425394816611805e+01 9.5724626250624612e-01 
996 997 2 1.0280000001436547e+00 -4.5236768143599011e+02 1.0000000000000000e+00 5.0308984154443955e+01 1.1563560067020415e+01 1.2776551505148299e+00 
1967 1968 2 1.0279999995969034e+00 -1.1411916815056861e+03 1.0000000000000000e+00 5.1406360262271086e+01 1.0554094286049070e+01 2.2856123494870237e-01 
1862 1863 2 1.0279999994145881e+00 -2.1355762829036195e+02 1.0000000000000000e+00 4.4969723924086701e+01 1.2351409595476705e+01 1.0548182741928007e+00 
1807 1808 2 1.0280000005232168e+00 -3.6808387667984334e+02 1.0000000000000000e+00 4.3495819480147048e+01 1.2064278721242793e+01 1.3811939006583779e-01 
1530 1531 2 1.0280000003160035e+00 -2.5460629999077009e+03 1.0000000000000000e+00 4.6222545515989246e+01 1.1836335998670521e+01 1.6233909309662835e+00 
1528 1529 2 1.0280000003021668e+00 -2.4676208654080019e+03 1.0000000000000000e+00 4.7509191045642709e+01 1.2241829598469607e+01 6.4916791746061497e-01 
1079 1080 2 1.0280000001132021e+00 1.6781642869631037e+02 1.0000000000000000e+00 4.8833278340016754e+01 1.3003790214080487e+01 1.3637139584977969e+00 
1880 1881 2 1.0280000002368666e+00 -2.5072124654765241e+02 1.0000000000000000e+00 5.1703078616872901e+01 1.2519342111299332e+01 3.6303893200089959e-01 
623 624 2 1.0279999999357745e+00 -1.5731185950295444e+03 1.0000000000000000e+00 5.4093133691720112e+01 1.2434205441557587e+01 1.1927544135020198e+00 
1044 1045 2 1.0280000006520948e+00 -5.3938032679400726e+02 1.0000000000000000e+00 5.5203161960185923e+01 1.3160575700906675e+01 2.1699465549674235e-01 
4083 4084 2 1.0280000012166923e+00 -3.0388833112726388e+02 1.0000000000000000e+00 4.3922521730450718e+01 1.3528790640927529e+01 1.3041473006703965e+00 
1693 1694 2 1.0280000004790191e+00 -4.2857091908133356e+02 1.0000000000000000e+00 4.5913157212450507e+01 1.4176137353237444e+01 5.3434695893005435e-01 
983 984 2 1.0280000006210936e+00 -2.3811998445833035e+02 1.0000000000000000e+00 4.7473480898645342e+01 1.3928700230732387e+01 9.4412085141773794e-01 
527 528 2 1.0280000003490570e+00 6.2032148084993401e+02 1.0000000000000000e+00 4.9441763204133196e+01 1.4779381318304409e+01 6.0220244401251166e-01 
994 995 2 1.0280000006300418e+00 -9.4871557999949800e+02 1.0000000000000000e+00 5.0350869127262008e+01 1.3587205431561722e+01 6.8772935755730202e-01 
957 958 2 1.0280000002173104e+00 3.1460193191822009e+02 1.0000000000000000e+00 5.3231881698203665e+01 1.3736449651435807e+01 1.0007179230177981e+00 
1420 1421 2 1.0280000002515501e+00 -6.1606456319539075e+02 1.0000000000000000e+00 5.1992744451710948e+01 1.4327876038018347e+01 1.7880870305557042e-02 
1888 1889 2 1.0280000008127848e+00 -7.9719192264539129e+02 1.0000000000000000e+00 5.4035692298990661e+01 1.4968803103765410e+01 1.4411212494107489e-01 
493 494 2 1.0279999986571087e+00 1.6317242399731930e+02 1.0000000000000000e+00 5.5296235501217062e+01 1.4632569380378051e+01 9.3755595954174442e-01 
1632 1633 2 1.0279999997976232e+00 7.5023682852039701e+02 1.0000000000000000e+00 5.7506954831683998e+01 1.3723298142610062e+01 9.9387259562708008e-01 
3944 3945 2 1.0280000000000000e+00 3.9390357098629545e+02 1.0000000000000000e+00 6.3725926942185680e+01 1.3503427552478236e+01 8.8763429254752158e-01 
710 711 2 1.0280000000000000e+00 3.9814890097582287e+02 1.0000000000000000e+00 6.3741760579380440e+01 1.4236101999279628e+01 9.9609658500534621e-03 
1313 1314 2 1.0280000006612930e+00 2.1883158036104220e+02 1.0000000000000000e+00 4.4744934158504009e+01 1.5154507265253804e+01 1.0872446573556058e+00 
269 270 2 1.0280000000229204e+00 1.0853106254988825e+03 1.0000000000000000e+00 4.3686183281934007e+01 1.6019779166898601e+01 3.6831451574691060e-02 
936 937 2 1.0279999996001041e+00 -5.9670409470822356e+01 1.0000000000000000e+00 4.6669463425941331e+01 1.5956250061509641e+01 7.2155486904465249e-01 
569 570 2 1.0280000026874607e+00 -1.3794837682771017e+00 1.0000000000000000e+00 5.0836545195346694e+01 1.5652828837082600e+01 7.3066729701516689e-02 
1076 1077 2 1.0280000005425647e+00 -2.6618083065546841e+02 1.0000000000000000e+00 5.3181060355040110e+01 1.6000414834784660e+01 1.5094929034987936e+00 
1127 1128 2 1.0280000012702599e+00 1.8011821457966435e+03 1.0000000000000000e+00 5.6782895491593109e+01 1.5246996192834752e+01 5.6443044261154851e-01 
1046 1047 2 1.0279999998888001e+00 5.0577595474306156e+02 1.0000000000000000e+00 6.0854742941453495e+01 1.6524849446337637e+01 1.0386615798569454e+00 
3404 3405 2 1.0280000000000000e+00 8.2350617912068833e+02 1.0000000000000000e+00 3.3842454555851539e+01 1.6947633284260910e+01 7.3823777119939238e-01 
2902 2903 2 1.0280000000000000e+00 -1.8633904109139073e+02 1.0000000000000000e+00 3.4843469904295837e+01 1.7393581083851739e+01 1.0645380158787048e+00 
730 731 2 1.0280000003361867e+00 1.7552753432952118e+03 1.0000000000000000e+00 4.4550516221703177e+01 1.7643103835095165e+01 4.1679340081299004e-02 
566 567 2 1.0280000002716290e+00 1.0250632809324554e+02 1.0000000000000000e+00 4.7764800949868857e+01 1.6795142624657739e+01 1.1241815923953249e+00 
1447 1448 2 1.0280000001563732e+00 9.5453398351111355e+02 1.0000000000000000e+00 5.1116469858239967e+01 1.7066763641011406e+01 4.2073139936988591e-01 
1870 1871 2 1.0280000013234192e+00 -6.5049910151475933e+02 1.0000000000000000e+00 5.2619192905331232e+01 1.7535051285973882e+01 1.5918665053636436e+00 
918 919 2 1.0279999959998658e+00 1.0603783875640701e+01 1.0000000000000000e+00 5.5220394881666437e+01 1.7040796865370837e+01 4.6848816755418921e-01 
1926 1927 2 1.0280000008501111e+00 -1.0373693984952619e+02 1.0000000000000000e+00 5.6755451869933637e+01 1.7334412118314290e+01 8.7627137187755710e-01 
1047 1048 2 1.0279999970953724e+00 1.0612103996477163e+03 1.0000000000000000e+00 5.9628202563047914e+01 1.6725498028063587e+01 4.9136378123031488e-01 
3356 3357 2 1.0280000029176932e+00 5.0594736976043032e+02 1.0000000000000000e+00 6.1004896179790130e+01 1.7976643819739412e+01 1.6104197571092080e+00 
938 939 2 1.0279999987376880e+00 1.7114226162620376e+01 1.0000000000000000e+00 4.6738846356815579e+01 1.8683424805153795e+01 1.6470570950000150e+00 
1783 1784 2 1.0279999986947510e+00 9.3440630659659928e+02 1.0000000000000000e+00 4.9708981392762738e+01 1.8571337249727840e+01 7.2258209793199568e-01 
1326 1327 2 1.0280000027571146e+00 -5.3585469364256733e+02 1.0000000000000000e+00 5.1242877266264514e+01 1.8506688267788384e+01 1.2748884229070496e+00 
4176 4177 2 1.0280000018366053e+00 7.5870926294456535e+02 1.0000000000000000e+00 5.2830245825724255e+01 1.9784738579847804e+01 2.6432153198997593e-01 