LAMMPS data file via write_data, version 30 Jul 2016, timestep = 100400000

644 atoms
2 atom types

0.0000000000000000e+00 2.0000000000000000e+01 xlo xhi
0.0000000000000000e+00 2.0000000000000000e+01 ylo yhi
0.0000000000000000e+00 2.0000000000000000e+01 zlo zhi

Masses

1 4.31
2 3.896

Atoms # meso-molecular

566 0 1 2.9999920675105396e+00 -2.7891015522161734e+02 1.0000000000000000e+00 4.5839127496281247e+00 6.6140729484404810e+00 6.3015052362420114e+00 
264 0 1 3.0000134123073252e+00 -1.6306065453930989e+02 1.0000000000000000e+00 4.5580474589940314e+00 6.6446092196765347e+00 6.3196493454172753e+00 
258 0 1 3.0000710686334435e+00 -1.8022059445023319e+02 1.0000000000000000e+00 6.3840606495192072e+00 6.2665851935609123e+00 6.5322687246863183e+00 
135 0 1 2.9999980478922224e+00 -1.6131704125668182e+02 1.0000000000000000e+00 4.5405182123292143e+00 6.6871592618139184e+00 6.3193725320630927e+00 
637 0 1 3.0000247753389857e+00 -3.6909607777759931e+02 1.0000000000000000e+00 4.5793931987095906e+00 6.8961148058549187e+00 6.1618430160507147e+00 
354 0 1 2.9999779974829472e+00 -1.5618017738060772e+02 1.0000000000000000e+00 5.6163838840089504e+00 7.0664462277499940e+00 5.5200122627069588e+00 
102 0 1 3.0000149760852270e+00 -1.6496367685151674e+02 1.0000000000000000e+00 5.3447337804050070e+00 6.9940403323523457e+00 5.5917735101232573e+00 
247 0 1 3.0000349183155679e+00 -2.1629021011024284e+02 1.0000000000000000e+00 5.5662003473325345e+00 7.0578052779004983e+00 5.5289461490045220e+00 
620 0 1 2.9999948543773973e+00 -2.4643933180786141e+02 1.0000000000000000e+00 5.6026767736343821e+00 7.0287701671961900e+00 5.5343494215772013e+00 
278 0 1 2.9999933728951200e+00 -1.6337399901457243e+02 1.0000000000000000e+00 5.1317716378278080e+00 6.8980422873496590e+00 5.6957372527783123e+00 
633 0 1 3.0000156639242777e+00 -2.3386662679379978e+02 1.0000000000000000e+00 5.6306384888242365e+00 6.9465652530019728e+00 5.5631134389829500e+00 
212 0 1 3.0000092538588197e+00 -1.3815989189750701e+02 1.0000000000000000e+00 5.2367245447275748e+00 6.9108407821480347e+00 5.6518293543008316e+00 
499 0 1 3.0000030241092990e+00 -2.0330595743728415e+02 1.0000000000000000e+00 4.5324494686212393e+00 6.8077649252964587e+00 6.2683931326189750e+00 
366 0 1 3.0000125075118831e+00 -1.8419278588501280e+02 1.0000000000000000e+00 5.6549308459563727e+00 6.9519766689628417e+00 5.5591719936830462e+00 
168 0 1 2.9999904354023470e+00 -3.7438589034965793e+02 1.0000000000000000e+00 5.3398803857157988e+00 9.8387382322683603e+00 4.9236544202303163e+00 
489 0 1 3.0001094729523583e+00 -3.1036409661218113e+02 1.0000000000000000e+00 4.8162546104241386e+00 9.2130436701321745e+00 5.2990478569800743e+00 
428 0 1 3.0000415595034751e+00 -1.8596291823776502e+02 1.0000000000000000e+00 5.3361740375671944e+00 9.8344578589652372e+00 4.9246507480841855e+00 
496 0 1 3.0000121652476435e+00 -2.2230273347419785e+02 1.0000000000000000e+00 4.5159301386673647e+00 6.8034280283100577e+00 6.2992255931191004e+00 
590 0 1 3.0001196647081483e+00 -2.3305072016025312e+02 1.0000000000000000e+00 5.0995513273267088e+00 9.3051145596747773e+00 5.0852730892744322e+00 
363 0 1 2.9999725020229411e+00 -1.8456274718482223e+02 1.0000000000000000e+00 4.1597379439892066e+00 9.7345153534183471e+00 5.8416039185110256e+00 
362 0 1 2.9999759933468022e+00 -1.4289640550335551e+02 1.0000000000000000e+00 4.2119756495778180e+00 9.7064419727541953e+00 5.7384726542683628e+00 
318 0 1 2.9999526653219899e+00 -2.1312984758146646e+02 1.0000000000000000e+00 4.2387349793747928e+00 9.7576002743340027e+00 5.6411307474118288e+00 
617 0 1 2.9999506875231132e+00 -2.7101977137576563e+02 1.0000000000000000e+00 4.2805366965418985e+00 9.5386483883680810e+00 5.8003672806277402e+00 
572 0 1 3.0000070780609525e+00 -3.1116051306928512e+02 1.0000000000000000e+00 4.2197495198127575e+00 9.8239291463960647e+00 5.6350092650401153e+00 
260 0 1 3.0000281122735486e+00 -2.6768771017579945e+02 1.0000000000000000e+00 5.1435771035407436e+00 8.9024472956043361e+00 5.2670087384249822e+00 
412 0 1 3.0000199708514566e+00 -2.1301439466790143e+02 1.0000000000000000e+00 4.2092331079263419e+00 9.9424928996854405e+00 5.6068275441582562e+00 
4 0 1 3.0000290197064663e+00 -3.4949418434598084e+02 1.0000000000000000e+00 4.4533480183232577e+00 9.7895062860806341e+00 5.3574886854797796e+00 
81 0 1 3.0000613925963107e+00 -3.2764466273014898e+02 1.0000000000000000e+00 5.4361513169172531e+00 8.7768976121997184e+00 5.7636942056897631e+00 
480 0 1 3.0000626853843957e+00 -2.0384472948653698e+02 1.0000000000000000e+00 4.7398095294588565e+00 9.7547047178252591e+00 5.1555317300495442e+00 
96 0 1 2.9999610339035425e+00 -1.8259053976031760e+02 1.0000000000000000e+00 5.5845227705267586e+00 7.3521175331575908e+00 5.4518529314419100e+00 
246 0 1 3.0000143595196804e+00 -3.0469782477227335e+02 1.0000000000000000e+00 4.7275215569573321e+00 6.2189323807442083e+00 6.6744669850998468e+00 
407 0 1 3.0000076853570183e+00 -3.0833006488878846e+02 1.0000000000000000e+00 4.9495889608307335e+00 6.1031470374744643e+00 6.7158010116206883e+00 
410 0 1 2.9999936699967993e+00 -2.0651152654549179e+02 1.0000000000000000e+00 5.3551566014093916e+00 6.1295327676117886e+00 7.6374952035441188e+00 
178 0 1 2.9999887564693668e+00 -1.6448458120773202e+02 1.0000000000000000e+00 4.7373038804998906e+00 6.3995719401880145e+00 7.9842714926185518e+00 
357 0 1 2.9999946769320647e+00 -1.9252813966811399e+02 1.0000000000000000e+00 5.3766549145630487e+00 6.1259104679104430e+00 7.6237178959883236e+00 
311 0 1 2.9999835963246859e+00 -1.5941114327111279e+02 1.0000000000000000e+00 4.9646479938156292e+00 6.2585054867260803e+00 7.8786377441855020e+00 
103 0 1 2.9999943860829519e+00 -1.6796586029259649e+02 1.0000000000000000e+00 5.5256367516439173e+00 6.1550596834541018e+00 7.6717542131138190e+00 
604 0 1 2.9999751561193198e+00 -2.2638199071817877e+02 1.0000000000000000e+00 4.4790514785045863e+00 6.6872080700945080e+00 8.0561395278430066e+00 
300 0 1 2.9999769846359214e+00 -1.8436973888231589e+02 1.0000000000000000e+00 4.4657127748968675e+00 6.6841121456315200e+00 8.0284459117423754e+00 
63 0 1 2.9999539425169379e+00 -2.7345793301275080e+02 1.0000000000000000e+00 4.4583892768685205e+00 6.6938423430239204e+00 8.0258649768048773e+00 
437 0 1 3.0000824658942822e+00 -1.2906822070147325e+02 1.0000000000000000e+00 5.0526800316239058e+00 8.2919753785442900e+00 9.0318100999964273e+00 
9 0 1 2.9998806574893715e+00 -2.5218147620709303e+02 1.0000000000000000e+00 6.3914909845930179e+00 6.8476804399803086e+00 8.4813274540893815e+00 
117 0 1 3.0000235110683100e+00 -1.6778542928365962e+02 1.0000000000000000e+00 5.0275515013451981e+00 8.2537416669804635e+00 9.0130315521896041e+00 
184 0 1 3.0000504456515209e+00 -1.3767236834540324e+02 1.0000000000000000e+00 5.0708567568080101e+00 8.3222906779816981e+00 9.0447783561432047e+00 
582 0 1 2.9999750128187621e+00 -3.6155778927508635e+02 1.0000000000000000e+00 4.4475507718903904e+00 6.6870254459352214e+00 7.9966425588305867e+00 
21 0 1 3.0000728352122952e+00 -2.6868668346951739e+02 1.0000000000000000e+00 5.0127108050402951e+00 8.2131521758805999e+00 9.0047001312598685e+00 
423 0 1 2.9999745595740204e+00 -1.5206678182647599e+02 1.0000000000000000e+00 4.8756430879278865e+00 7.7791739798219446e+00 8.9147240094142415e+00 
465 0 1 2.9999772713526327e+00 -1.5352369469651174e+02 1.0000000000000000e+00 4.4465104286431156e+00 6.6874707013686363e+00 7.9950597255964189e+00 
347 0 1 2.9999588529217887e+00 -1.4613092831566303e+02 1.0000000000000000e+00 6.5880210656839751e+00 9.8868540406370649e+00 9.5280761222524681e+00 
429 0 1 3.0000666928229123e+00 -1.3944165581456548e+02 1.0000000000000000e+00 5.0244028861032310e+00 8.2382076562546480e+00 9.0124198541862839e+00 
430 0 1 3.0002907403403438e+00 -1.3413495867335203e+02 1.0000000000000000e+00 6.2244138476582025e+00 9.1948360857746447e+00 9.5264621863240251e+00 
302 0 1 2.9999729821037149e+00 -2.8131131363478767e+02 1.0000000000000000e+00 5.6722353829022278e+00 9.1590100364277269e+00 9.3439135774407731e+00 
57 0 1 2.9999856606642403e+00 -3.5475551564715101e+02 1.0000000000000000e+00 4.4503773653683760e+00 6.6894178886297153e+00 8.0050840843905409e+00 
224 0 1 2.9999944832543557e+00 -1.8633912739575612e+02 1.0000000000000000e+00 4.8992321638604324e+00 7.7965411503231410e+00 8.9364140919664710e+00 
364 0 1 3.0000771093456979e+00 -2.9001381419843216e+02 1.0000000000000000e+00 5.0227114657269611e+00 8.2381040583083660e+00 9.0106827663708664e+00 
562 0 1 2.9999483554317830e+00 -2.7127300934330424e+02 1.0000000000000000e+00 4.5946949733146996e+00 7.0759555382880244e+00 8.5002432172291353e+00 
567 0 1 2.9999735850501126e+00 -4.0847844832531422e+02 1.0000000000000000e+00 6.3152575352325595e+00 8.7395923796995607e+00 8.6563426885412351e+00 
309 0 1 3.0000396001938587e+00 -2.0174136454690486e+02 1.0000000000000000e+00 5.0804152430376117e+00 8.3701587545178207e+00 9.0460913336169586e+00 
605 0 1 3.0000407766588828e+00 -2.3191824877932626e+02 1.0000000000000000e+00 4.9534943829361202e+00 8.0254113592790723e+00 8.9725431818834132e+00 
271 0 1 3.0000223689901637e+00 -1.2953277294351150e+02 1.0000000000000000e+00 4.8630246824194323e+00 7.7101683312994247e+00 8.9025781897665563e+00 
290 0 1 3.0002392589484499e+00 -1.5422750143957111e+02 1.0000000000000000e+00 5.1737101494142799e+00 1.1599238160807337e+01 6.1080977203059517e+00 
41 0 1 3.0000063637859822e+00 -2.6113902167998646e+02 1.0000000000000000e+00 4.2456978077584004e+00 1.0564085956636429e+01 5.7149245578317043e+00 
80 0 1 3.0010400692799504e+00 -3.1799688297034152e+02 1.0000000000000000e+00 5.7266935272577166e+00 1.2118141912498311e+01 6.6515131971822301e+00 
358 0 1 2.9999883689624016e+00 -2.1001769258911773e+02 1.0000000000000000e+00 4.3806528827005433e+00 1.0097458970972919e+01 5.4067627711580979e+00 
355 0 1 3.0000327070076258e+00 -1.5390144704786735e+02 1.0000000000000000e+00 4.5663549340166911e+00 1.0282699107101498e+01 5.3109696631599332e+00 
29 0 1 3.0000662761933206e+00 -3.7488778649032753e+02 1.0000000000000000e+00 5.7136339992716323e+00 1.2974886449527308e+01 5.2958076486189727e+00 
272 0 1 3.0000229634859359e+00 -1.6548680056231399e+02 1.0000000000000000e+00 4.2911210365194554e+00 1.0290052969888192e+01 5.5323261756133189e+00 
147 0 1 2.9999793745711663e+00 -1.9296947033891641e+02 1.0000000000000000e+00 4.1921271293184725e+00 1.0591136423112722e+01 5.7974692152681371e+00 
202 0 1 3.0000600555103984e+00 -1.6053363799595584e+02 1.0000000000000000e+00 6.2386647623771490e+00 1.1287832961920026e+01 4.4761770895525972e+00 
315 0 1 2.9994618985350434e+00 -2.7854030624636277e+02 1.0000000000000000e+00 6.1600137169250058e+00 1.1764085835244563e+01 6.1377833006933260e+00 
206 0 1 2.9998629185682604e+00 -1.2200632906375976e+02 1.0000000000000000e+00 6.6379194175211724e+00 1.2041708493678588e+01 6.1012077219930720e+00 
11 0 1 2.9993171090282424e+00 -2.5331147789733166e+02 1.0000000000000000e+00 6.4209943816386508e+00 1.0165820938772828e+01 4.9987672495107525e+00 
110 0 1 3.0000238404787898e+00 -1.5115857398889585e+02 1.0000000000000000e+00 5.9971885550908564e+00 1.3482474595927712e+01 5.3757795867378864e+00 
191 0 1 3.0000247400491546e+00 -1.6501901350733462e+02 1.0000000000000000e+00 6.0108343182679462e+00 1.3498646171940026e+01 5.3467198381670160e+00 
438 0 1 3.0000178080614011e+00 -1.2826667129857742e+02 1.0000000000000000e+00 5.9918751535304846e+00 1.3471543812325898e+01 5.4210174606838537e+00 
259 0 1 3.0000461726120671e+00 -2.6745551023862771e+02 1.0000000000000000e+00 6.0238091690156228e+00 1.3512367880775628e+01 5.3270498869305003e+00 
551 0 1 3.0000491007024199e+00 -1.6531790953823619e+02 1.0000000000000000e+00 6.0055434278911699e+00 1.3443016903109347e+01 5.6165363460451081e+00 
174 0 1 3.0000172095936128e+00 -2.0762478354355389e+02 1.0000000000000000e+00 6.0326689431897176e+00 1.3521134399059639e+01 5.3177410706084007e+00 
138 0 1 2.9999936555125815e+00 -1.6268175029268284e+02 1.0000000000000000e+00 6.3846706861298461e+00 1.3475315511663572e+01 4.4084829256290297e+00 
50 0 1 3.0000367411685120e+00 -2.8718809648156571e+02 1.0000000000000000e+00 6.0387537955812496e+00 1.3527102689312528e+01 5.3078750721701784e+00 
630 0 1 3.0000205344975788e+00 -2.6085595205044172e+02 1.0000000000000000e+00 6.0380545739826141e+00 1.3527462251943613e+01 5.2771234787281251e+00 
451 0 1 3.0000234292831935e+00 -1.3482429999603426e+02 1.0000000000000000e+00 6.1050327434299243e+00 1.3580395397813703e+01 5.1715167975236342e+00 
88 0 1 3.0000105296357691e+00 -2.2422342446292848e+02 1.0000000000000000e+00 6.2753375803193796e+00 1.3685124825964802e+01 5.1666662120813847e+00 
275 0 1 3.0000182517996823e+00 -1.8640362863077593e+02 1.0000000000000000e+00 6.0638505693245817e+00 1.3550125038622326e+01 5.2541579844693036e+00 
23 0 1 3.0000054913366605e+00 -2.1431923576714044e+02 1.0000000000000000e+00 6.2433858350413765e+00 1.3586269031859899e+01 4.7676383567740830e+00 
389 0 1 2.9996902256149918e+00 -1.5020553436660714e+02 1.0000000000000000e+00 6.3179830150186991e+00 1.0973418089022305e+01 8.0620596497698553e+00 
137 0 1 2.9999974122810245e+00 -1.6651457206583584e+02 1.0000000000000000e+00 4.0397164383918129e+00 1.0974958804826857e+01 7.3775281751013617e+00 
413 0 1 2.9999715824077819e+00 -2.5091643796587081e+02 1.0000000000000000e+00 4.0384770057304857e+00 1.0502515388297875e+01 7.6646640584970473e+00 
598 0 1 2.9999726749101749e+00 -2.3494949628234147e+02 1.0000000000000000e+00 4.3430939949573562e+00 1.0542929387888272e+01 8.1589108067203249e+00 
546 0 1 3.0000365483539282e+00 -2.0445598490059035e+02 1.0000000000000000e+00 4.5708984415657854e+00 1.1396693913007446e+01 7.7668656752627117e+00 
408 0 1 2.9999775367278887e+00 -2.2612133254648271e+02 1.0000000000000000e+00 4.3887377930936333e+00 1.0498602578620069e+01 8.2153877405900513e+00 
131 0 1 2.9999461822760143e+00 -1.7084481440383277e+02 1.0000000000000000e+00 5.7644006039482845e+00 1.0002839905912941e+01 9.1989200149042301e+00 
521 0 1 3.0000009832671695e+00 -1.6697654432866011e+02 1.0000000000000000e+00 4.4936384267099942e+00 1.0593164875418815e+01 8.3116150539201179e+00 
338 0 1 3.0000348011591171e+00 -1.7726063305518804e+02 1.0000000000000000e+00 4.4344772948472100e+00 1.1437595231978461e+01 7.3068294586761313e+00 
415 0 1 2.9999864922522943e+00 -1.8651006566380576e+02 1.0000000000000000e+00 3.9050985598226036e+00 1.0571678899462869e+01 7.2552132291269453e+00 
449 0 1 2.9997388748668237e+00 -2.7052086053401183e+02 1.0000000000000000e+00 6.5644504262330461e+00 1.0418638257003835e+01 8.6536899188431189e+00 
106 0 1 3.0000264962664831e+00 -2.1180039139599663e+02 1.0000000000000000e+00 5.2480585357029721e+00 1.1262360513474006e+01 8.4409500435297051e+00 
579 0 1 3.0000425086942628e+00 -2.3877535497067922e+02 1.0000000000000000e+00 5.1713913326698560e+00 1.1060765109689475e+01 8.5517456723435430e+00 
145 0 1 3.0000552273201473e+00 -1.5820761011553557e+02 1.0000000000000000e+00 5.2520209381318690e+00 1.1227002937930896e+01 8.4716119107166552e+00 
256 0 1 2.9999819982358389e+00 -1.5402480951220878e+02 1.0000000000000000e+00 3.9467276970291354e+00 1.0624267070002361e+01 7.4063621746829371e+00 
144 0 1 2.9999907064332056e+00 -1.5950401464595663e+02 1.0000000000000000e+00 3.9433675373217678e+00 1.0580447490922406e+01 7.4043520144252533e+00 
634 0 1 3.0002779155479122e+00 -2.4269646983878073e+02 1.0000000000000000e+00 5.5610319855618204e+00 1.1569661496246896e+01 8.2706502167381366e+00 
293 0 1 2.9999508972916731e+00 -1.5243168367609158e+02 1.0000000000000000e+00 4.2924577706203149e+00 1.0567414753378719e+01 8.0937205862145873e+00 
282 0 1 3.0002873829249030e+00 -1.5812627808943296e+02 1.0000000000000000e+00 5.5824812579858492e+00 1.1639297352940076e+01 8.1858233143357833e+00 
66 0 1 3.0000651368602402e+00 -2.2914681882096247e+02 1.0000000000000000e+00 4.8641719504511496e+00 1.1672066512772522e+01 6.7650663076228561e+00 
60 0 1 2.9987334556874767e+00 -2.2893498458421988e+02 1.0000000000000000e+00 6.1609034321605325e+00 1.1979098584266696e+01 6.9524592202833055e+00 
528 0 1 3.0001575506173173e+00 -1.6361758234026064e+02 1.0000000000000000e+00 6.2436116323373572e+00 1.2385039358980475e+01 7.1686769285542526e+00 
383 0 1 2.9999936382566155e+00 -1.5845458596744623e+02 1.0000000000000000e+00 4.3383826011663187e+00 1.0530797103885295e+01 8.1542796075024508e+00 
512 0 1 2.9999951103055924e+00 -2.9514198394699685e+02 1.0000000000000000e+00 4.0527129677878637e+00 1.0620996637345398e+01 7.6923446710545882e+00 
83 0 1 3.0000090452816823e+00 -3.3015556823251467e+02 1.0000000000000000e+00 4.1093749483882442e+00 1.0510149394691235e+01 7.8119910817163527e+00 
629 0 1 2.9999855874264454e+00 -2.1869516720060108e+02 1.0000000000000000e+00 9.5455019488927331e+00 8.7386885912867047e+00 2.4836283737165026e+00 
46 0 1 2.9999954844058614e+00 -2.4066372941795922e+02 1.0000000000000000e+00 9.5120351776374577e+00 8.8722830046870591e+00 2.5313252122806436e+00 
477 0 1 3.0000063035303137e+00 -3.3075793227877409e+02 1.0000000000000000e+00 9.5045247931741699e+00 8.8171863468181968e+00 2.5261331386932704e+00 
490 0 1 3.0000013213224737e+00 -3.7747677440972535e+02 1.0000000000000000e+00 9.6298517218261566e+00 8.8573222054082184e+00 2.4503048566054635e+00 
133 0 1 2.9999908181543531e+00 -2.1352136379349687e+02 1.0000000000000000e+00 9.5765935034603604e+00 8.7675118299974049e+00 2.4671319764509962e+00 
587 0 1 3.0000012019139644e+00 -2.3597259757595498e+02 1.0000000000000000e+00 9.5063214458456429e+00 8.7465710682288709e+00 2.5129237892116683e+00 
277 0 1 2.9999982076737384e+00 -1.5123882246335592e+02 1.0000000000000000e+00 9.9460456966646866e+00 8.3445790582479376e+00 2.2276455855871187e+00 
459 0 1 3.0000958510312956e+00 -1.3270263599456229e+02 1.0000000000000000e+00 8.8231360358154358e+00 9.3538229753999023e+00 3.2724627739314833e+00 
146 0 1 3.0000011486879115e+00 -1.5970501470926541e+02 1.0000000000000000e+00 1.0009206871984023e+01 8.0371935416618498e+00 2.2167144828175198e+00 
462 0 1 3.0000068875701138e+00 -2.6943802590295093e+02 1.0000000000000000e+00 1.0097000559354786e+01 8.9437945888263641e+00 2.2768156990530213e+00 
142 0 1 2.9999962714050064e+00 -1.8969234255574997e+02 1.0000000000000000e+00 1.0359535660666692e+01 7.1054111631366137e+00 2.5490996695139660e+00 
37 0 1 2.9999982721361032e+00 -2.2420299648109554e+02 1.0000000000000000e+00 1.0284796531435576e+01 6.8790033608431518e+00 2.8422636235428396e+00 
254 0 1 3.0000119736596318e+00 -1.6726432083497832e+02 1.0000000000000000e+00 1.1109783581817604e+01 7.5773301094060468e+00 2.4030820861460773e+00 
469 0 1 3.0000066185565610e+00 -1.7832353170795469e+02 1.0000000000000000e+00 1.1825830216821631e+01 7.8895246324941999e+00 3.0387925175225021e+00 
615 0 1 3.0000090428285833e+00 -2.3132490128697165e+02 1.0000000000000000e+00 1.0868742321189393e+01 7.3943883641417649e+00 2.3932500139398498e+00 
162 0 1 3.0000125197281697e+00 -4.0445848144862879e+02 1.0000000000000000e+00 1.1872261642827814e+01 7.9312507464627355e+00 3.1099255201357252e+00 
641 0 1 3.0000111204063757e+00 -3.0207168579280193e+02 1.0000000000000000e+00 1.1391896293159999e+01 7.5665565204285468e+00 2.6219184763434478e+00 
65 0 1 3.0000031093377229e+00 -2.3967261790935160e+02 1.0000000000000000e+00 1.1112736678319456e+01 7.5529367751883072e+00 2.4169250390283747e+00 
610 0 1 2.9999961125044248e+00 -3.8326293970076216e+02 1.0000000000000000e+00 1.1897037668245845e+01 8.6982813960902892e+00 3.2850743839947638e+00 
170 0 1 2.9999924465294909e+00 -1.9278359765252478e+02 1.0000000000000000e+00 1.1953722681851975e+01 8.3215615474149924e+00 3.2612562573052064e+00 
346 0 1 2.9999882483805731e+00 -1.4122800174811036e+02 1.0000000000000000e+00 1.1938112465538325e+01 8.4006886801020020e+00 3.2464013987265412e+00 
578 0 1 2.9999917297127721e+00 -2.4254285964836669e+02 1.0000000000000000e+00 1.1889661615672205e+01 8.2937381638621517e+00 3.1213043019074345e+00 
631 0 1 2.9999983599849456e+00 -2.7771399799020838e+02 1.0000000000000000e+00 1.1103520024331752e+01 7.5471375083097083e+00 2.4145920439465947e+00 
291 0 1 3.0000097115999744e+00 -1.6069933525220188e+02 1.0000000000000000e+00 1.1461481281417226e+01 7.5185941583948130e+00 2.7250091842773934e+00 
511 0 1 2.9999947518179741e+00 -2.8480271872809203e+02 1.0000000000000000e+00 1.0727951379214318e+01 6.8693477903473363e+00 2.9117256193909093e+00 
464 0 1 2.9998949555010905e+00 -1.7787915104529330e+02 1.0000000000000000e+00 9.4405274947961093e+00 6.3647553483241062e+00 5.5562162039365202e+00 
618 0 1 2.9998361609935338e+00 -2.2372957660911260e+02 1.0000000000000000e+00 9.4714220040235588e+00 6.3263456262431994e+00 6.2906679801853231e+00 
387 0 1 2.9992359991252369e+00 -1.6524928631756885e+02 1.0000000000000000e+00 8.8075924145905358e+00 6.5544212881625548e+00 5.7196370698225323e+00 
520 0 1 3.0007180123018222e+00 -1.6394392154118361e+02 1.0000000000000000e+00 9.9077201359097167e+00 6.5713940163094007e+00 4.6002099774266370e+00 
509 0 1 3.0003846772445653e+00 -1.6087678110363854e+02 1.0000000000000000e+00 9.1278101683195132e+00 6.3770220561232938e+00 6.5511099935021839e+00 
173 0 1 3.0000073668764924e+00 -1.7976526983875223e+02 1.0000000000000000e+00 1.0038127289958679e+01 5.3921940927393015e+00 6.0424135791651379e+00 
92 0 1 2.9999771194310729e+00 -2.3047310267352307e+02 1.0000000000000000e+00 1.0049137829960728e+01 5.3815495075920188e+00 6.0474217432115269e+00 
550 0 1 2.9999908223895648e+00 -1.6448536761217639e+02 1.0000000000000000e+00 1.1186020450787145e+01 4.9015957394303236e+00 5.4570716215140944e+00 
458 0 1 2.9999968117842819e+00 -1.2780682479678940e+02 1.0000000000000000e+00 1.2569163595118498e+01 5.3227423974953219e+00 5.2507059540555456e+00 
280 0 1 2.9999955077727041e+00 -2.1080194507744906e+02 1.0000000000000000e+00 1.0914455477343518e+01 5.1656355928977025e+00 5.2569596723575778e+00 
396 0 1 2.9999921351983336e+00 -1.6982199238841443e+02 1.0000000000000000e+00 1.1120464768850304e+01 4.8717207112764234e+00 5.5476653683680421e+00 
210 0 1 2.9999971081334511e+00 -1.7697912956500875e+02 1.0000000000000000e+00 1.3107826452025613e+01 6.6179295811582479e+00 5.1697831058243970e+00 
257 0 1 3.0000000070898598e+00 -1.4904809300653423e+02 1.0000000000000000e+00 1.1353518909685981e+01 4.7987315402087907e+00 5.5736500989881819e+00 
332 0 1 3.0000005186221261e+00 -1.7154465838697027e+02 1.0000000000000000e+00 1.2496937293805040e+01 5.1766459231690805e+00 5.3584573901124601e+00 
108 0 1 2.9999653672516713e+00 -1.6895475189909274e+02 1.0000000000000000e+00 1.0311234521587386e+01 5.2001156437639500e+00 5.9299933402035485e+00 
124 0 1 2.9999980851883343e+00 -1.5988737614774175e+02 1.0000000000000000e+00 1.1066779004599731e+01 5.0828608310392456e+00 5.2695726511904741e+00 
71 0 1 3.0000033015647642e+00 -3.7314915365925293e+02 1.0000000000000000e+00 1.3044846911262900e+01 6.3757164018558701e+00 5.1138193575118533e+00 
111 0 1 3.0000032537896248e+00 -1.8363214015582761e+02 1.0000000000000000e+00 1.2918226787404253e+01 5.5173074196622141e+00 5.4974862384227263e+00 
416 0 1 2.9999905738336343e+00 -1.5813552866026157e+02 1.0000000000000000e+00 1.1408419968796300e+01 4.8254818230333889e+00 5.5022952158225538e+00 
596 0 1 2.9999968762078248e+00 -3.8241195537313314e+02 1.0000000000000000e+00 1.1347854895020557e+01 4.6913590663560889e+00 6.0653708716302797e+00 
460 0 1 3.0000000443314954e+00 -1.3348002618815491e+02 1.0000000000000000e+00 1.1365373732634808e+01 4.7104829534595130e+00 6.2797784899822569e+00 
339 0 1 2.9999940358829935e+00 -1.5659274496338418e+02 1.0000000000000000e+00 1.2358009553204891e+01 5.0017848683967809e+00 6.4149543841400369e+00 
310 0 1 3.0000051183783345e+00 -1.6755648860719336e+02 1.0000000000000000e+00 1.3051219669994186e+01 5.9630918734280396e+00 5.2999345883846649e+00 
69 0 1 2.9999993507305582e+00 -2.4171709500620133e+02 1.0000000000000000e+00 1.2531303573114965e+01 5.1362388414311004e+00 5.4597584253518807e+00 
488 0 1 3.0000075060725964e+00 -3.1683623809820728e+02 1.0000000000000000e+00 1.2660437131867294e+01 5.7434821912932659e+00 5.0026813105591907e+00 
329 0 1 2.9999983012391205e+00 -3.8063951970279646e+02 1.0000000000000000e+00 1.0142920562320770e+01 5.3049895193420511e+00 6.0452205039304028e+00 
472 0 1 3.0000038852772164e+00 -1.6013996305042554e+02 1.0000000000000000e+00 1.1404180590146304e+01 4.7569065389738610e+00 6.4635521575116845e+00 
468 0 1 3.0000025126636856e+00 -1.5110572547116928e+02 1.0000000000000000e+00 1.1610875887650074e+01 4.8119482101403088e+00 6.5864745016071318e+00 
559 0 1 3.0002627140653306e+00 -2.0239732639766655e+02 1.0000000000000000e+00 8.4412131117783478e+00 7.0095873003202271e+00 5.6238555905472136e+00 
166 0 1 3.0001875177281430e+00 -2.9846097483318761e+02 1.0000000000000000e+00 8.1152399499886254e+00 6.7186364690120168e+00 6.0078816769865959e+00 
621 0 1 2.9999610088565754e+00 -2.3646739785323066e+02 1.0000000000000000e+00 9.5476759859188132e+00 6.8688727981680007e+00 3.5001952053746401e+00 
368 0 1 2.9997331985168643e+00 -1.5570281017134593e+02 1.0000000000000000e+00 7.5893070229455866e+00 8.9129606818986531e+00 4.5798292141375496e+00 
28 0 1 2.9997084887108394e+00 -3.6182739637330167e+02 1.0000000000000000e+00 6.7541752552040641e+00 7.1157477727929326e+00 5.5683266153601840e+00 
75 0 1 3.0002631068776524e+00 -2.4348181742175746e+02 1.0000000000000000e+00 8.2018555395727795e+00 7.1286855851961759e+00 5.3239618660556447e+00 
266 0 1 2.9999669011641283e+00 -2.0054592751671788e+02 1.0000000000000000e+00 8.7270363225113314e+00 8.0245538549740481e+00 3.5900944479284220e+00 
360 0 1 3.0005752605089597e+00 -1.5834546579022629e+02 1.0000000000000000e+00 8.0326080900857377e+00 8.9059560856420372e+00 4.4791243028822727e+00 
101 0 1 3.0005688551648695e+00 -1.5591008081514266e+02 1.0000000000000000e+00 7.4725338112320614e+00 6.7056239494920318e+00 6.1914578913421847e+00 
299 0 1 2.9999300243808658e+00 -1.4585868561719107e+02 1.0000000000000000e+00 9.7609510046313055e+00 6.6828432190175446e+00 3.7650896776750309e+00 
474 0 1 2.9999352578758565e+00 -1.6564489776025229e+02 1.0000000000000000e+00 9.7575838019201537e+00 6.6859838633460491e+00 3.7564820021154528e+00 
8 0 1 2.9999407342484434e+00 -2.9647922505964698e+02 1.0000000000000000e+00 9.7422475021331376e+00 6.6920199636789137e+00 3.7589845156673989e+00 
306 0 1 2.9999488572828787e+00 -1.3431938032930032e+02 1.0000000000000000e+00 9.7515359134793673e+00 6.6885296843511348e+00 3.7566200834770420e+00 
457 0 1 2.9999652672121715e+00 -1.4084535970271918e+02 1.0000000000000000e+00 9.7824485191671346e+00 6.6774993023499869e+00 3.7479899355896249e+00 
397 0 1 3.0001589869554492e+00 -1.6713946874740259e+02 1.0000000000000000e+00 8.6072187603432901e+00 7.4534542306691129e+00 4.4896656694117576e+00 
361 0 1 2.9990323887271542e+00 -1.5683100935792905e+02 1.0000000000000000e+00 7.8245126373743705e+00 6.9463780606746299e+00 6.0715204655969703e+00 
70 0 1 2.9999539399017046e+00 -3.5892769530534230e+02 1.0000000000000000e+00 9.7618865569768385e+00 6.6904234875817306e+00 3.7263066377862275e+00 
64 0 1 2.9992810355635915e+00 -2.7926968742725347e+02 1.0000000000000000e+00 8.0009208129050915e+00 8.7209176848832755e+00 4.5472652549882451e+00 
535 0 1 2.9999614361552918e+00 -1.6932472583287725e+02 1.0000000000000000e+00 9.7794938227011663e+00 6.6795481801276395e+00 3.7437354543105825e+00 
405 0 1 2.9999498430083587e+00 -2.6892646195956132e+02 1.0000000000000000e+00 9.7849817634987257e+00 6.6761618120590880e+00 3.7494899342385857e+00 
434 0 1 3.0004311943654152e+00 -2.6075229896320070e+02 1.0000000000000000e+00 8.1232084224603494e+00 7.5600556100784013e+00 5.1732492688319764e+00 
16 0 1 2.9999208641111594e+00 -2.5392255685011057e+02 1.0000000000000000e+00 7.3446183243818117e+00 9.6548802322471214e+00 4.5729000631059442e+00 
406 0 1 2.9994823388510499e+00 -3.9995350949938336e+02 1.0000000000000000e+00 7.7451821459303378e+00 8.8135271148548107e+00 4.5264014936782848e+00 
40 0 1 2.9994359083189970e+00 -2.3111147702423256e+02 1.0000000000000000e+00 7.8222668206412242e+00 6.7342788179018092e+00 6.5015541787577913e+00 
418 0 1 3.0001415474679707e+00 -1.6306491720432726e+02 1.0000000000000000e+00 8.2917488690351107e+00 8.6132981769011625e+00 4.0209590422149235e+00 
343 0 1 3.0009235378301287e+00 -1.8937880551554704e+02 1.0000000000000000e+00 6.8566674796764824e+00 9.5949059039098916e+00 4.6258406955105782e+00 
627 0 1 2.9993476353022732e+00 -2.3594292857173969e+02 1.0000000000000000e+00 6.7695263125931913e+00 7.9003858553271948e+00 5.2153530270215693e+00 
15 0 1 3.0006731515808172e+00 -3.6832164963529198e+02 1.0000000000000000e+00 7.3221641279299821e+00 8.8390407474628496e+00 4.8481270767256381e+00 
192 0 1 2.9997446049792451e+00 -1.3446905924672851e+02 1.0000000000000000e+00 7.9963645965717411e+00 8.3728230427142449e+00 4.6416021183149248e+00 
317 0 1 3.0003134581161883e+00 -2.2864808057752060e+02 1.0000000000000000e+00 8.0337827020116848e+00 8.3991964208689485e+00 4.6116160332619422e+00 
229 0 1 2.9999449707244312e+00 -1.4978142769890198e+02 1.0000000000000000e+00 7.2183190321897346e+00 9.6664458513719733e+00 4.5068847666241680e+00 
601 0 1 3.0003223090906754e+00 -2.3572283315858058e+02 1.0000000000000000e+00 7.6116190628731371e+00 6.9306385561972936e+00 5.8632673892289455e+00 
439 0 1 3.0000919247035913e+00 -1.3038379441321317e+02 1.0000000000000000e+00 6.8621421455618217e+00 8.7675522945163813e+00 5.0892479904255090e+00 
324 0 1 3.0000995019709924e+00 -3.1283607131197408e+02 1.0000000000000000e+00 7.3272180780238214e+00 9.7910282515141969e+00 4.5324646579909604e+00 
126 0 1 3.0000112637394420e+00 -2.8491635588700296e+02 1.0000000000000000e+00 1.3118063053693168e+01 6.6702375175717492e+00 5.1848407213299383e+00 
543 0 1 3.0000016863322339e+00 -1.5536653008022543e+02 1.0000000000000000e+00 1.3116981079923397e+01 6.6860076559822650e+00 5.1821321249454355e+00 
350 0 1 2.9999790623373070e+00 -2.8080893827133559e+02 1.0000000000000000e+00 1.1464399442625920e+01 9.8041332485308139e+00 3.3608379933105779e+00 