LAMMPS data file via write_data, version 30 Jul 2016, timestep = 100000000

644 atoms
2 atom types

0.0000000000000000e+00 2.0000000000000000e+01 xlo xhi
0.0000000000000000e+00 2.0000000000000000e+01 ylo yhi
0.0000000000000000e+00 2.0000000000000000e+01 zlo zhi

Masses

1 4.31
2 3.896

Atoms # meso-molecular

566 0 1 3.0000171266594378e+00 -2.7891015944451988e+02 1.0000000000000000e+00 4.5933674972607292e+00 6.6090830439433867e+00 6.3062411283753415e+00 
264 0 1 3.0000142109023540e+00 -1.6306065878574339e+02 1.0000000000000000e+00 4.5671366765391124e+00 6.6387075627132575e+00 6.3237495866928040e+00 
258 0 1 2.9999857401263608e+00 -1.8022058207705220e+02 1.0000000000000000e+00 6.3854694954322149e+00 6.2708541567486433e+00 6.5588244053157077e+00 
135 0 1 3.0000185305614679e+00 -1.6131704560371600e+02 1.0000000000000000e+00 4.5495915718082545e+00 6.6801237782090013e+00 6.3228223803729113e+00 
637 0 1 3.0000214229327842e+00 -3.6909608273722421e+02 1.0000000000000000e+00 4.5938057905046170e+00 6.8926730771946190e+00 6.1569818122555935e+00 
354 0 1 2.9999247186603211e+00 -1.5618014410590612e+02 1.0000000000000000e+00 5.6067427147321789e+00 7.0723041307985124e+00 5.5409762918077625e+00 
102 0 1 2.9999817680482797e+00 -1.6496366428163077e+02 1.0000000000000000e+00 5.3481442754443638e+00 7.0074987693006898e+00 5.6084939066561494e+00 
247 0 1 2.9999500110777899e+00 -2.1629018073185733e+02 1.0000000000000000e+00 5.5585670522489741e+00 7.0652648548965589e+00 5.5493408151143981e+00 
620 0 1 2.9999273618614954e+00 -2.4643930189231187e+02 1.0000000000000000e+00 5.5943687780093914e+00 7.0367894917934475e+00 5.5546009141617816e+00 
278 0 1 2.9999646920338563e+00 -1.6337399923768805e+02 1.0000000000000000e+00 5.1435833227462338e+00 6.9125732978417798e+00 5.7073936793927800e+00 
633 0 1 2.9999966060002250e+00 -2.3386660050184003e+02 1.0000000000000000e+00 5.6229043947361763e+00 6.9577323813530692e+00 5.5821493736584165e+00 
212 0 1 2.9999924841428744e+00 -1.3815988783834518e+02 1.0000000000000000e+00 5.2450868092381526e+00 6.9265890687910554e+00 5.6655807220567516e+00 
499 0 1 3.0000092895479789e+00 -2.0330596211308676e+02 1.0000000000000000e+00 4.5415215783701832e+00 6.7997808802214008e+00 6.2704778377966477e+00 
366 0 1 3.0000155535251216e+00 -1.8419275772549463e+02 1.0000000000000000e+00 5.6461864465613232e+00 6.9624023017603500e+00 5.5785097164177504e+00 
168 0 1 3.0001094979241132e+00 -3.7438584952341733e+02 1.0000000000000000e+00 5.3280132004567760e+00 9.8287030434310481e+00 4.9237368846301592e+00 
489 0 1 2.9999469615608199e+00 -3.1036406820513525e+02 1.0000000000000000e+00 4.8081457839718604e+00 9.1991520081519376e+00 5.3024494052752198e+00 
428 0 1 3.0001156175970980e+00 -1.8596287739339672e+02 1.0000000000000000e+00 5.3229686420562450e+00 9.8263294757288850e+00 4.9250773979036540e+00 
496 0 1 2.9999973387304371e+00 -2.2230273809192261e+02 1.0000000000000000e+00 4.5242398404580291e+00 6.7949013420569235e+00 6.3015055959867281e+00 
590 0 1 2.9998200223511202e+00 -2.3305066883792441e+02 1.0000000000000000e+00 5.1004350750707941e+00 9.2856774040550789e+00 5.0831670895338448e+00 
363 0 1 2.9999741917950153e+00 -1.8456275421342477e+02 1.0000000000000000e+00 4.1621727259183219e+00 9.7280431451668239e+00 5.8409512597069417e+00 
362 0 1 2.9999567708384522e+00 -1.4289641092492448e+02 1.0000000000000000e+00 4.2141560552932082e+00 9.6993668533861754e+00 5.7374464350619050e+00 
318 0 1 2.9999881276370468e+00 -2.1312985243859509e+02 1.0000000000000000e+00 4.2410897371407703e+00 9.7524823690423439e+00 5.6393445079841147e+00 
617 0 1 2.9999322301992906e+00 -2.7101977531932192e+02 1.0000000000000000e+00 4.2821274878795732e+00 9.5271722429278665e+00 5.8013907971301579e+00 
572 0 1 3.0000080818611909e+00 -3.1116051902538425e+02 1.0000000000000000e+00 4.2225668886083669e+00 9.8206666848476836e+00 5.6330682569730444e+00 
260 0 1 2.9999432554943444e+00 -2.6768764898965520e+02 1.0000000000000000e+00 5.1416476885127338e+00 8.8892329728150052e+00 5.2613410261364342e+00 
412 0 1 3.0000423047296216e+00 -2.1301440259695758e+02 1.0000000000000000e+00 4.2132780792138069e+00 9.9415673627711580e+00 5.6053199973744174e+00 
4 0 1 3.0000855287589827e+00 -3.4949418368857363e+02 1.0000000000000000e+00 4.4548313790153067e+00 9.7880809815979539e+00 5.3556149701790536e+00 
81 0 1 3.0000843349418096e+00 -3.2764458417660131e+02 1.0000000000000000e+00 5.4214624020728150e+00 8.7681322399711075e+00 5.7963192940154089e+00 
480 0 1 3.0000507298917105e+00 -2.0384471650135660e+02 1.0000000000000000e+00 4.7520070744685361e+00 9.7572670751297803e+00 5.1465060238034779e+00 
96 0 1 2.9999318477044907e+00 -1.8259048914738361e+02 1.0000000000000000e+00 5.6150611233314081e+00 7.3176742146880329e+00 5.4725859397494032e+00 
246 0 1 3.0000050975029833e+00 -3.0469782589802628e+02 1.0000000000000000e+00 4.7341047381826531e+00 6.2168104128900090e+00 6.6820874956719241e+00 
407 0 1 3.0000108095165916e+00 -3.0833006446390124e+02 1.0000000000000000e+00 4.9533653542553484e+00 6.1038215872224226e+00 6.7274330787291872e+00 
410 0 1 3.0000137437378198e+00 -2.0651151609825286e+02 1.0000000000000000e+00 5.3545668990362350e+00 6.1256908979980151e+00 7.6447362451914804e+00 
178 0 1 2.9999876034915181e+00 -1.6448457594697152e+02 1.0000000000000000e+00 4.7502101487118820e+00 6.3787080467804378e+00 7.9830920701101968e+00 
357 0 1 3.0000147067535394e+00 -1.9252812893297624e+02 1.0000000000000000e+00 5.3747268339099614e+00 6.1225263405133550e+00 7.6322398915440628e+00 
311 0 1 3.0000031915164400e+00 -1.5941113693655311e+02 1.0000000000000000e+00 4.9785146158017426e+00 6.2453810309377253e+00 7.8784523564863429e+00 
103 0 1 3.0000181100041234e+00 -1.6796584758376949e+02 1.0000000000000000e+00 5.5312487449419239e+00 6.1550578737032353e+00 7.6894770005725324e+00 
604 0 1 2.9999876074021543e+00 -2.2638198471296968e+02 1.0000000000000000e+00 4.4741673148084820e+00 6.6725299363833424e+00 8.0603090773180774e+00 
300 0 1 2.9999809862438616e+00 -1.8436973299958842e+02 1.0000000000000000e+00 4.4635780891716657e+00 6.6749362367586320e+00 8.0442810550351940e+00 
63 0 1 2.9999931753564888e+00 -2.7345792707031006e+02 1.0000000000000000e+00 4.4539549275055057e+00 6.6880746757481697e+00 8.0417426521825455e+00 
437 0 1 3.0000019098494271e+00 -1.2906820576922198e+02 1.0000000000000000e+00 5.0420305782138328e+00 8.2668341537517840e+00 9.0066182320747377e+00 
585 0 1 3.0001746924754360e+00 -2.3738716940026453e+02 1.0000000000000000e+00 6.6178618952304564e+00 9.9369127032479234e+00 9.4862499907094620e+00 
117 0 1 2.9999669313156945e+00 -1.6778541461329218e+02 1.0000000000000000e+00 5.0173394986779218e+00 8.2294013205734320e+00 8.9898748618583983e+00 
184 0 1 3.0000096769007190e+00 -1.3767235315826460e+02 1.0000000000000000e+00 5.0597272366793211e+00 8.2971242221936841e+00 9.0177149356540554e+00 
582 0 1 2.9999785608563463e+00 -3.6155778343800677e+02 1.0000000000000000e+00 4.4408133481157934e+00 6.6872387577183963e+00 8.0154433912494998e+00 
21 0 1 2.9999686216464814e+00 -2.6868666902470994e+02 1.0000000000000000e+00 5.0025161746990978e+00 8.1897216321569601e+00 8.9830279319166593e+00 
423 0 1 2.9999784493492578e+00 -1.5206676904110364e+02 1.0000000000000000e+00 4.8633919310173788e+00 7.7704890360365741e+00 8.9027683058501292e+00 
465 0 1 2.9999835856048400e+00 -1.5352368886470620e+02 1.0000000000000000e+00 4.4393831252443317e+00 6.6881192819343065e+00 8.0136136005458436e+00 
347 0 1 2.9997133030043481e+00 -1.4613093872436096e+02 1.0000000000000000e+00 6.4802976795613665e+00 9.8636147732500117e+00 9.4578795224111047e+00 
429 0 1 2.9999095517384307e+00 -1.3944164118384091e+02 1.0000000000000000e+00 5.0141643028415732e+00 8.2140869526875804e+00 8.9898984496712071e+00 
62 0 1 3.0003385538538994e+00 -2.2650878222140568e+02 1.0000000000000000e+00 6.6382068032358150e+00 8.1134561746086185e+00 9.4161071544340853e+00 
302 0 1 2.9999318151190124e+00 -2.8131130654003749e+02 1.0000000000000000e+00 5.7050583998493725e+00 9.1958312587731132e+00 9.3167849773692968e+00 
57 0 1 2.9999836791603025e+00 -3.5475550980766923e+02 1.0000000000000000e+00 4.4451663325920361e+00 6.6866153057250690e+00 8.0232741314320553e+00 
224 0 1 2.9999897054076561e+00 -1.8633911429691813e+02 1.0000000000000000e+00 4.8891272790856464e+00 7.7858180944741031e+00 8.9255802308228525e+00 
364 0 1 2.9999608024285713e+00 -2.9001379962802849e+02 1.0000000000000000e+00 5.0125526853297391e+00 8.2140484616382512e+00 8.9882098096951264e+00 
562 0 1 2.9999618962045367e+00 -2.7127300006474763e+02 1.0000000000000000e+00 4.5840858999348777e+00 7.0743054107030225e+00 8.5065488381215868e+00 
567 0 1 3.0001562807547009e+00 -4.0847843282226705e+02 1.0000000000000000e+00 6.2524650447121912e+00 8.7270119185403257e+00 8.6331106858629951e+00 
309 0 1 3.0000869795500562e+00 -2.0174134930917921e+02 1.0000000000000000e+00 5.0693809476057945e+00 8.3446332035545243e+00 9.0173769258959915e+00 
605 0 1 3.0000027374876037e+00 -2.3191823517432260e+02 1.0000000000000000e+00 4.9389509608171860e+00 8.0091216379838350e+00 8.9517679704695254e+00 
271 0 1 2.9999628290384091e+00 -1.2953276026332725e+02 1.0000000000000000e+00 4.8510501132811070e+00 7.7023126898031160e+00 8.8926191557552254e+00 
430 0 1 3.0002568861539567e+00 -1.3413495497124592e+02 1.0000000000000000e+00 6.3990482594503932e+00 9.1839641050614684e+00 9.5360375724463218e+00 
9 0 1 3.0005823622748591e+00 -2.5218145498878522e+02 1.0000000000000000e+00 6.5825485926592480e+00 6.8798796985598480e+00 8.4629614805111064e+00 
290 0 1 3.0001059285478129e+00 -1.5422760649020222e+02 1.0000000000000000e+00 5.1853287530131524e+00 1.1589446162014729e+01 6.1266414406766909e+00 
41 0 1 2.9999990625001711e+00 -2.6113904817327170e+02 1.0000000000000000e+00 4.2514364756729259e+00 1.0553563046373723e+01 5.7182295454833891e+00 
80 0 1 2.9991650887560426e+00 -3.1799702171368705e+02 1.0000000000000000e+00 5.7172798281489614e+00 1.2101212404903539e+01 6.5641266803144989e+00 
358 0 1 3.0000283739788931e+00 -2.1001770162208189e+02 1.0000000000000000e+00 4.3860955502447023e+00 1.0095548257313313e+01 5.4067801960047541e+00 
355 0 1 3.0000883073662168e+00 -1.5390146070623689e+02 1.0000000000000000e+00 4.5695545975232044e+00 1.0277256723405547e+01 5.3140821677639813e+00 
29 0 1 3.0000021960799166e+00 -3.7488783864246716e+02 1.0000000000000000e+00 5.6968355065584806e+00 1.2938739823152680e+01 5.2994517829087835e+00 
272 0 1 3.0000228508374627e+00 -1.6548681668452218e+02 1.0000000000000000e+00 4.2969812993541625e+00 1.0286164006147542e+01 5.5350075548802282e+00 
147 0 1 3.0000087678275151e+00 -1.9296949806913892e+02 1.0000000000000000e+00 4.2022680518738751e+00 1.0583983028345751e+01 5.7983544508588061e+00 
202 0 1 3.0001271125641815e+00 -1.6053369665611737e+02 1.0000000000000000e+00 6.2555508856508979e+00 1.1273880386608129e+01 4.4721647795275468e+00 
315 0 1 3.0004752785688211e+00 -2.7854047294077685e+02 1.0000000000000000e+00 6.1815097718693020e+00 1.1787938897104796e+01 6.0935164528734624e+00 
206 0 1 2.9999390520171265e+00 -1.2200648224477909e+02 1.0000000000000000e+00 6.6537590353978553e+00 1.2038708350064953e+01 6.0588959483580549e+00 
11 0 1 2.9999451010380387e+00 -2.5331143059615951e+02 1.0000000000000000e+00 6.3486432386981280e+00 1.0123755934829097e+01 5.0566452088223794e+00 
110 0 1 3.0000351550185149e+00 -1.5115860519995451e+02 1.0000000000000000e+00 5.9802193137240005e+00 1.3481380182839688e+01 5.3650832451273187e+00 
191 0 1 3.0000296770612320e+00 -1.6501904381369980e+02 1.0000000000000000e+00 5.9958794185820352e+00 1.3500465968580643e+01 5.3330227095177261e+00 
438 0 1 3.0000296194825475e+00 -1.2826670331681777e+02 1.0000000000000000e+00 5.9751705268630877e+00 1.3469587169517965e+01 5.4151472605194497e+00 
259 0 1 3.0000109962215769e+00 -2.6745553984054538e+02 1.0000000000000000e+00 6.0109188327426706e+00 1.3516762001246221e+01 5.3113867131126726e+00 
551 0 1 3.0000230960105028e+00 -1.6531794370251382e+02 1.0000000000000000e+00 5.9903300527584120e+00 1.3436928974303504e+01 5.6232320491110777e+00 
174 0 1 3.0000422430165323e+00 -2.0762481272675501e+02 1.0000000000000000e+00 6.0211033957963727e+00 1.3526952103153361e+01 5.3009783308579914e+00 
138 0 1 3.0000173205251333e+00 -1.6268176832583487e+02 1.0000000000000000e+00 6.3900296306526538e+00 1.3491240735613196e+01 4.3950536347928715e+00 
50 0 1 3.0000217785915999e+00 -2.8718812536683708e+02 1.0000000000000000e+00 6.0281128621304783e+00 1.3533964504169015e+01 5.2900526154569389e+00 
630 0 1 3.0000346183807665e+00 -2.6085598059204938e+02 1.0000000000000000e+00 6.0283345879385379e+00 1.3535055313515251e+01 5.2570820741649982e+00 
451 0 1 3.0000407419279300e+00 -1.3482432569713816e+02 1.0000000000000000e+00 6.1046088258038251e+00 1.3594848473396608e+01 5.1424145138704924e+00 
88 0 1 3.0000236886867442e+00 -2.2422344736641216e+02 1.0000000000000000e+00 6.2922251407743737e+00 1.3707640490808865e+01 5.1363006360876504e+00 
275 0 1 3.0000239504927655e+00 -1.8640365617481160e+02 1.0000000000000000e+00 6.0573659424451023e+00 1.3560739580935355e+01 5.2311557433769362e+00 
23 0 1 3.0000334079381310e+00 -2.1431925584533457e+02 1.0000000000000000e+00 6.2722818517062864e+00 1.3613570943697376e+01 4.7429553129986513e+00 
389 0 1 3.0002892255441016e+00 -1.5020561927278709e+02 1.0000000000000000e+00 6.3602486876272080e+00 1.1064113600467739e+01 8.1144151698666089e+00 
137 0 1 2.9999983442707290e+00 -1.6651459782857594e+02 1.0000000000000000e+00 4.0470572949099122e+00 1.0984580452295988e+01 7.3890509067275714e+00 
413 0 1 3.0000141466709054e+00 -2.5091645777900800e+02 1.0000000000000000e+00 4.0419913709891482e+00 1.0491225665164976e+01 7.6862399118734253e+00 
598 0 1 2.9999903443907239e+00 -2.3494951981786951e+02 1.0000000000000000e+00 4.3297337131814730e+00 1.0531640028061771e+01 8.1564581767505224e+00 
546 0 1 2.9999885172552347e+00 -2.0445601786119511e+02 1.0000000000000000e+00 4.5713925293203985e+00 1.1408636038402413e+01 7.7610535895584052e+00 
408 0 1 3.0000151645431199e+00 -2.2612135627174302e+02 1.0000000000000000e+00 4.3739529163039235e+00 1.0484174480240826e+01 8.2109107484265387e+00 
131 0 1 2.9997845876168370e+00 -1.7084483257228246e+02 1.0000000000000000e+00 5.7303521002106450e+00 1.0059378514513639e+01 9.1402078342847464e+00 
521 0 1 3.0000242741302539e+00 -1.6697656993332848e+02 1.0000000000000000e+00 4.4731965066240180e+00 1.0584563579284996e+01 8.3038172757550424e+00 
338 0 1 2.9999781979167510e+00 -1.7726067454243289e+02 1.0000000000000000e+00 4.4479098707005278e+00 1.1447023584814806e+01 7.3034764539393002e+00 
415 0 1 2.9999987501379519e+00 -1.8651008543688917e+02 1.0000000000000000e+00 3.9051209602206471e+00 1.0566006315424177e+01 7.2586918422411868e+00 
449 0 1 3.0003382307948776e+00 -2.7052091324606380e+02 1.0000000000000000e+00 6.4753870257308810e+00 1.0460223912624464e+01 8.6139287342391917e+00 
106 0 1 2.9999242439185059e+00 -2.1180042420899431e+02 1.0000000000000000e+00 5.2129830873612493e+00 1.1274986050403367e+01 8.4209222988702344e+00 
579 0 1 2.9999952064694053e+00 -2.3877538763476068e+02 1.0000000000000000e+00 5.1365441429854517e+00 1.1072846767384016e+01 8.5322174974553597e+00 
145 0 1 2.9999298899932252e+00 -1.5820764295572314e+02 1.0000000000000000e+00 5.2164023798686419e+00 1.1239599381116619e+01 8.4513905231186506e+00 
256 0 1 3.0000024689547735e+00 -1.5402482973653318e+02 1.0000000000000000e+00 3.9491431881576373e+00 1.0622470821070904e+01 7.4233899550039713e+00 
144 0 1 3.0000088775690501e+00 -1.5950403437432485e+02 1.0000000000000000e+00 3.9455675307089866e+00 1.0576850745120728e+01 7.4213363323308519e+00 
634 0 1 2.9999192401608039e+00 -2.4269650245260604e+02 1.0000000000000000e+00 5.5304161615590361e+00 1.1579691256251769e+01 8.2497719888588019e+00 
293 0 1 3.0000241180756086e+00 -1.5243170684712976e+02 1.0000000000000000e+00 4.2816824072110959e+00 1.0557103000990361e+01 8.0941682312535228e+00 
282 0 1 2.9998889219761247e+00 -1.5812631149577925e+02 1.0000000000000000e+00 5.5518651481883943e+00 1.1647818110821595e+01 8.1655773451271561e+00 
66 0 1 2.9999726521000603e+00 -2.2914689916688744e+02 1.0000000000000000e+00 4.8834919051554877e+00 1.1672134259931992e+01 6.7677673836589722e+00 
479 0 1 2.9992158961104947e+00 -2.1172655057950254e+02 1.0000000000000000e+00 6.5641593896803565e+00 1.2501994508569522e+01 7.4152145136153687e+00 
528 0 1 3.0007704594778146e+00 -1.6361763423198727e+02 1.0000000000000000e+00 6.2993837443306306e+00 1.2446392199757552e+01 7.1342975106012592e+00 
383 0 1 3.0000232668425402e+00 -1.5845460929916374e+02 1.0000000000000000e+00 4.3254049485517267e+00 1.0518909863899239e+01 8.1519967826794453e+00 
512 0 1 2.9999920351356475e+00 -2.9514200496540201e+02 1.0000000000000000e+00 4.0552551192114059e+00 1.0615309182905452e+01 7.7128202413507259e+00 
83 0 1 3.0000242951401073e+00 -3.3015558887127548e+02 1.0000000000000000e+00 4.1102306766603949e+00 1.0498568797733080e+01 7.8281308731986767e+00 
60 0 1 2.9996316025739098e+00 -2.2893523870461635e+02 1.0000000000000000e+00 6.2937561638704000e+00 1.2185856013576087e+01 7.1868941772178472e+00 
629 0 1 3.0000139741186116e+00 -2.1869521691676496e+02 1.0000000000000000e+00 9.5465923001273367e+00 8.7263802398443158e+00 2.4925126024220265e+00 
46 0 1 3.0000040407898476e+00 -2.4066378604991780e+02 1.0000000000000000e+00 9.5129154399757674e+00 8.8612953937186134e+00 2.5409497598811250e+00 
477 0 1 3.0000119370252363e+00 -3.3075798718926944e+02 1.0000000000000000e+00 9.5053100051141541e+00 8.8055028461292792e+00 2.5354618521083965e+00 
490 0 1 2.9999955401269718e+00 -3.7747682355258667e+02 1.0000000000000000e+00 9.6310739558533260e+00 8.8455784222153273e+00 2.4598381954442834e+00 
133 0 1 3.0000071752657842e+00 -2.1352141281199911e+02 1.0000000000000000e+00 9.5778965194731835e+00 8.7554146655476028e+00 2.4760972279162972e+00 
587 0 1 2.9999965879799082e+00 -2.3597264971670782e+02 1.0000000000000000e+00 9.5070088161433883e+00 8.7342498713931125e+00 2.5219610823761691e+00 
277 0 1 3.0000048601463569e+00 -1.5123884305174371e+02 1.0000000000000000e+00 9.9361178265000163e+00 8.3351081863867194e+00 2.2395518525058948e+00 
146 0 1 2.9999991150918270e+00 -1.5970502946971146e+02 1.0000000000000000e+00 9.9961682583325135e+00 8.0313762584285300e+00 2.2272892851723225e+00 
459 0 1 3.0000750374348719e+00 -1.3270274929304202e+02 1.0000000000000000e+00 8.8114673130404420e+00 9.3690852290826072e+00 3.2955570266334826e+00 
462 0 1 2.9999954827102062e+00 -2.6943805325532600e+02 1.0000000000000000e+00 1.0090339285992773e+01 8.9320294061268690e+00 2.2882993534288292e+00 
142 0 1 2.9999911526176586e+00 -1.8969234874184343e+02 1.0000000000000000e+00 1.0341585181102593e+01 7.0951347552009674e+00 2.5561584914997657e+00 
37 0 1 2.9999917152393767e+00 -2.2420300513495809e+02 1.0000000000000000e+00 1.0264368279922291e+01 6.8712864659085220e+00 2.8519392871380620e+00 
254 0 1 3.0000038842591317e+00 -1.6726431962277573e+02 1.0000000000000000e+00 1.1116919826088589e+01 7.5783300042785706e+00 2.4029553439981153e+00 
469 0 1 2.9999905584040825e+00 -1.7832364468066339e+02 1.0000000000000000e+00 1.1824630937452511e+01 7.8809282285496689e+00 3.0271073239281674e+00 
615 0 1 3.0000028233733032e+00 -2.3132490093201011e+02 1.0000000000000000e+00 1.0854212975338280e+01 7.3869571275003940e+00 2.3889426750185399e+00 
162 0 1 2.9999968400699921e+00 -4.0445861351598745e+02 1.0000000000000000e+00 1.1869846403552829e+01 7.9201677422667371e+00 3.0949961491756941e+00 
641 0 1 2.9999983563508819e+00 -3.0207169945777832e+02 1.0000000000000000e+00 1.1409092024037914e+01 7.5702182855640068e+00 2.6297388513477871e+00 
65 0 1 2.9999937039945070e+00 -2.3967261663762122e+02 1.0000000000000000e+00 1.1121099010977080e+01 7.5530496736110697e+00 2.4177345715818030e+00 
610 0 1 2.9999928073052939e+00 -3.8326328529009942e+02 1.0000000000000000e+00 1.1898684565324576e+01 8.6912404451549339e+00 3.2618984929677324e+00 
170 0 1 3.0000039370834495e+00 -1.9278384655437472e+02 1.0000000000000000e+00 1.1953315529461793e+01 8.3109834556320763e+00 3.2383409685839917e+00 
346 0 1 2.9999915664432151e+00 -1.4122826704245128e+02 1.0000000000000000e+00 1.1937804466833949e+01 8.3913363026626975e+00 3.2228435299244929e+00 
578 0 1 2.9999880476300476e+00 -2.4254307136334882e+02 1.0000000000000000e+00 1.1886446054227591e+01 8.2829289189644477e+00 3.0972494585881525e+00 
631 0 1 2.9999906307897497e+00 -2.7771399655429013e+02 1.0000000000000000e+00 1.1111676638250026e+01 7.5456636776469326e+00 2.4160316887195705e+00 
291 0 1 2.9999965006557252e+00 -1.6069935520420577e+02 1.0000000000000000e+00 1.1476553736316403e+01 7.5174945319606801e+00 2.7346185352970562e+00 
511 0 1 2.9999934657474929e+00 -2.8480272115529675e+02 1.0000000000000000e+00 1.0715717257878888e+01 6.8500878458963692e+00 2.9328423962336041e+00 
464 0 1 3.0001148680146734e+00 -1.7787920569389749e+02 1.0000000000000000e+00 9.4629004702563542e+00 6.3090126672263072e+00 5.5342951117671317e+00 
618 0 1 2.9999046349220384e+00 -2.2372959182773079e+02 1.0000000000000000e+00 9.4838965906278592e+00 6.3215427989646367e+00 6.2950723870963055e+00 
387 0 1 2.9994498076560729e+00 -1.6524933887393141e+02 1.0000000000000000e+00 8.8804485269152362e+00 6.5703879777922971e+00 5.6983586482521149e+00 
520 0 1 3.0009576480356115e+00 -1.6394397176682565e+02 1.0000000000000000e+00 9.9020959436520410e+00 6.5912718677273121e+00 4.5718579793405114e+00 
509 0 1 3.0001674682324970e+00 -1.6087680297540928e+02 1.0000000000000000e+00 9.1355993472372035e+00 6.3707627927160564e+00 6.5741007636854176e+00 
173 0 1 2.9999683764600835e+00 -1.7976529789076761e+02 1.0000000000000000e+00 1.0026219382867467e+01 5.3874980097019245e+00 6.0405821034337919e+00 
92 0 1 2.9999586286449000e+00 -2.3047313010834145e+02 1.0000000000000000e+00 1.0038794289599540e+01 5.3753919672075989e+00 6.0468204636810583e+00 
550 0 1 2.9999874956180554e+00 -1.6448536902650940e+02 1.0000000000000000e+00 1.1173599258284964e+01 4.8935205090129958e+00 5.4614180694167134e+00 
543 0 1 2.9999948514001877e+00 -1.5536630344919945e+02 1.0000000000000000e+00 1.3112888841840135e+01 6.6651300946575445e+00 5.1898644711388897e+00 
458 0 1 3.0000015738752546e+00 -1.2780682091636650e+02 1.0000000000000000e+00 1.2570469569513186e+01 5.3219648344634960e+00 5.2476179213436831e+00 
280 0 1 2.9999756329925953e+00 -2.1080195176067787e+02 1.0000000000000000e+00 1.0917985466216781e+01 5.1528685248134156e+00 5.2564553714007669e+00 
396 0 1 2.9999743155662206e+00 -1.6982199419293937e+02 1.0000000000000000e+00 1.1108934931169026e+01 4.8625838287729080e+00 5.5548399581221091e+00 
126 0 1 3.0000137107225298e+00 -2.8491613225546513e+02 1.0000000000000000e+00 1.3114172706045807e+01 6.6481837740508452e+00 5.1927670367276120e+00 
210 0 1 2.9999901026657492e+00 -1.7697892000102078e+02 1.0000000000000000e+00 1.3103419788193463e+01 6.5924631081582801e+00 5.1769807265717480e+00 
257 0 1 2.9999984179742483e+00 -1.4904809342836816e+02 1.0000000000000000e+00 1.1333841154583096e+01 4.7926407490264840e+00 5.5778738135812258e+00 
332 0 1 3.0000015212521838e+00 -1.7154465636557217e+02 1.0000000000000000e+00 1.2496796294501287e+01 5.1730257470108922e+00 5.3566334130021254e+00 
108 0 1 2.9999950585230248e+00 -1.6895477112453713e+02 1.0000000000000000e+00 1.0313895392615883e+01 5.1810258192238496e+00 5.9427000416886067e+00 
124 0 1 2.9999785295193200e+00 -1.5988737958788485e+02 1.0000000000000000e+00 1.1064404343742799e+01 5.0728531013078912e+00 5.2702857392431461e+00 
71 0 1 3.0000022893456872e+00 -3.7314900464161735e+02 1.0000000000000000e+00 1.3039114615530931e+01 6.3438231844038251e+00 5.1210548891395602e+00 
111 0 1 3.0000086957927383e+00 -1.8363212300829619e+02 1.0000000000000000e+00 1.2928015784887730e+01 5.5161006187545079e+00 5.5108301243255857e+00 
416 0 1 2.9999886264372786e+00 -1.5813552905413880e+02 1.0000000000000000e+00 1.1390243853378319e+01 4.8193126570163756e+00 5.5047169860329213e+00 
596 0 1 3.0000026462437019e+00 -3.8241195341177695e+02 1.0000000000000000e+00 1.1328118971424880e+01 4.6892128784017526e+00 6.0723534513365189e+00 
460 0 1 3.0000079400565363e+00 -1.3348002194458223e+02 1.0000000000000000e+00 1.1346468041742272e+01 4.7098028959245113e+00 6.2808140746658587e+00 
339 0 1 3.0000009088237660e+00 -1.5659273117759341e+02 1.0000000000000000e+00 1.2361023527981395e+01 5.0037498180426940e+00 6.4160186073425418e+00 
310 0 1 3.0000101066689440e+00 -1.6755641211028691e+02 1.0000000000000000e+00 1.3053071257979294e+01 5.9404890884713630e+00 5.3154597385459903e+00 
69 0 1 3.0000064606427621e+00 -2.4171709277957865e+02 1.0000000000000000e+00 1.2534025679075745e+01 5.1323670518355744e+00 5.4615821742000614e+00 
488 0 1 3.0000160148250696e+00 -3.1683620835686389e+02 1.0000000000000000e+00 1.2652704341540826e+01 5.7342586169858851e+00 5.0018284357504337e+00 
329 0 1 2.9999530393035272e+00 -3.8063954344964412e+02 1.0000000000000000e+00 1.0141433271103248e+01 5.2906260882648954e+00 6.0520564919850486e+00 
472 0 1 3.0000108665726404e+00 -1.6013995579164865e+02 1.0000000000000000e+00 1.1386710988405584e+01 4.7552089746088093e+00 6.4570273162956768e+00 
468 0 1 2.9999985621643974e+00 -1.5110571452698809e+02 1.0000000000000000e+00 1.1599046410697659e+01 4.8068908245829496e+00 6.5740246927310819e+00 
559 0 1 3.0001341113627156e+00 -2.0239731605841214e+02 1.0000000000000000e+00 8.4266608802295782e+00 6.9426234855890900e+00 5.6619521770332124e+00 
166 0 1 2.9998316331031223e+00 -2.9846092729689548e+02 1.0000000000000000e+00 8.1063760687327893e+00 6.7350022046680378e+00 6.0782758399760972e+00 
621 0 1 2.9999574738318957e+00 -2.3646743805199395e+02 1.0000000000000000e+00 9.5438466919225178e+00 6.8735785678452741e+00 3.4968367345558300e+00 
368 0 1 2.9997964212839423e+00 -1.5570268082474797e+02 1.0000000000000000e+00 7.7459145831427199e+00 8.8675988712198013e+00 4.5487357056542068e+00 
28 0 1 3.0002186293072146e+00 -3.6182729582555197e+02 1.0000000000000000e+00 6.7809651151837338e+00 7.1230728751470602e+00 5.5926489934391848e+00 
75 0 1 3.0005147515179265e+00 -2.4348177303859953e+02 1.0000000000000000e+00 8.1437045188521608e+00 7.1110760588653283e+00 5.4330014051791808e+00 
266 0 1 2.9999772564169964e+00 -2.0054596316058775e+02 1.0000000000000000e+00 8.7298324086041656e+00 8.0021081829545686e+00 3.5891190896582650e+00 
360 0 1 2.9993485128776309e+00 -1.5834532427727279e+02 1.0000000000000000e+00 7.6607253306823679e+00 8.7066435358651546e+00 4.6780119105611417e+00 
101 0 1 2.9989531697558549e+00 -1.5591000731682388e+02 1.0000000000000000e+00 7.5027651875419394e+00 6.7535198207973544e+00 6.1511540710538348e+00 
299 0 1 2.9999733569503064e+00 -1.4585872830014807e+02 1.0000000000000000e+00 9.7598436875182308e+00 6.6864259272048994e+00 3.7692860308127951e+00 
474 0 1 2.9999743841642954e+00 -1.6564494033934042e+02 1.0000000000000000e+00 9.7564779764998288e+00 6.6894349147784968e+00 3.7608087224808000e+00 
8 0 1 2.9999926096802727e+00 -2.9647926803856387e+02 1.0000000000000000e+00 9.7414203605964147e+00 6.6953940718844791e+00 3.7631915780113045e+00 
306 0 1 2.9999729467066496e+00 -1.3431942303319224e+02 1.0000000000000000e+00 9.7505228967525106e+00 6.6919271154413984e+00 3.7608852867051952e+00 
457 0 1 2.9999615668099890e+00 -1.4084540138477564e+02 1.0000000000000000e+00 9.7807843655873015e+00 6.6810242019967276e+00 3.7524927991479733e+00 
397 0 1 2.9996967107198271e+00 -1.6713947283304370e+02 1.0000000000000000e+00 8.5798078927079331e+00 7.4674515094447225e+00 4.5058116000324597e+00 
361 0 1 2.9989859921093616e+00 -1.5683094374800191e+02 1.0000000000000000e+00 7.9071772796867315e+00 6.8923607616311164e+00 5.9397158190621333e+00 
70 0 1 2.9999602590422572e+00 -3.5892773697440555e+02 1.0000000000000000e+00 9.7604664330568323e+00 6.6935993674831193e+00 3.7308136623351911e+00 
64 0 1 2.9999987599288089e+00 -2.7926964413912293e+02 1.0000000000000000e+00 8.0851189989194250e+00 8.7303401045440978e+00 4.5041624056393719e+00 
535 0 1 2.9999674227067072e+00 -1.6932476749787801e+02 1.0000000000000000e+00 9.7778625502321521e+00 6.6830349692369380e+00 3.7481705079665657e+00 
405 0 1 2.9999814057660088e+00 -2.6892650360783347e+02 1.0000000000000000e+00 9.7832926272143883e+00 6.6797592951616380e+00 3.7539886012323898e+00 
434 0 1 3.0005981572730134e+00 -2.6075221579047195e+02 1.0000000000000000e+00 8.1276603170349180e+00 7.5000910205014257e+00 5.1958853530446056e+00 
16 0 1 3.0005513185806998e+00 -2.5392247708421425e+02 1.0000000000000000e+00 7.3017297968101174e+00 9.6315257337474485e+00 4.5826719554051998e+00 
406 0 1 3.0001619902525092e+00 -3.9995339649408891e+02 1.0000000000000000e+00 7.8678178751401715e+00 8.7719527074112840e+00 4.4628704202916119e+00 
40 0 1 3.0001440310074363e+00 -2.3111142218838813e+02 1.0000000000000000e+00 7.8151205891721727e+00 6.7469434604242835e+00 6.3680118627733755e+00 
418 0 1 3.0003415501563282e+00 -1.6306492152076243e+02 1.0000000000000000e+00 8.2482457242477327e+00 8.6166635301078287e+00 4.0707067534828054e+00 
343 0 1 2.9991687177019042e+00 -1.8937867949705353e+02 1.0000000000000000e+00 6.8584541507101306e+00 9.5518122835587604e+00 4.6114282258456756e+00 
627 0 1 3.0007321030155540e+00 -2.3594274123020259e+02 1.0000000000000000e+00 6.8749882277254057e+00 8.0932396478546753e+00 5.1472415325342817e+00 
15 0 1 2.9997452498726593e+00 -3.6832146215958278e+02 1.0000000000000000e+00 7.4239462466269668e+00 8.9119503046084461e+00 4.7479062312805507e+00 
192 0 1 2.9999437067756163e+00 -1.3446894557091102e+02 1.0000000000000000e+00 8.0226109808478796e+00 8.3001568860896686e+00 4.6272643245912333e+00 
317 0 1 2.9993465563150901e+00 -2.2864793742354883e+02 1.0000000000000000e+00 7.8447837776634080e+00 8.6120291626186276e+00 4.5630883822959403e+00 
229 0 1 3.0002841720535245e+00 -1.4978134608268965e+02 1.0000000000000000e+00 7.1551258521665249e+00 9.6233482303015450e+00 4.5320526210564598e+00 
601 0 1 3.0007015686980729e+00 -2.3572275047550798e+02 1.0000000000000000e+00 7.5809238100288878e+00 6.9185309827859873e+00 5.9440199727278502e+00 