LAMMPS data file via write_data, version 30 Jul 2016, timestep = 100400000

79 atoms
2 atom types

0.0000000000000000e+00 2.0000000000000000e+01 xlo xhi
0.0000000000000000e+00 2.0000000000000000e+01 ylo yhi
0.0000000000000000e+00 2.0000000000000000e+01 zlo zhi

Masses

1 4.31
2 3.896

Atoms # meso-molecular

250 0 1 6.8774415317587634e-01 -3.2874196117527198e+01 1.0000000000000000e+00 2.0099593865744692e+00 1.6390392260613278e-02 1.2672211986172583e+00 
134 0 1 6.8774415317587634e-01 -3.2360036637638487e+01 1.0000000000000000e+00 2.0099593865745269e+00 1.6390392260615557e-02 1.2672211986171649e+00 
87 0 1 1.0277190111661314e+00 -1.0757297215668231e+02 1.0000000000000000e+00 2.9202616663083694e+00 7.4084958746355234e-01 5.1284049185343399e+00 
469 0 1 1.0284064441803218e+00 -3.7756853687608107e+01 1.0000000000000000e+00 2.9415043624852504e+00 6.7734933742029835e-01 5.2100484034878720e+00 
121 0 1 1.0279108066447313e+00 -5.6521200270017673e+01 1.0000000000000000e+00 2.8527661038572236e+00 7.1955630719789310e-01 5.2253429779842904e+00 
363 0 1 6.8774415317587634e-01 -8.0469839127781995e+01 1.0000000000000000e+00 1.2524150166231285e+00 6.3300086208422801e+00 5.7372930828841673e+00 
319 0 1 6.8774415317587634e-01 -6.8408642617237660e+01 1.0000000000000000e+00 1.2524150166315424e+00 6.3300086208132766e+00 5.7372930829040216e+00 
523 0 1 1.0282939905489357e+00 -8.7359912280262648e+01 1.0000000000000000e+00 2.1640702355493699e+00 1.4844422298940005e+00 1.5360524770962762e+01 
442 0 1 1.0284200865876214e+00 -3.9868279229365776e+01 1.0000000000000000e+00 2.1752371424161585e+00 1.4927378318064686e+00 1.5457705198892453e+01 
281 0 1 1.0280389533107486e+00 -7.4292613217217891e+01 1.0000000000000000e+00 2.0927779497889412e+00 1.5463852530054396e+00 1.5417276774840118e+01 
402 0 1 1.0280693093824704e+00 -9.5178298532658147e+01 1.0000000000000000e+00 6.5714791632676146e+00 5.0576439553239627e+00 1.5721413671036441e+01 
465 0 1 1.0279139938355648e+00 -4.7755297799073162e+01 1.0000000000000000e+00 6.2032955079701182e+00 4.6756976557431589e+00 1.5815095875447849e+01 
78 0 1 1.0279998666692083e+00 -7.5412603276995299e+01 1.0000000000000000e+00 2.3366751791303333e+00 1.3933666817336428e+00 1.9130561082527411e+01 
282 0 1 1.0279998666761407e+00 -3.3225867961081711e+01 1.0000000000000000e+00 2.3987513550617368e+00 1.4578760922013632e+00 1.9068596140150344e+01 
166 0 1 1.0279998666865005e+00 -6.7219930989675404e+01 1.0000000000000000e+00 2.4451727877476572e+00 1.3876360133772956e+00 1.9137632011561728e+01 
379 0 1 1.0277463679544581e+00 -5.1549566189691021e+01 1.0000000000000000e+00 1.8246753219714500e+00 7.5777522953770413e+00 1.8416917260112680e+01 
227 0 1 1.0277716565257708e+00 -4.3111130459109354e+01 1.0000000000000000e+00 1.8789093275047486e+00 7.6493701859847860e+00 1.8350827657634301e+01 
558 0 1 1.0276958209847533e+00 -5.4973662454151231e+01 1.0000000000000000e+00 1.8979417047863893e+00 7.6520432123942639e+00 1.8462187140282666e+01 
423 0 1 1.0279284777131215e+00 -4.0377555551464695e+01 1.0000000000000000e+00 4.4397187884685456e+00 1.1261280385978068e+01 1.9111588344511812e+00 
177 0 1 1.0279442604580074e+00 -7.6835461961349480e+01 1.0000000000000000e+00 4.4521740828244738e+00 1.1309077140934134e+01 1.8048736778918504e+00 
458 0 1 1.0281700733084951e+00 -7.3392083819406963e+01 1.0000000000000000e+00 5.6045149004634602e+00 1.0984070742378035e+01 1.7960224497250188e+00 
265 0 1 1.0280054594100247e+00 -5.1165471337666276e+01 1.0000000000000000e+00 5.5902686420084766e+00 1.0928848420769810e+01 1.8934325495856872e+00 
69 0 1 1.0279435666035825e+00 -1.0630749327183545e+02 1.0000000000000000e+00 2.1735909092468475e+00 1.9179835141683007e+01 6.7256370682754807e-01 
399 0 1 1.0277275604365703e+00 -9.7115880868220458e+01 1.0000000000000000e+00 2.0669165867848003e+00 1.9140919788267716e+01 7.0001485234880045e-01 
59 0 1 1.0282169037081133e+00 -1.4838546448730733e+02 1.0000000000000000e+00 2.1557640292202596e+00 1.9135134162235563e+01 7.6265613904079022e-01 
54 0 1 1.0280588939109965e+00 -6.5471598630998841e+01 1.0000000000000000e+00 4.8587707009540342e+00 1.7911040392135199e+01 6.2943010370888608e+00 
405 0 1 1.0279116064582701e+00 -7.2444650259369894e+01 1.0000000000000000e+00 4.2397291988557404e+00 1.8133926890436907e+01 7.3709209177024277e+00 
258 0 1 1.0280094298319513e+00 -9.6277648645397917e+01 1.0000000000000000e+00 5.0221287306638080e+00 1.8036426510942178e+01 7.7020797742987517e+00 
167 0 1 1.0278662564340724e+00 -1.1689003135847804e+02 1.0000000000000000e+00 5.3370070147136364e+00 1.8825817895998455e+01 7.2456412214284587e+00 
551 0 1 1.0280051891306217e+00 -4.3893929254882892e+01 1.0000000000000000e+00 4.8645601048646547e+00 1.8611757876862345e+01 6.2333231028205418e+00 
467 0 1 6.8774415317587634e-01 -6.4059025917182609e+01 1.0000000000000000e+00 7.2070960607992440e-01 1.5899927488467119e+01 1.8932780817408442e+01 
50 0 1 6.8774415317587634e-01 -7.0822795510732178e+01 1.0000000000000000e+00 7.2070960607679568e-01 1.5899927488489586e+01 1.8932780817409125e+01 
120 0 1 6.8774415181741544e-01 -1.4266600822248466e+02 1.0000000000000000e+00 6.0375501932516844e+00 1.5517276766722961e+01 1.9625556597188297e+01 
42 0 1 6.8774415181741544e-01 -1.5365502852409620e+02 1.0000000000000000e+00 6.0374584432280223e+00 1.5517257396009279e+01 1.9625547322332082e+01 
179 0 1 1.0279516950536387e+00 -3.6129848010950049e+01 1.0000000000000000e+00 8.6967747745608666e+00 4.2061566095464515e+00 2.2083202223124583e+00 
449 0 1 1.0279431592516177e+00 -5.9149420224407820e+01 1.0000000000000000e+00 8.0272149384996467e+00 4.4205062837070646e+00 2.5898664627924353e+00 
607 0 1 1.0280137693426188e+00 -8.8417620105694681e+01 1.0000000000000000e+00 8.4893829735898851e+00 4.4880289073588031e+00 3.5017935444981756e+00 
392 0 1 1.0278757408105041e+00 -8.3163035973228318e+01 1.0000000000000000e+00 9.0161536142074130e+00 5.3966054783757453e+00 2.8825126619534425e+00 
183 0 1 1.0280727313321476e+00 -2.9585508049384497e+01 1.0000000000000000e+00 9.5135005031962141e+00 4.8297461900309413e+00 2.9303203828110607e+00 
514 0 1 1.0276676929675190e+00 -6.1416615880772270e+01 1.0000000000000000e+00 9.9138662811971798e+00 5.2674973966634830e+00 6.6325194982575422e+00 
354 0 1 1.0282880777707586e+00 -2.9478476722382592e+01 1.0000000000000000e+00 9.8864578128283362e+00 5.2664722142796796e+00 6.5220350614732299e+00 
203 0 1 1.0282921137517989e+00 -1.1510038407829784e+02 1.0000000000000000e+00 9.8217835105317590e+00 5.2281157758273569e+00 6.5786441989654953e+00 
408 0 1 1.0279127544991911e+00 -9.6933309650071962e+01 1.0000000000000000e+00 6.8898748584008951e+00 4.1944581498515898e+00 1.6442433717310891e+01 
610 0 1 1.0279642713865491e+00 -1.0731419916312075e+02 1.0000000000000000e+00 7.1538559838516447e+00 4.6614554965925272e+00 1.6495628189724322e+01 
481 0 1 1.0280817589755769e+00 -4.8898302099227770e+01 1.0000000000000000e+00 8.2962229716281470e+00 1.6761444632367404e+01 3.6931617732340780e+00 
24 0 1 1.0279673027503802e+00 -8.1679522868384041e+01 1.0000000000000000e+00 8.6946969124220743e+00 1.6637869826333294e+01 3.5551281608073935e+00 
297 0 1 1.0279580738532994e+00 -6.6826889008149095e+01 1.0000000000000000e+00 8.7721549784817334e+00 1.6107459473771332e+01 4.5316801057227307e+00 
115 0 1 1.0281256407870925e+00 -3.4717094070118698e+01 1.0000000000000000e+00 8.6601926980269308e+00 1.6492797288728966e+01 4.7104639466889884e+00 
248 0 1 1.0286559442740280e+00 -8.6479070267253775e+01 1.0000000000000000e+00 1.0379746706385879e+01 1.4177047055368988e+01 1.5404567024108824e+01 
207 0 1 1.0279784570192270e+00 -3.3669794054493465e+01 1.0000000000000000e+00 1.0360097693349577e+01 1.4101841960524437e+01 1.5465026817983132e+01 
437 0 1 1.0279775255662020e+00 -4.9881216081849338e+01 1.0000000000000000e+00 1.0459068661145499e+01 1.4118735824622537e+01 1.5401204594957258e+01 
367 0 1 3.4387207658793817e-01 -4.4713736458194248e+01 1.0000000000000000e+00 1.2930201599798993e+01 1.1629727802835918e+01 1.7958555574918009e+01 
95 0 1 1.0279178010993428e+00 -5.9206740282276627e+01 1.0000000000000000e+00 1.3649075390387233e+01 2.4392540389809834e+00 1.5184703990593551e+00 
382 0 1 1.0280558619488864e+00 -3.5364270518668988e+01 1.0000000000000000e+00 1.3649409854192623e+01 2.4388236613246743e+00 1.5186303000717454e+00 
2 0 1 1.0278950297517553e+00 -7.5934543307259389e+01 1.0000000000000000e+00 1.4822833760596577e+01 2.5534799804011841e+00 1.7677008750556484e+00 
130 0 1 1.0280782359110436e+00 -4.7697885582308160e+01 1.0000000000000000e+00 1.4822326938760183e+01 2.5546339666599041e+00 1.7675157832473176e+00 
25 0 1 1.0280734342170363e+00 -2.2078938594660781e+02 1.0000000000000000e+00 1.6861696632881220e+01 6.5237845101373395e+00 1.2335236354180926e+01 
560 0 1 1.0280318797379162e+00 -8.8759101293266937e+01 1.0000000000000000e+00 1.6498883896785166e+01 7.1339253318789249e+00 1.3286456102379624e+01 
143 0 1 1.0280018377126159e+00 -6.4928757568359444e+01 1.0000000000000000e+00 1.7383803475373586e+01 7.5521626347499309e+00 1.2334608340495517e+01 
128 0 1 1.0280048423972648e+00 -5.2555333605204758e+01 1.0000000000000000e+00 1.7017740782860066e+01 6.4862238564803061e+00 1.3428788203296961e+01 
213 0 1 1.0278938139875113e+00 -6.8248252760527791e+01 1.0000000000000000e+00 1.7827657182508755e+01 7.3289077634937954e+00 1.2854407235865406e+01 
58 0 1 1.0280051155534868e+00 -4.9226643814128998e+01 1.0000000000000000e+00 1.5350310290106529e+01 1.5113017326099872e+01 5.7915040635583699e+00 
93 0 1 1.0279556384589057e+00 -1.0570553007534005e+02 1.0000000000000000e+00 1.3887203068302021e+01 1.5014300183865950e+01 5.1130662885093390e+00 
588 0 1 1.0279771516316298e+00 -1.0694667951087419e+02 1.0000000000000000e+00 1.5288521510089076e+01 1.5115529626023825e+01 5.8919155716653204e+00 
326 0 1 1.0280044171581413e+00 -5.1085969371590998e+01 1.0000000000000000e+00 1.4062466800656132e+01 1.5669033890586345e+01 5.6039366150119632e+00 
464 0 1 1.0279657221561995e+00 -5.2688494809719238e+01 1.0000000000000000e+00 1.4522605692580767e+01 1.5124601841556984e+01 4.6664526809621432e+00 
545 0 1 1.0279789330327702e+00 -3.2416922436186027e+01 1.0000000000000000e+00 1.4573840187171626e+01 1.8349080197753125e+01 1.1793701169310800e+01 
246 0 1 1.0279339211409559e+00 -6.9437948247122378e+01 1.0000000000000000e+00 1.5186924205873476e+01 1.9175157323558512e+01 1.1846044134175923e+01 
439 0 1 1.0281014811105194e+00 -3.6262931493559130e+01 1.0000000000000000e+00 1.3602695007772089e+01 1.2874856063899601e+01 1.2558585587052672e+01 
180 0 1 1.0278315964678988e+00 -6.0421505107707837e+01 1.0000000000000000e+00 1.3661913646515055e+01 1.2949611949281373e+01 1.2619176923127565e+01 
528 0 1 1.0282108267902108e+00 -3.3455870074859810e+01 1.0000000000000000e+00 1.3680731160972881e+01 1.2841593324280016e+01 1.2614078692023456e+01 
263 0 1 1.0280619088557270e+00 -3.1174902400557293e+01 1.0000000000000000e+00 1.7984019301840473e+01 1.5355435509572533e+01 1.3240355505219807e+01 
314 0 1 1.0285013156965697e+00 -7.6698753797401011e+01 1.0000000000000000e+00 1.8003429497110112e+01 1.5360211144611213e+01 1.3137727844090657e+01 
47 0 1 1.0282824082660234e+00 -7.9803740970350020e+01 1.0000000000000000e+00 1.7988833281948445e+01 1.5269474287557490e+01 1.3169946212810132e+01 
516 0 1 1.0280436737002268e+00 -3.2695387967652657e+01 1.0000000000000000e+00 1.4400204359281615e+01 1.9161400016358538e+01 1.2189828182809892e+01 
547 0 1 1.0280460703111460e+00 -1.0558580696970239e+02 1.0000000000000000e+00 1.5125371036885532e+01 1.8474440905542632e+01 1.2439613432186752e+01 
364 0 1 1.0281895757165749e+00 -9.0865258361496601e+01 1.0000000000000000e+00 1.4173991548206985e+01 1.7633301382129726e+01 1.8626698453305579e+01 
161 0 1 1.0282902758410106e+00 -1.2555050974423588e+02 1.0000000000000000e+00 1.4155301892581450e+01 1.7667302428600536e+01 1.8528635295494421e+01 
40 0 1 1.0282568472898275e+00 -6.2701447180926728e+01 1.0000000000000000e+00 1.4240340545708587e+01 1.7700307084281697e+01 1.8577206853585604e+01 

Velocities

250 -1.2788805099248803e-12 -8.0911773467167668e-15 -4.5409572144842917e-13
134 1.2788805099248803e-12 8.0911773467167668e-15 4.5409572144842917e-13
87 4.9826806717606881e-04 3.2914550484612121e-05 -5.1707721271489204e-04
469 1.4317482118857196e-04 2.6428286842788520e-05 -1.7569107656925095e-04
121 -6.4144288836355447e-04 -5.9342837327148409e-05 6.9276828928605254e-04
363 -2.3903483063353040e-10 6.7561759324218239e-10 -5.3883527042659286e-10
319 2.3903483063353040e-10 -6.7561759324218239e-10 5.3883527042659286e-10
523 1.5941238964888005e-03 -8.0037142222665774e-04 2.1768663040510894e-03
442 1.0690383187875517e-03 -1.2010267263646770e-03 -2.4550806191451437e-03
281 -2.6631622152762865e-03 2.0013981485911270e-03 2.7821431509171394e-04
402 1.7539480776245468e-05 3.0221849150780197e-03 1.3274215682220463e-03
465 1.3990117433954152e-03 -3.3384823097930144e-03 -3.1398620854848879e-04
78 -1.3899810550870286e-06 -4.7894417691384207e-07 4.4728900999697655e-07
282 1.2749636160044411e-07 1.0980803664745301e-06 -1.0675332505710902e-06
166 1.2624846934869057e-06 -6.1913618956085579e-07 6.2024424057423167e-07
379 1.2884959245751501e-03 1.9478807057274454e-03 -3.0461537381987498e-03
227 -2.1272124587191103e-03 -2.7677427760906701e-03 2.3447119842552626e-03
558 8.3871653414359273e-04 8.1986207036328462e-04 7.0144175394342854e-04
423 -1.1035569169698307e-03 1.0889342931402321e-03 9.8907220120169833e-05
177 3.5544999230405520e-04 -9.4863034366646410e-04 4.7354915328028414e-05
458 1.1710375634543793e-03 4.3550190236196816e-04 1.8116746759046102e-04
265 -4.2293063878848420e-04 -5.7580585183450873e-04 -3.2742960303985293e-04
69 -2.0940192675850105e-03 -1.1660756861517920e-03 1.4391111006276829e-03
399 3.6765368355036214e-03 5.8016474395922862e-04 7.5750711689786827e-04
59 -1.5825175679201997e-03 5.8591094219384208e-04 -2.1966182175268806e-03
54 1.1883870736879238e-04 4.1990784706387707e-04 3.2205103643094196e-05
405 3.8082983320757369e-04 -6.8485315368153584e-04 4.7167789939548023e-04
258 -7.8173029866812703e-04 6.3364856766900545e-04 1.8262540539962775e-04
167 4.9463338088685858e-04 -4.9728126696534385e-04 1.2522425111843573e-04
551 -2.1257162279528263e-04 1.2857800591647325e-04 -8.1173265955880375e-04
467 3.2353526621973094e-11 -2.1751307495764063e-10 -5.5632348640774495e-12
50 -3.2353526621973094e-11 2.1751307495764063e-10 5.5632348640774495e-12
120 3.2940455832198667e-04 6.9545480805642613e-05 3.3298895983780339e-05
42 -3.2940455832198667e-04 -6.9545480805642613e-05 -3.3298895983780339e-05
179 -3.7941831071843493e-05 1.1866299823674052e-04 -1.6477210048113441e-04
449 -1.0793337415639208e-04 -4.6470211978053943e-04 5.3052568645851916e-04
607 -3.2487875168276157e-04 6.9416212827070841e-04 -8.0775402791396665e-04
392 -1.9609802005950185e-04 -3.7162422004562715e-04 5.7392566393892031e-04
183 6.6685197697147148e-04 2.3501213319737729e-05 -1.3192522200209929e-04
514 -3.7919204731600778e-03 -1.7492879507816431e-03 -1.0921323983624791e-03
354 -1.7289857289387309e-03 -8.4377296524527304e-04 -9.0420493368349909e-05
203 5.5209062021002427e-03 2.5930609160303222e-03 1.1825528917327457e-03
408 -3.1340340790049041e-03 -2.9199283118587266e-04 1.2286562440021163e-03
610 1.7174828548352768e-03 6.0829022589893806e-04 -2.2420916036843433e-03
481 2.4821213401804909e-04 4.4182844177657839e-04 -7.0881240258022780e-04
24 -5.9505390334359547e-04 3.4577950355196033e-05 3.2839936026258961e-04
297 5.0149456823757820e-04 -4.7578682898128581e-04 6.7883381825665351e-04
115 -1.5465279891125328e-04 -6.1956314796954886e-07 -2.9842077593887482e-04
248 1.1663658833936145e-03 1.9206496050284208e-03 -1.8971668950086350e-03
207 -3.2866937925649046e-03 -2.7875535184957900e-03 3.6003413541915480e-03
437 2.1203279091703488e-03 8.6690391346818155e-04 -1.7031744591822951e-03
367 2.4447270023439362e-36 1.3934612375794941e-35 -5.3496606033969534e-36
95 -4.8326735242211526e-04 -4.8157058332310221e-05 -1.0213503136499736e-04
382 1.0583702654775595e-03 1.0477300413175988e-04 2.2415460204471983e-04
2 -3.4838143203227962e-04 -3.7687309891896046e-05 -7.3586748950389686e-05
130 -2.2672148102373000e-04 -1.8928635907447504e-05 -4.8432821729119949e-05
25 -1.3839943407372012e-04 -1.8709429867629190e-04 1.5400738218727860e-04
560 -1.3815692111040584e-04 -5.4800467981815473e-04 -1.4354811543124582e-04
143 1.5459287505613844e-04 4.5926975378841683e-04 3.0607930218104273e-04
128 2.4340171129255610e-04 9.1031793613336224e-04 -2.0432615921921155e-04
213 -1.2143823116513258e-04 -6.3448871142645453e-04 -1.1221240971752429e-04
58 5.8226902442107752e-04 -2.3340506605389537e-03 4.3328214919891519e-06
93 7.2831819250754640e-04 -3.0228692678307517e-04 -3.6407687537507702e-04
588 -3.1744573395181655e-04 2.1532024866452852e-03 2.7440490680467352e-04
326 -3.2284624219472424e-04 3.6795237979053138e-04 3.3992888935468617e-04
464 -6.7029524078148384e-04 1.1518272088719511e-04 -2.5458974227682112e-04
545 -2.2136449650870275e-05 1.5285963120556746e-03 -1.1259332281015105e-03
246 -5.1214844894745194e-04 -6.9450767234265672e-04 -1.0810289448744666e-03
439 -1.9182731092134500e-03 3.2945814474361619e-03 -9.0562246512966994e-04
180 -1.4525189799096910e-03 -1.9399711353225925e-03 -1.5056037786002410e-03
528 3.3689902788232424e-03 -1.3556235556112682e-03 2.4109802528681735e-03
263 4.8199783293314088e-04 -3.2112936381305975e-03 -4.2633793774631747e-03
314 -9.8708747940540547e-05 1.1586447253867679e-03 1.1357732716498290e-03
47 -3.8148727469274182e-04 2.0536621562422829e-03 3.1278520966752038e-03
516 7.4445693265075253e-04 -1.4357152499785480e-03 5.8208233597803699e-04
547 -2.1017203405157735e-04 6.0162661026282559e-04 1.6248798369976570e-03
364 1.3760732171691911e-03 7.7829240610803412e-04 2.6865208954641214e-04
161 2.2260100271531370e-03 1.3409728579220151e-03 2.6096266644759725e-04
40 -3.6020832443217242e-03 -2.1192652640303678e-03 -5.2961475599461834e-04
