LAMMPS data file via write_data, version 30 Jul 2016, timestep = 600000

2080 atoms
8 atom types

0.0000000000000000e+00 4.0000000000000000e+01 xlo xhi
0.0000000000000000e+00 4.0000000000000000e+01 ylo yhi
0.0000000000000000e+00 1.0000000000000000e+02 zlo zhi

Masses

1 3.896
2 21.44
3 1058.08
4 8.378
5 8.378
6 8.378
7 8.378
8 8.378

Atoms # meso-molecular

1 2 4 2.2559723595316457e+00 -3.2394946081470971e+03 4.2000000000000000e+03 0.0000000000000000e+00 0.0000000000000000e+00 2.5000000000000000e+00 
2 2 4 2.2559723595316457e+00 -1.4744934296788099e+03 4.2000000000000000e+03 0.0000000000000000e+00 2.0000000000000000e+00 2.5000000000000000e+00 
3 2 4 2.2559723595316457e+00 -2.0889924376337973e+02 4.2000000000000000e+03 0.0000000000000000e+00 4.0000000000000000e+00 2.5000000000000000e+00 
21 2 4 2.2559723595316457e+00 -3.9380396166033029e+02 4.2000000000000000e+03 2.0000000000000000e+00 0.0000000000000000e+00 2.5000000000000000e+00 
22 2 4 2.2559723595316457e+00 4.1141013777391902e+02 4.2000000000000000e+03 2.0000000000000000e+00 2.0000000000000000e+00 2.5000000000000000e+00 
23 2 4 2.2559723595316457e+00 4.1361051294518700e+02 4.2000000000000000e+03 2.0000000000000000e+00 4.0000000000000000e+00 2.5000000000000000e+00 
41 2 4 2.2559723595316457e+00 4.4584680414967461e+03 4.2000000000000000e+03 4.0000000000000000e+00 0.0000000000000000e+00 2.5000000000000000e+00 
42 2 4 2.2559723595316457e+00 3.5215274067450309e+03 4.2000000000000000e+03 4.0000000000000000e+00 2.0000000000000000e+00 2.5000000000000000e+00 
43 2 4 2.2559723595316457e+00 1.3311068059295569e+03 4.2000000000000000e+03 4.0000000000000000e+00 4.0000000000000000e+00 2.5000000000000000e+00 
61 2 4 2.2559723595316457e+00 4.9055961342917999e+03 4.2000000000000000e+03 6.0000000000000000e+00 0.0000000000000000e+00 2.5000000000000000e+00 
62 2 4 2.2559723595316457e+00 3.5415535160519917e+03 4.2000000000000000e+03 6.0000000000000000e+00 2.0000000000000000e+00 2.5000000000000000e+00 
63 2 4 2.2559723595316457e+00 1.2349956335862787e+03 4.2000000000000000e+03 6.0000000000000000e+00 4.0000000000000000e+00 2.5000000000000000e+00 
81 2 4 2.2559723595316457e+00 6.0686363865180351e+02 4.2000000000000000e+03 8.0000000000000000e+00 0.0000000000000000e+00 2.5000000000000000e+00 
82 2 4 2.2559723595316457e+00 5.3349916955638696e+02 4.2000000000000000e+03 8.0000000000000000e+00 2.0000000000000000e+00 2.5000000000000000e+00 
83 2 4 2.2559723595316457e+00 1.7059940964707371e+02 4.2000000000000000e+03 8.0000000000000000e+00 4.0000000000000000e+00 2.5000000000000000e+00 
101 2 4 2.2559723595316457e+00 -1.6230311572075859e+03 4.2000000000000000e+03 1.0000000000000000e+01 0.0000000000000000e+00 2.5000000000000000e+00 
102 2 4 2.2559723595316457e+00 -1.3111184043926417e+03 4.2000000000000000e+03 1.0000000000000000e+01 2.0000000000000000e+00 2.5000000000000000e+00 
103 2 4 2.2559723595316457e+00 -2.1421919896278013e+02 4.2000000000000000e+03 1.0000000000000000e+01 4.0000000000000000e+00 2.5000000000000000e+00 
121 2 4 2.2559723595316457e+00 -3.0349399972061119e+03 4.2000000000000000e+03 1.2000000000000000e+01 0.0000000000000000e+00 2.5000000000000000e+00 
122 2 4 2.2559723595316457e+00 -2.8654192919514489e+03 4.2000000000000000e+03 1.2000000000000000e+01 2.0000000000000000e+00 2.5000000000000000e+00 
123 2 4 2.2559723595316457e+00 -6.6671991702915511e+02 4.2000000000000000e+03 1.2000000000000000e+01 4.0000000000000000e+00 2.5000000000000000e+00 
141 2 4 2.2559723595316457e+00 -6.9648578470485736e+03 4.2000000000000000e+03 1.4000000000000000e+01 0.0000000000000000e+00 2.5000000000000000e+00 
142 2 4 2.2559723595316457e+00 -5.3544638006032765e+03 4.2000000000000000e+03 1.4000000000000000e+01 2.0000000000000000e+00 2.5000000000000000e+00 
143 2 4 2.2559723595316457e+00 -1.5271208947718719e+03 4.2000000000000000e+03 1.4000000000000000e+01 4.0000000000000000e+00 2.5000000000000000e+00 
161 2 4 2.2559723595316457e+00 -6.2361418194146208e+03 4.2000000000000000e+03 1.6000000000000000e+01 0.0000000000000000e+00 2.5000000000000000e+00 
162 2 4 2.2559723595316457e+00 -3.4545856783704921e+03 4.2000000000000000e+03 1.6000000000000000e+01 2.0000000000000000e+00 2.5000000000000000e+00 
163 2 4 2.2559723595316457e+00 1.1901055419511067e+03 4.2000000000000000e+03 1.6000000000000000e+01 4.0000000000000000e+00 2.5000000000000000e+00 
181 2 4 2.2559723595316457e+00 9.3244696062284947e+02 4.2000000000000000e+03 1.8000000000000000e+01 0.0000000000000000e+00 2.5000000000000000e+00 
182 2 4 2.2559723595316457e+00 3.5702547237120630e+03 4.2000000000000000e+03 1.8000000000000000e+01 2.0000000000000000e+00 2.5000000000000000e+00 
183 2 4 2.2559723595316457e+00 5.6654341658589346e+03 4.2000000000000000e+03 1.8000000000000000e+01 4.0000000000000000e+00 2.5000000000000000e+00 
4 2 4 2.2559723595316457e+00 -4.6851311693706742e+02 4.2000000000000000e+03 0.0000000000000000e+00 6.0000000000000000e+00 2.5000000000000000e+00 
5 2 4 2.2559723595316457e+00 -7.5555136981711848e+02 4.2000000000000000e+03 0.0000000000000000e+00 8.0000000000000000e+00 2.5000000000000000e+00 
24 2 4 2.2559723595316457e+00 -1.5626806651784750e+02 4.2000000000000000e+03 2.0000000000000000e+00 6.0000000000000000e+00 2.5000000000000000e+00 
25 2 4 2.2559723595316457e+00 7.2567236573111722e+02 4.2000000000000000e+03 2.0000000000000000e+00 8.0000000000000000e+00 2.5000000000000000e+00 
44 2 4 2.2559723595316457e+00 -2.6904938849706981e+00 4.2000000000000000e+03 4.0000000000000000e+00 6.0000000000000000e+00 2.5000000000000000e+00 
45 2 4 2.2559723595316457e+00 9.3574849071944811e+02 4.2000000000000000e+03 4.0000000000000000e+00 8.0000000000000000e+00 2.5000000000000000e+00 
64 2 4 2.2559723595316457e+00 -2.9859208734825422e+01 4.2000000000000000e+03 6.0000000000000000e+00 6.0000000000000000e+00 2.5000000000000000e+00 
65 2 4 2.2559723595316457e+00 -8.7796954249616363e+02 4.2000000000000000e+03 6.0000000000000000e+00 8.0000000000000000e+00 2.5000000000000000e+00 
84 2 4 2.2559723595316457e+00 1.0712464830091785e+02 4.2000000000000000e+03 8.0000000000000000e+00 6.0000000000000000e+00 2.5000000000000000e+00 
85 2 4 2.2559723595316457e+00 -1.2044974361053942e+03 4.2000000000000000e+03 8.0000000000000000e+00 8.0000000000000000e+00 2.5000000000000000e+00 
104 2 4 2.2559723595316457e+00 9.5630346421364425e+02 4.2000000000000000e+03 1.0000000000000000e+01 6.0000000000000000e+00 2.5000000000000000e+00 
105 2 4 2.2559723595316457e+00 1.4972518973901165e+03 4.2000000000000000e+03 1.0000000000000000e+01 8.0000000000000000e+00 2.5000000000000000e+00 
124 2 4 2.2559723595316457e+00 1.8377187065639203e+03 4.2000000000000000e+03 1.2000000000000000e+01 6.0000000000000000e+00 2.5000000000000000e+00 
125 2 4 2.2559723595316457e+00 3.1792751561268215e+03 4.2000000000000000e+03 1.2000000000000000e+01 8.0000000000000000e+00 2.5000000000000000e+00 
144 2 4 2.2559723595316457e+00 1.5132018244037918e+03 4.2000000000000000e+03 1.4000000000000000e+01 6.0000000000000000e+00 2.5000000000000000e+00 
145 2 4 2.2559723595316457e+00 4.3044095464144812e+02 4.2000000000000000e+03 1.4000000000000000e+01 8.0000000000000000e+00 2.5000000000000000e+00 
164 2 4 2.2559723595316457e+00 2.1311521479360244e+03 4.2000000000000000e+03 1.6000000000000000e+01 6.0000000000000000e+00 2.5000000000000000e+00 
165 2 4 2.2559723595316457e+00 -3.5114270667634955e+03 4.2000000000000000e+03 1.6000000000000000e+01 8.0000000000000000e+00 2.5000000000000000e+00 
184 2 4 2.2559723595316457e+00 3.3243067884265256e+03 4.2000000000000000e+03 1.8000000000000000e+01 6.0000000000000000e+00 2.5000000000000000e+00 
185 2 4 2.2559723595316457e+00 -5.2544843369127921e+03 4.2000000000000000e+03 1.8000000000000000e+01 8.0000000000000000e+00 2.5000000000000000e+00 
6 2 4 2.2559723595316457e+00 2.5639825931526934e+02 4.2000000000000000e+03 0.0000000000000000e+00 1.0000000000000000e+01 2.5000000000000000e+00 
7 2 4 2.2559723595316457e+00 1.2863054937734014e+03 4.2000000000000000e+03 0.0000000000000000e+00 1.2000000000000000e+01 2.5000000000000000e+00 
8 2 4 2.2559723595316457e+00 1.2031671752337375e+03 4.2000000000000000e+03 0.0000000000000000e+00 1.4000000000000000e+01 2.5000000000000000e+00 
26 2 4 2.2559723595316457e+00 3.6594702756687116e+03 4.2000000000000000e+03 2.0000000000000000e+00 1.0000000000000000e+01 2.5000000000000000e+00 
27 2 4 2.2559723595316457e+00 5.0207391713677953e+03 4.2000000000000000e+03 2.0000000000000000e+00 1.2000000000000000e+01 2.5000000000000000e+00 
28 2 4 2.2559723595316457e+00 3.0244993305441026e+03 4.2000000000000000e+03 2.0000000000000000e+00 1.4000000000000000e+01 2.5000000000000000e+00 
46 2 4 2.2559723595316457e+00 3.0233605498920110e+03 4.2000000000000000e+03 4.0000000000000000e+00 1.0000000000000000e+01 2.5000000000000000e+00 
47 2 4 2.2559723595316457e+00 3.9176211787879583e+03 4.2000000000000000e+03 4.0000000000000000e+00 1.2000000000000000e+01 2.5000000000000000e+00 
48 2 4 2.2559723595316457e+00 2.3305702212901469e+03 4.2000000000000000e+03 4.0000000000000000e+00 1.4000000000000000e+01 2.5000000000000000e+00 
66 2 4 2.2559723595316457e+00 -2.6000039749855096e+03 4.2000000000000000e+03 6.0000000000000000e+00 1.0000000000000000e+01 2.5000000000000000e+00 
67 2 4 2.2559723595316457e+00 -3.1000371933837546e+03 4.2000000000000000e+03 6.0000000000000000e+00 1.2000000000000000e+01 2.5000000000000000e+00 
68 2 4 2.2559723595316457e+00 -1.0156967468206083e+03 4.2000000000000000e+03 6.0000000000000000e+00 1.4000000000000000e+01 2.5000000000000000e+00 
86 2 4 2.2559723595316457e+00 -4.3922134750046207e+03 4.2000000000000000e+03 8.0000000000000000e+00 1.0000000000000000e+01 2.5000000000000000e+00 
87 2 4 2.2559723595316457e+00 -5.8124076725692739e+03 4.2000000000000000e+03 8.0000000000000000e+00 1.2000000000000000e+01 2.5000000000000000e+00 
88 2 4 2.2559723595316457e+00 -1.6455910036990285e+03 4.2000000000000000e+03 8.0000000000000000e+00 1.4000000000000000e+01 2.5000000000000000e+00 
106 2 4 2.2559723595316457e+00 1.1273575671526812e+02 4.2000000000000000e+03 1.0000000000000000e+01 1.0000000000000000e+01 2.5000000000000000e+00 
107 2 4 2.2559723595316457e+00 -2.7016869870885516e+03 4.2000000000000000e+03 1.0000000000000000e+01 1.2000000000000000e+01 2.5000000000000000e+00 
108 2 4 2.2559723595316457e+00 -2.1805322319894744e+03 4.2000000000000000e+03 1.0000000000000000e+01 1.4000000000000000e+01 2.5000000000000000e+00 
126 2 4 2.2559723595316457e+00 2.5112142048050350e+03 4.2000000000000000e+03 1.2000000000000000e+01 1.0000000000000000e+01 2.5000000000000000e+00 
127 2 4 2.2559723595316457e+00 -1.5216385489702120e+03 4.2000000000000000e+03 1.2000000000000000e+01 1.2000000000000000e+01 2.5000000000000000e+00 
128 2 4 2.2559723595316457e+00 -5.8749621656371291e+03 4.2000000000000000e+03 1.2000000000000000e+01 1.4000000000000000e+01 2.5000000000000000e+00 
146 2 4 2.2559723595316457e+00 -2.9873534656936740e+03 4.2000000000000000e+03 1.4000000000000000e+01 1.0000000000000000e+01 2.5000000000000000e+00 
147 2 4 2.2559723595316457e+00 -7.0952051583307293e+03 4.2000000000000000e+03 1.4000000000000000e+01 1.2000000000000000e+01 2.5000000000000000e+00 
148 2 4 2.2559723595316457e+00 -1.1250074591377310e+04 4.2000000000000000e+03 1.4000000000000000e+01 1.4000000000000000e+01 2.5000000000000000e+00 
166 2 4 2.2559723595316457e+00 -1.2235978237542095e+04 4.2000000000000000e+03 1.6000000000000000e+01 1.0000000000000000e+01 2.5000000000000000e+00 
167 2 4 2.2559723595316457e+00 -1.7478873586593330e+04 4.2000000000000000e+03 1.6000000000000000e+01 1.2000000000000000e+01 2.5000000000000000e+00 
168 2 4 2.2559723595316457e+00 -1.8337396649462866e+04 4.2000000000000000e+03 1.6000000000000000e+01 1.4000000000000000e+01 2.5000000000000000e+00 
186 2 4 2.2559723595316457e+00 -1.7430761392331253e+04 4.2000000000000000e+03 1.8000000000000000e+01 1.0000000000000000e+01 2.5000000000000000e+00 
187 2 4 2.2559723595316457e+00 -2.4379584435420540e+04 4.2000000000000000e+03 1.8000000000000000e+01 1.2000000000000000e+01 2.5000000000000000e+00 
188 2 4 2.2559723595316457e+00 -2.3441022755406608e+04 4.2000000000000000e+03 1.8000000000000000e+01 1.4000000000000000e+01 2.5000000000000000e+00 
9 2 4 2.2559723595316457e+00 1.6365796876998747e+03 4.2000000000000000e+03 0.0000000000000000e+00 1.6000000000000000e+01 2.5000000000000000e+00 
10 2 4 2.2559723595316457e+00 1.1502502818249468e+03 4.2000000000000000e+03 0.0000000000000000e+00 1.8000000000000000e+01 2.5000000000000000e+00 
29 2 4 2.2559723595316457e+00 8.4933904664787951e+02 4.2000000000000000e+03 2.0000000000000000e+00 1.6000000000000000e+01 2.5000000000000000e+00 
30 2 4 2.2559723595316457e+00 -1.1832948012357167e+02 4.2000000000000000e+03 2.0000000000000000e+00 1.8000000000000000e+01 2.5000000000000000e+00 
49 2 4 2.2559723595316457e+00 3.7965210170114699e+02 4.2000000000000000e+03 4.0000000000000000e+00 1.6000000000000000e+01 2.5000000000000000e+00 
50 2 4 2.2559723595316457e+00 -5.1479641815537192e+01 4.2000000000000000e+03 4.0000000000000000e+00 1.8000000000000000e+01 2.5000000000000000e+00 
69 2 4 2.2559723595316457e+00 1.1569244246371791e+03 4.2000000000000000e+03 6.0000000000000000e+00 1.6000000000000000e+01 2.5000000000000000e+00 
70 2 4 2.2559723595316457e+00 1.2992768251952157e+03 4.2000000000000000e+03 6.0000000000000000e+00 1.8000000000000000e+01 2.5000000000000000e+00 
89 2 4 2.2559723595316457e+00 3.7225448458862884e+03 4.2000000000000000e+03 8.0000000000000000e+00 1.6000000000000000e+01 2.5000000000000000e+00 
90 2 4 2.2559723595316457e+00 4.1743351328082317e+03 4.2000000000000000e+03 8.0000000000000000e+00 1.8000000000000000e+01 2.5000000000000000e+00 
109 2 4 2.2559723595316457e+00 1.8600100204204937e+03 4.2000000000000000e+03 1.0000000000000000e+01 1.6000000000000000e+01 2.5000000000000000e+00 
110 2 4 2.2559723595316457e+00 3.6034866056940091e+03 4.2000000000000000e+03 1.0000000000000000e+01 1.8000000000000000e+01 2.5000000000000000e+00 
129 2 4 2.2559723595316457e+00 -5.2886269454637422e+03 4.2000000000000000e+03 1.2000000000000000e+01 1.6000000000000000e+01 2.5000000000000000e+00 
130 2 4 2.2559723595316457e+00 -2.2521373698609882e+03 4.2000000000000000e+03 1.2000000000000000e+01 1.8000000000000000e+01 2.5000000000000000e+00 
149 2 4 2.2559723595316457e+00 -1.1833579039303368e+04 4.2000000000000000e+03 1.4000000000000000e+01 1.6000000000000000e+01 2.5000000000000000e+00 
150 2 4 2.2559723595316457e+00 -9.5042092987081924e+03 4.2000000000000000e+03 1.4000000000000000e+01 1.8000000000000000e+01 2.5000000000000000e+00 
169 2 4 2.2559723595316457e+00 -1.8157761627671716e+04 4.2000000000000000e+03 1.6000000000000000e+01 1.6000000000000000e+01 2.5000000000000000e+00 
170 2 4 2.2559723595316457e+00 -1.7740606278457759e+04 4.2000000000000000e+03 1.6000000000000000e+01 1.8000000000000000e+01 2.5000000000000000e+00 
189 2 4 2.2559723595316457e+00 -2.2157801302951757e+04 4.2000000000000000e+03 1.8000000000000000e+01 1.6000000000000000e+01 2.5000000000000000e+00 
190 2 4 2.2559723595316457e+00 -2.2948384489400254e+04 4.2000000000000000e+03 1.8000000000000000e+01 1.8000000000000000e+01 2.5000000000000000e+00 
1811 1413 2 1.0280018587139781e+00 -5.4591996262986027e+05 4.2000000000000000e+03 4.2885297404054352e+00 4.2977872566656412e+00 1.0345997564256091e+01 
1859 1461 2 1.0279980201099876e+00 -4.0007648049746855e+05 4.2000000000000000e+03 3.1457552734774650e+00 4.5576597263463476e+00 1.2847992178763834e+01 
1286 888 2 1.0279957632286019e+00 -6.6439240133117256e+05 4.2000000000000000e+03 3.5297267087854896e+00 3.8402274374969037e+00 1.2953004238531141e+01 
656 258 2 1.0279946719591533e+00 2.0650409810723067e+05 4.2000000000000000e+03 3.6920077128268431e+00 3.5751396035634992e+00 1.2970771562814095e+01 
1483 1085 2 1.0279967000785704e+00 -9.0583558933730493e+05 4.2000000000000000e+03 3.2326839764846462e+00 4.8153005475459150e+00 1.3200964441982382e+01 
1144 746 2 1.0280007339326132e+00 2.2016544666289084e+05 4.2000000000000000e+03 5.3191460342682682e+00 4.2999342718193416e+00 9.7501649932248409e+00 
534 136 2 1.0280001527019043e+00 8.1831053249355813e+04 4.2000000000000000e+03 5.4785122453984885e+00 4.0653866517780877e+00 9.7810053193103261e+00 
1396 998 2 1.0279959218359402e+00 2.6247967551853514e+05 4.2000000000000000e+03 6.7348137531455752e+00 1.0241875622879610e+00 1.4267768321290065e+01 
956 558 2 1.0279876159064842e+00 1.1413321777156477e+05 4.2000000000000000e+03 6.2013359439069937e+00 1.3495368224012370e+00 1.4010829947376282e+01 
979 581 2 1.0279968410034692e+00 -9.0689860598946584e+05 4.2000000000000000e+03 7.8081607409240767e+00 4.3545048747234238e+00 9.9448691356949368e+00 
1978 1580 2 1.0279967301816100e+00 3.1928732088025654e+05 4.2000000000000000e+03 7.8581619770633377e+00 4.4394356290734365e+00 9.9559900951255287e+00 
1066 668 2 1.0280042568322270e+00 -4.5207311866868567e+05 4.2000000000000000e+03 7.1088969167753548e+00 4.6810247433997141e+00 1.3720114148270369e+01 
1237 839 2 1.0279974931230875e+00 6.2619683658556791e+05 4.2000000000000000e+03 8.0941233982524583e+00 4.1862872729501053e+00 1.0130163296657221e+01 
879 481 2 1.0279979934981569e+00 -6.5787583622895612e+05 4.2000000000000000e+03 8.2914708348770674e+00 4.0788174511501252e+00 1.0270077564425327e+01 
1810 1412 2 1.0279961182439428e+00 -5.3971321013967262e+05 4.2000000000000000e+03 6.7127817512483432e+00 1.3236101293496545e+00 1.3263705789380705e+01 
1251 853 2 1.0279902814905144e+00 -5.4356917012937367e+05 4.2000000000000000e+03 6.3936054457395404e+00 1.2310406892877808e+00 1.4095442044354840e+01 
1313 915 2 1.0279915337377916e+00 3.2425619534171838e+05 4.2000000000000000e+03 6.4717256555465124e+00 1.1835214804899110e+00 1.4129760921487591e+01 
950 552 2 1.0280185942541413e+00 -6.8605094704955793e+05 4.2000000000000000e+03 1.0209192518077554e+01 4.7222414687281482e+00 1.3723271238594966e+01 
1766 1368 2 1.0280003473147781e+00 -1.5169064306848226e+05 4.2000000000000000e+03 1.1193698760730902e+01 4.0224867641510427e+00 1.3597275469078719e+01 
1127 729 2 1.0279930532819619e+00 -7.4616007860644546e+05 4.2000000000000000e+03 1.1280168709746876e+01 4.2110109710541268e+00 1.2238479192904762e+01 
1297 899 2 1.0279885067877861e+00 2.9849965649957379e+05 4.2000000000000000e+03 1.1458759341158315e+01 3.2204750895905327e+00 1.2215717579025116e+01 
2076 1678 2 1.0279912671427887e+00 4.0469307491975074e+05 4.2000000000000000e+03 1.2279379838579302e+01 5.2370942477302973e-01 1.2568524409429818e+01 
1908 1510 2 1.0279910662708289e+00 3.3897361942649883e+05 4.2000000000000000e+03 1.2310596959079392e+01 5.1005158441485343e-01 1.2579519282282899e+01 
467 69 2 1.0279913364038400e+00 3.2546174588568910e+05 4.2000000000000000e+03 1.2273165658838883e+01 6.7967316622995444e-01 1.2558216870324831e+01 
1069 671 2 1.0279922860328092e+00 4.3360296343275934e+05 4.2000000000000000e+03 2.6521796511163629e+00 6.4036601205307333e+00 1.2689991456604469e+01 
1240 842 2 1.0279651211836813e+00 6.2207184899010614e+05 4.2000000000000000e+03 2.0862516197607799e+00 8.2858401943224944e+00 1.2844219236330140e+01 
1321 923 2 1.0279679691138583e+00 3.7227144033413054e+05 4.2000000000000000e+03 2.2989046647962108e+00 8.2483590602161385e+00 1.3336885475520242e+01 
1986 1588 2 1.0279750306837405e+00 1.3159528378125111e+05 4.2000000000000000e+03 1.2848259671371876e+00 8.9118180448645496e+00 1.3662837023450914e+01 
752 354 2 1.0279911010379670e+00 2.6944103869436792e+05 4.2000000000000000e+03 5.2760518694957543e+00 7.9567558383746801e+00 1.0328934629848582e+01 
991 593 2 1.0280052819591874e+00 -7.0038197645912750e+05 4.2000000000000000e+03 5.3280802962348091e+00 6.8580863580246989e+00 1.2999285282641884e+01 
1551 1153 2 1.0280053664462903e+00 -5.3306958163825271e+05 4.2000000000000000e+03 5.7669229531707851e+00 6.8886371520470160e+00 1.2779651244152715e+01 
476 78 2 1.0279943008461641e+00 4.7768527521082707e+05 4.2000000000000000e+03 6.0734890795614653e+00 6.6288782828853741e+00 9.9706767806236858e+00 
2077 1679 2 1.0280004126180746e+00 1.7568472802792990e+05 4.2000000000000000e+03 1.0913220356159094e+01 5.0699440967529101e+00 1.2117111007148576e+01 
1759 1361 2 1.0279968072838079e+00 -4.3417271672979818e+05 4.2000000000000000e+03 1.1409271678278087e+01 6.9884049672597923e+00 1.3588634663658059e+01 
759 361 2 1.0279949741615746e+00 -7.1083645611745410e+05 4.2000000000000000e+03 1.1364645878664534e+01 6.9568937810036626e+00 1.3227622502673356e+01 
1490 1092 2 1.0279991739180729e+00 -6.5343984450654732e+05 4.2000000000000000e+03 1.1688507408222092e+01 7.6728450928953942e+00 1.4078970709894037e+01 
1744 1346 2 1.0281192336782956e+00 5.6490671152562136e+05 4.2000000000000000e+03 3.2141197883186927e+00 1.0817636458036310e+01 1.2670598806567584e+01 
1259 861 2 1.0279546359669562e+00 -5.3678731817560038e+05 4.2000000000000000e+03 1.8999994214703331e+00 1.1074408979175068e+01 1.1311672301567144e+01 
1832 1434 2 1.0279858245659168e+00 1.8637408825782075e+05 4.2000000000000000e+03 4.2536803258714615e+00 1.1270074505111351e+01 1.0391496902683063e+01 
1674 1276 2 1.0279822809864023e+00 -5.7484358180644782e+05 4.2000000000000000e+03 2.3593081571699376e-01 1.2027644977537111e+01 1.0056004200441196e+01 
1203 805 2 1.0279802752117921e+00 -4.8961356211057858e+05 4.2000000000000000e+03 3.4820520486247875e-01 1.2029373705695141e+01 1.0138868599386369e+01 
1790 1392 2 1.0279885566320948e+00 -3.7053960088098719e+05 4.2000000000000000e+03 4.5552148758221520e+00 1.1456921533178230e+01 1.0277637317866329e+01 
1833 1435 2 1.0280002099467664e+00 1.7045849754265783e+05 4.2000000000000000e+03 8.4900168129687366e+00 1.0053191245622330e+01 1.1564117105411810e+01 
1914 1516 2 1.0279989564147631e+00 4.3852339898096822e+05 4.2000000000000000e+03 8.2735670480307828e+00 1.0400098973631003e+01 1.1219175575115335e+01 
1634 1236 2 1.0279987521032037e+00 -6.4748437590937468e+05 4.2000000000000000e+03 8.2323561039623225e+00 1.0513682161591245e+01 1.1147109371862422e+01 
2079 1681 2 1.0279988439420649e+00 3.3791118447073788e+05 4.2000000000000000e+03 8.1289977829864348e+00 1.0586689081396832e+01 1.1016958403156158e+01 
582 184 2 1.0279949857504513e+00 -4.2608416451123881e+05 4.2000000000000000e+03 6.5569889908695993e+00 1.0821859024340997e+01 9.7692761836749629e+00 
707 309 2 1.0279905456055678e+00 1.0029592999236771e+04 4.2000000000000000e+03 5.2820356033446778e+00 1.1069697852905414e+01 9.8192166557102905e+00 
605 207 2 1.0279943350939771e+00 1.8470481440925741e+05 4.2000000000000000e+03 5.8464458144759934e+00 1.1734352730200083e+01 9.9692578860814596e+00 
1397 999 2 1.0279932631756303e+00 5.6985861431817443e+05 4.2000000000000000e+03 5.9200280307393003e+00 1.4439365137008780e+01 1.2198897541403177e+01 
904 506 2 1.0280010113370561e+00 5.5337799937290116e+05 4.2000000000000000e+03 7.0269433955776206e+00 1.4714243387114109e+01 1.3619147212471725e+01 
635 237 2 1.0280059923085916e+00 -5.2652109501631476e+05 4.2000000000000000e+03 6.7417722320017903e+00 1.4822444183888518e+01 1.3918131900470142e+01 
1072 674 2 1.0280056053474551e+00 4.4898226438238594e+05 4.2000000000000000e+03 1.2021039230750841e+01 1.0054602701024042e+01 1.4027595035886495e+01 
418 20 2 1.0280055949355766e+00 1.5520861231105254e+05 4.2000000000000000e+03 1.1929015423246982e+01 1.0257270500472149e+01 1.4004020866928473e+01 
414 16 2 1.0279373286712457e+00 4.1729262271650397e+05 4.2000000000000000e+03 4.8365801430714468e+00 1.5299521770546130e+01 1.3197014406234995e+01 
1932 1534 2 1.0279941527953547e+00 5.1235409011930379e+05 4.2000000000000000e+03 2.3376295360573600e+00 1.7582288296581012e+01 1.2921113497849369e+01 
1217 819 2 1.0279940704034474e+00 4.5245892712763563e+05 4.2000000000000000e+03 2.3373299669649579e+00 1.7582654052314712e+01 1.2922265940334164e+01 
1988 1590 2 1.0279938983368784e+00 4.7170119114213553e+05 4.2000000000000000e+03 2.3364783994991924e+00 1.7583458347090044e+01 1.2925429110424602e+01 
1082 684 2 1.0279939785784411e+00 -5.4046866930506611e+05 4.2000000000000000e+03 2.3368454325222139e+00 1.7582946231639387e+01 1.2924089110203841e+01 
1866 1468 2 1.0279936077493590e+00 -2.5332412953232721e+05 4.2000000000000000e+03 2.3345998684992417e+00 1.7584663123968639e+01 1.2931911536512112e+01 
1369 971 2 1.0280057587383156e+00 4.0168293009306985e+05 4.2000000000000000e+03 2.1208195676993769e+00 1.7847194676246122e+01 1.3142157331277538e+01 
614 216 2 1.0279985652757930e+00 -3.9044440737239848e+05 4.2000000000000000e+03 8.5333037645599308e-01 1.9179807527845504e+01 1.2541339092536328e+01 
1882 1484 2 1.0279877328083344e+00 -1.5617596863444693e+04 4.2000000000000000e+03 8.0615497262431912e+00 1.7298160724430545e+00 1.6599927102898043e+01 
1557 1159 2 1.0279780516654604e+00 4.3354616798777651e+05 4.2000000000000000e+03 8.1369312991323195e+00 1.3909986297585819e+00 1.6942684070781603e+01 
2050 1652 2 1.0279904668852482e+00 2.3552266309022089e+05 4.2000000000000000e+03 8.3408595487613386e+00 8.6616036036866656e-02 1.5601489623118708e+01 
1145 747 2 1.0280217846046591e+00 3.0235349496756052e+05 4.2000000000000000e+03 1.0039231557978392e+01 1.7449059863421197e+00 1.7658923805013508e+01 
545 147 2 1.0280132527516979e+00 5.1179296103233693e+05 4.2000000000000000e+03 1.0217575300307713e+01 1.3483187334993667e+00 1.6956211080122788e+01 
1599 1201 2 1.0279966924994079e+00 -7.0191302808263083e+05 4.2000000000000000e+03 1.7043719244895883e+01 2.6110017641601853e+00 1.6745359762297415e+01 
617 219 2 1.0279925265309953e+00 1.6885686241071380e+05 4.2000000000000000e+03 1.7216344006138392e+01 2.6035546210550828e+00 1.6882991823903783e+01 
590 192 2 1.0280068552069437e+00 -1.4611415404068195e+05 4.2000000000000000e+03 1.7230022308001132e+01 1.4579791138536158e+00 1.7021354731086927e+01 
1764 1366 2 1.0279913089585448e+00 2.3338950834104314e+05 4.2000000000000000e+03 1.7291024649631382e+01 2.5709822285335400e+00 1.6952985527575382e+01 
1171 773 2 1.0280116113013711e+00 -6.5912997807357018e+05 4.2000000000000000e+03 1.6554614316886163e+01 2.5130556970881885e+00 1.7076789620982350e+01 
1926 1528 2 1.0280045689750976e+00 4.3382537077190261e+05 4.2000000000000000e+03 1.6667349813754853e+01 2.5621580981538341e+00 1.7178931764583247e+01 
1747 1349 2 1.0280040091515050e+00 2.8613864261009009e+05 4.2000000000000000e+03 1.7244126492639733e+01 1.4768840869072020e+00 1.7075517334896141e+01 
1935 1537 2 1.0280289071620679e+00 6.0660339360650069e+04 4.2000000000000000e+03 1.6668443398219569e+01 1.6575368118167839e+00 1.7302561350884950e+01 
1765 1367 2 1.0279987801023944e+00 6.1008222579764071e+04 4.2000000000000000e+03 1.1619162747039815e+00 9.8524499001976604e+00 1.4967805351460813e+01 
1160 762 2 1.0280026166327734e+00 2.9507523477626231e+05 4.2000000000000000e+03 1.1589008404766691e+01 8.5974439864984049e+00 1.4826027001484798e+01 
531 133 2 1.0279958552564052e+00 2.4045560223434359e+05 4.2000000000000000e+03 2.3061048014695729e+00 1.0354426011179971e+01 1.8654339064475401e+01 
1312 914 2 1.0279980521729444e+00 2.0144792489086618e+05 4.2000000000000000e+03 9.7042763644233332e-01 1.0290311411114978e+01 1.5686870158107137e+01 
1980 1582 2 1.0280228909223246e+00 3.7344820420595177e+05 4.2000000000000000e+03 7.2371868224515967e-01 1.1661798604566643e+01 1.5083623145943699e+01 
1576 1178 2 1.0279977072051025e+00 4.3516630872357875e+05 4.2000000000000000e+03 7.0857801919779808e+00 1.4106620640132689e+01 1.4330488351534569e+01 
962 564 2 1.0279932868403028e+00 -5.6230995676986850e+05 4.2000000000000000e+03 7.1388263844061592e+00 1.3852594906724415e+01 1.4388546974530472e+01 
967 569 2 1.0280069492218993e+00 -7.1401972827790107e+05 4.2000000000000000e+03 6.8179744723789799e+00 1.4089514316021837e+01 1.4412276557464393e+01 
591 193 2 1.0280265806709636e+00 -1.5724900924138800e+05 4.2000000000000000e+03 6.3870524701868394e+00 1.4402551634128283e+01 1.4395938222108075e+01 
2051 1653 2 1.0279951363275441e+00 2.1838912311627579e+05 4.2000000000000000e+03 1.0683586025690385e+01 1.0679670053100969e+01 1.4965389491569361e+01 
691 293 2 1.0279912969940777e+00 -2.4808367598383824e+05 4.2000000000000000e+03 1.0544052402524741e+01 1.0857845929011617e+01 1.4869077973793217e+01 
419 21 2 1.0279924025086153e+00 1.4986706949636509e+05 4.2000000000000000e+03 1.0713565655553657e+01 1.0954104679003894e+01 1.4781310544367095e+01 
1457 1059 2 1.0279897798307973e+00 8.4654234744916452e+04 4.2000000000000000e+03 1.0717780282228537e+01 1.1235028888783331e+01 1.4444021471698571e+01 
564 166 2 1.0279804427112029e+00 4.0574199097403756e+05 4.2000000000000000e+03 8.3560043113486149e+00 3.2001114353454647e+00 2.0535200138916441e+01 
615 217 2 1.0279899349877466e+00 -3.9895063324402331e+05 4.2000000000000000e+03 8.3339795058576378e+00 4.9022520751321750e+00 2.2579211314031333e+01 
919 521 2 1.0279703986709217e+00 -5.5109333668690897e+05 4.2000000000000000e+03 8.7672795689854297e+00 3.0860146754279114e+00 2.1331960842840765e+01 
1484 1086 2 1.0279892460686337e+00 3.2884578834158159e+05 4.2000000000000000e+03 8.9050939344659223e+00 2.7707104001658651e+00 2.1255316987222880e+01 
878 480 2 1.0280003052991609e+00 -6.5640737735333794e+05 4.2000000000000000e+03 9.1422348153042599e+00 2.2108481889980753e+00 2.1113707438884965e+01 
440 42 2 1.0279984205093249e+00 3.9140807366573671e+05 4.2000000000000000e+03 9.0250761815383154e+00 2.2923424188473085e+00 2.1124733632907493e+01 
747 349 2 1.0280143630095788e+00 -3.6570286641125061e+05 4.2000000000000000e+03 1.0722710120245898e+01 4.3869201129104335e-01 1.9533279866160228e+01 
1309 911 2 1.0280159600628587e+00 2.0866257967033074e+05 4.2000000000000000e+03 1.0534470803382616e+01 1.6777875035293459e+00 1.9836532973017579e+01 
1655 1257 2 1.0279525387901356e+00 -5.8586806714863027e+05 4.2000000000000000e+03 3.5754890275748972e+00 9.5700124114438019e+00 2.1039642573318147e+01 
600 202 2 1.0280069538181495e+00 1.2675397570633602e+05 4.2000000000000000e+03 2.0441328185824719e+00 9.9701205092176703e+00 2.1832924212936334e+01 
980 582 2 1.0279987757862012e+00 2.9793872872438002e+05 4.2000000000000000e+03 6.9689170124853073e+00 6.6317850670880105e+00 2.1667155511486229e+01 