LAMMPS data file via write_data, version 30 Jul 2016, timestep = 600000

2080 atoms
8 atom types

0.0000000000000000e+00 4.0000000000000000e+01 xlo xhi
0.0000000000000000e+00 4.0000000000000000e+01 ylo yhi
0.0000000000000000e+00 1.0000000000000000e+02 zlo zhi

Masses

1 3.896
2 16.08
3 1058.08
4 8.378
5 8.378
6 8.378
7 8.378
8 8.378

Atoms # meso-molecular

1 2 4 2.2559723595316457e+00 4.9446575863573235e+03 4.2000000000000000e+03 0.0000000000000000e+00 0.0000000000000000e+00 2.5000000000000000e+00 
21 2 4 2.2559723595316457e+00 8.6312260505858358e+03 4.2000000000000000e+03 2.0000000000000000e+00 0.0000000000000000e+00 2.5000000000000000e+00 
41 2 4 2.2559723595316457e+00 4.5403481634245745e+03 4.2000000000000000e+03 4.0000000000000000e+00 0.0000000000000000e+00 2.5000000000000000e+00 
61 2 4 2.2559723595316457e+00 -2.2444852422609683e+03 4.2000000000000000e+03 6.0000000000000000e+00 0.0000000000000000e+00 2.5000000000000000e+00 
81 2 4 2.2559723595316457e+00 3.5350531743191914e+03 4.2000000000000000e+03 8.0000000000000000e+00 0.0000000000000000e+00 2.5000000000000000e+00 
101 2 4 2.2559731221629771e+00 1.1493722511170356e+04 4.2000000000000000e+03 1.0000000000000000e+01 0.0000000000000000e+00 2.5000000000000000e+00 
121 2 4 2.2559723595316457e+00 -1.1611537620205596e+04 4.2000000000000000e+03 1.2000000000000000e+01 0.0000000000000000e+00 2.5000000000000000e+00 
141 2 4 2.2559736190948088e+00 1.3925211481902325e+04 4.2000000000000000e+03 1.4000000000000000e+01 0.0000000000000000e+00 2.5000000000000000e+00 
161 2 4 2.2559723595316457e+00 1.7692802882976812e+03 4.2000000000000000e+03 1.6000000000000000e+01 0.0000000000000000e+00 2.5000000000000000e+00 
181 2 4 2.2559723595316457e+00 4.6435311105802284e+03 4.2000000000000000e+03 1.8000000000000000e+01 0.0000000000000000e+00 2.5000000000000000e+00 
2 2 4 2.2559723595316457e+00 -3.6255145028471537e+02 4.2000000000000000e+03 0.0000000000000000e+00 2.0000000000000000e+00 2.5000000000000000e+00 
22 2 4 2.2559846518683129e+00 4.4060048013594615e+03 4.2000000000000000e+03 2.0000000000000000e+00 2.0000000000000000e+00 2.5000000000000000e+00 
42 2 4 2.2559723595316457e+00 2.1976229469696245e+03 4.2000000000000000e+03 4.0000000000000000e+00 2.0000000000000000e+00 2.5000000000000000e+00 
62 2 4 2.2559723595316457e+00 5.5700372189803129e+03 4.2000000000000000e+03 6.0000000000000000e+00 2.0000000000000000e+00 2.5000000000000000e+00 
82 2 4 2.2559723595316457e+00 -1.3394300301131846e+03 4.2000000000000000e+03 8.0000000000000000e+00 2.0000000000000000e+00 2.5000000000000000e+00 
102 2 4 2.2559723595316457e+00 6.0077553933523632e+03 4.2000000000000000e+03 1.0000000000000000e+01 2.0000000000000000e+00 2.5000000000000000e+00 
122 2 4 2.2559723595316457e+00 1.4610532031587525e+03 4.2000000000000000e+03 1.2000000000000000e+01 2.0000000000000000e+00 2.5000000000000000e+00 
142 2 4 2.2559723595316457e+00 1.3261117648460528e+04 4.2000000000000000e+03 1.4000000000000000e+01 2.0000000000000000e+00 2.5000000000000000e+00 
162 2 4 2.2559723595316457e+00 -2.4740075090330351e+03 4.2000000000000000e+03 1.6000000000000000e+01 2.0000000000000000e+00 2.5000000000000000e+00 
182 2 4 2.2559723595316457e+00 -5.9398809717068343e+03 4.2000000000000000e+03 1.8000000000000000e+01 2.0000000000000000e+00 2.5000000000000000e+00 
3 2 4 2.2559723595316457e+00 1.8140381052484199e+03 4.2000000000000000e+03 0.0000000000000000e+00 4.0000000000000000e+00 2.5000000000000000e+00 
23 2 4 2.2559723595316457e+00 3.6385018565667037e+03 4.2000000000000000e+03 2.0000000000000000e+00 4.0000000000000000e+00 2.5000000000000000e+00 
43 2 4 2.2559723595316457e+00 7.3452072544048478e+03 4.2000000000000000e+03 4.0000000000000000e+00 4.0000000000000000e+00 2.5000000000000000e+00 
63 2 4 2.2559723595316457e+00 -1.4900211271167234e+03 4.2000000000000000e+03 6.0000000000000000e+00 4.0000000000000000e+00 2.5000000000000000e+00 
83 2 4 2.2559723595316457e+00 -2.3157171185704315e+03 4.2000000000000000e+03 8.0000000000000000e+00 4.0000000000000000e+00 2.5000000000000000e+00 
103 2 4 2.2559723595316457e+00 6.3396047620492413e+02 4.2000000000000000e+03 1.0000000000000000e+01 4.0000000000000000e+00 2.5000000000000000e+00 
123 2 4 2.2559723595316457e+00 3.8964368006026143e+02 4.2000000000000000e+03 1.2000000000000000e+01 4.0000000000000000e+00 2.5000000000000000e+00 
143 2 4 2.2559723595316457e+00 6.5499249651005312e+02 4.2000000000000000e+03 1.4000000000000000e+01 4.0000000000000000e+00 2.5000000000000000e+00 
163 2 4 2.2559723595316457e+00 5.1187584729356945e+02 4.2000000000000000e+03 1.6000000000000000e+01 4.0000000000000000e+00 2.5000000000000000e+00 
183 2 4 2.2559723595316457e+00 -2.1867405609985876e+03 4.2000000000000000e+03 1.8000000000000000e+01 4.0000000000000000e+00 2.5000000000000000e+00 
4 2 4 2.2559723595316457e+00 4.1111247305738307e+03 4.2000000000000000e+03 0.0000000000000000e+00 6.0000000000000000e+00 2.5000000000000000e+00 
24 2 4 2.2559723595316457e+00 2.4281415575096521e+03 4.2000000000000000e+03 2.0000000000000000e+00 6.0000000000000000e+00 2.5000000000000000e+00 
44 2 4 2.2559723595316457e+00 7.7471370317627316e+02 4.2000000000000000e+03 4.0000000000000000e+00 6.0000000000000000e+00 2.5000000000000000e+00 
64 2 4 2.2559723595316457e+00 -2.0137286849268626e+03 4.2000000000000000e+03 6.0000000000000000e+00 6.0000000000000000e+00 2.5000000000000000e+00 
84 2 4 2.2559723595316457e+00 -3.8562934978932535e+03 4.2000000000000000e+03 8.0000000000000000e+00 6.0000000000000000e+00 2.5000000000000000e+00 
104 2 4 2.2559723595316457e+00 5.4878483958120319e+02 4.2000000000000000e+03 1.0000000000000000e+01 6.0000000000000000e+00 2.5000000000000000e+00 
124 2 4 2.2559723595316457e+00 -6.0351763006819920e+02 4.2000000000000000e+03 1.2000000000000000e+01 6.0000000000000000e+00 2.5000000000000000e+00 
144 2 4 2.2559723595316457e+00 3.2808647304012193e+03 4.2000000000000000e+03 1.4000000000000000e+01 6.0000000000000000e+00 2.5000000000000000e+00 
164 2 4 2.2559723595316457e+00 3.7659160362666480e+03 4.2000000000000000e+03 1.6000000000000000e+01 6.0000000000000000e+00 2.5000000000000000e+00 
184 2 4 2.2559814458260639e+00 1.5992831988153866e+03 4.2000000000000000e+03 1.8000000000000000e+01 6.0000000000000000e+00 2.5000000000000000e+00 
5 2 4 2.2559723595316457e+00 7.3632112299205155e+03 4.2000000000000000e+03 0.0000000000000000e+00 8.0000000000000000e+00 2.5000000000000000e+00 
25 2 4 2.2559723595316457e+00 6.7162689917713105e+03 4.2000000000000000e+03 2.0000000000000000e+00 8.0000000000000000e+00 2.5000000000000000e+00 
45 2 4 2.2559723595316457e+00 2.3182718280232771e+03 4.2000000000000000e+03 4.0000000000000000e+00 8.0000000000000000e+00 2.5000000000000000e+00 
65 2 4 2.2559723595316457e+00 1.5416744155307824e+03 4.2000000000000000e+03 6.0000000000000000e+00 8.0000000000000000e+00 2.5000000000000000e+00 
85 2 4 2.2559723595316457e+00 3.9306706400831440e+03 4.2000000000000000e+03 8.0000000000000000e+00 8.0000000000000000e+00 2.5000000000000000e+00 
105 2 4 2.2559723595316457e+00 1.8502184553053044e+03 4.2000000000000000e+03 1.0000000000000000e+01 8.0000000000000000e+00 2.5000000000000000e+00 
125 2 4 2.2559723595316457e+00 2.7104496938342354e+03 4.2000000000000000e+03 1.2000000000000000e+01 8.0000000000000000e+00 2.5000000000000000e+00 
145 2 4 2.2559723595316457e+00 3.1510852308336671e+03 4.2000000000000000e+03 1.4000000000000000e+01 8.0000000000000000e+00 2.5000000000000000e+00 
165 2 4 2.2559723595316457e+00 -1.7804774399996427e+03 4.2000000000000000e+03 1.6000000000000000e+01 8.0000000000000000e+00 2.5000000000000000e+00 
185 2 4 2.2559723595316457e+00 1.8126916042113362e+03 4.2000000000000000e+03 1.8000000000000000e+01 8.0000000000000000e+00 2.5000000000000000e+00 
6 2 4 2.2559723595316457e+00 2.5584780795575580e+03 4.2000000000000000e+03 0.0000000000000000e+00 1.0000000000000000e+01 2.5000000000000000e+00 
26 2 4 2.2559723595316457e+00 2.9343801211810537e+03 4.2000000000000000e+03 2.0000000000000000e+00 1.0000000000000000e+01 2.5000000000000000e+00 
46 2 4 2.2559723595316457e+00 3.7413575946856481e+03 4.2000000000000000e+03 4.0000000000000000e+00 1.0000000000000000e+01 2.5000000000000000e+00 
66 2 4 2.2559723595316457e+00 -2.7366305183524455e+04 4.2000000000000000e+03 6.0000000000000000e+00 1.0000000000000000e+01 2.5000000000000000e+00 
86 2 4 2.2559723595316457e+00 -1.2462570390162182e+03 4.2000000000000000e+03 8.0000000000000000e+00 1.0000000000000000e+01 2.5000000000000000e+00 
106 2 4 2.2559723595316457e+00 -7.1845175856045523e+02 4.2000000000000000e+03 1.0000000000000000e+01 1.0000000000000000e+01 2.5000000000000000e+00 
126 2 4 2.2560244897767725e+00 1.4984325111551175e+03 4.2000000000000000e+03 1.2000000000000000e+01 1.0000000000000000e+01 2.5000000000000000e+00 
146 2 4 2.2559723595316457e+00 2.8702400666895346e+03 4.2000000000000000e+03 1.4000000000000000e+01 1.0000000000000000e+01 2.5000000000000000e+00 
166 2 4 2.2559723595316457e+00 4.7257072955635576e+03 4.2000000000000000e+03 1.6000000000000000e+01 1.0000000000000000e+01 2.5000000000000000e+00 
186 2 4 2.2559723595316457e+00 1.5407269988876214e+04 4.2000000000000000e+03 1.8000000000000000e+01 1.0000000000000000e+01 2.5000000000000000e+00 
7 2 4 2.2559723595316457e+00 1.0016058700291212e+03 4.2000000000000000e+03 0.0000000000000000e+00 1.2000000000000000e+01 2.5000000000000000e+00 
27 2 4 2.2559723595316457e+00 5.9846441237517070e+02 4.2000000000000000e+03 2.0000000000000000e+00 1.2000000000000000e+01 2.5000000000000000e+00 
47 2 4 2.2559723595316457e+00 2.8750956190630577e+03 4.2000000000000000e+03 4.0000000000000000e+00 1.2000000000000000e+01 2.5000000000000000e+00 
67 2 4 2.2559723595316457e+00 -9.2389348422699077e+03 4.2000000000000000e+03 6.0000000000000000e+00 1.2000000000000000e+01 2.5000000000000000e+00 
87 2 4 2.2559723595316457e+00 -1.7864146426253437e+03 4.2000000000000000e+03 8.0000000000000000e+00 1.2000000000000000e+01 2.5000000000000000e+00 
107 2 4 2.2559723595316457e+00 1.7025152455715640e+03 4.2000000000000000e+03 1.0000000000000000e+01 1.2000000000000000e+01 2.5000000000000000e+00 
127 2 4 2.2559723595316457e+00 3.1241619430466526e+03 4.2000000000000000e+03 1.2000000000000000e+01 1.2000000000000000e+01 2.5000000000000000e+00 
147 2 4 2.2559723595316457e+00 6.4022019805294167e+03 4.2000000000000000e+03 1.4000000000000000e+01 1.2000000000000000e+01 2.5000000000000000e+00 
167 2 4 2.2559723595316457e+00 9.7216636728926896e+03 4.2000000000000000e+03 1.6000000000000000e+01 1.2000000000000000e+01 2.5000000000000000e+00 
187 2 4 2.2559723595316457e+00 4.5119932427569674e+03 4.2000000000000000e+03 1.8000000000000000e+01 1.2000000000000000e+01 2.5000000000000000e+00 
8 2 4 2.2559723595316457e+00 -3.4019314615853359e+03 4.2000000000000000e+03 0.0000000000000000e+00 1.4000000000000000e+01 2.5000000000000000e+00 
28 2 4 2.2559723595316457e+00 3.3742433160521823e+03 4.2000000000000000e+03 2.0000000000000000e+00 1.4000000000000000e+01 2.5000000000000000e+00 
48 2 4 2.2559723595316457e+00 -1.3831898603069360e+03 4.2000000000000000e+03 4.0000000000000000e+00 1.4000000000000000e+01 2.5000000000000000e+00 
68 2 4 2.2559723595316457e+00 -2.8935600628374054e+03 4.2000000000000000e+03 6.0000000000000000e+00 1.4000000000000000e+01 2.5000000000000000e+00 
88 2 4 2.2559723595316457e+00 2.6735775816682963e+03 4.2000000000000000e+03 8.0000000000000000e+00 1.4000000000000000e+01 2.5000000000000000e+00 
108 2 4 2.2559723595316457e+00 3.2108174235885899e+03 4.2000000000000000e+03 1.0000000000000000e+01 1.4000000000000000e+01 2.5000000000000000e+00 
128 2 4 2.2559723595316457e+00 2.2028892075015492e+03 4.2000000000000000e+03 1.2000000000000000e+01 1.4000000000000000e+01 2.5000000000000000e+00 
148 2 4 2.2559723595316457e+00 1.3636941307026173e+03 4.2000000000000000e+03 1.4000000000000000e+01 1.4000000000000000e+01 2.5000000000000000e+00 
168 2 4 2.2559723595316457e+00 5.1326797909047036e+03 4.2000000000000000e+03 1.6000000000000000e+01 1.4000000000000000e+01 2.5000000000000000e+00 
188 2 4 2.2559723595316457e+00 -2.4376268801488159e+03 4.2000000000000000e+03 1.8000000000000000e+01 1.4000000000000000e+01 2.5000000000000000e+00 
9 2 4 2.2559723595316457e+00 9.8622297231892735e+03 4.2000000000000000e+03 0.0000000000000000e+00 1.6000000000000000e+01 2.5000000000000000e+00 
29 2 4 2.2559723595316457e+00 1.8471418370281117e+03 4.2000000000000000e+03 2.0000000000000000e+00 1.6000000000000000e+01 2.5000000000000000e+00 
49 2 4 2.2559723595316457e+00 6.7057148475003396e+03 4.2000000000000000e+03 4.0000000000000000e+00 1.6000000000000000e+01 2.5000000000000000e+00 
69 2 4 2.2559723595316457e+00 1.5213744198542349e+03 4.2000000000000000e+03 6.0000000000000000e+00 1.6000000000000000e+01 2.5000000000000000e+00 
89 2 4 2.2559723595316457e+00 -1.3822449789856776e+03 4.2000000000000000e+03 8.0000000000000000e+00 1.6000000000000000e+01 2.5000000000000000e+00 
109 2 4 2.2559723595316457e+00 1.1195365464114384e+03 4.2000000000000000e+03 1.0000000000000000e+01 1.6000000000000000e+01 2.5000000000000000e+00 
129 2 4 2.2559723595316457e+00 -9.0002967189582273e+02 4.2000000000000000e+03 1.2000000000000000e+01 1.6000000000000000e+01 2.5000000000000000e+00 
149 2 4 2.2559723595316457e+00 2.9615106933449415e+03 4.2000000000000000e+03 1.4000000000000000e+01 1.6000000000000000e+01 2.5000000000000000e+00 
169 2 4 2.2559723595316457e+00 3.3517501707039983e+03 4.2000000000000000e+03 1.6000000000000000e+01 1.6000000000000000e+01 2.5000000000000000e+00 
189 2 4 2.2559723595316457e+00 5.0645739303894317e+02 4.2000000000000000e+03 1.8000000000000000e+01 1.6000000000000000e+01 2.5000000000000000e+00 
10 2 4 2.2559723595316457e+00 4.4210205653762605e+03 4.2000000000000000e+03 0.0000000000000000e+00 1.8000000000000000e+01 2.5000000000000000e+00 
30 2 4 2.2559723595316457e+00 -3.2252751839374588e+02 4.2000000000000000e+03 2.0000000000000000e+00 1.8000000000000000e+01 2.5000000000000000e+00 
50 2 4 2.2559723595316457e+00 4.5614973515008387e+03 4.2000000000000000e+03 4.0000000000000000e+00 1.8000000000000000e+01 2.5000000000000000e+00 
70 2 4 2.2559723595316457e+00 8.5375908367682700e+02 4.2000000000000000e+03 6.0000000000000000e+00 1.8000000000000000e+01 2.5000000000000000e+00 
90 2 4 2.2559723595316457e+00 2.7785809286210233e+03 4.2000000000000000e+03 8.0000000000000000e+00 1.8000000000000000e+01 2.5000000000000000e+00 
110 2 4 2.2559723595316457e+00 -4.6167193912380226e+03 4.2000000000000000e+03 1.0000000000000000e+01 1.8000000000000000e+01 2.5000000000000000e+00 
130 2 4 2.2559723595316457e+00 -6.1269157138951982e+02 4.2000000000000000e+03 1.2000000000000000e+01 1.8000000000000000e+01 2.5000000000000000e+00 
150 2 4 2.2559723595316457e+00 2.5764501047984440e+03 4.2000000000000000e+03 1.4000000000000000e+01 1.8000000000000000e+01 2.5000000000000000e+00 
170 2 4 2.2559723595316457e+00 6.4007420786069852e+03 4.2000000000000000e+03 1.6000000000000000e+01 1.8000000000000000e+01 2.5000000000000000e+00 
190 2 4 2.2559723595316457e+00 3.5007329006195710e+02 4.2000000000000000e+03 1.8000000000000000e+01 1.8000000000000000e+01 2.5000000000000000e+00 
1495 1097 2 1.2829384464259252e+00 -1.1330274557849736e+05 4.2000000000000000e+03 1.0470473883037839e+01 4.0982505992567209e-01 5.3874596884433368e+00 
1684 1286 2 1.2829444536318524e+00 -4.0107298550731910e+04 4.2000000000000000e+03 1.6339523068207538e+00 2.5695240091010310e+00 5.3348606517277206e+00 
1869 1471 2 1.2829427832200386e+00 9.1699283213028248e+04 4.2000000000000000e+03 1.8674796325733549e+01 6.7410724530265043e+00 5.2472046730622957e+00 
1179 781 2 1.2829380490798250e+00 4.7651909744805438e+04 4.2000000000000000e+03 2.8839420034503704e-01 1.5630546161597055e+01 5.7632648557325963e+00 
1981 1583 2 1.2829380490798250e+00 1.4721479597259633e+05 4.2000000000000000e+03 7.6710103587048435e+00 2.0692187176707315e+00 6.3569596298886992e+00 
1128 730 2 1.2833044520071730e+00 -4.6981377026820846e+04 4.2000000000000000e+03 8.8539914245012385e-01 6.4423491023339485e+00 7.3091228031425395e+00 
1181 783 2 1.2833044520071730e+00 1.4114444654085713e+04 4.2000000000000000e+03 8.1573680778915164e-02 9.0212703548015352e+00 6.5710638924821234e+00 
1754 1356 2 1.2829380490798250e+00 -4.8413203811118103e+04 4.2000000000000000e+03 4.0912073641901818e+00 1.2864727239586337e+01 6.2779413041670677e+00 
896 498 2 1.2829380490798250e+00 2.1081994562308086e+04 4.2000000000000000e+03 1.8990824174492118e+01 1.2758565006156159e+01 6.2630733978649697e+00 
2042 1644 2 1.2829380490798250e+00 5.4578584373994381e+04 4.2000000000000000e+03 1.3882227725663569e+01 1.4436708510458033e+01 6.6186204307560326e+00 
1968 1570 2 1.2829380548605984e+00 7.5029961902449897e+04 4.2000000000000000e+03 1.7114485235850768e+01 2.2977706446025308e+00 9.0211171977685254e+00 
497 99 2 1.2829380490798250e+00 1.4442101345749954e+04 4.2000000000000000e+03 3.6563110468632143e+00 4.2695155951812760e+00 9.3388632947721284e+00 
2074 1676 2 1.2829380490798250e+00 1.4977482025926733e+04 4.2000000000000000e+03 1.6995929500216032e+01 6.1009929863199721e+00 8.4795183387496760e+00 
1995 1597 2 1.2829380490798250e+00 5.5286297919285673e+04 4.2000000000000000e+03 1.8278879708033056e+01 9.4229371853685304e+00 7.9109117946094516e+00 
2066 1668 2 1.2897208375484630e+00 -1.2409559306865075e+05 4.2000000000000000e+03 8.1212087142082332e+00 1.1179744294793185e+01 9.4961933513931118e+00 
491 93 2 1.2829421890507040e+00 -1.8149962487126431e+04 4.2000000000000000e+03 6.7512234304867329e+00 1.3724757849549789e+01 8.1408574897764918e+00 
1623 1225 2 1.2829421890507040e+00 -1.2331219092251849e+04 4.2000000000000000e+03 9.6146218027200820e+00 1.4378474332732885e+01 8.1776301911530869e+00 
727 329 2 1.2829380490798250e+00 1.6726770981621965e+04 4.2000000000000000e+03 1.7093397235717784e+01 1.5794361072695457e+01 8.1377648136117813e+00 
1540 1142 2 1.2836955666792393e+00 -7.6489317009750215e+04 4.2000000000000000e+03 1.1048180484972020e+01 1.9175059414621789e+01 8.2732390561838063e+00 
958 560 2 1.2829801389180477e+00 -1.5412376646067604e+05 4.2000000000000000e+03 9.1813625067540372e-01 4.4119376936718950e+00 1.0584633040117605e+01 
1794 1396 2 1.2843435916463635e+00 -9.0113078653176548e+04 4.2000000000000000e+03 8.1354884888827017e-01 9.1971409293634814e+00 1.0738875548997427e+01 
1908 1510 2 1.2833136107718781e+00 1.5800929717809449e+03 4.2000000000000000e+03 1.0487798569610963e+01 9.5269076754368154e+00 1.0848994922451816e+01 
1346 948 2 1.2829380490798250e+00 -8.9393000632374577e+04 4.2000000000000000e+03 1.7582986259308665e+01 1.1353771505304364e+01 1.0111582273580582e+01 
1982 1584 2 1.2953146939399094e+00 -2.9108293875939133e+04 4.2000000000000000e+03 4.4277993049549569e-01 1.3272434312290004e+01 1.1302842770838208e+01 
791 393 2 1.2829380490798250e+00 1.6601904259488028e+03 4.2000000000000000e+03 8.7219857406108439e+00 1.5058801070565764e+01 1.1542007850060758e+01 
1326 928 2 1.2829940613394621e+00 -1.5864913430461235e+05 4.2000000000000000e+03 5.0386123214635132e+00 1.7460504736677137e+01 1.0228473593722875e+01 
1717 1319 2 1.2829380490798250e+00 7.6679067851956410e+04 4.2000000000000000e+03 1.3761805173191101e+01 1.6490507600598402e+01 9.9557729949635672e+00 
1240 842 2 1.2829380490798250e+00 4.9217668622006458e+04 4.2000000000000000e+03 1.0027749374998328e+01 8.4160804879479334e-01 1.3572727597360256e+01 
1407 1009 2 1.2867230543788246e+00 -5.3373708628293978e+04 4.2000000000000000e+03 1.4123342153612564e+01 2.1699322713415761e+00 1.2874346414847500e+01 
452 54 2 1.2867230601595980e+00 -5.2445525673791772e+03 4.2000000000000000e+03 1.6438119558398704e+01 2.9015548800706394e+00 1.1873465191096550e+01 
1491 1093 2 1.2833317947977836e+00 -7.0862685132653234e+04 4.2000000000000000e+03 1.2359486631986945e+01 7.7018451988559828e+00 1.1849324474440531e+01 
1399 1001 2 1.2897208375484630e+00 -1.0962531939021789e+05 4.2000000000000000e+03 7.1624067346724907e+00 1.1778102192166365e+01 1.1795474859563122e+01 
2034 1636 2 1.2829380490798250e+00 -1.6714164224092456e+04 4.2000000000000000e+03 1.5644660665872514e+01 1.0363001249709258e+01 1.2213951644601218e+01 
605 207 2 1.2967431393198630e+00 1.5396516797397612e+05 4.2000000000000000e+03 1.4489178598367556e+00 1.2057006860241467e+01 1.3224309099890629e+01 
1375 977 2 1.2829380490798250e+00 2.2778455856067725e+04 4.2000000000000000e+03 2.1674953085384616e+00 1.5404975166542629e+01 1.3147135181825911e+01 
1474 1076 2 1.2829380490798250e+00 2.4215159812549515e+04 4.2000000000000000e+03 1.1676955141192641e+01 1.6844165114911405e+01 1.2750512698667515e+01 
2070 1672 2 1.2829940613394621e+00 -3.2923731463857192e+04 4.2000000000000000e+03 4.3137186517094781e+00 1.9277572526364391e+01 1.2336610791841354e+01 
1799 1401 2 1.2829380490798250e+00 4.3283015642311890e+04 4.2000000000000000e+03 1.5780831783471860e+00 5.3147507231304800e+00 1.5286277585078926e+01 
1655 1257 2 1.2829380490798250e+00 -3.2481758463369224e+04 4.2000000000000000e+03 6.8945934362762973e+00 4.7171614049902653e+00 1.4768025989973667e+01 
1168 770 2 1.2829380490798250e+00 -7.8734587762198717e+03 4.2000000000000000e+03 9.6502821990541392e+00 7.2092526426408643e+00 1.4374142437301179e+01 
711 313 2 1.2829562434682393e+00 -7.5370875033204838e+03 4.2000000000000000e+03 1.3365790596208191e+01 8.1428315087477721e+00 1.4543556952244089e+01 
1160 762 2 1.2829380490798250e+00 -1.5819104829019547e+04 4.2000000000000000e+03 8.0822834462651265e+00 1.0370008297975186e+01 1.5561111520606008e+01 
879 481 2 1.2829380594423339e+00 -1.0861383430457172e+05 4.2000000000000000e+03 1.2211936359278763e+01 1.0738784155148197e+01 1.5477904062794563e+01 
1367 969 2 1.2829380490798250e+00 -5.8470847385710376e+03 4.2000000000000000e+03 1.5135216112183709e+01 1.2770942322525825e+01 1.5630469020059470e+01 
1688 1290 2 1.2829380490798250e+00 7.8346987806297431e+04 4.2000000000000000e+03 6.4799614474170699e+00 1.9454470172872984e+01 1.4618547918952128e+01 
1899 1501 2 1.2829873997920209e+00 4.7225530122618957e+03 4.2000000000000000e+03 5.1426183474053344e+00 1.8343820028243785e+00 1.7594748152664145e+01 
1542 1144 2 1.2829380490798250e+00 -1.4960185528869246e+05 4.2000000000000000e+03 1.7018079390513964e+01 1.4283371966239813e+00 1.6969094912257859e+01 
1787 1389 2 1.2829380490798250e+00 -2.0432191592014824e+04 4.2000000000000000e+03 1.0061173663000007e+01 2.5277953192866827e+00 1.6114220605078405e+01 
1915 1517 2 1.2829380490798250e+00 5.6295817536927352e+04 4.2000000000000000e+03 1.7427666257926544e+00 7.8324611269582913e+00 1.7463384015877814e+01 
1343 945 2 1.2829380490798250e+00 -9.6540796130672272e+04 4.2000000000000000e+03 1.7406525702913996e+01 6.6518888815898505e+00 1.7257584082283348e+01 
1090 692 2 1.2829380490798250e+00 1.1426303279454360e+05 4.2000000000000000e+03 3.9360968326472530e+00 1.0933307542600938e+01 1.7136826939628886e+01 
1527 1129 2 1.2887705208534019e+00 -8.7437149312549242e+04 4.2000000000000000e+03 1.8127824569263751e+01 1.1029479937560016e+01 1.7125083426948287e+01 
1657 1259 2 1.2843664689675731e+00 2.7392744878993035e+04 4.2000000000000000e+03 1.0334175898234732e+00 1.2105025448638944e+01 1.5904561776082863e+01 
1924 1526 2 1.2833718392001274e+00 -9.5557407295152698e+03 4.2000000000000000e+03 1.2272512368526108e+01 1.5757474693518667e+01 1.7414292114220039e+01 
510 112 2 1.2829473770685698e+00 6.1603664120607922e+04 4.2000000000000000e+03 3.1972336493797080e+00 1.6532421230874338e+01 1.7236149874306474e+01 
684 286 2 1.2830384658794629e+00 -4.3108651670810486e+03 4.2000000000000000e+03 1.7430676712885344e+01 3.5069894754705775e+00 1.9514330021007083e+01 
1910 1512 2 1.2829380490798250e+00 1.1151206657862311e+05 4.2000000000000000e+03 1.4528157061415570e+01 8.6059224658800009e+00 1.8884775784705766e+01 
1950 1552 2 1.2829380490798250e+00 3.7487707951566597e+04 4.2000000000000000e+03 4.1826040807644569e+00 1.3352695431431368e+01 1.9249530059431528e+01 
728 330 2 1.2903961526292336e+00 2.6084557488032555e+04 4.2000000000000000e+03 7.5391466528808291e+00 1.4299827407546131e+01 1.8188956816443888e+01 
1547 1149 2 1.2829736185767471e+00 -6.3743387910145902e+04 4.2000000000000000e+03 5.1704082308216881e+00 1.9239891171723219e+01 1.8060461142119919e+01 
1035 637 2 1.2829466213154983e+00 -8.1716852741478477e+04 4.2000000000000000e+03 1.0409401732015521e+01 1.9606530458498064e+01 1.8336099789063493e+01 
608 210 2 1.2829380490798250e+00 1.7059611992518279e+04 4.2000000000000000e+03 1.7005832256527000e+01 1.9783013507722565e+01 1.7801624864803376e+01 
898 500 2 1.2829380490798250e+00 2.4428174668191052e+04 4.2000000000000000e+03 1.2667543812030622e+00 5.8144322358884126e-01 2.0855307574828746e+01 
790 392 2 1.2830676026186900e+00 -1.0373229950937038e+05 4.2000000000000000e+03 6.7197434900473949e+00 2.4814566544527330e+00 2.0804600785514904e+01 
1365 967 2 1.2829438827311153e+00 1.2299564764852283e+04 4.2000000000000000e+03 1.2772199594057357e+01 5.8049618194326733e+00 2.0748599460247981e+01 
2052 1654 2 1.2839535997365588e+00 -1.6022238279121417e+04 4.2000000000000000e+03 1.5595335725288264e+01 5.6504997135105812e+00 1.9962658945983819e+01 
953 555 2 1.2829380490798250e+00 -1.4729199400140840e+05 4.2000000000000000e+03 6.0556467429492127e+00 1.0216263440577867e+01 1.9722603995944031e+01 
821 423 2 1.3114032091631882e+00 -4.6283651052595997e+04 4.2000000000000000e+03 1.4301026565990528e+01 1.1925102439511500e+01 2.0207708816977561e+01 
1622 1224 2 1.2887705208534019e+00 -5.8319554203455482e+04 4.2000000000000000e+03 1.7983908047457891e+01 1.0353015625206185e+01 1.9611738139016936e+01 
1572 1174 2 1.2829380490798250e+00 8.3832098111785483e+04 4.2000000000000000e+03 7.7798240820593545e-01 1.3748110159311469e+01 2.0598511592640016e+01 
707 309 2 1.2903961526292336e+00 -1.5191919544397038e+05 4.2000000000000000e+03 8.4903037764278988e+00 1.5168512101945430e+01 2.0393525365541674e+01 
1025 627 2 1.3120154932891579e+00 -9.8250931187090318e+04 4.2000000000000000e+03 1.4086650474446040e+01 1.4240089910269489e+01 2.0561589729008098e+01 
1589 1191 2 1.2829473770685698e+00 -4.5744439225212409e+04 4.2000000000000000e+03 3.0685794122930790e+00 1.7105148375957963e+01 2.0103600287509238e+01 
478 80 2 1.2833725613753060e+00 -1.0973100970797555e+04 4.2000000000000000e+03 1.1860462297015385e+01 1.7391164267305236e+01 1.9642011586729591e+01 
838 440 2 1.2835503332057947e+00 -7.6123581315246658e+04 4.2000000000000000e+03 1.5587048707764065e+01 1.6560442061271015e+01 2.0740006867682776e+01 
1514 1116 2 1.2830426595573940e+00 -2.0736140453821376e+04 4.2000000000000000e+03 6.4878605453223921e+00 1.9501081635781453e+01 2.0617515708683420e+01 
473 75 2 1.2829380490798250e+00 -4.3738374605030316e+04 4.2000000000000000e+03 1.3234915284237532e+01 1.3328683620462094e+00 2.3176747701317108e+01 
848 450 2 1.2829380490798250e+00 -7.9905203774656286e+04 4.2000000000000000e+03 1.9469438376894935e+01 1.1359880382841608e-01 2.2906833606891716e+01 
1397 999 2 1.2830676026186900e+00 1.5545807161321965e+05 4.2000000000000000e+03 8.6934130517900314e+00 4.2464589490351230e+00 2.1848374559711370e+01 
509 111 2 1.2829380490798250e+00 1.9367491888747385e+05 4.2000000000000000e+03 7.6010562896901854e+00 7.5711738865165179e+00 2.1655617028041238e+01 
1962 1564 2 1.2829380490798250e+00 -4.4039222653697609e+04 4.2000000000000000e+03 1.0561165146973519e+01 6.4049814245487022e+00 2.2917873308496063e+01 
1401 1003 2 1.2839663385307123e+00 1.8344652175212095e+03 4.2000000000000000e+03 1.7231122708010265e+01 6.6783625931373791e+00 2.1911759757885843e+01 
695 297 2 1.2829380490798250e+00 -7.0569468163599486e+03 4.2000000000000000e+03 3.3990481215113255e-01 9.8782460424336538e+00 2.3273585514775661e+01 
1074 676 2 1.2848931406539856e+00 -1.9876058979113412e+04 4.2000000000000000e+03 1.5503716025878765e+01 8.5560777714109371e+00 2.3187996148190091e+01 
1415 1017 2 1.2829382555164419e+00 -2.4483933108796602e+04 4.2000000000000000e+03 1.1580317699897105e+01 1.2911441383448597e+01 2.2487813428076443e+01 
1273 875 2 1.2829380490798250e+00 6.6482744793114689e+04 4.2000000000000000e+03 1.2367765093725010e+01 3.6946392853629884e+00 2.5022737166327119e+01 
689 291 2 1.2829380490798250e+00 1.6657378132411621e+04 4.2000000000000000e+03 2.1654932201860841e+00 5.4332694095149456e+00 2.3581536948314032e+01 
1485 1087 2 1.2849473825219564e+00 6.4101788630389361e+04 4.2000000000000000e+03 1.1408817913095275e+01 9.7308113122029436e+00 2.4826963453266444e+01 
1109 711 2 1.2829380490798250e+00 1.7550505807460751e+05 4.2000000000000000e+03 7.7638893097706640e+00 1.0242783433278417e+01 2.5005168350701592e+01 
1906 1508 2 1.2861086804212556e+00 3.7097002267540614e+04 4.2000000000000000e+03 1.5831930066108198e+01 1.0304954196109469e+01 2.5208632449604835e+01 
627 229 2 1.2849731066752224e+00 -1.1943457881883201e+05 4.2000000000000000e+03 1.0366122500616006e+01 1.2190137463234965e+01 2.5102354828397747e+01 
1549 1151 2 1.2829380490798250e+00 9.9203141373000515e+04 4.2000000000000000e+03 1.3291814785385432e+01 1.3537526967109022e+01 2.5462450109050256e+01 
1351 953 2 1.2829380490798250e+00 -5.3284879633313380e+04 4.2000000000000000e+03 1.7278654358172307e+00 1.5313686958563965e+01 2.3583784987636751e+01 
1170 772 2 1.2829380490798250e+00 -7.0461867289520451e+04 4.2000000000000000e+03 9.5908464287614432e+00 1.5540800651052839e+01 2.4320191733205696e+01 
1445 1047 2 1.2829380490798250e+00 3.3023405384008292e+04 4.2000000000000000e+03 5.5448355214000413e+00 1.6585775540919144e+01 2.3994732342632769e+01 
1642 1244 2 1.2829380490798250e+00 -5.8029940717531630e+04 4.2000000000000000e+03 1.4251595276256463e+01 1.7224775739074268e+01 2.4205968234689099e+01 
757 359 2 1.2829380490798250e+00 -2.6255544059612548e+04 4.2000000000000000e+03 8.2519310640786792e+00 1.9106849436385357e+01 2.5249855303090211e+01 
1234 836 2 1.2829465561792819e+00 -1.1432513117910041e+05 4.2000000000000000e+03 5.1233266893602428e-02 3.8492214380716847e+00 2.6518097595570371e+01 
878 480 2 1.2829380490798250e+00 -1.1356666459086377e+05 4.2000000000000000e+03 6.5886186084836966e+00 4.2071890919240902e+00 2.7248791871662441e+01 