LAMMPS data file via write_data, version 30 Jul 2016, timestep = 50000000

2772 atoms
8 atom types

0.0000000000000000e+00 1.0000000000000000e+02 xlo xhi
0.0000000000000000e+00 4.0000000000000000e+01 ylo yhi
0.0000000000000000e+00 4.0000000000000000e+01 zlo zhi

Masses

1 3.896
2 5.36
3 20.064
4 8.378
5 8.378
6 8.378
7 8.378
8 8.378

Atoms # meso-molecular

254 255 2 1.0279999999737968e+00 2.0795077095352809e+02 1.0000000000000000e+00 2.4829521018212425e+01 1.0000000000000000e+01 4.3011563051339530e-01 
45 46 2 1.0280000000318223e+00 -1.7506656050313947e+02 1.0000000000000000e+00 2.6413023268927091e+01 1.0000000000000000e+01 1.6461809250929917e+00 
9 10 2 1.0279999999718865e+00 -1.0879015407034367e+03 1.0000000000000000e+00 2.8868287643657933e+01 1.0000000000000000e+01 4.7442424797230942e-01 
138 139 2 1.0279999996740616e+00 -1.0437760261735627e+03 1.0000000000000000e+00 3.0336644600393690e+01 1.0000000000000000e+01 1.2576209329734054e+00 
177 178 2 1.0279999997552773e+00 2.4285464716011243e+03 1.0000000000000000e+00 3.1980087477570311e+01 1.0000000000000000e+01 1.5324256624012382e+00 
797 798 2 1.0280000000000018e+00 -3.0245865414720538e+02 1.0000000000000000e+00 2.9114152361767318e+00 1.3800000000000001e+01 1.2722881378685145e+00 
839 840 2 1.0280000000000018e+00 -1.6392539899752018e+02 1.0000000000000000e+00 4.0376175591759784e+00 1.3800000000000001e+01 1.4698769663225377e+00 
875 876 2 1.0279999999999980e+00 1.0326248199338681e+03 1.0000000000000000e+00 2.0390322882608633e+01 1.3800000000000001e+01 7.0037569838380692e-02 
852 853 2 1.0280000000579994e+00 9.0073313736232785e+02 1.0000000000000000e+00 2.9721065133213706e+01 1.3800000000000001e+01 8.8527016124648483e-01 
480 481 2 1.0280000000063361e+00 -4.9005715701519819e+02 1.0000000000000000e+00 3.2847429110173145e+01 1.3800000000000001e+01 1.4530156756100405e+00 
1386 1387 2 1.0279999999999996e+00 -1.3689574905921208e+02 1.0000000000000000e+00 1.4774639550359252e+01 1.7600000000000001e+01 1.1213462021057226e+00 
1343 1344 2 1.0279999999999996e+00 -2.0019662773579347e+02 1.0000000000000000e+00 1.5868078741232488e+01 1.7600000000000001e+01 7.8703533880447496e-01 
1384 1385 2 1.0279999997284008e+00 -7.3158994562604107e+02 1.0000000000000000e+00 2.4055062111300163e+01 1.7600000000000001e+01 9.8774892616548071e-01 
1179 1180 2 1.0280000005288927e+00 3.7685998296442347e+02 1.0000000000000000e+00 2.6158820227884782e+01 1.7600000000000001e+01 1.4363820978000721e+00 
1178 1179 2 1.0280000002166170e+00 2.0870795740651721e+02 1.0000000000000000e+00 2.5820633193420331e+01 1.7600000000000001e+01 3.6278238759782963e-02 
933 934 2 1.0279999999240672e+00 -1.0876738257571824e+03 1.0000000000000000e+00 3.1772363941903322e+01 1.7600000000000001e+01 9.8279654496554070e-01 
450 451 2 1.0280000000000000e+00 1.1096033237460169e+03 1.0000000000000000e+00 1.7262562936508296e+01 1.0000000000000000e+01 2.2194524753629850e+00 
327 328 2 1.0280000000000000e+00 -1.3130628657544148e+03 1.0000000000000000e+00 1.7840122155275907e+01 1.0000000000000000e+01 3.2062646997883246e+00 
2 3 2 1.0280000000599647e+00 -4.0276824525064774e+02 1.0000000000000000e+00 2.7085397999587936e+01 1.0000000000000000e+01 2.6133855826871000e+00 
137 138 2 1.0280000002623082e+00 -1.2715351225351419e+03 1.0000000000000000e+00 2.8990426116133470e+01 1.0000000000000000e+01 2.1186359813715603e+00 
178 179 2 1.0280000006493095e+00 9.3234163528956037e+02 1.0000000000000000e+00 3.1200611584513446e+01 1.0000000000000000e+01 3.0711170321683761e+00 
491 492 2 1.0279999999999996e+00 -3.5704749673904080e+03 1.0000000000000000e+00 1.8738730072165193e+01 1.3800000000000001e+01 2.7262937435430872e+00 
495 496 2 1.0279999999999996e+00 -6.6091936036844254e+02 1.0000000000000000e+00 1.9882132261875839e+01 1.3800000000000001e+01 2.7241842356281603e+00 
625 626 2 1.0279999999645806e+00 -2.0005584467838457e+03 1.0000000000000000e+00 2.9487227357426335e+01 1.3800000000000001e+01 3.3251209885332571e+00 
810 811 2 1.0280000000097245e+00 3.1464779647623955e+03 1.0000000000000000e+00 3.0851661308555219e+01 1.3800000000000001e+01 2.5736515273979443e+00 
471 472 2 1.0279999999910208e+00 -1.0875883261037588e+03 1.0000000000000000e+00 3.2183302061811958e+01 1.3800000000000001e+01 2.9135169338249924e+00 
1296 1297 2 1.0280000000915541e+00 -1.0248872070331618e+03 1.0000000000000000e+00 2.4315482709524904e+01 1.7600000000000001e+01 2.1306504400448008e+00 
1218 1219 2 1.0280000001010854e+00 -9.9923278362787528e+02 1.0000000000000000e+00 2.7189107092184361e+01 1.7600000000000001e+01 2.5472868638420927e+00 
1310 1311 2 1.0279999998847602e+00 1.0036632011449681e+03 1.0000000000000000e+00 2.9481439698640386e+01 1.7600000000000001e+01 2.7021177022739438e+00 
1311 1312 2 1.0280000004886727e+00 1.3724783237805920e+02 1.0000000000000000e+00 3.0408229639823315e+01 1.7600000000000001e+01 1.7018574844427266e+00 
1062 1063 2 1.0279999998321980e+00 -1.0420423327608137e+03 1.0000000000000000e+00 3.2737967773250780e+01 1.7600000000000001e+01 2.0644476415841440e+00 
50 51 2 1.0280000000000005e+00 1.0180238091850072e+03 1.0000000000000000e+00 6.8848018716979862e+00 1.0000000000000000e+01 4.4277093695205432e+00 
294 295 2 1.0279999999486731e+00 -9.9922356781197414e+02 1.0000000000000000e+00 2.4945434161084076e+01 1.0000000000000000e+01 3.3341733455856963e+00 
336 337 2 1.0280000001252052e+00 -1.1194925857080216e+03 1.0000000000000000e+00 2.5628383812116301e+01 1.0000000000000000e+01 4.2559183909062011e+00 
92 93 2 1.0279999995959404e+00 -4.2677227393824916e+02 1.0000000000000000e+00 2.9483736087572584e+01 1.0000000000000000e+01 3.5828243097320858e+00 
214 215 2 1.0280000001181380e+00 -2.0267284189139498e+03 1.0000000000000000e+00 3.0757070234221345e+01 1.0000000000000000e+01 4.6039682544912583e+00 
176 177 2 1.0279999995435192e+00 1.7929913894535680e+03 1.0000000000000000e+00 3.2748677545820357e+01 1.0000000000000000e+01 3.4836147135055233e+00 
922 923 2 1.0280000000000005e+00 -7.3262503471638774e+02 1.0000000000000000e+00 8.0900821959132116e+00 1.3800000000000001e+01 4.0741582934037268e+00 
834 835 2 1.0280000000000005e+00 -1.0261119569976242e+03 1.0000000000000000e+00 7.0178530896418447e+00 1.3800000000000001e+01 4.4712700674966701e+00 
708 709 2 1.0279999999999994e+00 -1.0320881861790747e+02 1.0000000000000000e+00 1.3055181236280438e+01 1.3800000000000001e+01 4.7310008157695149e+00 
707 708 2 1.0279999999999994e+00 1.9236099134485708e+03 1.0000000000000000e+00 1.4196915975926768e+01 1.3800000000000001e+01 4.6692367344319674e+00 
668 669 2 1.0280000000157232e+00 1.2315589957464149e+03 1.0000000000000000e+00 2.8476844624868917e+01 1.3800000000000001e+01 4.2233555509820668e+00 
1260 1261 2 1.0280000006713628e+00 -1.1187095938050754e+03 1.0000000000000000e+00 2.8140503774229053e+01 1.7600000000000001e+01 3.5548834620930148e+00 
974 975 2 1.0280000000559215e+00 1.0180566737149849e+03 1.0000000000000000e+00 2.9935622031392505e+01 1.7600000000000001e+01 4.6203185026472164e+00 
1096 1097 2 1.0279999997836706e+00 1.0822270755490565e+03 1.0000000000000000e+00 3.1530318085438683e+01 1.7600000000000001e+01 3.7835487966545731e+00 
1060 1061 2 1.0280000002498193e+00 -1.1511640688251446e+03 1.0000000000000000e+00 3.2894001263886267e+01 1.7600000000000001e+01 4.1400770949187287e+00 
51 52 2 1.0280000000000005e+00 9.8518688151159225e+01 1.0000000000000000e+00 6.5381992081374465e+00 1.0000000000000000e+01 5.5173146242212896e+00 
131 132 2 1.0280000000000007e+00 -5.9578370057373536e+02 1.0000000000000000e+00 1.0133522140603299e+01 1.0000000000000000e+01 6.0370937206738775e+00 
47 48 2 1.0279999999122824e+00 -8.2941050246025156e+02 1.0000000000000000e+00 2.2121713861595865e+01 1.0000000000000000e+01 6.3744677461993611e+00 
386 387 2 1.0280000003974210e+00 1.0040320498462486e+03 1.0000000000000000e+00 2.7935010804161251e+01 1.0000000000000000e+01 5.8536411641064028e+00 
374 375 2 1.0279999999740450e+00 1.4606324144330651e+02 1.0000000000000000e+00 2.6709304095492378e+01 1.0000000000000000e+01 6.5217597275249650e+00 
387 388 2 1.0280000003216581e+00 1.3735982750890594e+02 1.0000000000000000e+00 2.9398550701034612e+01 1.0000000000000000e+01 5.2887245454111129e+00 
183 184 2 1.0279999997988161e+00 8.8842014434818839e+02 1.0000000000000000e+00 3.3322370945372221e+01 1.0000000000000000e+01 5.7506593087134465e+00 
216 217 2 1.0280000005598631e+00 -8.5708295005606055e+02 1.0000000000000000e+00 3.2093377244753619e+01 1.0000000000000000e+01 6.6393018848037517e+00 
911 912 2 1.0279999999999934e+00 -3.6044516871787291e+03 1.0000000000000000e+00 1.6991889836045086e+01 1.3800000000000001e+01 5.7812414174463473e+00 
915 916 2 1.0279999999999934e+00 -6.6949719514965932e+02 1.0000000000000000e+00 1.8109122970226725e+01 1.3800000000000001e+01 6.0244761627962697e+00 
840 841 2 1.0280000000090328e+00 -1.3417083006966050e+02 1.0000000000000000e+00 2.9163439908940397e+01 1.3800000000000001e+01 5.6206130534217760e+00 
599 600 2 1.0279999999672089e+00 -1.2717718449414124e+03 1.0000000000000000e+00 3.1047803994622349e+01 1.3800000000000001e+01 5.4375453072547026e+00 
600 601 2 1.0280000000141196e+00 -1.0432821587501794e+03 1.0000000000000000e+00 3.2400922220318371e+01 1.3800000000000001e+01 5.0434440051964691e+00 
1253 1254 2 1.0280000010773047e+00 -7.1193627151032331e+01 1.0000000000000000e+00 2.7052902109373598e+01 1.7600000000000001e+01 5.2789956532701927e+00 
1252 1253 2 1.0279999990041593e+00 -8.6802377329833359e+02 1.0000000000000000e+00 2.7413154357824347e+01 1.7600000000000001e+01 6.4325890156149406e+00 
975 976 2 1.0280000000009457e+00 9.8963066100412732e+01 1.0000000000000000e+00 2.8937864324838618e+01 1.7600000000000001e+01 5.4194784770314861e+00 
1054 1055 2 1.0279999994127702e+00 -1.6805321228603930e+03 1.0000000000000000e+00 3.1846468129856497e+01 1.7600000000000001e+01 5.3727740175255159e+00 
937 938 2 1.0279999996187608e+00 1.1354890147805647e+03 1.0000000000000000e+00 3.3143230716397120e+01 1.7600000000000001e+01 6.1862128808860293e+00 
90 91 2 1.0280000000000007e+00 -2.0167092494982068e+01 1.0000000000000000e+00 1.0479300531596094e+01 1.0000000000000000e+01 7.1269608326564216e+00 
304 305 2 1.0279999997874762e+00 -1.1719332316241189e+03 1.0000000000000000e+00 2.1120445223642896e+01 1.0000000000000000e+01 7.1084182266239164e+00 
307 308 2 1.0280000005920957e+00 -9.7256047823253357e+02 1.0000000000000000e+00 2.2401864207959061e+01 1.0000000000000000e+01 8.2940497053650830e+00 
46 47 2 1.0279999992344275e+00 2.8081839280388374e+02 1.0000000000000000e+00 2.3484161942724604e+01 1.0000000000000000e+01 7.6127582808912004e+00 
343 344 2 1.0280000014940645e+00 -1.0382354006942433e+03 1.0000000000000000e+00 2.5450279272229231e+01 1.0000000000000000e+01 8.0581972427869122e+00 
414 415 2 1.0279999992403486e+00 -1.2708511508886099e+03 1.0000000000000000e+00 2.7658918857232493e+01 1.0000000000000000e+01 7.7340003586788120e+00 
339 340 2 1.0279999993744300e+00 -3.5737497850223997e+02 1.0000000000000000e+00 2.8964317918385621e+01 1.0000000000000000e+01 8.2981056226587615e+00 
136 137 2 1.0279999992622073e+00 -1.1512683043892321e+03 1.0000000000000000e+00 3.0643160092390147e+01 1.0000000000000000e+01 6.8416884421719670e+00 
13 14 2 1.0280000008177828e+00 1.1360248059772616e+03 1.0000000000000000e+00 3.0818740589474512e+01 1.0000000000000000e+01 8.3008732945152666e+00 
544 545 2 1.0280000000000018e+00 -2.0081061234409583e+02 1.0000000000000000e+00 1.2849840176969556e+01 1.3800000000000001e+01 7.9897170481336390e+00 
786 787 2 1.0279999999910401e+00 -9.6683957386686575e+02 1.0000000000000000e+00 2.8186844154873071e+01 1.3800000000000001e+01 6.8855318042600393e+00 
788 789 2 1.0280000000075038e+00 -1.4722152068440760e+03 1.0000000000000000e+00 2.8918161847700354e+01 1.3800000000000001e+01 8.0474797354182233e+00 
882 883 2 1.0279999999895610e+00 -1.0596639904008184e+03 1.0000000000000000e+00 3.0088176922508822e+01 1.3800000000000001e+01 7.0085690680767563e+00 
554 555 2 1.0280000000275316e+00 -4.2669300680324591e+02 1.0000000000000000e+00 3.1783164069520289e+01 1.3800000000000001e+01 6.9263522798419217e+00 
640 641 2 1.0279999999453573e+00 9.3232989501963789e+02 1.0000000000000000e+00 3.3213036682449058e+01 1.3800000000000001e+01 7.2200767054644075e+00 
1302 1303 2 1.0280006465853806e+00 -1.3403857470024042e+02 1.0000000000000000e+00 2.9526554574841803e+01 1.7600000000000001e+01 7.8019441759307329e+00 
1314 1315 2 1.0279999994259423e+00 9.0055825098706487e+02 1.0000000000000000e+00 3.3227785090197621e+01 1.7600000000000001e+01 7.7940610896173315e+00 
379 380 2 1.0280000000000031e+00 -1.0578512929295689e+03 1.0000000000000000e+00 1.7258159127846930e+01 1.0000000000000000e+01 9.1139988736762891e+00 
337 338 2 1.0280000000000031e+00 -1.0058073003539124e+02 1.0000000000000000e+00 1.8343156146945791e+01 1.0000000000000000e+01 8.7532295761947676e+00 
423 424 2 1.0279999987953179e+00 -7.1777223649916573e+02 1.0000000000000000e+00 2.4739452781545360e+01 1.0000000000000000e+01 9.0158083923217749e+00 
253 254 2 1.0279999994823055e+00 -1.0134378725738859e+03 1.0000000000000000e+00 2.9494886897870202e+01 1.0000000000000000e+01 9.7654052449072513e+00 
390 391 2 1.0279999991533069e+00 8.9964313591656423e+02 1.0000000000000000e+00 3.2376687402973069e+01 1.0000000000000000e+01 8.4888886833374073e+00 
348 349 2 1.0280000005882848e+00 3.1456080802398228e+03 1.0000000000000000e+00 3.2713537768137058e+01 1.0000000000000000e+01 9.8593875548458652e+00 
503 504 2 1.0280000000000018e+00 -4.0676744426624009e+02 1.0000000000000000e+00 1.3627523907997212e+01 1.3800000000000001e+01 8.8279181170625911e+00 
752 753 2 1.0280000000000011e+00 1.2428565909061599e+03 1.0000000000000000e+00 2.1741114151018301e+01 1.3800000000000001e+01 9.5348774080959569e+00 
545 546 2 1.0279999999552982e+00 -2.0595317037858212e+02 1.0000000000000000e+00 2.9697779998640812e+01 1.3800000000000001e+01 9.8939026033512008e+00 
463 464 2 1.0280000000435234e+00 -9.4724014427580229e+01 1.0000000000000000e+00 3.1239758987311451e+01 1.3800000000000001e+01 9.1112627947946141e+00 
506 507 2 1.0279999999090834e+00 -2.2545422863156796e+02 1.0000000000000000e+00 3.2389803664009470e+01 1.3800000000000001e+01 9.8365055514866828e+00 
1344 1345 2 1.0279993538462984e+00 -1.0599362829160536e+03 1.0000000000000000e+00 2.8816441794524767e+01 1.7600000000000001e+01 8.6981113585153285e+00 
1263 1264 2 1.0280000003775309e+00 -3.5683840823114485e+02 1.0000000000000000e+00 3.2237615835260620e+01 1.7600000000000001e+01 9.0790812545874200e+00 
427 428 2 1.0279999999999994e+00 -7.2612012331188134e+02 1.0000000000000000e+00 1.2874547394467562e+01 1.0000000000000000e+01 1.0580445849475588e+01 
384 385 2 1.0279999999999994e+00 1.4923093876392877e+03 1.0000000000000000e+00 1.3924171408513820e+01 1.0000000000000000e+01 1.0126945632721320e+01 
335 336 2 1.0280000000000000e+00 -3.0255394688705826e+02 1.0000000000000000e+00 2.1629936154269206e+01 1.0000000000000000e+01 1.1647188238394071e+01 
340 341 2 1.0279999994774227e+00 2.8886497569956404e+01 1.0000000000000000e+00 3.0689943012552519e+01 1.0000000000000000e+01 1.0460764474031693e+01 
297 298 2 1.0279999995030686e+00 7.0951243734726040e+02 1.0000000000000000e+00 3.1970720515586326e+01 1.0000000000000000e+01 1.1316076058758647e+01 
703 704 2 1.0279999999999989e+00 -9.4983146903535010e+02 1.0000000000000000e+00 8.1056984318621392e+00 1.3800000000000001e+01 1.0004601867632896e+01 
704 705 2 1.0279999999999989e+00 -5.5811255229346762e+02 1.0000000000000000e+00 8.0505631497704560e+00 1.3800000000000001e+01 1.1146675909946886e+01 
793 794 2 1.0280000000000011e+00 -2.0196040754901542e+03 1.0000000000000000e+00 2.2303189462745276e+01 1.3800000000000001e+01 1.0530590399577820e+01 
714 715 2 1.0280000000189551e+00 -5.2386338600173951e+02 1.0000000000000000e+00 3.0641922876307017e+01 1.3800000000000001e+01 1.0748234505423447e+01 
1259 1260 2 1.0279999999999996e+00 -3.0259848695593928e+02 1.0000000000000000e+00 2.4252270802137723e+01 1.7600000000000001e+01 1.0738522801467560e+01 
1301 1302 2 1.0279999999999996e+00 -1.6391113465353283e+02 1.0000000000000000e+00 2.5379019432360963e+01 1.7600000000000001e+01 1.0932972130982462e+01 
1190 1191 2 1.0279999996695075e+00 6.9074719835867211e+02 1.0000000000000000e+00 2.8843430201863267e+01 1.7600000000000001e+01 1.1209400111390350e+01 
1230 1231 2 1.0280000004169696e+00 -9.5794803224612542e+02 1.0000000000000000e+00 3.0051536874623952e+01 1.7600000000000001e+01 1.0880606477259178e+01 
1177 1178 2 1.0279999998108837e+00 -1.0126479813266388e+03 1.0000000000000000e+00 3.1743450853461081e+01 1.7600000000000001e+01 1.0376638328896512e+01 
381 382 2 1.0280000000000007e+00 -1.7083775310469724e+02 1.0000000000000000e+00 1.8435754309759972e+01 1.0000000000000000e+01 1.3259565164461199e+01 
377 378 2 1.0280000000000000e+00 -1.6390627138295747e+02 1.0000000000000000e+00 2.2444033937562644e+01 1.0000000000000000e+01 1.2450069186415289e+01 
867 868 2 1.0280000000000034e+00 5.2175459596940959e+02 1.0000000000000000e+00 5.2371091007938719e-01 1.3800000000000001e+01 1.3296708558451446e+01 
501 502 2 1.0280000000000000e+00 -8.8982252883338401e+02 1.0000000000000000e+00 1.9073880923420507e+01 1.3800000000000001e+01 1.2867777875984784e+01 
1306 1307 2 1.0280000000088305e+00 2.8648256561411125e+02 1.0000000000000000e+00 2.9451996763982294e+01 1.7600000000000001e+01 1.2825716741835549e+01 
1137 1138 2 1.0279999998606939e+00 1.3266262947414207e+03 1.0000000000000000e+00 3.1659227118909946e+01 1.7600000000000001e+01 1.3126062220676372e+01 
1264 1265 2 1.0280000000848151e+00 2.7940186266527604e+01 1.0000000000000000e+00 3.2740899375458390e+01 1.7600000000000001e+01 1.1768160086572303e+01 
78 79 2 1.0280000000000000e+00 -1.2746189074491635e+03 1.0000000000000000e+00 9.5257875094888489e-01 1.0000000000000000e+01 1.4610479965380161e+01 
422 423 2 1.0280000000000007e+00 -3.9718041605413475e+02 1.0000000000000000e+00 1.9448000454861567e+01 1.0000000000000000e+01 1.3791289490767317e+01 
7 8 2 1.0280000001357088e+00 -7.2912384678050398e+02 1.0000000000000000e+00 3.1060438365845126e+01 1.0000000000000000e+01 1.4602791274414152e+01 
266 267 2 1.0279999997613607e+00 6.9544848376309551e+02 1.0000000000000000e+00 3.2758363101049824e+01 1.0000000000000000e+01 1.4988952679207479e+01 
593 594 2 1.0279999999999996e+00 -5.9543198072288169e+02 1.0000000000000000e+00 1.4619288009404825e+01 1.3800000000000001e+01 1.3753910924983778e+01 
552 553 2 1.0279999999999996e+00 -1.9710954105558137e+01 1.0000000000000000e+00 1.5032836467056271e+01 1.3800000000000001e+01 1.4819908434658567e+01 
921 922 2 1.0280000000000000e+00 -8.9195847476402650e+02 1.0000000000000000e+00 1.9548358026065650e+01 1.3800000000000001e+01 1.3908087683938266e+01 
889 890 2 1.0280000000000018e+00 -7.2586039525651995e+02 1.0000000000000000e+00 2.2869520779131264e+01 1.3800000000000001e+01 1.4282213681902164e+01 
846 847 2 1.0280000000000018e+00 1.4925430837916624e+03 1.0000000000000000e+00 2.4012892888498328e+01 1.3800000000000001e+01 1.4290771542630276e+01 
848 849 2 1.0279999999345384e+00 1.0037279798197962e+03 1.0000000000000000e+00 2.9674245563125112e+01 1.3800000000000001e+01 1.4542532547934888e+01 
849 850 2 1.0280000000778657e+00 1.3700605854121207e+02 1.0000000000000000e+00 3.0438061088768578e+01 1.3800000000000001e+01 1.3547013782795055e+01 
673 674 2 1.0280000000627147e+00 -5.3543454347245859e+02 1.0000000000000000e+00 3.2237716912099046e+01 1.3800000000000001e+01 1.3692586022468387e+01 
1261 1262 2 1.0280000000369010e+00 -1.0126105133712502e+02 1.0000000000000000e+00 2.6546631401942420e+01 1.7600000000000001e+01 1.3825768771940750e+01 
971 972 2 1.0280000000811589e+00 -8.2881950877054419e+02 1.0000000000000000e+00 2.8236397510843350e+01 1.7600000000000001e+01 1.3369838172330079e+01 
970 971 2 1.0279999999157696e+00 2.8159400797867943e+02 1.0000000000000000e+00 2.9355208640818322e+01 1.7600000000000001e+01 1.4759933277404045e+01 
1307 1308 2 1.0280000001738379e+00 -8.3422070153796517e+02 1.0000000000000000e+00 3.0736106053762615e+01 1.7600000000000001e+01 1.4403399137597747e+01 
1139 1140 2 1.0280000000253819e+00 -1.7426840260487488e+03 1.0000000000000000e+00 3.2596030728365925e+01 1.7600000000000001e+01 1.4301971971480642e+01 
122 123 2 1.0280000000000000e+00 1.3544075889454626e+02 1.0000000000000000e+00 1.7234351601278644e-01 1.0000000000000000e+01 1.5446306499789635e+01 
460 461 2 1.0279999999999989e+00 -7.3051202984703173e+02 1.0000000000000000e+00 1.4340844394135861e+01 1.0000000000000000e+01 1.6172717290374809e+01 
208 209 2 1.0279999999999998e+00 3.5234254848813782e+02 1.0000000000000000e+00 2.3199824970369590e+01 1.0000000000000000e+01 1.6496602634410376e+01 
209 210 2 1.0279999999999998e+00 1.8415877809386240e+02 1.0000000000000000e+00 2.4218478625099163e+01 1.0000000000000000e+01 1.5977259059149425e+01 
48 49 2 1.0279999998268143e+00 1.4915997776144109e+03 1.0000000000000000e+00 3.0956439237085512e+01 1.0000000000000000e+01 1.5841870655786591e+01 
721 722 2 1.0279999999816176e+00 1.6461228440165632e+03 1.0000000000000000e+00 3.1201430849388352e+01 1.3800000000000001e+01 1.5327027227935078e+01 
763 764 2 1.0280000000240859e+00 -4.5327329488189832e+02 1.0000000000000000e+00 3.1452192321826573e+01 1.3800000000000001e+01 1.6651919026467436e+01 
851 852 2 1.0280000000560017e+00 3.0052949155354599e+02 1.0000000000000000e+00 3.3274035574678130e+01 1.3800000000000001e+01 1.5493062827162882e+01 
1342 1343 2 1.0280000000000009e+00 -1.9184821928747067e+02 1.0000000000000000e+00 5.3738230085516268e+00 1.7600000000000001e+01 1.5778364535944252e+01 
1385 1386 2 1.0280000000000009e+00 -3.9964514565383047e+02 1.0000000000000000e+00 6.4526813930051832e+00 1.7600000000000001e+01 1.5399632963781331e+01 
1357 1358 2 1.0279999999932969e+00 1.2052321425068114e+03 1.0000000000000000e+00 2.2655242073984002e+01 1.7600000000000001e+01 1.6470777759223861e+01 
945 946 2 1.0279999999909777e+00 -2.8360628607031149e+03 1.0000000000000000e+00 2.4125034105877337e+01 1.7600000000000001e+01 1.6386634383787445e+01 
1303 1304 2 1.0279999999323381e+00 -1.0582993893544181e+03 1.0000000000000000e+00 2.6229615286180067e+01 1.7600000000000001e+01 1.5025607417434895e+01 
928 929 2 1.0280000000917573e+00 -8.9127206020670292e+02 1.0000000000000000e+00 2.7939380961398573e+01 1.7600000000000001e+01 1.5611793919324162e+01 
1013 1014 2 1.0279999999228555e+00 1.1859208510637228e+02 1.0000000000000000e+00 3.2884965510957741e+01 1.7600000000000001e+01 1.5996860221941787e+01 
42 43 2 1.0279999999999996e+00 -1.3782743015177687e+02 1.0000000000000000e+00 5.7385693920266165e+00 1.0000000000000000e+01 1.7402757490897656e+01 
372 373 2 1.0279999999999989e+00 -1.0259243983621698e+03 1.0000000000000000e+00 1.4464280341626205e+01 1.0000000000000000e+01 1.7309439149197761e+01 
378 379 2 1.0280000000000005e+00 -1.3353816667209281e+02 1.0000000000000000e+00 2.0075820792232943e+01 1.0000000000000000e+01 1.7703051969875457e+01 
326 327 2 1.0280000000000018e+00 -1.4726741044737278e+03 1.0000000000000000e+00 2.7097124310331406e+01 1.0000000000000000e+01 1.8142806204848974e+01 
86 87 2 1.0279999996953864e+00 -1.9319203749916144e+02 1.0000000000000000e+00 2.9259094434410549e+01 1.0000000000000000e+01 1.6772197785741032e+01 
128 129 2 1.0280000003182148e+00 -3.2099589205507152e+02 1.0000000000000000e+00 2.9602997112141988e+01 1.0000000000000000e+01 1.7900260269575863e+01 
173 174 2 1.0280000000363005e+00 1.2745245602845305e+03 1.0000000000000000e+00 3.1550206249775027e+01 1.0000000000000000e+01 1.8009747516249725e+01 
300 301 2 1.0279999998912226e+00 -1.9329647345705152e+03 1.0000000000000000e+00 3.2490438615976686e+01 1.0000000000000000e+01 1.7023698111708953e+01 
844 845 2 1.0280000001760374e+00 2.8585204813167348e+02 1.0000000000000000e+00 3.0593536040107654e+01 1.3800000000000001e+01 1.8328181092260781e+01 
507 508 2 1.0279999999314331e+00 -1.7498065815456744e+02 1.0000000000000000e+00 3.2870181124643501e+01 1.3800000000000001e+01 1.7507488678576987e+01 
1374 1375 2 1.0280000000275422e+00 1.1102088888242426e+03 1.0000000000000000e+00 1.7258725715406403e+01 1.7600000000000001e+01 1.7778487780492938e+01 
1229 1230 2 1.0280000000522915e+00 -1.3268903185543604e+03 1.0000000000000000e+00 2.3344015718656440e+01 1.7600000000000001e+01 1.7715551883956788e+01 
1365 1366 2 1.0280000001248695e+00 -2.8643341990974232e+03 1.0000000000000000e+00 2.5763962553873551e+01 1.7600000000000001e+01 1.7059118666683126e+01 
1348 1349 2 1.0279999998610978e+00 -8.9253604811725222e+02 1.0000000000000000e+00 2.7292170764521750e+01 1.7600000000000001e+01 1.6825273896046873e+01 
973 974 2 1.0279999999222951e+00 -1.2822865518759704e+03 1.0000000000000000e+00 3.1856707877014692e+01 1.7600000000000001e+01 1.6720824220135114e+01 
251 252 2 1.0279999999999996e+00 3.9831172756090655e+03 1.0000000000000000e+00 5.6919385665448585e+00 1.0000000000000000e+01 1.8545210371139827e+01 
420 421 2 1.0280000000000005e+00 -1.0599184849456046e+03 1.0000000000000000e+00 2.0323292080945588e+01 1.0000000000000000e+01 1.8819354338735096e+01 
324 325 2 1.0280000000000018e+00 -9.6996554110286343e+02 1.0000000000000000e+00 2.6018088428420672e+01 1.0000000000000000e+01 1.8521031776443301e+01 
257 258 2 1.0279999998589597e+00 1.1972925003475893e+03 1.0000000000000000e+00 3.0799205520591364e+01 1.0000000000000000e+01 1.9758996566243518e+01 
383 384 2 1.0280000000868093e+00 -8.3469450242695348e+02 1.0000000000000000e+00 3.2572129301711527e+01 1.0000000000000000e+01 1.9382047438678974e+01 
546 547 2 1.0280000000000011e+00 -1.0602524392520113e+03 1.0000000000000000e+00 2.4089373150213330e+01 1.3800000000000001e+01 1.9946715106175400e+01 
845 846 2 1.0279999998865985e+00 -8.3443537572611672e+02 1.0000000000000000e+00 2.9768620905292615e+01 1.3800000000000001e+01 1.9274594094660149e+01 
598 599 2 1.0279999999841480e+00 -1.1518925342176176e+03 1.0000000000000000e+00 3.1485219143595696e+01 1.3800000000000001e+01 1.9941316018408180e+01 
1251 1252 2 1.0279999999742293e+00 -1.3123932995301016e+03 1.0000000000000000e+00 1.7143485126142327e+01 1.7600000000000001e+01 1.8987292025979720e+01 
1345 1346 2 1.0280000000493790e+00 -7.5092564473909761e+01 1.0000000000000000e+00 1.8902745269968374e+01 1.7600000000000001e+01 1.8545114663066251e+01 
1055 1056 2 1.0280000000755427e+00 -5.9617388932834956e+02 1.0000000000000000e+00 2.0311600484397008e+01 1.7600000000000001e+01 1.8633143715712773e+01 
1051 1052 2 1.0279999999842993e+00 -1.1912038684304694e+03 1.0000000000000000e+00 2.4537719157233756e+01 1.7600000000000001e+01 1.9175760171518995e+01 
1363 1364 2 1.0279999998555203e+00 -5.7447374948245897e+02 1.0000000000000000e+00 2.5803930534785430e+01 1.7600000000000001e+01 1.8543022322686912e+01 
1142 1143 2 1.0279999995507643e+00 1.8967654971488473e+03 1.0000000000000000e+00 2.9557110185392013e+01 1.7600000000000001e+01 1.8533187486084291e+01 
1141 1142 2 1.0280000004942962e+00 -9.9203078522960169e+01 1.0000000000000000e+00 2.9829883356191942e+01 1.7600000000000001e+01 1.9820736927956936e+01 
1146 1147 2 1.0280000002860850e+00 -9.0033875410637029e+02 1.0000000000000000e+00 3.1168382219768976e+01 1.7600000000000001e+01 1.8425691485863496e+01 
1183 1184 2 1.0279999998382836e+00 1.6456157805325092e+03 1.0000000000000000e+00 3.2681417651628450e+01 1.7600000000000001e+01 1.8411886515375645e+01 
1225 1226 2 1.0280000002488259e+00 -4.5353115367166987e+02 1.0000000000000000e+00 3.3284815466142206e+01 1.7600000000000001e+01 1.9765479396801322e+01 
85 86 2 1.0279999998826910e+00 -1.0798045251826163e+02 1.0000000000000000e+00 2.7527347720782490e+01 1.0000000000000000e+01 2.0935168823248237e+01 
134 135 2 1.0279999997276230e+00 -6.6495937721499388e+01 1.0000000000000000e+00 2.9437032639124212e+01 1.0000000000000000e+01 2.0865415079774060e+01 
295 296 2 1.0280000001441072e+00 -1.2175570965513539e+03 1.0000000000000000e+00 3.1373698572219539e+01 1.0000000000000000e+01 2.1000587277295889e+01 
433 434 2 1.0279999997471452e+00 1.2050668583499501e+03 1.0000000000000000e+00 3.3108868212146781e+01 1.0000000000000000e+01 2.1039778911532103e+01 
512 513 2 1.0279999999999991e+00 1.0177989850363863e+03 1.0000000000000000e+00 1.7756570343551566e+01 1.3800000000000001e+01 2.1550050477558134e+01 
588 589 2 1.0280000000000011e+00 -1.3358729096729323e+02 1.0000000000000000e+00 2.4471961511855277e+01 1.3800000000000001e+01 2.1024211817536909e+01 
475 476 2 1.0280000000687670e+00 1.1359063813026116e+03 1.0000000000000000e+00 3.0681719099184416e+01 1.3800000000000001e+01 2.0923922974985327e+01 
1130 1131 2 1.0279999998760980e+00 1.2323368861980018e+03 1.0000000000000000e+00 1.8431411215908128e+01 1.7600000000000001e+01 2.1526984965246697e+01 
1304 1305 2 1.0279999998889158e+00 -2.1159041828707109e+02 1.0000000000000000e+00 1.9397599773192049e+01 1.7600000000000001e+01 2.0197820156989337e+01 
1014 1015 2 1.0280000000146461e+00 -2.0208854494951979e+01 1.0000000000000000e+00 2.0923850678196693e+01 1.7600000000000001e+01 2.0102268952810171e+01 
1049 1050 2 1.0279999997919520e+00 -1.7244426104412821e+02 1.0000000000000000e+00 2.3882111845664209e+01 1.7600000000000001e+01 2.0748563899307417e+01 
1056 1057 2 1.0280000004110199e+00 -1.9999736147740191e+03 1.0000000000000000e+00 2.5364003770864070e+01 1.7600000000000001e+01 2.0743017655985760e+01 
1362 1363 2 1.0280000000912506e+00 -5.0450412063387199e+02 1.0000000000000000e+00 2.7111515991285877e+01 1.7600000000000001e+01 2.0917881354370952e+01 
1319 1320 2 1.0280000001593501e+00 1.3040177948116270e+03 1.0000000000000000e+00 2.8099747616198080e+01 1.7600000000000001e+01 2.0174057741845694e+01 
1268 1269 2 1.0280000000411649e+00 -3.9705695554625197e+02 1.0000000000000000e+00 3.1504133770585241e+01 1.7600000000000001e+01 2.1627793834464551e+01 
1145 1146 2 1.0279999997998761e+00 -5.8632231702487979e+02 1.0000000000000000e+00 3.1746541528469148e+01 1.7600000000000001e+01 2.0173085627414377e+01 
82 83 2 1.0280000000000002e+00 -1.9852045877961501e+02 1.0000000000000000e+00 1.1807607421674346e+01 1.0000000000000000e+01 2.1903377850873433e+01 