LAMMPS data file via write_data, version 30 Jul 2016, timestep = 50400000

2772 atoms
8 atom types

0.0000000000000000e+00 1.0000000000000000e+02 xlo xhi
0.0000000000000000e+00 4.0000000000000000e+01 ylo yhi
0.0000000000000000e+00 4.0000000000000000e+01 zlo zhi

Masses

1 3.896
2 5.36
3 20.064
4 8.378
5 8.378
6 8.378
7 8.378
8 8.378

Atoms # meso-molecular

254 255 2 1.0280000017420847e+00 2.0795077095352809e+02 1.0000000000000000e+00 2.4826703717694869e+01 1.0000000000000000e+01 6.7656912282992954e-01 
255 256 2 1.0279999986483430e+00 3.7889323032944037e+02 1.0000000000000000e+00 2.3704763477281368e+01 1.0000000000000000e+01 1.1570793172980612e-01 
9 10 2 1.0280000030347680e+00 -1.0879015407034367e+03 1.0000000000000000e+00 2.8865408042318219e+01 1.0000000000000000e+01 7.2096609240194043e-01 
138 139 2 1.0280000005646448e+00 -1.0437760261735627e+03 1.0000000000000000e+00 3.0333835376517264e+01 1.0000000000000000e+01 1.5041711631403354e+00 
875 876 2 1.0280000000000089e+00 1.0326248199338681e+03 1.0000000000000000e+00 2.0330222146673261e+01 1.3800000000000001e+01 3.6828762720282054e-01 
852 853 2 1.0280000000199356e+00 9.0073313736232785e+02 1.0000000000000000e+00 2.9703270366457165e+01 1.3800000000000001e+01 1.1434915995818347e+00 
1386 1387 2 1.0280000000000000e+00 -1.3689574905921208e+02 1.0000000000000000e+00 1.4405819401537583e+01 1.7600000000000001e+01 1.4506139011675312e+00 
1343 1344 2 1.0280000000000000e+00 -2.0019662773579347e+02 1.0000000000000000e+00 1.5499258592410818e+01 1.7600000000000001e+01 1.1163030378662839e+00 
1384 1385 2 1.0279999998521041e+00 -7.3158994562604107e+02 1.0000000000000000e+00 2.4065705483964013e+01 1.7600000000000001e+01 1.2050813423365052e+00 
1179 1180 2 1.0280000002071026e+00 3.7685998296442347e+02 1.0000000000000000e+00 2.6169531453911478e+01 1.7600000000000001e+01 1.6536978473372812e+00 
1178 1179 2 1.0280000001304694e+00 2.0870795740651721e+02 1.0000000000000000e+00 2.5831343927326891e+01 1.7600000000000001e+01 2.5360047304990840e-01 
933 934 2 1.0279999999445213e+00 -1.0876738257571824e+03 1.0000000000000000e+00 3.1783227761983252e+01 1.7600000000000001e+01 1.2001408312424346e+00 
50 51 2 1.0280000000000000e+00 1.0180238091850072e+03 1.0000000000000000e+00 6.1729009168007263e+00 1.0000000000000000e+01 2.4190676673468334e+00 
450 451 2 1.0280000000000000e+00 1.1096033237460169e+03 1.0000000000000000e+00 1.7122876814283593e+01 1.0000000000000000e+01 2.7494754812920661e+00 
45 46 2 1.0279999949633609e+00 -1.7506656050313947e+02 1.0000000000000000e+00 2.6410217657336840e+01 1.0000000000000000e+01 1.8925624824082734e+00 
2 3 2 1.0280000052982212e+00 -4.0276824525064774e+02 1.0000000000000000e+00 2.7082595992223567e+01 1.0000000000000000e+01 2.8597884018467927e+00 
137 138 2 1.0280000014952075e+00 -1.2715351225351419e+03 1.0000000000000000e+00 2.8987615343585691e+01 1.0000000000000000e+01 2.3651991439652318e+00 
178 179 2 1.0280000078418217e+00 9.3234163528956037e+02 1.0000000000000000e+00 3.1197777566873167e+01 1.0000000000000000e+01 3.3176623323369681e+00 
177 178 2 1.0279999987704851e+00 2.4285464716011243e+03 1.0000000000000000e+00 3.1977219705104030e+01 1.0000000000000000e+01 1.7789267977820897e+00 
922 923 2 1.0280000000000005e+00 -7.3262503471638774e+02 1.0000000000000000e+00 8.1080605350861532e+00 1.3800000000000001e+01 3.2814905498881961e+00 
491 492 2 1.0279999999999996e+00 -3.5704749673904080e+03 1.0000000000000000e+00 1.8247652658409546e+01 1.3800000000000001e+01 3.0382842894745381e+00 
495 496 2 1.0279999999999996e+00 -6.6091936036844254e+02 1.0000000000000000e+00 1.9391054848120191e+01 1.3800000000000001e+01 3.0361747815596112e+00 
810 811 2 1.0280000000010825e+00 3.1464779647623955e+03 1.0000000000000000e+00 3.0833845130227079e+01 1.3800000000000001e+01 2.8318775794024376e+00 
480 481 2 1.0280000000023717e+00 -4.9005715701519819e+02 1.0000000000000000e+00 3.2829615766103089e+01 1.3800000000000001e+01 1.7112441382414849e+00 
471 472 2 1.0279999999977945e+00 -1.0875883261037588e+03 1.0000000000000000e+00 3.2165486313845783e+01 1.3800000000000001e+01 3.1717438325620861e+00 
1296 1297 2 1.0280000000671587e+00 -1.0248872070331618e+03 1.0000000000000000e+00 2.4326114077042838e+01 1.7600000000000001e+01 2.3479705011969081e+00 
1218 1219 2 1.0280000000302316e+00 -9.9923278362787528e+02 1.0000000000000000e+00 2.7199843700221653e+01 1.7600000000000001e+01 2.7645545210726419e+00 
1310 1311 2 1.0279999999421938e+00 1.0036632011449681e+03 1.0000000000000000e+00 2.9492256104487918e+01 1.7600000000000001e+01 2.9193911885768773e+00 
1311 1312 2 1.0280000002012761e+00 1.3724783237805920e+02 1.0000000000000000e+00 3.0419062650881244e+01 1.7600000000000001e+01 1.9191513798547282e+00 
1062 1063 2 1.0279999999341216e+00 -1.0420423327608137e+03 1.0000000000000000e+00 3.2748820428997007e+01 1.7600000000000001e+01 2.2818092357291992e+00 
51 52 2 1.0280000000000000e+00 9.8518688151159225e+01 1.0000000000000000e+00 5.8262982532401866e+00 1.0000000000000000e+01 3.5086729220475807e+00 
327 328 2 1.0280000000000000e+00 -1.3130628657544148e+03 1.0000000000000000e+00 1.7700436033051204e+01 1.0000000000000000e+01 3.7362877057174058e+00 
294 295 2 1.0280000068824988e+00 -9.9922356781197414e+02 1.0000000000000000e+00 2.4942711250678347e+01 1.0000000000000000e+01 3.5804524660052652e+00 
336 337 2 1.0279999931674890e+00 -1.1194925857080216e+03 1.0000000000000000e+00 2.5625670267681613e+01 1.0000000000000000e+01 4.5021992734166769e+00 
92 93 2 1.0280000018439039e+00 -4.2677227393824916e+02 1.0000000000000000e+00 2.9480914686054490e+01 1.0000000000000000e+01 3.8293757971944027e+00 
214 215 2 1.0279999950543779e+00 -2.0267284189139498e+03 1.0000000000000000e+00 3.0754253417631478e+01 1.0000000000000000e+01 4.8505464041140129e+00 
176 177 2 1.0279999995814832e+00 1.7929913894535680e+03 1.0000000000000000e+00 3.2745798135559006e+01 1.0000000000000000e+01 3.7301955762409684e+00 
834 835 2 1.0280000000000005e+00 -1.0261119569976242e+03 1.0000000000000000e+00 7.0358314288475512e+00 1.3800000000000001e+01 3.6786023240696064e+00 
708 709 2 1.0279999999999994e+00 -1.0320881861790747e+02 1.0000000000000000e+00 1.3098555342720280e+01 1.3800000000000001e+01 4.3828246892616773e+00 
707 708 2 1.0279999999999994e+00 1.9236099134485708e+03 1.0000000000000000e+00 1.4240290082366609e+01 1.3800000000000001e+01 4.3210606079241298e+00 
625 626 2 1.0279999999879865e+00 -2.0005584467838457e+03 1.0000000000000000e+00 2.9469408164793840e+01 1.3800000000000001e+01 3.5833435247787779e+00 
668 669 2 1.0280000000041336e+00 1.2315589957464149e+03 1.0000000000000000e+00 2.8459024197858867e+01 1.3800000000000001e+01 4.4815756480850251e+00 
1260 1261 2 1.0280000002566581e+00 -1.1187095938050754e+03 1.0000000000000000e+00 2.8151278567066502e+01 1.7600000000000001e+01 3.7721336293150576e+00 
974 975 2 1.0279999999772287e+00 1.0180566737149849e+03 1.0000000000000000e+00 2.9946444320769654e+01 1.7600000000000001e+01 4.8375201737921092e+00 
1096 1097 2 1.0279999999132097e+00 1.0822270755490565e+03 1.0000000000000000e+00 3.1541215993649313e+01 1.7600000000000001e+01 4.0009188922879115e+00 
1060 1061 2 1.0280000000770200e+00 -1.1511640688251446e+03 1.0000000000000000e+00 3.2904905400222795e+01 1.7600000000000001e+01 4.3574676171284343e+00 
131 132 2 1.0280000000000007e+00 -5.9578370057373536e+02 1.0000000000000000e+00 1.0074707177392492e+01 1.0000000000000000e+01 5.3450320149534294e+00 
90 91 2 1.0280000000000007e+00 -2.0167092494982068e+01 1.0000000000000000e+00 1.0420485568385287e+01 1.0000000000000000e+01 6.4348991269359734e+00 
47 48 2 1.0279999979703569e+00 -8.2941050246025156e+02 1.0000000000000000e+00 2.2118582477036700e+01 1.0000000000000000e+01 6.6203713515405207e+00 
386 387 2 1.0279999999201663e+00 1.0040320498462486e+03 1.0000000000000000e+00 2.7932131612920330e+01 1.0000000000000000e+01 6.1001048729976386e+00 
387 388 2 1.0280000065917752e+00 1.3735982750939482e+02 1.0000000000000000e+00 2.9395767216118813e+01 1.0000000000000000e+01 5.5352823955831809e+00 
183 184 2 1.0279999990586572e+00 8.8842014434818839e+02 1.0000000000000000e+00 3.3319454965743283e+01 1.0000000000000000e+01 5.9972814077996439e+00 
911 912 2 1.0280000000000007e+00 -3.6044516871787291e+03 1.0000000000000000e+00 1.7410786295229325e+01 1.3800000000000001e+01 5.6195607176846014e+00 
915 916 2 1.0280000000000007e+00 -6.6949719514965932e+02 1.0000000000000000e+00 1.8528019429410950e+01 1.3800000000000001e+01 5.8627954630345238e+00 
840 841 2 1.0280000000040221e+00 -1.3417083006966050e+02 1.0000000000000000e+00 2.9145618296471696e+01 1.3800000000000001e+01 5.8788347758592119e+00 
599 600 2 1.0279999999879692e+00 -1.2717718449414124e+03 1.0000000000000000e+00 3.1029982156851545e+01 1.3800000000000001e+01 5.6957687581381817e+00 
600 601 2 1.0280000000055296e+00 -1.0432821587501794e+03 1.0000000000000000e+00 3.2383101529389158e+01 1.3800000000000001e+01 5.3016680210897826e+00 
1253 1254 2 1.0280000003627778e+00 -7.1193627151032331e+01 1.0000000000000000e+00 2.7063597370850992e+01 1.7600000000000001e+01 5.4961396873163872e+00 
1252 1253 2 1.0279999996684082e+00 -8.6802377329833359e+02 1.0000000000000000e+00 2.7423886726193103e+01 1.7600000000000001e+01 6.6497118644302704e+00 
975 976 2 1.0279999999960654e+00 9.8963066027693785e+01 1.0000000000000000e+00 2.8948620338168851e+01 1.7600000000000001e+01 5.6365876348617183e+00 
1054 1055 2 1.0279999997432214e+00 -1.6805321228603930e+03 1.0000000000000000e+00 3.1857410512273024e+01 1.7600000000000001e+01 5.5901263548556042e+00 
937 938 2 1.0279999998209297e+00 1.1354890147805647e+03 1.0000000000000000e+00 3.3154169211669689e+01 1.7600000000000001e+01 6.4036121483646493e+00 
304 305 2 1.0280000024197269e+00 -1.1719332316241189e+03 1.0000000000000000e+00 2.1117312219753575e+01 1.0000000000000000e+01 7.3542895287310541e+00 
46 47 2 1.0280000033340679e+00 2.8081839280388374e+02 1.0000000000000000e+00 2.3481015996506940e+01 1.0000000000000000e+01 7.8587265820346746e+00 
343 344 2 1.0280000092933601e+00 -1.0382354006942433e+03 1.0000000000000000e+00 2.5447154698306065e+01 1.0000000000000000e+01 8.3043115361880684e+00 
374 375 2 1.0280000037336559e+00 1.4606324144330651e+02 1.0000000000000000e+00 2.6706411169876461e+01 1.0000000000000000e+01 6.7681409038857714e+00 
414 415 2 1.0279999992579720e+00 -1.2708511508886099e+03 1.0000000000000000e+00 2.7656059944716731e+01 1.0000000000000000e+01 7.9804184404129703e+00 
136 137 2 1.0280000014589514e+00 -1.1512683043892321e+03 1.0000000000000000e+00 3.0640246490038731e+01 1.0000000000000000e+01 7.0882752981829142e+00 
216 217 2 1.0280000038907209e+00 -8.5708295005606055e+02 1.0000000000000000e+00 3.2090499738656668e+01 1.0000000000000000e+01 6.8858619342298386e+00 
544 545 2 1.0279999999999963e+00 -2.0081061234409583e+02 1.0000000000000000e+00 1.2971689711876015e+01 1.3800000000000001e+01 7.7805924417907137e+00 
786 787 2 1.0279999999959675e+00 -9.6683957386686575e+02 1.0000000000000000e+00 2.8169021382824607e+01 1.3800000000000001e+01 7.1437530893217005e+00 
788 789 2 1.0280000000035507e+00 -1.4722152068440760e+03 1.0000000000000000e+00 2.8900338726492986e+01 1.3800000000000001e+01 8.3057010377466227e+00 
882 883 2 1.0279999999951512e+00 -1.0596639904008184e+03 1.0000000000000000e+00 3.0070353884888487e+01 1.3800000000000001e+01 7.2667900808673425e+00 
554 555 2 1.0280000000107525e+00 -4.2669300680324591e+02 1.0000000000000000e+00 3.1765343360229529e+01 1.3800000000000001e+01 7.1845747593421905e+00 
640 641 2 1.0279999999766474e+00 9.3232989501963789e+02 1.0000000000000000e+00 3.3195215362463919e+01 1.3800000000000001e+01 7.4782985919117611e+00 
1302 1303 2 1.0280003311549815e+00 -1.3403857477529300e+02 1.0000000000000000e+00 2.9530339216660593e+01 1.7600000000000001e+01 8.0280951177374504e+00 
1314 1315 2 1.0279999997356681e+00 9.0055825098706487e+02 1.0000000000000000e+00 3.3238800287019210e+01 1.7600000000000001e+01 8.0114586765205456e+00 
427 428 2 1.0279999999999994e+00 -7.2612012331188134e+02 1.0000000000000000e+00 1.3375934439416405e+01 1.0000000000000000e+01 8.8496228623195989e+00 
384 385 2 1.0279999999999994e+00 1.4923093876392877e+03 1.0000000000000000e+00 1.4425558453462662e+01 1.0000000000000000e+01 8.3961226455653311e+00 
379 380 2 1.0280000000000031e+00 -1.0578512929295689e+03 1.0000000000000000e+00 1.6980802643400885e+01 1.0000000000000000e+01 9.3739108084952907e+00 
337 338 2 1.0280000000000031e+00 -1.0058073003539124e+02 1.0000000000000000e+00 1.8065799662499746e+01 1.0000000000000000e+01 9.0131415110137691e+00 
307 308 2 1.0279999984699209e+00 -9.7256047823253357e+02 1.0000000000000000e+00 2.2398727232778157e+01 1.0000000000000000e+01 8.5399844842190973e+00 
423 424 2 1.0279999921826883e+00 -7.1777223649916573e+02 1.0000000000000000e+00 2.4736245772093252e+01 1.0000000000000000e+01 9.2618553274291244e+00 
339 340 2 1.0280000059624110e+00 -3.5737497850223997e+02 1.0000000000000000e+00 2.8961397389117213e+01 1.0000000000000000e+01 8.5445769367129039e+00 
13 14 2 1.0279999978826511e+00 1.1360248059772616e+03 1.0000000000000000e+00 3.0815837575063004e+01 1.0000000000000000e+01 8.5474356956098898e+00 
390 391 2 1.0280000048567353e+00 8.9964313591656423e+02 1.0000000000000000e+00 3.2373796346240503e+01 1.0000000000000000e+01 8.7355049676948724e+00 
703 704 2 1.0279999999999989e+00 -9.4983146903535010e+02 1.0000000000000000e+00 8.0814439298109040e+00 1.3800000000000001e+01 8.6729986864901143e+00 
704 705 2 1.0279999999999989e+00 -5.5811255229346762e+02 1.0000000000000000e+00 8.0263086477192207e+00 1.3800000000000001e+01 9.8150727288041040e+00 
503 504 2 1.0279999999999963e+00 -4.0676744426624009e+02 1.0000000000000000e+00 1.3749373442520769e+01 1.3800000000000001e+01 8.6187935110749372e+00 
752 753 2 1.0279999999999991e+00 1.2428565909061599e+03 1.0000000000000000e+00 2.2158566292265288e+01 1.3800000000000001e+01 9.4534683646783773e+00 
463 464 2 1.0280000000176541e+00 -9.4724014427580229e+01 1.0000000000000000e+00 3.1221939284295061e+01 1.3800000000000001e+01 9.3694825048574639e+00 
1344 1345 2 1.0279996689760111e+00 -1.0599362829160536e+03 1.0000000000000000e+00 2.8820181126815307e+01 1.7600000000000001e+01 8.9242256439936032e+00 
1263 1264 2 1.0280000001782452e+00 -3.5683840823114485e+02 1.0000000000000000e+00 3.2248672740099089e+01 1.7600000000000001e+01 9.2964929373905321e+00 
253 254 2 1.0279999990431323e+00 -1.0134378725738859e+03 1.0000000000000000e+00 2.9491948228316485e+01 1.0000000000000000e+01 1.0011925232851720e+01 
340 341 2 1.0280000072602813e+00 2.8886497570052189e+01 1.0000000000000000e+00 3.0686950698152859e+01 1.0000000000000000e+01 1.0707319622518407e+01 
348 349 2 1.0279999973636997e+00 3.1456080802398228e+03 1.0000000000000000e+00 3.2710572294981304e+01 1.0000000000000000e+01 1.0105989937227253e+01 
297 298 2 1.0280000026153320e+00 7.0951243734726040e+02 1.0000000000000000e+00 3.1967713526322711e+01 1.0000000000000000e+01 1.1562715378828569e+01 
904 905 2 1.0279999999999996e+00 -2.6307052649938678e+03 1.0000000000000000e+00 4.7903031691474351e-01 1.3800000000000001e+01 1.0768364490790921e+01 
793 794 2 1.0279999999999991e+00 -2.0196040754901542e+03 1.0000000000000000e+00 2.2720641603992270e+01 1.3800000000000001e+01 1.0449181356160240e+01 
545 546 2 1.0279999999811567e+00 -2.0595317037858212e+02 1.0000000000000000e+00 2.9679958464014000e+01 1.3800000000000001e+01 1.0152123123166358e+01 
714 715 2 1.0280000000085094e+00 -5.2386338600173951e+02 1.0000000000000000e+00 3.0624100298362102e+01 1.3800000000000001e+01 1.1006454791683847e+01 
506 507 2 1.0279999999629996e+00 -2.2545422863156796e+02 1.0000000000000000e+00 3.2371982006079222e+01 1.3800000000000001e+01 1.0094725177090886e+01 
1259 1260 2 1.0279999999999996e+00 -3.0259848695593928e+02 1.0000000000000000e+00 2.3905377069909541e+01 1.7600000000000001e+01 1.1150941594628456e+01 
1301 1302 2 1.0279999999999996e+00 -1.6391113465353283e+02 1.0000000000000000e+00 2.5032125700132781e+01 1.7600000000000001e+01 1.1345390924143357e+01 
1190 1191 2 1.0279999998392004e+00 6.9074719835867211e+02 1.0000000000000000e+00 2.8854543995186443e+01 1.7600000000000001e+01 1.1426910359535343e+01 
1230 1231 2 1.0280000002062428e+00 -9.5794803224612542e+02 1.0000000000000000e+00 3.0062647896455214e+01 1.7600000000000001e+01 1.1098096191516037e+01 
1177 1178 2 1.0279999999166796e+00 -1.0126479813266388e+03 1.0000000000000000e+00 3.1754539106074738e+01 1.7600000000000001e+01 1.0594086076286819e+01 
78 79 2 1.0279999999999996e+00 -1.2746189074491635e+03 1.0000000000000000e+00 1.1652488491827564e+00 1.0000000000000000e+01 1.2442479950844952e+01 
122 123 2 1.0279999999999996e+00 1.3544075889454626e+02 1.0000000000000000e+00 3.8501361424665714e-01 1.0000000000000000e+01 1.3278306485254426e+01 
335 336 2 1.0280000000000000e+00 -3.0255394688705826e+02 1.0000000000000000e+00 2.1716187912360500e+01 1.0000000000000000e+01 1.1677704860156970e+01 
377 378 2 1.0280000000000000e+00 -1.6390627138295747e+02 1.0000000000000000e+00 2.2530285695653937e+01 1.0000000000000000e+01 1.2480585808178189e+01 
867 868 2 1.0279999999999996e+00 5.2175459596940959e+02 1.0000000000000000e+00 1.0696824723242810e+00 1.3800000000000001e+01 1.1747396180149753e+01 
593 594 2 1.0279999999999996e+00 -5.9543198072288169e+02 1.0000000000000000e+00 1.4608822868828481e+01 1.3800000000000001e+01 1.2299288493587802e+01 
501 502 2 1.0280000000000000e+00 -8.8982252883338401e+02 1.0000000000000000e+00 1.9074806958136083e+01 1.3800000000000001e+01 1.2918676188038743e+01 
1306 1307 2 1.0279999999949454e+00 2.8648256561411125e+02 1.0000000000000000e+00 2.9463115457175110e+01 1.7600000000000001e+01 1.3043218995703041e+01 
1264 1265 2 1.0280000000041416e+00 2.7940186266527604e+01 1.0000000000000000e+00 3.2751971461312543e+01 1.7600000000000001e+01 1.1985604842300452e+01 
460 461 2 1.0279999999999989e+00 -7.3051202984703173e+02 1.0000000000000000e+00 1.4773387086288398e+01 1.0000000000000000e+01 1.4305486407750838e+01 
381 382 2 1.0280000000000007e+00 -1.7083775310469724e+02 1.0000000000000000e+00 1.8287078361052039e+01 1.0000000000000000e+01 1.3506969036783337e+01 
422 423 2 1.0280000000000007e+00 -3.9718041605413475e+02 1.0000000000000000e+00 1.9299324506153635e+01 1.0000000000000000e+01 1.4038693363089456e+01 
7 8 2 1.0279999904450088e+00 -7.2912384676731904e+02 1.0000000000000000e+00 3.1057245879757584e+01 1.0000000000000000e+01 1.4849367737624465e+01 
552 553 2 1.0279999999999996e+00 -1.9710954105558137e+01 1.0000000000000000e+00 1.5022371326479927e+01 1.3800000000000001e+01 1.3365286003262591e+01 
921 922 2 1.0280000000000000e+00 -8.9195847476402650e+02 1.0000000000000000e+00 1.9549284060781225e+01 1.3800000000000001e+01 1.3958985995992226e+01 
889 890 2 1.0280000000000018e+00 -7.2586039525651995e+02 1.0000000000000000e+00 2.2329420951513995e+01 1.3800000000000001e+01 1.4765616164744785e+01 
846 847 2 1.0280000000000018e+00 1.4925430837916624e+03 1.0000000000000000e+00 2.3472793060881060e+01 1.3800000000000001e+01 1.4774174025472897e+01 
848 849 2 1.0279999999737324e+00 1.0037279798197962e+03 1.0000000000000000e+00 2.9656455853595205e+01 1.3800000000000001e+01 1.4800735160415947e+01 
849 850 2 1.0280000000309293e+00 1.3700605854121207e+02 1.0000000000000000e+00 3.0420266840248853e+01 1.3800000000000001e+01 1.3805214732065700e+01 
673 674 2 1.0280000000257210e+00 -5.3543454347245859e+02 1.0000000000000000e+00 3.2219923767581491e+01 1.3800000000000001e+01 1.3950794530959035e+01 
1261 1262 2 1.0280000000333263e+00 -1.0126105133712502e+02 1.0000000000000000e+00 2.6557759931837516e+01 1.7600000000000001e+01 1.4043304003867682e+01 
971 972 2 1.0280000000493115e+00 -8.2881950877054419e+02 1.0000000000000000e+00 2.8247520521625578e+01 1.7600000000000001e+01 1.3587350287923332e+01 
970 971 2 1.0279999999606604e+00 2.8159400797867943e+02 1.0000000000000000e+00 2.9366327797907285e+01 1.7600000000000001e+01 1.4977445607369619e+01 
1307 1308 2 1.0280000000798768e+00 -8.3422070153796517e+02 1.0000000000000000e+00 3.0747220610519683e+01 1.7600000000000001e+01 1.4620899505913989e+01 
1137 1138 2 1.0279999999656697e+00 1.3266262947414207e+03 1.0000000000000000e+00 3.1670332829852956e+01 1.7600000000000001e+01 1.3343543623648474e+01 
1139 1140 2 1.0279999999524196e+00 -1.7426840260487488e+03 1.0000000000000000e+00 3.2607128719609541e+01 1.7600000000000001e+01 1.4519454517441028e+01 
42 43 2 1.0279999999999996e+00 -1.3782743015177687e+02 1.0000000000000000e+00 5.2484822776690097e+00 1.0000000000000000e+01 1.5833060209941195e+01 
372 373 2 1.0279999999999989e+00 -1.0259243983621698e+03 1.0000000000000000e+00 1.4896823033778743e+01 1.0000000000000000e+01 1.5442208266573790e+01 
209 210 2 1.0280000000000002e+00 1.8415877809386240e+02 1.0000000000000000e+00 2.4180444002891857e+01 1.0000000000000000e+01 1.6173617980449531e+01 
48 49 2 1.0280000095288426e+00 1.4915997776144109e+03 1.0000000000000000e+00 3.0953063010334663e+01 1.0000000000000000e+01 1.6088396917046563e+01 
266 267 2 1.0280000058305936e+00 6.9544848376309551e+02 1.0000000000000000e+00 3.2755240605220045e+01 1.0000000000000000e+01 1.5235570065278026e+01 
721 722 2 1.0279999999939806e+00 1.6461228440165632e+03 1.0000000000000000e+00 3.1183645401060861e+01 1.3800000000000001e+01 1.5585228097522549e+01 
851 852 2 1.0280000000248657e+00 3.0052949155354599e+02 1.0000000000000000e+00 3.3256260245265878e+01 1.3800000000000001e+01 1.5751271644634540e+01 
1342 1343 2 1.0280000000000009e+00 -1.9184821928747067e+02 1.0000000000000000e+00 4.8544718192111693e+00 1.7600000000000001e+01 1.6116992452517035e+01 
1385 1386 2 1.0280000000000009e+00 -3.9964514565383047e+02 1.0000000000000000e+00 5.9333302037509030e+00 1.7600000000000001e+01 1.5738260880599599e+01 
945 946 2 1.0280000000220746e+00 -2.8360628607031149e+03 1.0000000000000000e+00 2.4136179376931914e+01 1.7600000000000001e+01 1.6604187174947057e+01 
1303 1304 2 1.0279999999454701e+00 -1.0582993893544181e+03 1.0000000000000000e+00 2.6240750970339271e+01 1.7600000000000001e+01 1.5243144175511429e+01 
928 929 2 1.0280000000324376e+00 -8.9127206020670292e+02 1.0000000000000000e+00 2.7950513875446703e+01 1.7600000000000001e+01 1.5829328265494864e+01 
1013 1014 2 1.0279999999857374e+00 1.1859208510637228e+02 1.0000000000000000e+00 3.2896063026239524e+01 1.7600000000000001e+01 1.6214366866096732e+01 
251 252 2 1.0279999999999996e+00 3.9831172756090655e+03 1.0000000000000000e+00 5.2018514521872516e+00 1.0000000000000000e+01 1.6975513090183366e+01 
378 379 2 1.0280000000000005e+00 -1.3353816667209281e+02 1.0000000000000000e+00 2.0048259224626971e+01 1.0000000000000000e+01 1.7963988924408010e+01 
208 209 2 1.0280000000000002e+00 3.5234254848813782e+02 1.0000000000000000e+00 2.3161790348162508e+01 1.0000000000000000e+01 1.6692961555710919e+01 
86 87 2 1.0279999895295586e+00 -1.9319203749916144e+02 1.0000000000000000e+00 2.9255836406634096e+01 1.0000000000000000e+01 1.7018717171632471e+01 
128 129 2 1.0280000118707917e+00 -3.2099589205507152e+02 1.0000000000000000e+00 2.9599699062844159e+01 1.0000000000000000e+01 1.8146816978977807e+01 
173 174 2 1.0279999954299388e+00 1.2745245602845305e+03 1.0000000000000000e+00 3.1546832097218260e+01 1.0000000000000000e+01 1.8256309724662479e+01 
300 301 2 1.0280000098957598e+00 -1.9329647345416990e+03 1.0000000000000000e+00 3.2487214767596001e+01 1.0000000000000000e+01 1.7270195788857489e+01 
763 764 2 1.0280000000109966e+00 -4.5327329488189832e+02 1.0000000000000000e+00 3.1434417438744049e+01 1.3800000000000001e+01 1.6910116806841696e+01 
507 508 2 1.0279999999699223e+00 -1.7498065815456744e+02 1.0000000000000000e+00 3.2852410265707626e+01 1.3800000000000001e+01 1.7765691000669264e+01 
1374 1375 2 1.0280000000290066e+00 1.1102088888242426e+03 1.0000000000000000e+00 1.7269880596642952e+01 1.7600000000000001e+01 1.7996104356451930e+01 
1357 1358 2 1.0279999999968181e+00 1.2052321425068114e+03 1.0000000000000000e+00 2.2666389089642877e+01 1.7600000000000001e+01 1.6688333180552121e+01 
1229 1230 2 1.0279999999974534e+00 -1.3268903185543604e+03 1.0000000000000000e+00 2.3355161653324267e+01 1.7600000000000001e+01 1.7933109600315316e+01 
1365 1366 2 1.0280000000555103e+00 -2.8643341990974232e+03 1.0000000000000000e+00 2.5775104764383372e+01 1.7600000000000001e+01 1.7276669490981970e+01 
1348 1349 2 1.0279999999505851e+00 -8.9253604811725222e+02 1.0000000000000000e+00 2.7303308748959587e+01 1.7600000000000001e+01 1.7042812138553373e+01 
973 974 2 1.0279999999470810e+00 -1.2822865518759704e+03 1.0000000000000000e+00 3.1867819180209040e+01 1.7600000000000001e+01 1.6938333754257869e+01 
420 421 2 1.0280000000000005e+00 -1.0599184849456046e+03 1.0000000000000000e+00 2.0295730513339617e+01 1.0000000000000000e+01 1.9080291293267649e+01 
324 325 2 1.0280000000000018e+00 -9.6996554110286343e+02 1.0000000000000000e+00 2.6000972622048469e+01 1.0000000000000000e+01 1.8824234237270680e+01 
326 327 2 1.0280000000000018e+00 -1.4726741044737278e+03 1.0000000000000000e+00 2.7080008503959203e+01 1.0000000000000000e+01 1.8446008665676352e+01 
383 384 2 1.0280000117934627e+00 -8.3469450242070468e+02 1.0000000000000000e+00 3.2568560624999201e+01 1.0000000000000000e+01 1.9628544545001159e+01 
845 846 2 1.0279999999494767e+00 -8.3443537572611672e+02 1.0000000000000000e+00 2.9750857414006219e+01 1.3800000000000001e+01 1.9532793600584586e+01 
844 845 2 1.0280000000809593e+00 2.8585204813167348e+02 1.0000000000000000e+00 3.0575769592009134e+01 1.3800000000000001e+01 1.8586376132261243e+01 
1251 1252 2 1.0279999999699823e+00 -1.3123932995301016e+03 1.0000000000000000e+00 1.7154641524885143e+01 1.7600000000000001e+01 1.9204909459361097e+01 
1345 1346 2 1.0280000000317377e+00 -7.5092564473909761e+01 1.0000000000000000e+00 1.8913898889032069e+01 1.7600000000000001e+01 1.8762729223760338e+01 
1055 1056 2 1.0280000000480294e+00 -5.9617388932834956e+02 1.0000000000000000e+00 2.0322759472921728e+01 1.7600000000000001e+01 1.8850749463070198e+01 
1051 1052 2 1.0279999999713485e+00 -1.1912038684304694e+03 1.0000000000000000e+00 2.4548851215650039e+01 1.7600000000000001e+01 1.9393311352400318e+01 
1363 1364 2 1.0279999999376326e+00 -5.7447374948245897e+02 1.0000000000000000e+00 2.5815060537867634e+01 1.7600000000000001e+01 1.8760575694707320e+01 
1142 1143 2 1.0279999997642579e+00 1.8967654971488473e+03 1.0000000000000000e+00 2.9568217048338536e+01 1.7600000000000001e+01 1.8750733835070150e+01 
1146 1147 2 1.0280000001773135e+00 -9.0033875410637029e+02 1.0000000000000000e+00 3.1179475585296572e+01 1.7600000000000001e+01 1.8643219832030773e+01 
1183 1184 2 1.0279999998665437e+00 1.6456157805325092e+03 1.0000000000000000e+00 3.2692501896330356e+01 1.7600000000000001e+01 1.8629414595340783e+01 
1225 1226 2 1.0280000001431608e+00 -4.5353115367166987e+02 1.0000000000000000e+00 3.3295886105955603e+01 1.7600000000000001e+01 1.9983015899816277e+01 
82 83 2 1.0280000000000002e+00 -1.9852045877961501e+02 1.0000000000000000e+00 1.1853443830831464e+01 1.0000000000000000e+01 2.0495232677075485e+01 
41 42 2 1.0280000000000002e+00 -4.0400303423217883e+02 1.0000000000000000e+00 1.2560593665215050e+01 1.0000000000000000e+01 2.1393738174660228e+01 
85 86 2 1.0280000015050696e+00 -1.0798045251325010e+02 1.0000000000000000e+00 2.7524125156618993e+01 1.0000000000000000e+01 2.1181730883244374e+01 
134 135 2 1.0280000063409258e+00 -6.6495937709491670e+01 1.0000000000000000e+00 2.9433689983842743e+01 1.0000000000000000e+01 2.1111912349838128e+01 
295 296 2 1.0280000062830896e+00 -1.2175570965513539e+03 1.0000000000000000e+00 3.1370270916957480e+01 1.0000000000000000e+01 2.1247121891757015e+01 
257 258 2 1.0279999971705802e+00 1.1972925003475893e+03 1.0000000000000000e+00 3.0795742433010311e+01 1.0000000000000000e+01 2.0005428030159543e+01 
433 434 2 1.0279999938571505e+00 1.2050668583499501e+03 1.0000000000000000e+00 3.3105234690497390e+01 1.0000000000000000e+01 2.1286316249256664e+01 
801 802 2 1.0279999999999994e+00 -3.5725422802630612e+02 1.0000000000000000e+00 9.5249001417409467e+00 1.3800000000000001e+01 2.0466573021725829e+01 
715 716 2 1.0279999999999994e+00 -1.0133433720139594e+03 1.0000000000000000e+00 9.7605972376652517e+00 1.3800000000000001e+01 2.1585420596881441e+01 
512 513 2 1.0280000000000005e+00 1.0177989850363863e+03 1.0000000000000000e+00 1.7694713784210244e+01 1.3800000000000001e+01 2.1130171510762995e+01 
588 589 2 1.0280000000000011e+00 -1.3358729096729323e+02 1.0000000000000000e+00 2.4498247245977943e+01 1.3800000000000001e+01 2.1284774746636614e+01 
546 547 2 1.0280000000000011e+00 -1.0602524392520113e+03 1.0000000000000000e+00 2.4115658884335996e+01 1.3800000000000001e+01 2.0207278035275106e+01 
475 476 2 1.0280000000388327e+00 1.1359063813026116e+03 1.0000000000000000e+00 3.0663957627505329e+01 1.3800000000000001e+01 2.1182116052997674e+01 
598 599 2 1.0279999999874510e+00 -1.1518925342176176e+03 1.0000000000000000e+00 3.1467457633405616e+01 1.3800000000000001e+01 2.0199509723255296e+01 
1304 1305 2 1.0279999999204574e+00 -2.1159041828707109e+02 1.0000000000000000e+00 1.9408750212210791e+01 1.7600000000000001e+01 2.0415429871536581e+01 
1014 1015 2 1.0280000000277130e+00 -2.0208854494951979e+01 1.0000000000000000e+00 2.0935000192071204e+01 1.7600000000000001e+01 2.0319866852297672e+01 
1049 1050 2 1.0279999998881963e+00 -1.7244426104412821e+02 1.0000000000000000e+00 2.3893241672674332e+01 1.7600000000000001e+01 2.0966122499069542e+01 
1056 1057 2 1.0280000002189249e+00 -1.9999736147740191e+03 1.0000000000000000e+00 2.5375128135450787e+01 1.7600000000000001e+01 2.0960579735800753e+01 
1362 1363 2 1.0280000000366221e+00 -5.0450412063387199e+02 1.0000000000000000e+00 2.7122635646602237e+01 1.7600000000000001e+01 2.1135461076192477e+01 
1319 1320 2 1.0280000000888976e+00 1.3040177948116270e+03 1.0000000000000000e+00 2.8110857729705071e+01 1.7600000000000001e+01 2.0391622700270162e+01 
1141 1142 2 1.0280000002405274e+00 -9.9203078522960169e+01 1.0000000000000000e+00 2.9840986830681089e+01 1.7600000000000001e+01 2.0038291417306553e+01 