LAMMPS data file via write_data, version 30 Jul 2016, timestep = 50400000

4620 atoms
8 atom types

0.0000000000000000e+00 1.0000000000000000e+02 xlo xhi
0.0000000000000000e+00 4.0000000000000000e+01 ylo yhi
0.0000000000000000e+00 4.0000000000000000e+01 zlo zhi

Masses

1 3.896
2 5.36
3 20.064
4 8.378
5 8.378
6 8.378
7 8.378
8 8.378

Atoms # meso-molecular

464 465 2 1.0279999999999843e+00 -4.7518498625747355e+01 1.0000000000000000e+00 3.2886798723190346e+01 7.4896060414237553e+00 3.0333397197406362e+00 
3903 3904 2 1.0280000000000071e+00 -1.4624320340727386e+03 1.0000000000000000e+00 3.3328284035133450e+01 6.7688332550260668e+00 2.2852886745495460e+00 
2501 2502 2 1.0279999999999776e+00 -4.1253371518084623e+02 1.0000000000000000e+00 3.1894071549459699e+01 1.6640260802635886e+01 3.7204149204879229e+01 
2500 2501 2 1.0279999999999823e+00 -3.7696561288446924e+02 1.0000000000000000e+00 3.1892470736749036e+01 1.6642567543297478e+01 3.7206053809476664e+01 
1581 1582 2 1.0280000000000087e+00 -4.0374235094330132e+01 1.0000000000000000e+00 3.3220589988235304e+01 1.7254305740366753e+01 3.7659168363787494e+01 
1438 1439 2 1.0279999999999994e+00 7.6167712330854124e+02 1.0000000000000000e+00 2.6559119439258858e+01 2.7299311161155206e+01 2.9794073278842475e+01 
926 927 2 1.0280000000000034e+00 -9.7654854399679130e+02 1.0000000000000000e+00 2.7692781270949698e+01 2.6468664748100988e+01 2.9325735297283966e+01 
973 974 2 1.0280000000000007e+00 3.0036815111597491e+02 1.0000000000000000e+00 2.7965554209927657e+01 2.6695921547142262e+01 2.9566858753398133e+01 
1436 1437 2 1.0280000000000029e+00 2.9090518519488717e+02 1.0000000000000000e+00 2.6854234271707636e+01 2.8012022854886041e+01 2.9831680056764590e+01 
131 132 2 1.0279999999999958e+00 2.0092093644847178e+03 1.0000000000000000e+00 2.7501185376301823e+01 2.9302919846621574e+01 3.0477220893168784e+01 
1478 1479 2 1.0279999999999960e+00 -1.2053215401075581e+03 1.0000000000000000e+00 2.8661880214337859e+01 2.9712589587118661e+01 3.1270208416609275e+01 
796 797 2 1.0280000000000058e+00 -2.8753388340112247e+02 1.0000000000000000e+00 2.7660762867317512e+01 2.9850764269660882e+01 3.1049787649298480e+01 
1730 1731 2 1.0279999999999963e+00 -1.1674894468459397e+03 1.0000000000000000e+00 3.0052652689438318e+01 2.9018894668382430e+01 3.1473646360481535e+01 
4322 4323 2 1.0279999999999836e+00 1.5499179285291575e+03 1.0000000000000000e+00 2.2650456667543246e+01 3.0259717597417456e+01 3.0653581180284981e+01 
2518 2519 2 1.0280000000000051e+00 2.1615445469194833e+03 1.0000000000000000e+00 2.2662745890261082e+01 3.0772814522949471e+01 3.0584426249422894e+01 
3357 3358 2 1.0279999999999998e+00 1.1128423584418327e+02 1.0000000000000000e+00 2.1947796611816184e+01 3.1124063417278776e+01 3.1911150868310102e+01 
209 210 2 1.0279999999999923e+00 8.2084566334222586e+02 1.0000000000000000e+00 2.5384633304090379e+01 3.0051240512411624e+01 3.1000092897309617e+01 
634 635 2 1.0280000000000042e+00 -1.4848760959621254e+03 1.0000000000000000e+00 2.4586454293542502e+01 3.0507262635176794e+01 3.0852406345212312e+01 
1046 1047 2 1.0280000000000005e+00 1.0922333379682582e+03 1.0000000000000000e+00 2.5142673161842755e+01 3.0266269811742823e+01 3.1858800894367430e+01 
1971 1972 2 1.0280000000000009e+00 -3.0297281485073881e+03 1.0000000000000000e+00 2.2838320663923227e+01 2.9853756474679489e+01 3.2780548279985517e+01 
791 792 2 1.0280000000000051e+00 4.5107273901625113e+03 1.0000000000000000e+00 2.3812052687366776e+01 2.9747404552134817e+01 3.3148670188064123e+01 
507 508 2 1.0280000000000029e+00 -1.2225394138091633e+03 1.0000000000000000e+00 2.9912283363543821e+01 2.8696289154010731e+01 3.2033699027140855e+01 
2889 2890 2 1.0280000000000016e+00 -3.5346852653562082e+03 1.0000000000000000e+00 2.9831331183008043e+01 2.9847388914401929e+01 3.3496752299617448e+01 
2440 2441 2 1.0280000000000105e+00 4.0798119070635764e+01 1.0000000000000000e+00 3.1691202949062390e+01 2.8678338247955249e+01 3.2016044900204015e+01 
299 300 2 1.0279999999999905e+00 2.0055302528611401e+03 1.0000000000000000e+00 3.1989188570050878e+01 2.8698912781679738e+01 3.2244098092220611e+01 
3442 3443 2 1.0279999999999936e+00 -8.1167555851077987e+02 1.0000000000000000e+00 2.1744177179969366e+01 3.0386138874732865e+01 3.2294985645802868e+01 
1922 1923 2 1.0279999999999883e+00 2.1287459730636720e+03 1.0000000000000000e+00 2.4434470697982650e+01 3.0142384365117827e+01 3.3792824831031176e+01 
168 169 2 1.0280000000000020e+00 -4.4719969379893118e+03 1.0000000000000000e+00 2.9238827594135138e+01 3.0120295714528055e+01 3.3823589918077069e+01 
3329 3330 2 1.0279999999999805e+00 1.9959174267973649e+03 1.0000000000000000e+00 3.1282429318765978e+01 3.1333009281802049e+01 3.2091742557045762e+01 
2862 2863 2 1.0280000000000082e+00 -1.0160329356495627e+03 1.0000000000000000e+00 3.0820984891988235e+01 3.1850296077247236e+01 3.2213517652290598e+01 
3405 3406 2 1.0280000000000085e+00 -8.3694369451975831e+02 1.0000000000000000e+00 3.2064622834122375e+01 3.0962097269314537e+01 3.3010504367141777e+01 
127 128 2 1.0279999999999845e+00 -4.4647879917097043e+03 1.0000000000000000e+00 3.0639608238920694e+01 3.2192119467313631e+01 3.3687199121281985e+01 
3788 3789 2 1.0279999999999885e+00 -2.2134674419881776e+03 1.0000000000000000e+00 2.9879357175786762e+01 3.2726914613298447e+01 3.3739227529340816e+01 
1089 1090 2 1.0280000000000116e+00 3.0474635288889931e+03 1.0000000000000000e+00 2.5371263436591416e+01 2.9794094993808628e+01 3.5420406852940644e+01 
2866 2867 2 1.0280000000000080e+00 -3.3327542178031590e+03 1.0000000000000000e+00 3.1238487342296871e+01 2.9888193866209942e+01 3.4176188240544313e+01 
4196 4197 2 1.0280000000000087e+00 -3.2305225081678814e+03 1.0000000000000000e+00 2.5032598220185221e+01 3.0107030111548330e+01 3.5390055011940809e+01 
3350 3351 2 1.0279999999999887e+00 2.0502171257281871e+03 1.0000000000000000e+00 2.6045981155697774e+01 3.0070273669325147e+01 3.4196564526331265e+01 
2380 2381 2 1.0280000000000138e+00 3.3917636966151531e+03 1.0000000000000000e+00 2.7373537443976087e+01 3.0223082298882041e+01 3.4013642455783632e+01 
3815 3816 2 1.0279999999999883e+00 -2.3354934108572352e+03 1.0000000000000000e+00 2.7664044743664025e+01 3.1296992550437697e+01 3.4242440086790168e+01 
542 543 2 1.0279999999999985e+00 1.1907529729741977e+03 1.0000000000000000e+00 2.7947898784309025e+01 3.0928508879009499e+01 3.5230667661966351e+01 
4201 4202 2 1.0279999999999847e+00 -2.8553421486100578e+03 1.0000000000000000e+00 2.9392850295102882e+01 3.1673344995839269e+01 3.5655123502949358e+01 
2823 2824 2 1.0280000000000040e+00 7.4091242538730035e+02 1.0000000000000000e+00 2.9721992721316749e+01 3.1025658244747035e+01 3.5262305664779866e+01 
4242 4243 2 1.0280000000000007e+00 -2.8501455063666845e+03 1.0000000000000000e+00 3.1699471227572790e+01 3.0491500140759882e+01 3.4518298744318869e+01 
509 510 2 1.0279999999999887e+00 1.1907688128426860e+03 1.0000000000000000e+00 3.3037932295544010e+01 3.1478003880133596e+01 3.4679758933487875e+01 
1476 1477 2 1.0279999999999927e+00 -9.9783731051495897e+02 1.0000000000000000e+00 2.9207728897905056e+01 3.3364653010179651e+01 3.4838785884052413e+01 
3114 3115 2 1.0280000000000000e+00 -1.2190942286756022e+03 1.0000000000000000e+00 2.8709827715627458e+01 3.3053838609942780e+01 3.4932341121695281e+01 
1054 1055 2 1.0279999999999887e+00 3.0187295834299666e+03 1.0000000000000000e+00 3.3241742489765421e+01 3.2748787685983665e+01 3.5556051174546788e+01 
4163 4164 2 1.0280000000000038e+00 -3.2482516267980591e+03 1.0000000000000000e+00 3.3208563722128027e+01 3.2771052147308538e+01 3.5466118283680871e+01 
2568 2569 2 1.0279999999999994e+00 2.0945751748374309e+03 1.0000000000000000e+00 4.2708086361701262e+01 1.7077095446985766e+00 1.6208019000781997e+00 
639 640 2 1.0279999999999978e+00 1.5528297321141199e+03 1.0000000000000000e+00 4.6264481467686522e+01 1.8595768894096276e+00 3.8282234143677563e-01 
3247 3248 2 1.0280000000000016e+00 4.1956619094774862e+02 1.0000000000000000e+00 4.5848168659716954e+01 1.7293816105775133e+00 1.8949421815046921e+00 
2820 2821 2 1.0280000000000054e+00 -1.8166172103199883e+03 1.0000000000000000e+00 4.7065487219250542e+01 1.6113128887409245e+00 1.7791706894892980e+00 
4174 4175 2 1.0279999999999891e+00 -1.4793273001944794e+03 1.0000000000000000e+00 4.7717626605280195e+01 3.1299912852113304e-01 8.6349464153843480e-01 
16 17 2 1.0280000000000038e+00 -1.4770472970227452e+03 1.0000000000000000e+00 4.8377788705692886e+01 3.1217519212752737e-01 1.7589410571077502e+00 
105 106 2 1.0279999999999954e+00 1.6712054925474836e+03 1.0000000000000000e+00 4.9027613161927370e+01 1.7763015040589649e+00 1.4371611203646162e-01 
109 110 2 1.0280000000000020e+00 -8.1124000062108166e+02 1.0000000000000000e+00 5.0855916452828168e+01 1.2300986930760662e+00 4.6150041654327140e-01 
2804 2805 2 1.0279999999999996e+00 6.8770415908195832e+02 1.0000000000000000e+00 5.1520149682287034e+01 1.4519570569558626e+00 1.2974912525213300e+00 
4355 4356 2 1.0280000000000060e+00 -2.5924739634306125e+03 1.0000000000000000e+00 5.2292569932115747e+01 1.1050280966419423e+00 1.1265846914519917e+00 
4332 4333 2 1.0280000000000000e+00 3.5330015068395860e+03 1.0000000000000000e+00 4.3911717054118739e+01 2.5068261180804488e+00 4.6500353088477631e-01 
174 175 2 1.0280000000000000e+00 3.5339957204996790e+03 1.0000000000000000e+00 4.3920806261834386e+01 2.5236496156551711e+00 4.5245278954553597e-01 
3790 3791 2 1.0279999999999996e+00 3.7524735450412236e+03 1.0000000000000000e+00 4.6272550521233022e+01 2.8029454098207274e+00 2.2308588850092875e-01 
2320 2321 2 1.0280000000000051e+00 -1.5601720384698929e+03 1.0000000000000000e+00 4.4956218435780926e+01 4.0692467975616013e+00 1.3423858831647151e+00 
3704 3705 2 1.0279999999999989e+00 -1.0434090224857850e+03 1.0000000000000000e+00 4.4309031701405765e+01 5.6420915738486999e+00 1.3948801037685539e+00 
1434 1435 2 1.0279999999999965e+00 -1.8241186495517281e+03 1.0000000000000000e+00 4.5182054235662456e+01 4.5907450341050673e+00 7.5416381454646930e-01 
1418 1419 2 1.0280000000000102e+00 6.9609916797296239e+02 1.0000000000000000e+00 5.0754572853954819e+01 4.7074766856400263e+00 3.4163942554872145e-01 
62 63 2 1.0279999999999967e+00 -1.3087145791223556e+03 1.0000000000000000e+00 4.4230465268966810e+01 7.2841719661405842e+00 1.3520090060279930e+00 
2064 2065 2 1.0280000000000056e+00 -2.5632205734168656e+03 1.0000000000000000e+00 4.4581025669514581e+01 7.3291325910154299e+00 3.0251899814943156e-01 
1457 1458 2 1.0279999999999976e+00 -2.2001832550762911e+03 1.0000000000000000e+00 4.5313849497076198e+01 6.1192880386043926e+00 1.3710843749122708e+00 
1839 1840 2 1.0280000000000011e+00 1.1138879127827227e+03 1.0000000000000000e+00 4.8230509878341898e+01 6.5451726017606644e+00 4.5453512183453509e-01 
1125 1126 2 1.0279999999999876e+00 1.6385235575348001e+03 1.0000000000000000e+00 4.9053293153506942e+01 7.3523004166262629e+00 5.1275538718960467e-01 
1816 1817 2 1.0280000000000000e+00 1.1101433670611934e+03 1.0000000000000000e+00 3.9642345357148329e+01 9.5992933406784537e+00 1.4898074226144868e+00 
179 180 2 1.0279999999999989e+00 -3.4458661260666267e+03 1.0000000000000000e+00 3.9430840907094939e+01 9.3514610321766227e+00 1.9934444327899248e+00 
2536 2537 2 1.0279999999999956e+00 1.4838392776387809e+03 1.0000000000000000e+00 4.4429986029758730e+01 9.4785990951669170e+00 7.9941354613358218e-01 
65 66 2 1.0279999999999967e+00 -1.3181464707524633e+03 1.0000000000000000e+00 4.5161607617640229e+01 9.5008979040602597e+00 1.1947083388800286e+00 
1163 1164 2 1.0280000000000000e+00 7.3951101241305423e+03 1.0000000000000000e+00 4.6473350116146044e+01 8.3249254106198460e+00 1.1110298238269385e+00 
951 952 2 1.0280000000000007e+00 1.5813307353647551e+03 1.0000000000000000e+00 4.7360814587533625e+01 8.4778686699262344e+00 9.0498348116721625e-02 
3916 3917 2 1.0280000000000002e+00 3.4495084871881982e+03 1.0000000000000000e+00 3.8809605647283441e+01 1.1248465314161610e+01 1.7609456837431183e+00 
518 519 2 1.0279999999999960e+00 2.3443114095272213e+03 1.0000000000000000e+00 4.3060337275192893e+01 1.0879688343035051e+01 3.2173789239458001e-01 
22 23 2 1.0279999999999994e+00 -4.0125768838031286e+03 1.0000000000000000e+00 4.4761650586801203e+01 1.1294368665457228e+01 1.3366523190994120e+00 
1959 1960 2 1.0280000000000049e+00 4.0580599727071540e+03 1.0000000000000000e+00 4.6328712038791039e+01 1.1618974129207777e+01 8.4022060226564921e-01 
1156 1157 2 1.0279999999999938e+00 8.9537699465309761e+03 1.0000000000000000e+00 3.5636699977205872e+01 1.3392934499117825e+01 1.9126101727122131e+00 
2197 2198 2 1.0280000000000018e+00 1.5799505820809045e+03 1.0000000000000000e+00 4.3408616549608482e+01 1.2521645423033208e+01 9.1330247809405252e-01 
1113 1114 2 1.0280000000000020e+00 -1.1337196960682663e+03 1.0000000000000000e+00 4.4242526255902661e+01 1.2680958390005298e+01 1.8289471905340831e+00 
1114 1115 2 1.0279999999999949e+00 -1.1397398572565230e+03 1.0000000000000000e+00 4.5687115993983817e+01 1.2979006203166707e+01 6.1737774286563063e-01 
27 28 2 1.0280000000000054e+00 -1.4352674424830664e+03 1.0000000000000000e+00 4.7604713018471884e+01 1.2349027095362228e+01 7.2228085293499122e-01 
1122 1123 2 1.0280000000000054e+00 -1.9205041639623198e+02 1.0000000000000000e+00 4.8464744163104264e+01 1.2905188892855159e+01 1.5663095268323188e+00 
4197 4198 2 1.0279999999999914e+00 -1.7070588276572739e+03 1.0000000000000000e+00 4.9919105079608308e+01 1.3812627079613755e+01 1.8151424626941339e+00 
1827 1828 2 1.0280000000000211e+00 4.0068572174156998e+02 1.0000000000000000e+00 3.4724823075998884e+01 1.4034863370123070e+01 3.8398450559706376e-01 
1615 1616 2 1.0280000000000011e+00 -1.4965150816350556e+03 1.0000000000000000e+00 3.6023378395585290e+01 1.4031556381222565e+01 1.9216579017275999e+00 
2493 2494 2 1.0279999999999960e+00 -1.8446193774581379e+03 1.0000000000000000e+00 3.7804564483419391e+01 1.5234186042606025e+01 1.8524803669127603e+00 
1104 1105 2 1.0279999999999987e+00 -8.4608847202106040e+02 1.0000000000000000e+00 4.3905992993773630e+01 1.5592570566998107e+01 4.1196562873363270e-02 
146 147 2 1.0279999999999911e+00 -2.0075263382685121e+03 1.0000000000000000e+00 4.4706494255238049e+01 1.4812323900303085e+01 1.8553933701046781e+00 
3886 3887 2 1.0280000000000058e+00 -2.4910211097776019e+03 1.0000000000000000e+00 4.7446709976128609e+01 1.5146212053613430e+01 4.8612780826728480e-01 
657 658 2 1.0279999999999996e+00 -1.4959100426850619e+03 1.0000000000000000e+00 4.7811970523832208e+01 1.5760325774141824e+01 1.6853909739571944e+00 
28 29 2 1.0280000000000047e+00 -9.4233752559684285e+02 1.0000000000000000e+00 5.0290262228130004e+01 1.4003601065588269e+01 3.8921853660809447e-01 
1416 1417 2 1.0280000000000034e+00 1.5347903237356902e+03 1.0000000000000000e+00 5.1244949869879122e+01 1.4337288256246804e+01 1.4287147288033957e+00 
1590 1591 2 1.0279999999999931e+00 1.1916815175044956e+03 1.0000000000000000e+00 5.2011636491468806e+01 1.5103403784679845e+01 1.1009147244397706e+00 
80 81 2 1.0280000000000158e+00 -2.1296507482790048e+03 1.0000000000000000e+00 5.2665389701436723e+01 1.5728161517943960e+01 1.6618727979078711e+00 
2257 2258 2 1.0280000000000040e+00 2.0421310140141870e+03 1.0000000000000000e+00 3.9131530867450479e+01 1.7135914545545674e+01 1.9811342314401299e+00 
225 226 2 1.0279999999999965e+00 -3.5793069067896754e+03 1.0000000000000000e+00 4.0575652463921131e+01 1.6288614712626142e+01 1.7941898979345769e+00 
230 231 2 1.0280000000000038e+00 -5.1033987217473277e+03 1.0000000000000000e+00 4.0418270381418168e+01 1.6037944554039477e+01 1.9706659173069621e+00 
1943 1944 2 1.0279999999999874e+00 3.6316247641002610e+03 1.0000000000000000e+00 4.3042167019097782e+01 1.7494626519427413e+01 1.3211913508517730e+00 
1563 1564 2 1.0280000000000027e+00 1.0482993634481527e+03 1.0000000000000000e+00 4.4248059047768727e+01 1.7476643542325817e+01 4.4903436395279728e-01 
186 187 2 1.0280000000000045e+00 -3.1265772468349205e+03 1.0000000000000000e+00 4.4570751847489447e+01 1.6670261357377509e+01 1.0729886595485685e+00 
1947 1948 2 1.0279999999999851e+00 2.8668384273985175e+03 1.0000000000000000e+00 4.6574374162525032e+01 1.7967340830228878e+01 9.4456624475128426e-01 
3839 3840 2 1.0280000000000014e+00 -2.6124193693346924e+03 1.0000000000000000e+00 4.8348069342148378e+01 1.6906651411676176e+01 4.0906189981564367e-01 
193 194 2 1.0279999999999923e+00 -3.1641174234856971e+03 1.0000000000000000e+00 4.8830706013328509e+01 1.6670639269698292e+01 1.0453446376189355e+00 
154 155 2 1.0279999999999925e+00 -1.5005356476558145e+03 1.0000000000000000e+00 5.0704727767685895e+01 1.6328615316949847e+01 1.8727920969823455e+00 
3804 3805 2 1.0279999999999976e+00 9.0314143978891479e+03 1.0000000000000000e+00 5.1567303326575342e+01 1.7394152133275252e+01 1.7551880704207570e+00 
578 579 2 1.0280000000000074e+00 1.3801254641346723e+03 1.0000000000000000e+00 5.1186862119988270e+01 1.7848981761434437e+01 9.1276123307904888e-01 
2923 2924 2 1.0279999999999869e+00 3.3873867755475385e+03 1.0000000000000000e+00 5.3316525954886067e+01 1.6654865143672939e+01 8.1507616739409983e-01 
1420 1421 2 1.0279999999999956e+00 8.1401599677819945e+02 1.0000000000000000e+00 5.4634142444449544e+01 1.6275931445993656e+01 1.4250925027029702e+00 
1877 1878 2 1.0280000000000076e+00 -7.7572472288514882e+02 1.0000000000000000e+00 5.4103227913141616e+01 1.7894340940602788e+01 1.2312933542629958e+00 
162 163 2 1.0279999999999931e+00 1.9704756445095092e+02 1.0000000000000000e+00 5.5920199449591692e+01 1.7287961056537657e+01 5.2208610599804584e-01 
202 203 2 1.0279999999999871e+00 -4.1023274197273349e+03 1.0000000000000000e+00 5.7759068404621679e+01 1.6726778344751562e+01 7.8085454343706950e-02 
3855 3856 2 1.0280000000000009e+00 2.1345184878386908e+02 1.0000000000000000e+00 5.7914780691392046e+01 1.6909429768549245e+01 2.7092144925433942e-01 
618 619 2 1.0280000000000009e+00 -1.9630245173154815e+03 1.0000000000000000e+00 6.6027194340711773e+01 1.7146408804505313e+01 1.3159013680685203e+00 
1967 1968 2 1.0279999999999971e+00 -1.4905192054556683e+03 1.0000000000000000e+00 6.6591724123500299e+01 1.7052607161306582e+01 9.6432483961957893e-01 
1128 1129 2 1.0279999999999987e+00 -1.8881942456560696e+00 1.0000000000000000e+00 6.5226852710828268e+01 1.6700645696369410e+01 1.3467195811058549e-01 
3799 3800 2 1.0280000000000133e+00 9.0553853101942550e+03 1.0000000000000000e+00 4.2862461885005075e+01 1.9379615281043449e+01 1.3655787504809358e+00 
3832 3833 2 1.0279999999999907e+00 1.4423286593617900e+02 1.0000000000000000e+00 4.3251176707490281e+01 1.9432350658734428e+01 3.6094862969533686e-01 
51 52 2 1.0280000000000131e+00 -1.4318266509423813e+03 1.0000000000000000e+00 4.4359186605368251e+01 1.9128756278078679e+01 5.6536751283826081e-01 
178 179 2 1.0279999999999998e+00 -3.0484376313332714e+03 1.0000000000000000e+00 4.6109193912604795e+01 1.8805508493457545e+01 8.9118443661681201e-01 
1109 1110 2 1.0279999999999963e+00 -9.3358919067593069e+02 1.0000000000000000e+00 4.8086704468004086e+01 1.9561819591472329e+01 1.8574561376308640e-01 
2246 2247 2 1.0280000000000127e+00 1.9495985683521499e+03 1.0000000000000000e+00 4.7324891600722410e+01 1.8323965940667943e+01 1.7184423147813381e+00 
3803 3804 2 1.0280000000000074e+00 1.3126564948961941e+03 1.0000000000000000e+00 4.9440632493689684e+01 1.9086515837747118e+01 4.3537710939741452e-02 
990 991 2 1.0279999999999991e+00 -5.4303249733417579e+02 1.0000000000000000e+00 5.2358229483791661e+01 1.8006325036802849e+01 9.2857366523766468e-03 
107 108 2 1.0280000000000060e+00 8.1401490073341392e+03 1.0000000000000000e+00 5.3250765050678197e+01 1.9530605483376554e+01 1.1741219025376421e+00 
1538 1539 2 1.0279999999999958e+00 2.3390792357832861e+03 1.0000000000000000e+00 5.4169160952347674e+01 1.9116316140011627e+01 1.7222719577433629e+00 
4271 4272 2 1.0279999999999963e+00 2.4595720767217645e+03 1.0000000000000000e+00 5.4796108682650747e+01 1.9916735278167288e+01 2.3601230433289863e-01 
1912 1913 2 1.0280000000000022e+00 3.6839755613399166e+03 1.0000000000000000e+00 5.5942773276912398e+01 1.9043771223835012e+01 1.1894794607880392e+00 
574 575 2 1.0279999999999911e+00 6.8677342296598854e+03 1.0000000000000000e+00 5.7698749167095244e+01 1.9630594063843912e+01 2.0294735514939449e-01 
582 583 2 1.0280000000000040e+00 2.1135467316661961e+03 1.0000000000000000e+00 6.0956999415443406e+01 1.9063346083303131e+01 3.0465658923151828e-01 
993 994 2 1.0279999999999894e+00 -1.6608413283024356e+03 1.0000000000000000e+00 6.2145220701225163e+01 1.9241680158663041e+01 8.2607284820354843e-01 
491 492 2 1.0280000000000011e+00 -2.3473845086043957e+03 1.0000000000000000e+00 6.1086018122553078e+01 1.9734937377859247e+01 1.6561186830980943e+00 
118 119 2 1.0279999999999991e+00 4.2145749755507923e+03 1.0000000000000000e+00 6.3022229925390590e+01 1.8071219265514213e+01 9.9246434900245684e-01 
1999 2000 2 1.0280000000000020e+00 -1.0986969548109428e+03 1.0000000000000000e+00 6.3429542096286880e+01 1.8317432566404626e+01 6.2434792976060853e-02 
944 945 2 1.0280000000000016e+00 -9.0811407009879161e+01 1.0000000000000000e+00 6.5148597880493568e+01 1.9046710235170373e+01 9.5772907274947394e-01 
1869 1870 2 1.0279999999999918e+00 -1.3585420386102728e+03 1.0000000000000000e+00 6.6623948503767537e+01 1.9541023292262025e+01 6.4401762961620623e-01 
4165 4166 2 1.0280000000000007e+00 -1.4520580388273947e+03 1.0000000000000000e+00 4.1216678171622270e+01 1.7457387067676513e+00 2.3872215150161282e+00 
3495 3496 2 1.0279999999999991e+00 -1.2567514296139198e+03 1.0000000000000000e+00 4.1716678923119595e+01 1.0416759314454924e+00 2.4570943143808788e+00 
3457 3458 2 1.0280000000000016e+00 6.9439659058845737e+03 1.0000000000000000e+00 4.3311399572690298e+01 1.1832057580728403e+00 3.1405145968468990e+00 
3455 3456 2 1.0279999999999996e+00 9.4146474795017384e+03 1.0000000000000000e+00 4.4202618050285082e+01 1.1450904317155661e+00 2.6344346160146030e+00 
4405 4406 2 1.0279999999999996e+00 2.4634293869352423e+03 1.0000000000000000e+00 4.8680748865198119e+01 8.7370838891057023e-01 3.1954914146162783e+00 
2843 2844 2 1.0279999999999963e+00 -2.1987323967421426e+03 1.0000000000000000e+00 4.7239968235228524e+01 1.5413684408130184e+00 3.5815691977746771e+00 
2091 2092 2 1.0280000000000002e+00 3.5706337200989560e+02 1.0000000000000000e+00 4.7994074108105131e+01 1.7736767545665189e+00 3.7457091799542344e+00 
7 8 2 1.0280000000000005e+00 -1.4482645266163968e+03 1.0000000000000000e+00 4.1017662993775517e+01 3.3238710037408983e+00 3.1977268150477061e+00 
2106 2107 2 1.0280000000000000e+00 2.0944791951529187e+03 1.0000000000000000e+00 4.2738837346568332e+01 3.4616941568896826e+00 2.2346104129891229e+00 
1185 1186 2 1.0279999999999996e+00 -1.2565808255832931e+03 1.0000000000000000e+00 4.2138018669816411e+01 3.9088912353437495e+00 3.1073896462152479e+00 
1147 1148 2 1.0279999999999998e+00 6.9486607159054292e+03 1.0000000000000000e+00 4.3822515446465147e+01 3.1942403302204032e+00 2.6797398288453809e+00 
1145 1146 2 1.0279999999999976e+00 9.4132349223990987e+03 1.0000000000000000e+00 4.4829898950454222e+01 2.3229461129668794e+00 2.7015131131696166e+00 
2598 2599 2 1.0279999999999987e+00 3.1532909015974728e+03 1.0000000000000000e+00 4.6012307144563607e+01 5.2656117169370029e+00 3.8085253867921818e+00 
3776 3777 2 1.0280000000000078e+00 1.2087468170243239e+03 1.0000000000000000e+00 3.4047078084917935e+01 6.9327591814377358e+00 2.3853376080824322e+00 
3436 3437 2 1.0279999999999963e+00 -1.2470697153683864e+03 1.0000000000000000e+00 4.6735710603462081e+01 7.5858286015127305e+00 2.4566400678417222e+00 
708 709 2 1.0280000000000102e+00 8.1419434533178919e+03 1.0000000000000000e+00 4.8083749766597975e+01 7.6427177601994138e+00 2.1598411094439096e+00 
3775 3776 2 1.0280000000000011e+00 2.5424441532262008e+03 1.0000000000000000e+00 4.7209163776420219e+01 6.4775898906795533e+00 3.9439119723116414e+00 
4193 4194 2 1.0280000000000060e+00 -1.8214288156864404e+03 1.0000000000000000e+00 4.9287734556969724e+01 7.0227500594669818e+00 3.0987377478563172e+00 
35 36 2 1.0279999999999727e+00 -1.8191976789328533e+03 1.0000000000000000e+00 4.9359950009609555e+01 7.1919256966755674e+00 3.0368653901952878e+00 
1548 1549 2 1.0279999999999909e+00 -1.7734239973181075e+03 1.0000000000000000e+00 3.4516827017836981e+01 8.2441633761666822e+00 3.4938982190093837e+00 
463 464 2 1.0280000000000054e+00 -4.3380641565314490e+03 1.0000000000000000e+00 3.3771694994573267e+01 8.1914768907312343e+00 3.8878945250858838e+00 
693 694 2 1.0279999999999991e+00 1.3904164875175543e+03 1.0000000000000000e+00 4.0543366596393831e+01 9.4865879114494938e+00 3.8622263308191656e+00 
3011 3012 2 1.0280000000000051e+00 -3.7302120487923557e+03 1.0000000000000000e+00 4.5231365185076072e+01 8.0427752455457622e+00 2.2908479567760822e+00 
3476 3477 2 1.0280000000000022e+00 9.3710688532433178e+03 1.0000000000000000e+00 4.5636808460860166e+01 8.3626449230046287e+00 3.7192627804804723e+00 
1166 1167 2 1.0280000000000000e+00 9.3832884773619953e+03 1.0000000000000000e+00 4.6147519266510734e+01 9.5349151364744849e+00 3.7642167006115681e+00 
1126 1127 2 1.0280000000000011e+00 -1.2445751100816613e+03 1.0000000000000000e+00 4.6897217624666752e+01 9.8935490890911861e+00 2.4870409823651851e+00 
3942 3943 2 1.0279999999999951e+00 8.1178736984135776e+03 1.0000000000000000e+00 4.7683813864751627e+01 9.5201792310733477e+00 2.7671844634821285e+00 
2490 2491 2 1.0280000000000031e+00 1.1873096147938784e+02 1.0000000000000000e+00 3.8464920194576280e+01 1.0533178901023806e+01 3.0571772565555393e+00 
229 230 2 1.0280000000000011e+00 -4.9631265599635926e+03 1.0000000000000000e+00 3.9577779155867205e+01 1.1386348024282151e+01 3.3733123061093102e+00 
2078 2079 2 1.0279999999999974e+00 8.6477190206705586e+02 1.0000000000000000e+00 4.0203145054711420e+01 1.0755840205217492e+01 2.1349225673619538e+00 
2137 2138 2 1.0280000000000007e+00 2.1462869305197032e+03 1.0000000000000000e+00 4.4184574730613591e+01 1.0298681147056257e+01 3.9767631453676326e+00 
21 22 2 1.0279999999999991e+00 -4.0193549476780445e+03 1.0000000000000000e+00 4.5896544237610790e+01 1.1738919239910505e+01 2.3817694139152525e+00 
533 534 2 1.0279999999999940e+00 2.4331710061556942e+03 1.0000000000000000e+00 4.7144089010539517e+01 1.1901883305583663e+01 2.5406489534818530e+00 
1653 1654 2 1.0279999999999940e+00 1.5506729848732391e+03 1.0000000000000000e+00 3.4026998302156137e+01 1.3161286505561968e+01 3.6696528441024530e+00 
1569 1570 2 1.0279999999999869e+00 1.5507766787180735e+03 1.0000000000000000e+00 3.3946692346318962e+01 1.3234536701742618e+01 3.2857700983658535e+00 
2575 2576 2 1.0280000000000065e+00 -1.9857424222928458e+01 1.0000000000000000e+00 3.5646530420949269e+01 1.2718595562679985e+01 3.1219781322298652e+00 
227 228 2 1.0279999999999958e+00 -5.5232136507894538e+03 1.0000000000000000e+00 3.8436722971261567e+01 1.2008022736746337e+01 2.8404755542195694e+00 
2071 2072 2 1.0280000000000067e+00 3.3880688776485676e+03 1.0000000000000000e+00 3.7489457198219199e+01 1.3152271687235839e+01 3.9832039827153407e+00 
2214 2215 2 1.0280000000000071e+00 1.6099068193852022e+03 1.0000000000000000e+00 4.4839285809022009e+01 1.3936018230749639e+01 2.4819519609443015e+00 
1414 1415 2 1.0279999999999894e+00 1.4200618907967828e+03 1.0000000000000000e+00 4.5818296467542496e+01 1.3598954956561874e+01 3.7468421987336358e+00 
701 702 2 1.0280000000000100e+00 6.6143797776828046e+02 1.0000000000000000e+00 4.6184534765643861e+01 1.2687142988768136e+01 3.9523064494310529e+00 
239 240 2 1.0279999999999976e+00 -4.8722110261061380e+03 1.0000000000000000e+00 4.8100275667978345e+01 1.2898325579076186e+01 3.0954020091104333e+00 
625 626 2 1.0280000000000051e+00 9.1867660882556311e+02 1.0000000000000000e+00 4.9423392233760296e+01 1.2859771427381485e+01 2.7613297736419322e+00 
1154 1155 2 1.0280000000000049e+00 4.9819041170506189e+03 1.0000000000000000e+00 3.4361936094248541e+01 1.4697272246963031e+01 3.8809896775884680e+00 
2105 2106 2 1.0280000000000011e+00 5.0212249892537293e+03 1.0000000000000000e+00 3.4465071919708095e+01 1.5985887446741478e+01 3.7859196693225980e+00 
1404 1405 2 1.0280000000000100e+00 1.2196893732230715e+03 1.0000000000000000e+00 3.7241968709635273e+01 1.4743745091486373e+01 2.7517379624125140e+00 
2498 2499 2 1.0280000000000000e+00 -4.1482397376068423e+02 1.0000000000000000e+00 3.7301890950543580e+01 1.5692673324102406e+01 2.0547148554254102e+00 
1495 1496 2 1.0280000000000054e+00 -2.9144644654050671e+03 1.0000000000000000e+00 4.5071545570379087e+01 1.5979473878867081e+01 2.6618644071019082e+00 
2208 2209 2 1.0279999999999951e+00 1.9965951717257776e+03 1.0000000000000000e+00 4.6233845376491864e+01 1.5214601553150770e+01 2.1549019068625457e+00 
2033 2034 2 1.0280000000000102e+00 -5.3011525417486723e+02 1.0000000000000000e+00 4.6837386267033182e+01 1.4848436930790017e+01 3.4533960164828876e+00 
1573 1574 2 1.0279999999999851e+00 -5.8432329676400059e+02 1.0000000000000000e+00 4.8801089090039497e+01 1.5993206480108572e+01 3.8761865232868074e+00 
195 196 2 1.0280000000000014e+00 -3.7337383340561373e+03 1.0000000000000000e+00 4.9032954897467519e+01 1.5564395535327266e+01 2.6547585473009456e+00 
2209 2210 2 1.0280000000000011e+00 4.0898770202458381e+03 1.0000000000000000e+00 4.9086407897698706e+01 1.4021704319955989e+01 3.5732519812808405e+00 
1115 1116 2 1.0280000000000020e+00 -6.9854436451339257e+02 1.0000000000000000e+00 5.1411707751519408e+01 1.4841529803872051e+01 3.8524976624940130e+00 
997 998 2 1.0280000000000042e+00 4.4968103552066077e+02 1.0000000000000000e+00 3.9325260827663271e+01 1.7203520291719673e+01 2.3682779386094963e+00 
139 140 2 1.0280000000000060e+00 -2.0949596388348509e+03 1.0000000000000000e+00 4.3049129647247781e+01 1.7789743923150461e+01 2.2678313802110357e+00 
2203 2204 2 1.0279999999999951e+00 2.1073153199710764e+03 1.0000000000000000e+00 4.3645833253625973e+01 1.6861485807390093e+01 3.4495627025036231e+00 