LAMMPS data file via write_data, version 30 Jul 2016, timestep = 50000000

4620 atoms
8 atom types

0.0000000000000000e+00 1.0000000000000000e+02 xlo xhi
0.0000000000000000e+00 4.0000000000000000e+01 ylo yhi
0.0000000000000000e+00 4.0000000000000000e+01 zlo zhi

Masses

1 3.896
2 5.36
3 20.064
4 8.378
5 8.378
6 8.378
7 8.378
8 8.378

Atoms # meso-molecular

464 465 2 1.0279999999999960e+00 -4.7518498625747355e+01 1.0000000000000000e+00 3.2886798723190338e+01 7.4896060414619381e+00 3.0333397197172927e+00 
3903 3904 2 1.0280000000000025e+00 -1.4624320340727386e+03 1.0000000000000000e+00 3.3328284035133450e+01 6.7688332551019847e+00 2.2852886744790450e+00 
2501 2502 2 1.0279999999999982e+00 -4.1253371518084623e+02 1.0000000000000000e+00 3.1894071548038614e+01 1.6640260804598228e+01 3.7204149206235741e+01 
2500 2501 2 1.0279999999999987e+00 -3.7696561288446924e+02 1.0000000000000000e+00 3.1892470735327894e+01 1.6642567545260093e+01 3.7206053810835130e+01 
1581 1582 2 1.0279999999999818e+00 -4.0374235094330132e+01 1.0000000000000000e+00 3.3220589987022421e+01 1.7254305742277783e+01 3.7659168364687567e+01 
1438 1439 2 1.0279999999999938e+00 7.6167712330854124e+02 1.0000000000000000e+00 2.6559119439241982e+01 2.7299311163687793e+01 2.9794073279397782e+01 
926 927 2 1.0280000000000098e+00 -9.7654854399679130e+02 1.0000000000000000e+00 2.7692781270944053e+01 2.6468664750611971e+01 2.9325735297823453e+01 
973 974 2 1.0279999999999960e+00 3.0036815111597491e+02 1.0000000000000000e+00 2.7965554209923205e+01 2.6695921549652738e+01 2.9566858753944103e+01 
1436 1437 2 1.0280000000000089e+00 2.9090518519488717e+02 1.0000000000000000e+00 2.6854234271699671e+01 2.8012022857364236e+01 2.9831680057255930e+01 
131 132 2 1.0279999999999889e+00 2.0092093644847178e+03 1.0000000000000000e+00 2.7501185376144040e+01 2.9302919849209317e+01 3.0477220893798894e+01 
1478 1479 2 1.0279999999999971e+00 -1.2053215401075581e+03 1.0000000000000000e+00 2.8661880214336822e+01 2.9712589589278565e+01 3.1270208417076940e+01 
796 797 2 1.0280000000000045e+00 -2.8753388340112247e+02 1.0000000000000000e+00 2.7660762867314734e+01 2.9850764272049798e+01 3.1049787650056270e+01 
1730 1731 2 1.0279999999999923e+00 -1.1674894468459397e+03 1.0000000000000000e+00 3.0052652689429951e+01 2.9018894670119170e+01 3.1473646360623320e+01 
4322 4323 2 1.0280000000000018e+00 1.5499179285291575e+03 1.0000000000000000e+00 2.2650456667543409e+01 3.0259717600879945e+01 3.0653581180775856e+01 
2518 2519 2 1.0280000000000058e+00 2.1615445469194833e+03 1.0000000000000000e+00 2.2662745890261082e+01 3.0772814526405948e+01 3.0584426249990084e+01 
3357 3358 2 1.0279999999999929e+00 1.1128423584418327e+02 1.0000000000000000e+00 2.1947796611815150e+01 3.1124063420623525e+01 3.1911150868939099e+01 
209 210 2 1.0279999999999989e+00 8.2084566334222586e+02 1.0000000000000000e+00 2.5384633304090617e+01 3.0051240515715349e+01 3.1000092897810966e+01 
634 635 2 1.0279999999999756e+00 -1.4848760959621254e+03 1.0000000000000000e+00 2.4586454293548009e+01 3.0507262638404175e+01 3.0852406345687019e+01 
1046 1047 2 1.0280000000000200e+00 1.0922333379682582e+03 1.0000000000000000e+00 2.5142673161875475e+01 3.0266269815004399e+01 3.1858800894888176e+01 
1971 1972 2 1.0279999999999812e+00 -3.0297281485073881e+03 1.0000000000000000e+00 2.2838320663920392e+01 2.9853756477911141e+01 3.2780548280414656e+01 
791 792 2 1.0280000000000089e+00 4.5107273901625113e+03 1.0000000000000000e+00 2.3812052687366020e+01 2.9747404555182122e+01 3.3148670188381764e+01 
507 508 2 1.0279999999999945e+00 -1.2225394138091633e+03 1.0000000000000000e+00 2.9912283363550721e+01 2.8696289155714489e+01 3.2033699027140855e+01 
2889 2890 2 1.0279999999999949e+00 -3.5346852653562082e+03 1.0000000000000000e+00 2.9831331183001073e+01 2.9847388916105484e+01 3.3496752299617448e+01 
2440 2441 2 1.0279999999999998e+00 4.0798119070635764e+01 1.0000000000000000e+00 3.1691202949070203e+01 2.8678338249499983e+01 3.2016044900204669e+01 
299 300 2 1.0280000000000027e+00 2.0055302528611401e+03 1.0000000000000000e+00 3.1989188570060882e+01 2.8698912783163077e+01 3.2244098092235028e+01 
3442 3443 2 1.0279999999999783e+00 -8.1167555851077987e+02 1.0000000000000000e+00 2.1744177179927139e+01 3.0386138878063683e+01 3.2294985646274206e+01 
1922 1923 2 1.0280000000000040e+00 2.1287459730636720e+03 1.0000000000000000e+00 2.4434470697981727e+01 3.0142384368062796e+01 3.3792824831497157e+01 
168 169 2 1.0279999999999956e+00 -4.4719969379893118e+03 1.0000000000000000e+00 2.9238827594126960e+01 3.0120295716490176e+01 3.3823589918170228e+01 
3329 3330 2 1.0279999999999945e+00 1.9959174267973649e+03 1.0000000000000000e+00 3.1282429318779879e+01 3.1333009283287751e+01 3.2091742557170591e+01 
2862 2863 2 1.0280000000000087e+00 -1.0160329356495627e+03 1.0000000000000000e+00 3.0820984891996826e+01 3.1850296078936392e+01 3.2213517652426823e+01 
3405 3406 2 1.0280000000000005e+00 -8.3694369451975831e+02 1.0000000000000000e+00 3.2064622834122375e+01 3.0962097270707648e+01 3.3010504367142389e+01 
127 128 2 1.0280000000000182e+00 -4.4647879917097043e+03 1.0000000000000000e+00 3.0639608238920694e+01 3.2192119468923686e+01 3.3687199121281985e+01 
3788 3789 2 1.0279999999999760e+00 -2.2134674419881776e+03 1.0000000000000000e+00 2.9879357175786762e+01 3.2726914614948974e+01 3.3739227529343871e+01 
1089 1090 2 1.0279999999999885e+00 3.0474635288889931e+03 1.0000000000000000e+00 2.5371263436527862e+01 2.9794094996397881e+01 3.5420406853356752e+01 
2866 2867 2 1.0279999999999987e+00 -3.3327542178031590e+03 1.0000000000000000e+00 3.1238487342305550e+01 2.9888193867659293e+01 3.4176188240561139e+01 
4196 4197 2 1.0280000000000051e+00 -3.2305225081678814e+03 1.0000000000000000e+00 2.5032598220170740e+01 3.0107030114130289e+01 3.5390055012358310e+01 
3350 3351 2 1.0279999999999996e+00 2.0502171257281871e+03 1.0000000000000000e+00 2.6045981155696801e+01 3.0070273671589902e+01 3.4196564526688917e+01 
2380 2381 2 1.0279999999999856e+00 3.3917636966151531e+03 1.0000000000000000e+00 2.7373537443977188e+01 3.0223082300988118e+01 3.4013642455910549e+01 
3815 3816 2 1.0279999999999916e+00 -2.3354934108572352e+03 1.0000000000000000e+00 2.7664044743721057e+01 3.1296992552532693e+01 3.4242440086842279e+01 
542 543 2 1.0280000000000196e+00 1.1907529729741977e+03 1.0000000000000000e+00 2.7947898784309025e+01 3.0928508880966827e+01 3.5230667662142345e+01 
4201 4202 2 1.0279999999999951e+00 -2.8553421486100578e+03 1.0000000000000000e+00 2.9392850295104331e+01 3.1673344997629098e+01 3.5655123502993014e+01 
2823 2824 2 1.0280000000000118e+00 7.4091242538730035e+02 1.0000000000000000e+00 2.9721992721317125e+01 3.1025658246467124e+01 3.5262305664785572e+01 
4242 4243 2 1.0280000000000036e+00 -2.8501455063666845e+03 1.0000000000000000e+00 3.1699471227563098e+01 3.0491500142128316e+01 3.4518298744321967e+01 
509 510 2 1.0279999999999829e+00 1.1907688128426860e+03 1.0000000000000000e+00 3.3037932295544010e+01 3.1478003881546741e+01 3.4679758933487875e+01 
1476 1477 2 1.0280000000000005e+00 -9.9783731051495897e+02 1.0000000000000000e+00 2.9207728897905056e+01 3.3364653011946764e+01 3.4838785884055639e+01 
3114 3115 2 1.0280000000000158e+00 -1.2190942286756022e+03 1.0000000000000000e+00 2.8709827715652558e+01 3.3053838611840796e+01 3.4932341121695643e+01 
1054 1055 2 1.0280000000000040e+00 3.0187295834299666e+03 1.0000000000000000e+00 3.3241742489765421e+01 3.2748787687208932e+01 3.5556051174546788e+01 
4163 4164 2 1.0279999999999998e+00 -3.2482516267980591e+03 1.0000000000000000e+00 3.3208563722134265e+01 3.2771052148552386e+01 3.5466118283747882e+01 
2568 2569 2 1.0279999999999991e+00 2.0945751748374309e+03 1.0000000000000000e+00 4.2708086361701262e+01 1.7077095446972685e+00 1.6208019000785860e+00 
639 640 2 1.0279999999999980e+00 1.5528297321141199e+03 1.0000000000000000e+00 4.6264481467686522e+01 1.8595768894194635e+00 3.8282234146245042e-01 
3247 3248 2 1.0279999999999996e+00 4.1956619094774862e+02 1.0000000000000000e+00 4.5848168659716954e+01 1.7293816105775133e+00 1.8949421815344563e+00 
2820 2821 2 1.0280000000000047e+00 -1.8166172103199883e+03 1.0000000000000000e+00 4.7065487219250542e+01 1.6113128887801054e+00 1.7791706895014310e+00 
4174 4175 2 1.0279999999999894e+00 -1.4793273001944794e+03 1.0000000000000000e+00 4.7717626605280195e+01 3.1299912852871054e-01 8.6349464153611866e-01 
16 17 2 1.0280000000000054e+00 -1.4770472970227452e+03 1.0000000000000000e+00 4.8377788705692886e+01 3.1217519215513484e-01 1.7589410570966495e+00 
105 106 2 1.0279999999999958e+00 1.6712054925474836e+03 1.0000000000000000e+00 4.9027613161927370e+01 1.7763015040584749e+00 1.4371611204477830e-01 
109 110 2 1.0280000000000018e+00 -8.1124000062108166e+02 1.0000000000000000e+00 5.0855916452828168e+01 1.2300986930781110e+00 4.6150041654160340e-01 
2804 2805 2 1.0280000000000018e+00 6.8770415908195832e+02 1.0000000000000000e+00 5.1520149682287034e+01 1.4519570569543638e+00 1.2974912525220503e+00 
4355 4356 2 1.0280000000000076e+00 -2.5924739634306125e+03 1.0000000000000000e+00 5.2292569932115747e+01 1.1050280966419053e+00 1.1265846914520634e+00 
4332 4333 2 1.0280000000000002e+00 3.5330015068395860e+03 1.0000000000000000e+00 4.3911717054118739e+01 2.5068261180804488e+00 4.6500353089055235e-01 
174 175 2 1.0279999999999991e+00 3.5339957204996790e+03 1.0000000000000000e+00 4.3920806261834386e+01 2.5236496156551711e+00 4.5245278955145846e-01 
3790 3791 2 1.0279999999999991e+00 3.7524735450412236e+03 1.0000000000000000e+00 4.6272550521233022e+01 2.8029454098207274e+00 2.2308588848582619e-01 
2320 2321 2 1.0280000000000049e+00 -1.5601720384698929e+03 1.0000000000000000e+00 4.4956218435780926e+01 4.0692467975616013e+00 1.3423858831682449e+00 
3704 3705 2 1.0280000000000000e+00 -1.0434090224857850e+03 1.0000000000000000e+00 4.4309031701405765e+01 5.6420915738486945e+00 1.3948801037693477e+00 
1434 1435 2 1.0279999999999969e+00 -1.8241186495517281e+03 1.0000000000000000e+00 4.5182054235662456e+01 4.5907450341040015e+00 7.5416381454972126e-01 
1418 1419 2 1.0280000000000111e+00 6.9609916797296239e+02 1.0000000000000000e+00 5.0754572853954819e+01 4.7074766856390662e+00 3.4163942554953464e-01 
62 63 2 1.0279999999999951e+00 -1.3087145791223556e+03 1.0000000000000000e+00 4.4230465268966810e+01 7.2841719661407316e+00 1.3520090060276158e+00 
2064 2065 2 1.0280000000000051e+00 -2.5632205734168656e+03 1.0000000000000000e+00 4.4581025669514581e+01 7.3291325910154299e+00 3.0251899814929939e-01 
1457 1458 2 1.0279999999999969e+00 -2.2001832550762911e+03 1.0000000000000000e+00 4.5313849497076198e+01 6.1192880386043926e+00 1.3710843749124040e+00 
1839 1840 2 1.0280000000000020e+00 1.1138879127827227e+03 1.0000000000000000e+00 4.8230509878341898e+01 6.5451726017605214e+00 4.5453512183444300e-01 
1125 1126 2 1.0279999999999883e+00 1.6385235575348001e+03 1.0000000000000000e+00 4.9053293153506942e+01 7.3523004166261208e+00 5.1275538718956148e-01 
1816 1817 2 1.0279999999999996e+00 1.1101433670611934e+03 1.0000000000000000e+00 3.9642345357148329e+01 9.5992933406785692e+00 1.4898074226144791e+00 
179 180 2 1.0279999999999996e+00 -3.4458661260666267e+03 1.0000000000000000e+00 3.9430840907094939e+01 9.3514610321766760e+00 1.9934444327900311e+00 
2536 2537 2 1.0279999999999947e+00 1.4838392776387809e+03 1.0000000000000000e+00 4.4429986029758730e+01 9.4785990951669170e+00 7.9941354613362159e-01 
65 66 2 1.0279999999999969e+00 -1.3181464707524633e+03 1.0000000000000000e+00 4.5161607617640229e+01 9.5008979040602597e+00 1.1947083388801192e+00 
1163 1164 2 1.0279999999999998e+00 7.3951101241305423e+03 1.0000000000000000e+00 4.6473350116146044e+01 8.3249254106198460e+00 1.1110298238269363e+00 
951 952 2 1.0279999999999998e+00 1.5813307353647551e+03 1.0000000000000000e+00 4.7360814587533625e+01 8.4778686699262398e+00 9.0498348116657412e-02 
3916 3917 2 1.0280000000000056e+00 3.4495084871881982e+03 1.0000000000000000e+00 3.8809605647283441e+01 1.1248465314161610e+01 1.7609456837433497e+00 
518 519 2 1.0279999999999967e+00 2.3443114095272213e+03 1.0000000000000000e+00 4.3060337275192893e+01 1.0879688343035051e+01 3.2173789239455503e-01 
22 23 2 1.0280000000000002e+00 -4.0125768838031286e+03 1.0000000000000000e+00 4.4761650586801203e+01 1.1294368665457228e+01 1.3366523190993889e+00 
1959 1960 2 1.0280000000000065e+00 4.0580599727071540e+03 1.0000000000000000e+00 4.6328712038791039e+01 1.1618974129207777e+01 8.4022060226565509e-01 
1156 1157 2 1.0280000000000129e+00 8.9537699465309761e+03 1.0000000000000000e+00 3.5636699976804657e+01 1.3392934499924911e+01 1.9126101728894929e+00 
2197 2198 2 1.0280000000000029e+00 1.5799505820809045e+03 1.0000000000000000e+00 4.3408616549608482e+01 1.2521645423033229e+01 9.1330247809403420e-01 
1113 1114 2 1.0280000000000022e+00 -1.1337196960682663e+03 1.0000000000000000e+00 4.4242526255902661e+01 1.2680958390005298e+01 1.8289471905340771e+00 
1114 1115 2 1.0279999999999936e+00 -1.1397398572565230e+03 1.0000000000000000e+00 4.5687115993983817e+01 1.2979006203166707e+01 6.1737774286565994e-01 
27 28 2 1.0280000000000060e+00 -1.4352674424830664e+03 1.0000000000000000e+00 4.7604713018471884e+01 1.2349027095362228e+01 7.2228085293500377e-01 
1122 1123 2 1.0280000000000069e+00 -1.9205041639623198e+02 1.0000000000000000e+00 4.8464744163104264e+01 1.2905188892855159e+01 1.5663095268323257e+00 
4197 4198 2 1.0279999999999911e+00 -1.7070588276572739e+03 1.0000000000000000e+00 4.9919105079608308e+01 1.3812627079613755e+01 1.8151424626941339e+00 
1827 1828 2 1.0279999999999860e+00 4.0068572174156998e+02 1.0000000000000000e+00 3.4724823075732793e+01 1.4034863371820736e+01 3.8398450643315124e-01 
1615 1616 2 1.0279999999999954e+00 -1.4965150816350556e+03 1.0000000000000000e+00 3.6023378395512765e+01 1.4031556382035513e+01 1.9216579019590092e+00 
2493 2494 2 1.0279999999999929e+00 -1.8446193774581379e+03 1.0000000000000000e+00 3.7804564483404697e+01 1.5234186043142140e+01 1.8524803674884234e+00 
1104 1105 2 1.0279999999999916e+00 -8.4608847202106040e+02 1.0000000000000000e+00 4.3905992993773630e+01 1.5592570566998125e+01 4.1196562873292084e-02 
146 147 2 1.0279999999999918e+00 -2.0075263382685121e+03 1.0000000000000000e+00 4.4706494255238049e+01 1.4812323900303088e+01 1.8553933701047469e+00 
3886 3887 2 1.0280000000000054e+00 -2.4910211097776019e+03 1.0000000000000000e+00 4.7446709976128609e+01 1.5146212053613429e+01 4.8612780826725355e-01 
657 658 2 1.0279999999999991e+00 -1.4959100426850619e+03 1.0000000000000000e+00 4.7811970523832208e+01 1.5760325774141821e+01 1.6853909739571826e+00 
28 29 2 1.0280000000000040e+00 -9.4233752559684285e+02 1.0000000000000000e+00 5.0290262228130004e+01 1.4003601065588269e+01 3.8921853660809419e-01 
1416 1417 2 1.0280000000000040e+00 1.5347903237356902e+03 1.0000000000000000e+00 5.1244949869879122e+01 1.4337288256246804e+01 1.4287147288033886e+00 
1590 1591 2 1.0279999999999927e+00 1.1916815175044956e+03 1.0000000000000000e+00 5.2011636491468806e+01 1.5103403784679845e+01 1.1009147244397675e+00 
80 81 2 1.0280000000000160e+00 -2.1296507482790048e+03 1.0000000000000000e+00 5.2665389701436723e+01 1.5728161517943960e+01 1.6618727979078711e+00 
2257 2258 2 1.0280000000000105e+00 2.0421310140141870e+03 1.0000000000000000e+00 3.9131530867406369e+01 1.7135914546394933e+01 1.9811342322724077e+00 
225 226 2 1.0279999999999878e+00 -3.5793069067896754e+03 1.0000000000000000e+00 4.0575652463825946e+01 1.6288614713445480e+01 1.7941898987450708e+00 
230 231 2 1.0280000000000069e+00 -5.1033987217473277e+03 1.0000000000000000e+00 4.0418270381317654e+01 1.6037944554856441e+01 1.9706659181457409e+00 
1943 1944 2 1.0280000000000096e+00 3.6316247641002610e+03 1.0000000000000000e+00 4.3042167019097739e+01 1.7494626519427413e+01 1.3211913508523299e+00 
1563 1564 2 1.0279999999999954e+00 1.0482993634481527e+03 1.0000000000000000e+00 4.4248059047768727e+01 1.7476643542325817e+01 4.4903436395332663e-01 
186 187 2 1.0280000000000085e+00 -3.1265772468349205e+03 1.0000000000000000e+00 4.4570751847489447e+01 1.6670261357377509e+01 1.0729886595485287e+00 
1947 1948 2 1.0279999999999858e+00 2.8668384273985175e+03 1.0000000000000000e+00 4.6574374162525032e+01 1.7967340830228878e+01 9.4456624475129347e-01 
3839 3840 2 1.0280000000000025e+00 -2.6124193693346924e+03 1.0000000000000000e+00 4.8348069342148378e+01 1.6906651411676176e+01 4.0906189981563634e-01 
193 194 2 1.0279999999999925e+00 -3.1641174234856971e+03 1.0000000000000000e+00 4.8830706013328509e+01 1.6670639269698292e+01 1.0453446376189264e+00 
154 155 2 1.0279999999999923e+00 -1.5005356476558145e+03 1.0000000000000000e+00 5.0704727767685895e+01 1.6328615316949847e+01 1.8727920969823442e+00 
3804 3805 2 1.0279999999999971e+00 9.0314143978891479e+03 1.0000000000000000e+00 5.1567303326575342e+01 1.7394152133275252e+01 1.7551880704207570e+00 
578 579 2 1.0280000000000080e+00 1.3801254641346723e+03 1.0000000000000000e+00 5.1186862119988270e+01 1.7848981761434437e+01 9.1276123307904611e-01 
2923 2924 2 1.0279999999999871e+00 3.3873867755475385e+03 1.0000000000000000e+00 5.3316525954886067e+01 1.6654865143672939e+01 8.1507616739409894e-01 
1420 1421 2 1.0279999999999931e+00 8.1401599677819945e+02 1.0000000000000000e+00 5.4634142444449544e+01 1.6275931445993614e+01 1.4250925027029493e+00 
1877 1878 2 1.0280000000000094e+00 -7.7572472288514882e+02 1.0000000000000000e+00 5.4103227913141616e+01 1.7894340940602788e+01 1.2312933542629958e+00 
162 163 2 1.0279999999999947e+00 1.9704756445095092e+02 1.0000000000000000e+00 5.5920199449591692e+01 1.7287961056537636e+01 5.2208610599807048e-01 
202 203 2 1.0279999999999880e+00 -4.1023274197273349e+03 1.0000000000000000e+00 5.7759068404621679e+01 1.6726778344751562e+01 7.8085454343731001e-02 
3855 3856 2 1.0280000000000011e+00 2.1345184878386908e+02 1.0000000000000000e+00 5.7914780691392046e+01 1.6909429768549245e+01 2.7092144925436218e-01 
618 619 2 1.0280000000000060e+00 -1.9630245173154815e+03 1.0000000000000000e+00 6.6027194340711773e+01 1.7146408804323862e+01 1.3159013680794085e+00 
1967 1968 2 1.0280000000000069e+00 -1.4905192054556683e+03 1.0000000000000000e+00 6.6591724123500299e+01 1.7052607160316210e+01 9.6432483980436834e-01 
1128 1129 2 1.0280000000000022e+00 -1.8881942456560696e+00 1.0000000000000000e+00 6.5226852710828268e+01 1.6700645696349323e+01 1.3467195798601872e-01 
3799 3800 2 1.0280000000000020e+00 9.0553853101942550e+03 1.0000000000000000e+00 4.2862461885005075e+01 1.9379615281043449e+01 1.3655787504808619e+00 
3832 3833 2 1.0279999999999947e+00 1.4423286593617900e+02 1.0000000000000000e+00 4.3251176707490281e+01 1.9432350658734428e+01 3.6094862969554264e-01 
51 52 2 1.0280000000000036e+00 -1.4318266509423813e+03 1.0000000000000000e+00 4.4359186605368251e+01 1.9128756278078679e+01 5.6536751283816300e-01 
178 179 2 1.0279999999999991e+00 -3.0484376313332714e+03 1.0000000000000000e+00 4.6109193912604795e+01 1.8805508493457545e+01 8.9118443661681557e-01 
1109 1110 2 1.0279999999999965e+00 -9.3358919067593069e+02 1.0000000000000000e+00 4.8086704468004086e+01 1.9561819591472329e+01 1.8574561376307819e-01 
2246 2247 2 1.0280000000000151e+00 1.9495985683521499e+03 1.0000000000000000e+00 4.7324891600722410e+01 1.8323965940667943e+01 1.7184423147813372e+00 
3803 3804 2 1.0280000000000058e+00 1.3126564948961941e+03 1.0000000000000000e+00 4.9440632493689684e+01 1.9086515837747118e+01 4.3537710939747884e-02 
990 991 2 1.0279999999999985e+00 -5.4303249733417579e+02 1.0000000000000000e+00 5.2358229483791661e+01 1.8006325036802849e+01 9.2857366523770111e-03 
107 108 2 1.0280000000000094e+00 8.1401490073341392e+03 1.0000000000000000e+00 5.3250765050678197e+01 1.9530605483376533e+01 1.1741219025376946e+00 
1538 1539 2 1.0279999999999974e+00 2.3390792357832861e+03 1.0000000000000000e+00 5.4169160952347674e+01 1.9116316140011627e+01 1.7222719577433323e+00 
4271 4272 2 1.0279999999999987e+00 2.4595720767217645e+03 1.0000000000000000e+00 5.4796108682650747e+01 1.9916735278167288e+01 2.3601230433284046e-01 
1912 1913 2 1.0280000000000031e+00 3.6839755613399166e+03 1.0000000000000000e+00 5.5942773276912398e+01 1.9043771223835012e+01 1.1894794607880268e+00 
574 575 2 1.0279999999999920e+00 6.8677342296598854e+03 1.0000000000000000e+00 5.7698749167095244e+01 1.9630594063843912e+01 2.0294735514935949e-01 
582 583 2 1.0280000000000036e+00 2.1135467316661961e+03 1.0000000000000000e+00 6.0956999415443406e+01 1.9063346083299990e+01 3.0465658923053390e-01 
993 994 2 1.0280000000000047e+00 -1.6608413283024356e+03 1.0000000000000000e+00 6.2145220701225163e+01 1.9241680158661051e+01 8.2607284819505244e-01 
491 492 2 1.0279999999999967e+00 -2.3473845086043957e+03 1.0000000000000000e+00 6.1086018122553078e+01 1.9734937377859247e+01 1.6561186830958430e+00 
118 119 2 1.0279999999999956e+00 4.2145749755507923e+03 1.0000000000000000e+00 6.3022229925390590e+01 1.8071219265512834e+01 9.9246434900424774e-01 
1999 2000 2 1.0280000000000022e+00 -1.0986969548109428e+03 1.0000000000000000e+00 6.3429542096286880e+01 1.8317432566400768e+01 6.2434792976413446e-02 
944 945 2 1.0280000000000040e+00 -9.0811407009879161e+01 1.0000000000000000e+00 6.5148597880493568e+01 1.9046710235128170e+01 9.5772907274091879e-01 
1869 1870 2 1.0279999999999929e+00 -1.3585420386102728e+03 1.0000000000000000e+00 6.6623948503767537e+01 1.9541023291715430e+01 6.4401762970878607e-01 
4165 4166 2 1.0280000000000011e+00 -1.4520580388273947e+03 1.0000000000000000e+00 4.1216678171622270e+01 1.7457387067677066e+00 2.3872215150168326e+00 
3495 3496 2 1.0280000000000000e+00 -1.2567514296139198e+03 1.0000000000000000e+00 4.1716678923119595e+01 1.0416759314451718e+00 2.4570943143808788e+00 
3457 3458 2 1.0280000000000020e+00 6.9439659058845737e+03 1.0000000000000000e+00 4.3311399572690298e+01 1.1832057580738802e+00 3.1405145968468990e+00 
3455 3456 2 1.0279999999999996e+00 9.4146474795017384e+03 1.0000000000000000e+00 4.4202618050285082e+01 1.1450904317152495e+00 2.6344346160166077e+00 
4405 4406 2 1.0279999999999938e+00 2.4634293869352423e+03 1.0000000000000000e+00 4.8680748865198119e+01 8.7370838888921920e-01 3.1954914146071896e+00 
2843 2844 2 1.0279999999999958e+00 -2.1987323967421426e+03 1.0000000000000000e+00 4.7239968235228524e+01 1.5413684408272219e+00 3.5815691977722031e+00 
2091 2092 2 1.0280000000000018e+00 3.5706337200989560e+02 1.0000000000000000e+00 4.7994074108105131e+01 1.7736767545602488e+00 3.7457091799535833e+00 
7 8 2 1.0280000000000009e+00 -1.4482645266163968e+03 1.0000000000000000e+00 4.1017662993775517e+01 3.3238710037408983e+00 3.1977268150481577e+00 
2106 2107 2 1.0279999999999989e+00 2.0944791951529187e+03 1.0000000000000000e+00 4.2738837346568332e+01 3.4616941568916255e+00 2.2346104129891229e+00 
1185 1186 2 1.0279999999999989e+00 -1.2565808255832931e+03 1.0000000000000000e+00 4.2138018669816411e+01 3.9088912353448655e+00 3.1073896462154718e+00 
1147 1148 2 1.0280000000000005e+00 6.9486607159054292e+03 1.0000000000000000e+00 4.3822515446465147e+01 3.1942403302262901e+00 2.6797398288453809e+00 
1145 1146 2 1.0279999999999978e+00 9.4132349223990987e+03 1.0000000000000000e+00 4.4829898950454222e+01 2.3229461129719855e+00 2.7015131131818242e+00 
2598 2599 2 1.0279999999999994e+00 3.1532909015974728e+03 1.0000000000000000e+00 4.6012307144563607e+01 5.2656117169370074e+00 3.8085253867921804e+00 
3776 3777 2 1.0280000000000038e+00 1.2087468170243239e+03 1.0000000000000000e+00 3.4047078084917935e+01 6.9327591814790779e+00 2.3853376080414175e+00 
3436 3437 2 1.0279999999999967e+00 -1.2470697153683864e+03 1.0000000000000000e+00 4.6735710603462081e+01 7.5858286015126470e+00 2.4566400678416573e+00 
708 709 2 1.0280000000000120e+00 8.1419434533178919e+03 1.0000000000000000e+00 4.8083749766597975e+01 7.6427177601994138e+00 2.1598411094439096e+00 
3775 3776 2 1.0280000000000005e+00 2.5424441532262008e+03 1.0000000000000000e+00 4.7209163776420219e+01 6.4775898906795533e+00 3.9439119723116276e+00 
4193 4194 2 1.0280000000000040e+00 -1.8214288156864404e+03 1.0000000000000000e+00 4.9287734556969724e+01 7.0227500594669623e+00 3.0987377478563172e+00 
35 36 2 1.0279999999999718e+00 -1.8191976789328533e+03 1.0000000000000000e+00 4.9359950009609555e+01 7.1919256966755336e+00 3.0368653901951976e+00 
1548 1549 2 1.0279999999999965e+00 -1.7734239973181075e+03 1.0000000000000000e+00 3.4516827017836981e+01 8.2441633761940736e+00 3.4938982189805592e+00 
463 464 2 1.0280000000000020e+00 -4.3380641565314490e+03 1.0000000000000000e+00 3.3771694994573267e+01 8.1914768907312681e+00 3.8878945250762977e+00 
693 694 2 1.0279999999999989e+00 1.3904164875175543e+03 1.0000000000000000e+00 4.0543366596393831e+01 9.4865879114494938e+00 3.8622263308188716e+00 
3011 3012 2 1.0280000000000054e+00 -3.7302120487923557e+03 1.0000000000000000e+00 4.5231365185076072e+01 8.0427752455457622e+00 2.2908479567760560e+00 
3476 3477 2 1.0280000000000002e+00 9.3710688532433178e+03 1.0000000000000000e+00 4.5636808460860166e+01 8.3626449230046287e+00 3.7192627804803728e+00 
1166 1167 2 1.0280000000000036e+00 9.3832884773619953e+03 1.0000000000000000e+00 4.6147519266510734e+01 9.5349151364744849e+00 3.7642167006115623e+00 
1126 1127 2 1.0279999999999998e+00 -1.2445751100816613e+03 1.0000000000000000e+00 4.6897217624666752e+01 9.8935490890911666e+00 2.4870409823651851e+00 
3942 3943 2 1.0279999999999934e+00 8.1178736984135776e+03 1.0000000000000000e+00 4.7683813864751627e+01 9.5201792310732181e+00 2.7671844634820499e+00 
2490 2491 2 1.0280000000000029e+00 1.1873096147938784e+02 1.0000000000000000e+00 3.8464920194576280e+01 1.0533178901023806e+01 3.0571772565560038e+00 
229 230 2 1.0279999999999938e+00 -4.9631265599635926e+03 1.0000000000000000e+00 3.9577779155867205e+01 1.1386348024282469e+01 3.3733123061096455e+00 
2078 2079 2 1.0280000000000071e+00 8.6477190206705586e+02 1.0000000000000000e+00 4.0203145054711300e+01 1.0755840205217492e+01 2.1349225673619094e+00 
2137 2138 2 1.0280000000000009e+00 2.1462869305197032e+03 1.0000000000000000e+00 4.4184574730613591e+01 1.0298681147056257e+01 3.9767631453675487e+00 
21 22 2 1.0279999999999982e+00 -4.0193549476780445e+03 1.0000000000000000e+00 4.5896544237610790e+01 1.1738919239910505e+01 2.3817694139152654e+00 
533 534 2 1.0279999999999923e+00 2.4331710061556942e+03 1.0000000000000000e+00 4.7144089010539517e+01 1.1901883305583663e+01 2.5406489534818553e+00 
1653 1654 2 1.0280000000000000e+00 1.5506729848732391e+03 1.0000000000000000e+00 3.4026998302111942e+01 1.3161286506172145e+01 3.6696528442945611e+00 
1569 1570 2 1.0280000000000020e+00 1.5507766787180735e+03 1.0000000000000000e+00 3.3946692346235935e+01 1.3234536702336646e+01 3.2857700985498539e+00 
2575 2576 2 1.0279999999999994e+00 -1.9857424222928458e+01 1.0000000000000000e+00 3.5646530420944785e+01 1.2718595563336681e+01 3.1219781323672020e+00 
227 228 2 1.0280000000000020e+00 -5.5232136507894538e+03 1.0000000000000000e+00 3.8436722971261567e+01 1.2008022736746609e+01 2.8404755542195477e+00 
2071 2072 2 1.0280000000000062e+00 3.3880688776485676e+03 1.0000000000000000e+00 3.7489457198219199e+01 1.3152271687234320e+01 3.9832039827133809e+00 
2214 2215 2 1.0280000000000074e+00 1.6099068193852022e+03 1.0000000000000000e+00 4.4839285809022009e+01 1.3936018230749637e+01 2.4819519609442993e+00 
1414 1415 2 1.0279999999999898e+00 1.4200618907967828e+03 1.0000000000000000e+00 4.5818296467542496e+01 1.3598954956561874e+01 3.7468421987336042e+00 
701 702 2 1.0280000000000127e+00 6.6143797776828046e+02 1.0000000000000000e+00 4.6184534765643861e+01 1.2687142988768136e+01 3.9523064494310391e+00 
239 240 2 1.0279999999999967e+00 -4.8722110261061380e+03 1.0000000000000000e+00 4.8100275667978345e+01 1.2898325579076186e+01 3.0954020091104431e+00 
625 626 2 1.0280000000000049e+00 9.1867660882556311e+02 1.0000000000000000e+00 4.9423392233760296e+01 1.2859771427381485e+01 2.7613297736419322e+00 
1154 1155 2 1.0279999999999923e+00 4.9819041170506189e+03 1.0000000000000000e+00 3.4361936094146380e+01 1.4697272247569812e+01 3.8809896778235315e+00 
2105 2106 2 1.0280000000000011e+00 5.0212249892537293e+03 1.0000000000000000e+00 3.4465071919658577e+01 1.5985887447340929e+01 3.7859196695809483e+00 
1404 1405 2 1.0280000000000038e+00 1.2196893732230715e+03 1.0000000000000000e+00 3.7241968709634996e+01 1.4743745092051746e+01 2.7517379628579777e+00 
2498 2499 2 1.0279999999999914e+00 -4.1482397376068423e+02 1.0000000000000000e+00 3.7301890950501111e+01 1.5692673324728025e+01 2.0547148560781787e+00 
1495 1496 2 1.0279999999999980e+00 -2.9144644654050671e+03 1.0000000000000000e+00 4.5071545570379087e+01 1.5979473878867166e+01 2.6618644071017670e+00 
2208 2209 2 1.0279999999999989e+00 1.9965951717257776e+03 1.0000000000000000e+00 4.6233845376491864e+01 1.5214601553150857e+01 2.1549019068625763e+00 
2033 2034 2 1.0280000000000091e+00 -5.3011525417486723e+02 1.0000000000000000e+00 4.6837386267033182e+01 1.4848436930790028e+01 3.4533960164829063e+00 
1573 1574 2 1.0279999999999838e+00 -5.8432329676400059e+02 1.0000000000000000e+00 4.8801089090039497e+01 1.5993206480108572e+01 3.8761865232867838e+00 
195 196 2 1.0280000000000018e+00 -3.7337383340561373e+03 1.0000000000000000e+00 4.9032954897467519e+01 1.5564395535327266e+01 2.6547585473009283e+00 
2209 2210 2 1.0280000000000011e+00 4.0898770202458381e+03 1.0000000000000000e+00 4.9086407897698706e+01 1.4021704319955989e+01 3.5732519812808445e+00 
1115 1116 2 1.0280000000000020e+00 -6.9854436451339257e+02 1.0000000000000000e+00 5.1411707751519408e+01 1.4841529803872051e+01 3.8524976624940130e+00 
997 998 2 1.0279999999999874e+00 4.4968103552066077e+02 1.0000000000000000e+00 3.9325260827544405e+01 1.7203520292550625e+01 2.3682779393971036e+00 
139 140 2 1.0279999999999911e+00 -2.0949596388348509e+03 1.0000000000000000e+00 4.3049129647247781e+01 1.7789743923150485e+01 2.2678313802126402e+00 
2203 2204 2 1.0280000000000076e+00 2.1073153199710764e+03 1.0000000000000000e+00 4.3645833253625973e+01 1.6861485807389748e+01 3.4495627025040503e+00 