LAMMPS data file via write_data, version 30 Jul 2016, timestep = 50000000

3234 atoms
8 atom types

0.0000000000000000e+00 1.0000000000000000e+02 xlo xhi
0.0000000000000000e+00 4.0000000000000000e+01 ylo yhi
0.0000000000000000e+00 4.0000000000000000e+01 zlo zhi

Masses

1 3.896
2 5.36
3 20.064
4 8.378
5 8.378
6 8.378
7 8.378
8 8.378

Atoms # meso-molecular

379 380 2 1.0280000000000005e+00 -1.0577626800544708e+03 1.0000000000000000e+00 2.1995557569280670e+01 1.0000000000000000e+01 1.1903214057567293e+00 
337 338 2 1.0280000000000005e+00 -1.0050722525870134e+02 1.0000000000000000e+00 2.3121042073223769e+01 1.0000000000000000e+01 1.3919588250089485e+00 
45 46 2 1.0280000011139687e+00 -1.7514046768392643e+02 1.0000000000000000e+00 2.7421772039151204e+01 1.0000000000000000e+01 1.2328181931049418e+00 
13 14 2 1.0280000033738115e+00 1.1359812032647455e+03 1.0000000000000000e+00 2.9183004501022129e+01 1.0000000000000000e+01 1.1741525939444306e+00 
216 217 2 1.0280000091479167e+00 -8.5707052823240633e+02 1.0000000000000000e+00 3.1029539407166695e+01 1.0000000000000000e+01 4.3839724781461137e-01 
183 184 2 1.0280000018545328e+00 8.8843012529123030e+02 1.0000000000000000e+00 3.2344641661278658e+01 1.0000000000000000e+01 6.4030361743258460e-04 
841 842 2 1.0279999991153790e+00 -1.0583654553637521e+03 1.0000000000000000e+00 1.6596599630963965e+01 1.3000000000000000e+01 1.1702655246980223e+00 
799 800 2 1.0280000008426273e+00 -1.0128605366719540e+02 1.0000000000000000e+00 1.7670034071247084e+01 1.3000000000000000e+01 6.0893111477903972e-01 
545 546 2 1.0279999985010988e+00 -2.0591119579372133e+02 1.0000000000000000e+00 1.9580003255296763e+01 1.3000000000000000e+01 3.0961935006624214e-01 
714 715 2 1.0280000020507924e+00 -5.2375450587181592e+02 1.0000000000000000e+00 2.0505609706141993e+01 1.3000000000000000e+01 1.4670933058992495e+00 
590 591 2 1.0279999979410093e+00 -3.2075259373488302e+02 1.0000000000000000e+00 2.1870356574742150e+01 1.3000000000000000e+01 5.9761175350073836e-01 
589 590 2 1.0279999996088696e+00 -1.1902193648247539e+03 1.0000000000000000e+00 2.4745327876517948e+01 1.3000000000000000e+01 1.3603725868515295e+00 
769 770 2 1.0280000002846099e+00 -9.7218776846854712e+02 1.0000000000000000e+00 2.6280294006997487e+01 1.3000000000000000e+01 6.0763503356529547e-01 
901 902 2 1.0280000025919163e+00 -5.7532895244620568e+02 1.0000000000000000e+00 2.7762434564774608e+01 1.3000000000000000e+01 9.3000345000051909e-01 
900 901 2 1.0279999992508186e+00 -5.0626033014861082e+02 1.0000000000000000e+00 2.9157906275989056e+01 1.3000000000000000e+01 1.5079688150307897e+00 
857 858 2 1.0280000000157308e+00 1.3028264715156038e+03 1.0000000000000000e+00 2.9645236086208563e+01 1.3000000000000000e+01 1.4404612499730124e-01 
806 807 2 1.0280000026797751e+00 -3.9582765439884753e+02 1.0000000000000000e+00 3.1162082893426586e+01 1.3000000000000000e+01 4.9326848823807457e-01 
946 947 2 1.0279999999999996e+00 -2.6559170265768817e+03 1.0000000000000000e+00 1.9328822641290031e+01 1.6000000000000000e+01 1.0812915154953744e+00 
1181 1182 2 1.0280000010713903e+00 1.1976154537321531e+03 1.0000000000000000e+00 2.6366138587339531e+01 1.6000000000000000e+01 1.6352630525104617e+00 
1097 1098 2 1.0279999991091622e+00 1.2742251053705456e+03 1.0000000000000000e+00 2.7171043769689689e+01 1.6000000000000000e+01 4.8192800621160638e-02 
1357 1358 2 1.0280000002051788e+00 1.2045882040203351e+03 1.0000000000000000e+00 2.8481750656268222e+01 1.6000000000000000e+01 1.1528503204199745e+00 
1307 1308 2 1.0280000003301095e+00 -8.3472409894021621e+02 1.0000000000000000e+00 3.1253623793506030e+01 1.6000000000000000e+01 6.4242673414018803e-01 
1306 1307 2 1.0280000007219041e+00 2.8542037371926455e+02 1.0000000000000000e+00 3.2590721920243539e+01 1.6000000000000000e+01 4.0157788809554656e-01 
1555 1556 2 1.0279999999999996e+00 -1.0232652883363264e+03 1.0000000000000000e+00 1.6783219576703189e+01 1.9000000000000000e+01 1.5173664358376342e+00 
1732 1733 2 1.0279999991480686e+00 6.7706340475771560e+02 1.0000000000000000e+00 2.5843412737786046e+01 1.9000000000000000e+01 1.1013658737878120e+00 
1825 1826 2 1.0280000070791302e+00 -5.7591867490756522e+02 1.0000000000000000e+00 2.8342351547135650e+01 1.9000000000000000e+01 1.0635149644491131e+00 
1781 1782 2 1.0280000004765069e+00 1.3044596394496584e+03 1.0000000000000000e+00 2.9816433128920266e+01 1.9000000000000000e+01 6.7944420899284774e-01 
1780 1781 2 1.0280000017049649e+00 3.6352318137049747e+02 1.0000000000000000e+00 3.1060110995738633e+01 1.9000000000000000e+01 1.2730358102526294e+00 
209 210 2 1.0279999999999994e+00 1.8415766286435036e+02 1.0000000000000000e+00 6.3745851333831558e+00 1.0000000000000000e+01 2.8247402960252246e+00 
208 209 2 1.0279999999999994e+00 3.5230610571125521e+02 1.0000000000000000e+00 5.3484939825148494e+00 1.0000000000000000e+01 3.3292301052072313e+00 
50 51 2 1.0280000040263713e+00 1.0179949722170857e+03 1.0000000000000000e+00 2.6326151751423897e+01 1.0000000000000000e+01 2.4706472254380043e+00 
2 3 2 1.0279999984694550e+00 -4.0285778867427592e+02 1.0000000000000000e+00 2.8046593295578791e+01 1.0000000000000000e+01 2.4765806951054343e+00 
390 391 2 1.0279999904539374e+00 8.9960859354071840e+02 1.0000000000000000e+00 3.1851248946470346e+01 1.0000000000000000e+01 1.9347857467029295e+00 
348 349 2 1.0280000121426267e+00 3.1455272708222064e+03 1.0000000000000000e+00 3.2286577667549722e+01 1.0000000000000000e+01 3.1444476925696532e+00 
530 531 2 1.0280000000000007e+00 1.1286664414795362e+03 1.0000000000000000e+00 9.1778898208408055e+00 1.3000000000000000e+01 2.8885232390803588e+00 
921 922 2 1.0280000006668206e+00 -8.9215517137784695e+02 1.0000000000000000e+00 1.7750589534853642e+01 1.3000000000000000e+01 2.5806973878479957e+00 
501 502 2 1.0279999999247695e+00 -8.9033430711285746e+02 1.0000000000000000e+00 1.8978767061873334e+01 1.3000000000000000e+01 2.4048710933756694e+00 
924 925 2 1.0279999980133843e+00 -1.3929128683719472e+02 1.0000000000000000e+00 2.1053673549034887e+01 1.3000000000000000e+01 3.2232889330920234e+00 
587 588 2 1.0279999990871391e+00 -1.7055963866675847e+02 1.0000000000000000e+00 2.4212522933624630e+01 1.3000000000000000e+01 2.6848847717567850e+00 
566 567 2 1.0279999989361372e+00 6.0378132455038781e+02 1.0000000000000000e+00 2.8187112334371697e+01 1.3000000000000000e+01 3.1589520147002306e+00 
856 857 2 1.0280000028438401e+00 3.6622971119377564e+02 1.0000000000000000e+00 3.1223468742488194e+01 1.3000000000000000e+01 2.2086678343761585e+00 
723 724 2 1.0280000018687623e+00 2.5071178167098578e+03 1.0000000000000000e+00 3.2971307020074853e+01 1.3000000000000000e+01 2.3677853452470297e+00 
993 994 2 1.0279999999999996e+00 4.7350778974607510e+02 1.0000000000000000e+00 1.8651824099001281e+01 1.6000000000000000e+01 2.0027284320543157e+00 
1219 1220 2 1.0279999993524667e+00 -1.2171264819221719e+03 1.0000000000000000e+00 2.6830339411795123e+01 1.6000000000000000e+01 2.7771813945952366e+00 
1190 1191 2 1.0280000004410386e+00 6.9470054082430624e+02 1.0000000000000000e+00 2.9748761393827312e+01 1.6000000000000000e+01 1.7493253774059045e+00 
1229 1230 2 1.0280000007547574e+00 -1.3262633749276515e+03 1.0000000000000000e+00 2.8541710115150469e+01 1.6000000000000000e+01 3.2196846874691030e+00 
1230 1231 2 1.0280000003653360e+00 -9.6110493188230521e+02 1.0000000000000000e+00 3.1333233424458182e+01 1.6000000000000000e+01 2.2773979016346599e+00 
1137 1138 2 1.0280000002380281e+00 1.3279547681367267e+03 1.0000000000000000e+00 3.2898414269688921e+01 1.6000000000000000e+01 2.4604741310861193e+00 
1473 1474 2 1.0279999999999996e+00 -3.0256787019920671e+02 1.0000000000000000e+00 1.5797584515370254e+01 1.9000000000000000e+01 2.0969322589586685e+00 
1509 1510 2 1.0280000000000000e+00 7.5542628281920770e+01 1.0000000000000000e+00 2.1314024860254563e+01 1.9000000000000000e+01 3.2740055596342472e+00 
1438 1439 2 1.0279999961955422e+00 -1.6581065403858786e+03 1.0000000000000000e+00 2.7202508439633327e+01 1.9000000000000000e+01 1.8908411708824011e+00 
1603 1604 2 1.0280000013401576e+00 -9.9311944717667842e+01 1.0000000000000000e+00 3.2379131606812628e+01 1.9000000000000000e+01 2.0350144661639340e+00 
245 246 2 1.0280000000000011e+00 1.9232014186064225e+03 1.0000000000000000e+00 1.2850885754255799e+01 1.0000000000000000e+01 4.2241683329413808e+00 
246 247 2 1.0280000000000011e+00 -1.0345314717582519e+02 1.0000000000000000e+00 1.1707547781778853e+01 1.0000000000000000e+01 4.2364686642800482e+00 
338 339 2 1.0280000000000000e+00 -1.9584492640324999e+02 1.0000000000000000e+00 1.6317346868161639e+01 1.0000000000000000e+01 4.7849201918702269e+00 
51 52 2 1.0279999985010311e+00 9.8543264026361896e+01 1.0000000000000000e+00 2.6071367331389666e+01 1.0000000000000000e+01 3.8628729027061506e+00 
335 336 2 1.0279999954019683e+00 -3.0256480034391956e+02 1.0000000000000000e+00 2.7487083802131224e+01 1.0000000000000000e+01 4.4289496766771812e+00 
86 87 2 1.0280000030430518e+00 -1.9325029088093424e+02 1.0000000000000000e+00 2.9956459130188062e+01 1.0000000000000000e+01 3.9629597184260419e+00 
128 129 2 1.0279999995918001e+00 -3.2103901554901574e+02 1.0000000000000000e+00 3.1053222440893009e+01 1.0000000000000000e+01 4.5428225457937401e+00 
866 867 2 1.0280000000000007e+00 1.1573313931726789e+03 1.0000000000000000e+00 8.1537668152279466e+00 1.3000000000000000e+01 3.3969965292669930e+00 
670 671 2 1.0280000019978210e+00 3.5431332756869847e+02 1.0000000000000000e+00 1.9613582848560334e+01 1.3000000000000000e+01 4.4405102068949676e+00 
881 882 2 1.0280000033501708e+00 -2.0290091223131088e+02 1.0000000000000000e+00 2.1920921360167728e+01 1.3000000000000000e+01 4.1428009412152980e+00 
596 597 2 1.0280000012859070e+00 -6.6151982280063379e+01 1.0000000000000000e+00 2.3741038354686040e+01 1.3000000000000000e+01 4.2223352724288512e+00 
629 630 2 1.0280000005563723e+00 -3.0579663448703263e+02 1.0000000000000000e+00 2.5323957368322382e+01 1.3000000000000000e+01 4.0404119771758786e+00 
594 595 2 1.0280000034196326e+00 -1.9977763643708404e+03 1.0000000000000000e+00 2.6866746533136737e+01 1.3000000000000000e+01 3.6018603078711684e+00 
514 515 2 1.0279999970478872e+00 -1.6585307598863769e+03 1.0000000000000000e+00 2.8118136251389604e+01 1.3000000000000000e+01 4.9454209549870045e+00 
524 525 2 1.0280000042545294e+00 1.5047455715948672e+03 1.0000000000000000e+00 2.9454334105770766e+01 1.3000000000000000e+01 4.3179632447440603e+00 
899 900 2 1.0279999987476525e+00 1.9529424910953338e+02 1.0000000000000000e+00 3.0855576117172077e+01 1.3000000000000000e+01 3.5251794369278504e+00 
726 727 2 1.0279999994891720e+00 1.9049920562432840e+02 1.0000000000000000e+00 3.2736454728975218e+01 1.3000000000000000e+01 3.8267882702365097e+00 
1303 1304 2 1.0280000000000031e+00 -1.0581380549674582e+03 1.0000000000000000e+00 7.6354970099301482e+00 1.6000000000000000e+01 4.4878368830917506e+00 
1261 1262 2 1.0280000000000031e+00 -1.0095990617059317e+02 1.0000000000000000e+00 8.6268973486024016e+00 1.6000000000000000e+01 3.9181892850635762e+00 
1365 1366 2 1.0280000001282599e+00 -2.8632813793614168e+03 1.0000000000000000e+00 2.9973969613845231e+01 1.6000000000000000e+01 3.8622301007286826e+00 
945 946 2 1.0280000000941016e+00 -2.8368618852486616e+03 1.0000000000000000e+00 2.8664549431047121e+01 1.6000000000000000e+01 4.7456452399181766e+00 
1319 1320 2 1.0280000004404357e+00 1.3028921118952430e+03 1.0000000000000000e+00 3.1188784994452476e+01 1.6000000000000000e+01 4.9391954713671735e+00 
1139 1140 2 1.0280000001621392e+00 -1.7421879385143307e+03 1.0000000000000000e+00 3.2361029701017507e+01 1.6000000000000000e+01 3.7775646207969165e+00 
1552 1553 2 1.0280000000000000e+00 8.2541525899796147e+02 1.0000000000000000e+00 2.1325672361031714e+01 1.9000000000000000e+01 4.4173503690353249e+00 
1774 1775 2 1.0279999939096780e+00 -1.6616480199885975e+03 1.0000000000000000e+00 2.8148724428185943e+01 1.9000000000000000e+01 3.6071905756219764e+00 
1819 1820 2 1.0280000027889071e+00 1.2061079502204930e+03 1.0000000000000000e+00 2.6804401247913681e+01 1.9000000000000000e+01 4.6642468881254437e+00 
1824 1825 2 1.0280000034516104e+00 -5.0509208228831659e+02 1.0000000000000000e+00 2.9437612966984020e+01 1.9000000000000000e+01 3.5260037655515504e+00 
1823 1824 2 1.0279999964154929e+00 1.9360468971634756e+02 1.0000000000000000e+00 3.1004796398632493e+01 1.9000000000000000e+01 4.0359615137252263e+00 
1730 1731 2 1.0280000009717469e+00 -3.9768725286394982e+02 1.0000000000000000e+00 3.2293283313274003e+01 1.9000000000000000e+01 3.9483893892685837e+00 
296 297 2 1.0280000000000000e+00 -3.2234833864348980e+02 1.0000000000000000e+00 1.7432808506676597e+01 1.0000000000000000e+01 5.0361538489710735e+00 
4 5 2 1.0280000038757695e+00 -8.9193854062566368e+02 1.0000000000000000e+00 2.6171324988179610e+01 1.0000000000000000e+01 5.8182796942664599e+00 
424 425 2 1.0280000031524839e+00 -8.9291580457723546e+02 1.0000000000000000e+00 2.7680465688244034e+01 1.0000000000000000e+01 6.2557768070603865e+00 
377 378 2 1.0280000016949535e+00 -1.6396170739591872e+02 1.0000000000000000e+00 2.8786045380084119e+01 1.0000000000000000e+01 5.2608569136354291e+00 
343 344 2 1.0279999991183943e+00 -1.0382973527610084e+03 1.0000000000000000e+00 3.0706885910540770e+01 1.0000000000000000e+01 6.4242451190958132e+00 
671 672 2 1.0279999982181804e+00 1.8489752670759867e+02 1.0000000000000000e+00 2.0443549273890422e+01 1.3000000000000000e+01 5.3073268184026796e+00 
597 598 2 1.0280000002817580e+00 -1.0116545143559082e+03 1.0000000000000000e+00 2.4641590437910676e+01 1.3000000000000000e+01 5.6085123357306568e+00 
558 559 2 1.0280000004176413e+00 3.1881085939277227e+03 1.0000000000000000e+00 2.6844519979353489e+01 1.3000000000000000e+01 6.1651596222014460e+00 
898 899 2 1.0280000018454405e+00 -6.3438749239179015e+02 1.0000000000000000e+00 3.0792221520630012e+01 1.3000000000000000e+01 5.8137540373398240e+00 
771 772 2 1.0280000022846092e+00 -7.7149464132058029e+02 1.0000000000000000e+00 3.2150730615239006e+01 1.3000000000000000e+01 5.4196603355034965e+00 
1362 1363 2 1.0279999994508191e+00 -5.0621140467723194e+02 1.0000000000000000e+00 2.9846181656180732e+01 1.6000000000000000e+01 6.3867413656051344e+00 
1363 1364 2 1.0280000009495041e+00 -5.7540341712057375e+02 1.0000000000000000e+00 2.8540957725358986e+01 1.6000000000000000e+01 6.4113438543746692e+00 
1268 1269 2 1.0280000009707584e+00 -3.9608323889679684e+02 1.0000000000000000e+00 3.2422986520109752e+01 1.6000000000000000e+01 5.8309354652978760e+00 
1842 1843 2 1.0280000000000005e+00 -6.9197185297603141e+02 1.0000000000000000e+00 4.5130047099378539e+00 1.9000000000000000e+01 5.4022881598356411e+00 
1422 1423 2 1.0280000000000005e+00 -6.9371742278402098e+02 1.0000000000000000e+00 3.3866650281153139e+00 1.9000000000000000e+01 5.5990924753641327e+00 
1770 1771 2 1.0280000000000000e+00 1.4923354106250194e+03 1.0000000000000000e+00 1.8286374026058162e+01 1.9000000000000000e+01 6.2134460618750937e+00 
1815 1816 2 1.0279999953748289e+00 -1.0830680292097400e+03 1.0000000000000000e+00 2.5649752492924499e+01 1.9000000000000000e+01 5.1637705393189179e+00 
1490 1491 2 1.0279999996816973e+00 6.0548326952269531e+02 1.0000000000000000e+00 2.8960656345990238e+01 1.9000000000000000e+01 6.4914364135450526e+00 
1650 1651 2 1.0280000007053856e+00 1.9024733440631135e+02 1.0000000000000000e+00 3.3093364136436030e+01 1.9000000000000000e+01 6.0081859229553380e+00 
83 84 2 1.0279999999999994e+00 -2.0676904978919566e+02 1.0000000000000000e+00 2.0549443427951548e+01 1.0000000000000000e+01 8.1278581571218531e+00 
374 375 2 1.0280000031045327e+00 1.4613831833920312e+02 1.0000000000000000e+00 2.5096180216423260e+01 1.0000000000000000e+01 6.9107829652785364e+00 
414 415 2 1.0279999944228899e+00 -1.2708048567393425e+03 1.0000000000000000e+00 2.6382395429155920e+01 1.0000000000000000e+01 7.6061939597831625e+00 
423 424 2 1.0280000019857580e+00 -7.1785733238498415e+02 1.0000000000000000e+00 3.0043284902862190e+01 1.0000000000000000e+01 7.4079333739194277e+00 
878 879 2 1.0280000000000000e+00 -8.0729337124622066e+02 1.0000000000000000e+00 1.1573943228084950e+01 1.3000000000000000e+01 7.8260900520448438e+00 
879 880 2 1.0280000000000000e+00 2.9895815092417467e+02 1.0000000000000000e+00 1.2709640009861953e+01 1.3000000000000000e+01 7.9586262256733971e+00 
846 847 2 1.0280000017145889e+00 1.4932603701500348e+03 1.0000000000000000e+00 2.1214793112111003e+01 1.3000000000000000e+01 7.4192281505469619e+00 
889 890 2 1.0279999983598098e+00 -7.2542961195520706e+02 1.0000000000000000e+00 2.0133156337826325e+01 1.3000000000000000e+01 7.8337594403528650e+00 
880 881 2 1.0280000012975263e+00 -1.9334951805352807e+02 1.0000000000000000e+00 2.3261985693354148e+01 1.3000000000000000e+01 8.3007121298114335e+00 
923 924 2 1.0279999986036499e+00 -3.9966410661543841e+02 1.0000000000000000e+00 2.3621543994831224e+01 1.3000000000000000e+01 7.1126993067725435e+00 
852 853 2 1.0280000007347490e+00 9.0094832220255694e+02 1.0000000000000000e+00 2.5576521145668895e+01 1.3000000000000000e+01 6.8006411836550384e+00 
850 851 2 1.0280000020278595e+00 -1.6630633447921177e+03 1.0000000000000000e+00 2.8344385062875844e+01 1.3000000000000000e+01 6.7657715991580760e+00 
479 480 2 1.0280000001900451e+00 1.8617818492500510e+02 1.0000000000000000e+00 2.9724776969199667e+01 1.3000000000000000e+01 6.8874105952595110e+00 
971 972 2 1.0279999996830926e+00 -8.2926155278597457e+02 1.0000000000000000e+00 2.4624573649821418e+01 1.6000000000000000e+01 8.1960659146185204e+00 
970 971 2 1.0280000006099472e+00 2.8128279400994126e+02 1.0000000000000000e+00 2.5902575843864515e+01 1.6000000000000000e+01 7.9380681717337662e+00 
1028 1029 2 1.0280000000353993e+00 6.0387837697353825e+02 1.0000000000000000e+00 2.7603828353463310e+01 1.6000000000000000e+01 8.2151861993629947e+00 
1318 1319 2 1.0280000011434092e+00 3.6641304044042147e+02 1.0000000000000000e+00 3.1439013227686122e+01 1.6000000000000000e+01 7.1759016102104525e+00 
1361 1362 2 1.0280000004740693e+00 1.9540144997719352e+02 1.0000000000000000e+00 3.0545172356258096e+01 1.6000000000000000e+01 8.2576713060155260e+00 
1813 1814 2 1.0280000000000000e+00 -7.2609140494214876e+02 1.0000000000000000e+00 1.8479013660721463e+01 1.9000000000000000e+01 7.3405055051235548e+00 
1520 1521 2 1.0280000014020629e+00 -6.7046873277315285e+01 1.0000000000000000e+00 2.2986554033117606e+01 1.9000000000000000e+01 6.9778026902644177e+00 
1521 1522 2 1.0279999980874821e+00 -1.0128033761246734e+03 1.0000000000000000e+00 2.3208021266070592e+01 1.9000000000000000e+01 8.1515198177679604e+00 
1676 1677 2 1.0279999996502154e+00 1.2418474160123260e+03 1.0000000000000000e+00 2.4836984621086486e+01 1.9000000000000000e+01 6.6684237722612609e+00 
1717 1718 2 1.0279999977117307e+00 -2.0206184319178160e+03 1.0000000000000000e+00 2.5370596478531105e+01 1.9000000000000000e+01 7.8731559078155309e+00 
1482 1483 2 1.0280000010696648e+00 3.1869749132222742e+03 1.0000000000000000e+00 2.7833759685354337e+01 1.9000000000000000e+01 7.0192121509896221e+00 
1822 1823 2 1.0280000024876026e+00 -6.3495098690280406e+02 1.0000000000000000e+00 3.0891113900254069e+01 1.9000000000000000e+01 6.8653502619216571e+00 
1448 1449 2 1.0279999976327301e+00 1.5054000845388659e+03 1.0000000000000000e+00 3.0125005186929187e+01 1.9000000000000000e+01 7.8851893994874924e+00 
1695 1696 2 1.0279999990262487e+00 -7.7175090483612394e+02 1.0000000000000000e+00 3.2594316860139955e+01 1.9000000000000000e+01 7.2241245739731186e+00 
252 253 2 1.0279999999999994e+00 -5.2529644024727600e+02 1.0000000000000000e+00 1.9981311860049026e+01 1.0000000000000000e+01 9.1201280493444106e+00 
47 48 2 1.0280000026811988e+00 -8.2926494579524638e+02 1.0000000000000000e+00 2.4651371418968942e+01 1.0000000000000000e+01 8.6620166380919503e+00 
304 305 2 1.0279999997227507e+00 -1.1718176012848917e+03 1.0000000000000000e+00 2.4097525193112563e+01 1.0000000000000000e+01 9.9918898138390251e+00 
46 47 2 1.0280000004601473e+00 2.8081824223016548e+02 1.0000000000000000e+00 2.6145792197325147e+01 1.0000000000000000e+01 9.2583277299201239e+00 
43 44 2 1.0279999983329777e+00 -1.0652891832775467e+03 1.0000000000000000e+00 2.8110071444318674e+01 1.0000000000000000e+01 9.5615471874719393e+00 
85 86 2 1.0280000011593156e+00 -1.0803039347003019e+02 1.0000000000000000e+00 2.8371975971317344e+01 1.0000000000000000e+01 8.4052262134977358e+00 
340 341 2 1.0279999954541961e+00 2.9338126857369428e+01 1.0000000000000000e+00 3.1125019432310850e+01 1.0000000000000000e+01 9.2202220870068086e+00 
297 298 2 1.0280000034201582e+00 7.0988278162731012e+02 1.0000000000000000e+00 3.2203185466696304e+01 1.0000000000000000e+01 8.7721583128133940e+00 
586 587 2 1.0280000002751550e+00 -3.3106568770149636e+02 1.0000000000000000e+00 2.0304693568000229e+01 1.3000000000000000e+01 9.8952940814412713e+00 
585 586 2 1.0279999999923075e+00 7.7574664877320998e+01 1.0000000000000000e+00 2.1729321286869524e+01 1.3000000000000000e+01 9.4530445113851691e+00 
593 594 2 1.0280000021194076e+00 -5.9553938720879319e+02 1.0000000000000000e+00 2.4863827349434448e+01 1.3000000000000000e+01 9.2596606623515250e+00 
810 811 2 1.0279999946502578e+00 3.1464314365411919e+03 1.0000000000000000e+00 2.7170047786457932e+01 1.3000000000000000e+01 8.7639207047790286e+00 
516 517 2 1.0280000058145731e+00 8.6441705990292007e+02 1.0000000000000000e+00 2.8152111674852364e+01 1.3000000000000000e+01 9.3525167749278602e+00 
902 903 2 1.0279999988426731e+00 -1.1018817295403469e+03 1.0000000000000000e+00 3.0943454010653376e+01 1.3000000000000000e+01 9.4489260915226403e+00 
860 861 2 1.0279999995978710e+00 1.5859573177701072e+03 1.0000000000000000e+00 3.2312860635166984e+01 1.3000000000000000e+01 8.8810936852645472e+00 
1228 1229 2 1.0280000001139715e+00 -1.1720471889453879e+03 1.0000000000000000e+00 2.5239349680990308e+01 1.6000000000000000e+01 9.7037354811293852e+00 
986 987 2 1.0280000007491199e+00 1.5046894155203890e+03 1.0000000000000000e+00 2.8834967253108719e+01 1.6000000000000000e+01 8.5508751766340705e+00 
1188 1189 2 1.0280000007422074e+00 1.9051379755047122e+02 1.0000000000000000e+00 3.3084903560746717e+01 1.6000000000000000e+01 8.8529734163573792e+00 
1233 1234 2 1.0280000000016489e+00 -7.7145495281338185e+02 1.0000000000000000e+00 3.1835620805299936e+01 1.6000000000000000e+01 9.5956331279350309e+00 
1848 1849 2 1.0280000000000002e+00 -1.3874517677522857e+02 1.0000000000000000e+00 3.2156500817246356e+00 1.9000000000000000e+01 9.8266968229606135e+00 
1692 1693 2 1.0280000008236707e+00 -9.5789470999380728e+02 1.0000000000000000e+00 2.4166123824640710e+01 1.9000000000000000e+01 9.7999218384639644e+00 
1399 1400 2 1.0279999998948750e+00 1.1360634521759191e+03 1.0000000000000000e+00 2.6137995854019177e+01 1.9000000000000000e+01 9.2953551366277480e+00 
1691 1692 2 1.0280000014631385e+00 -1.3257800190649618e+03 1.0000000000000000e+00 2.7654324101239272e+01 1.9000000000000000e+01 8.7491589797731901e+00 
1440 1441 2 1.0280000002346743e+00 8.6216891460996726e+02 1.0000000000000000e+00 2.8975561789117791e+01 1.9000000000000000e+01 9.9546945224129342e+00 
1826 1827 2 1.0279999992032562e+00 -1.1017743957232897e+03 1.0000000000000000e+00 3.1361765771063126e+01 1.9000000000000000e+01 9.2609185941667640e+00 
1784 1785 2 1.0280000002746330e+00 1.5856268260203315e+03 1.0000000000000000e+00 3.2784367311945040e+01 1.9000000000000000e+01 9.7163009579243802e+00 
78 79 2 1.0279999999999820e+00 -1.2746058064477575e+03 1.0000000000000000e+00 1.4598453887368340e+01 1.0000000000000000e+01 1.1222548699214421e+01 
80 81 2 1.0279999999999994e+00 -8.1770173934876470e+02 1.0000000000000000e+00 1.8412894967324107e+01 1.0000000000000000e+01 1.1491950261170926e+01 
307 308 2 1.0279999981058807e+00 -9.7253448577004292e+02 1.0000000000000000e+00 2.5425390867023985e+01 1.0000000000000000e+01 1.0598547504494888e+01 
169 170 2 1.0280000037556873e+00 -1.0234216433822608e+03 1.0000000000000000e+00 2.7226680554422060e+01 1.0000000000000000e+01 1.1524723167536196e+01 
7 8 2 1.0279999910736590e+00 -7.2901382709524228e+02 1.0000000000000000e+00 2.9360929603298139e+01 1.0000000000000000e+01 1.1250313478408010e+01 
300 301 2 1.0280000038773427e+00 -1.9329634883424139e+03 1.0000000000000000e+00 3.2244681249516049e+01 1.0000000000000000e+01 1.0950144578676040e+01 
628 629 2 1.0279999997883349e+00 8.2591093650559469e+02 1.0000000000000000e+00 2.1337923474651131e+01 1.3000000000000000e+01 1.0872669781331338e+01 
552 553 2 1.0279999994043214e+00 -1.9841961787875871e+01 1.0000000000000000e+00 2.5459413493540840e+01 1.3000000000000000e+01 1.0298307923021389e+01 
478 479 2 1.0279999997886924e+00 -6.1761307766765663e+02 1.0000000000000000e+00 3.0064227361989229e+01 1.3000000000000000e+01 1.0558760379570492e+01 
603 604 2 1.0280000024111713e+00 -7.1773620584607716e+02 1.0000000000000000e+00 3.1636060080101018e+01 1.3000000000000000e+01 1.1577481382576913e+01 
482 483 2 1.0280000006196683e+00 -1.2466092759613343e+03 1.0000000000000000e+00 3.3173102957068267e+01 1.3000000000000000e+01 1.1400780468313092e+01 
1049 1050 2 1.0280000002982779e+00 -1.7036591724466041e+02 1.0000000000000000e+00 2.3790869161221774e+01 1.6000000000000000e+01 1.0379757847959182e+01 
1091 1092 2 1.0279999996920077e+00 -3.0614872894857615e+02 1.0000000000000000e+00 2.4620336590358988e+01 1.6000000000000000e+01 1.1417829048756037e+01 
1231 1232 2 1.0280000004018222e+00 -9.7241255551791824e+02 1.0000000000000000e+00 2.6559296116094799e+01 1.6000000000000000e+01 1.0809300785550889e+01 
976 977 2 1.0279999995251055e+00 -1.6588868097588925e+03 1.0000000000000000e+00 2.7869193760589109e+01 1.6000000000000000e+01 1.0381778664219183e+01 
941 942 2 1.0279999993830566e+00 1.8593779929615863e+02 1.0000000000000000e+00 2.9623244156442077e+01 1.6000000000000000e+01 1.1305461819967547e+01 
1360 1361 2 1.0280000012006973e+00 -6.3447789200369539e+02 1.0000000000000000e+00 3.0296778847950932e+01 1.6000000000000000e+01 1.0091395847909652e+01 
1805 1806 2 1.0280000000000002e+00 -2.0097268689837489e+02 1.0000000000000000e+00 4.3350053670407727e+00 1.9000000000000000e+01 1.0059970830714519e+01 
1828 1829 2 1.0280000000000000e+00 -2.6301917077299204e+03 1.0000000000000000e+00 1.4192980900800528e+01 1.9000000000000000e+01 1.0484570433215044e+01 
1791 1792 2 1.0280000000000000e+00 5.2269515203081380e+02 1.0000000000000000e+00 1.5237301444939630e+01 1.9000000000000000e+01 1.0018987338002439e+01 
1652 1653 2 1.0279999984150099e+00 6.8820034135511855e+02 1.0000000000000000e+00 2.3338229028549467e+01 1.9000000000000000e+01 1.0676919480052019e+01 
1522 1523 2 1.0279999992523912e+00 -1.1516249428324254e+03 1.0000000000000000e+00 2.7342345215765352e+01 1.9000000000000000e+01 1.0260445615494758e+01 
1402 1403 2 1.0279999984821098e+00 -6.1594743071773496e+02 1.0000000000000000e+00 2.9355821290378209e+01 1.9000000000000000e+01 1.1389663758909292e+01 
1403 1404 2 1.0280000012754784e+00 1.8524885617210793e+02 1.0000000000000000e+00 3.0642687412570520e+01 1.9000000000000000e+01 1.0554082864865252e+01 
122 123 2 1.0279999999999820e+00 1.3545933349999777e+02 1.0000000000000000e+00 1.3755700745583827e+01 1.0000000000000000e+01 1.1995297144357567e+01 
81 82 2 1.0279999999999994e+00 2.9754392864547907e+02 1.0000000000000000e+00 1.7660345855296494e+01 1.0000000000000000e+01 1.2352788719562044e+01 
87 88 2 1.0279999966462330e+00 -3.0270949673705502e+02 1.0000000000000000e+00 2.6357472764366751e+01 1.0000000000000000e+01 1.2315880004401112e+01 
48 49 2 1.0280000072886566e+00 1.4916352381636880e+03 1.0000000000000000e+00 2.9474275340777432e+01 1.0000000000000000e+01 1.2438040613628798e+01 
173 174 2 1.0279999993163382e+00 1.2744802540768183e+03 1.0000000000000000e+00 3.1236753164406380e+01 1.0000000000000000e+01 1.1781483410598184e+01 
382 383 2 1.0279999982697832e+00 2.8556321444094903e+02 1.0000000000000000e+00 3.2216184232105121e+01 1.0000000000000000e+01 1.3295807478848914e+01 
673 674 2 1.0280000000000000e+00 -5.3527172592345710e+02 1.0000000000000000e+00 5.7089832267861809e+00 1.3000000000000000e+01 1.2440934594901508e+01 
674 675 2 1.0280000000000000e+00 3.9805889093881888e+03 1.0000000000000000e+00 6.8470779019173387e+00 1.3000000000000000e+01 1.2550996068164615e+01 
466 467 2 1.0279999896412164e+00 -8.9248500931773378e+02 1.0000000000000000e+00 2.4181013100215850e+01 1.3000000000000000e+01 1.1764540119212720e+01 
886 887 2 1.0280000116987571e+00 -8.9348502622746832e+02 1.0000000000000000e+00 2.5222625896658723e+01 1.3000000000000000e+01 1.2313001471738843e+01 
922 923 2 1.0280000059100685e+00 -7.3234252708174631e+02 1.0000000000000000e+00 2.8182700968941589e+01 1.3000000000000000e+01 1.1778631820167451e+01 
834 835 2 1.0279999958229054e+00 -1.0259656987183680e+03 1.0000000000000000e+00 2.7274443737962979e+01 1.3000000000000000e+01 1.2497188170393310e+01 
481 482 2 1.0280000002192811e+00 -6.4801485836082611e+02 1.0000000000000000e+00 3.0233888827281188e+01 1.3000000000000000e+01 1.2110270217513500e+01 
607 608 2 1.0279999988735573e+00 -6.5798482085331648e+02 1.0000000000000000e+00 3.2553695808536752e+01 1.3000000000000000e+01 1.3194766563225784e+01 
1170 1171 2 1.0279999999999989e+00 -1.0328587523732295e+02 1.0000000000000000e+00 7.4646581112617341e+00 1.6000000000000000e+01 1.2442520195928179e+01 
1169 1170 2 1.0279999999999989e+00 1.9235259940652918e+03 1.0000000000000000e+00 8.5544833981649493e+00 1.6000000000000000e+01 1.2788430388731268e+01 
1055 1056 2 1.0279999997382958e+00 -5.9545287162959994e+02 1.0000000000000000e+00 2.3106712936604122e+01 1.6000000000000000e+01 1.2439201604486168e+01 
1353 1354 2 1.0279999995367732e+00 -1.0857119262946676e+03 1.0000000000000000e+00 2.6490594602604787e+01 1.6000000000000000e+01 1.2897188521868570e+01 
1270 1271 2 1.0280000012103523e+00 6.7807778011096434e+02 1.0000000000000000e+00 2.5264561345209817e+01 1.6000000000000000e+01 1.3307679052999566e+01 
1020 1021 2 1.0280000009721875e+00 3.1884779182825678e+03 1.0000000000000000e+00 2.7908603831146127e+01 1.6000000000000000e+01 1.1974919604163201e+01 