LAMMPS data file via write_data, version 30 Jul 2016, timestep = 50400000

3234 atoms
8 atom types

0.0000000000000000e+00 1.0000000000000000e+02 xlo xhi
0.0000000000000000e+00 4.0000000000000000e+01 ylo yhi
0.0000000000000000e+00 4.0000000000000000e+01 zlo zhi

Masses

1 3.896
2 5.36
3 20.064
4 8.378
5 8.378
6 8.378
7 8.378
8 8.378

Atoms # meso-molecular

45 46 2 1.0280000011195696e+00 -1.7514046767359008e+02 1.0000000000000000e+00 2.7389191681425398e+01 1.0000000000000000e+01 1.4231824512453721e+00 
13 14 2 1.0279999985284149e+00 1.1359812032647455e+03 1.0000000000000000e+00 2.9150147756197093e+01 1.0000000000000000e+01 1.3642284322405844e+00 
216 217 2 1.0280000008766566e+00 -8.5707052823240633e+02 1.0000000000000000e+00 3.0996578104506789e+01 1.0000000000000000e+01 6.2824534334251014e-01 
183 184 2 1.0279999985084940e+00 8.8843012529123030e+02 1.0000000000000000e+00 3.2311807350792272e+01 1.0000000000000000e+01 1.9033149075206562e-01 
841 842 2 1.0279999988603661e+00 -1.0583654553637521e+03 1.0000000000000000e+00 1.6607257127511179e+01 1.3000000000000000e+01 1.2707560300616991e+00 
799 800 2 1.0280000011678279e+00 -1.0128605366719540e+02 1.0000000000000000e+00 1.7680677524812950e+01 1.3000000000000000e+01 7.0936811958429780e-01 
545 546 2 1.0279999983568493e+00 -2.0591119579372133e+02 1.0000000000000000e+00 1.9590473872152330e+01 1.3000000000000000e+01 4.1004666530780870e-01 
714 715 2 1.0280000021900528e+00 -5.2375450587181592e+02 1.0000000000000000e+00 2.0516094129370146e+01 1.3000000000000000e+01 1.5675275431227187e+00 
590 591 2 1.0279999979704884e+00 -3.2075259373488302e+02 1.0000000000000000e+00 2.1880730744758914e+01 1.3000000000000000e+01 6.9793351611532672e-01 
589 590 2 1.0279999998520228e+00 -1.1902193648247539e+03 1.0000000000000000e+00 2.4755392578362482e+01 1.3000000000000000e+01 1.4608505931971354e+00 
769 770 2 1.0280000006945111e+00 -9.7218776846854712e+02 1.0000000000000000e+00 2.6290302390658873e+01 1.3000000000000000e+01 7.0805069464084813e-01 
901 902 2 1.0280000022800844e+00 -5.7532895244620568e+02 1.0000000000000000e+00 2.7772475838275145e+01 1.3000000000000000e+01 1.0304283363520887e+00 
900 901 2 1.0280000001436651e+00 -5.0626033014730115e+02 1.0000000000000000e+00 2.9167873788397735e+01 1.3000000000000000e+01 1.6083500537569120e+00 
857 858 2 1.0279999991835302e+00 1.3028264715156038e+03 1.0000000000000000e+00 2.9654914912859756e+01 1.3000000000000000e+01 2.4423481672830399e-01 
806 807 2 1.0280000044242872e+00 -3.9582765439884753e+02 1.0000000000000000e+00 3.1171663425643004e+01 1.3000000000000000e+01 5.9341404339806825e-01 
946 947 2 1.0280000000000000e+00 -2.6559170265768817e+03 1.0000000000000000e+00 1.9393539221829002e+01 1.6000000000000000e+01 5.9698200193523354e-01 
993 994 2 1.0280000000000000e+00 4.7350778974607510e+02 1.0000000000000000e+00 1.8716540679540252e+01 1.6000000000000000e+01 1.5184189184941745e+00 
1097 1098 2 1.0279999995014157e+00 1.2742251053705456e+03 1.0000000000000000e+00 2.7170024341088169e+01 1.6000000000000000e+01 1.7365766787650352e-01 
1357 1358 2 1.0280000002271641e+00 1.2045882040203351e+03 1.0000000000000000e+00 2.8480735084063724e+01 1.6000000000000000e+01 1.2783039045247189e+00 
1307 1308 2 1.0280000000508998e+00 -8.3472409894021621e+02 1.0000000000000000e+00 3.1252617820207512e+01 1.6000000000000000e+01 7.6783613689025365e-01 
1306 1307 2 1.0280000000884513e+00 2.8542037371926455e+02 1.0000000000000000e+00 3.2589733581166229e+01 1.6000000000000000e+01 5.2705225525436561e-01 
1732 1733 2 1.0279999994754558e+00 6.7706340479697451e+02 1.0000000000000000e+00 2.5848271295214150e+01 1.9000000000000000e+01 1.4197902260809363e+00 
1693 1694 2 1.0279999996390641e+00 -9.7227072942900350e+02 1.0000000000000000e+00 2.6679411367653604e+01 1.9000000000000000e+01 2.9198202861835787e-01 
1825 1826 2 1.0280000032784344e+00 -5.7591867490756522e+02 1.0000000000000000e+00 2.8346544326620528e+01 1.9000000000000000e+01 1.3827036316821650e+00 
1781 1782 2 1.0280000006746215e+00 1.3044596394496584e+03 1.0000000000000000e+00 2.9820821386831042e+01 1.9000000000000000e+01 9.9904925404144140e-01 
1780 1781 2 1.0280000002667184e+00 3.6352318145689281e+02 1.0000000000000000e+00 3.1064110478091678e+01 1.9000000000000000e+01 1.5932956635323594e+00 
208 209 2 1.0279999999999994e+00 3.5230610571125521e+02 1.0000000000000000e+00 5.9078215879020881e+00 1.0000000000000000e+01 2.2045315209866354e+00 
209 210 2 1.0279999999999994e+00 1.8415766286435036e+02 1.0000000000000000e+00 6.9339127387703945e+00 1.0000000000000000e+01 1.7000417118046287e+00 
246 247 2 1.0280000000000007e+00 -1.0345314717582519e+02 1.0000000000000000e+00 1.1321037084197949e+01 1.0000000000000000e+01 2.6437298947578372e+00 
245 246 2 1.0280000000000007e+00 1.9232014186064225e+03 1.0000000000000000e+00 1.2464375056674911e+01 1.0000000000000000e+01 2.6314295634205416e+00 
379 380 2 1.0280000000000005e+00 -1.0577626800544708e+03 1.0000000000000000e+00 2.2180521799523838e+01 1.0000000000000000e+01 1.6906646668906358e+00 
337 338 2 1.0280000000000005e+00 -1.0050722525870134e+02 1.0000000000000000e+00 2.3306006303466937e+01 1.0000000000000000e+01 1.8923020861428550e+00 
50 51 2 1.0279999992989626e+00 1.0179949722297937e+03 1.0000000000000000e+00 2.6293803700027233e+01 1.0000000000000000e+01 2.6613849650055239e+00 
2 3 2 1.0279999990184032e+00 -4.0285778866101862e+02 1.0000000000000000e+00 2.8014010219732381e+01 1.0000000000000000e+01 2.6670021797151948e+00 
390 391 2 1.0279999990463315e+00 8.9960859354071840e+02 1.0000000000000000e+00 3.1818254337809130e+01 1.0000000000000000e+01 2.1244330782736069e+00 
866 867 2 1.0280000000000007e+00 1.1573313931726789e+03 1.0000000000000000e+00 8.6360846837166818e+00 1.3000000000000000e+01 2.5866572908896264e+00 
530 531 2 1.0280000000000007e+00 1.1286664414795362e+03 1.0000000000000000e+00 9.6602076893295408e+00 1.3000000000000000e+01 2.0781840007029921e+00 
921 922 2 1.0280000006046228e+00 -8.9215517137784695e+02 1.0000000000000000e+00 1.7761078472119213e+01 1.3000000000000000e+01 2.6812796232987055e+00 
501 502 2 1.0279999999517784e+00 -8.9033430711285746e+02 1.0000000000000000e+00 1.8989237263078095e+01 1.3000000000000000e+01 2.5054281807394414e+00 
924 925 2 1.0279999977363203e+00 -1.3929128683719472e+02 1.0000000000000000e+00 2.1063649192359676e+01 1.3000000000000000e+01 3.3238155363928437e+00 
587 588 2 1.0279999993199078e+00 -1.7055963866675847e+02 1.0000000000000000e+00 2.4222541797845274e+01 1.3000000000000000e+01 2.7852850209228279e+00 
566 567 2 1.0279999988460999e+00 6.0378132455038781e+02 1.0000000000000000e+00 2.8196946216284207e+01 1.3000000000000000e+01 3.2593886843046160e+00 
856 857 2 1.0280000030968466e+00 3.6622971119377564e+02 1.0000000000000000e+00 3.1232925565930998e+01 1.3000000000000000e+01 2.3090156907619925e+00 
723 724 2 1.0280000000748841e+00 2.5071178167098578e+03 1.0000000000000000e+00 3.2980585894862607e+01 1.3000000000000000e+01 2.4675155481678197e+00 
1181 1182 2 1.0280000004984953e+00 1.1976154537321531e+03 1.0000000000000000e+00 2.6365129316379591e+01 1.6000000000000000e+01 1.7606734405770881e+00 
1219 1220 2 1.0279999996812899e+00 -1.2171264819221719e+03 1.0000000000000000e+00 2.6829353483256735e+01 1.6000000000000000e+01 2.9026062810298030e+00 
1190 1191 2 1.0279999998969558e+00 6.9470054082430624e+02 1.0000000000000000e+00 2.9747772427414251e+01 1.6000000000000000e+01 1.8747356493461913e+00 
1230 1231 2 1.0280000003058203e+00 -9.6110493188230521e+02 1.0000000000000000e+00 3.1332260086429386e+01 1.6000000000000000e+01 2.4028035645339627e+00 
1137 1138 2 1.0279999998563618e+00 1.3279547681367267e+03 1.0000000000000000e+00 3.2897463799857924e+01 1.6000000000000000e+01 2.5858586482595052e+00 
1555 1556 2 1.0280000000000000e+00 -1.0232652883363264e+03 1.0000000000000000e+00 1.6115663597852702e+01 1.9000000000000000e+01 2.2649905289601482e+00 
1473 1474 2 1.0280000000000000e+00 -3.0256787019920671e+02 1.0000000000000000e+00 1.5130028536519767e+01 1.9000000000000000e+01 2.8445563520811823e+00 
1509 1510 2 1.0279999999999991e+00 7.5542628281920770e+01 1.0000000000000000e+00 2.2665213879060161e+01 1.9000000000000000e+01 2.9038472351978157e+00 
1438 1439 2 1.0279999982946477e+00 -1.6581065403137618e+03 1.0000000000000000e+00 2.7206673365059231e+01 1.9000000000000000e+01 2.2098563254453127e+00 
1603 1604 2 1.0280000013680390e+00 -9.9311944641811692e+01 1.0000000000000000e+00 3.2382661341040510e+01 1.9000000000000000e+01 2.3562551362657307e+00 
338 339 2 1.0280000000000005e+00 -1.9584492640324999e+02 1.0000000000000000e+00 1.6908282669076488e+01 1.0000000000000000e+01 3.6234852891866924e+00 
296 297 2 1.0280000000000005e+00 -3.2234833864348980e+02 1.0000000000000000e+00 1.8023744307591446e+01 1.0000000000000000e+01 3.8747189462875355e+00 
51 52 2 1.0279999995867544e+00 9.8543264039192536e+01 1.0000000000000000e+00 2.6039390552670472e+01 1.0000000000000000e+01 4.0537242432986709e+00 
335 336 2 1.0279999995259541e+00 -3.0256480033657738e+02 1.0000000000000000e+00 2.7455036323088525e+01 1.0000000000000000e+01 4.6197411605496859e+00 
86 87 2 1.0280000020614593e+00 -1.9325029087829344e+02 1.0000000000000000e+00 2.9924242989611354e+01 1.0000000000000000e+01 4.1534855954977141e+00 
128 129 2 1.0279999976796084e+00 -3.2103901551107560e+02 1.0000000000000000e+00 3.1020939503546110e+01 1.0000000000000000e+01 4.7334154739609380e+00 
348 349 2 1.0280000002102585e+00 3.1455272708222064e+03 1.0000000000000000e+00 3.2253576354965674e+01 1.0000000000000000e+01 3.3342015199245290e+00 
670 671 2 1.0280000021344617e+00 3.5431332756869847e+02 1.0000000000000000e+00 1.9623625539214611e+01 1.3000000000000000e+01 4.5411401868768433e+00 
881 882 2 1.0280000034657506e+00 -2.0290091223131088e+02 1.0000000000000000e+00 2.1930867754487235e+01 1.3000000000000000e+01 4.2433939667851357e+00 
596 597 2 1.0280000010357497e+00 -6.6151982278457567e+01 1.0000000000000000e+00 2.3750941805619309e+01 1.3000000000000000e+01 4.3228364046124330e+00 
629 630 2 1.0280000007610361e+00 -3.0579663448703263e+02 1.0000000000000000e+00 2.5333731163783920e+01 1.3000000000000000e+01 4.1409111625711255e+00 
594 595 2 1.0280000035210639e+00 -1.9977763643708404e+03 1.0000000000000000e+00 2.6876588137587753e+01 1.3000000000000000e+01 3.7022738209059947e+00 
524 525 2 1.0280000044781255e+00 1.5047455715948672e+03 1.0000000000000000e+00 2.9463900906117871e+01 1.3000000000000000e+01 4.4185169591353217e+00 
899 900 2 1.0279999993942943e+00 1.9529424910953338e+02 1.0000000000000000e+00 3.0865245808240314e+01 1.3000000000000000e+01 3.6256450676778380e+00 
726 727 2 1.0280000014358672e+00 1.9049920562850900e+02 1.0000000000000000e+00 3.2745732314968912e+01 1.3000000000000000e+01 3.9267767950327226e+00 
1303 1304 2 1.0280000000000007e+00 -1.0581380549674582e+03 1.0000000000000000e+00 7.3099418303157364e+00 1.6000000000000000e+01 4.2235930290938342e+00 
1261 1262 2 1.0280000000000007e+00 -1.0095990617059317e+02 1.0000000000000000e+00 8.3013421689879898e+00 1.6000000000000000e+01 3.6539454310656510e+00 
1229 1230 2 1.0280000003197720e+00 -1.3262633749276515e+03 1.0000000000000000e+00 2.8540686466722118e+01 1.6000000000000000e+01 3.3450457145909813e+00 
1365 1366 2 1.0280000000519529e+00 -2.8632813793614168e+03 1.0000000000000000e+00 2.9972994981705860e+01 1.6000000000000000e+01 3.9875960414284464e+00 
945 946 2 1.0280000000628176e+00 -2.8368618852486616e+03 1.0000000000000000e+00 2.8663549681268506e+01 1.6000000000000000e+01 4.8710140916817428e+00 
1139 1140 2 1.0280000000875031e+00 -1.7421879385143307e+03 1.0000000000000000e+00 3.2360063868318903e+01 1.6000000000000000e+01 3.9029172210913345e+00 
1422 1423 2 1.0280000000000011e+00 -6.9371742278402098e+02 1.0000000000000000e+00 3.1746969315291236e+00 1.9000000000000000e+01 4.2169487145000364e+00 
1842 1843 2 1.0280000000000011e+00 -6.9197185297603141e+02 1.0000000000000000e+00 4.3010366133516627e+00 1.9000000000000000e+01 4.0201443989715449e+00 
1552 1553 2 1.0279999999999991e+00 8.2541525899796147e+02 1.0000000000000000e+00 2.2676861379837312e+01 1.9000000000000000e+01 4.0471920445988951e+00 
1774 1775 2 1.0279999970736755e+00 -1.6616480199741832e+03 1.0000000000000000e+00 2.8152421250822620e+01 1.9000000000000000e+01 3.9273754352411485e+00 
1819 1820 2 1.0280000015860469e+00 1.2061079502204930e+03 1.0000000000000000e+00 2.6808358960241353e+01 1.9000000000000000e+01 4.9848463203178026e+00 
1824 1825 2 1.0280000016435509e+00 -5.0509208228101215e+02 1.0000000000000000e+00 2.9441124887780319e+01 1.9000000000000000e+01 3.8464618076742436e+00 
1823 1824 2 1.0279999981273267e+00 1.9360468973582522e+02 1.0000000000000000e+00 3.1008488428289649e+01 1.9000000000000000e+01 4.3569798243272162e+00 
1730 1731 2 1.0280000006385406e+00 -3.9768725285770381e+02 1.0000000000000000e+00 3.2296795502144398e+01 1.9000000000000000e+01 4.2697329958586332e+00 
4 5 2 1.0279999991291915e+00 -8.9193854061694424e+02 1.0000000000000000e+00 2.6139651955912552e+01 1.0000000000000000e+01 6.0092342625999837e+00 
424 425 2 1.0280000017031556e+00 -8.9291580456840006e+02 1.0000000000000000e+00 2.7648687510693428e+01 1.0000000000000000e+01 6.4468376382994466e+00 
377 378 2 1.0279999987800341e+00 -1.6396170738394721e+02 1.0000000000000000e+00 2.8753969437743898e+01 1.0000000000000000e+01 5.4515929397402374e+00 
343 344 2 1.0279999991980215e+00 -1.0382973527610084e+03 1.0000000000000000e+00 3.0675373699337353e+01 1.0000000000000000e+01 6.6149042487883127e+00 
671 672 2 1.0279999981528019e+00 1.8489752670759867e+02 1.0000000000000000e+00 2.0453579976946699e+01 1.3000000000000000e+01 5.4079699209513876e+00 
597 598 2 1.0280000004053684e+00 -1.0116545143559082e+03 1.0000000000000000e+00 2.4651353835609079e+01 1.3000000000000000e+01 5.7091429296861671e+00 
514 515 2 1.0279999973978815e+00 -1.6585307598863769e+03 1.0000000000000000e+00 2.8127673452863217e+01 1.3000000000000000e+01 5.0459485129431840e+00 
558 559 2 1.0280000010428993e+00 3.1881085939277227e+03 1.0000000000000000e+00 2.6854144584396156e+01 1.3000000000000000e+01 6.2656196752422151e+00 
898 899 2 1.0280000020926809e+00 -6.3438749239179015e+02 1.0000000000000000e+00 3.0801493061335542e+01 1.3000000000000000e+01 5.9142832924541047e+00 
771 772 2 1.0280000014248389e+00 -7.7149464132058029e+02 1.0000000000000000e+00 3.2159916351628624e+01 1.3000000000000000e+01 5.5197827499591181e+00 
1362 1363 2 1.0280000000976810e+00 -5.0621140467723194e+02 1.0000000000000000e+00 2.9845177588479800e+01 1.6000000000000000e+01 6.5120630746075303e+00 
1363 1364 2 1.0280000001270864e+00 -5.7540341712057375e+02 1.0000000000000000e+00 2.8539930182964564e+01 1.6000000000000000e+01 6.5366826413417876e+00 
1319 1320 2 1.0280000000142970e+00 1.3028921118952430e+03 1.0000000000000000e+00 3.1187758012778311e+01 1.6000000000000000e+01 5.0645226278837221e+00 
1268 1269 2 1.0280000006410133e+00 -3.9608323889679684e+02 1.0000000000000000e+00 3.2421994172143492e+01 1.6000000000000000e+01 5.9562815633003829e+00 
1770 1771 2 1.0280000000000000e+00 1.4923354106250194e+03 1.0000000000000000e+00 1.8361569325645156e+01 1.9000000000000000e+01 6.2819284727283149e+00 
1815 1816 2 1.0279999977182599e+00 -1.0830680292097400e+03 1.0000000000000000e+00 2.5653837389625082e+01 1.9000000000000000e+01 5.4846004507384567e+00 
1650 1651 2 1.0280000013065607e+00 1.9024733440631135e+02 1.0000000000000000e+00 3.3097036162757419e+01 1.9000000000000000e+01 6.3300329288644885e+00 
83 84 2 1.0279999999999994e+00 -2.0676904978919566e+02 1.0000000000000000e+00 2.1303500593815290e+01 1.0000000000000000e+01 7.3013930719532603e+00 
252 253 2 1.0279999999999994e+00 -5.2529644024727600e+02 1.0000000000000000e+00 2.0735369025912767e+01 1.0000000000000000e+01 8.2936629641758177e+00 
374 375 2 1.0280000015618225e+00 1.4613831834980607e+02 1.0000000000000000e+00 2.5064710738835139e+01 1.0000000000000000e+01 7.1019174280691493e+00 
414 415 2 1.0279999981990213e+00 -1.2708048567393425e+03 1.0000000000000000e+00 2.6350980495622142e+01 1.0000000000000000e+01 7.7972972919734715e+00 
423 424 2 1.0280000002006264e+00 -7.1785733238498415e+02 1.0000000000000000e+00 3.0011961343516546e+01 1.0000000000000000e+01 7.5987262559074225e+00 
878 879 2 1.0280000000000000e+00 -8.0729337124622066e+02 1.0000000000000000e+00 1.1485399454527347e+01 1.3000000000000000e+01 7.7852755919665348e+00 
879 880 2 1.0280000000000000e+00 2.9895815092417467e+02 1.0000000000000000e+00 1.2621096236304350e+01 1.3000000000000000e+01 7.9178117655950881e+00 
846 847 2 1.0280000021842324e+00 1.4932603701500348e+03 1.0000000000000000e+00 2.1224784386892249e+01 1.3000000000000000e+01 7.5199983218821034e+00 
889 890 2 1.0279999978588699e+00 -7.2542961195520706e+02 1.0000000000000000e+00 2.0143173694712978e+01 1.3000000000000000e+01 7.9345999108353444e+00 
923 924 2 1.0279999998525964e+00 -3.9966410661543841e+02 1.0000000000000000e+00 2.3631315843181056e+01 1.3000000000000000e+01 7.2132352803435733e+00 
852 853 2 1.0280000004778096e+00 9.0094832220255694e+02 1.0000000000000000e+00 2.5586143920120826e+01 1.3000000000000000e+01 6.9013036658578288e+00 
850 851 2 1.0280000016542441e+00 -1.6630633447921177e+03 1.0000000000000000e+00 2.8353890503259496e+01 1.3000000000000000e+01 6.8664097590166273e+00 
479 480 2 1.0280000000465830e+00 1.8617818492500510e+02 1.0000000000000000e+00 2.9734261063931591e+01 1.3000000000000000e+01 6.9881691876333960e+00 
971 972 2 1.0280000003253915e+00 -8.2926155278597457e+02 1.0000000000000000e+00 2.4623483695972009e+01 1.6000000000000000e+01 8.3212197812499547e+00 
970 971 2 1.0279999996631113e+00 2.8128279400994126e+02 1.0000000000000000e+00 2.5901494157347518e+01 1.6000000000000000e+01 8.0632424868693704e+00 
1318 1319 2 1.0279999998934948e+00 3.6641304044042147e+02 1.0000000000000000e+00 3.1437986269475143e+01 1.6000000000000000e+01 7.3012306340976822e+00 
1848 1849 2 1.0280000000000005e+00 -1.3874517677522857e+02 1.0000000000000000e+00 3.0362424811342392e+00 1.9000000000000000e+01 7.1919761728439635e+00 
1805 1806 2 1.0280000000000005e+00 -2.0097268689837489e+02 1.0000000000000000e+00 4.1555977664438206e+00 1.9000000000000000e+01 7.4252501806293250e+00 
1828 1829 2 1.0279999999999985e+00 -2.6301917077299204e+03 1.0000000000000000e+00 1.4888786342864130e+01 1.9000000000000000e+01 8.1704431568770239e+00 
1791 1792 2 1.0279999999999985e+00 5.2269515203081380e+02 1.0000000000000000e+00 1.5933106887003232e+01 1.9000000000000000e+01 7.7048600616644105e+00 
1813 1814 2 1.0280000000000000e+00 -7.2609140494214876e+02 1.0000000000000000e+00 1.8554208960308458e+01 1.9000000000000000e+01 7.4089879159767760e+00 
1520 1521 2 1.0280000004772429e+00 -6.7046873277315285e+01 1.0000000000000000e+00 2.2990831652716448e+01 1.9000000000000000e+01 7.2989433986545604e+00 
1676 1677 2 1.0280000000423033e+00 1.2418474160123260e+03 1.0000000000000000e+00 2.4841280014521892e+01 1.9000000000000000e+01 6.9894255835081847e+00 
1717 1718 2 1.0279999987272264e+00 -2.0206184319178160e+03 1.0000000000000000e+00 2.5374677074006762e+01 1.9000000000000000e+01 8.1942052490459059e+00 
1482 1483 2 1.0280000007647920e+00 3.1869749132222742e+03 1.0000000000000000e+00 2.7837516300874164e+01 1.9000000000000000e+01 7.3406495850482845e+00 
1490 1491 2 1.0279999996276665e+00 6.0548326952269531e+02 1.0000000000000000e+00 2.8964465125788443e+01 1.9000000000000000e+01 6.8129934656725464e+00 
1822 1823 2 1.0280000015960533e+00 -6.3495098690280406e+02 1.0000000000000000e+00 3.0894837174104445e+01 1.9000000000000000e+01 7.1870580530034136e+00 
1448 1449 2 1.0279999986098214e+00 1.5054000845388659e+03 1.0000000000000000e+00 3.0128715335128827e+01 1.9000000000000000e+01 8.2068824895618189e+00 
1695 1696 2 1.0279999989374964e+00 -7.7175090483612394e+02 1.0000000000000000e+00 3.2598039941940854e+01 1.9000000000000000e+01 7.5460024751431334e+00 
78 79 2 1.0280000000000005e+00 -1.2746058064477575e+03 1.0000000000000000e+00 1.4201057395831981e+01 1.0000000000000000e+01 8.5517280622070118e+00 
122 123 2 1.0280000000000005e+00 1.3545933349999777e+02 1.0000000000000000e+00 1.3358304254047514e+01 1.0000000000000000e+01 9.3244765073501572e+00 
47 48 2 1.0279999995894062e+00 -8.2926494579524638e+02 1.0000000000000000e+00 2.4620372432026837e+01 1.0000000000000000e+01 8.8532265391036287e+00 
46 47 2 1.0280000013084380e+00 2.8081824223546164e+02 1.0000000000000000e+00 2.6114916137682631e+01 1.0000000000000000e+01 9.4494610427412749e+00 
43 44 2 1.0280000005167484e+00 -1.0652891832775467e+03 1.0000000000000000e+00 2.8079384889937209e+01 1.0000000000000000e+01 9.7529606148353345e+00 
85 86 2 1.0279999985889892e+00 -1.0803039344904178e+02 1.0000000000000000e+00 2.8341063216786530e+01 1.0000000000000000e+01 8.5966386244848287e+00 
340 341 2 1.0279999972652238e+00 2.9338126880300649e+01 1.0000000000000000e+00 3.1094187305893545e+01 1.0000000000000000e+01 9.4107496443215553e+00 
297 298 2 1.0280000019952207e+00 7.0988278162731012e+02 1.0000000000000000e+00 3.2172183607466167e+01 1.0000000000000000e+01 8.9626346671140045e+00 
586 587 2 1.0279999999962068e+00 -3.3106568770149636e+02 1.0000000000000000e+00 2.0314649609379995e+01 1.3000000000000000e+01 9.9961390753203734e+00 
880 881 2 1.0280000012548678e+00 -1.9334951805352807e+02 1.0000000000000000e+00 2.3271725447348686e+01 1.3000000000000000e+01 8.4013034822113255e+00 
585 586 2 1.0280000006365824e+00 7.7574664877320998e+01 1.0000000000000000e+00 2.1739277817416532e+01 1.3000000000000000e+01 9.5538954419488498e+00 
593 594 2 1.0280000020659146e+00 -5.9553938720879319e+02 1.0000000000000000e+00 2.4873404909910949e+01 1.3000000000000000e+01 9.3602222467675578e+00 
810 811 2 1.0279999913226114e+00 3.1464314365411919e+03 1.0000000000000000e+00 2.7178446832237267e+01 1.3000000000000000e+01 8.8639075848520559e+00 
516 517 2 1.0280000092844452e+00 8.6441705990292007e+02 1.0000000000000000e+00 2.8160534382957042e+01 1.3000000000000000e+01 9.4524855707483866e+00 
902 903 2 1.0279999988426012e+00 -1.1018817295403469e+03 1.0000000000000000e+00 3.0951794909445510e+01 1.3000000000000000e+01 9.5483606115647959e+00 
860 861 2 1.0279999984383583e+00 1.5859573177701072e+03 1.0000000000000000e+00 3.2321189453582647e+01 1.3000000000000000e+01 8.9805551950788391e+00 
1228 1229 2 1.0279999999997944e+00 -1.1720471889453879e+03 1.0000000000000000e+00 2.5238245671916619e+01 1.6000000000000000e+01 9.8288878932547732e+00 
1028 1029 2 1.0280000002441891e+00 6.0387837697353825e+02 1.0000000000000000e+00 2.7602730371391438e+01 1.6000000000000000e+01 8.3404572414760185e+00 
986 987 2 1.0279999997488274e+00 1.5046894155203890e+03 1.0000000000000000e+00 2.8833871334656113e+01 1.6000000000000000e+01 8.6761705108785954e+00 
1361 1362 2 1.0280000003822305e+00 1.9540144997719352e+02 1.0000000000000000e+00 3.0544093012702412e+01 1.6000000000000000e+01 8.3829895449170575e+00 
1188 1189 2 1.0280000003727756e+00 1.9051379755047122e+02 1.0000000000000000e+00 3.3083738642480910e+01 1.6000000000000000e+01 8.9781737968074644e+00 
1233 1234 2 1.0279999995986719e+00 -7.7145495281338185e+02 1.0000000000000000e+00 3.1834454002548348e+01 1.6000000000000000e+01 9.7208936377568538e+00 
1521 1522 2 1.0279999992912816e+00 -1.0128033761246734e+03 1.0000000000000000e+00 2.3212315196572987e+01 1.9000000000000000e+01 8.4726457279282510e+00 
1399 1400 2 1.0279999999415110e+00 1.1360634521759191e+03 1.0000000000000000e+00 2.6141814252702677e+01 1.9000000000000000e+01 9.6166325915942803e+00 
1691 1692 2 1.0280000007777517e+00 -1.3257800190649618e+03 1.0000000000000000e+00 2.7658097090749145e+01 1.9000000000000000e+01 9.0706058536526903e+00 
1826 1827 2 1.0279999997538989e+00 -1.1017743957232897e+03 1.0000000000000000e+00 3.1365368815854975e+01 1.9000000000000000e+01 9.5826613008764401e+00 
304 305 2 1.0280000006180290e+00 -1.1718176012848917e+03 1.0000000000000000e+00 2.4066736402053845e+01 1.0000000000000000e+01 1.0183197074424180e+01 
307 308 2 1.0279999986354231e+00 -9.7253448577004292e+02 1.0000000000000000e+00 2.5394681755358423e+01 1.0000000000000000e+01 1.0789662064693625e+01 
7 8 2 1.0279999964443227e+00 -7.2901382709524228e+02 1.0000000000000000e+00 2.9330953635389587e+01 1.0000000000000000e+01 1.1441787891088703e+01 
300 301 2 1.0280000011710568e+00 -1.9329634883048852e+03 1.0000000000000000e+00 3.2214743148592362e+01 1.0000000000000000e+01 1.1141418614600369e+01 
628 629 2 1.0279999996169602e+00 8.2591093650559469e+02 1.0000000000000000e+00 2.1347877582820193e+01 1.3000000000000000e+01 1.0973518646560914e+01 
552 553 2 1.0279999997755398e+00 -1.9841961803602285e+01 1.0000000000000000e+00 2.5468894562097837e+01 1.3000000000000000e+01 1.0398984166956646e+01 
478 479 2 1.0279999994040030e+00 -6.1761307766765663e+02 1.0000000000000000e+00 3.0072470115904117e+01 1.3000000000000000e+01 1.0658148714551190e+01 
482 483 2 1.0280000007550996e+00 -1.2466092759613343e+03 1.0000000000000000e+00 3.3181135680728829e+01 1.3000000000000000e+01 1.1500219355237814e+01 
1049 1050 2 1.0280000000190317e+00 -1.7036591724466041e+02 1.0000000000000000e+00 2.3789746225298003e+01 1.6000000000000000e+01 1.0504905238309791e+01 
1091 1092 2 1.0280000000056786e+00 -3.0614872894857615e+02 1.0000000000000000e+00 2.4619201774809699e+01 1.6000000000000000e+01 1.1542972838579248e+01 
1231 1232 2 1.0280000002156944e+00 -9.7241255551791824e+02 1.0000000000000000e+00 2.6558163104160489e+01 1.6000000000000000e+01 1.0934478936529077e+01 
976 977 2 1.0279999997525660e+00 -1.6588868097588925e+03 1.0000000000000000e+00 2.7868070115129683e+01 1.6000000000000000e+01 1.0506983895570441e+01 
941 942 2 1.0279999994312641e+00 1.8593779929615863e+02 1.0000000000000000e+00 2.9622028088991875e+01 1.6000000000000000e+01 1.1430740084926262e+01 
1360 1361 2 1.0280000003183936e+00 -6.3447789200369539e+02 1.0000000000000000e+00 3.0295600315481934e+01 1.6000000000000000e+01 1.0216733031336908e+01 
1680 1681 2 1.0280000000000000e+00 -9.9907162593596809e+02 1.0000000000000000e+00 1.5947876051524243e+00 1.9000000000000000e+01 1.1268992017307909e+01 
1692 1693 2 1.0280000002848599e+00 -9.5789470999380728e+02 1.0000000000000000e+00 2.4170167144645209e+01 1.9000000000000000e+01 1.0121278533059376e+01 
1652 1653 2 1.0279999993656543e+00 6.8820034135511855e+02 1.0000000000000000e+00 2.3342324029765972e+01 1.9000000000000000e+01 1.0998328735223389e+01 
1522 1523 2 1.0279999995996072e+00 -1.1516249428324254e+03 1.0000000000000000e+00 2.7346095348028186e+01 1.9000000000000000e+01 1.0581910366836160e+01 
1440 1441 2 1.0280000000806064e+00 8.6216891460996726e+02 1.0000000000000000e+00 2.8979245108387911e+01 1.9000000000000000e+01 1.0276398685485720e+01 
1403 1404 2 1.0280000005937182e+00 1.8524885617210793e+02 1.0000000000000000e+00 3.0646333703501838e+01 1.9000000000000000e+01 1.0875867974478764e+01 
1784 1785 2 1.0279999998607543e+00 1.5856268260203315e+03 1.0000000000000000e+00 3.2787909639401441e+01 1.9000000000000000e+01 1.0038229470851018e+01 
369 370 2 1.0280000000000000e+00 7.3497699514127135e+02 1.0000000000000000e+00 1.4062907529502525e+01 1.0000000000000000e+01 1.2639299663044440e+01 
454 455 2 1.0280000000000000e+00 -9.2930650066392582e+02 1.0000000000000000e+00 1.5035288375252053e+01 1.0000000000000000e+01 1.3240838114249492e+01 
81 82 2 1.0279999999999994e+00 2.9754392864547907e+02 1.0000000000000000e+00 1.8143625011368098e+01 1.0000000000000000e+01 1.2997965831652822e+01 
80 81 2 1.0279999999999994e+00 -8.1770173934876470e+02 1.0000000000000000e+00 1.8896174123395710e+01 1.0000000000000000e+01 1.2137127373261704e+01 
87 88 2 1.0280000048190630e+00 -3.0270949673705502e+02 1.0000000000000000e+00 2.6327225890874804e+01 1.0000000000000000e+01 1.2506879334819368e+01 
169 170 2 1.0279999943324223e+00 -1.0234216433822608e+03 1.0000000000000000e+00 2.7196379419098086e+01 1.0000000000000000e+01 1.1715699617763503e+01 
48 49 2 1.0280000030540402e+00 1.4916352381636880e+03 1.0000000000000000e+00 2.9444233364959210e+01 1.0000000000000000e+01 1.2629421680800430e+01 
173 174 2 1.0279999975348695e+00 1.2744802541025549e+03 1.0000000000000000e+00 3.1207026307612885e+01 1.0000000000000000e+01 1.1972697753054319e+01 
673 674 2 1.0280000000000000e+00 -5.3527162605771082e+02 1.0000000000000000e+00 5.4688298381462435e+00 1.3000000000000000e+01 1.2115287733853274e+01 
674 675 2 1.0280000000000000e+00 3.9805889704229003e+03 1.0000000000000000e+00 6.6057656401042797e+00 1.3000000000000000e+01 1.2236737310570435e+01 
874 875 2 1.0279999999999978e+00 1.1182676482291546e+02 1.0000000000000000e+00 1.3522029867471465e+01 1.3000000000000000e+01 1.3062616730983034e+01 
466 467 2 1.0279999865126144e+00 -8.9248500931773378e+02 1.0000000000000000e+00 2.4190696305424755e+01 1.3000000000000000e+01 1.1864960420331069e+01 
886 887 2 1.0280000151404216e+00 -8.9348502622746832e+02 1.0000000000000000e+00 2.5232160375336200e+01 1.3000000000000000e+01 1.2413854677550999e+01 
922 923 2 1.0280000087379255e+00 -7.3234252708174631e+02 1.0000000000000000e+00 2.8191411380016618e+01 1.3000000000000000e+01 1.1878838207630190e+01 
834 835 2 1.0279999937299857e+00 -1.0259656987183680e+03 1.0000000000000000e+00 2.7283238817250687e+01 1.3000000000000000e+01 1.2597652785507215e+01 
603 604 2 1.0280000040922930e+00 -7.1773620584607716e+02 1.0000000000000000e+00 3.1644091766661241e+01 1.3000000000000000e+01 1.1676878435833068e+01 
481 482 2 1.0279999996558429e+00 -6.4801485833702463e+02 1.0000000000000000e+00 3.0241833958075901e+01 1.3000000000000000e+01 1.2209752695840649e+01 
607 608 2 1.0279999980955155e+00 -6.5798482085331648e+02 1.0000000000000000e+00 3.2561444349239849e+01 1.3000000000000000e+01 1.3294235292611598e+01 
1170 1171 2 1.0279999999999989e+00 -1.0328587523732295e+02 1.0000000000000000e+00 7.0707039704857024e+00 1.6000000000000000e+01 1.2215979854953044e+01 
1169 1170 2 1.0279999999999989e+00 1.9235259940652918e+03 1.0000000000000000e+00 8.1605292573889177e+00 1.6000000000000000e+01 1.2561890047756133e+01 
1055 1056 2 1.0279999998201685e+00 -5.9545287162959994e+02 1.0000000000000000e+00 2.3105564338757940e+01 1.6000000000000000e+01 1.2564341477430416e+01 