LAMMPS data file via write_data, version 30 Jul 2016, timestep = 50400000

1520 atoms
8 atom types

0.0000000000000000e+00 4.0000000000000000e+01 xlo xhi
0.0000000000000000e+00 4.0000000000000000e+01 ylo yhi
0.0000000000000000e+00 1.0000000000000000e+02 zlo zhi

Masses

1 3.896
2 5.36
3 20.064
4 8.378
5 8.378
6 8.378
7 8.378
8 8.378

Atoms # meso-molecular

182 183 2 1.0280000000001053e+00 -1.5854582583728024e+03 1.0000000000000000e+00 5.0022123903128257e-01 7.4807980240094732e-02 9.3990608569222922e-01 
517 518 2 1.0280000000000753e+00 6.8009764692328554e+02 1.0000000000000000e+00 5.2367732836031522e-01 2.5090782203778678e-01 1.0444078689691643e+00 
573 574 2 1.0280000000000871e+00 -3.4923886102437564e+03 1.0000000000000000e+00 1.0016581238261175e+00 3.6191127346586860e-01 1.6298968413786810e+00 
339 340 2 1.0279999999999179e+00 3.5863629814776268e+03 1.0000000000000000e+00 1.1126940483926020e+00 4.7109442636100535e-01 2.1921301234798607e+00 
1072 1073 2 1.0279999999998606e+00 5.2112730294161356e+03 1.0000000000000000e+00 8.1753434625955190e-01 6.0174375213583575e-01 2.6474278669373299e+00 
496 497 2 1.0279999999997769e+00 -4.6608481137122599e+03 1.0000000000000000e+00 2.9731563248077073e+00 4.7380749415550077e-01 1.1132937668431781e+01 
1472 1473 2 1.0279999999998417e+00 -3.1407876732395844e+03 1.0000000000000000e+00 2.7257987409871012e+00 4.5468643054709457e-01 1.1206454538497010e+01 
322 323 2 1.0279999999999061e+00 3.2856278799564443e+03 1.0000000000000000e+00 2.9511120509807127e+00 9.7579368056142080e-01 1.1846491692314705e+01 
384 385 2 1.0279999999999885e+00 -8.9096993952423472e+03 1.0000000000000000e+00 2.7801365164173686e+00 1.2044597329899316e+00 1.1927826811095041e+01 
287 288 2 1.0279999999997746e+00 -5.6019925258050462e+03 1.0000000000000000e+00 3.2387481074059625e+00 7.9832606478134349e-01 1.2006031599247120e+01 
1007 1008 2 1.0280000000000356e+00 3.8888616785136173e+03 1.0000000000000000e+00 7.4980205846845982e-01 2.1593128741145784e+00 1.2150413627411696e+01 
523 524 2 1.0280000000000218e+00 7.5572795968706632e+03 1.0000000000000000e+00 2.6303232603007665e+00 1.6837592082022284e+00 1.2170945424091180e+01 
775 776 2 1.0279999999999556e+00 -1.7872686094533697e+02 1.0000000000000000e+00 6.9054211256203057e-01 3.0388318189904400e+00 1.2478781006955051e+01 
399 400 2 1.0279999999999183e+00 -2.3722201586412857e+03 1.0000000000000000e+00 5.0994434363931940e-01 3.0161275965163785e+00 1.2524199873790970e+01 
774 775 2 1.0279999999999152e+00 -1.8095629915848929e+02 1.0000000000000000e+00 4.3948667754545745e-01 2.9615701012093507e+00 1.2526162865436943e+01 
398 399 2 1.0279999999999170e+00 -2.3662901522327184e+03 1.0000000000000000e+00 6.0063647171550971e-01 3.1902114462446680e+00 1.2618237798609934e+01 
475 476 2 1.0279999999999589e+00 -1.7594029022566674e+03 1.0000000000000000e+00 2.6567900199495553e+00 2.0246473099007130e+00 1.2660940796319030e+01 
848 849 2 1.0279999999999698e+00 -3.9145741895249585e+03 1.0000000000000000e+00 1.4237149952800032e+00 2.9161230795509954e+00 1.4629392877456379e+01 
223 224 2 1.0280000000000187e+00 -3.9157840278501118e+02 1.0000000000000000e+00 1.9587502199856819e+00 2.5032989890831003e+00 1.4630582739201433e+01 
1036 1037 2 1.0280000000007492e+00 -2.2696540207608095e+03 1.0000000000000000e+00 1.8445343080180479e+00 2.4138450754940339e+00 1.4921205304272682e+01 
1266 1267 2 1.0280000000000566e+00 -3.9624572821752945e+03 1.0000000000000000e+00 3.2634121310828443e+00 2.0603260749305634e+00 1.5127657577766811e+01 
578 579 2 1.0280000000000467e+00 -3.1150832266228542e+02 1.0000000000000000e+00 5.3181937552581182e+00 1.3537734552611685e-01 1.3523333528165638e+01 
1005 1006 2 1.0280000000000444e+00 -7.9564665979181314e+02 1.0000000000000000e+00 5.6936859799070385e+00 1.2737831708491292e+00 1.4494058869974346e+01 
780 781 2 1.0279999999999807e+00 -4.3090709620529105e+03 1.0000000000000000e+00 5.7272855506754681e+00 1.3029917404312272e+00 1.4544004851613101e+01 
527 528 2 1.0279999999999763e+00 3.6253331795418626e+03 1.0000000000000000e+00 5.5554218767347265e+00 1.5072486549239550e+00 1.4599215256498981e+01 
762 763 2 1.0280000000000735e+00 1.9968247485932638e+03 1.0000000000000000e+00 5.6937042676333647e+00 1.4878875267313683e+00 1.4684889940493989e+01 
1143 1144 2 1.0280000000000467e+00 7.1972288206184121e+03 1.0000000000000000e+00 5.3747413344520751e+00 1.9451062270048567e+00 1.4966484435417852e+01 
277 278 2 1.0280000000000646e+00 -4.6708714401716372e+02 1.0000000000000000e+00 4.1833783840187335e+00 2.1620369211031218e+00 1.5142023628621052e+01 
644 645 2 1.0279999999998750e+00 3.7157949169862850e+03 1.0000000000000000e+00 1.2266136479730636e+00 3.3962939718991700e+00 1.3742999291474689e+01 
27 28 2 1.0279999999995308e+00 -4.1946026397949336e+03 1.0000000000000000e+00 2.6264897697057541e+00 7.0399180525117988e-01 1.5494085196382187e+01 
1006 1007 2 1.0279999999997107e+00 3.8846186832716112e+03 1.0000000000000000e+00 3.2253643035100016e-01 2.5914679992733074e+00 1.6203584552416320e+01 
1104 1105 2 1.0280000000024132e+00 4.2715149238161148e+03 1.0000000000000000e+00 1.4534411470911892e+00 6.8655978439410320e-02 1.6372607357203435e+01 
1174 1175 2 1.0279999999993044e+00 9.9634445471475865e+03 1.0000000000000000e+00 3.1863335320907953e+00 1.1935961997116797e+00 1.6437837551330333e+01 
270 271 2 1.0280000000001830e+00 -5.1240869285136487e+03 1.0000000000000000e+00 2.6021350056602652e+00 2.9941220196335738e+00 1.6743250591297741e+01 
817 818 2 1.0279999999984841e+00 2.3247726601648542e+03 1.0000000000000000e+00 1.3899791395864376e+00 9.5710934395154601e-01 1.7093851740772049e+01 
652 653 2 1.0279999999994680e+00 -2.3088606496548600e+03 1.0000000000000000e+00 2.2133175957262591e-01 7.5906349009514451e-01 1.8160387011653185e+01 
349 350 2 1.0280000000001324e+00 -2.8700041620914344e+03 1.0000000000000000e+00 5.0898509902738489e+00 2.3379920608065694e+00 1.5631937781524821e+01 
626 627 2 1.0279999999999991e+00 1.1312238646215751e+03 1.0000000000000000e+00 6.5015180662643468e+00 2.8625964948485367e+00 1.7282146874603285e+01 
430 431 2 1.0280000000001075e+00 -3.8560956526579212e+03 1.0000000000000000e+00 6.3268028387385291e+00 3.0539966269954464e+00 1.7469917306133375e+01 
113 114 2 1.0280000000008755e+00 -1.6059415860772606e+02 1.0000000000000000e+00 5.2715891197056530e+00 5.5526810924749814e-01 1.7764008725390159e+01 
618 619 2 1.0280000000005074e+00 -1.0321356375259033e+03 1.0000000000000000e+00 5.2814438999909470e+00 3.4737276310396326e-01 1.8043215139071705e+01 
1220 1221 2 1.0280000000001774e+00 3.8164386621478616e+03 1.0000000000000000e+00 4.5267681008780949e+00 1.6038922241369782e+00 1.8057510062678414e+01 
209 210 2 1.0279999999999834e+00 6.8603132816640082e+03 1.0000000000000000e+00 9.3091224518900813e+00 1.1184091493973769e+00 1.6991339711414906e+01 
990 991 2 1.0280000000000180e+00 8.0595338663557832e+03 1.0000000000000000e+00 9.8053217549489204e+00 1.6757097720788021e+00 1.7097710496458326e+01 
1356 1357 2 1.0279999999999634e+00 5.1314267407144498e+03 1.0000000000000000e+00 9.7988176473191722e+00 1.8131076332738643e+00 1.7186392246518761e+01 
330 331 2 1.0279999999996270e+00 -3.9395646820220782e+03 1.0000000000000000e+00 9.1836755903714504e+00 1.8812822213793541e+00 1.7315820619128989e+01 
1171 1172 2 1.0279999999998028e+00 4.6806739724979989e+03 1.0000000000000000e+00 6.9436412343572416e+00 2.8356311933581240e+00 1.7432954675019911e+01 
525 526 2 1.0279999999997755e+00 -1.0534066914176892e+03 1.0000000000000000e+00 9.5181866781726416e+00 2.1263457627497426e+00 1.7644008856868354e+01 
537 538 2 1.0279999999999518e+00 -9.9980007262880258e+02 1.0000000000000000e+00 6.8274605793054581e+00 3.1063561986774424e+00 1.7719686142809771e+01 
1062 1063 2 1.0279999999998846e+00 -5.4446304224499036e+03 1.0000000000000000e+00 1.0484937573298984e+01 1.8318100267619948e+00 1.7351238439041648e+01 
806 807 2 1.0279999999999889e+00 6.5125211821172607e+03 1.0000000000000000e+00 1.0425698622465921e+01 2.1181292823270206e+00 1.7819645466986540e+01 
263 264 2 1.0279999999999561e+00 7.3330749292668406e+03 1.0000000000000000e+00 1.6384926357248255e+00 3.8240839623288685e+00 1.7440621812101156e+01 
1071 1072 2 1.0279999999998626e+00 -2.4649498778477182e+03 1.0000000000000000e+00 1.4924025876843829e+00 3.9159382430616274e+00 1.7719086681020862e+01 
636 637 2 1.0279999999997071e+00 -2.7429944330339958e+03 1.0000000000000000e+00 1.4171887318981393e+00 3.8758700664781358e+00 1.7725308549712757e+01 
1161 1162 2 1.0279999999999945e+00 -2.9092548274449646e+03 1.0000000000000000e+00 1.5780850406661071e+00 3.9556382655381590e+00 1.7734389071283889e+01 
782 783 2 1.0279999999998892e+00 6.6776782373328260e+03 1.0000000000000000e+00 1.4125344061966205e+00 3.9191528415406998e+00 1.7847518735298792e+01 
1232 1233 2 1.0279999999999856e+00 5.0950707746383905e+03 1.0000000000000000e+00 6.4488188037014975e+00 3.4160934394194080e+00 1.8133682148842940e+01 
1282 1283 2 1.0280000000000189e+00 -9.8546817083905921e+02 1.0000000000000000e+00 1.1401135143271283e-02 8.1559346158874355e+00 1.8068543152094623e+01 
649 650 2 1.0280000000000797e+00 -2.3054371648492197e+03 1.0000000000000000e+00 3.5973491167424931e-01 6.9939016315429658e-01 1.8313051495478433e+01 
24 25 2 1.0280000000002074e+00 1.1169862605793526e+03 1.0000000000000000e+00 3.7613323932464793e-01 6.8787395988984767e-01 1.8344205981095161e+01 
1468 1469 2 1.0280000000007601e+00 4.1933437521304754e+01 1.0000000000000000e+00 1.8037303330968191e+00 7.5818187031105200e-01 1.9592500055426427e+01 
1181 1182 2 1.0280000000020468e+00 -6.8429843327317485e+03 1.0000000000000000e+00 1.8930409978432901e+00 1.1677456967640580e+00 1.9670388233294545e+01 
1147 1148 2 1.0279999999988592e+00 5.3719364000127998e+03 1.0000000000000000e+00 2.2586315617178032e+00 1.4673611354338141e+00 2.0569176385617531e+01 
1115 1116 2 1.0279999999993283e+00 -8.6717229394064532e+01 1.0000000000000000e+00 1.6909067676530327e+00 1.6411055584775238e+00 2.1200525258710083e+01 
107 108 2 1.0279999999993199e+00 -2.0522875102209391e+03 1.0000000000000000e+00 4.3808491275307802e+00 1.9818391701447020e+00 1.8284180592213978e+01 
356 357 2 1.0280000000001801e+00 -5.1173973673856017e+03 1.0000000000000000e+00 3.6286397382473763e+00 3.2485854415026250e+00 1.8594442519420390e+01 
1252 1253 2 1.0279999999994915e+00 6.1235805232297098e+03 1.0000000000000000e+00 3.7687057370366381e+00 3.0554559506275809e+00 1.9698072276960097e+01 
797 798 2 1.0280000000000415e+00 -5.4204784769288935e+01 1.0000000000000000e+00 4.2526670901012089e+00 6.2310993183238843e-02 1.9798637655170495e+01 
679 680 2 1.0279999999999176e+00 -1.6960183585572468e+03 1.0000000000000000e+00 6.6012566800863750e+00 1.2886359519971241e-01 1.9936327103656875e+01 
674 675 2 1.0279999999999296e+00 -3.5018710604026783e+03 1.0000000000000000e+00 6.6044486343340845e+00 1.3771420348922150e-01 1.9953862564966549e+01 
37 38 2 1.0279999999989728e+00 -2.0854394375414728e+02 1.0000000000000000e+00 4.6372627559872379e+00 8.9017843513456252e-01 2.0321398463260184e+01 
914 915 2 1.0280000000006444e+00 -5.3740459786827869e+03 1.0000000000000000e+00 7.8633061532179314e+00 1.9113645255248890e+00 1.9176548809983206e+01 
409 410 2 1.0280000000008798e+00 -2.8698085692280692e+03 1.0000000000000000e+00 7.6463132231117905e+00 2.2329511457156670e+00 1.9580422758405611e+01 
1461 1462 2 1.0280000000008889e+00 -2.1848616127489304e+03 1.0000000000000000e+00 7.5807773050865821e+00 2.0469467338572764e+00 1.9656207507213480e+01 
99 100 2 1.0279999999967164e+00 -3.5051849438582340e+03 1.0000000000000000e+00 6.8206366897179542e+00 2.9539221881148809e+00 2.0294852822448782e+01 
575 576 2 1.0279999999998335e+00 3.6559038760666988e+02 1.0000000000000000e+00 1.1997891809465953e+01 1.6054056071667637e+00 1.8607849374586017e+01 
613 614 2 1.0279999999999516e+00 -8.4703684652893971e+03 1.0000000000000000e+00 1.2086292025547190e+01 1.3340355973858893e+00 1.8664815537694739e+01 
986 987 2 1.0279999999999478e+00 8.0624696098869372e+03 1.0000000000000000e+00 1.2219317098990945e+01 1.2159610732868613e+00 1.8737972476706457e+01 
781 782 2 1.0280000000001059e+00 -6.4573683482071319e+03 1.0000000000000000e+00 1.1958184187281377e+01 2.0089209237424073e+00 1.9434251550061468e+01 
753 754 2 1.0280000000000777e+00 -8.4833407886636451e+03 1.0000000000000000e+00 1.3407094886384682e+01 5.3428901344347224e-01 1.9220400500617647e+01 
131 132 2 1.0280000000000276e+00 -3.8641090788929178e+03 1.0000000000000000e+00 1.4034486446463729e+01 5.8205483642038247e-01 1.9490075523028384e+01 
110 111 2 1.0280000000001503e+00 -6.5682507899366828e+03 1.0000000000000000e+00 1.3349749851344823e+01 3.2849435193184409e+00 1.9983976364259362e+01 
811 812 2 1.0280000000001479e+00 -2.4254436761013330e+03 1.0000000000000000e+00 1.3391637134652779e+01 3.1779326782499253e+00 1.9995860517489781e+01 
283 284 2 1.0279999999999498e+00 -9.0007914346395301e+03 1.0000000000000000e+00 1.4287968694883128e+01 8.3984717840456635e-01 2.0443812274278688e+01 
137 138 2 1.0279999999998570e+00 8.2847027347637941e+03 1.0000000000000000e+00 1.4359589179181308e+01 6.7411975159625181e-01 2.0456502007653370e+01 
866 867 2 1.0279999999998390e+00 6.5587623524839328e+03 1.0000000000000000e+00 1.4277240142072804e+01 7.4520825786304246e-01 2.0503828229748695e+01 
285 286 2 1.0279999999998284e+00 -3.3470217688539624e+03 1.0000000000000000e+00 1.4308389736325649e+01 5.3291250250795419e-01 2.0575911623756244e+01 
169 170 2 1.0279999999998533e+00 -3.3053832442572129e+03 1.0000000000000000e+00 1.4257169381166056e+01 5.4500816489870840e-01 2.0602028154077935e+01 
1037 1038 2 1.0279999999999945e+00 -2.8564307784853645e+03 1.0000000000000000e+00 1.9145903754449922e+01 2.9595180426139964e+00 2.1112135836729667e+01 
395 396 2 1.0280000000005027e+00 6.9745652200896729e+03 1.0000000000000000e+00 2.4351008501836588e+00 4.2290400160668833e+00 1.8434024047696376e+01 
1050 1051 2 1.0280000000000233e+00 9.7852073553667594e+01 1.0000000000000000e+00 6.6462594046015455e-02 5.4482453009739054e+00 1.9257778189329141e+01 
1429 1430 2 1.0280000000013967e+00 -4.3171557146788628e+03 1.0000000000000000e+00 2.2136694511604720e+00 6.5518687942002387e+00 1.9986737709564931e+01 
586 587 2 1.0279999999980598e+00 5.2391862128455705e+03 1.0000000000000000e+00 2.3109119569834276e+00 5.8276969244839529e+00 2.0013169777199689e+01 
1457 1458 2 1.0280000000012348e+00 -4.4213083251223543e+03 1.0000000000000000e+00 7.7500064568106519e-01 6.2664561070390921e+00 2.0788150129555554e+01 
1202 1203 2 1.0280000000009475e+00 1.3833563613765673e+03 1.0000000000000000e+00 1.3872336889884991e+00 6.2567129325179200e+00 2.1188878847710761e+01 
1343 1344 2 1.0280000000000360e+00 -1.7344686985653793e+03 1.0000000000000000e+00 6.1772090403922846e+00 3.5275796614011035e+00 1.8277930883915076e+01 
603 604 2 1.0280000000000122e+00 5.5172924992465232e+02 1.0000000000000000e+00 3.6949619811234489e+00 3.4512846869353124e+00 2.0076136784470538e+01 
1074 1075 2 1.0279999999998888e+00 3.6059992498667480e+03 1.0000000000000000e+00 5.5500939744506743e+00 5.8486563952545900e+00 2.0084701123990854e+01 
88 89 2 1.0280000000038900e+00 -2.4863257052891977e+03 1.0000000000000000e+00 5.1980586596612719e+00 4.4897181488657942e+00 2.0117389134499390e+01 
604 605 2 1.0279999999982783e+00 3.6722030661717463e+03 1.0000000000000000e+00 4.8215422090428817e+00 5.2583839196144719e+00 2.0278218205164553e+01 
1216 1217 2 1.0279999999974732e+00 8.3781466028579707e+03 1.0000000000000000e+00 4.9708195604212708e+00 4.8944657620063117e+00 2.0291967023925633e+01 
10 11 2 1.0280000000001044e+00 -3.3287667071028927e+03 1.0000000000000000e+00 3.5926058875538485e+00 3.9269319960201901e+00 2.0364548238965746e+01 
1223 1224 2 1.0280000000000440e+00 -7.3338398010934025e+03 1.0000000000000000e+00 5.2105526781266622e+00 5.1984180584746866e+00 2.1106602974471048e+01 
336 337 2 1.0279999999999931e+00 -4.1491056340638033e+03 1.0000000000000000e+00 9.9812016077203740e+00 5.7154091067315118e+00 1.9840203681802830e+01 
1290 1291 2 1.0279999999984513e+00 -2.7107427142338520e+03 1.0000000000000000e+00 8.7434819304105407e+00 5.9635908992327611e+00 2.0360739562644287e+01 
1278 1279 2 1.0279999999995344e+00 -4.5996898843863091e+03 1.0000000000000000e+00 7.7585390956520834e+00 6.6650620832445524e+00 2.0678237433049418e+01 
1208 1209 2 1.0280000000004004e+00 7.7460431409537305e+03 1.0000000000000000e+00 8.8484013124528449e+00 4.5468904651540756e+00 2.0943028263004031e+01 
432 433 2 1.0280000000006395e+00 -5.3415874709757427e+03 1.0000000000000000e+00 8.8586111687104676e+00 4.5943497690918376e+00 2.0997196939516080e+01 
300 301 2 1.0279999999996541e+00 3.3738978026827144e+03 1.0000000000000000e+00 1.2601376905754480e+01 3.7458537738945994e+00 1.9360744879673717e+01 
326 327 2 1.0279999999996274e+00 4.5921675680253638e+03 1.0000000000000000e+00 1.2432073513295800e+01 4.1077283536630436e+00 1.9362386952138721e+01 
483 484 2 1.0280000000000866e+00 -5.4692312039921649e+02 1.0000000000000000e+00 1.1236529164686479e+01 5.7133579662069085e+00 1.9608880919105534e+01 
6 7 2 1.0280000000001268e+00 -1.5935785705227627e+03 1.0000000000000000e+00 1.0439345481893440e+01 5.6610804108946882e+00 1.9722404458659806e+01 
1022 1023 2 1.0280000000000502e+00 7.0656696165199110e+03 1.0000000000000000e+00 1.0131837572519402e+01 5.6930526876527487e+00 1.9796701722201423e+01 
863 864 2 1.0279999999998846e+00 -2.3868940846280238e+03 1.0000000000000000e+00 1.3268657061322481e+01 3.6632968435997744e+00 1.9991394369116936e+01 
428 429 2 1.0280000000002296e+00 -4.1412103466180542e+03 1.0000000000000000e+00 1.0133194641415621e+01 4.6164112344976527e+00 2.0173181162900605e+01 
954 955 2 1.0279999999999334e+00 7.1551017387177853e+03 1.0000000000000000e+00 1.2502082014525143e+01 3.7801178988140394e+00 2.0373796096751956e+01 
1306 1307 2 1.0280000000002774e+00 -4.5816296325810854e+03 1.0000000000000000e+00 1.1006990579549971e+01 5.1950922101556580e+00 2.0756950505165381e+01 
42 43 2 1.0279999999998306e+00 -6.4958000960668014e+03 1.0000000000000000e+00 1.3702460776015302e+01 5.1669638988274000e+00 2.0558522388391850e+01 
175 176 2 1.0279999999997809e+00 -8.9333754719897588e+03 1.0000000000000000e+00 1.4258030286934165e+01 5.8869915534700725e+00 2.0566807518499754e+01 
916 917 2 1.0280000000000973e+00 8.1782114522463980e+03 1.0000000000000000e+00 1.4186468117103601e+01 5.7205806664472707e+00 2.0828742686602215e+01 
108 109 2 1.0279999999997693e+00 5.0676376567144075e+02 1.0000000000000000e+00 1.2051114033540580e+00 7.9420544830623099e+00 1.8236598321808565e+01 
844 845 2 1.0279999999990952e+00 -6.3016294849140340e+03 1.0000000000000000e+00 1.1267572523206482e+00 6.7617949870403447e+00 1.8392664783150661e+01 
907 908 2 1.0279999999997416e+00 -4.4184337562270593e+03 1.0000000000000000e+00 1.9629341031614764e+00 8.7745019914589690e+00 1.8797188605001590e+01 
621 622 2 1.0280000000000888e+00 -9.3125758665231683e+02 1.0000000000000000e+00 3.0507096125997721e+00 8.0692210882241806e+00 1.9029037726101848e+01 
1492 1493 2 1.0279999999998914e+00 2.5777849001891250e+03 1.0000000000000000e+00 1.5137645316531418e+00 9.1761974085248461e+00 1.9042268344814048e+01 
933 934 2 1.0279999999997822e+00 -3.8513270902810918e+03 1.0000000000000000e+00 3.2886318052560206e+00 7.3161466381117570e+00 1.9454668838349669e+01 
1380 1381 2 1.0279999999999765e+00 1.3603915409059031e+04 1.0000000000000000e+00 1.3786179264090483e+00 9.8276651707037583e+00 2.0180042056611516e+01 
657 658 2 1.0280000000001739e+00 -3.9888684573854962e+03 1.0000000000000000e+00 3.4541188385278612e+00 8.5911050082301816e+00 1.9343720286169837e+01 
1477 1478 2 1.0280000000000407e+00 -2.4979143521126589e+03 1.0000000000000000e+00 3.5354850298550624e+00 7.6168370528816514e+00 1.9407340380304976e+01 
950 951 2 1.0280000000000338e+00 2.1231466364023568e+03 1.0000000000000000e+00 4.4250358770198757e+00 8.2532597934911713e+00 1.9826007400023080e+01 
617 618 2 1.0279999999996297e+00 2.7270475665427798e+03 1.0000000000000000e+00 5.1653770089142990e+00 8.2848392736873073e+00 2.0189375338065719e+01 
1076 1077 2 1.0279999999998786e+00 7.7363019365809760e+03 1.0000000000000000e+00 6.5382720030634793e+00 7.9401849711554737e+00 2.0739130410417104e+01 
559 560 2 1.0279999999996339e+00 2.7642352862540556e+03 1.0000000000000000e+00 3.9475594429794261e+00 9.0895184271701304e+00 2.1108861500578818e+01 
136 137 2 1.0279999999996672e+00 -4.2151404440955230e+02 1.0000000000000000e+00 3.8990578270371095e+00 9.1810768491391563e+00 2.1129547117165799e+01 
1243 1244 2 1.0279999999997860e+00 -1.6702498050873110e+03 1.0000000000000000e+00 7.2996419895039413e+00 7.2394905722321345e+00 2.0709742249469272e+01 
393 394 2 1.0279999999998031e+00 -4.5935027608807104e+03 1.0000000000000000e+00 7.0241078630474947e+00 7.5464045950320946e+00 2.0734661088077921e+01 
332 333 2 1.0279999999998815e+00 -5.3546676752098610e+03 1.0000000000000000e+00 6.9691128315714463e+00 7.6099278380694706e+00 2.0762596857038414e+01 
1274 1275 2 1.0279999999998022e+00 -1.0707884850255952e+04 1.0000000000000000e+00 6.6748704127972012e+00 7.8535014197484854e+00 2.0765021128731554e+01 
1294 1295 2 1.0280000000002818e+00 -2.7595297742584980e+03 1.0000000000000000e+00 1.2295934226358222e+01 6.8963153667041084e+00 2.0153818470377882e+01 
160 161 2 1.0280000000002478e+00 3.3869192494466870e+03 1.0000000000000000e+00 1.2308758612350374e+01 6.9541002628560458e+00 2.0171272544332481e+01 
491 492 2 1.0280000000000977e+00 3.6528371534948246e+02 1.0000000000000000e+00 1.2357348110012136e+01 7.2105940787893772e+00 2.0228475627842506e+01 
1040 1041 2 1.0279999999998952e+00 -2.9355153308575900e+03 1.0000000000000000e+00 1.2402867683708125e+01 9.1261161727459719e+00 2.0658524288622605e+01 
1491 1492 2 1.0279999999999416e+00 -5.8222789333491244e+02 1.0000000000000000e+00 1.2400173943806568e+01 9.1598401201653292e+00 2.0664811085628205e+01 
146 147 2 1.0279999999998839e+00 -1.4987102723475659e+03 1.0000000000000000e+00 1.2398050939487304e+01 9.1815139354453947e+00 2.0669376408909958e+01 
685 686 2 1.0279999999999245e+00 -7.1084274277370696e+03 1.0000000000000000e+00 1.2343646096840390e+01 9.5731343146022034e+00 2.0737031528556198e+01 
940 941 2 1.0279999999997860e+00 -2.8242391583776744e+03 1.0000000000000000e+00 1.2271657450619454e+01 9.8550964421372367e+00 2.0778465751814178e+01 
1393 1394 2 1.0280000000000917e+00 7.6179586095772702e+03 1.0000000000000000e+00 1.4452939585336967e+01 8.6779077762820815e+00 2.1083554131562458e+01 
295 296 2 1.0280000000000133e+00 -3.7391324105565477e+03 1.0000000000000000e+00 1.4891020114333257e+01 8.2942602767706948e+00 2.1113575436944682e+01 
163 164 2 1.0279999999999729e+00 -3.7278540290593774e+03 1.0000000000000000e+00 1.4809667670738913e+01 8.3747110009241883e+00 2.1200506804031754e+01 
792 793 2 1.0280000000000911e+00 -7.5824570015997119e+02 1.0000000000000000e+00 1.3460333526189487e+00 1.0079241631888722e+01 2.0182778088555821e+01 
1225 1226 2 1.0280000000001672e+00 -6.1556363012913189e+03 1.0000000000000000e+00 3.0265818005999940e+00 1.0635401773116735e+01 2.0739188930289494e+01 
343 344 2 1.0279999999996721e+00 1.1029222295686577e+03 1.0000000000000000e+00 5.4741955083849003e-01 1.1247425095533865e+01 2.0773767986952514e+01 
664 665 2 1.0279999999998761e+00 4.4975580880675934e+03 1.0000000000000000e+00 2.8124525971376946e-01 1.1419910689734806e+01 2.0901462469886603e+01 
190 191 2 1.0280000000001139e+00 -5.0296879595142491e+03 1.0000000000000000e+00 5.6031616674379940e-02 1.2350431486719776e+01 2.1188206271478268e+01 
1194 1195 2 1.0280000000004219e+00 4.7336087743945573e+03 1.0000000000000000e+00 1.1929055171473818e+01 1.1472292442051621e+01 2.1003537393903525e+01 
608 609 2 1.0280000000004565e+00 8.2522131529513554e+03 1.0000000000000000e+00 1.1895435230865449e+01 1.1539707420579401e+01 2.1007753564933999e+01 
1239 1240 2 1.0279999999991478e+00 -9.0241992286053282e+03 1.0000000000000000e+00 1.1602245817640327e+01 1.1953785376477578e+01 2.1015423221494309e+01 
25 26 2 1.0279999999991334e+00 7.6550373894653167e+03 1.0000000000000000e+00 1.1599912613688460e+01 1.1951605922822619e+01 2.1015536264601167e+01 
460 461 2 1.0280000000005216e+00 8.2314779377185332e+03 1.0000000000000000e+00 1.1760655814821762e+01 1.1781245207259772e+01 2.1021265177125660e+01 
654 655 2 1.0279999999998906e+00 6.5395392911024064e+03 1.0000000000000000e+00 1.1632180462961529e+01 1.1950214076663672e+01 2.1023131659911527e+01 
737 738 2 1.0280000000001217e+00 -6.4344144597296363e+03 1.0000000000000000e+00 1.0770223035208073e+01 1.3885372781222564e+01 2.1190986431806355e+01 
375 376 2 1.0279999999999700e+00 5.3836757484793616e+03 1.0000000000000000e+00 1.0055902925999651e+00 1.0997402445792559e+00 2.1569509768405545e+01 
1500 1501 2 1.0280000000001208e+00 1.0742746731390930e+03 1.0000000000000000e+00 7.1553655931847959e-01 5.7157183187614324e-01 2.1615736967101594e+01 
52 53 2 1.0280000000004308e+00 -3.1569182535962200e+03 1.0000000000000000e+00 4.5972350242072552e-01 5.1639183133465205e-01 2.1809792961818719e+01 
362 363 2 1.0279999999997551e+00 -2.3679175002248885e+03 1.0000000000000000e+00 1.2860079834340625e+00 3.0678683634688491e+00 2.2188254542997260e+01 
899 900 2 1.0279999999986609e+00 -2.1303777713439041e+02 1.0000000000000000e+00 2.7188170859245891e-01 2.9697538151637541e+00 2.4236983866273565e+01 
554 555 2 1.0280000000010474e+00 2.2365259712238230e+03 1.0000000000000000e+00 6.4737993888105194e+00 1.2400461475229676e+00 2.1220517125482104e+01 
1519 1520 2 1.0280000000002600e+00 -1.1721259854518008e+04 1.0000000000000000e+00 4.5434279821830703e+00 2.5337240151002771e-01 2.2491275075287763e+01 
691 692 2 1.0279999999995983e+00 -1.6894401488260110e+03 1.0000000000000000e+00 6.1953050077472795e+00 1.2660251744680955e+00 2.2612922275980850e+01 
563 564 2 1.0280000000000420e+00 4.1463061335195989e+03 1.0000000000000000e+00 5.9848896476093918e+00 1.0392342864738966e+00 2.2934570444141585e+01 
1010 1011 2 1.0280000000016576e+00 2.2491870009353024e+03 1.0000000000000000e+00 5.5170991910610105e+00 5.6220483615069006e-01 2.3954087745595981e+01 
1495 1496 2 1.0279999999990221e+00 -4.1909472269492144e+03 1.0000000000000000e+00 4.0411017164813918e+00 5.3505182878215951e-01 2.4210498146587092e+01 
1111 1112 2 1.0280000000004870e+00 4.6701736150779925e+03 1.0000000000000000e+00 7.4271622863535756e+00 2.2151434800844081e+00 2.1496617543073363e+01 
55 56 2 1.0280000000005545e+00 -3.5682766189668591e+03 1.0000000000000000e+00 8.0459127794359322e+00 2.6735964498757747e+00 2.2265538222119378e+01 
1425 1426 2 1.0279999999998473e+00 -2.0536763821599498e+03 1.0000000000000000e+00 8.0594547483766892e+00 2.0316533264637693e+00 2.2868104675176927e+01 
1418 1419 2 1.0280000000005709e+00 2.5890700220448457e+03 1.0000000000000000e+00 9.2607346332797356e+00 8.3905728753169012e-02 2.3106351139914331e+01 
145 146 2 1.0280000000003551e+00 -6.4649952709573627e+03 1.0000000000000000e+00 8.8242821324007146e+00 3.8995114214462134e-01 2.3274773559133727e+01 
1363 1364 2 1.0279999999997540e+00 -7.3603107796339355e+03 1.0000000000000000e+00 7.6639691140849457e+00 2.7391341487307375e+00 2.3778564164041242e+01 
68 69 2 1.0279999999998699e+00 -2.5243656666100892e+03 1.0000000000000000e+00 7.3556658115869382e+00 3.2748151006506712e+00 2.3904301004930549e+01 
464 465 2 1.0280000000002059e+00 3.7239183559627509e+03 1.0000000000000000e+00 7.0511661683115570e+00 3.2915028193833256e+00 2.4033775831183743e+01 
1451 1452 2 1.0279999999995337e+00 -5.9948105909846890e+03 1.0000000000000000e+00 7.2943515987201870e+00 5.6599356798216660e-01 2.4089709941358102e+01 
140 141 2 1.0280000000000988e+00 8.2347792812232874e+03 1.0000000000000000e+00 1.8368722201497690e+01 1.4220122127536123e+00 2.1635598680163298e+01 
1396 1397 2 1.0280000000001870e+00 7.6845164457297469e+03 1.0000000000000000e+00 1.8364533904227805e+01 1.3735429052332635e+00 2.1665817385323543e+01 
810 811 2 1.0279999999997615e+00 -2.3267729421255422e+03 1.0000000000000000e+00 1.8313632014482241e+01 3.3027029651083617e+00 2.1682611511890382e+01 
128 129 2 1.0279999999998739e+00 7.7448729058206918e+03 1.0000000000000000e+00 1.8493547205151565e+01 2.6168130274791337e+00 2.1689689849755112e+01 
174 175 2 1.0279999999999681e+00 -8.9451510710043585e+03 1.0000000000000000e+00 1.8525480127821496e+01 1.8715575239512268e+00 2.1696305832116671e+01 
1398 1399 2 1.0279999999999359e+00 -4.6935514851988921e+02 1.0000000000000000e+00 1.8425176346772552e+01 3.0077867665555802e+00 2.1774571994149973e+01 
599 600 2 1.0280000000013814e+00 2.4202303088392810e+03 1.0000000000000000e+00 1.6967467931881834e+00 3.5771527237483243e+00 2.1222085418284276e+01 
1117 1118 2 1.0279999999989131e+00 -2.8077541738729606e+03 1.0000000000000000e+00 1.6139094734949875e+00 3.5534975665524784e+00 2.1502256196412947e+01 
736 737 2 1.0279999999987455e+00 -2.7555679011263883e+03 1.0000000000000000e+00 1.5957919206836104e+00 3.5393461913592970e+00 2.1507609272109935e+01 
1520 1521 2 1.0279999999997216e+00 -7.2833293511577949e+03 1.0000000000000000e+00 1.7970178943516806e+00 5.5833377872334458e+00 2.2307682471732392e+01 
348 349 2 1.0280000000000742e+00 -3.1675061439942529e+03 1.0000000000000000e+00 1.3320626382702228e+00 6.2274292371259419e+00 2.2441635079321973e+01 
48 49 2 1.0279999999998468e+00 5.2394970219144420e+02 1.0000000000000000e+00 1.4688702838103247e+00 5.9031400786948636e+00 2.2910924426140440e+01 
1372 1373 2 1.0280000000003604e+00 -7.3066598059671251e+03 1.0000000000000000e+00 9.5250638128073528e-01 4.8829848592746101e+00 2.3558665062425394e+01 
1211 1212 2 1.0280000000004459e+00 -2.5610792493538975e+03 1.0000000000000000e+00 8.7031597542647998e-01 4.2401747968627168e+00 2.3597539152010889e+01 
1078 1079 2 1.0280000000009235e+00 1.4572376328514283e+03 1.0000000000000000e+00 1.1610347587661558e+00 6.4118261377460914e+00 2.3799789134512139e+01 
1506 1507 2 1.0279999999999476e+00 -5.5166398629919586e+03 1.0000000000000000e+00 5.5126651186184557e+00 5.0997345384895674e+00 2.1487092525756800e+01 