LAMMPS data file via write_data, version 30 Jul 2016, timestep = 50000000

1520 atoms
8 atom types

0.0000000000000000e+00 4.0000000000000000e+01 xlo xhi
0.0000000000000000e+00 4.0000000000000000e+01 ylo yhi
0.0000000000000000e+00 1.0000000000000000e+02 zlo zhi

Masses

1 3.896
2 5.36
3 20.064
4 8.378
5 8.378
6 8.378
7 8.378
8 8.378

Atoms # meso-molecular

182 183 2 1.0279999999998379e+00 -1.5854582583728024e+03 1.0000000000000000e+00 5.0022127760460655e-01 7.4810287259488684e-02 2.9091503624115060e+00 
517 518 2 1.0279999999998770e+00 6.8009764692328554e+02 1.0000000000000000e+00 5.2367736677282872e-01 2.5091012824667547e-01 3.0136521460352563e+00 
573 574 2 1.0280000000000060e+00 -3.4923886102437564e+03 1.0000000000000000e+00 1.0016581628045513e+00 3.6191357664757323e-01 3.5991411188348064e+00 
339 340 2 1.0280000000000042e+00 3.5863629814776268e+03 1.0000000000000000e+00 1.1126940873382352e+00 4.7109672706584566e-01 4.1613744020622692e+00 
1072 1073 2 1.0280000000000429e+00 5.2112730294161356e+03 1.0000000000000000e+00 8.1753438417548929e-01 6.0174605083941546e-01 4.6166721466169349e+00 
496 497 2 1.0279999999995262e+00 -4.6608481137122599e+03 1.0000000000000000e+00 2.9731563498275899e+00 4.7380955666972979e-01 1.3102181995336077e+01 
1472 1473 2 1.0279999999996554e+00 -3.1407876732395844e+03 1.0000000000000000e+00 2.7257987589672923e+00 4.5468848138066131e-01 1.3175698872736035e+01 
322 323 2 1.0279999999998104e+00 3.2856278799564443e+03 1.0000000000000000e+00 2.9511120811864475e+00 9.7579572088649569e-01 1.3815736057472407e+01 
384 385 2 1.0279999999998637e+00 -8.9096993952423472e+03 1.0000000000000000e+00 2.7801365441667762e+00 1.2044617710838170e+00 1.3897071183784213e+01 
287 288 2 1.0279999999997949e+00 -5.6019925258050462e+03 1.0000000000000000e+00 3.2387481405638647e+00 7.9832810185213554e-01 1.3975275965478108e+01 
1007 1008 2 1.0279999999998732e+00 3.8888616785136173e+03 1.0000000000000000e+00 7.4980208305331875e-01 2.1593148929708121e+00 1.4119658021137623e+01 
523 524 2 1.0280000000000498e+00 7.5572795968706632e+03 1.0000000000000000e+00 2.6303232886910712e+00 1.6837612454484021e+00 1.4140189810157215e+01 
775 776 2 1.0279999999998639e+00 -1.7872686094533697e+02 1.0000000000000000e+00 6.9054214289538673e-01 3.0388338365923078e+00 1.4448025413370383e+01 
399 400 2 1.0279999999998606e+00 -2.3722201586412857e+03 1.0000000000000000e+00 5.0994437183937502e-01 3.0161296120613934e+00 1.4493444280148092e+01 
774 775 2 1.0279999999998433e+00 -1.8095629915848929e+02 1.0000000000000000e+00 4.3948670449876520e-01 2.9615721159190440e+00 1.4495407271011736e+01 
398 399 2 1.0279999999998897e+00 -2.3662901522327184e+03 1.0000000000000000e+00 6.0063650247134037e-01 3.1902134609813473e+00 1.4587482208954905e+01 
475 476 2 1.0280000000000056e+00 -1.7594029022566674e+03 1.0000000000000000e+00 2.6567900494715073e+00 2.0246493412088702e+00 1.4630185195766778e+01 
848 849 2 1.0280000000000857e+00 -3.9145741895249585e+03 1.0000000000000000e+00 1.4237150271162309e+00 2.9161250297488794e+00 1.6598637283920937e+01 
223 224 2 1.0280000000000982e+00 -3.9157840278501118e+02 1.0000000000000000e+00 1.9587502435729520e+00 2.5033009512189999e+00 1.6599827141829756e+01 
1036 1037 2 1.0280000000008858e+00 -2.2696540207608095e+03 1.0000000000000000e+00 1.8445343237665965e+00 2.4138470182315772e+00 1.6890449693205213e+01 
1266 1267 2 1.0280000000000538e+00 -3.9624572821752945e+03 1.0000000000000000e+00 3.2634121397384628e+00 2.0603280369173507e+00 1.7096901964404932e+01 
27 28 2 1.0279999999994112e+00 -4.1946026397949336e+03 1.0000000000000000e+00 2.6264897751710294e+00 7.0399375221132721e-01 1.7463329573329059e+01 
1006 1007 2 1.0279999999996885e+00 3.8846186832716112e+03 1.0000000000000000e+00 3.2253645772027512e-01 2.5914698980541866e+00 1.8172828974438918e+01 
578 579 2 1.0279999999994192e+00 -3.1150832266228542e+02 1.0000000000000000e+00 5.3181937695516268e+00 1.3537934504896626e-01 1.5492577872948468e+01 
1005 1006 2 1.0279999999997347e+00 -7.9564665979181314e+02 1.0000000000000000e+00 5.6936859948984955e+00 1.2737851559911693e+00 1.6463303246402823e+01 
780 781 2 1.0279999999998126e+00 -4.3090709620529105e+03 1.0000000000000000e+00 5.7272855655196517e+00 1.3029937245980829e+00 1.6513249229638667e+01 
527 528 2 1.0279999999998621e+00 3.6253331795418626e+03 1.0000000000000000e+00 5.5554218878570856e+00 1.5072506364948572e+00 1.6568459640277919e+01 
762 763 2 1.0279999999998650e+00 1.9968247485932638e+03 1.0000000000000000e+00 5.6937042794434189e+00 1.4878895068965354e+00 1.6654134324995738e+01 
1143 1144 2 1.0280000000000908e+00 7.1972288206184121e+03 1.0000000000000000e+00 5.3747413396711439e+00 1.9451081918390054e+00 1.6935728832437494e+01 
277 278 2 1.0280000000000649e+00 -4.6708714401716372e+02 1.0000000000000000e+00 4.1833783916250358e+00 2.1620388747852006e+00 1.7111268022949140e+01 
349 350 2 1.0280000000001341e+00 -2.8700041620914344e+03 1.0000000000000000e+00 5.0898509964876357e+00 2.3379939947789676e+00 1.7601182184011876e+01 
644 645 2 1.0279999999999923e+00 3.7157949169862850e+03 1.0000000000000000e+00 1.2266136864237998e+00 3.3962959567536326e+00 1.5712243715369688e+01 
1104 1105 2 1.0280000000025284e+00 4.2715149238161148e+03 1.0000000000000000e+00 1.4534411771534288e+00 6.8657876018115738e-02 1.8341851763475745e+01 
1174 1175 2 1.0279999999993856e+00 9.9634445471475865e+03 1.0000000000000000e+00 3.1863335472732150e+00 1.1935981158708049e+00 1.8407081960739927e+01 
270 271 2 1.0279999999999938e+00 -5.1240869285136487e+03 1.0000000000000000e+00 2.6021350240419294e+00 2.9941238995580917e+00 1.8712495012816650e+01 
817 818 2 1.0279999999983913e+00 2.3247726601648542e+03 1.0000000000000000e+00 1.3899791715360252e+00 9.5711121976181057e-01 1.9063096172535158e+01 
652 653 2 1.0279999999995024e+00 -2.3088606496548600e+03 1.0000000000000000e+00 2.2133178814897891e-01 7.5906536417549764e-01 2.0129631452945400e+01 
649 650 2 1.0280000000000613e+00 -2.3054371648492197e+03 1.0000000000000000e+00 3.5973494288007773e-01 6.9939202655259425e-01 2.0282295931186450e+01 
24 25 2 1.0280000000001792e+00 1.1169862605793526e+03 1.0000000000000000e+00 3.7613327069214153e-01 6.8787582127046221e-01 2.0313450415381755e+01 
626 627 2 1.0279999999997775e+00 1.1312238646215751e+03 1.0000000000000000e+00 6.5015180614508141e+00 2.8625984076298381e+00 1.9251391299095953e+01 
430 431 2 1.0279999999999287e+00 -3.8560956526579212e+03 1.0000000000000000e+00 6.3268028339745896e+00 3.0539985255267306e+00 1.9439161740417621e+01 
113 114 2 1.0280000000007665e+00 -1.6059415860772606e+02 1.0000000000000000e+00 5.2715891482329553e+00 5.5527002947810811e-01 1.9733253137687761e+01 
618 619 2 1.0280000000003928e+00 -1.0321356375259033e+03 1.0000000000000000e+00 5.2814439209561472e+00 3.4737467513346487e-01 2.0012459550242724e+01 
1220 1221 2 1.0279999999999734e+00 3.8164386621478616e+03 1.0000000000000000e+00 4.5267681189800895e+00 1.6038941008306908e+00 2.0026754487963203e+01 
107 108 2 1.0279999999990974e+00 -2.0522875102209391e+03 1.0000000000000000e+00 4.3808491174405795e+00 1.9818410347737945e+00 2.0253425023942963e+01 
356 357 2 1.0279999999997746e+00 -5.1173973673856017e+03 1.0000000000000000e+00 3.6286397504114296e+00 3.2485872688930506e+00 2.0563686989104799e+01 
209 210 2 1.0280000000001173e+00 6.8603132816640082e+03 1.0000000000000000e+00 9.3091224272274022e+00 1.1184111287441643e+00 1.8960584106525584e+01 
990 991 2 1.0279999999999754e+00 8.0595338663557832e+03 1.0000000000000000e+00 9.8053217288975354e+00 1.6757117539134061e+00 1.9066954894251605e+01 
1356 1357 2 1.0279999999999163e+00 5.1314267407144498e+03 1.0000000000000000e+00 9.7988176199887871e+00 1.8131096156167317e+00 1.9155636645659712e+01 
330 331 2 1.0279999999994980e+00 -3.9395646820220782e+03 1.0000000000000000e+00 9.1836755542630044e+00 1.8812842106710082e+00 1.9285065013495558e+01 
1171 1172 2 1.0279999999995695e+00 4.6806739724979989e+03 1.0000000000000000e+00 6.9436412339381883e+00 2.8356331174294391e+00 1.9402199092345100e+01 
525 526 2 1.0279999999997933e+00 -1.0534066914176892e+03 1.0000000000000000e+00 9.5181866448148469e+00 2.1263477470251595e+00 1.9613253269642346e+01 
537 538 2 1.0279999999998077e+00 -9.9980007262880258e+02 1.0000000000000000e+00 6.8274605750154649e+00 3.1063581068347785e+00 1.9688930575211948e+01 
914 915 2 1.0280000000005016e+00 -5.3740459786827869e+03 1.0000000000000000e+00 7.8633061178865233e+00 1.9113664356061080e+00 2.1145793250736720e+01 
1062 1063 2 1.0279999999999960e+00 -5.4446304224499036e+03 1.0000000000000000e+00 1.0484937547324515e+01 1.8318120080106219e+00 1.9320482834498652e+01 
806 807 2 1.0279999999999851e+00 6.5125211821172607e+03 1.0000000000000000e+00 1.0425698590256184e+01 2.1181312617654866e+00 1.9788889866633625e+01 
575 576 2 1.0279999999997802e+00 3.6559038760666988e+02 1.0000000000000000e+00 1.1997891795072453e+01 1.6054075815750566e+00 2.0577093743712449e+01 
613 614 2 1.0279999999999636e+00 -8.4703684652893971e+03 1.0000000000000000e+00 1.2086292012230370e+01 1.3340375710239372e+00 2.0634059911853946e+01 
986 987 2 1.0280000000000635e+00 8.0624696098869372e+03 1.0000000000000000e+00 1.2219317085224102e+01 1.2159630479729440e+00 2.0707216853137371e+01 
753 754 2 1.0280000000000078e+00 -8.4833407886636451e+03 1.0000000000000000e+00 1.3407094876090939e+01 5.3429099639832189e-01 2.1189644864954872e+01 
263 264 2 1.0279999999999805e+00 7.3330749292668406e+03 1.0000000000000000e+00 1.6384926614933144e+00 3.8240858065338608e+00 1.9409866271255559e+01 
1071 1072 2 1.0279999999998344e+00 -2.4649498778477182e+03 1.0000000000000000e+00 1.4924026081188702e+00 3.9159400790728136e+00 1.9688331154762881e+01 
636 637 2 1.0279999999996843e+00 -2.7429944330339958e+03 1.0000000000000000e+00 1.4171887482125811e+00 3.8758719049686543e+00 1.9694553022567899e+01 
1161 1162 2 1.0279999999999991e+00 -2.9092548274449646e+03 1.0000000000000000e+00 1.5780850636547625e+00 3.9556400972112238e+00 1.9703633547582704e+01 
782 783 2 1.0279999999998755e+00 6.6776782373328260e+03 1.0000000000000000e+00 1.4125344239873765e+00 3.9191546713727012e+00 1.9816763217017421e+01 
395 396 2 1.0280000000004266e+00 6.9745652200896729e+03 1.0000000000000000e+00 2.4351008559912732e+00 4.2290417991398792e+00 2.0403268558243994e+01 
1232 1233 2 1.0280000000001173e+00 5.0950707746383905e+03 1.0000000000000000e+00 6.4488187989581807e+00 3.4160953133127259e+00 2.0102926597066499e+01 
1343 1344 2 1.0280000000002227e+00 -1.7344686985653793e+03 1.0000000000000000e+00 6.1772090378729763e+00 3.5275815193491105e+00 2.0247175338824043e+01 
1282 1283 2 1.0280000000000127e+00 -9.8546817083905921e+02 1.0000000000000000e+00 1.1401161608468760e-02 8.1559363746717786e+00 2.0037787751447286e+01 
108 109 2 1.0279999999997540e+00 5.0676376567144075e+02 1.0000000000000000e+00 1.2051114314147506e+00 7.9420562356074607e+00 2.0205842915243931e+01 
844 845 2 1.0279999999990994e+00 -6.3016294849140340e+03 1.0000000000000000e+00 1.1267572957916094e+00 6.7617967200971281e+00 2.0361909337346223e+01 
907 908 2 1.0279999999998402e+00 -4.4184337562270593e+03 1.0000000000000000e+00 1.9629341214571836e+00 8.7745037341716934e+00 2.0766433230595513e+01 
621 622 2 1.0280000000000400e+00 -9.3125758665231683e+02 1.0000000000000000e+00 3.0507096022677667e+00 8.0692228287825003e+00 2.0998282364191112e+01 
1492 1493 2 1.0279999999997385e+00 2.5777849001891250e+03 1.0000000000000000e+00 1.5137645542078659e+00 9.1761991486327439e+00 2.1011512972689360e+01 
1468 1469 2 1.0280000000005687e+00 4.1933437521304754e+01 1.0000000000000000e+00 1.8037303476084192e+00 7.5818370176246164e-01 2.1561744486581858e+01 
1181 1182 2 1.0280000000022547e+00 -6.8429843327317485e+03 1.0000000000000000e+00 1.8930409998602875e+00 1.1677475067345702e+00 2.1639632685306417e+01 
1147 1148 2 1.0279999999987637e+00 5.3719364000127998e+03 1.0000000000000000e+00 2.2586316100489943e+00 1.4673629046579098e+00 2.2538420844772876e+01 
1115 1116 2 1.0279999999992699e+00 -8.6717229394064532e+01 1.0000000000000000e+00 1.6909067913743814e+00 1.6411072995770444e+00 2.3169769746668418e+01 
375 376 2 1.0279999999998990e+00 5.3836757484793616e+03 1.0000000000000000e+00 1.0055902969067994e+00 1.0997419754313824e+00 2.3538754242462840e+01 
1500 1501 2 1.0279999999999743e+00 1.0742746731390930e+03 1.0000000000000000e+00 7.1553656289232048e-01 5.7157357385717700e-01 2.3584981426665845e+01 
52 53 2 1.0280000000004064e+00 -3.1569182535962200e+03 1.0000000000000000e+00 4.5972349881374303e-01 5.1639356555247018e-01 2.3779037420395355e+01 
362 363 2 1.0279999999996248e+00 -2.3679175002248885e+03 1.0000000000000000e+00 1.2860080102420957e+00 3.0678700337261051e+00 2.4157499175199899e+01 
1252 1253 2 1.0279999999993652e+00 6.1235805232297098e+03 1.0000000000000000e+00 3.7687057497503127e+00 3.0554577400193734e+00 2.1667316768774018e+01 
797 798 2 1.0280000000000733e+00 -5.4204784769288935e+01 1.0000000000000000e+00 4.2526671069920470e+00 6.2312828119470892e-02 2.1767882076956393e+01 
679 680 2 1.0280000000000695e+00 -1.6960183585572468e+03 1.0000000000000000e+00 6.6012566893133240e+00 1.2886548160138511e-01 2.1905571546106039e+01 
674 675 2 1.0280000000001266e+00 -3.5018710604026783e+03 1.0000000000000000e+00 6.6044486433874159e+00 1.3771608957094497e-01 2.1923107007647154e+01 
37 38 2 1.0279999999991500e+00 -2.0854394375414728e+02 1.0000000000000000e+00 4.6372627461920422e+00 8.9018028236578528e-01 2.2290642933068764e+01 
554 555 2 1.0280000000009586e+00 2.2365259712238230e+03 1.0000000000000000e+00 6.4737994021170477e+00 1.2400479650949243e+00 2.3189761598727952e+01 
409 410 2 1.0280000000007166e+00 -2.8698085692280692e+03 1.0000000000000000e+00 7.6463131908508002e+00 2.2329530263539517e+00 2.1549667199149557e+01 
1461 1462 2 1.0280000000007827e+00 -2.1848616127489304e+03 1.0000000000000000e+00 7.5807772744868505e+00 2.0469486234801595e+00 2.1625451942151084e+01 
99 100 2 1.0279999999964597e+00 -3.5051849438582340e+03 1.0000000000000000e+00 6.8206367294157078e+00 2.9539240519423053e+00 2.2264097384659699e+01 
1111 1112 2 1.0280000000006784e+00 4.6701736150779925e+03 1.0000000000000000e+00 7.4271622715089745e+00 2.2151453141700239e+00 2.3465862059702953e+01 
55 56 2 1.0280000000005132e+00 -3.5682766189668591e+03 1.0000000000000000e+00 8.0459127138017958e+00 2.6735982718433728e+00 2.4234782734547792e+01 
781 782 2 1.0279999999999674e+00 -6.4573683482071319e+03 1.0000000000000000e+00 1.1958184163834266e+01 2.0089228889120370e+00 2.1403495929739545e+01 
131 132 2 1.0279999999999545e+00 -3.8641090788929178e+03 1.0000000000000000e+00 1.4034486443025060e+01 5.8205682481626697e-01 2.1459319877033955e+01 
110 111 2 1.0280000000000014e+00 -6.5682507899366828e+03 1.0000000000000000e+00 1.3349749835416953e+01 3.2849454919765626e+00 2.1953220745753576e+01 
811 812 2 1.0280000000000939e+00 -2.4254436761013330e+03 1.0000000000000000e+00 1.3391637118941986e+01 3.1779346511456605e+00 2.1965104897702329e+01 
283 284 2 1.0279999999999232e+00 -9.0007914346395301e+03 1.0000000000000000e+00 1.4287968701297025e+01 8.3984917548767024e-01 2.2413056641228909e+01 
137 138 2 1.0279999999997373e+00 8.2847027347637941e+03 1.0000000000000000e+00 1.4359589189606185e+01 6.7412174955077697e-01 2.2425746374636098e+01 
866 867 2 1.0279999999997569e+00 6.5587623524839328e+03 1.0000000000000000e+00 1.4277240147980168e+01 7.4521025415933684e-01 2.2473072597974898e+01 
285 286 2 1.0279999999998251e+00 -3.3470217688539624e+03 1.0000000000000000e+00 1.4308389743305264e+01 5.3291449751425279e-01 2.2545155993241359e+01 
169 170 2 1.0279999999998179e+00 -3.3053832442572129e+03 1.0000000000000000e+00 1.4257169385483024e+01 5.4501015863630708e-01 2.2571272523383673e+01 
1037 1038 2 1.0280000000001057e+00 -2.8564307784853645e+03 1.0000000000000000e+00 1.9145903808496964e+01 2.9595201019411537e+00 2.3081380141936958e+01 
140 141 2 1.0280000000000675e+00 8.2347792812232874e+03 1.0000000000000000e+00 1.8368722253520954e+01 1.4220142676053911e+00 2.3604842983832722e+01 
1396 1397 2 1.0280000000002250e+00 7.6845164457297469e+03 1.0000000000000000e+00 1.8364533956062623e+01 1.3735449600914849e+00 2.3635061688699075e+01 
810 811 2 1.0280000000000056e+00 -2.3267729421255422e+03 1.0000000000000000e+00 1.8313632059216381e+01 3.3027050227049122e+00 2.3651855811904479e+01 
128 129 2 1.0279999999998208e+00 7.7448729058206918e+03 1.0000000000000000e+00 1.8493547251208099e+01 2.6168150842637234e+00 2.3658934151961791e+01 
174 175 2 1.0279999999998890e+00 -8.9451510710043585e+03 1.0000000000000000e+00 1.8525480176365946e+01 1.8715595808054963e+00 2.3665550136542812e+01 
1398 1399 2 1.0279999999999860e+00 -4.6935514851988921e+02 1.0000000000000000e+00 1.8425176392581722e+01 3.0077888238997788e+00 2.3743816296162617e+01 
1050 1051 2 1.0280000000000564e+00 9.7852073553667594e+01 1.0000000000000000e+00 6.6462603683675264e-02 5.4482470575172091e+00 2.1227022793509036e+01 
1429 1430 2 1.0280000000016325e+00 -4.3171557146788628e+03 1.0000000000000000e+00 2.2136693886468142e+00 6.5518705284602703e+00 2.1955982328910096e+01 
586 587 2 1.0279999999980025e+00 5.2391862128455705e+03 1.0000000000000000e+00 2.3109119481131479e+00 5.8276986868910399e+00 2.1982414381289789e+01 
1457 1458 2 1.0280000000013167e+00 -4.4213083251223543e+03 1.0000000000000000e+00 7.7500065613631508e-01 6.2664577372210299e+00 2.2757394745382520e+01 
1202 1203 2 1.0280000000009617e+00 1.3833563613765673e+03 1.0000000000000000e+00 1.3872336367898672e+00 6.2567145629628369e+00 2.3158123452472680e+01 
599 600 2 1.0280000000015077e+00 2.4202303088392810e+03 1.0000000000000000e+00 1.6967467900446442e+00 3.5771544674781857e+00 2.3191329991732744e+01 
1117 1118 2 1.0279999999987135e+00 -2.8077541738729606e+03 1.0000000000000000e+00 1.6139095017138374e+00 3.5534992614443448e+00 2.3471500797969099e+01 
736 737 2 1.0279999999985374e+00 -2.7555679011263883e+03 1.0000000000000000e+00 1.5957919501396074e+00 3.5393478826404339e+00 2.3476853873550702e+01 
603 604 2 1.0280000000000320e+00 5.5172924992465232e+02 1.0000000000000000e+00 3.6949619916483192e+00 3.4512864726025740e+00 2.2045381282897523e+01 
1074 1075 2 1.0279999999998131e+00 3.6059992498667480e+03 1.0000000000000000e+00 5.5500939632336781e+00 5.8486581449589332e+00 2.2053945727207925e+01 
88 89 2 1.0280000000043688e+00 -2.4863257052891977e+03 1.0000000000000000e+00 5.1980586591243423e+00 4.4897199300403798e+00 2.2086633695644768e+01 
604 605 2 1.0279999999983231e+00 3.6722030661717463e+03 1.0000000000000000e+00 4.8215421793363458e+00 5.2583856629627421e+00 2.2247462759012183e+01 
1216 1217 2 1.0279999999974263e+00 8.3781466028579707e+03 1.0000000000000000e+00 4.9708195404942224e+00 4.8944674925958633e+00 2.2261211572630870e+01 
10 11 2 1.0280000000003353e+00 -3.3287667071028927e+03 1.0000000000000000e+00 3.5926058956618707e+00 3.9269337660043919e+00 2.2333792753413043e+01 
1223 1224 2 1.0280000000002638e+00 -7.3338398010934025e+03 1.0000000000000000e+00 5.2105526691203190e+00 5.1984198111215667e+00 2.3075847594910627e+01 
1506 1507 2 1.0279999999999867e+00 -5.5166398629919586e+03 1.0000000000000000e+00 5.5126650942039310e+00 5.0997362865240046e+00 2.3456337158808637e+01 
336 337 2 1.0280000000000282e+00 -4.1491056340638033e+03 1.0000000000000000e+00 9.9812015708365944e+00 5.7154109308951586e+00 2.1809448197372326e+01 
1290 1291 2 1.0279999999984739e+00 -2.7107427142338520e+03 1.0000000000000000e+00 8.7434819126659526e+00 5.9635927202958205e+00 2.2329984094598029e+01 
1278 1279 2 1.0279999999994289e+00 -4.5996898843863091e+03 1.0000000000000000e+00 7.7585390860630916e+00 6.6650638510557272e+00 2.2647482067691140e+01 
1208 1209 2 1.0280000000004941e+00 7.7460431409537305e+03 1.0000000000000000e+00 8.8484012607362441e+00 4.5468922721779119e+00 2.2912272812386320e+01 
432 433 2 1.0280000000007188e+00 -5.3415874709757427e+03 1.0000000000000000e+00 8.8586111095570192e+00 4.5943515764080365e+00 2.2966441481637119e+01 
583 584 2 1.0280000000013243e+00 -5.0545691962744115e+02 1.0000000000000000e+00 8.3748884996029034e+00 4.5940435069152024e+00 2.3312748040892824e+01 
749 750 2 1.0280000000009939e+00 2.7208331014986461e+03 1.0000000000000000e+00 8.3394655158157480e+00 4.8603856908457690e+00 2.3368036203574800e+01 
300 301 2 1.0279999999995224e+00 3.3738978026827144e+03 1.0000000000000000e+00 1.2601376876108873e+01 3.7458557426148991e+00 2.1329989242052864e+01 
326 327 2 1.0279999999995832e+00 4.5921675680253638e+03 1.0000000000000000e+00 1.2432073475004596e+01 4.1077303214905703e+00 2.1331631316577681e+01 
483 484 2 1.0280000000000546e+00 -5.4692312039921649e+02 1.0000000000000000e+00 1.1236529119303409e+01 5.7133598664694150e+00 2.1578125371178668e+01 
6 7 2 1.0280000000001785e+00 -1.5935785705227627e+03 1.0000000000000000e+00 1.0439345439518165e+01 5.6610822605840374e+00 2.1691648957791635e+01 
1022 1023 2 1.0280000000000842e+00 7.0656696165199110e+03 1.0000000000000000e+00 1.0131837533838247e+01 5.6930545192783155e+00 2.1765946233641891e+01 
863 864 2 1.0279999999998557e+00 -2.3868940846280238e+03 1.0000000000000000e+00 1.3268657047649972e+01 3.6632988171157823e+00 2.1960638754503790e+01 
428 429 2 1.0280000000002549e+00 -4.1412103466180542e+03 1.0000000000000000e+00 1.0133194572505975e+01 4.6164130972307973e+00 2.2142425677679810e+01 
954 955 2 1.0279999999997782e+00 7.1551017387177853e+03 1.0000000000000000e+00 1.2502081971202756e+01 3.7801198591741443e+00 2.2343040510640940e+01 
1306 1307 2 1.0280000000003304e+00 -4.5816296325810854e+03 1.0000000000000000e+00 1.1006990511929475e+01 5.1950940977664173e+00 2.2726194935122997e+01 
42 43 2 1.0279999999998592e+00 -6.4958000960668014e+03 1.0000000000000000e+00 1.3702460761184259e+01 5.1669658788581847e+00 2.2527766758618853e+01 
175 176 2 1.0279999999998803e+00 -8.9333754719897588e+03 1.0000000000000000e+00 1.4258030273179116e+01 5.8869935449433068e+00 2.2536051864079674e+01 
916 917 2 1.0279999999999878e+00 8.1782114522463980e+03 1.0000000000000000e+00 1.4186468102267019e+01 5.7205826590466469e+00 2.2797987034887644e+01 
1227 1228 2 1.0279999999999960e+00 -3.7072081491799227e+03 1.0000000000000000e+00 1.6453241564784626e+01 6.6181520813578487e+00 2.3420728764066457e+01 
1399 1400 2 1.0279999999999410e+00 -5.7450013619822016e+02 1.0000000000000000e+00 1.3837913857385038e+01 6.1607929747030621e+00 2.3426279114321375e+01 
1064 1065 2 1.0280000000000296e+00 8.2428596287210003e+03 1.0000000000000000e+00 1.4034196987934084e+01 6.4708198752901751e+00 2.3656118173214022e+01 
435 436 2 1.0280000000001415e+00 4.6907272736770592e+03 1.0000000000000000e+00 1.7502262480046443e+01 4.9559809786028017e+00 2.3420495069673834e+01 
125 126 2 1.0280000000000205e+00 7.6596648523596141e+03 1.0000000000000000e+00 1.6882467265049129e+01 6.1672609757843162e+00 2.3515366030797953e+01 
1359 1360 2 1.0279999999999874e+00 -3.7290221636034448e+03 1.0000000000000000e+00 1.7269622746935603e+01 5.8207430299391900e+00 2.3558701672808759e+01 
1226 1227 2 1.0280000000000258e+00 -3.6944545545131659e+03 1.0000000000000000e+00 1.7433052279642141e+01 5.6740959290925064e+00 2.3584736640791380e+01 
1358 1359 2 1.0280000000001215e+00 -3.7179203287091814e+03 1.0000000000000000e+00 1.7497228032486920e+01 5.6033621709323116e+00 2.3620583666589571e+01 
162 163 2 1.0280000000000735e+00 -3.6797684656062547e+03 1.0000000000000000e+00 1.7706220671170644e+01 5.3865820894924799e+00 2.3636610857156917e+01 
1496 1497 2 1.0280000000000546e+00 7.7068790565898362e+03 1.0000000000000000e+00 1.7820403482407144e+01 5.2501705473569329e+00 2.3653708170151347e+01 
933 934 2 1.0279999999997644e+00 -3.8513270902810918e+03 1.0000000000000000e+00 3.2886317835383365e+00 7.3161483681049040e+00 2.1423913463483263e+01 
1380 1381 2 1.0279999999998932e+00 1.3603915409059031e+04 1.0000000000000000e+00 1.3786179521565811e+00 9.8276668668581273e+00 2.2149286724855664e+01 
657 658 2 1.0280000000002554e+00 -3.9888684573854962e+03 1.0000000000000000e+00 3.4541188223624526e+00 8.5911067362592330e+00 2.1312964949802339e+01 
1477 1478 2 1.0279999999999534e+00 -2.4979143521126589e+03 1.0000000000000000e+00 3.5354850107554534e+00 7.6168387921276155e+00 2.1376585015811344e+01 
950 951 2 1.0279999999999481e+00 2.1231466364023568e+03 1.0000000000000000e+00 4.4250358672293517e+00 8.2532615358769998e+00 2.1795252063692001e+01 
617 618 2 1.0279999999997569e+00 2.7270475665427798e+03 1.0000000000000000e+00 5.1653770062788578e+00 8.2848410368226393e+00 2.2158620011067910e+01 
1076 1077 2 1.0279999999998675e+00 7.7363019365809760e+03 1.0000000000000000e+00 6.5382719602225174e+00 7.9401867426836299e+00 2.2708375117758820e+01 
559 560 2 1.0279999999995919e+00 2.7642352862540556e+03 1.0000000000000000e+00 3.9475594514726646e+00 9.0895201074847964e+00 2.3078106234304531e+01 
136 137 2 1.0279999999996206e+00 -4.2151404440955230e+02 1.0000000000000000e+00 3.8990578362870365e+00 9.1810785284385972e+00 2.3098791850861115e+01 
957 958 2 1.0279999999997422e+00 -3.3831461805982017e+03 1.0000000000000000e+00 3.7534994690644150e+00 9.9785980461077184e+00 2.3888731890167655e+01 
997 998 2 1.0279999999998144e+00 6.8982816931209413e+02 1.0000000000000000e+00 3.7004097300172920e+00 9.8390219383509301e+00 2.3901854106323572e+01 
1243 1244 2 1.0279999999996667e+00 -1.6702498050873110e+03 1.0000000000000000e+00 7.2996419543255096e+00 7.2394923405357607e+00 2.2678986924190191e+01 
393 394 2 1.0279999999998672e+00 -4.5935027608807104e+03 1.0000000000000000e+00 7.0241078191832527e+00 7.5464063656560505e+00 2.2703905780142517e+01 
332 333 2 1.0279999999997709e+00 -5.3546676752098610e+03 1.0000000000000000e+00 6.9691127857181874e+00 7.6099296079709760e+00 2.2731841553384040e+01 
1274 1275 2 1.0279999999998815e+00 -1.0707884850255952e+04 1.0000000000000000e+00 6.6748703672004055e+00 7.8535031900452417e+00 2.2734265834703560e+01 
1294 1295 2 1.0280000000002614e+00 -2.7595297742584980e+03 1.0000000000000000e+00 1.2295934204777012e+01 6.8963172974975144e+00 2.2123062844493514e+01 
160 161 2 1.0280000000003118e+00 3.3869192494466870e+03 1.0000000000000000e+00 1.2308758591447878e+01 6.9541021931395628e+00 2.2140516915808323e+01 
491 492 2 1.0280000000002205e+00 3.6528371534948246e+02 1.0000000000000000e+00 1.2357348091204921e+01 7.2105960069851545e+00 2.2197719987700687e+01 
1040 1041 2 1.0280000000000216e+00 -2.9355153308575900e+03 1.0000000000000000e+00 1.2402867667341011e+01 9.1261181102356268e+00 2.2627768560713530e+01 
1491 1492 2 1.0280000000000038e+00 -5.8222789333491244e+02 1.0000000000000000e+00 1.2400173927436100e+01 9.1598420580594979e+00 2.2634055356708387e+01 
146 147 2 1.0279999999999754e+00 -1.4987102723475659e+03 1.0000000000000000e+00 1.2398050923102327e+01 9.1815158736071805e+00 2.2638620679358251e+01 
685 686 2 1.0279999999998728e+00 -7.1084274277370696e+03 1.0000000000000000e+00 1.2343646080299351e+01 9.5731362581631867e+00 2.2706275788021191e+01 
940 941 2 1.0279999999996858e+00 -2.8242391583776744e+03 1.0000000000000000e+00 1.2271657433072635e+01 9.8550983902757974e+00 2.2747710003456401e+01 
1393 1394 2 1.0280000000000002e+00 7.6179586095772702e+03 1.0000000000000000e+00 1.4452939581349801e+01 8.6779097459777095e+00 2.3052798437948461e+01 
295 296 2 1.0279999999999119e+00 -3.7391324105565477e+03 1.0000000000000000e+00 1.4891020112192111e+01 8.2942622577989749e+00 2.3082819747727616e+01 
163 164 2 1.0280000000000951e+00 -3.7278540290593774e+03 1.0000000000000000e+00 1.4809667668396616e+01 8.3747129800975078e+00 2.3169751114327045e+01 
1493 1494 2 1.0279999999999818e+00 7.6482419336733274e+03 1.0000000000000000e+00 1.5325638307884152e+01 7.8254172730951392e+00 2.3186460927068637e+01 
31 32 2 1.0280000000000029e+00 -5.2840017075139258e+02 1.0000000000000000e+00 1.5046388484961192e+01 8.1073251311663590e+00 2.3338522202676835e+01 
434 435 2 1.0279999999999021e+00 4.7003756423707628e+03 1.0000000000000000e+00 1.4185856668560817e+01 7.9839546766623517e+00 2.3895324365268070e+01 
792 793 2 1.0280000000000182e+00 -7.5824570015997119e+02 1.0000000000000000e+00 1.3460333833737081e+00 1.0079243329087886e+01 2.2152022757401060e+01 
1225 1226 2 1.0280000000002905e+00 -6.1556363012913189e+03 1.0000000000000000e+00 3.0265818083938427e+00 1.0635403458161763e+01 2.2708433654591961e+01 
343 344 2 1.0279999999994782e+00 1.1029222295686577e+03 1.0000000000000000e+00 5.4741959238133309e-01 1.1247426785064990e+01 2.2743012666830225e+01 
664 665 2 1.0279999999997129e+00 4.4975580880675934e+03 1.0000000000000000e+00 2.8124529927610825e-01 1.1419912376544103e+01 2.2870707159036034e+01 
190 191 2 1.0280000000000069e+00 -5.0296879595142491e+03 1.0000000000000000e+00 5.6031658693874373e-02 1.2350433170593474e+01 2.3157450970165893e+01 
455 456 2 1.0279999999999823e+00 -3.1134684175658713e+03 1.0000000000000000e+00 2.6774090332876406e+00 1.1451259611156605e+01 2.3236975935791545e+01 
1262 1263 2 1.0279999999999350e+00 -1.6447334280777332e+03 1.0000000000000000e+00 2.5223470690249199e+00 1.1604024043327266e+01 2.3322430576652412e+01 
642 643 2 1.0279999999998455e+00 3.7447760867520146e+03 1.0000000000000000e+00 2.5145960417686140e+00 1.1833477190650653e+01 2.3637210347709551e+01 
1194 1195 2 1.0280000000003757e+00 4.7336087743945573e+03 1.0000000000000000e+00 1.1929055161839106e+01 1.1472294393634682e+01 2.2972781597445874e+01 
608 609 2 1.0280000000004141e+00 8.2522131529513554e+03 1.0000000000000000e+00 1.1895435221951951e+01 1.1539709371326305e+01 2.2976997766909868e+01 
1239 1240 2 1.0279999999990401e+00 -9.0241992286053282e+03 1.0000000000000000e+00 1.1602245809542975e+01 1.1953787334557198e+01 2.2984667415267907e+01 
25 26 2 1.0279999999990312e+00 7.6550373894653167e+03 1.0000000000000000e+00 1.1599912605063039e+01 1.1951607880729213e+01 2.2984780458430041e+01 
460 461 2 1.0280000000005156e+00 8.2314779377185332e+03 1.0000000000000000e+00 1.1760655809127696e+01 1.1781247155429794e+01 2.2990509373971665e+01 
654 655 2 1.0279999999998612e+00 6.5395392911024064e+03 1.0000000000000000e+00 1.1632180460141322e+01 1.1950216029386754e+01 2.2992375854475032e+01 