LAMMPS data file via write_data, version 30 Jul 2016, timestep = 50000000

180 atoms
2 atom types

0.0000000000000000e+00 2.0000000000000000e+01 xlo xhi
0.0000000000000000e+00 2.0000000000000000e+01 ylo yhi
0.0000000000000000e+00 2.0000000000000000e+01 zlo zhi

Masses

1 3.896
2 4.31

Atoms # meso-molecular

122 1 2 1.0279572833757931e+00 -1.9788307410376402e+02 1.0000000000000000e+00 3.0635815319328614e+00 1.5319123264661143e+00 1.3134246663336288e+01 
151 1 2 1.0279572833934743e+00 -1.9743678776126367e+02 1.0000000000000000e+00 3.0635817502262315e+00 1.5319123520108333e+00 1.3134246673270685e+01 
157 1 2 1.0279572833297659e+00 -2.0560627738710113e+02 1.0000000000000000e+00 3.0635810094926974e+00 1.5319123104479204e+00 1.3134246629379625e+01 
158 1 2 1.0279572833132835e+00 -1.8429020768799506e+02 1.0000000000000000e+00 3.0635808035966874e+00 1.5319122833588599e+00 1.3134246620685193e+01 
121 1 2 1.0279572833565844e+00 -1.7983545241192567e+02 1.0000000000000000e+00 3.0635813157365694e+00 1.5319123215761667e+00 1.3134246648891885e+01 
22 1 2 1.0279795713241986e+00 -1.9617950975724469e+02 1.0000000000000000e+00 2.5558943082247740e+00 1.8462238213493489e+00 1.4412804367136694e+01 
28 1 2 1.0280920045402220e+00 -8.4910740614268946e+01 1.0000000000000000e+00 2.6461128113159846e+00 1.7741916734530763e+00 1.4392884717195422e+01 
34 1 2 1.0280920045402220e+00 -8.6750909500177571e+01 1.0000000000000000e+00 2.6461128113159846e+00 1.7741916734530763e+00 1.4392884717195422e+01 
114 1 2 1.0279797471778196e+00 -2.3398925130796741e+02 1.0000000000000000e+00 7.2978562641793143e-01 2.1279037485508341e+00 1.5454746125793340e+01 
150 1 2 1.0279921466341404e+00 -2.1216236797956358e+02 1.0000000000000000e+00 5.9556906783161678e-01 2.1562850632652695e+00 1.5494522105977605e+01 
26 1 2 1.0280185657863621e+00 -1.8661997685808282e+02 1.0000000000000000e+00 2.2101044204080703e-01 2.0523914873394804e+00 1.5644382622734355e+01 
32 1 2 1.0280211456036517e+00 -1.5424778149196950e+02 1.0000000000000000e+00 1.6355855583119566e-01 1.9981004327549643e+00 1.5670119652711342e+01 
180 1 2 1.0279568157966159e+00 -9.6696020038718387e+01 1.0000000000000000e+00 1.5659422959092467e-01 1.3404688316000564e+00 1.4161470805872181e+01 
174 1 2 1.0279568157966157e+00 -9.2209936464432758e+01 1.0000000000000000e+00 1.5659422959105257e-01 1.3404688316000495e+00 1.4161470805872195e+01 
33 1 2 1.0280214714607594e+00 -1.6089154839815845e+02 1.0000000000000000e+00 1.5559949570588483e-01 1.9914016040037905e+00 1.5672792833786001e+01 
16 1 2 1.0280079634218651e+00 -1.0975106961852474e+02 1.0000000000000000e+00 5.8515397172716561e+00 1.9744674592707758e+00 1.4117269312050745e+01 
39 1 2 1.0279914698881467e+00 -2.5117398654055739e+02 1.0000000000000000e+00 5.8519270241111769e+00 1.9853872527253300e+00 1.4087044715315276e+01 
40 1 2 1.0279911579468084e+00 -2.0067185197696381e+02 1.0000000000000000e+00 5.8522783006293491e+00 1.9845088080567348e+00 1.4085189194245755e+01 
75 1 2 1.0279883218535313e+00 -2.6484707105059277e+02 1.0000000000000000e+00 5.8534042009454019e+00 1.9843806727197622e+00 1.4076646621785144e+01 
76 1 2 1.0279908314362776e+00 -2.1138663635209818e+02 1.0000000000000000e+00 5.8524759028998101e+00 1.9842152613788990e+00 1.4083924335628817e+01 
142 1 2 1.0279839464464200e+00 -2.1918911725160805e+02 1.0000000000000000e+00 4.3169663435244141e+00 1.6876605290475140e+01 2.6936980324656918e+00 
49 1 2 1.0279625174552602e+00 -4.0471710199703610e+00 1.0000000000000000e+00 6.0823358439851090e+00 1.7129994136774624e+01 7.9514182185923887e-01 
136 1 2 1.0280296723725810e+00 -2.1505406438339472e+02 1.0000000000000000e+00 5.2608695310541052e+00 1.7152724086145980e+01 1.9280225569776803e+00 
156 1 2 1.0279515806013901e+00 -2.3029307644965758e+02 1.0000000000000000e+00 6.3669919021978902e+00 1.7198684175541498e+01 7.6757935551705581e-01 
141 1 2 1.0280116847822456e+00 -2.2289766746342647e+02 1.0000000000000000e+00 5.3904733752297478e+00 1.7554341624905053e+01 2.4171705224918685e+00 
140 1 2 1.0280090903344052e+00 -1.7624068920656953e+02 1.0000000000000000e+00 5.3652156573060426e+00 1.7564005008632364e+01 2.4428447754896565e+00 
135 1 2 1.0280218584747669e+00 -2.4564108685686250e+02 1.0000000000000000e+00 5.3404443357769029e+00 1.7646358687085904e+01 2.1181179317140733e+00 
57 1 2 1.0279921598094410e+00 -1.7859952643695433e+02 1.0000000000000000e+00 4.7630458150787982e+00 1.7876522447366561e+01 3.2274109301982183e+00 
56 1 2 1.0279925748268550e+00 -1.5491573046229487e+02 1.0000000000000000e+00 4.7620020787470576e+00 1.7876911863406580e+01 3.2414290882513570e+00 
155 1 2 1.0280120148276555e+00 -1.8185730522037289e+02 1.0000000000000000e+00 5.9513009430351822e+00 1.4724446150731685e+01 3.9961847608221932e+00 
112 1 2 1.0280120148276557e+00 -1.0797373377507101e+02 1.0000000000000000e+00 5.9513009430516473e+00 1.4724446150729090e+01 3.9961847608013787e+00 
118 1 2 1.0280120148276579e+00 -1.6480616024924234e+02 1.0000000000000000e+00 5.9513009430510397e+00 1.4724446150750319e+01 3.9961847608455967e+00 
154 1 2 1.0280120148276555e+00 -1.9912674928392684e+02 1.0000000000000000e+00 5.9513009430351822e+00 1.4724446150731685e+01 3.9961847608221932e+00 
119 1 2 1.0280120148276564e+00 -1.8132116086507503e+02 1.0000000000000000e+00 5.9513009430115602e+00 1.4724446150739622e+01 3.9961847608606851e+00 
124 1 2 1.0280120148276564e+00 -9.4929096507476160e+01 1.0000000000000000e+00 5.9513009430483015e+00 1.4724446150738411e+01 3.9961847608236925e+00 
148 1 2 1.0280120148276566e+00 -1.0919533022795845e+02 1.0000000000000000e+00 5.9513009430482979e+00 1.4724446150738409e+01 3.9961847608236898e+00 
71 1 2 1.0280007063833183e+00 -1.8858859966327486e+02 1.0000000000000000e+00 2.5919068601477866e+00 1.6855280073501724e+01 3.7335274067969157e+00 
36 1 2 1.0280007063833183e+00 -2.3551142638867969e+02 1.0000000000000000e+00 2.5919068601477866e+00 1.6855280073501724e+01 3.7335274067969157e+00 
72 1 2 1.0280007063833183e+00 -1.9374777041893873e+02 1.0000000000000000e+00 2.5919068601477866e+00 1.6855280073501724e+01 3.7335274067969157e+00 
35 1 2 1.0280007063833183e+00 -2.1791216450426157e+02 1.0000000000000000e+00 2.5919068601477866e+00 1.6855280073501724e+01 3.7335274067969157e+00 
6 1 2 1.0280007063833183e+00 -1.7548914122634466e+02 1.0000000000000000e+00 2.5919068601477866e+00 1.6855280073501724e+01 3.7335274067969157e+00 
27 1 2 1.0279919898439083e+00 -2.0971679603617878e+02 1.0000000000000000e+00 3.0036331477924580e+00 1.7580054822773885e+01 5.8739221797112098e+00 
63 1 2 1.0279771804693731e+00 -2.2028960627753730e+02 1.0000000000000000e+00 3.1895800117443285e+00 1.7634631187609020e+01 6.0235507261524726e+00 
103 1 2 1.0279998802068817e+00 -2.4458621105529289e+02 1.0000000000000000e+00 3.5238835463728271e+00 1.9519371760939549e+01 4.9561476661885671e+00 
67 1 2 1.0279998802068817e+00 -3.1655176944552255e+02 1.0000000000000000e+00 3.5238835463728271e+00 1.9519371760939549e+01 4.9561476661885671e+00 
31 1 2 1.0279998802068822e+00 -1.6742110424637235e+02 1.0000000000000000e+00 3.5238835464237019e+00 1.9519371760938792e+01 4.9561476661688424e+00 
97 1 2 1.0279998802068817e+00 -2.9247526016252760e+02 1.0000000000000000e+00 3.5238835463728342e+00 1.9519371760939549e+01 4.9561476661885600e+00 
104 1 2 1.0279998802068817e+00 -2.4061920312059340e+02 1.0000000000000000e+00 3.5238835463728342e+00 1.9519371760939549e+01 4.9561476661885600e+00 
61 1 2 1.0279998802068822e+00 -2.8388949765470215e+02 1.0000000000000000e+00 3.5238835464237019e+00 1.9519371760938792e+01 4.9561476661688424e+00 
20 1 2 1.0280135810501172e+00 -2.0703075853752932e+02 1.0000000000000000e+00 3.6045661738842707e+00 1.7057090008200028e+01 5.2504656962720802e+00 
21 1 2 1.0280135704419744e+00 -1.7369425492085904e+02 1.0000000000000000e+00 3.5971470040005267e+00 1.7059719538497170e+01 5.2612892023855515e+00 
145 1 2 1.0279951413323474e+00 7.0230865939605653e+00 1.0000000000000000e+00 3.1051338754754441e+00 1.6472822939681013e+01 8.9522882769168142e+00 
17 1 2 1.0280126297067536e+00 -1.8852506085752245e+02 1.0000000000000000e+00 3.3872828384367950e+00 1.7002343684922202e+01 8.0541107960273433e+00 
18 1 2 1.0280055502379908e+00 -1.8530411909216934e+02 1.0000000000000000e+00 3.3963971359598442e+00 1.7157690616576875e+01 8.0347818682623657e+00 
60 1 2 1.0280055502379908e+00 -1.9927021133321111e+02 1.0000000000000000e+00 3.3963971359598442e+00 1.7157690616576875e+01 8.0347818682623657e+00 
24 1 2 1.0280055502379908e+00 -1.7361711852146826e+02 1.0000000000000000e+00 3.3963971359598442e+00 1.7157690616576875e+01 8.0347818682623657e+00 
30 1 2 1.0280055502379908e+00 -1.3162953086320570e+02 1.0000000000000000e+00 3.3963971359598442e+00 1.7157690616576875e+01 8.0347818682623657e+00 
130 1 2 1.0279833287816778e+00 -1.7629135188621356e+02 1.0000000000000000e+00 1.3055445975429860e+00 1.6564026791254634e+01 1.2936322480918621e+01 
129 1 2 1.0279846099656895e+00 -2.0654996125684769e+02 1.0000000000000000e+00 1.2947527091195268e+00 1.6603147213155914e+01 1.2890518810597484e+01 
164 1 2 1.0280062539477326e+00 -1.7747058906035528e+02 1.0000000000000000e+00 1.2852423850204364e+00 1.6268931574897593e+01 1.2552187743417306e+01 
128 1 2 1.0279987675108433e+00 -1.7698262376007096e+02 1.0000000000000000e+00 1.2704448484415884e+00 1.6371919634307524e+01 1.2718634303986432e+01 
79 1 2 1.0280023790309465e+00 -2.2723928990067247e+02 1.0000000000000000e+00 3.5166211626012061e+00 1.5145536670189852e+01 1.1646768028589722e+01 
115 1 2 1.0280023790309465e+00 -2.3831951308632887e+02 1.0000000000000000e+00 3.5166211626012061e+00 1.5145536670189852e+01 1.1646768028589722e+01 
109 1 2 1.0280023790309465e+00 -2.0149154054500974e+02 1.0000000000000000e+00 3.5166211626012061e+00 1.5145536670189852e+01 1.1646768028589722e+01 
74 1 2 1.0280023790309465e+00 -2.0567616406168793e+02 1.0000000000000000e+00 3.5166211626012061e+00 1.5145536670189852e+01 1.1646768028589722e+01 
110 1 2 1.0280023790309465e+00 -2.0397613935017495e+02 1.0000000000000000e+00 3.5166211626012061e+00 1.5145536670189852e+01 1.1646768028589722e+01 
73 1 2 1.0280023790309465e+00 -2.5348958893157661e+02 1.0000000000000000e+00 3.5166211626012061e+00 1.5145536670189852e+01 1.1646768028589722e+01 
159 1 2 1.0279714974751162e+00 -1.5956188928956470e+02 1.0000000000000000e+00 1.4153328235073841e+00 1.6746061712203474e+01 1.3094874615517316e+01 
165 1 2 1.0279734820414084e+00 -1.6848634199904578e+02 1.0000000000000000e+00 1.4012513937342523e+00 1.6782906771743662e+01 1.3037289667255301e+01 
153 1 2 1.0279969277478067e+00 -2.3290681122568452e+02 1.0000000000000000e+00 2.3918017456667386e+00 1.7179201643846593e+01 1.0277681929242398e+01 
152 1 2 1.0279969277478065e+00 -2.5663732632027273e+02 1.0000000000000000e+00 2.3918017456671992e+00 1.7179201643846813e+01 1.0277681929243149e+01 
146 1 2 1.0279969277478067e+00 -2.4201841560217125e+02 1.0000000000000000e+00 2.3918017456667386e+00 1.7179201643846593e+01 1.0277681929242398e+01 
147 1 2 1.0279969277478067e+00 -2.4543360138452417e+02 1.0000000000000000e+00 2.3918017456672369e+00 1.7179201643846849e+01 1.0277681929243064e+01 
116 1 2 1.0279969277478065e+00 -1.8219233612708220e+02 1.0000000000000000e+00 2.3918017456671992e+00 1.7179201643846813e+01 1.0277681929243149e+01 
7 1 2 1.0280576102809651e+00 -1.8294569865676456e+02 1.0000000000000000e+00 6.2831838732509171e+00 1.5306772811425997e+01 1.6378244468961505e+01 
37 1 2 1.0280576102809651e+00 -1.0921719042798945e+02 1.0000000000000000e+00 6.2831838732509135e+00 1.5306772811426095e+01 1.6378244468961579e+01 
38 1 2 1.0280576102809649e+00 -1.2611128828324728e+02 1.0000000000000000e+00 6.2831838732509606e+00 1.5306772811426688e+01 1.6378244468962020e+01 
8 1 2 1.0280576102809651e+00 -1.9638061803034117e+02 1.0000000000000000e+00 6.2831838732509135e+00 1.5306772811426095e+01 1.6378244468961579e+01 
44 1 2 1.0280576102809651e+00 -1.8202205135749855e+02 1.0000000000000000e+00 6.2831838732509171e+00 1.5306772811425997e+01 1.6378244468961505e+01 
2 1 2 1.0280576102809649e+00 -1.1551968351158207e+02 1.0000000000000000e+00 6.2831838732509606e+00 1.5306772811426688e+01 1.6378244468962020e+01 
43 1 2 1.0280576102809651e+00 -9.6183693906896053e+01 1.0000000000000000e+00 6.2831838732509171e+00 1.5306772811425997e+01 1.6378244468961505e+01 
41 1 2 1.0280256950259847e+00 -9.6247740585148975e+01 1.0000000000000000e+00 3.4840080585404243e+00 1.6876996982612599e+01 1.3846456751901608e+01 
52 1 2 1.0280256948971849e+00 -6.3862003562901457e+01 1.0000000000000000e+00 3.4840076480705688e+00 1.6876996992545454e+01 1.3846456551861950e+01 
42 1 2 1.0280256950259843e+00 -1.0841020118296170e+02 1.0000000000000000e+00 3.4840080585402515e+00 1.6876996982612607e+01 1.3846456751901524e+01 
48 1 2 1.0280256950259847e+00 -1.4242414831701461e+02 1.0000000000000000e+00 3.4840080585404278e+00 1.6876996982612607e+01 1.3846456751901609e+01 
84 1 2 1.0279339987995253e+00 -1.7325836439970701e+02 1.0000000000000000e+00 5.6276023504996529e+00 1.7083709257041992e+01 1.3779177322723099e+01 
54 1 2 1.0279339987995253e+00 -1.6741939003642301e+02 1.0000000000000000e+00 5.6276023504996529e+00 1.7083709257041992e+01 1.3779177322723099e+01 
89 1 2 1.0279339987995253e+00 -1.7875330529636770e+02 1.0000000000000000e+00 5.6276023504996529e+00 1.7083709257041992e+01 1.3779177322723099e+01 
90 1 2 1.0279339987995253e+00 -1.5866329237219301e+02 1.0000000000000000e+00 5.6276023504996529e+00 1.7083709257041992e+01 1.3779177322723099e+01 
83 1 2 1.0279339987995253e+00 -1.6462845593946443e+02 1.0000000000000000e+00 5.6276023504996529e+00 1.7083709257041992e+01 1.3779177322723099e+01 
3 1 2 1.0280411752484737e+00 -1.3615742345499660e+02 1.0000000000000000e+00 4.3235297440642739e+00 1.8830153860617262e+01 1.5605469891749399e+01 
10 1 2 1.0280411752484737e+00 -1.1976851487719976e+02 1.0000000000000000e+00 4.3235297440642739e+00 1.8830153860617262e+01 1.5605469891749399e+01 
4 1 2 1.0280411752484737e+00 -6.2753876940548366e+01 1.0000000000000000e+00 4.3235297440642739e+00 1.8830153860617262e+01 1.5605469891749399e+01 
5 1 2 1.0280411752484737e+00 -6.4242509254211541e+01 1.0000000000000000e+00 4.3235297440642739e+00 1.8830153860617262e+01 1.5605469891749399e+01 
9 1 2 1.0280411752484737e+00 -1.5179365908510073e+02 1.0000000000000000e+00 4.3235297440642739e+00 1.8830153860617262e+01 1.5605469891749399e+01 
53 1 2 1.0279858636136046e+00 -1.1020172112696034e+02 1.0000000000000000e+00 4.8698340578363579e+00 1.9640552371949550e+01 1.7475843288950209e+01 
19 1 2 1.0280678507095282e+00 -1.9564795773854715e+02 1.0000000000000000e+00 6.0432327534600612e+00 1.8214039612379224e+01 1.9041047168953916e+01 
13 1 2 1.0280678507095282e+00 -1.8106438281165404e+02 1.0000000000000000e+00 6.0432327534600612e+00 1.8214039612379224e+01 1.9041047168953916e+01 
55 1 2 1.0280678507095282e+00 -2.0452984320853477e+02 1.0000000000000000e+00 6.0432327534600612e+00 1.8214039612379224e+01 1.9041047168953916e+01 
14 1 2 1.0280678507095282e+00 -1.6939919413349708e+02 1.0000000000000000e+00 6.0432327534600612e+00 1.8214039612379224e+01 1.9041047168953916e+01 
25 1 2 1.0280678507095282e+00 -1.5020534532828924e+02 1.0000000000000000e+00 6.0432327534600612e+00 1.8214039612379224e+01 1.9041047168953916e+01 
12 1 2 1.0279871712905120e+00 -1.3831150494692366e+02 1.0000000000000000e+00 5.1178862985614106e+00 1.9753009871573976e+01 1.7072781958787644e+01 
47 1 2 1.0279812930713841e+00 -1.1007414371618343e+02 1.0000000000000000e+00 4.8962347623306917e+00 1.9669434707226362e+01 1.7440471981940235e+01 
11 1 2 1.0279685279724198e+00 -1.4200503013086561e+02 1.0000000000000000e+00 5.0087207017215558e+00 1.9744999202340704e+01 1.7275175880172384e+01 
46 1 2 1.0279860920962391e+00 -1.0213847966224078e+02 1.0000000000000000e+00 4.8683714899954635e+00 1.9638984863032523e+01 1.7477508401158573e+01 
58 1 2 1.0279655691923941e+00 -1.6750374974613513e+02 1.0000000000000000e+00 7.7472235157389102e+00 1.2827688487227458e+00 1.2521688638134105e+01 
62 1 2 1.0280325876553851e+00 -2.0715782380215757e+02 1.0000000000000000e+00 7.9914228046302824e+00 1.0521029459128990e+00 1.2603118117361387e+01 
160 1 2 1.0280007192352343e+00 -1.1594591546312485e+02 1.0000000000000000e+00 8.6135714747457222e+00 9.5499925260351370e-01 1.1424470212038658e+01 
173 1 2 1.0280007192352241e+00 -1.6766161303049006e+02 1.0000000000000000e+00 8.6135714749450614e+00 9.5499925244691031e-01 1.1424470212144369e+01 
167 1 2 1.0280007192352258e+00 -2.2689627689339179e+02 1.0000000000000000e+00 8.6135714748905912e+00 9.5499925248720929e-01 1.1424470212115786e+01 
166 1 2 1.0280007192352261e+00 -2.2421217524500611e+02 1.0000000000000000e+00 8.6135714748901933e+00 9.5499925249232509e-01 1.1424470212114986e+01 
161 1 2 1.0280007192352276e+00 -1.8270933544266205e+02 1.0000000000000000e+00 8.6135714748529892e+00 9.5499925251318474e-01 1.1424470212096281e+01 
68 1 2 1.0280051260782006e+00 -1.8667197252047455e+02 1.0000000000000000e+00 8.6857000197752452e+00 9.2980469679111877e-01 1.2231049918372287e+01 
23 1 2 1.0280070402042878e+00 -2.0118485615649845e+02 1.0000000000000000e+00 8.1310847703442164e+00 2.7362275907400986e+00 1.4986171659644738e+01 
65 1 2 1.0280103155430378e+00 -1.4602708487385709e+02 1.0000000000000000e+00 7.9653941271963049e+00 2.8150227174156606e+00 1.4672055724664002e+01 
102 1 2 1.0280103155430385e+00 -1.7964332809799211e+02 1.0000000000000000e+00 7.9653941271962490e+00 2.8150227174158244e+00 1.4672055724664007e+01 
66 1 2 1.0280103155430385e+00 -1.8106098712506818e+02 1.0000000000000000e+00 7.9653941271962490e+00 2.8150227174158244e+00 1.4672055724664007e+01 
59 1 2 1.0279848329199273e+00 -1.6302134277422340e+02 1.0000000000000000e+00 7.0942595466170717e+00 1.3816286707913308e+00 1.3932992994369059e+01 
29 1 2 1.0280008017642546e+00 -1.2834195472739333e+02 1.0000000000000000e+00 6.6930234933853434e+00 2.9889893931216442e+00 1.5408393020686946e+01 
64 1 2 1.0279913341848321e+00 -1.8025872685314329e+02 1.0000000000000000e+00 7.9486810745497314e+00 3.4522337656628963e+00 1.6965937218129209e+01 
106 1 2 1.0279913341848321e+00 -1.2582931650108249e+02 1.0000000000000000e+00 7.9486810745497314e+00 3.4522337656628963e+00 1.6965937218129209e+01 
69 1 2 1.0279913341848321e+00 -1.4370275960402256e+02 1.0000000000000000e+00 7.9486810745497314e+00 3.4522337656628963e+00 1.6965937218129209e+01 
100 1 2 1.0279913341848321e+00 -1.5232260575774168e+02 1.0000000000000000e+00 7.9486810745497314e+00 3.4522337656628963e+00 1.6965937218129209e+01 
70 1 2 1.0279913341848321e+00 -1.3585480927311136e+02 1.0000000000000000e+00 7.9486810745497314e+00 3.4522337656628963e+00 1.6965937218129209e+01 
105 1 2 1.0279913341848321e+00 -1.9505124455111917e+02 1.0000000000000000e+00 7.9486810745497314e+00 3.4522337656628963e+00 1.6965937218129209e+01 
88 1 2 1.0279680412335146e+00 -8.1604006520824512e+01 1.0000000000000000e+00 6.9410172694715717e+00 1.6978358230552107e+01 2.2371713094251788e-01 
94 1 2 1.0279680412335150e+00 -6.9584213481568369e+01 1.0000000000000000e+00 6.9410172694752736e+00 1.6978358230551279e+01 2.2371713094094581e-01 
149 1 2 1.0279957991740636e+00 -1.1907735919273330e+02 1.0000000000000000e+00 9.8728816477105443e+00 1.8691262472028122e+01 3.9567538935669877e-01 
179 1 2 1.0279957991740636e+00 -1.3269160440462386e+02 1.0000000000000000e+00 9.8728816477250980e+00 1.8691262471990711e+01 3.9567538932567686e-01 
172 1 2 1.0279987644565429e+00 -2.8277477575553456e+02 1.0000000000000000e+00 9.0734385894516301e+00 1.8905131308819339e+01 7.8610781544172992e-01 
178 1 2 1.0279988597049574e+00 -2.5372611866110032e+02 1.0000000000000000e+00 9.0629866624314310e+00 1.8901400796650751e+01 7.8392943779357349e-01 
171 1 2 1.0279933746449339e+00 -2.6057718986314785e+02 1.0000000000000000e+00 9.4240489901283091e+00 1.9104398820371554e+01 5.8985364687773345e-01 
177 1 2 1.0279938817165486e+00 -2.6450017509942387e+02 1.0000000000000000e+00 9.3789714321721753e+00 1.9096480015940877e+01 6.2693398502550934e-01 
134 1 2 1.0279939520958536e+00 -1.2641705323756048e+02 1.0000000000000000e+00 9.2873311141801160e+00 1.9108944816790540e+01 5.9287539777668252e-01 
82 1 2 1.0280069758427113e+00 -2.0093573152508631e+02 1.0000000000000000e+00 7.9277384616041191e+00 1.7568613243171470e+01 1.3970557564646599e+01 
117 1 2 1.0280027953223914e+00 -2.0440298695270056e+02 1.0000000000000000e+00 7.8735377309502574e+00 1.7573125990418109e+01 1.3988826047352461e+01 
111 1 2 1.0280025072887697e+00 -1.7037699298125528e+02 1.0000000000000000e+00 7.8672594707421597e+00 1.7575049932913505e+01 1.3990896378794606e+01 
45 1 2 1.0280592330279101e+00 -1.4548100739274238e+02 1.0000000000000000e+00 8.1106535927228567e+00 1.7711538574876506e+01 1.4847535778043563e+01 
86 1 2 1.0279499331625030e+00 -1.3204428863383876e+02 1.0000000000000000e+00 9.3608681906688265e+00 1.7995954038195769e+01 1.4670569777142584e+01 
87 1 2 1.0279499331674820e+00 -1.1077362549686431e+02 1.0000000000000000e+00 9.3608681787242798e+00 1.7995954058401079e+01 1.4670569794820851e+01 
80 1 2 1.0279499331634041e+00 -1.2483264052611094e+02 1.0000000000000000e+00 9.3608681879948250e+00 1.7995954041136883e+01 1.4670569782443255e+01 
123 1 2 1.0279499331690023e+00 -1.0846087505233314e+02 1.0000000000000000e+00 9.3608681748451801e+00 1.7995954064364543e+01 1.4670569801070208e+01 
81 1 2 1.0279735284061799e+00 -1.6926102100331522e+02 1.0000000000000000e+00 9.2800487738006829e+00 1.8056067521357249e+01 1.4778769011479637e+01 
120 1 2 1.0277794684250758e+00 -2.3646674324595375e+02 1.0000000000000000e+00 1.2581881871977142e+01 1.8235530648494272e+01 1.4516819145835578e+01 
78 1 2 1.0277996723133380e+00 -1.6297734897694477e+02 1.0000000000000000e+00 1.2585498254435626e+01 1.8232498584874374e+01 1.4509574670185966e+01 
77 1 2 1.0277996220060150e+00 -1.2767169318454793e+02 1.0000000000000000e+00 1.2585489265761309e+01 1.8232505751499307e+01 1.4509589393690666e+01 
113 1 2 1.0277995573254382e+00 -1.9579427802581503e+02 1.0000000000000000e+00 1.2585476974825470e+01 1.8232517102157626e+01 1.4509607165382970e+01 
15 1 2 1.0282178875664749e+00 -1.5420018156047962e+02 1.0000000000000000e+00 1.2846435399038056e+01 1.8229756422464174e+01 1.4502232723026376e+01 
50 1 2 1.0282178875664758e+00 -1.2511963242180543e+02 1.0000000000000000e+00 1.2846435399040098e+01 1.8229756422465098e+01 1.4502232723028207e+01 
51 1 2 1.0282178875664749e+00 -1.5426563351854884e+02 1.0000000000000000e+00 1.2846435399037755e+01 1.8229756422464064e+01 1.4502232723026061e+01 
108 1 2 1.0280084321644622e+00 -1.9017489695556228e+02 1.0000000000000000e+00 8.9748172727660496e+00 1.6697584341991810e+01 1.9156739162643529e+01 
101 1 2 1.0280084321644622e+00 -1.3252321769100681e+02 1.0000000000000000e+00 8.9748172727660496e+00 1.6697584341991810e+01 1.9156739162643529e+01 
144 1 2 1.0280084321644622e+00 -1.8661929786434584e+02 1.0000000000000000e+00 8.9748172727660496e+00 1.6697584341991810e+01 1.9156739162643529e+01 
107 1 2 1.0280084321644622e+00 -2.1314789238820759e+02 1.0000000000000000e+00 8.9748172727660496e+00 1.6697584341991810e+01 1.9156739162643529e+01 
143 1 2 1.0280084321644622e+00 -1.6234212524525230e+02 1.0000000000000000e+00 8.9748172727660496e+00 1.6697584341991810e+01 1.9156739162643529e+01 
137 1 2 1.0280084321644622e+00 -2.0260157036363984e+02 1.0000000000000000e+00 8.9748172727660496e+00 1.6697584341991810e+01 1.9156739162643529e+01 
92 1 2 1.0280165505103125e+00 -1.4051042247942581e+02 1.0000000000000000e+00 1.6042717195590587e+01 1.5429323348500554e+00 1.4320644556818031e+01 
99 1 2 1.0280165505103129e+00 -1.6209478085661442e+02 1.0000000000000000e+00 1.6042717195590633e+01 1.5429323348500916e+00 1.4320644556818067e+01 
93 1 2 1.0280165505103125e+00 -1.8842054678299260e+02 1.0000000000000000e+00 1.6042717195590551e+01 1.5429323348500301e+00 1.4320644556818010e+01 
98 1 2 1.0280165505103125e+00 -1.9201721077436892e+02 1.0000000000000000e+00 1.6042717195590551e+01 1.5429323348500301e+00 1.4320644556818010e+01 
138 1 2 1.0280064871813936e+00 -1.8854957075649335e+02 1.0000000000000000e+00 1.6005460578903818e+01 5.2989954152705587e-01 1.5813594045284880e+01 
168 1 2 1.0279789595170448e+00 -2.3528619180217567e+02 1.0000000000000000e+00 1.4966955237609961e+01 1.4984085062817007e-01 1.5313639134633920e+01 
162 1 2 1.0279743484798667e+00 -2.0607539163616525e+02 1.0000000000000000e+00 1.4957909046959006e+01 9.5101522217595449e-02 1.5304765671313545e+01 
126 1 2 1.0279713864360098e+00 -2.1142187214395213e+02 1.0000000000000000e+00 1.4950449834712403e+01 6.6933577529887295e-02 1.5293813007859320e+01 
132 1 2 1.0282631669216156e+00 -2.4242502300351856e+02 1.0000000000000000e+00 1.8276215591854477e+01 1.1213521816447956e+00 1.4701435084911946e+01 
127 1 2 1.0278913757086978e+00 -1.3641917749947910e+02 1.0000000000000000e+00 1.8106066850670697e+01 1.2746492012699269e+00 1.4469493448281856e+01 
85 1 2 1.0278913757086983e+00 -1.5600163281647403e+02 1.0000000000000000e+00 1.8106066850670704e+01 1.2746492012699302e+00 1.4469493448281858e+01 
91 1 2 1.0278913757086978e+00 -1.1182331109627496e+02 1.0000000000000000e+00 1.8106066850670697e+01 1.2746492012699266e+00 1.4469493448281856e+01 
1 1 2 1.0279898802551177e+00 -1.6682404949433771e+01 1.0000000000000000e+00 1.9752789815129351e+01 1.3078802099901656e+00 1.4148646713880572e+01 
170 1 2 1.0279908227733936e+00 -2.2994483320103430e+02 1.0000000000000000e+00 1.9492317598930136e+01 1.6739554033958694e+01 4.4971664556470374e+00 
139 1 2 1.0279908227733936e+00 -2.6383354217056279e+02 1.0000000000000000e+00 1.9492317598930136e+01 1.6739554033958694e+01 4.4971664556470374e+00 
176 1 2 1.0279908227733936e+00 -2.0252298665789903e+02 1.0000000000000000e+00 1.9492317598930136e+01 1.6739554033958694e+01 4.4971664556470374e+00 
169 1 2 1.0279908227733936e+00 -1.6193323205806107e+02 1.0000000000000000e+00 1.9492317598930136e+01 1.6739554033958694e+01 4.4971664556470374e+00 
175 1 2 1.0279908227733936e+00 -2.4767262065635583e+02 1.0000000000000000e+00 1.9492317598930136e+01 1.6739554033958694e+01 4.4971664556470374e+00 
163 1 2 1.0279908227733936e+00 -1.4939719155889242e+02 1.0000000000000000e+00 1.9492317598930136e+01 1.6739554033958694e+01 4.4971664556470374e+00 
133 1 2 1.0279908227733936e+00 -2.4491163327296482e+02 1.0000000000000000e+00 1.9492317598930136e+01 1.6739554033958694e+01 4.4971664556470374e+00 
131 1 2 1.0280062602910502e+00 -1.8225684160896930e+02 1.0000000000000000e+00 1.6258085310101485e+01 1.9286236517236322e+01 1.4873476973598171e+01 
125 1 2 1.0280055015948231e+00 -1.5029898375386978e+02 1.0000000000000000e+00 1.6234233881772596e+01 1.9279950566299238e+01 1.4871181642158481e+01 
95 1 2 1.0280069429555525e+00 -1.8290844870186555e+02 1.0000000000000000e+00 1.6280313827820336e+01 1.9292539944775928e+01 1.4875141030531843e+01 
96 1 2 1.0280065074690505e+00 -1.7294420932117859e+02 1.0000000000000000e+00 1.6265586646752297e+01 1.9288392657912073e+01 1.4873131294558242e+01 

Velocities

122 1.9302447305092088e-01 3.0963781974011850e-01 -5.1371513107552502e-02
151 1.9302447297925307e-01 3.0963781967410736e-01 -5.1371513163964315e-02
157 1.9302447322568470e-01 3.0963781986239453e-01 -5.1371512952693182e-02
158 1.9302447329305664e-01 3.0963781992706046e-01 -5.1371512900648404e-02
121 1.9302447312336143e-01 3.0963781978935562e-01 -5.1371513042633932e-02
22 1.9281593233696340e-01 3.0998044122913510e-01 -5.1750653645526432e-02
28 1.9295734413754029e-01 3.1011472507637794e-01 -5.1402380384952706e-02
34 1.9295734413754029e-01 3.1011472507637794e-01 -5.1402380384952706e-02
114 1.9228886624408320e-01 3.1058028892886391e-01 -5.1784902117251626e-02
150 1.9230929242559858e-01 3.1063888212417151e-01 -5.1751757965245143e-02
26 1.9230254957077689e-01 3.1076796457727607e-01 -5.1661332926626231e-02
32 1.9229492206175533e-01 3.1077138347806438e-01 -5.1647803371340444e-02
180 1.9231172123328097e-01 3.1087444365545724e-01 -5.1524507063118577e-02
174 1.9231172123328094e-01 3.1087444365545752e-01 -5.1524507063118140e-02
33 1.9229374096372415e-01 3.1077177652828963e-01 -5.1646186952493144e-02
16 1.9318763353149959e-01 3.0772733451633416e-01 -5.1145251936395096e-02
39 1.9322182686137759e-01 3.0772053576337982e-01 -5.1139853989885922e-02
40 1.9322235433920040e-01 3.0772058232300820e-01 -5.1139525050233087e-02
75 1.9322788000424712e-01 3.0771922369883487e-01 -5.1137178308628954e-02
76 1.9322296580149850e-01 3.0772049487615671e-01 -5.1139245596322096e-02
142 1.8570337576876850e-01 3.3215064676672673e-01 -5.5898927710655112e-02
49 1.8601839142349505e-01 3.3182688417260503e-01 -5.5608514042534689e-02
136 1.8581369760001332e-01 3.3193779559491948e-01 -5.5933499937948397e-02
156 1.8596961915336344e-01 3.3181123746196756e-01 -5.5642217150285667e-02
141 1.8582725000141981e-01 3.3206045657376876e-01 -5.5901082010638467e-02
140 1.8581733132468978e-01 3.3206046952118506e-01 -5.5903915066694711e-02
135 1.8583790912940429e-01 3.3205496936212636e-01 -5.5883614054748877e-02
57 1.8566569449989781e-01 3.3210172186950437e-01 -5.5931504114183413e-02
56 1.8566557098630840e-01 3.3210350643632697e-01 -5.5932097510775887e-02
155 1.8558333022831416e-01 3.3203775126987956e-01 -5.5849680545665303e-02
112 1.8558333022831802e-01 3.3203775126987878e-01 -5.5849680545669779e-02
118 1.8558333022831894e-01 3.3203775126988189e-01 -5.5849680545658857e-02
154 1.8558333022831416e-01 3.3203775126987956e-01 -5.5849680545665303e-02
119 1.8558333022830908e-01 3.3203775126988100e-01 -5.5849680545656324e-02
124 1.8558333022831766e-01 3.3203775126988022e-01 -5.5849680545664422e-02
148 1.8558333022831766e-01 3.3203775126988017e-01 -5.5849680545664415e-02
71 1.8560510304493485e-01 3.3220709835962059e-01 -5.6036974570239942e-02
36 1.8560510304493485e-01 3.3220709835962059e-01 -5.6036974570239942e-02
72 1.8560510304493485e-01 3.3220709835962059e-01 -5.6036974570239942e-02
35 1.8560510304493485e-01 3.3220709835962059e-01 -5.6036974570239942e-02
6 1.8560510304493485e-01 3.3220709835962059e-01 -5.6036974570239942e-02
27 1.8572999468530130e-01 3.3208172087176246e-01 -5.6095451970919821e-02