LAMMPS data file via write_data, version 30 Jul 2016, timestep = 50400000

180 atoms
2 atom types

0.0000000000000000e+00 2.0000000000000000e+01 xlo xhi
0.0000000000000000e+00 2.0000000000000000e+01 ylo yhi
0.0000000000000000e+00 2.0000000000000000e+01 zlo zhi

Masses

1 3.896
2 4.31

Atoms # meso-molecular

126 1 2 1.0280032832689487e+00 -2.1142136771656357e+02 1.0000000000000000e+00 2.5369500312553575e+00 1.2747188911477627e+01 1.3170025144930673e+01 
162 1 2 1.0280033584043407e+00 -2.0607490962995880e+02 1.0000000000000000e+00 2.5443843934031123e+00 1.2774903431734897e+01 1.3181207040379437e+01 
168 1 2 1.0280035089041692e+00 -2.3528574589620271e+02 1.0000000000000000e+00 2.5534015733156061e+00 1.2828917176363392e+01 1.3190493445601364e+01 
15 1 2 1.0279742169490382e+00 -1.5419973917613964e+02 1.0000000000000000e+00 3.6751973924298192e-01 1.1003323025643645e+01 1.2350294449411651e+01 
51 1 2 1.0279742169490385e+00 -1.5426519113420886e+02 1.0000000000000000e+00 3.6751973924267678e-01 1.1003323025643533e+01 1.2350294449411324e+01 
50 1 2 1.0279742169490373e+00 -1.2511919003746216e+02 1.0000000000000000e+00 3.6751973924506198e-01 1.1003323025644560e+01 1.2350294449413573e+01 
78 1 2 1.0280328940056500e+00 -1.6297680123858339e+02 1.0000000000000000e+00 1.0333069433717745e-01 1.1013005515162810e+01 1.2357867862601188e+01 
113 1 2 1.0280328689153451e+00 -1.9579373027467372e+02 1.0000000000000000e+00 1.0331150887535204e-01 1.1013024784985914e+01 1.2357900142231106e+01 
77 1 2 1.0280328829789021e+00 -1.2767114544079062e+02 1.0000000000000000e+00 1.0332261299566863e-01 1.1013013025826968e+01 1.2357882481027579e+01 
120 1 2 1.0280283087494024e+00 -2.3646619315714676e+02 1.0000000000000000e+00 1.0009541243590116e-01 1.1016159432867024e+01 1.2365011371778852e+01 
125 1 2 1.0279934866294598e+00 -1.5029891599320382e+02 1.0000000000000000e+00 3.8236214168134999e+00 1.1951986787270098e+01 1.2751521625566760e+01 
96 1 2 1.0279933398856085e+00 -1.7294414916010135e+02 1.0000000000000000e+00 3.8549811385271804e+00 1.1960164490692875e+01 1.2753504657530772e+01 
131 1 2 1.0279933746401797e+00 -1.8225677975331348e+02 1.0000000000000000e+00 3.8474780524709846e+00 1.1958071338792264e+01 1.2753840445498220e+01 
95 1 2 1.0279932691675073e+00 -1.8290839172719183e+02 1.0000000000000000e+00 3.8697071944686741e+00 1.1964194996363219e+01 1.2755525965355341e+01 
132 1 2 1.0280483236462061e+00 -2.4242493860480332e+02 1.0000000000000000e+00 5.8785132638296869e+00 1.3773717311610252e+01 1.2589617558881997e+01 
98 1 2 1.0280019564011369e+00 -1.9201719128200617e+02 1.0000000000000000e+00 3.6357675199216715e+00 1.4210898116835832e+01 1.2200642806029107e+01 
93 1 2 1.0280019564011369e+00 -1.8842052729062985e+02 1.0000000000000000e+00 3.6357675199216715e+00 1.4210898116835832e+01 1.2200642806029107e+01 
99 1 2 1.0280019564011369e+00 -1.6209476136425167e+02 1.0000000000000000e+00 3.6357675199217550e+00 1.4210898116835892e+01 1.2200642806029162e+01 
92 1 2 1.0280019564011371e+00 -1.4051040298706306e+02 1.0000000000000000e+00 3.6357675199217114e+00 1.4210898116835857e+01 1.2200642806029128e+01 
91 1 2 1.0279871031910552e+00 -1.1182327276673362e+02 1.0000000000000000e+00 5.7048741370249436e+00 1.3934818259402073e+01 1.2355717174619135e+01 
85 1 2 1.0279871031910552e+00 -1.5600159448692884e+02 1.0000000000000000e+00 5.7048741370249507e+00 1.3934818259402075e+01 1.2355717174619137e+01 
127 1 2 1.0279871031910552e+00 -1.3641913916993391e+02 1.0000000000000000e+00 5.7048741370249436e+00 1.3934818259402073e+01 1.2355717174619135e+01 
138 1 2 1.0279994031938766e+00 -1.8854954124328677e+02 1.0000000000000000e+00 3.5954638980203764e+00 1.3198566570242200e+01 1.3694407870273194e+01 
139 1 2 1.0279930517910998e+00 -2.6383353257991899e+02 1.0000000000000000e+00 6.9685004565445388e+00 9.9482532693511345e+00 2.2755522075622516e+00 
169 1 2 1.0279930517910998e+00 -1.6193322246687177e+02 1.0000000000000000e+00 6.9685004565445388e+00 9.9482532693511345e+00 2.2755522075622516e+00 
175 1 2 1.0279930517910998e+00 -2.4767261106516654e+02 1.0000000000000000e+00 6.9685004565445388e+00 9.9482532693511345e+00 2.2755522075622516e+00 
163 1 2 1.0279930517910998e+00 -1.4939718196770312e+02 1.0000000000000000e+00 6.9685004565445388e+00 9.9482532693511345e+00 2.2755522075622516e+00 
170 1 2 1.0279930517910998e+00 -2.2994482360984500e+02 1.0000000000000000e+00 6.9685004565445388e+00 9.9482532693511345e+00 2.2755522075622516e+00 
133 1 2 1.0279930517910998e+00 -2.4491162368177552e+02 1.0000000000000000e+00 6.9685004565445388e+00 9.9482532693511345e+00 2.2755522075622516e+00 
176 1 2 1.0279930517910998e+00 -2.0252297706670973e+02 1.0000000000000000e+00 6.9685004565445388e+00 9.9482532693511345e+00 2.2755522075622516e+00 
109 1 2 1.0280014977453014e+00 -2.0149147527201015e+02 1.0000000000000000e+00 1.1013086013717935e+01 8.2428454475679054e+00 9.4156562711114891e+00 
145 1 2 1.0279972040381009e+00 7.0231552286712402e+00 1.0000000000000000e+00 1.0591098161280609e+01 9.6057780652227915e+00 6.7353370314007464e+00 
74 1 2 1.0280014977453014e+00 -2.0567609878868834e+02 1.0000000000000000e+00 1.1013086013717935e+01 8.2428454475679054e+00 9.4156562711114891e+00 
110 1 2 1.0280014977453014e+00 -2.0397607407717535e+02 1.0000000000000000e+00 1.1013086013717935e+01 8.2428454475679054e+00 9.4156562711114891e+00 
73 1 2 1.0280014977453014e+00 -2.5348952365857701e+02 1.0000000000000000e+00 1.1013086013717935e+01 8.2428454475679054e+00 9.4156562711114891e+00 
79 1 2 1.0280014977453014e+00 -2.2723922462767288e+02 1.0000000000000000e+00 1.1013086013717935e+01 8.2428454475679054e+00 9.4156562711114891e+00 
115 1 2 1.0280014977453014e+00 -2.3831944781332928e+02 1.0000000000000000e+00 1.1013086013717935e+01 8.2428454475679054e+00 9.4156562711114891e+00 
164 1 2 1.0280021283959053e+00 -1.7747054076672273e+02 1.0000000000000000e+00 8.7791973388304800e+00 9.3648073892049304e+00 1.0319416605318102e+01 
128 1 2 1.0279991834398226e+00 -1.7698257789503236e+02 1.0000000000000000e+00 8.7658028407532438e+00 9.4671591164513043e+00 1.0485273824903340e+01 
130 1 2 1.0279926785818245e+00 -1.7629130711581439e+02 1.0000000000000000e+00 8.8031448303351247e+00 9.6574175336370978e+00 1.0701107637902593e+01 
129 1 2 1.0279933025161918e+00 -2.0654991665500111e+02 1.0000000000000000e+00 8.7922258238143058e+00 9.6964720202037373e+00 1.0655704403498531e+01 
159 1 2 1.0279874312150952e+00 -1.5956184151923097e+02 1.0000000000000000e+00 8.9136078397091136e+00 9.8363369503434939e+00 1.0857374829590842e+01 
165 1 2 1.0279883986238201e+00 -1.6848629505396497e+02 1.0000000000000000e+00 8.8993941277885735e+00 9.8731766527779143e+00 1.0800528494959611e+01 
41 1 2 1.0280174399650228e+00 -9.6247649399374723e+01 1.0000000000000000e+00 1.0993452138381340e+01 9.9434873239513628e+00 1.1620043075464505e+01 
52 1 2 1.0280174399399995e+00 -6.3861912377041250e+01 1.0000000000000000e+00 1.0993451722725288e+01 9.9434873411753397e+00 1.1620042869476812e+01 
48 1 2 1.0280174399650224e+00 -1.4242405713115448e+02 1.0000000000000000e+00 1.0993452138381345e+01 9.9434873239513699e+00 1.1620043075464508e+01 
42 1 2 1.0280174399650226e+00 -1.0841010999718745e+02 1.0000000000000000e+00 1.0993452138381166e+01 9.9434873239513717e+00 1.1620043075464420e+01 
61 1 2 1.0279954035314114e+00 -2.8388949568049793e+02 1.0000000000000000e+00 1.1004636045376586e+01 1.2696937977355978e+01 2.7440531279101785e+00 
103 1 2 1.0279954035314112e+00 -2.4458620908009644e+02 1.0000000000000000e+00 1.1004636045325885e+01 1.2696937977356617e+01 2.7440531279298006e+00 
67 1 2 1.0279954035314112e+00 -3.1655176747131844e+02 1.0000000000000000e+00 1.1004636045325885e+01 1.2696937977356617e+01 2.7440531279298006e+00 
31 1 2 1.0279954035314114e+00 -1.6742110227117590e+02 1.0000000000000000e+00 1.1004636045376586e+01 1.2696937977355978e+01 2.7440531279101785e+00 
97 1 2 1.0279954035314114e+00 -2.9247525818832349e+02 1.0000000000000000e+00 1.1004636045325890e+01 1.2696937977356617e+01 2.7440531279297926e+00 
104 1 2 1.0279954035314114e+00 -2.4061920114539694e+02 1.0000000000000000e+00 1.1004636045325890e+01 1.2696937977356617e+01 2.7440531279297926e+00 
56 1 2 1.0279942536391744e+00 -1.5491569858542692e+02 1.0000000000000000e+00 1.2247150027296271e+01 1.1053295319110479e+01 1.0410370230629220e+00 
57 1 2 1.0279937879715397e+00 -1.7859949446578551e+02 1.0000000000000000e+00 1.2248190904491045e+01 1.1052787969802726e+01 1.0270590087183020e+00 
140 1 2 1.0280002416337672e+00 -1.7624064921837513e+02 1.0000000000000000e+00 1.2861020219214891e+01 1.0735793546481906e+01 2.4493611104579527e-01 
141 1 2 1.0280034318496485e+00 -2.2289762651321004e+02 1.0000000000000000e+00 1.2887040028866611e+01 1.0726184631708595e+01 2.1945652435431157e-01 
21 1 2 1.0280170532774331e+00 -1.7369420989840441e+02 1.0000000000000000e+00 1.1081632959477959e+01 1.0231961101100000e+01 3.0511258577623024e+00 
20 1 2 1.0280169094938123e+00 -2.0703071382518817e+02 1.0000000000000000e+00 1.1089089932446072e+01 1.0229395369201431e+01 3.0403347898546493e+00 
142 1 2 1.0279819052222237e+00 -2.1918906997275087e+02 1.0000000000000000e+00 1.1804850299911712e+01 1.0054120066276385e+01 4.9607656807123179e-01 
71 1 2 1.0280040683140161e+00 -1.8858857363850063e+02 1.0000000000000000e+00 1.0071209837791484e+01 1.0036711337338396e+01 1.5211643087899280e+00 
36 1 2 1.0280040683140161e+00 -2.3551140036390547e+02 1.0000000000000000e+00 1.0071209837791484e+01 1.0036711337338396e+01 1.5211643087899280e+00 
72 1 2 1.0280040683140161e+00 -1.9374774439416450e+02 1.0000000000000000e+00 1.0071209837791484e+01 1.0036711337338396e+01 1.5211643087899280e+00 
35 1 2 1.0280040683140161e+00 -2.1791213847948734e+02 1.0000000000000000e+00 1.0071209837791484e+01 1.0036711337338396e+01 1.5211643087899280e+00 
6 1 2 1.0280040683140161e+00 -1.7548911520157043e+02 1.0000000000000000e+00 1.0071209837791484e+01 1.0036711337338396e+01 1.5211643087899280e+00 
27 1 2 1.0279978325157997e+00 -2.0971673685895632e+02 1.0000000000000000e+00 1.0485594459530617e+01 1.0754262173245090e+01 3.6583742671387189e+00 
63 1 2 1.0279799277071282e+00 -2.2028953715675175e+02 1.0000000000000000e+00 1.0672451360718435e+01 1.0808266896370469e+01 3.8052277092266045e+00 
18 1 2 1.0280081817488942e+00 -1.8530405355645806e+02 1.0000000000000000e+00 1.0882802434429934e+01 1.0302899757285019e+01 5.8164500188812607e+00 
30 1 2 1.0280081817488942e+00 -1.3162946532749442e+02 1.0000000000000000e+00 1.0882802434429934e+01 1.0302899757285019e+01 5.8164500188812607e+00 
60 1 2 1.0280081817488942e+00 -1.9927014579749982e+02 1.0000000000000000e+00 1.0882802434429934e+01 1.0302899757285019e+01 5.8164500188812607e+00 
24 1 2 1.0280081817488942e+00 -1.7361705298575697e+02 1.0000000000000000e+00 1.0882802434429934e+01 1.0302899757285019e+01 5.8164500188812607e+00 
17 1 2 1.0280146099843610e+00 -1.8852499762546310e+02 1.0000000000000000e+00 1.0874209271224482e+01 1.0145555132235103e+01 5.8354115357810077e+00 
116 1 2 1.0279954846108983e+00 -1.8219225854331685e+02 1.0000000000000000e+00 9.8805929241334933e+00 1.0298497432975555e+01 8.0570752394602714e+00 
147 1 2 1.0279954846108985e+00 -2.4543352380075882e+02 1.0000000000000000e+00 9.8805929241335306e+00 1.0298497432975593e+01 8.0570752394601861e+00 
146 1 2 1.0279954846108981e+00 -2.4201833801840590e+02 1.0000000000000000e+00 9.8805929241330279e+00 1.0298497432975342e+01 8.0570752394595271e+00 
152 1 2 1.0279954846108983e+00 -2.5663724873646197e+02 1.0000000000000000e+00 9.8805929241334933e+00 1.0298497432975555e+01 8.0570752394602714e+00 
153 1 2 1.0279954846108981e+00 -2.3290673364191917e+02 1.0000000000000000e+00 9.8805929241330279e+00 1.0298497432975342e+01 8.0570752394595271e+00 
89 1 2 1.0279688009785339e+00 -1.7875310724569252e+02 1.0000000000000000e+00 1.3127242817072569e+01 1.0123259795467714e+01 1.1564631866258754e+01 
83 1 2 1.0279688009785339e+00 -1.6462825788878925e+02 1.0000000000000000e+00 1.3127242817072569e+01 1.0123259795467714e+01 1.1564631866258754e+01 
90 1 2 1.0279688009785339e+00 -1.5866309432151783e+02 1.0000000000000000e+00 1.3127242817072569e+01 1.0123259795467714e+01 1.1564631866258754e+01 
84 1 2 1.0279688009785339e+00 -1.7325816634903182e+02 1.0000000000000000e+00 1.3127242817072569e+01 1.0123259795467714e+01 1.1564631866258754e+01 
54 1 2 1.0279688009785339e+00 -1.6741919198574783e+02 1.0000000000000000e+00 1.3127242817072569e+01 1.0123259795467714e+01 1.1564631866258754e+01 
1 1 2 1.0280003432194953e+00 -1.6682378230979381e+01 1.0000000000000000e+00 7.3511530769585551e+00 1.3968485165094529e+01 1.2035083286360948e+01 
180 1 2 1.0279742678578236e+00 -9.6695928843660738e+01 1.0000000000000000e+00 7.7532958744239791e+00 1.4006163582042296e+01 1.2055976302318616e+01 
174 1 2 1.0279742678578234e+00 -9.2209845269375109e+01 1.0000000000000000e+00 7.7532958744241043e+00 1.4006163582042294e+01 1.2055976302318632e+01 
22 1 2 1.0280099744514399e+00 -1.9617825216310496e+02 1.0000000000000000e+00 1.0174167606790922e+01 1.4520584774150880e+01 1.2278894269732689e+01 
28 1 2 1.0280675905820800e+00 -8.4908787779843379e+01 1.0000000000000000e+00 1.0270782570737735e+01 1.4456540374654208e+01 1.2274927709774969e+01 
34 1 2 1.0280675905820800e+00 -8.6748956665752004e+01 1.0000000000000000e+00 1.0270782570737735e+01 1.4456540374654208e+01 1.2274927709774969e+01 
122 1 2 1.0279634503052757e+00 -1.9788263596374253e+02 1.0000000000000000e+00 1.0690424290804378e+01 1.4200143473211737e+01 1.1011812214629797e+01 
151 1 2 1.0279634503243613e+00 -1.9743634962110679e+02 1.0000000000000000e+00 1.0690424502463356e+01 1.4200143496482335e+01 1.1011812217981898e+01 
157 1 2 1.0279634502523847e+00 -2.0560583924747880e+02 1.0000000000000000e+00 1.0690423784343892e+01 1.4200143460434710e+01 1.1011812198891091e+01 
158 1 2 1.0279634502348267e+00 -1.8428976954849182e+02 1.0000000000000000e+00 1.0690423584698214e+01 1.4200143435637958e+01 1.1011812196241349e+01 
121 1 2 1.0279634502831188e+00 -1.7983501427207511e+02 1.0000000000000000e+00 1.0690424081224661e+01 1.4200143469579347e+01 1.1011812207819242e+01 
46 1 2 1.0279730636133246e+00 -1.0213820680187951e+02 1.0000000000000000e+00 1.2368042135433290e+01 1.2763290717290740e+01 1.5274774241765945e+01 
12 1 2 1.0279896406196025e+00 -1.3831053232533935e+02 1.0000000000000000e+00 1.2618215706407289e+01 1.2871186207989625e+01 1.4880159258314517e+01 
11 1 2 1.0279685661161155e+00 -1.4200463509464990e+02 1.0000000000000000e+00 1.2506647958973335e+01 1.2861645769397571e+01 1.5076973191349341e+01 
47 1 2 1.0279693478723091e+00 -1.1007387447702742e+02 1.0000000000000000e+00 1.2395819648973992e+01 1.2791681851774026e+01 1.5238077806022131e+01 
53 1 2 1.0279728697096313e+00 -1.1020144855790892e+02 1.0000000000000000e+00 1.2369502442211715e+01 1.2764762371891299e+01 1.5273117310068034e+01 
9 1 2 1.0280326112104214e+00 -1.5179152520475739e+02 1.0000000000000000e+00 1.1835306759786597e+01 1.1897993440965248e+01 1.3408348955514299e+01 
4 1 2 1.0280326112104214e+00 -6.2751743060198670e+01 1.0000000000000000e+00 1.1835306759786597e+01 1.1897993440965248e+01 1.3408348955514299e+01 
10 1 2 1.0280326112104214e+00 -1.1976638099685077e+02 1.0000000000000000e+00 1.1835306759786597e+01 1.1897993440965248e+01 1.3408348955514299e+01 
3 1 2 1.0280326112104214e+00 -1.3615528957465327e+02 1.0000000000000000e+00 1.1835306759786597e+01 1.1897993440965248e+01 1.3408348955514299e+01 
5 1 2 1.0280326112104214e+00 -6.4240375373862548e+01 1.0000000000000000e+00 1.1835306759786597e+01 1.1897993440965248e+01 1.3408348955514299e+01 
114 1 2 1.0279828701725813e+00 -2.3398920345652766e+02 1.0000000000000000e+00 8.3166472679888468e+00 1.4783251943248370e+01 1.3333891867728166e+01 
150 1 2 1.0279906512646486e+00 -2.1216235053686154e+02 1.0000000000000000e+00 8.1845550439008967e+00 1.4812703359094801e+01 1.3375887073480165e+01 
26 1 2 1.0280053481582858e+00 -1.8661999233052961e+02 1.0000000000000000e+00 7.8130081151856734e+00 1.4711605937985421e+01 1.3530779490103759e+01 
32 1 2 1.0280069610368492e+00 -1.5424779641951787e+02 1.0000000000000000e+00 7.7557391858272613e+00 1.4657269069363672e+01 1.3557289976260659e+01 
33 1 2 1.0280071760248199e+00 -1.6089156315114329e+02 1.0000000000000000e+00 7.7477991603078591e+00 1.4650556768261287e+01 1.3560065935035952e+01 
136 1 2 1.0280545119713465e+00 -2.1505398938667213e+02 1.0000000000000000e+00 1.2755305647174835e+01 1.0314452741430411e+01 1.9726153881334387e+01 
135 1 2 1.0280256044319327e+00 -2.4564102594291541e+02 1.0000000000000000e+00 1.2837636810417770e+01 1.0820132878439987e+01 1.9920755570357027e+01 
148 1 2 1.0280084657366209e+00 -1.0919532664518817e+02 1.0000000000000000e+00 1.3437281994906197e+01 7.8973485908004459e+00 1.8012684721591341e+00 
154 1 2 1.0280084657366209e+00 -1.9912674570141141e+02 1.0000000000000000e+00 1.3437281994892940e+01 7.8973485907936976e+00 1.8012684721576164e+00 
119 1 2 1.0280084657366197e+00 -1.8132115728255960e+02 1.0000000000000000e+00 1.3437281994869064e+01 7.8973485908017320e+00 1.8012684721964227e+00 
118 1 2 1.0280084657366206e+00 -1.6480615666672691e+02 1.0000000000000000e+00 1.3437281994908988e+01 7.8973485908124665e+00 1.8012684721812442e+00 
112 1 2 1.0280084657366222e+00 -1.0797373019230074e+02 1.0000000000000000e+00 1.3437281994909583e+01 7.8973485907910588e+00 1.8012684721366454e+00 
155 1 2 1.0280084657366209e+00 -1.8185730163785746e+02 1.0000000000000000e+00 1.3437281994892940e+01 7.8973485907936976e+00 1.8012684721576164e+00 
124 1 2 1.0280084657366209e+00 -9.4929092924705884e+01 1.0000000000000000e+00 1.3437281994906201e+01 7.8973485908004477e+00 1.8012684721591359e+00 
7 1 2 1.0280239478292217e+00 -1.8294567377879034e+02 1.0000000000000000e+00 1.3766223766066492e+01 8.3447693848897497e+00 1.4173173997932356e+01 
43 1 2 1.0280239478292217e+00 -9.6183669028808623e+01 1.0000000000000000e+00 1.3766223766066492e+01 8.3447693848897497e+00 1.4173173997932356e+01 
2 1 2 1.0280239478292219e+00 -1.1551965863349464e+02 1.0000000000000000e+00 1.3766223766066540e+01 8.3447693848904692e+00 1.4173173997932890e+01 
37 1 2 1.0280239478292219e+00 -1.0921716554990202e+02 1.0000000000000000e+00 1.3766223766066489e+01 8.3447693848898545e+00 1.4173173997932436e+01 
38 1 2 1.0280239478292219e+00 -1.2611126340515985e+02 1.0000000000000000e+00 1.3766223766066540e+01 8.3447693848904692e+00 1.4173173997932890e+01 
8 1 2 1.0280239478292219e+00 -1.9638059315236694e+02 1.0000000000000000e+00 1.3766223766066489e+01 8.3447693848898545e+00 1.4173173997932436e+01 
44 1 2 1.0280239478292217e+00 -1.8202202647952433e+02 1.0000000000000000e+00 1.3766223766066492e+01 8.3447693848897497e+00 1.4173173997932356e+01 
108 1 2 1.0280094271466771e+00 -1.9017490161487999e+02 1.0000000000000000e+00 1.6469235890054588e+01 9.8482613442216316e+00 1.6987649209364484e+01 
144 1 2 1.0280094271466771e+00 -1.8661930252366355e+02 1.0000000000000000e+00 1.6469235890054588e+01 9.8482613442216316e+00 1.6987649209364484e+01 
137 1 2 1.0280094271466771e+00 -2.0260157502295755e+02 1.0000000000000000e+00 1.6469235890054588e+01 9.8482613442216316e+00 1.6987649209364484e+01 
101 1 2 1.0280094271466771e+00 -1.3252322235032452e+02 1.0000000000000000e+00 1.6469235890054588e+01 9.8482613442216316e+00 1.6987649209364484e+01 
107 1 2 1.0280094271466771e+00 -2.1314789704752530e+02 1.0000000000000000e+00 1.6469235890054588e+01 9.8482613442216316e+00 1.6987649209364484e+01 
143 1 2 1.0280094271466771e+00 -1.6234212990457002e+02 1.0000000000000000e+00 1.6469235890054588e+01 9.8482613442216316e+00 1.6987649209364484e+01 
160 1 2 1.0279768857818357e+00 -1.1594597525185415e+02 1.0000000000000000e+00 1.6261585728544709e+01 1.3543328168520684e+01 9.3023618635978949e+00 
161 1 2 1.0279768857818377e+00 -1.8270939523135098e+02 1.0000000000000000e+00 1.6261585728650068e+01 1.3543328168432131e+01 9.3023618636537488e+00 
166 1 2 1.0279768857818385e+00 -2.2421223503369504e+02 1.0000000000000000e+00 1.6261585728686580e+01 1.3543328168411673e+01 9.3023618636718410e+00 
167 1 2 1.0279768857818385e+00 -2.2689633668208072e+02 1.0000000000000000e+00 1.6261585728686967e+01 1.3543328168406653e+01 9.3023618636726262e+00 
173 1 2 1.0279768857818399e+00 -1.6766167281917899e+02 1.0000000000000000e+00 1.6261585728740474e+01 1.3543328168367202e+01 9.3023618637003143e+00 
45 1 2 1.0280115888518810e+00 -1.4548064275044450e+02 1.0000000000000000e+00 1.5627882146027972e+01 1.0690950794783662e+01 1.2648265831470265e+01 
111 1 2 1.0280315051947855e+00 -1.7037625660338495e+02 1.0000000000000000e+00 1.5375183801362221e+01 1.0554386478710079e+01 1.1783276344230245e+01 
117 1 2 1.0280307840438989e+00 -2.0440225442633172e+02 1.0000000000000000e+00 1.5381640277486506e+01 1.0552362207378508e+01 1.1781302404955831e+01 
82 1 2 1.0280281636299904e+00 -2.0093500331315073e+02 1.0000000000000000e+00 1.5437130228944518e+01 1.0546786535599150e+01 1.1763185528550489e+01 
81 1 2 1.0279775345000197e+00 -1.6926048117935875e+02 1.0000000000000000e+00 1.6800770373284184e+01 1.1010561864952237e+01 1.2578409618283239e+01 
86 1 2 1.0279734207495628e+00 -1.3204366106603695e+02 1.0000000000000000e+00 1.6879434277903137e+01 1.0950401798628874e+01 1.2472897687575530e+01 
87 1 2 1.0279734207509217e+00 -1.1077299792906410e+02 1.0000000000000000e+00 1.6879434266496499e+01 1.0950401818479913e+01 1.2472897704844877e+01 
80 1 2 1.0279734207495981e+00 -1.2483201295830990e+02 1.0000000000000000e+00 1.6879434275290418e+01 1.0950401801533935e+01 1.2472897692722150e+01 
123 1 2 1.0279734207512716e+00 -1.0846024748453523e+02 1.0000000000000000e+00 1.6879434262769585e+01 1.0950401824345118e+01 1.2472897710937495e+01 
68 1 2 1.0280556601055468e+00 -1.8667140671041503e+02 1.0000000000000000e+00 1.6348008575422412e+01 1.3517969499976358e+01 1.0110789142740721e+01 
62 1 2 1.0281789849525838e+00 -2.0715668596067465e+02 1.0000000000000000e+00 1.5632343937614653e+01 1.3634348082933219e+01 1.0488911423406154e+01 
58 1 2 1.0278336315334611e+00 -1.6750353937494958e+02 1.0000000000000000e+00 1.5414273698712526e+01 1.3877994512275723e+01 1.0396758525094828e+01 
59 1 2 1.0279980264811017e+00 -1.6302094462351243e+02 1.0000000000000000e+00 1.4739996473933534e+01 1.3989752784243183e+01 1.1806515873007807e+01 
23 1 2 1.0279953097843444e+00 -2.0118480230779693e+02 1.0000000000000000e+00 1.5779540804573859e+01 1.5326926036903465e+01 1.2864339777171221e+01 
65 1 2 1.0279944289896812e+00 -1.4602702497490520e+02 1.0000000000000000e+00 1.5613770169523479e+01 1.5407151913128651e+01 1.2550763456221249e+01 
102 1 2 1.0279944289896814e+00 -1.7964326819904022e+02 1.0000000000000000e+00 1.5613770169523423e+01 1.5407151913128811e+01 1.2550763456221253e+01 
66 1 2 1.0279944289896814e+00 -1.8106092722611629e+02 1.0000000000000000e+00 1.5613770169523423e+01 1.5407151913128811e+01 1.2550763456221253e+01 
29 1 2 1.0280045590709228e+00 -1.2834179421686488e+02 1.0000000000000000e+00 1.4341824398592852e+01 1.5584231694707483e+01 1.3285500427787824e+01 
75 1 2 1.0279977313783275e+00 -2.6484613892541466e+02 1.0000000000000000e+00 1.3491872470652014e+01 1.4602321614196756e+01 1.1945431179713335e+01 
76 1 2 1.0280018297737983e+00 -2.1138568046434563e+02 1.0000000000000000e+00 1.3490402183366353e+01 1.4602235843074254e+01 1.1952605899109660e+01 
40 1 2 1.0280023930474591e+00 -2.0067089316363021e+02 1.0000000000000000e+00 1.3490133640593818e+01 1.4602540018942353e+01 1.1953861568853197e+01 
39 1 2 1.0280029975589400e+00 -2.5117302519904123e+02 1.0000000000000000e+00 1.3489712181007366e+01 1.4603430270654824e+01 1.1955712285879681e+01 
16 1 2 1.0280265824749704e+00 -1.0974995578782658e+02 1.0000000000000000e+00 1.3486119201261619e+01 1.4592762305947838e+01 1.1985846489777122e+01 
105 1 2 1.0280040069579024e+00 -1.9505123013927289e+02 1.0000000000000000e+00 1.5602985877567846e+01 1.6030471364401727e+01 1.4847630754755551e+01 
100 1 2 1.0280040069579024e+00 -1.5232259134589540e+02 1.0000000000000000e+00 1.5602985877567846e+01 1.6030471364401727e+01 1.4847630754755551e+01 
69 1 2 1.0280040069579024e+00 -1.4370274519217628e+02 1.0000000000000000e+00 1.5602985877567846e+01 1.6030471364401727e+01 1.4847630754755551e+01 
106 1 2 1.0280040069579024e+00 -1.2582930208913510e+02 1.0000000000000000e+00 1.5602985877567846e+01 1.6030471364401727e+01 1.4847630754755551e+01 
64 1 2 1.0280040069579024e+00 -1.8025871244129701e+02 1.0000000000000000e+00 1.5602985877567846e+01 1.6030471364401727e+01 1.4847630754755551e+01 
70 1 2 1.0280040069579024e+00 -1.3585479486126508e+02 1.0000000000000000e+00 1.5602985877567846e+01 1.6030471364401727e+01 1.4847630754755551e+01 
178 1 2 1.0279952040460347e+00 -2.5372612697787338e+02 1.0000000000000000e+00 1.6552394505259269e+01 1.2059151459145269e+01 1.8614948548523262e+01 
172 1 2 1.0279952654291764e+00 -2.8277478381331491e+02 1.0000000000000000e+00 1.6562786539609718e+01 1.2062888155734676e+01 1.8617095461572966e+01 
156 1 2 1.0279561814570628e+00 -2.3029307060741405e+02 1.0000000000000000e+00 1.3870999386611523e+01 1.0353703293101269e+01 1.8585617625558779e+01 
25 1 2 1.0280594514307231e+00 -1.5020523761710214e+02 1.0000000000000000e+00 1.3535495383232165e+01 1.1367067634523870e+01 1.6845030095958702e+01 
13 1 2 1.0280594514307231e+00 -1.8106427510046694e+02 1.0000000000000000e+00 1.3535495383232165e+01 1.1367067634523870e+01 1.6845030095958702e+01 
19 1 2 1.0280594514307231e+00 -1.9564785002736005e+02 1.0000000000000000e+00 1.3535495383232165e+01 1.1367067634523870e+01 1.6845030095958702e+01 
14 1 2 1.0280594514307231e+00 -1.6939908642230998e+02 1.0000000000000000e+00 1.3535495383232165e+01 1.1367067634523870e+01 1.6845030095958702e+01 
55 1 2 1.0280594514307231e+00 -2.0452973549734767e+02 1.0000000000000000e+00 1.3535495383232165e+01 1.1367067634523870e+01 1.6845030095958702e+01 
49 1 2 1.0279724902075869e+00 -4.0471346808281465e+00 1.0000000000000000e+00 1.3589325871372463e+01 1.0285388229431000e+01 1.8614867743838076e+01 
94 1 2 1.0279662730287722e+00 -6.9584230728498511e+01 1.0000000000000000e+00 1.4444725225787748e+01 1.0133193418517179e+01 1.8051880799291997e+01 
88 1 2 1.0279662730287717e+00 -8.1604023767754654e+01 1.0000000000000000e+00 1.4444725225784076e+01 1.0133193418518031e+01 1.8051880799293542e+01 
177 1 2 1.0279929740449527e+00 -2.6450017773634522e+02 1.0000000000000000e+00 1.6866955986992796e+01 1.2253268270029432e+01 1.8457858860879881e+01 
179 1 2 1.0279946134746705e+00 -1.3269160144693683e+02 1.0000000000000000e+00 1.7358689289388543e+01 1.1850749337907200e+01 1.8228080840919368e+01 
149 1 2 1.0279946134746705e+00 -1.1907735623516145e+02 1.0000000000000000e+00 1.7358689289373967e+01 1.1850749337944428e+01 1.8228080840950216e+01 
171 1 2 1.0279926489598856e+00 -2.6057719199550434e+02 1.0000000000000000e+00 1.6911746523269347e+01 1.2261067782568070e+01 1.8420972526063888e+01 
134 1 2 1.0279928330177817e+00 -1.2641705715950749e+02 1.0000000000000000e+00 1.6776028618186238e+01 1.2265574030469239e+01 1.8424086803804773e+01 

Velocities

126 1.8861133357201165e-01 3.2068716999658969e-01 -5.3952470789177399e-02
162 1.8861146994369435e-01 3.2068571545642810e-01 -5.3951342246100709e-02
168 1.8861137843526074e-01 3.2068372806068707e-01 -5.3949663244975875e-02
15 1.8831650712198444e-01 3.2121036393729047e-01 -5.4110581129645993e-02
51 1.8831650712198461e-01 3.2121036393729036e-01 -5.4110581129645986e-02
50 1.8831650712198350e-01 3.2121036393729069e-01 -5.4110581129645993e-02
78 1.8828075771843736e-01 3.2121485678688544e-01 -5.4134008982505741e-02
113 1.8828076721904324e-01 3.2121487482444178e-01 -5.4133991692587771e-02
77 1.8828076203429223e-01 3.2121486429726104e-01 -5.4134001195119748e-02
120 1.8828270443778805e-01 3.2121782139174226e-01 -5.4130661189817367e-02
125 1.8861866894451143e-01 3.2070874835106666e-01 -5.3943829262770554e-02
96 1.8861663965399683e-01 3.2070885734618393e-01 -5.3943912879365979e-02
131 1.8861712941954573e-01 3.2070883358932623e-01 -5.3943964457825240e-02
95 1.8861565331311092e-01 3.2070891979043126e-01 -5.3944069324665278e-02
132 1.8869794427378589e-01 3.2076045309237294e-01 -5.3956309134290038e-02
98 1.8864984675561977e-01 3.2067013672303707e-01 -5.3960243025801956e-02
93 1.8864984675561977e-01 3.2067013672303707e-01 -5.3960243025801956e-02
99 1.8864984675561955e-01 3.2067013672303751e-01 -5.3960243025802261e-02
92 1.8864984675561899e-01 3.2067013672303973e-01 -5.3960243025803399e-02
91 1.8867932366515294e-01 3.2079724584972658e-01 -5.3967507794691519e-02
85 1.8867932366515289e-01 3.2079724584972674e-01 -5.3967507794691554e-02
127 1.8867932366515294e-01 3.2079724584972658e-01 -5.3967507794691519e-02
138 1.8864350737669347e-01 3.2064168205752053e-01 -5.3957463084301723e-02
139 1.8797124880852709e-01 3.2724649019837204e-01 -5.4740671874041739e-02
169 1.8797124880852709e-01 3.2724649019837204e-01 -5.4740671874041739e-02
175 1.8797124880852709e-01 3.2724649019837204e-01 -5.4740671874041739e-02
163 1.8797124880852709e-01 3.2724649019837204e-01 -5.4740671874041739e-02
170 1.8797124880852709e-01 3.2724649019837204e-01 -5.4740671874041739e-02
133 1.8797124880852709e-01 3.2724649019837204e-01 -5.4740671874041739e-02
176 1.8797124880852709e-01 3.2724649019837204e-01 -5.4740671874041739e-02
109 1.8805647208667015e-01 3.2483398112383777e-01 -5.4951059560999507e-02
145 1.8799548916945985e-01 3.2550892339353238e-01 -5.4679259222482977e-02
74 1.8805647208667015e-01 3.2483398112383777e-01 -5.4951059560999507e-02
110 1.8805647208667015e-01 3.2483398112383777e-01 -5.4951059560999507e-02
73 1.8805647208667015e-01 3.2483398112383777e-01 -5.4951059560999507e-02
79 1.8805647208667015e-01 3.2483398112383777e-01 -5.4951059560999507e-02
115 1.8805647208667015e-01 3.2483398112383777e-01 -5.4951059560999507e-02
164 1.8802336497566827e-01 3.2479240522927527e-01 -5.4977224387742767e-02
128 1.8803889320434458e-01 3.2478050983453904e-01 -5.4985655138404227e-02
130 1.8806442246455288e-01 3.2475219750693296e-01 -5.5010252504570284e-02
129 1.8806326408139301e-01 3.2475209445213798e-01 -5.5004837487527485e-02
159 1.8806986165187509e-01 3.2470885137389632e-01 -5.5039545802461787e-02