LAMMPS data file via write_data, version 30 Jul 2016, timestep = 50000000

180 atoms
2 atom types

0.0000000000000000e+00 2.0000000000000000e+01 xlo xhi
0.0000000000000000e+00 2.0000000000000000e+01 ylo yhi
0.0000000000000000e+00 2.0000000000000000e+01 zlo zhi

Masses

1 3.896
2 4.31

Atoms # meso-molecular

60 1 2 1.0280000000588698e+00 -1.0651700273260249e+02 1.0000000000000000e+00 9.7060177650046220e-01 9.2674430783904937e-01 4.7136268840457882e+00 
151 1 2 1.0280000007336232e+00 3.8458672786792008e+01 1.0000000000000000e+00 1.3469408761849868e+00 4.9490194586529625e-02 4.7919795335543940e+00 
69 1 2 1.0280000003735790e+00 4.7560608382014372e+01 1.0000000000000000e+00 1.2815110979057172e+00 2.4687194860240158e+00 6.3031948928360091e+00 
5 1 2 1.0280000003218277e+00 1.6850339965536197e+01 1.0000000000000000e+00 1.1849868130019097e+00 2.5214443883652442e+00 6.5885809178672847e+00 
82 1 2 1.0280000001867977e+00 7.3811698830352640e+01 1.0000000000000000e+00 1.0657931899958955e+00 2.5671712183093347e+00 6.6151547867135658e+00 
149 1 2 1.0279999997625213e+00 1.9819687865359676e+01 1.0000000000000000e+00 3.0304044718978601e-01 2.5605952496637343e+00 6.3588728166606456e+00 
6 1 2 1.0279999998434479e+00 -1.1706737089870904e+02 1.0000000000000000e+00 8.9873825919211628e-02 1.7900326958445172e+00 4.9403081528917729e+00 
39 1 2 1.0280000004071872e+00 -6.4171115641629672e+00 1.0000000000000000e+00 1.2537712950662212e+00 2.4607009709984777e+00 6.6701046965651010e+00 
54 1 2 1.0280000003487235e+00 -2.7807391998068930e+01 1.0000000000000000e+00 1.2072495798864924e+00 2.4762827202300008e+00 6.7018075541732456e+00 
76 1 2 1.0280000001511380e+00 3.1581945999880631e+01 1.0000000000000000e+00 1.0426739211457994e+00 2.5455776435324649e+00 6.7078065638952724e+00 
83 1 2 1.0280000000895744e+00 -2.5221925438368743e+01 1.0000000000000000e+00 9.8791893232799455e-01 2.5584416670678833e+00 6.7158834428687051e+00 
89 1 2 1.0280000000927463e+00 -1.3675054757077237e+02 1.0000000000000000e+00 9.9390907713649257e-01 2.5492997729016080e+00 6.7340085896526585e+00 
162 1 2 1.0279999998064415e+00 -8.3082697560634472e+01 1.0000000000000000e+00 7.8958578022644998e-01 2.2914560409845524e+00 7.0809991056906840e+00 
18 1 2 1.0280000036640751e+00 -5.4626793093006654e+01 1.0000000000000000e+00 2.7735387912722222e+00 1.0685795814497849e-01 7.1201109548771253e+00 
72 1 2 1.0280000038521280e+00 1.0264921732430993e+02 1.0000000000000000e+00 2.9885694589390148e+00 3.7114697176785109e-02 7.1182748420108028e+00 
114 1 2 1.0280000013682289e+00 -1.2539895884982015e+02 1.0000000000000000e+00 6.4789458406089704e+00 9.0570490264345660e-01 7.3089279232919662e+00 
113 1 2 1.0280000052550242e+00 -1.2135262136150197e+02 1.0000000000000000e+00 5.8556301820096834e+00 8.1048043158226157e-01 7.4941244899975743e+00 
106 1 2 1.0280000023594522e+00 3.6111036060233374e+01 1.0000000000000000e+00 5.9349003052637848e+00 9.0905801357251392e-01 7.4296527315261702e+00 
174 1 2 1.0279999951761170e+00 -3.0677369056958721e+01 1.0000000000000000e+00 5.9300563367995185e+00 6.7079558583508603e-01 7.2229946431496250e+00 
48 1 2 1.0279999959646309e+00 -1.0622885363752485e+02 1.0000000000000000e+00 5.9632409875009307e+00 6.8098547527263364e-01 7.2188295057162133e+00 
84 1 2 1.0279999971730434e+00 2.4792540321658385e+02 1.0000000000000000e+00 6.0152376214115488e+00 8.1186014592511202e-01 7.2328995262326758e+00 
94 1 2 1.0280000021062619e+00 1.3232297517655866e+02 1.0000000000000000e+00 6.5648537294044464e+00 9.2771767777806613e-01 7.3408458105065542e+00 
43 1 2 1.0280000009772907e+00 -1.4813770250480695e+02 1.0000000000000000e+00 6.4134138148333477e+00 8.7571231181909048e-01 7.2857501577711936e+00 
108 1 2 1.0280000008970520e+00 -3.8998433590321198e+01 1.0000000000000000e+00 6.4739751333865625e+00 9.3353940481495612e-01 7.3117432279700276e+00 
68 1 2 1.0280000006703947e+00 -4.5794655511092230e+01 1.0000000000000000e+00 2.6253091868097400e-01 7.6527870702541811e+00 9.6692008975372641e+00 
105 1 2 1.0280000016975828e+00 1.1270549841356120e+02 1.0000000000000000e+00 2.5022980636906005e+00 7.3724920882528853e+00 1.2266746936486138e+01 
120 1 2 1.0280000016528448e+00 4.7608061627963394e+01 1.0000000000000000e+00 2.5335704806150510e+00 7.3786360419530377e+00 1.2314561697281119e+01 
110 1 2 1.0280000017322637e+00 -3.7925130555162426e+01 1.0000000000000000e+00 5.1981133392986933e-01 7.2972537820338408e+00 1.0685023887048009e+01 
161 1 2 1.0280000016051467e+00 -1.1933756495319912e+02 1.0000000000000000e+00 1.8544029234262185e+00 7.6733480405288752e+00 1.1889689744363110e+01 
15 1 2 1.0280000039616470e+00 -2.0193722621534050e+01 1.0000000000000000e+00 9.0468223115147894e-01 7.6015446214231117e+00 1.0993845627174377e+01 
38 1 2 1.0280000009963008e+00 -3.7606148144893552e+01 1.0000000000000000e+00 4.8786321130193694e-01 7.5761762390581122e+00 1.0057499891205074e+01 
101 1 2 1.0280000012363912e+00 -5.8411166333957397e+01 1.0000000000000000e+00 7.5849229497831031e-02 7.5933965160288226e+00 1.1312679715648388e+01 
87 1 2 1.0279999974104415e+00 -3.1351606348040590e+01 1.0000000000000000e+00 1.8436695705677584e+00 7.8455688635215468e+00 1.1719339886673948e+01 
142 1 2 1.0279999977320200e+00 6.4464375407950797e+01 1.0000000000000000e+00 1.9268624874242088e+00 7.9186560092604319e+00 1.1836306251224292e+01 
81 1 2 1.0280000023968880e+00 -5.1977780901623646e+01 1.0000000000000000e+00 9.1147360244933451e-01 7.9218068129741921e+00 1.1138456079535755e+01 
148 1 2 1.0279999986848418e+00 4.6755829296515770e+01 1.0000000000000000e+00 2.4653710326606113e+00 8.1048847147567127e+00 1.2189154057156385e+01 
22 1 2 1.0280000002001490e+00 -7.9620024621959175e+01 1.0000000000000000e+00 4.0646658152521198e-01 8.3692753932835409e+00 1.0551743928157078e+01 
10 1 2 1.0279999988115127e+00 -1.4206366704298117e+02 1.0000000000000000e+00 2.8492255971313156e+00 8.1345595084480742e+00 1.2377333266875828e+01 
92 1 2 1.0280000041239108e+00 8.2423434704946743e+01 1.0000000000000000e+00 3.8463769866844211e+00 7.5017598373774081e+00 1.2640752737446340e+01 
12 1 2 1.0279999987785611e+00 -1.6500131016180165e+02 1.0000000000000000e+00 3.5259023623071082e+00 7.9871588264812186e+00 1.2658181123458192e+01 
85 1 2 1.0279999987722115e+00 2.0231447052924175e+01 1.0000000000000000e+00 3.6048915090255327e+00 7.9570137519613251e+00 1.2677373691633207e+01 
123 1 2 1.0280000021366951e+00 -7.3784632911234269e+01 1.0000000000000000e+00 4.0060870501234964e+00 7.7201926676515118e+00 1.2788726841974963e+01 
70 1 2 1.0280000020038726e+00 -1.6932451602664713e+02 1.0000000000000000e+00 4.0025005739159480e+00 7.7272500312900769e+00 1.2799180594366476e+01 
91 1 2 1.0280000019499707e+00 -1.3831443212205230e+01 1.0000000000000000e+00 4.0004664065391378e+00 7.7301994478883636e+00 1.2803773260082750e+01 
90 1 2 1.0279999992458304e+00 9.9526588355617434e+01 1.0000000000000000e+00 4.7342948152832180e+00 7.6358505658901654e+00 1.3171767329868079e+01 
180 1 2 1.0280000001416543e+00 1.8823624679593701e+02 1.0000000000000000e+00 5.3173473638786319e+00 7.2507249415318977e+00 1.3193289344472245e+01 
127 1 2 1.0279999985677044e+00 -3.6804615705174868e+01 1.0000000000000000e+00 4.8487353028248208e+00 7.6783237757448468e+00 1.3225940927758190e+01 
55 1 2 1.0280000017228095e+00 1.4912955676426688e+02 1.0000000000000000e+00 4.9837400110934764e+00 7.1323114698381156e+00 1.3454189272709169e+01 
128 1 2 1.0279999988354833e+00 2.1926553188975721e+00 1.0000000000000000e+00 6.6497016393923865e+00 7.8222434297152166e+00 1.4151418337393213e+01 
172 1 2 1.0279999991943751e+00 2.1569725108701249e+02 1.0000000000000000e+00 2.8014628455224679e+00 1.7848747602317257e+01 5.9552688390452415e+00 
131 1 2 1.0279999991573296e+00 -9.6411599677085462e+01 1.0000000000000000e+00 2.7480316217299463e+00 1.7884670907718398e+01 6.5258630305113101e+00 
49 1 2 1.0279999992428130e+00 3.1333471847024015e+01 1.0000000000000000e+00 2.8870966246687866e+00 1.7887787794162406e+01 5.8592122945502867e+00 
100 1 2 1.0279999993475581e+00 1.6538834857573539e+02 1.0000000000000000e+00 2.7904429258912171e+00 1.7896912823231244e+01 5.8334025740395159e+00 
159 1 2 1.0279999993727293e+00 1.7017308719539628e+02 1.0000000000000000e+00 2.9532127792613490e+00 1.7957870279871283e+01 5.7531127016165273e+00 
31 1 2 1.0279999994167501e+00 -4.3162512460900871e+01 1.0000000000000000e+00 3.0273567162299932e+00 1.8005252259449819e+01 5.7155324349662466e+00 
8 1 2 1.0279999996183868e+00 4.9878430116076686e+01 1.0000000000000000e+00 2.8289473296881731e+00 1.8009801568365791e+01 5.6641405001058871e+00 
170 1 2 1.0279999996034879e+00 5.1577624585833163e+01 1.0000000000000000e+00 2.9389995240898044e+00 1.8046653722832250e+01 5.6431342814099494e+00 
111 1 2 1.0279999993671922e+00 -9.5829241558083055e+01 1.0000000000000000e+00 3.2757820430688098e+00 1.8112839868467418e+01 5.7377753397304847e+00 
41 1 2 1.0280000000282394e+00 4.1127206532529662e+01 1.0000000000000000e+00 7.9115606013547601e-01 1.9293405659276996e+01 6.3837285974381954e+00 
140 1 2 1.0280000000116554e+00 -5.4932276782443658e+01 1.0000000000000000e+00 6.9938701279032689e-01 1.9344085029732760e+01 6.3668006584178256e+00 
56 1 2 1.0279999993394533e+00 2.3722818831949574e+01 1.0000000000000000e+00 3.5116765971605592e+00 1.8284110997059784e+01 5.7996227321269629e+00 
13 1 2 1.0279999992796056e+00 -7.1146887275483337e+00 1.0000000000000000e+00 3.0691810790804110e+00 1.8107857428335045e+01 6.8658272448130209e+00 
80 1 2 1.0280000015356323e+00 -8.0838475829345526e+01 1.0000000000000000e+00 2.8363875985404063e+00 1.9700645738329957e+01 7.2590147463947758e+00 
169 1 2 1.0280000019185478e+00 8.5265402307805999e+01 1.0000000000000000e+00 2.7146315824629403e+00 1.9826241081461326e+01 7.2297550716120105e+00 
36 1 2 1.0280000021260263e+00 -5.3359510756364505e+00 1.0000000000000000e+00 2.7734847740306274e+00 1.9853108216808053e+01 7.2201748859862072e+00 
155 1 2 1.0279999954336088e+00 -1.0396584044113279e+01 1.0000000000000000e+00 4.3223205846503179e+00 1.9626306206721889e+01 6.9084777811548106e+00 
99 1 2 1.0279999974003926e+00 -5.1685311729496917e+01 1.0000000000000000e+00 4.2551834758720712e+00 1.9660322652725302e+01 6.9885367088927390e+00 
121 1 2 1.0280000043967004e+00 -6.7656328740644938e+01 1.0000000000000000e+00 6.7957439928527421e+00 9.5607218952873341e-01 7.4389396122708380e+00 
130 1 2 1.0279999993867901e+00 2.9611138586901325e+02 1.0000000000000000e+00 7.0619797093139116e+00 1.3637133073881638e+00 7.6912256809201258e+00 
11 1 2 1.0280000033021275e+00 5.8992558580839429e+01 1.0000000000000000e+00 7.6466481088513110e+00 1.0977303458069103e+00 9.9583977263555088e+00 
167 1 2 1.0279999993664581e+00 -4.6494102198309093e+01 1.0000000000000000e+00 7.1316300774195742e+00 1.3470134148202619e+00 7.6737564355091923e+00 
165 1 2 1.0279999942942737e+00 -4.7922954631560394e+01 1.0000000000000000e+00 9.3312737313065064e+00 3.0054476204400915e+00 8.1436258090329350e+00 
146 1 2 1.0279999954134009e+00 -1.0773734319847060e+02 1.0000000000000000e+00 9.1155226310223387e+00 3.0043854523366167e+00 8.6689448475732700e+00 
179 1 2 1.0279999971521570e+00 -5.6566375832070946e+01 1.0000000000000000e+00 9.5859113933509033e+00 3.0742522817264217e+00 8.0761516696745961e+00 
37 1 2 1.0280000037229899e+00 -1.3286739460274856e+02 1.0000000000000000e+00 6.6939423176564166e+00 9.3041000584561684e-01 7.3936812822001805e+00 
30 1 2 1.0280000001042742e+00 -6.8521259962198666e+00 1.0000000000000000e+00 9.6952524104011371e+00 3.3142971548365554e+00 8.1939756823034884e+00 
44 1 2 1.0280000002727789e+00 -1.9196963370524621e+01 1.0000000000000000e+00 9.6919968672965613e+00 3.3438983872591130e+00 8.2307372505805407e+00 
7 1 2 1.0280000003621643e+00 -2.8622844621459748e+01 1.0000000000000000e+00 9.6989662118449438e+00 3.3426256493163780e+00 8.2238445705654435e+00 
42 1 2 1.0280000005047769e+00 -5.0143541167437547e+01 1.0000000000000000e+00 9.7087259012018805e+00 3.3434958949876128e+00 8.2178774223166950e+00 
134 1 2 1.0280000005404171e+00 -4.4025227940361660e+01 1.0000000000000000e+00 9.7108175125905003e+00 3.3444127761539502e+00 8.2175128732871929e+00 
32 1 2 1.0280000007006209e+00 7.5630692776839950e+01 1.0000000000000000e+00 9.7222737719033727e+00 3.3446055002139130e+00 8.2099456197556719e+00 
59 1 2 1.0280000007232739e+00 5.2920547314383583e+01 1.0000000000000000e+00 9.7238106564276450e+00 3.3448121356804124e+00 8.2091711287169158e+00 
78 1 2 1.0280000008075743e+00 -6.8685633700247109e+01 1.0000000000000000e+00 9.7293683326391545e+00 3.3459272092648695e+00 8.2068313699704039e+00 
65 1 2 1.0280000013944084e+00 8.0337427997975325e+01 1.0000000000000000e+00 9.7642551873850714e+00 3.3622826995329991e+00 8.2034478044935835e+00 
24 1 2 1.0279999966398181e+00 -4.6389800838221191e+00 1.0000000000000000e+00 1.3280410360923083e+01 3.8570907870488145e+00 9.5036709082681607e+00 
17 1 2 1.0279999965082638e+00 6.8918501326717603e+01 1.0000000000000000e+00 1.3227980172813238e+01 3.7892237564224387e+00 9.3006816481944039e+00 
175 1 2 1.0279999963895810e+00 -1.9825252349810807e+01 1.0000000000000000e+00 1.3217969731565967e+01 3.7953700517676934e+00 9.3429112435198469e+00 
20 1 2 1.0279999969803357e+00 -4.9653281530017352e+00 1.0000000000000000e+00 1.3217753457916732e+01 3.7788868152443831e+00 9.1576952074379854e+00 
129 1 2 1.0279999972486169e+00 -3.6884662502160964e+01 1.0000000000000000e+00 1.3221352309197840e+01 3.7835012042629681e+00 9.1085378261978605e+00 
138 1 2 1.0279999977803735e+00 -1.2316876265503312e+02 1.0000000000000000e+00 1.3232263859918504e+01 3.8009436369368257e+00 9.0245928747214492e+00 
97 1 2 1.0279999979719459e+00 -6.5314957063088343e+01 1.0000000000000000e+00 1.3213016741024374e+01 3.8062511430362811e+00 8.9871610129511090e+00 
117 1 2 1.0279999995482818e+00 -2.0521910488481637e+01 1.0000000000000000e+00 1.3128753323594697e+01 3.9094410025776316e+00 8.7453799401631347e+00 
176 1 2 1.0280000020939537e+00 -3.5430038239810415e+01 1.0000000000000000e+00 1.2309963463470323e+01 5.0481563840105075e+00 9.1291564486173673e+00 
116 1 2 1.0279999985089623e+00 -1.1221992422166144e+02 1.0000000000000000e+00 1.3164480986334569e+01 3.8283003728097862e+00 8.8955493037257067e+00 
163 1 2 1.0280000114182450e+00 -2.1793827431942987e+01 1.0000000000000000e+00 1.1430224075497325e+01 3.8835187651787884e+00 8.7325416042177970e+00 
52 1 2 1.0280000003182912e+00 5.0920739499528743e+01 1.0000000000000000e+00 1.3225846802403751e+01 6.2093536497955197e+00 9.1999544987528807e+00 
27 1 2 1.0279999995262956e+00 6.1408739661701262e+01 1.0000000000000000e+00 9.8556511605626191e+00 1.1185185342526547e+00 1.1132588976883785e+01 
74 1 2 1.0280000007258958e+00 9.3907733545043413e+01 1.0000000000000000e+00 8.0367043957806885e+00 5.2285563237476251e-01 1.1082165928087434e+01 
164 1 2 1.0280000007554682e+00 -1.6486579838814191e+02 1.0000000000000000e+00 8.0236443024283126e+00 5.0656514970860800e-01 1.1072175588102533e+01 
145 1 2 1.0280000007740582e+00 -3.9214802812745404e+01 1.0000000000000000e+00 8.0125770377231920e+00 4.8390570288305251e-01 1.1065860197305199e+01 
19 1 2 1.0280000008721812e+00 1.0191455062809370e+01 1.0000000000000000e+00 7.9730020664878252e+00 4.2943548478441834e-01 1.1030173492211970e+01 
173 1 2 1.0280000009109993e+00 -6.7360081065045065e+01 1.0000000000000000e+00 7.9456441351060958e+00 3.5039237156767189e-01 1.1006963674723142e+01 
57 1 2 1.0280000010799137e+00 1.0893951083406550e+00 1.0000000000000000e+00 7.9114288988696631e+00 3.6556339640185836e-01 1.0956036006777417e+01 
177 1 2 1.0280000010932595e+00 -9.6355605099628647e+00 1.0000000000000000e+00 7.9048673389793596e+00 3.4626265424619523e-01 1.0948538173330709e+01 
156 1 2 1.0279999999220237e+00 6.6303140278994675e+01 1.0000000000000000e+00 9.1928311020120148e+00 2.7816070922092795e-01 1.1620990841047123e+01 
28 1 2 1.0280000013372868e+00 -1.6000372919180722e+02 1.0000000000000000e+00 7.8442292305762056e+00 2.6100317685964425e-01 1.0853068083411786e+01 
137 1 2 1.0279999987891766e+00 -6.4343791208008753e+01 1.0000000000000000e+00 1.0757332875706590e+01 5.8166244346402030e-01 1.0452665012466685e+01 
166 1 2 1.0279999991136992e+00 5.1610468898088939e+01 1.0000000000000000e+00 1.0787130165137857e+01 4.4251502789964126e-01 1.0416644596083660e+01 
157 1 2 1.0279999957443822e+00 -4.6188886022937140e+01 1.0000000000000000e+00 1.0649966957382549e+01 1.2086551936889918e+00 1.0279896452996532e+01 
102 1 2 1.0279999970618321e+00 -2.6659034505523977e+01 1.0000000000000000e+00 1.0735932069585340e+01 9.2639028484572206e-01 1.0300227125020790e+01 
126 1 2 1.0279999991736304e+00 -7.2634289342473039e+01 1.0000000000000000e+00 1.0810454602341009e+01 3.8136086111461270e-01 1.0346525993657821e+01 
63 1 2 1.0279999956011587e+00 7.9228224641418080e+01 1.0000000000000000e+00 1.0771530006603037e+01 1.0373169112127629e+00 1.0096001014360313e+01 
141 1 2 1.0280000007203125e+00 1.1786973999648680e+02 1.0000000000000000e+00 6.8169525659867336e+00 6.5734494782883237e+00 1.4354557934873251e+01 
64 1 2 1.0280000008812364e+00 1.3600484904831669e+02 1.0000000000000000e+00 6.8457405921817829e+00 6.6105591802281065e+00 1.4504525089469038e+01 
14 1 2 1.0280000006408909e+00 -2.9852014583587717e+01 1.0000000000000000e+00 7.1224946205054387e+00 6.9074191649555816e+00 1.4634786692367244e+01 
178 1 2 1.0280000005145000e+00 2.2329909116683473e+02 1.0000000000000000e+00 7.1408531009389691e+00 6.9717123517348636e+00 1.4651580200272685e+01 
23 1 2 1.0280000006284413e+00 1.7641086231029902e+01 1.0000000000000000e+00 6.8174179841917679e+00 7.0227185563353069e+00 1.4895058501515827e+01 
62 1 2 1.0280000003953345e+00 6.5539182856693827e+00 1.0000000000000000e+00 7.1465616931628944e+00 7.0283973725651467e+00 1.4668552078043092e+01 
171 1 2 1.0280000003297731e+00 -1.5927314442951570e+02 1.0000000000000000e+00 7.1621636367682768e+00 7.0382692258426749e+00 1.4646397306493956e+01 
147 1 2 1.0280000002977501e+00 1.5460798113440003e+02 1.0000000000000000e+00 7.1638547140201956e+00 7.0506526544902677e+00 1.4647275025869883e+01 
47 1 2 1.0280000002777752e+00 5.0753230345424363e+01 1.0000000000000000e+00 7.1600588754230881e+00 7.0644155131498527e+00 1.4657173902537082e+01 
46 1 2 1.0280000002141800e+00 -4.3208432594800939e+01 1.0000000000000000e+00 7.1665768237497485e+00 7.0829639204655166e+00 1.4649628437613075e+01 
96 1 2 1.0280000001140037e+00 -1.0016459485786999e+02 1.0000000000000000e+00 7.1600451304222927e+00 7.1292994125705569e+00 1.4663529902557588e+01 
135 1 2 1.0279999989389335e+00 -1.7430225506018736e+01 1.0000000000000000e+00 6.8237768400164232e+00 7.7373028149540612e+00 1.4358940923144630e+01 
45 1 2 1.0280000007690882e+00 -9.8805605993916117e+01 1.0000000000000000e+00 9.5799446259739298e+00 1.9113189242578326e+01 9.3292843758057984e+00 
152 1 2 1.0280000005837919e+00 -1.0627390872200678e+02 1.0000000000000000e+00 9.7744882134636182e+00 1.9124939964524692e+01 9.3664102739089419e+00 
104 1 2 1.0280000008422527e+00 1.6635480505656780e+01 1.0000000000000000e+00 9.5633536045852328e+00 1.9143195098494633e+01 9.2918068265377212e+00 
112 1 2 1.0280000006778509e+00 -7.5707549362640123e+01 1.0000000000000000e+00 9.7689277354481909e+00 1.9194807997378781e+01 9.2869271218007494e+00 
16 1 2 1.0280000005527725e+00 -5.0542214530177560e+01 1.0000000000000000e+00 9.9101858162000411e+00 1.9223697651324862e+01 9.3145302158543650e+00 
88 1 2 1.0280000005553482e+00 7.1544138573860039e+01 1.0000000000000000e+00 9.9129364927214372e+00 1.9230418110936640e+01 9.3090343033757659e+00 
154 1 2 1.0280000004183538e+00 1.2758316477838424e+02 1.0000000000000000e+00 1.0080667487108997e+01 1.9255157403923864e+01 9.3813476497639741e+00 
71 1 2 1.0279999998587988e+00 9.8533666230081565e+00 1.0000000000000000e+00 9.6502610984836963e+00 1.9103939903275990e+01 1.1007499200302636e+01 
77 1 2 1.0279999999221312e+00 -7.8758818071814943e+01 1.0000000000000000e+00 9.4660327293529960e+00 1.8793729468914123e+01 1.0297115415186408e+01 
160 1 2 1.0280000003744432e+00 1.2994419255900372e+01 1.0000000000000000e+00 1.9304600486056163e+01 2.0732586049363444e-01 3.8204097937147914e+00 
75 1 2 1.0280000002982908e+00 2.6176159810996662e+01 1.0000000000000000e+00 1.9388721999172873e+01 4.0233226909145631e-01 3.8782384119605666e+00 
158 1 2 1.0279999993431645e+00 1.4661299777128048e+02 1.0000000000000000e+00 1.9406429378132120e+01 1.0434942993221508e+00 6.3588412523612741e+00 
2 1 2 1.0279999993408484e+00 -1.2758269803411159e+02 1.0000000000000000e+00 1.9413914831457106e+01 1.1609759984462069e+00 6.3642494019944813e+00 
50 1 2 1.0279999993408224e+00 2.3420332862805239e+01 1.0000000000000000e+00 1.9441689283768518e+01 1.2652886744763534e+00 6.3910416627677948e+00 
153 1 2 1.0279999995886713e+00 -1.4260375561709791e+01 1.0000000000000000e+00 1.9950852748601822e+01 2.3033258804809518e+00 6.4233057393864046e+00 
109 1 2 1.0280000006468322e+00 -6.3395009179403878e+00 1.0000000000000000e+00 1.3829130625454175e+01 6.4872597190008001e+00 9.4347923651070040e+00 
86 1 2 1.0280000005415983e+00 -1.8240387154200630e+00 1.0000000000000000e+00 1.3744926334690382e+01 6.4698370026580978e+00 9.4261870875424112e+00 
133 1 2 1.0280000007102159e+00 -1.5032939669167195e+01 1.0000000000000000e+00 1.3802257268538563e+01 6.4787045927724698e+00 9.5305991540519912e+00 
168 1 2 1.0280000005011929e+00 -8.9845518959582940e+00 1.0000000000000000e+00 1.3708617994746490e+01 6.4607357965447205e+00 9.4229694189464084e+00 
40 1 2 1.0280000006408891e+00 9.0408498270266492e+01 1.0000000000000000e+00 1.3825733735999448e+01 6.4866172595179821e+00 9.4331357361337993e+00 
115 1 2 1.0280000006977343e+00 5.7804609786057725e+01 1.0000000000000000e+00 1.3793462676880548e+01 6.4771359813549276e+00 9.5281320727811956e+00 
9 1 2 1.0280000009377768e+00 4.3632351838476325e+01 1.0000000000000000e+00 1.3946680627071528e+01 6.4768524122909250e+00 9.6603457630543268e+00 
67 1 2 1.0279999993000783e+00 -1.0382747100858379e+02 1.0000000000000000e+00 1.4844895716895701e+01 5.5643269358028578e+00 9.6904868828795809e+00 
103 1 2 1.0279999992993807e+00 -5.3788796705116852e+01 1.0000000000000000e+00 1.4845017086118393e+01 5.5877771005180268e+00 9.7017639120894650e+00 
107 1 2 1.0279999995429010e+00 7.7231088751485430e+01 1.0000000000000000e+00 1.4800951145225190e+01 5.6527597885812293e+00 9.8188500062915640e+00 
73 1 2 1.0279999998592864e+00 3.6260896603090977e+01 1.0000000000000000e+00 1.4741409781831376e+01 5.8786530141891182e+00 9.8983291241398099e+00 
124 1 2 1.0280000002124041e+00 -4.0693619820978682e+01 1.0000000000000000e+00 1.9455874731561728e+01 7.6648057400525484e+00 8.8729778002735848e+00 
98 1 2 1.0279999992817870e+00 -7.8392966519533928e+01 1.0000000000000000e+00 1.8013884302498283e+01 7.9362869869643955e+00 8.6866502918153206e+00 
136 1 2 1.0279999994494058e+00 -9.1583092793344854e+00 1.0000000000000000e+00 1.8450700797964934e+01 8.0989744917512141e+00 8.6079173095649715e+00 
139 1 2 1.0279999999199356e+00 1.6852140936171119e+02 1.0000000000000000e+00 1.9199696183668745e+01 8.1475969522871541e+00 8.7511104419262082e+00 
51 1 2 1.0279999984401664e+00 5.9855975929561446e+01 1.0000000000000000e+00 1.7131821655280948e+01 7.3461636529207830e+00 9.6774161724188961e+00 
34 1 2 1.0279999988176414e+00 -1.1548225201642725e+02 1.0000000000000000e+00 1.7277775607725893e+01 7.1220543235680207e+00 9.6950241762455924e+00 
53 1 2 1.0279999988667876e+00 7.9106253102874888e+01 1.0000000000000000e+00 1.7111675258052244e+01 7.6577525243212499e+00 9.6615871948544996e+00 
61 1 2 1.0279999996136837e+00 1.6817257172775842e+02 1.0000000000000000e+00 1.8760642250865367e+01 8.5214307799138336e+00 8.8298679657086776e+00 
122 1 2 1.0279999995472133e+00 7.4320960398043454e+01 1.0000000000000000e+00 1.8669583809348826e+01 8.2571181127365154e+00 8.6568576402847679e+00 
25 1 2 1.0279999995595781e+00 6.3254307339088314e+01 1.0000000000000000e+00 1.8690539068390510e+01 8.2625915472038827e+00 8.6605927365376019e+00 
3 1 2 1.0279999994861386e+00 -4.8994714252729310e+01 1.0000000000000000e+00 1.8560172496435566e+01 8.4228312990028460e+00 8.7462972560523848e+00 
118 1 2 1.0279999982431145e+00 -3.1869910168272831e+01 1.0000000000000000e+00 1.7133699897468610e+01 7.5904936187879262e+00 9.5004782535914405e+00 
150 1 2 1.0280000007648222e+00 7.1171798160993035e+01 1.0000000000000000e+00 1.8641041259717170e+01 7.6808344769739607e+00 1.1140018979217020e+01 
144 1 2 1.0280000001561964e+00 1.2387523667758791e+02 1.0000000000000000e+00 1.7681350095969488e+01 7.1128497303907512e+00 1.0389635350389648e+01 
125 1 2 1.0280000005478769e+00 -1.2364918140154947e+02 1.0000000000000000e+00 1.8450438962325535e+01 8.0810185659951657e+00 1.1022075907698323e+01 
66 1 2 1.0279999999730802e+00 6.3844293752043484e+00 1.0000000000000000e+00 1.7308561344348750e+01 7.1800647300689109e+00 1.0030529450816246e+01 
29 1 2 1.0280000002707064e+00 5.5381019645583777e+01 1.0000000000000000e+00 1.7632404791537095e+01 8.0241810645203326e+00 1.0509428699121017e+01 
79 1 2 1.0280000011678059e+00 -8.6887164882983200e+01 1.0000000000000000e+00 1.9738666919308681e+01 7.4945915874953002e+00 1.1275353699248004e+01 
95 1 2 1.0280000005084560e+00 1.6471322178157200e+02 1.0000000000000000e+00 1.8305495357274893e+01 8.0700267156316468e+00 1.0962898158004348e+01 
21 1 2 1.0280000002281198e+00 -3.2495201681078271e+01 1.0000000000000000e+00 1.9403052272701629e+01 1.9267184691590177e+01 4.0656355736599519e+00 
33 1 2 1.0280000002980423e+00 -7.3099123460135296e-01 1.0000000000000000e+00 1.9507954674859526e+01 1.9307930091828922e+01 4.0015915472079149e+00 
35 1 2 1.0280000003180758e+00 -2.2419241415437973e+01 1.0000000000000000e+00 1.9298887798112958e+01 1.9446097491662290e+01 3.9180293618000062e+00 
4 1 2 1.0280000003018934e+00 6.9306052048806436e+01 1.0000000000000000e+00 1.9198103415504161e+01 1.9474720276781763e+01 3.9382933668327449e+00 
93 1 2 1.0279999999448133e+00 -6.0375101801269082e+01 1.0000000000000000e+00 1.8837712954292545e+01 1.9519050575321703e+01 4.4047908670169216e+00 
58 1 2 1.0280000002406604e+00 -1.2289087619650401e+00 1.0000000000000000e+00 1.8995450371749893e+01 1.9561000936695304e+01 4.0289194441785021e+00 
132 1 2 1.0280000000523062e+00 6.8344475134908848e+01 1.0000000000000000e+00 1.8849201183117472e+01 1.9567488218287178e+01 4.2604777328750192e+00 
26 1 2 1.0280000000922336e+00 -1.9579940272124357e+00 1.0000000000000000e+00 1.8860332339417230e+01 1.9583570624984549e+01 4.2131018535476779e+00 
1 1 2 1.0280000003997083e+00 -2.2265717954970961e+02 1.0000000000000000e+00 1.9415788798698976e+01 1.9594987819991406e+01 3.8123777093571456e+00 
119 1 2 1.0280000002301946e+00 2.0434680225809205e+02 1.0000000000000000e+00 1.8935431660186978e+01 1.9622982091173931e+01 4.0569092617186522e+00 
143 1 2 1.0279999996929103e+00 1.3236629244211144e+02 1.0000000000000000e+00 1.9911331930774217e+01 1.9897882834833315e+01 6.3270586797999613e+00 

Velocities

60 1.2162809844770449e-06 -6.2704548134457162e-06 5.9120271463322193e-06
151 1.3560750475997777e-06 -6.2675328692260479e-06 5.7404536107587759e-06
69 1.1304732665427525e-06 -6.0947255341043544e-06 5.9291570818676510e-06
5 1.1131385012002409e-06 -6.0979077463342007e-06 5.9540033234300416e-06
82 1.0996397836072271e-06 -6.1169126083107728e-06 5.9588933144914442e-06
149 1.1092226688981876e-06 -6.2298343945726782e-06 5.9783296697648953e-06
6 1.1579562022488283e-06 -6.3063859738431291e-06 6.0340055672366268e-06
39 1.1220690861230020e-06 -6.0856800486653127e-06 5.9565232936491789e-06
54 1.1143517645588908e-06 -6.0926635096759109e-06 5.9597432316093831e-06
76 1.0960392733048775e-06 -6.1197743365564129e-06 5.9617718716716009e-06
83 1.0922307050094093e-06 -6.1289041148867404e-06 5.9619699542379137e-06
89 1.0922445207414867e-06 -6.1277715464382370e-06 5.9621598574687080e-06
162 1.0822526289056831e-06 -6.1527157550666294e-06 5.9426631318295172e-06
18 1.4166845406503722e-06 -5.6936124104386317e-06 5.6139471826637486e-06
72 1.4534491482050873e-06 -5.6303826460944792e-06 5.5223175873236818e-06
114 8.6126973686833088e-07 -3.7385430955315462e-06 2.9872191752352174e-06
113 6.8158332312696984e-07 -3.9354310433268206e-06 3.3313047457980257e-06
106 7.8022685437457551e-07 -3.9011598553723622e-06 3.2311718414817918e-06
174 9.2613708983480537e-07 -4.0383187795878896e-06 3.4254742226463987e-06
48 9.0705910798632165e-07 -4.0250135584612957e-06 3.3966284600637410e-06
84 8.9708486392052427e-07 -4.0132745560559734e-06 3.3201423453660613e-06
94 8.7724509575148556e-07 -3.6877397075657579e-06 2.9266262942855318e-06
43 8.5427015282530502e-07 -3.7818161906252268e-06 3.0299405459547768e-06
108 8.5734756619574666e-07 -3.7305512286948440e-06 3.0035816755453347e-06
68 -2.1028421308874209e-06 6.3015282774433749e-06 -6.3575228369865384e-06
105 -1.7765633753776785e-06 7.5405119143171019e-06 -6.9076780549703611e-06
120 -1.7757338380957504e-06 7.5608165562129492e-06 -6.9085077822840123e-06
110 -1.9725191208351631e-06 6.4169167160317946e-06 -6.3897395349614845e-06
161 -1.8179946452317922e-06 7.3873796363615391e-06 -6.7465211943248136e-06
15 -1.8155476396039452e-06 6.6938837021762641e-06 -6.4772834072333841e-06
38 -2.0149345277214167e-06 6.4137406130694558e-06 -6.4249139362737516e-06
101 -2.1088994438515019e-06 6.5141630937034728e-06 -6.1638660370243284e-06
87 -1.7528422497593619e-06 7.3448119491112336e-06 -6.7373943566125178e-06
142 -1.7371758202506119e-06 7.3786060736531923e-06 -6.7859573376557581e-06
81 -1.8851712010540854e-06 6.9383887231737834e-06 -6.4411406746835607e-06
148 -1.7234664802007037e-06 7.5997446477104888e-06 -6.9444799349528151e-06
22 -2.0740004255069222e-06 6.6176985729432979e-06 -6.3497546819159162e-06
10 -1.7155530046830193e-06 7.7307503994968627e-06 -7.0340334034386496e-06
92 -1.5650423609125295e-06 7.9393298008335592e-06 -7.2824695080266825e-06
12 -1.6676844737075176e-06 7.9517038039969806e-06 -7.1636169811403728e-06
85 -1.6600963540087722e-06 7.9758898216140586e-06 -7.1743218695870579e-06
123 -1.5665555169774542e-06 8.1451572219429731e-06 -7.2451455174590962e-06
70 -1.5698893109859190e-06 8.1467905936992170e-06 -7.2400573334493684e-06