LAMMPS data file via write_data, version 30 Jul 2016, timestep = 50400000

180 atoms
2 atom types

0.0000000000000000e+00 2.0000000000000000e+01 xlo xhi
0.0000000000000000e+00 2.0000000000000000e+01 ylo yhi
0.0000000000000000e+00 2.0000000000000000e+01 zlo zhi

Masses

1 3.896
2 4.31

Atoms # meso-molecular

60 1 2 1.0280000000559246e+00 -1.0651700273260249e+02 1.0000000000000000e+00 9.7064887582275150e-01 9.2650119238638029e-01 4.7138563704372709e+00 
151 1 2 1.0280000006907264e+00 3.8458672786792008e+01 1.0000000000000000e+00 1.3469933978492428e+00 4.9247191990553239e-02 4.7922023605025368e+00 
69 1 2 1.0280000003516467e+00 4.7560608382014372e+01 1.0000000000000000e+00 1.2815548717172425e+00 2.4684831836045351e+00 6.3034250460971828e+00 
5 1 2 1.0280000003027763e+00 1.6850339965536197e+01 1.0000000000000000e+00 1.1850299141728264e+00 2.5212079619581460e+00 6.5888120352012658e+00 
82 1 2 1.0280000001758287e+00 7.3811698830352640e+01 1.0000000000000000e+00 1.0658357674411683e+00 2.5669340548755599e+00 6.6153860939033411e+00 
149 1 2 1.0279999997768636e+00 1.9819687865359676e+01 1.0000000000000000e+00 3.0308339515368710e-01 2.5603537072652096e+00 6.3591048783960922e+00 
6 1 2 1.0279999998530951e+00 -1.1706737089870904e+02 1.0000000000000000e+00 8.9918661847596518e-02 1.7897881866408918e+00 4.9405423736279417e+00 
39 1 2 1.0280000003829097e+00 -6.4171115641629672e+00 1.0000000000000000e+00 1.2538147426195467e+00 2.4604650184859920e+00 6.6703359114344511e+00 
54 1 2 1.0280000003279295e+00 -2.7807391998068930e+01 1.0000000000000000e+00 1.2072927280595496e+00 2.4760464968371858e+00 6.7020388939989255e+00 
76 1 2 1.0280000001422127e+00 3.1581945999880631e+01 1.0000000000000000e+00 1.0427163589006079e+00 2.5453403688490841e+00 6.7080379826962551e+00 
83 1 2 1.0280000000843377e+00 -2.5221925438368743e+01 1.0000000000000000e+00 9.8796122230585004e-01 2.5582040383200497e+00 6.7161148694208554e+00 
89 1 2 1.0280000000872997e+00 -1.3675054757077237e+02 1.0000000000000000e+00 9.9395136765824499e-01 2.5490621880188074e+00 6.7342400235387645e+00 
162 1 2 1.0279999998178835e+00 -8.3082697560634472e+01 1.0000000000000000e+00 7.8962768331779409e-01 2.2912174879699938e+00 7.0812297826190163e+00 
18 1 2 1.0280000034395860e+00 -5.4626793093006654e+01 1.0000000000000000e+00 2.7735936651129238e+00 1.0663720722951679e-01 7.1203288555652691e+00 
72 1 2 1.0280000036158654e+00 1.0264921732430993e+02 1.0000000000000000e+00 2.9886257582733555e+00 3.6896397842820866e-02 7.1184891862220452e+00 
114 1 2 1.0280000012890802e+00 -1.2539895884982015e+02 1.0000000000000000e+00 6.4789791961309131e+00 9.0555995772409648e-01 7.3090438863363474e+00 
113 1 2 1.0280000049331555e+00 -1.2135262136150197e+02 1.0000000000000000e+00 5.8556565681749833e+00 8.1032785153437692e-01 7.4942538068014475e+00 
106 1 2 1.0280000022126021e+00 3.6111036060233374e+01 1.0000000000000000e+00 5.9349305168440667e+00 9.0890676134220716e-01 7.4297781648656054e+00 
174 1 2 1.0279999954600481e+00 -3.0677369056958721e+01 1.0000000000000000e+00 5.9300922053028930e+00 6.7063901825662597e-01 7.2231276180187542e+00 
48 1 2 1.0279999962023925e+00 -1.0622885363752485e+02 1.0000000000000000e+00 5.9632761157223388e+00 6.8082942338168184e-01 7.2189613608508028e+00 
84 1 2 1.0279999973383307e+00 2.4792540321658385e+02 1.0000000000000000e+00 6.0152723634944687e+00 8.1170454716979090e-01 7.2330284133793796e+00 
94 1 2 1.0280000019835633e+00 1.3232297517655866e+02 1.0000000000000000e+00 6.5648877058519828e+00 9.2757470285469534e-01 7.3409594217192060e+00 
43 1 2 1.0280000009209140e+00 -1.4813770250480695e+02 1.0000000000000000e+00 6.4134468979829595e+00 8.7556568879931695e-01 7.2858677792694451e+00 
108 1 2 1.0280000008462156e+00 -3.8998433590321198e+01 1.0000000000000000e+00 6.4740083367244132e+00 9.3339477012076089e-01 7.3118598256123573e+00 
68 1 2 1.0280000006301768e+00 -4.5794655511092230e+01 1.0000000000000000e+00 2.6244942621053369e-01 7.6530313854467558e+00 9.6689541256926361e+00 
105 1 2 1.0280000015948940e+00 1.1270549841356120e+02 1.0000000000000000e+00 2.5022292462338682e+00 7.3727844395461446e+00 1.2266478795211061e+01 
120 1 2 1.0280000015529389e+00 4.7608061627963394e+01 1.0000000000000000e+00 2.5335016954886429e+00 7.3789291804433228e+00 1.2314293523434333e+01 
110 1 2 1.0280000016280459e+00 -3.7925130555162426e+01 1.0000000000000000e+00 5.1973490035870751e-01 7.2975025683906942e+00 1.0684775859525882e+01 
161 1 2 1.0280000015072992e+00 -1.1933756495319912e+02 1.0000000000000000e+00 1.8543324958947560e+00 7.6736344559622909e+00 1.1889427859918735e+01 
15 1 2 1.0280000037237225e+00 -2.0193722621534050e+01 1.0000000000000000e+00 9.0461188939376069e-01 7.6018041470899842e+00 1.0993594199208820e+01 
38 1 2 1.0280000009366006e+00 -3.7606148144893552e+01 1.0000000000000000e+00 4.8778513079911157e-01 7.5764249042740239e+00 1.0057250502022269e+01 
101 1 2 1.0280000011622972e+00 -5.8411166333957397e+01 1.0000000000000000e+00 7.5767505643674987e-02 7.5936490746888383e+00 1.1312440450882542e+01 
87 1 2 1.0279999975668610e+00 -3.1351606348040590e+01 1.0000000000000000e+00 1.8436016686830690e+00 7.8458536285594427e+00 1.1719078357225374e+01 
142 1 2 1.0279999978697782e+00 6.4464375407950797e+01 1.0000000000000000e+00 1.9267951935462386e+00 7.9189420849346739e+00 1.1836042837209932e+01 
81 1 2 1.0280000022545099e+00 -5.1977780901623646e+01 1.0000000000000000e+00 9.1140056142791925e-01 7.9220758228128689e+00 1.1138206053075519e+01 
148 1 2 1.0279999987652997e+00 4.6755829296515770e+01 1.0000000000000000e+00 2.4653042735260544e+00 8.1051793652375874e+00 1.2188884489602865e+01 
22 1 2 1.0280000001890603e+00 -7.9620024621959175e+01 1.0000000000000000e+00 4.0638621185193452e-01 8.3695319708159719e+00 1.0551497452777769e+01 
10 1 2 1.0279999988842468e+00 -1.4206366704298117e+02 1.0000000000000000e+00 2.8491591468174207e+00 8.1348592382118756e+00 1.2377060222776718e+01 
92 1 2 1.0280000038714192e+00 8.2423434704946743e+01 1.0000000000000000e+00 3.8463163760233243e+00 7.5020676532304451e+00 1.2640470050810638e+01 
12 1 2 1.0279999988534028e+00 -1.6500131016180165e+02 1.0000000000000000e+00 3.5258377711505924e+00 7.9874671224696669e+00 1.2657903047720941e+01 
85 1 2 1.0279999988474262e+00 2.0231447052924175e+01 1.0000000000000000e+00 3.6048272124245222e+00 7.9573229855545540e+00 1.2677095200014049e+01 
123 1 2 1.0280000020069981e+00 -7.3784632911234269e+01 1.0000000000000000e+00 4.0060263819411901e+00 7.7205084631622496e+00 1.2788445600173457e+01 
70 1 2 1.0280000018829223e+00 -1.6932451602664713e+02 1.0000000000000000e+00 4.0024397766090072e+00 7.7275658903243540e+00 1.2798899549795776e+01 
91 1 2 1.0280000018325988e+00 -1.3831443212205230e+01 1.0000000000000000e+00 4.0004055523500908e+00 7.7305153267004165e+00 1.2803492300738732e+01 
90 1 2 1.0279999992936022e+00 9.9526588355617434e+01 1.0000000000000000e+00 4.7342373385603800e+00 7.6361722125206564e+00 1.3171482833007369e+01 
180 1 2 1.0280000001318832e+00 1.8823624679593701e+02 1.0000000000000000e+00 5.3172929131343656e+00 7.2510509852078417e+00 1.3193000834449839e+01 
127 1 2 1.0279999986557038e+00 -3.6804615705174868e+01 1.0000000000000000e+00 4.8486781778720944e+00 7.6786455148117305e+00 1.3225656146212701e+01 
55 1 2 1.0280000016186945e+00 1.4912955676426688e+02 1.0000000000000000e+00 4.9836828693136006e+00 7.1326326322601030e+00 1.3453902690584872e+01 
128 1 2 1.0279999989059201e+00 2.1926553188975721e+00 1.0000000000000000e+00 6.6496496637860893e+00 7.8225766039811715e+00 1.4151125345727044e+01 
172 1 2 1.0279999992436211e+00 2.1569725108701249e+02 1.0000000000000000e+00 2.8015222294600606e+00 1.7848517940093618e+01 5.9554808895136508e+00 
131 1 2 1.0279999992079407e+00 -9.6411599677085462e+01 1.0000000000000000e+00 2.7480914840487798e+00 1.7884441543995383e+01 6.5260705645097401e+00 
49 1 2 1.0279999992894147e+00 3.1333471847024015e+01 1.0000000000000000e+00 2.8871555329892442e+00 1.7887557927326498e+01 5.8594248451173003e+00 
100 1 2 1.0279999993877724e+00 1.6538834857573539e+02 1.0000000000000000e+00 2.7905022330492533e+00 1.7896682161573992e+01 5.8336154187066303e+00 
159 1 2 1.0279999994117472e+00 1.7017308719539628e+02 1.0000000000000000e+00 2.9532713617487363e+00 1.7957639738673642e+01 5.7533256337500900e+00 
31 1 2 1.0279999994532314e+00 -4.3162512460900871e+01 1.0000000000000000e+00 3.0274149867955891e+00 1.8005021623384909e+01 5.7157452861366034e+00 
8 1 2 1.0279999996425901e+00 4.9878430116076686e+01 1.0000000000000000e+00 2.8290063599380790e+00 1.8009569470077174e+01 5.6643538019379864e+00 
170 1 2 1.0279999996287106e+00 5.1577624585833163e+01 1.0000000000000000e+00 2.9390582151473361e+00 1.8046421939754772e+01 5.6433473920198205e+00 
111 1 2 1.0279999994068811e+00 -9.5829241558083055e+01 1.0000000000000000e+00 3.2758390613220714e+00 1.8112610194203736e+01 5.7379870300677274e+00 
41 1 2 1.0280000000267260e+00 4.1127206532529662e+01 1.0000000000000000e+00 7.9120528179306782e-01 1.9293163626167210e+01 6.3839525908667127e+00 
140 1 2 1.0280000000111844e+00 -5.4932276782443658e+01 1.0000000000000000e+00 6.9943583452881697e-01 1.9343842801213952e+01 6.3670253318693231e+00 
56 1 2 1.0279999993810511e+00 2.3722818831949574e+01 1.0000000000000000e+00 3.5117322100436752e+00 1.8283882578483574e+01 5.7998321849810885e+00 
13 1 2 1.0279999993229334e+00 -7.1146887275483337e+00 1.0000000000000000e+00 3.0692393854188444e+00 1.8107628835197580e+01 6.8660309028883724e+00 
80 1 2 1.0280000014406863e+00 -8.0838475829345526e+01 1.0000000000000000e+00 2.8364423551675713e+00 1.9700418911310436e+01 7.2592269616295217e+00 
169 1 2 1.0280000018003932e+00 8.5265402307805999e+01 1.0000000000000000e+00 2.7146854697392198e+00 1.9826014293971959e+01 7.2299702052958006e+00 
36 1 2 1.0280000019951492e+00 -5.3359510756364505e+00 1.0000000000000000e+00 2.7735390136099785e+00 1.9852882563924176e+01 7.2203897255837930e+00 
155 1 2 1.0279999957180430e+00 -1.0396584044113279e+01 1.0000000000000000e+00 4.3223632678944011e+00 1.9626100846963912e+01 6.9086532972462580e+00 
99 1 2 1.0279999975610781e+00 -5.1685311729496917e+01 1.0000000000000000e+00 4.2552301455364301e+00 1.9660115917383170e+01 6.9887128752446364e+00 
121 1 2 1.0280000041372184e+00 -6.7656328740644938e+01 1.0000000000000000e+00 6.7957809042802744e+00 9.5593383001627041e-01 7.4390467582552127e+00 
130 1 2 1.0279999994275397e+00 2.9611138586901325e+02 1.0000000000000000e+00 7.0620145649601609e+00 1.3635860703913565e+00 7.6913336826581808e+00 
11 1 2 1.0280000031037422e+00 5.8992558580839429e+01 1.0000000000000000e+00 7.6466736066451721e+00 1.0976502611031060e+00 9.9584933014166381e+00 
167 1 2 1.0279999994081719e+00 -4.6494102198309093e+01 1.0000000000000000e+00 7.1316650357014204e+00 1.3468872387388449e+00 7.6738638506681962e+00 
165 1 2 1.0279999946359091e+00 -4.7922954631560394e+01 1.0000000000000000e+00 9.3313016063467984e+00 3.0053655481342760e+00 8.1436995071594680e+00 
146 1 2 1.0279999956868631e+00 -1.0773734319847060e+02 1.0000000000000000e+00 9.1155557207019289e+00 3.0042979324696182e+00 8.6690061785183232e+00 
179 1 2 1.0279999973226983e+00 -5.6566375832070946e+01 1.0000000000000000e+00 9.5859317291737991e+00 3.0741774530043418e+00 8.0762181990830850e+00 
37 1 2 1.0280000035037866e+00 -1.3286739460274856e+02 1.0000000000000000e+00 6.6939780093590242e+00 9.3026925080891787e-01 7.3937908528638685e+00 
30 1 2 1.0280000000970548e+00 -6.8521259962198666e+00 1.0000000000000000e+00 9.6952692845317063e+00 3.3142274336782771e+00 8.1940324089044783e+00 
44 1 2 1.0280000002552205e+00 -1.9196963370524621e+01 1.0000000000000000e+00 9.6920135230389022e+00 3.3438291351311613e+00 8.2307935547607283e+00 
7 1 2 1.0280000003392777e+00 -2.8622844621459748e+01 1.0000000000000000e+00 9.6989827832209805e+00 3.3425566113669904e+00 8.2239007052413360e+00 
42 1 2 1.0280000004733560e+00 -5.0143541167437547e+01 1.0000000000000000e+00 9.7087423411676994e+00 3.3434272051810958e+00 8.2179332706169159e+00 
134 1 2 1.0280000005068644e+00 -4.4025227940361660e+01 1.0000000000000000e+00 9.7108339192119661e+00 3.3443441759588790e+00 8.2175686485930388e+00 
32 1 2 1.0280000006574921e+00 7.5630692776839950e+01 1.0000000000000000e+00 9.7222900487531518e+00 3.3445372842928212e+00 8.2100010564027013e+00 
59 1 2 1.0280000006787855e+00 5.2920547314383583e+01 1.0000000000000000e+00 9.7238269153494521e+00 3.3447439747766161e+00 8.2092265165053515e+00 
78 1 2 1.0280000007580392e+00 -6.8685633700247109e+01 1.0000000000000000e+00 9.7293845254323958e+00 3.3458592549911867e+00 8.2068865745699338e+00 
65 1 2 1.0280000013096562e+00 8.0337427997975325e+01 1.0000000000000000e+00 9.7642709453034477e+00 3.3622162669542290e+00 8.2035017132965411e+00 
24 1 2 1.0279999968426210e+00 -4.6389800838221191e+00 1.0000000000000000e+00 1.3280404015988044e+01 3.8571307024961468e+00 9.5036341394463868e+00 
17 1 2 1.0279999967193727e+00 6.8918501326717603e+01 1.0000000000000000e+00 1.3227974615117075e+01 3.7892629099504083e+00 9.3006523341378760e+00 
175 1 2 1.0279999966077513e+00 -1.9825252349810807e+01 1.0000000000000000e+00 1.3217964345906081e+01 3.7954094432833965e+00 9.3428805342791765e+00 
20 1 2 1.0279999971632616e+00 -4.9653281530017352e+00 1.0000000000000000e+00 1.3217748560746902e+01 3.7789238772800693e+00 9.1576705758252928e+00 
129 1 2 1.0279999974154765e+00 -3.6884662502160964e+01 1.0000000000000000e+00 1.3221347638026250e+01 3.7835372961352598e+00 9.1085144096957915e+00 
138 1 2 1.0279999979153349e+00 -1.2316876265503312e+02 1.0000000000000000e+00 1.3232259630384929e+01 3.8009778925188820e+00 9.0245709373133209e+00 
97 1 2 1.0279999980954044e+00 -6.5314957063088343e+01 1.0000000000000000e+00 1.3213013129181068e+01 3.8062842937550307e+00 8.9871399210329415e+00 
117 1 2 1.0279999995769065e+00 -2.0521910488481637e+01 1.0000000000000000e+00 1.3128752900079178e+01 3.9094671679084336e+00 8.7453600552277262e+00 
176 1 2 1.0280000019685829e+00 -3.5430038239810415e+01 1.0000000000000000e+00 1.2309957115303037e+01 5.0481820204859496e+00 9.1291303955179899e+00 
116 1 2 1.0279999986000952e+00 -1.1221992422166144e+02 1.0000000000000000e+00 1.3164478891248836e+01 3.8283306161382895e+00 8.8955297290888460e+00 
163 1 2 1.0280000107312519e+00 -2.1793827431942987e+01 1.0000000000000000e+00 1.1430230241417185e+01 3.8835100495062691e+00 8.7325516748240481e+00 
52 1 2 1.0280000002988570e+00 5.0920739499528743e+01 1.0000000000000000e+00 1.3225833416704264e+01 6.2094007390295554e+00 9.1998983655680373e+00 
27 1 2 1.0279999995544664e+00 6.1408739661701262e+01 1.0000000000000000e+00 9.8556917846059342e+00 1.1184430467528703e+00 1.1132659942518790e+01 
74 1 2 1.0280000006815952e+00 9.3907733545043413e+01 1.0000000000000000e+00 8.0367443854158491e+00 5.2277683161450395e-01 1.1082257247572338e+01 
164 1 2 1.0280000007094063e+00 -1.6486579838814191e+02 1.0000000000000000e+00 8.0236840828426779e+00 5.0648616425412374e-01 1.1072267060785070e+01 
145 1 2 1.0280000007269052e+00 -3.9214802812745404e+01 1.0000000000000000e+00 8.0126166595289785e+00 4.8382649262168764e-01 1.1065951794810886e+01 
19 1 2 1.0280000008191794e+00 1.0191455062809370e+01 1.0000000000000000e+00 7.9730409891307330e+00 4.2935559323438854e-01 1.1030265521583894e+01 
173 1 2 1.0280000008557213e+00 -6.7360081065045065e+01 1.0000000000000000e+00 7.9456826468804165e+00 3.5031162229229235e-01 1.1007055928534561e+01 
57 1 2 1.0280000010145469e+00 1.0893951083406550e+00 1.0000000000000000e+00 7.9114664503837986e+00 3.6548239602167149e-01 1.0956128674063056e+01 
177 1 2 1.0280000010271009e+00 -9.6355605099628647e+00 1.0000000000000000e+00 7.9049047666142034e+00 3.4618140987573942e-01 1.0948630886806541e+01 
156 1 2 1.0279999999263654e+00 6.6303140278994675e+01 1.0000000000000000e+00 9.1928771448845072e+00 2.7808560345920263e-01 1.1621072117879033e+01 
28 1 2 1.0280000012566040e+00 -1.6000372919180722e+02 1.0000000000000000e+00 7.8442649990863620e+00 2.6092022870095927e-01 1.0853161307535391e+01 
137 1 2 1.0279999988622108e+00 -6.4343791208008753e+01 1.0000000000000000e+00 1.0757362242659864e+01 5.8159363565686628e-01 1.0452733385478050e+01 
166 1 2 1.0279999991672599e+00 5.1610468898088939e+01 1.0000000000000000e+00 1.0787161419698750e+01 4.4244688575029401e-01 1.0416714900727081e+01 
157 1 2 1.0279999959998316e+00 -4.6188886022937140e+01 1.0000000000000000e+00 1.0649982660037358e+01 1.2085797867368311e+00 1.0279953941984385e+01 
102 1 2 1.0279999972385039e+00 -2.6659034505523977e+01 1.0000000000000000e+00 1.0735952054272643e+01 9.2631928208646086e-01 1.0300290303004644e+01 
126 1 2 1.0279999992236197e+00 -7.2634289342473039e+01 1.0000000000000000e+00 1.0810486122492931e+01 3.8129311365645246e-01 1.0346597235892386e+01 
63 1 2 1.0279999958655581e+00 7.9228224641418080e+01 1.0000000000000000e+00 1.0771542219801454e+01 1.0372458385392680e+00 1.0096064014054328e+01 
141 1 2 1.0280000006762540e+00 1.1786973999648680e+02 1.0000000000000000e+00 6.8169031617186153e+00 6.5737840904895783e+00 1.4354263376109277e+01 
64 1 2 1.0280000008277588e+00 1.3600484904831669e+02 1.0000000000000000e+00 6.8456913172591101e+00 6.6108938392369385e+00 1.4504231350784647e+01 
14 1 2 1.0280000006022492e+00 -2.9852014583587717e+01 1.0000000000000000e+00 7.1224463486118932e+00 6.9077570777147441e+00 1.4634492863713715e+01 
178 1 2 1.0280000004835927e+00 2.2329909116683473e+02 1.0000000000000000e+00 7.1408046260746296e+00 6.9720507844625548e+00 1.4651286267295642e+01 
23 1 2 1.0280000005915695e+00 1.7641086231029902e+01 1.0000000000000000e+00 6.8173680629461275e+00 7.0230568315018864e+00 1.4894766558882932e+01 
62 1 2 1.0280000003717342e+00 6.5539182856693827e+00 1.0000000000000000e+00 7.1465129661585145e+00 7.0287361629587366e+00 1.4668258048975281e+01 
171 1 2 1.0280000003100533e+00 -1.5927314442951570e+02 1.0000000000000000e+00 7.1621148269410586e+00 7.0386080859588800e+00 1.4646103095752338e+01 
147 1 2 1.0280000002799801e+00 1.5460798113440003e+02 1.0000000000000000e+00 7.1638058342808453e+00 7.0509915740942057e+00 1.4646980776858031e+01 
47 1 2 1.0280000002612610e+00 5.0753230345424363e+01 1.0000000000000000e+00 7.1600099322783226e+00 7.0647544889270062e+00 1.4656879663032393e+01 
46 1 2 1.0280000002014933e+00 -4.3208432594800939e+01 1.0000000000000000e+00 7.1665277528467506e+00 7.0833029688457883e+00 1.4649334089059330e+01 
96 1 2 1.0280000001074721e+00 -1.0016459485786999e+02 1.0000000000000000e+00 7.1599957970537709e+00 7.1296385826686821e+00 1.4663235462154471e+01 
135 1 2 1.0279999990033108e+00 -1.7430225506018736e+01 1.0000000000000000e+00 6.8237249152831181e+00 7.7376376543127527e+00 1.4358646496126987e+01 
45 1 2 1.0280000007230445e+00 -9.8805605993916117e+01 1.0000000000000000e+00 9.5799906597553974e+00 1.9113109035136862e+01 9.3293632459136777e+00 
152 1 2 1.0280000005489991e+00 -1.0627390872200678e+02 1.0000000000000000e+00 9.7745345339211429e+00 1.9124862115701131e+01 9.3664893224027672e+00 
104 1 2 1.0280000007917898e+00 1.6635480505656780e+01 1.0000000000000000e+00 9.5633996003683137e+00 1.9143114488970241e+01 9.2918853743617049e+00 
112 1 2 1.0280000006374082e+00 -7.5707549362640123e+01 1.0000000000000000e+00 9.7689740730448555e+00 1.9194729865344339e+01 9.2870056307102953e+00 
16 1 2 1.0280000005199033e+00 -5.0542214530177560e+01 1.0000000000000000e+00 9.9102321366736490e+00 1.9223621138492799e+01 9.3146088847120332e+00 
88 1 2 1.0280000005223258e+00 7.1544138573860039e+01 1.0000000000000000e+00 9.9129828086944443e+00 1.9230341622651441e+01 9.3091129409450275e+00 
154 1 2 1.0280000003936340e+00 1.2758316477838424e+02 1.0000000000000000e+00 1.0080713505789289e+01 1.9255082674796615e+01 9.3814265410134539e+00 
71 1 2 1.0279999998672196e+00 9.8533666230081565e+00 1.0000000000000000e+00 9.6503067763357002e+00 1.9103866318076459e+01 1.1007579762749975e+01 
77 1 2 1.0279999999268361e+00 -7.8758818071814943e+01 1.0000000000000000e+00 9.4660786771311187e+00 1.8793653905125716e+01 1.0297197262102735e+01 
160 1 2 1.0280000003520160e+00 1.2994419255900372e+01 1.0000000000000000e+00 1.9304647531208083e+01 2.0707677088164084e-01 3.8206443245813433e+00 
75 1 2 1.0280000002804031e+00 2.6176159810996662e+01 1.0000000000000000e+00 1.9388769122454079e+01 4.0208380810874700e-01 3.8784731384182405e+00 
158 1 2 1.0279999993825710e+00 1.4661299777128048e+02 1.0000000000000000e+00 1.9406476896336486e+01 1.0432507642675730e+00 6.3590719942796730e+00 
2 1 2 1.0279999993804059e+00 -1.2758269803411159e+02 1.0000000000000000e+00 1.9413962303738831e+01 1.1607323038928512e+00 6.3644802562799221e+00 
50 1 2 1.0279999993803437e+00 2.3420332862805239e+01 1.0000000000000000e+00 1.9441736601284614e+01 1.2650449414018279e+00 6.3912725004124766e+00 
153 1 2 1.0279999996133100e+00 -1.4260375561709791e+01 1.0000000000000000e+00 1.9950897049997067e+01 2.3030828890367507e+00 6.4235376521654288e+00 
109 1 2 1.0280000006073426e+00 -6.3395009179403878e+00 1.0000000000000000e+00 1.3829113460645347e+01 6.4873173267002171e+00 9.4347266468899722e+00 
86 1 2 1.0280000005085406e+00 -1.8240387154200630e+00 1.0000000000000000e+00 1.3744909492787743e+01 6.4698931135833906e+00 9.4261225274244840e+00 
133 1 2 1.0280000006670424e+00 -1.5032939669167195e+01 1.0000000000000000e+00 1.3802239982742185e+01 6.4787622028162435e+00 9.5305340490108748e+00 
168 1 2 1.0280000004706085e+00 -8.9845518959582940e+00 1.0000000000000000e+00 1.3708601310187632e+01 6.4607912776368197e+00 9.4229053593365766e+00 
40 1 2 1.0280000006017584e+00 9.0408498270266492e+01 1.0000000000000000e+00 1.3825716586134851e+01 6.4866747978751045e+00 9.4330700628921846e+00 
115 1 2 1.0280000006553163e+00 5.7804609786057725e+01 1.0000000000000000e+00 1.3793445423665787e+01 6.4771934297447649e+00 9.5280670764269910e+00 
9 1 2 1.0280000008808647e+00 4.3632351838476325e+01 1.0000000000000000e+00 1.3946662775423325e+01 6.4769127014064836e+00 9.6602793042093040e+00 
67 1 2 1.0279999993432440e+00 -1.0382747100858379e+02 1.0000000000000000e+00 1.4844869968767281e+01 5.5643901251998704e+00 9.6904122255309932e+00 
103 1 2 1.0279999993426210e+00 -5.3788796705116852e+01 1.0000000000000000e+00 1.4844991313974365e+01 5.5878405710775274e+00 9.7016888277183604e+00 
107 1 2 1.0279999995715745e+00 7.7231088751485430e+01 1.0000000000000000e+00 1.4800926579757983e+01 5.6528231378191753e+00 9.8187742401002573e+00 
73 1 2 1.0279999998688139e+00 3.6260896603090977e+01 1.0000000000000000e+00 1.4741386411172698e+01 5.8787179222936308e+00 9.8982518409474558e+00 
124 1 2 1.0280000001993739e+00 -4.0693619820978682e+01 1.0000000000000000e+00 1.9455786387025523e+01 7.6650393535340955e+00 8.8727405107712212e+00 
98 1 2 1.0279999993244591e+00 -7.8392966519533928e+01 1.0000000000000000e+00 1.8013799926458116e+01 7.9365081754886591e+00 8.6864307150476758e+00 
136 1 2 1.0279999994819828e+00 -9.1583092793344854e+00 1.0000000000000000e+00 1.8450612848938821e+01 8.0992003124013614e+00 8.6076920107210064e+00 
139 1 2 1.0279999999245368e+00 1.6852140936171119e+02 1.0000000000000000e+00 1.9199606593689889e+01 8.1478286757967151e+00 8.7508769458145057e+00 
51 1 2 1.0279999985317096e+00 5.9855975929561446e+01 1.0000000000000000e+00 1.7131751323290178e+01 7.3463647218563386e+00 9.6772137514901395e+00 
34 1 2 1.0279999988874724e+00 -1.1548225201642725e+02 1.0000000000000000e+00 1.7277702325040543e+01 7.1222587472161898e+00 9.6948200547616530e+00 
53 1 2 1.0279999989333544e+00 7.9106253102874888e+01 1.0000000000000000e+00 1.7111603481206163e+01 7.6579532500165808e+00 9.6613821178877011e+00 
61 1 2 1.0279999996367806e+00 1.6817257172775842e+02 1.0000000000000000e+00 1.8760552934026592e+01 8.5216583489102238e+00 8.8296381353448972e+00 
122 1 2 1.0279999995740243e+00 7.4320960398043454e+01 1.0000000000000000e+00 1.8669494776666976e+01 8.2573453003504689e+00 8.6566297581771963e+00 
25 1 2 1.0279999995856670e+00 6.3254307339088314e+01 1.0000000000000000e+00 1.8690449955668317e+01 8.2628188909823255e+00 8.6603646326959680e+00 
3 1 2 1.0279999995167426e+00 -4.8994714252729310e+01 1.0000000000000000e+00 1.8560083926720413e+01 8.4230572050117303e+00 8.7460696998407474e+00 
118 1 2 1.0279999983463990e+00 -3.1869910168272831e+01 1.0000000000000000e+00 1.7133630043801674e+01 7.5906945249907301e+00 9.5002755562029844e+00 
150 1 2 1.0280000007196231e+00 7.1171798160993035e+01 1.0000000000000000e+00 1.8640951413562966e+01 7.6810686941545878e+00 1.1139790104328222e+01 
144 1 2 1.0280000001478600e+00 1.2387523667758791e+02 1.0000000000000000e+00 1.7681267429362688e+01 7.1130619747099697e+00 1.0389419374578019e+01 
125 1 2 1.0280000005157870e+00 -1.2364918140154947e+02 1.0000000000000000e+00 1.8450349091382304e+01 8.0812527459099215e+00 1.1021846573426640e+01 
66 1 2 1.0279999999752580e+00 6.3844293752043484e+00 1.0000000000000000e+00 1.7308484266180077e+01 7.1802681668170871e+00 1.0030322268825591e+01 
29 1 2 1.0280000002550256e+00 5.5381019645583777e+01 1.0000000000000000e+00 1.7632319166702757e+01 8.0243999445795726e+00 1.0509207550121481e+01 
79 1 2 1.0280000010980057e+00 -8.6887164882983200e+01 1.0000000000000000e+00 1.9738582538160674e+01 7.4948381109128972e+00 1.1275117630793654e+01 
95 1 2 1.0280000004787142e+00 1.6471322178157200e+02 1.0000000000000000e+00 1.8305405507623647e+01 8.0702587405888213e+00 1.0962669678509098e+01 
21 1 2 1.0280000002147969e+00 -3.2495201681078271e+01 1.0000000000000000e+00 1.9403100343712719e+01 1.9266933099124387e+01 4.0658709059766691e+00 
33 1 2 1.0280000002806073e+00 -7.3099123460135296e-01 1.0000000000000000e+00 1.9508003009930423e+01 1.9307678460246329e+01 4.0018263913378798e+00 
35 1 2 1.0280000002992991e+00 -2.2419241415437973e+01 1.0000000000000000e+00 1.9298935410049527e+01 1.9445845890745638e+01 3.9182644698138751e+00 
4 1 2 1.0280000002840046e+00 6.9306052048806436e+01 1.0000000000000000e+00 1.9198150715812019e+01 1.9474468732042702e+01 3.9385287251345553e+00 
93 1 2 1.0279999999478684e+00 -6.0375101801269082e+01 1.0000000000000000e+00 1.8837760425895841e+01 1.9518800100110596e+01 4.4050277012665147e+00 
58 1 2 1.0280000002262319e+00 -1.2289087619650401e+00 1.0000000000000000e+00 1.8995497170319705e+01 1.9560749701883232e+01 4.0291553965415670e+00 
132 1 2 1.0280000000489700e+00 6.8344475134908848e+01 1.0000000000000000e+00 1.8849248248141237e+01 1.9567237443885720e+01 4.2607144387055893e+00 
26 1 2 1.0280000000865059e+00 -1.9579940272124357e+00 1.0000000000000000e+00 1.8860379276782126e+01 1.9583319773418655e+01 4.2133384642464682e+00 
1 1 2 1.0280000003760807e+00 -2.2265717954970961e+02 1.0000000000000000e+00 1.9415836676333324e+01 1.9594736595180436e+01 3.8126121024327899e+00 
119 1 2 1.0280000002163021e+00 2.0434680225809205e+02 1.0000000000000000e+00 1.8935478308464145e+01 1.9622731039188015e+01 4.0571453504420969e+00 
143 1 2 1.0279999997115703e+00 1.3236629244211144e+02 1.0000000000000000e+00 1.9911378648121048e+01 1.9897640050093905e+01 6.3272876279580332e+00 

Velocities

60 1.1395097598324295e-06 -5.8893005036725860e-06 5.5657803496990545e-06
151 1.2709193421994001e-06 -5.8865771824198879e-06 5.4042800871069315e-06
69 1.0589861487033902e-06 -5.7242662850306211e-06 5.5820020278466280e-06
5 1.0426784051981656e-06 -5.7272848567790953e-06 5.6053744938567385e-06
82 1.0299825900207030e-06 -5.7451432302864104e-06 5.6099801295284460e-06
149 1.0389326490406992e-06 -5.8512406623061494e-06 5.6282824288994551e-06
6 1.0846297402147339e-06 -5.9230791617967041e-06 5.6805915772075702e-06
39 1.0510725057586960e-06 -5.7158098723170205e-06 5.6077330681534618e-06
54 1.0438160675384070e-06 -5.7223747405529489e-06 5.6107628834661754e-06
76 1.0265963846998375e-06 -5.7478454995202801e-06 5.6126839703766245e-06
83 1.0230137862997671e-06 -5.7564246501341513e-06 5.6128735032451968e-06
89 1.0230271651929051e-06 -5.7553632163405449e-06 5.6130504476234476e-06
162 1.0136412086993008e-06 -5.7788404880008970e-06 5.5946879129204709e-06
18 1.3279556901498101e-06 -5.3475487382656639e-06 5.2844141813955833e-06
72 1.3624890957263534e-06 -5.2881593294093589e-06 5.1981655056030250e-06
114 8.0708726234139613e-07 -3.5110812951857248e-06 2.8126865112923027e-06
113 6.3819386535053333e-07 -3.6960731466712023e-06 3.1364944526995244e-06
106 7.3088312331718582e-07 -3.6639307879451678e-06 3.0423915547369360e-06
174 8.6791209823929394e-07 -3.7926290381196980e-06 3.2252810814638434e-06
48 8.4996446395137392e-07 -3.7801412524298834e-06 3.1981231165229665e-06
84 8.4062494057345983e-07 -3.7692140911568246e-06 3.1261637767162906e-06
94 8.2216680439078861e-07 -3.4633528926778012e-06 2.7556518234810393e-06
43 8.0046476667945075e-07 -3.5517403533105566e-06 2.8529128883776060e-06
108 8.0339785286301111e-07 -3.5035572274816426e-06 2.8280641463465913e-06
68 -1.9731488379407074e-06 5.9182376363030210e-06 -5.9848256709651526e-06
105 -1.6654938035299886e-06 7.0818476038984424e-06 -6.5034530579135021e-06
120 -1.6647064456573726e-06 7.1009157954692587e-06 -6.5042520560921371e-06
110 -1.8504501386308493e-06 6.0264836217097759e-06 -6.0154069440622771e-06
161 -1.7045889717946802e-06 6.9380882572562027e-06 -6.3516744833795220e-06
15 -1.7027370739492204e-06 6.2866572286541506e-06 -6.0979346762189357e-06
38 -1.8904059113375548e-06 6.0235984711900169e-06 -6.0483397949892425e-06
101 -1.9786679114003234e-06 6.1179121736213464e-06 -5.8030047632484142e-06
87 -1.6434172139120737e-06 6.8981090258337143e-06 -6.3430467863011560e-06
142 -1.6286739455821956e-06 6.9298678232801098e-06 -6.3887412981258640e-06
81 -1.7681210165052637e-06 6.5165113187656314e-06 -6.0639795303245533e-06
148 -1.6156405151196688e-06 7.1376092220827465e-06 -6.5379890455074260e-06
22 -1.9458368309835578e-06 6.2153811619353552e-06 -5.9777610327500484e-06
10 -1.6081098444719213e-06 7.2606508410683383e-06 -6.6223153643412335e-06
92 -1.4665462373164894e-06 7.4565094668492013e-06 -6.8561536523563244e-06
12 -1.5629932101063664e-06 7.4681495828998372e-06 -6.7443885733343782e-06
85 -1.5558490847050503e-06 7.4908592904675766e-06 -6.7544837531568622e-06
123 -1.4679112585928758e-06 7.6497961987722137e-06 -6.8212099576865257e-06
70 -1.4710359357079508e-06 7.6513398398025240e-06 -6.8164333386954599e-06