LAMMPS data file via write_data, version 30 Jul 2016, timestep = 50000000

384 atoms
2 atom types

0.0000000000000000e+00 2.0000000000000000e+01 xlo xhi
0.0000000000000000e+00 2.0000000000000000e+01 ylo yhi
0.0000000000000000e+00 2.0000000000000000e+01 zlo zhi

Masses

1 3.896
2 4.31

Atoms # meso-molecular

199 1 2 1.1605682584842913e+00 7.2702460563297571e+00 1.0000000000000000e+00 1.4578192232966363e+00 3.0934247532959830e-01 6.1097515574600594e-02 
323 1 2 1.1605682584842913e+00 9.1125371550315837e+00 1.0000000000000000e+00 4.1206960533323223e-01 3.1068890098396111e+00 5.0071961843836044e-01 
232 1 2 1.1605682584842913e+00 6.9721430556123963e+01 1.0000000000000000e+00 3.3296152434965580e+00 5.2375787169659764e+00 5.4756587017190550e-01 
210 1 2 1.1605682584842913e+00 1.6074684712419302e+01 1.0000000000000000e+00 1.1550639383196932e+00 8.2067142103215343e+00 5.2434673451779346e-01 
123 1 2 1.1605682584842913e+00 -1.0343131418915448e+00 1.0000000000000000e+00 2.9422454987580124e+00 8.7443640180503213e+00 1.2646999375494159e+00 
204 1 2 1.1605682584842913e+00 3.9764625860508618e+00 1.0000000000000000e+00 2.8364495120895299e+00 2.6278665349723740e+00 2.1174372269261572e+00 
321 1 2 1.1605682584842913e+00 1.7760704553809134e+01 1.0000000000000000e+00 5.3956751744172085e+00 1.8768597026878413e+00 1.6091735391711393e+00 
8 1 2 1.1605682584842913e+00 8.7374302780281141e+00 1.0000000000000000e+00 6.3421633189291935e+00 4.8622828138847751e+00 1.7824698354347654e+00 
59 1 2 1.1605682584842913e+00 1.2695260043792036e+01 1.0000000000000000e+00 1.6735929536605469e+00 6.7979803203870244e+00 2.3508335539664187e+00 
250 1 2 1.1605682584842913e+00 5.6141641261951261e+00 1.0000000000000000e+00 4.3613638415240032e+00 6.9225636368670838e+00 1.9908434221287103e+00 
144 1 2 1.1605682584842913e+00 -1.3080756133192119e+02 1.0000000000000000e+00 4.9459011464008533e+00 9.2085570456391128e+00 1.5304842394038785e+00 
67 1 2 1.1605682584842913e+00 1.9251260527421885e+00 1.0000000000000000e+00 3.8724726871881190e+00 6.0530871097421701e-01 3.6712260555640923e+00 
77 1 2 1.1605682584842913e+00 -1.1824594119963106e+02 1.0000000000000000e+00 1.0456590703209601e+00 4.4363083670569106e+00 3.7281408072181366e+00 
99 1 2 1.1605682584842913e+00 -7.6313168566620018e+00 1.0000000000000000e+00 4.9138750593615148e+00 4.9001416808927019e+00 3.9634814724677407e+00 
53 1 2 1.1605682584842913e+00 6.6668976008006435e+00 1.0000000000000000e+00 3.2597297894453310e+00 8.4305424645458569e+00 4.1874022911627051e+00 
82 1 2 1.1605682584842913e+00 -2.7660753351559762e+01 1.0000000000000000e+00 6.0900150341110768e+00 7.3586247707843127e+00 3.1349499522259472e+00 
37 1 2 1.1605682584842913e+00 7.3893995695897114e+00 1.0000000000000000e+00 3.5485581159039387e-01 9.4613897637376922e+00 4.2570177445123827e+00 
69 1 2 1.1605682584842913e+00 1.0149739087926378e+01 1.0000000000000000e+00 1.6800511523393931e+00 1.8965643975018278e+00 4.5673767528481335e+00 
212 1 2 1.1605682584842913e+00 5.0944492383613351e+00 1.0000000000000000e+00 6.1950515480059156e+00 2.5703624058961667e+00 5.4169920358764969e+00 
266 1 2 1.1605682584842913e+00 7.8305201300921556e+00 1.0000000000000000e+00 3.5116238085659699e+00 3.5552353357211288e+00 5.6214163688434811e+00 
311 1 2 1.1605682584842913e+00 -1.1529385750308183e+00 1.0000000000000000e+00 3.7774127864994744e-01 7.4738646142197815e+00 4.7380000169918635e+00 
134 1 2 1.1605682584842913e+00 1.2995628352784756e+01 1.0000000000000000e+00 4.5856484803983122e+00 7.6386883091936708e+00 5.5282657430267905e+00 
259 1 2 1.1605682584842913e+00 7.3364445487442342e+00 1.0000000000000000e+00 5.5904303808392133e-02 1.2776606990395800e+00 6.2983302027994288e+00 
249 1 2 1.1605682584842913e+00 4.0669895264039972e+00 1.0000000000000000e+00 1.8890874678512968e+00 3.4167878058766137e+00 7.0522229714662945e+00 
378 1 2 1.1605682584842913e+00 -1.4713533681960101e+01 1.0000000000000000e+00 2.6561933146664649e+00 5.5580677385539587e+00 6.5087861435061329e+00 
32 1 2 1.1605682584842913e+00 2.7661125293278353e+01 1.0000000000000000e+00 3.1718446136191409e+00 9.8335929963797426e+00 6.4976448688197657e+00 
368 1 2 1.1605682585301329e+00 1.3862137715645391e+01 1.0000000000000000e+00 2.2916585640041460e+00 1.3481539903783655e+00 8.5430849876426969e+00 
363 1 2 1.1605682586712889e+00 7.6201536785251767e+00 1.0000000000000000e+00 5.1995006589345367e+00 1.1188925682683399e+00 8.2990369663105685e+00 
218 1 2 1.1605682586712889e+00 1.2494313250414979e+01 1.0000000000000000e+00 5.5348623011337370e+00 2.8658145636814925e+00 7.3926679213166233e+00 
271 1 2 1.1605682584842913e+00 1.3353350892426800e+01 1.0000000000000000e+00 3.5473492015573966e+00 7.9026529150537028e+00 7.9832906140001647e+00 
129 1 2 1.1605682584842913e+00 1.9533445547936076e+01 1.0000000000000000e+00 1.5776265348482645e+00 8.7934684544612214e+00 7.5575882424385430e+00 
335 1 2 1.1605682584842913e+00 1.2583322172342491e+01 1.0000000000000000e+00 6.0881410755422767e+00 9.3062226142237741e+00 7.9119674025178037e+00 
172 1 2 1.1605682584842913e+00 -2.0171253139541726e+01 1.0000000000000000e+00 1.0858919960462232e+00 3.1790699547179520e+00 9.9710059145791146e+00 
83 1 2 1.1605682584842913e+00 -3.3175409431343496e+01 1.0000000000000000e+00 1.3368415217467979e+00 5.4362504339719262e+00 9.9353378254146332e+00 
224 1 2 1.1605682585301329e+00 1.9290012210370350e+01 1.0000000000000000e+00 2.5915607862551280e+00 1.2036384029651785e+00 1.0512691803286142e+01 
225 1 2 1.1605682584842913e+00 6.3454996894864948e+01 1.0000000000000000e+00 5.4622903553758348e+00 5.4579869302976514e+00 1.1329350890093075e+01 
272 1 2 1.1605682584842913e+00 3.3947486129880787e+01 1.0000000000000000e+00 3.8033804888764133e+00 7.9224625608375545e+00 1.0600822307988249e+01 
97 1 2 1.1605682584842913e+00 -5.4509056997136387e+00 1.0000000000000000e+00 1.9612229029256136e+00 9.1164349948672463e+00 1.1031214484075411e+01 
127 1 2 1.1605682584842913e+00 -6.3966166724254281e-01 1.0000000000000000e+00 5.6258684667037206e+00 9.5392151068895839e+00 1.0101126091157937e+01 
166 1 2 1.1605682584842913e+00 2.2832102915481038e+01 1.0000000000000000e+00 1.9023724509642825e+00 2.6959014070114571e+00 1.2043976447838084e+01 
331 1 2 1.1605682584842913e+00 5.2674839294969278e+00 1.0000000000000000e+00 1.1967625067507319e+00 4.8518211065624124e+00 1.1846036657599740e+01 
42 1 2 1.1605682584842913e+00 1.0794353555624639e+01 1.0000000000000000e+00 3.6540669668483265e+00 4.6608484541793329e+00 1.2426886318052363e+01 
303 1 2 1.1605682584842913e+00 3.1529735345245467e+00 1.0000000000000000e+00 9.2096861289379783e-01 7.7764080533241531e+00 1.2807764118359369e+01 
141 1 2 1.1605682584842913e+00 3.0230809561625428e+01 1.0000000000000000e+00 7.5701130459207955e-01 1.6489390923397532e-01 1.3753524179080401e+01 
270 1 2 1.1605682584842913e+00 9.9774901827839244e+00 1.0000000000000000e+00 4.2908803099301140e+00 1.1440645534074307e+00 1.2970136951950836e+01 
198 1 2 1.1605682584842913e+00 1.1657837430195571e+01 1.0000000000000000e+00 2.3901455027207890e+00 1.7374789326370987e+00 1.3946939011962700e+01 
60 1 2 1.1605682584842913e+00 1.3287422338048426e+01 1.0000000000000000e+00 3.1183873656753325e+00 8.1547909215687415e+00 1.3024358183852195e+01 
237 1 2 1.1605682584842913e+00 9.4359099291782407e+00 1.0000000000000000e+00 5.2526005481306184e+00 7.7216098606218360e+00 1.4159117417386911e+01 
96 1 2 1.1605682584842913e+00 8.6987578217801094e+00 1.0000000000000000e+00 2.2484343513950211e+00 5.6007012054521335e+00 1.4942958191042917e+01 
202 1 2 1.1605682584842913e+00 1.3348946649752907e+01 1.0000000000000000e+00 3.1110015262579607e+00 3.3350025701390149e+00 1.6119978423482973e+01 
373 1 2 1.1605682584842913e+00 8.1395767261050338e+00 1.0000000000000000e+00 5.7934900567853891e+00 3.7854955986332453e+00 1.5902652008117709e+01 
196 1 2 1.1605682584842913e+00 6.9331801319890030e+00 1.0000000000000000e+00 3.0086872185617888e+00 9.1123299431953697e+00 1.6938247004425158e+01 
41 1 2 1.1605682584842913e+00 4.1171538357141824e+00 1.0000000000000000e+00 6.3063815736521622e+00 9.8221662864134309e+00 1.6477359686994966e+01 
149 1 2 1.1605684339181195e+00 3.3957021762537039e+01 1.0000000000000000e+00 4.5513853448356807e+00 2.6127345578361932e-01 1.8307793818298737e+01 
376 1 2 1.1605682584842913e+00 7.5355943246220001e+00 1.0000000000000000e+00 4.7479683381712094e+00 3.0749841514585143e+00 1.8435325759067755e+01 
5 1 2 1.1605682584842913e+00 5.0797313309036154e+00 1.0000000000000000e+00 2.6376291650591215e+00 7.2222827862926380e+00 1.8117537087230986e+01 
115 1 2 1.1605682584842913e+00 -5.9684486615948078e+00 1.0000000000000000e+00 6.2555773266317090e+00 4.9262152799072547e+00 1.9061278366592475e+01 
105 1 2 1.1605682584842913e+00 -8.3897742356675415e+00 1.0000000000000000e+00 1.1514468083298892e-02 6.2276541478701866e+00 1.9441366614870368e+01 
223 1 2 1.1605682584842913e+00 2.3692507018301292e+01 1.0000000000000000e+00 2.2185065404802988e+00 9.5543333588034791e+00 1.9205364465687179e+01 
211 1 2 1.1605682584842913e+00 1.7844659624206216e+01 1.0000000000000000e+00 8.8570694886672807e-01 1.0205530187744145e+01 1.0780174510576126e+00 
88 1 2 1.1605682584842913e+00 7.7873419201138887e+00 1.0000000000000000e+00 3.7044784323758324e+00 1.1340291570264824e+01 5.6579352044957634e-02 
146 1 2 1.1605682584842913e+00 1.1796383838348165e+01 1.0000000000000000e+00 1.0198673486835990e+00 1.2145691109373841e+01 4.8327789644518493e-01 
197 1 2 1.1605682584842913e+00 -1.4085454242837429e+01 1.0000000000000000e+00 5.8591352067159930e+00 1.2519608179419857e+01 8.5151116069325616e-01 
201 1 2 1.1605682584842913e+00 1.3810767923508154e+00 1.0000000000000000e+00 2.5997714418167921e+00 1.5592018510131940e+01 8.0430476212823274e-02 
103 1 2 1.1605682584842913e+00 -2.2411653207159458e+02 1.0000000000000000e+00 1.0116770740399721e+00 1.2140396953931150e+01 2.5965422798043098e+00 
24 1 2 1.1605682584842913e+00 5.7245370645578745e+01 1.0000000000000000e+00 1.5836683758493626e+00 1.4581141278294734e+01 2.0682400941267844e+00 
343 1 2 1.1605684320508001e+00 7.7662804556260081e+00 1.0000000000000000e+00 5.5328030901411207e+00 1.4975358071136510e+01 2.7551000662453053e+00 
173 1 2 1.1605682584842913e+00 1.2334340470740841e+01 1.0000000000000000e+00 5.4436296151085306e-01 1.6598028123741720e+01 2.4646287907269717e+00 
282 1 2 1.1605684320508001e+00 -1.2626417773317576e+02 1.0000000000000000e+00 6.4413364257124766e+00 1.6503517291487626e+01 1.8829367888235549e+00 
276 1 2 1.1605682584842913e+00 3.2611941702078056e+01 1.0000000000000000e+00 3.7590723067085401e+00 1.7949751129720546e+01 2.7156081687966300e+00 
64 1 2 1.1605682584842913e+00 1.6197590121951002e+01 1.0000000000000000e+00 6.2103742224176850e+00 1.9142649336631187e+01 1.5501394011485323e+00 
33 1 2 1.1605682584842913e+00 1.3492004346613847e+01 1.0000000000000000e+00 3.0721650326744152e+00 1.3002261704054559e+01 3.0249009617266363e+00 
365 1 2 1.1605682584842913e+00 1.2882476791933890e+01 1.0000000000000000e+00 7.5409288565389765e-01 1.8841815896021966e+01 3.4524186931574339e+00 
135 1 2 1.1605682584842913e+00 2.7762455161065137e+01 1.0000000000000000e+00 2.5562057043472590e+00 1.1100574801169147e+01 4.8792248077669704e+00 
152 1 2 1.1605682584842913e+00 7.5340480362281781e+00 1.0000000000000000e+00 4.5665932278389763e+00 1.1371011953603874e+01 4.6811387439467005e+00 
179 1 2 1.1605682584842913e+00 -5.7013327964188434e+01 1.0000000000000000e+00 1.7503448964457562e+00 1.3482739606548877e+01 4.7908899517348997e+00 
170 1 2 1.1605682584842913e+00 2.5891649307117746e+00 1.0000000000000000e+00 3.8982665635604277e+00 1.6442895547701802e+01 4.9046679425588833e+00 
315 1 2 1.1605682584842913e+00 1.1827888567186289e+01 1.0000000000000000e+00 5.8150649213651358e+00 1.8312394097031678e+01 4.5320460390068069e+00 
46 1 2 1.1605682584842913e+00 7.2341865383994310e+00 1.0000000000000000e+00 9.8931921898512154e-01 1.3878357659418887e+01 6.9609187010738456e+00 
23 1 2 1.1605682704240274e+00 1.4323490729432680e+02 1.0000000000000000e+00 6.2345553101546169e+00 1.4779259066862647e+01 6.4237403053814646e+00 
58 1 2 1.1605682584842913e+00 1.1001042672796618e+01 1.0000000000000000e+00 1.7770306708794377e+00 1.6318031279141341e+01 5.7674007137323366e+00 
296 1 2 1.1605682584842913e+00 2.6148097515751559e+01 1.0000000000000000e+00 2.5013145437835429e+00 1.9358823156781710e+01 6.6273177752903569e+00 
253 1 2 1.1605682584842913e+00 6.5522330508627871e+00 1.0000000000000000e+00 5.1093434686707502e+00 1.9146052654301869e+01 6.2844951476572719e+00 
143 1 2 1.1605682584842913e+00 -5.1241067545677534e+00 1.0000000000000000e+00 3.0030514305946201e+00 1.0630848985647084e+01 8.4225383889581664e+00 
75 1 2 1.1605682704240274e+00 3.6019261084406069e+00 1.0000000000000000e+00 4.5594790369566436e+00 1.4423483134252761e+01 7.4372189455075572e+00 
162 1 2 1.1605682584842913e+00 1.3066723297916953e+01 1.0000000000000000e+00 6.1635791332835002e+00 1.5302876254680166e+01 8.4195436086324040e+00 
178 1 2 1.1605682584842913e+00 -7.8303363425550799e+01 1.0000000000000000e+00 3.7938102811367114e+00 1.7054939564554246e+01 7.2632059514234841e+00 
154 1 2 1.1605682584842913e+00 9.7048409712843267e+00 1.0000000000000000e+00 5.5312586206569980e+00 1.1216279941401270e+01 8.9799583678958328e+00 
207 1 2 1.1605682584842913e+00 9.0510345484865589e+00 1.0000000000000000e+00 3.5921732785889637e-01 1.6340956797842122e+01 9.6355492194097661e+00 
145 1 2 1.1605682584842913e+00 1.3770732653384183e+01 1.0000000000000000e+00 4.8670121862572575e+00 1.6450267427660624e+01 9.7840516389354946e+00 
200 1 2 1.1605682584842913e+00 2.3020447405597402e+01 1.0000000000000000e+00 5.7187310810095793e-01 1.8667977107633611e+01 9.2364020011966197e+00 
361 1 2 1.1605682584842913e+00 6.1392196444917104e+00 1.0000000000000000e+00 1.6579504649340215e+00 1.2611402222179228e+01 1.0446086562561833e+01 
55 1 2 1.1605682584842913e+00 7.8390953677446333e+00 1.0000000000000000e+00 2.6133147210247483e+00 1.4691203199001258e+01 1.1060879810316012e+01 
327 1 2 1.1605682584842913e+00 9.1390126246599586e+00 1.0000000000000000e+00 2.3177276500220385e+00 1.6580081352977565e+01 1.0306557534059513e+01 
324 1 2 1.1605682584842913e+00 1.6239711671738952e+01 1.0000000000000000e+00 3.5927729533588910e+00 1.0783295942228845e+01 1.1981279809496588e+01 
260 1 2 1.1605682584842913e+00 1.2923417415687897e+01 1.0000000000000000e+00 2.1309184590524675e+00 1.2224778533351982e+01 1.2767801921400583e+01 
114 1 2 1.1605682584842913e+00 1.6676526094210310e+01 1.0000000000000000e+00 5.1832745671240854e+00 1.2824515329279098e+01 1.1735205257107351e+01 
72 1 2 1.1605682584842913e+00 1.2780364979973424e+01 1.0000000000000000e+00 5.5801105084137337e+00 1.5352111748315220e+01 1.2298923561288541e+01 
169 1 2 1.1605682584842913e+00 6.8687201168084968e+00 1.0000000000000000e+00 7.3772831832076724e-01 1.7452898859312306e+01 1.1620613478239273e+01 
45 1 2 1.1605682584842913e+00 8.1085978592835346e+00 1.0000000000000000e+00 3.1852399009998469e+00 1.9081757279195998e+01 1.1527486632444392e+01 
174 1 2 1.1605682584842913e+00 4.3600862191622269e+00 1.0000000000000000e+00 6.0772583189888705e+00 1.9774631166721374e+01 1.1627367353111776e+01 
104 1 2 1.1605682584842913e+00 -3.8409512986151825e+01 1.0000000000000000e+00 3.7842447931488068e+00 1.3499884524337798e+01 1.3421231975016747e+01 
383 1 2 1.1605682584842913e+00 2.4770142279656035e+01 1.0000000000000000e+00 1.6644041056702237e+00 1.5144560759585296e+01 1.3110818687551022e+01 
379 1 2 1.1605682584842913e+00 8.9460264388828161e+00 1.0000000000000000e+00 1.2890757255587530e+00 1.7592049360416418e+01 1.3981761318691856e+01 
71 1 2 1.1605682584842913e+00 2.1439630092010052e+01 1.0000000000000000e+00 4.3148142929575863e+00 1.8267155848066135e+01 1.3038183026194609e+01 
65 1 2 1.1605682584842913e+00 7.1019839006423684e+00 1.0000000000000000e+00 3.3962422967305956e+00 1.1658770638009420e+01 1.4419383618092658e+01 
367 1 2 1.1605682584842913e+00 1.3777701294967947e+01 1.0000000000000000e+00 1.5223224432929918e+00 1.4265778696215246e+01 1.5418819623510046e+01 
326 1 2 1.1605682584842913e+00 2.1825145284439202e+01 1.0000000000000000e+00 4.9480365503480321e+00 1.6729765534108367e+01 1.5121677167460183e+01 
258 1 2 1.1605682584842913e+00 4.2725564545075558e+00 1.0000000000000000e+00 2.3460502415716520e+00 1.9462715013279681e+01 1.5030795065562243e+01 
39 1 2 1.1605682584842913e+00 -1.0937954832968849e+01 1.0000000000000000e+00 5.3843129285603570e+00 1.9879701192205246e+01 1.5013364277035492e+01 
347 1 2 1.1605684729807595e+00 7.3095997540803221e+00 1.0000000000000000e+00 6.9906264818282571e-01 1.0625873233509394e+01 1.6110426399240730e+01 
356 1 2 1.1605682584842913e+00 -7.2438354413099173e+00 1.0000000000000000e+00 5.1319294714747974e+00 1.2633557168138028e+01 1.5738787827639030e+01 
360 1 2 1.1605682584842913e+00 5.6772693598465303e+00 1.0000000000000000e+00 6.6184899854638140e+00 1.3882254722617196e+01 1.6263767179141468e+01 
287 1 2 1.1605684339181195e+00 6.9726356908519840e+00 1.0000000000000000e+00 3.7172877152039092e+00 1.9430774297438230e+01 1.6715382944540323e+01 
17 1 2 1.1605682584842913e+00 1.8481437183106809e+01 1.0000000000000000e+00 3.9531841349429415e+00 1.0692369712012102e+01 1.7722865525340609e+01 
382 1 2 1.1605682584842913e+00 1.5380526857581824e+01 1.0000000000000000e+00 8.7089409987059607e-01 1.1504504700022743e+01 1.8232858526274647e+01 
128 1 2 1.1605682584842913e+00 2.6659290305235345e+01 1.0000000000000000e+00 6.3220220818030723e+00 1.1514514927621953e+01 1.7850907101014485e+01 
117 1 2 1.1605682584842913e+00 5.2322535544014137e+00 1.0000000000000000e+00 1.7901072562004710e+00 1.4236410413711283e+01 1.7520345817839498e+01 
125 1 2 1.1605682584842913e+00 4.5282785685010261e+00 1.0000000000000000e+00 5.0836896683068264e+00 1.3922434718722560e+01 1.8135629514882023e+01 
322 1 2 1.1605682584842913e+00 5.5418940425630758e+00 1.0000000000000000e+00 1.4277118458961455e+00 1.7468833399110281e+01 1.7853640880216140e+01 
148 1 2 1.1605682584842913e+00 3.9912601661132063e+00 1.0000000000000000e+00 3.7050229393859944e+00 1.7226931876462888e+01 1.7266531850748247e+01 
240 1 2 1.1605682584842913e+00 1.5187324433460400e+01 1.0000000000000000e+00 6.1969796079772896e+00 1.8283172382221633e+01 1.7761466704992586e+01 
130 1 2 1.1605682584842913e+00 2.1039755324758687e+01 1.0000000000000000e+00 1.6140028011185512e+00 1.9763408730486184e+01 1.7154019588501473e+01 
189 1 2 1.1605682584842913e+00 5.7844825565533791e+00 1.0000000000000000e+00 4.5660779447469606e+00 1.6728849508395584e+01 1.9320379398645020e+01 
299 1 2 1.1605682584842913e+00 1.2983106274979246e+01 1.0000000000000000e+00 6.5930507295411083e+00 1.6590304414155373e+01 1.8894792001527843e+01 
190 1 2 1.1605682584842913e+00 8.0978624768585163e+00 1.0000000000000000e+00 5.7016081150344426e+00 1.8669025432768510e+01 1.9666941613495453e+01 
109 1 2 1.1605682584842913e+00 2.8439181962986035e+00 1.0000000000000000e+00 9.3618220843563442e+00 6.6244844307496387e-01 4.7064411273862355e-01 
163 1 2 1.1605682584842913e+00 -5.5741077026284866e+00 1.0000000000000000e+00 1.0712170771181430e+01 2.5779251949418023e+00 6.9045056846494635e-01 
307 1 2 1.1605682584842913e+00 3.5152331201939333e+00 1.0000000000000000e+00 1.3259237064419148e+01 4.2520607250015523e+00 5.1944542049676790e-01 
27 1 2 1.1605682584842913e+00 -1.8491211882852895e+01 1.0000000000000000e+00 6.6866530322149149e+00 8.2742727148719304e+00 1.5531164669973985e-01 
181 1 2 1.1605682584842913e+00 7.0436511789617491e+00 1.0000000000000000e+00 1.1093319528680960e+01 1.4154102037231280e+00 2.5689750171578245e+00 
124 1 2 1.1605682584842913e+00 6.5116635289711500e+00 1.0000000000000000e+00 8.6265748398145270e+00 2.5665324936200493e+00 1.9962340318397349e+00 
4 1 2 1.1605682584842913e+00 1.0559895193551682e+01 1.0000000000000000e+00 1.0076333079942067e+01 6.1216574601310398e+00 1.6674914698332322e+00 
221 1 2 1.1605682584842913e+00 7.3959189404805041e+00 1.0000000000000000e+00 8.9005202177245799e+00 8.3756780501621897e+00 2.4681409208742573e+00 
79 1 2 1.1605682584842913e+00 1.7187825269128261e+01 1.0000000000000000e+00 1.2611206177179508e+01 2.0413355927170889e+00 4.0045985455904693e+00 
81 1 2 1.1605682584842913e+00 7.9176529884522715e+00 1.0000000000000000e+00 1.1489005846439490e+01 4.8582119515540816e+00 3.9982293477632145e+00 
216 1 2 1.1605682725392996e+00 3.8243268091102771e+00 1.0000000000000000e+00 1.0910470758158176e+01 7.0787248627487713e+00 3.2141363654972444e+00 
61 1 2 1.1605682725392996e+00 6.8197073284415071e+00 1.0000000000000000e+00 1.2003884235268062e+01 8.5545011537657238e+00 3.9786529854379031e+00 
290 1 2 1.1605682584842913e+00 2.5039927357777842e+01 1.0000000000000000e+00 7.6631184470296638e+00 6.4624657992385615e-01 5.4233365657966743e+00 
116 1 2 1.1605682584842913e+00 3.7916175415049258e+00 1.0000000000000000e+00 7.4964836807885105e+00 3.7191499854505872e+00 4.3229162376802019e+00 
238 1 2 1.1605682584842913e+00 7.3831670762387684e+00 1.0000000000000000e+00 1.0320178414734382e+01 2.9384246316502032e+00 5.1585574709333928e+00 
185 1 2 1.1605682584842913e+00 3.5770862165823445e+01 1.0000000000000000e+00 7.9643572047988718e+00 6.9221018765957290e+00 5.1034873725584582e+00 
298 1 2 1.1605682584842913e+00 -2.1922917826838869e+01 1.0000000000000000e+00 9.6804362519453502e+00 5.8000539865522125e+00 4.4374400228544868e+00 
48 1 2 1.1605682584842913e+00 -1.1636410206846259e+02 1.0000000000000000e+00 7.3467129075844015e+00 9.2835648798306671e+00 4.8524902644990364e+00 
147 1 2 1.1605682584842913e+00 9.5959133898931608e+00 1.0000000000000000e+00 1.0777921453986655e+01 9.8602311213405365e+00 5.3379505875767137e+00 
107 1 2 1.1605682719796697e+00 6.1575074260412981e+00 1.0000000000000000e+00 1.0264207656786287e+01 1.0359845618493770e+00 5.9097312669121438e+00 
78 1 2 1.1605682719796697e+00 1.6640365693162288e+01 1.0000000000000000e+00 1.1117643887740916e+01 2.4135391972200009e+00 7.0641351044754641e+00 
374 1 2 1.1605682584842913e+00 1.1031959557859011e+01 1.0000000000000000e+00 1.2415535946406017e+01 3.9660398003821733e+00 7.0093114368418270e+00 
309 1 2 1.1605682584842913e+00 9.7541336960477381e+00 1.0000000000000000e+00 7.1777158819227349e+00 6.6594338415268801e+00 7.0576481126421440e+00 
229 1 2 1.1605682729704223e+00 7.2951791829802444e+00 1.0000000000000000e+00 9.7313042684321385e+00 6.4155758417793116e+00 6.5219985612851561e+00 
264 1 2 1.1605682584842913e+00 1.3524940733411906e+01 1.0000000000000000e+00 8.5516150947246299e+00 2.0150349742662623e+00 7.2476514333683033e+00 
332 1 2 1.1605682729704223e+00 6.4005308280397601e+00 1.0000000000000000e+00 9.1669533908905123e+00 5.2985453161898173e+00 8.0684359913285917e+00 
57 1 2 1.1605682712804410e+00 2.7405370250818535e+01 1.0000000000000000e+00 9.1513615835702655e+00 8.5057737722110094e+00 7.9281562119092657e+00 
136 1 2 1.1605682584842913e+00 9.2282061197168517e+00 1.0000000000000000e+00 1.2750086718592197e+01 7.8980248689276635e+00 7.8760346189806247e+00 
371 1 2 1.1605682584842913e+00 -8.9430649208676360e-01 1.0000000000000000e+00 1.2731521943510616e+01 4.1157881540058199e+00 8.9922194119981746e+00 
155 1 2 1.1605682584842913e+00 1.1625610545849007e+01 1.0000000000000000e+00 6.8075221852443395e+00 4.4368384981190188e+00 9.9772082248470539e+00 
187 1 2 1.1605682584842913e+00 -5.4536700027283260e+01 1.0000000000000000e+00 9.3808501075367126e+00 6.2403274604032086e+00 9.9027169873565501e+00 
306 1 2 1.1605682584842913e+00 1.1400350661177043e+01 1.0000000000000000e+00 1.1463564975624315e+01 6.1711084116304340e+00 8.8749844426831128e+00 
246 1 2 1.1605682584842913e+00 7.0271734070466447e+00 1.0000000000000000e+00 1.2839242364649280e+01 1.2515106858262020e+00 1.1163789989336244e+01 
140 1 2 1.1605682592964279e+00 2.2668278245250285e+01 1.0000000000000000e+00 7.8562802947548658e+00 2.3207293431767453e+00 1.1333644228847582e+01 
182 1 2 1.1605682592964279e+00 1.1825538065772301e+01 1.0000000000000000e+00 9.4647550312093891e+00 2.7941115983001992e+00 1.0253035170046180e+01 
236 1 2 1.1605682584842913e+00 5.3057731555368761e+00 1.0000000000000000e+00 6.7018425101646546e+00 6.8038988251404424e+00 1.0232895221667288e+01 
292 1 2 1.1605682584842913e+00 1.2966337263814513e+01 1.0000000000000000e+00 1.1648754539679144e+01 7.4128493058446736e+00 1.0821848818635607e+01 
277 1 2 1.1605682584842913e+00 3.6891888171983886e+00 1.0000000000000000e+00 1.0116459932424451e+01 9.2613434487229913e+00 1.0940315611281457e+01 
338 1 2 1.1605682584842913e+00 -2.7287832603146418e+00 1.0000000000000000e+00 1.0675635000653264e+01 2.6729565963013280e+00 1.2357179437262515e+01 
316 1 2 1.1605682584842913e+00 5.3400263853050909e+00 1.0000000000000000e+00 7.7716629201160288e+00 4.2117428936877568e+00 1.2837501542169106e+01 
239 1 2 1.1605683292127689e+00 7.1560755651283312e+00 1.0000000000000000e+00 1.1681107733573151e+01 4.6584767747991167e+00 1.2397577852131912e+01 
294 1 2 1.1605682584842913e+00 -5.5903905692887683e+00 1.0000000000000000e+00 1.3240383688905784e+01 7.0423243182675765e+00 1.2025177860758069e+01 
203 1 2 1.1605682584842913e+00 3.1837606763034699e+01 1.0000000000000000e+00 7.1498251398390202e+00 7.6648445964123262e+00 1.2305125338521146e+01 
171 1 2 1.1605682584842913e+00 -3.6120307561629161e+00 1.0000000000000000e+00 8.7545707953456073e+00 9.0776211955416599e+00 1.2540321157206922e+01 
208 1 2 1.1605682584842913e+00 1.2453932608484504e+01 1.0000000000000000e+00 1.1704785988587767e+01 8.6643147944325793e+00 1.2769360497735278e+01 
318 1 2 1.1605682584842913e+00 7.2059282159045139e+00 1.0000000000000000e+00 7.6539237716817290e+00 7.6831551240811247e-01 1.3833378840464276e+01 
86 1 2 1.1605682584842913e+00 -3.5105949122249621e+02 1.0000000000000000e+00 1.2694188390078882e+01 4.5678304722490704e-01 1.4124291803576000e+01 
209 1 2 1.1605683292127689e+00 9.6301732304557053e+00 1.0000000000000000e+00 1.0477912493844668e+01 4.1615886097341592e+00 1.3895145377667371e+01 
329 1 2 1.1605682584842913e+00 1.2874770276487087e+01 1.0000000000000000e+00 1.0938376009542951e+01 4.1883318237519235e-01 1.5657978732512685e+01 
362 1 2 1.1605682584842913e+00 8.7856110205125546e+00 1.0000000000000000e+00 1.2375426008508406e+01 7.0343026273743057e+00 1.4615569895140201e+01 
138 1 2 1.1605682584842913e+00 1.1422993894382993e+01 1.0000000000000000e+00 7.5992521856161064e+00 7.3751217364565882e+00 1.5197883547936119e+01 
176 1 2 1.1605682584842913e+00 -1.7923117596892297e+02 1.0000000000000000e+00 1.0966859335033019e+01 8.9250040583289802e+00 1.4959448962148684e+01 
28 1 2 1.1605682584842913e+00 9.1601260265400271e+00 1.0000000000000000e+00 6.7532781969579174e+00 9.6609592410517742e-01 1.6539048846307455e+01 
50 1 2 1.1605682584842913e+00 4.3944034658547917e+00 1.0000000000000000e+00 1.2794449423642890e+01 2.4924651577355026e+00 1.5915471887150774e+01 
255 1 2 1.1605682584842913e+00 1.7910541296585656e+01 1.0000000000000000e+00 7.8234711321703152e+00 3.1019164928526775e+00 1.5913070154933093e+01 
369 1 2 1.1605682584842913e+00 2.5068455566211469e+01 1.0000000000000000e+00 1.0193801802552057e+01 7.3308488782266883e+00 1.6389457948445212e+01 
126 1 2 1.1605682584842913e+00 9.2559290763613475e+00 1.0000000000000000e+00 8.3878796217688141e+00 8.7839024529333631e+00 1.6849444452674000e+01 
95 1 2 1.1605682584842913e+00 1.1344706036391589e+01 1.0000000000000000e+00 1.2075245763392431e+01 1.1402699406151429e+00 1.8161554996069391e+01 
275 1 2 1.1605682584842913e+00 -4.2265514434974605e+01 1.0000000000000000e+00 9.5558280433428742e+00 3.3262410676135357e+00 1.7209594546061012e+01 
9 1 2 1.1605682584842913e+00 2.4725169089417648e+01 1.0000000000000000e+00 8.8563263711495583e+00 5.3084665602689123e+00 1.7753250392880243e+01 
16 1 2 1.1605682584842913e+00 2.8682785699204409e+01 1.0000000000000000e+00 6.7371428951167367e+00 6.8533820833218977e+00 1.8498519741395821e+01 
11 1 2 1.1605682594357927e+00 -3.0384669828437097e+01 1.0000000000000000e+00 1.2520105075593817e+01 6.8251510973621752e+00 1.8052130897339268e+01 
142 1 2 1.1605682584842913e+00 -1.9798140868635905e+01 1.0000000000000000e+00 1.0443432776865400e+01 9.0484305938128884e+00 1.7506357780327971e+01 
84 1 2 1.1605682584842913e+00 6.5637753877015736e+00 1.0000000000000000e+00 7.0074678381502657e+00 2.2628621533086313e+00 1.9181680978856100e+01 
85 1 2 1.1605682584842913e+00 1.5670174565287500e+01 1.0000000000000000e+00 1.1347604706253007e+01 5.1530323798078452e+00 1.9049825930567142e+01 
112 1 2 1.1605682584842913e+00 -2.4227040558126026e+02 1.0000000000000000e+00 8.3962582403457375e+00 6.5508187715701620e+00 1.9920406283909607e+01 
227 1 2 1.1605682584842913e+00 6.4406979226823680e+00 1.0000000000000000e+00 1.0795183051160413e+01 9.6311502313426196e+00 1.9744375454569500e+01 
372 1 2 1.1605682584842913e+00 -6.6906288875580238e+00 1.0000000000000000e+00 7.5156635345177971e+00 1.1040234853219630e+01 2.6387688991312463e-01 
289 1 2 1.1605682584842913e+00 4.5631363102044187e+00 1.0000000000000000e+00 8.0119723294247791e+00 1.3522541034692646e+01 1.0025490325209545e+00 
313 1 2 1.1605682584842913e+00 1.6858713573403818e+01 1.0000000000000000e+00 1.2572585390996325e+01 1.3852628847373863e+01 8.6019089936628745e-01 
7 1 2 1.1605682584842913e+00 -1.2501793927995539e+00 1.0000000000000000e+00 1.0742005520403829e+01 1.9044086299876334e+01 3.9742567364505382e-01 
267 1 2 1.1605682584842913e+00 1.5644726505491015e+01 1.0000000000000000e+00 1.1091732596285317e+01 1.1046349244163718e+01 1.4304698779268639e+00 
334 1 2 1.1605682584842913e+00 9.4339309753166454e+00 1.0000000000000000e+00 8.7295295089425551e+00 1.1826146967387194e+01 1.7978070530574497e+00 
333 1 2 1.1605682584842913e+00 4.1576015507445639e+01 1.0000000000000000e+00 9.3128574462813010e+00 1.6590661820942067e+01 1.6690675849670555e+00 
214 1 2 1.1605682584842913e+00 8.3118655678532782e+00 1.0000000000000000e+00 1.1388646092232127e+01 1.6215096888633596e+01 1.5915580185452871e+00 
345 1 2 1.1605682584842913e+00 2.2029269609933081e+01 1.0000000000000000e+00 8.0488119022420115e+00 1.8239416054702620e+01 1.8304031860347540e+00 