LAMMPS data file via write_data, version 30 Jul 2016, timestep = 50400000

384 atoms
2 atom types

0.0000000000000000e+00 2.0000000000000000e+01 xlo xhi
0.0000000000000000e+00 2.0000000000000000e+01 ylo yhi
0.0000000000000000e+00 2.0000000000000000e+01 zlo zhi

Masses

1 3.896
2 4.31

Atoms # meso-molecular

199 1 2 1.1605682584842913e+00 7.2702469657983428e+00 1.0000000000000000e+00 1.7691622888644258e+00 3.0942900179342925e-01 7.8707985362119004e-01 
321 1 2 1.1605682584842913e+00 1.7760726904707965e+01 1.0000000000000000e+00 5.0891302344635863e+00 2.6255410088698277e+00 6.7344394189942069e-01 
210 1 2 1.1605682584842913e+00 1.6074697905514601e+01 1.0000000000000000e+00 3.4061023773212307e-01 7.4427099208133018e+00 6.9342102536992567e-01 
123 1 2 1.1605682584842913e+00 -1.0342984422897996e+00 1.0000000000000000e+00 2.8280031188560981e+00 8.1946069223509621e+00 7.1829561535051101e-01 
144 1 2 1.1605682584842913e+00 -1.3080753285026901e+02 1.0000000000000000e+00 4.9213546935204615e+00 8.5573828071990619e+00 9.0307559675553914e-02 
64 1 2 1.1605682584842913e+00 1.6197651081697977e+01 1.0000000000000000e+00 5.8546918176134479e+00 6.9477049954932935e-01 2.2441217127593234e+00 
288 1 2 1.1605682584842913e+00 2.7592445976413771e+01 1.0000000000000000e+00 5.9405060795088205e-01 2.1375239758020883e+00 1.8213729186364758e+00 
8 1 2 1.1605682584842913e+00 8.7374302780281141e+00 1.0000000000000000e+00 5.1093501571513809e+00 5.0233687367965274e+00 2.4058349760965121e+00 
250 1 2 1.1605682584842913e+00 5.6141693072153824e+00 1.0000000000000000e+00 4.3086442929290589e+00 7.0107131782194765e+00 1.9968049972156519e+00 
211 1 2 1.1605682584842913e+00 1.7844675771648902e+01 1.0000000000000000e+00 1.0471163328478750e+00 9.5885315380624778e+00 1.5893712781882317e+00 
204 1 2 1.1605682584842913e+00 3.9764849369497339e+00 1.0000000000000000e+00 2.0664203162443067e+00 3.8804911642921884e+00 3.0287488144517534e+00 
99 1 2 1.1605682584842913e+00 -7.6313168566620018e+00 1.0000000000000000e+00 5.2714036083502540e+00 3.9758739227415703e+00 4.1863220849193317e+00 
59 1 2 1.1605683284421855e+00 1.2695433265935192e+01 1.0000000000000000e+00 2.5375766429156124e+00 7.9108401690252208e+00 3.2837192981179144e+00 
53 1 2 1.1605683284421855e+00 6.6670555884759404e+00 1.0000000000000000e+00 4.2077456817544796e+00 8.9795757735801338e+00 3.3592104067271027e+00 
266 1 2 1.1605682584842913e+00 7.8305201300921556e+00 1.0000000000000000e+00 3.3415995811576646e+00 3.4473385556772698e+00 5.0091714630480029e+00 
311 1 2 1.1605682584842913e+00 -1.1528786925560892e+00 1.0000000000000000e+00 1.4772317823653116e+00 5.9413060874772636e+00 5.0834492713427917e+00 
37 1 2 1.1605682584842913e+00 7.3894728486683103e+00 1.0000000000000000e+00 1.4905122772687560e+00 7.9955618696491246e+00 5.0652290466455065e+00 
82 1 2 1.1605682584842913e+00 -2.7660753351559762e+01 1.0000000000000000e+00 5.7418975685904181e+00 7.1890468873155937e+00 4.6253393101092062e+00 
32 1 2 1.1605682584842913e+00 2.7661153900905376e+01 1.0000000000000000e+00 5.3932557525116982e+00 9.4310632241260244e+00 5.4911923355272796e+00 
378 1 2 1.1605682584842913e+00 -1.4713510171346233e+01 1.0000000000000000e+00 2.4105961286171178e+00 5.4062762456156346e+00 7.0962207487914828e+00 
134 1 2 1.1605682584842913e+00 1.2995655381130547e+01 1.0000000000000000e+00 4.5367079812197630e+00 7.2213553744616990e+00 6.7598926444878904e+00 
259 1 2 1.1605682584842913e+00 7.3364456338535433e+00 1.0000000000000000e+00 9.0376154205800724e-02 8.3692513545892044e-01 7.8454449008660525e+00 
363 1 2 1.1605682584842913e+00 7.6201521184392753e+00 1.0000000000000000e+00 4.4378338214078159e+00 7.7996805426457461e-01 7.9415870029579851e+00 
212 1 2 1.1605682584842913e+00 5.0944660882836370e+00 1.0000000000000000e+00 6.5859666269685162e+00 2.0575878702292378e+00 7.5435157568259372e+00 
249 1 2 1.1605682584842913e+00 4.0669895264039972e+00 1.0000000000000000e+00 1.3700265907269080e+00 3.1831746111321495e+00 7.2646798281959537e+00 
218 1 2 1.1605682584842913e+00 1.2494350842315910e+01 1.0000000000000000e+00 4.1872675805056723e+00 3.7681227791647536e+00 7.5080286482206189e+00 
129 1 2 1.1605682584842913e+00 1.9533487513576837e+01 1.0000000000000000e+00 6.9575937824830777e-02 8.4722892838372985e+00 7.8646876919513886e+00 
368 1 2 1.1605682584842913e+00 1.3862183566470197e+01 1.0000000000000000e+00 2.0554920378415495e+00 2.3970444741131454e+00 8.9945192129927420e+00 
155 1 2 1.1605682584842913e+00 1.1625615418022551e+01 1.0000000000000000e+00 6.3474670312322958e+00 4.3598540853304568e+00 9.3126630156597248e+00 
271 1 2 1.1605682584842913e+00 1.3353365321591806e+01 1.0000000000000000e+00 3.5041057910248474e+00 6.2121881708195330e+00 8.9266789609459085e+00 
224 1 2 1.1605682584842913e+00 1.9290028392503437e+01 1.0000000000000000e+00 2.2775438357103308e+00 1.7556487585027811e+00 1.0933671144654301e+01 
172 1 2 1.1605682584842913e+00 -2.0171206122561522e+01 1.0000000000000000e+00 1.0921717990503124e+00 3.9672595554807835e+00 1.0011757562961815e+01 
83 1 2 1.1605682584842913e+00 -3.3175367606885160e+01 1.0000000000000000e+00 1.3170610795488837e+00 5.9337805441880107e+00 1.0678359831159897e+01 
225 1 2 1.1605682584842913e+00 6.3455004979503144e+01 1.0000000000000000e+00 5.4527184490305149e+00 6.1977926635575988e+00 1.0948051378904665e+01 
272 1 2 1.1605682584842913e+00 3.3947486129880787e+01 1.0000000000000000e+00 4.1113481535155003e+00 7.5913389643844011e+00 1.0282110467780097e+01 
270 1 2 1.1605682584842913e+00 9.9774956651564537e+00 1.0000000000000000e+00 4.1673774390925526e+00 1.5614255215133213e+00 1.1867325533250753e+01 
166 1 2 1.1605682584842913e+00 2.2832143059019032e+01 1.0000000000000000e+00 1.7275658737319701e+00 3.3739590729042175e+00 1.2086107503656752e+01 
316 1 2 1.1605682584842913e+00 5.3400344699434363e+00 1.0000000000000000e+00 6.6163647073634548e+00 4.1670821785932244e+00 1.2348754355151788e+01 
42 1 2 1.1605682584842913e+00 1.0794427996511939e+01 1.0000000000000000e+00 3.4586293095354019e+00 6.0065636392141002e+00 1.1931962802494636e+01 
203 1 2 1.1605682584842913e+00 3.1837661363988758e+01 1.0000000000000000e+00 6.6202475046714362e+00 7.6178908097531401e+00 1.2793407966659732e+01 
331 1 2 1.1605682584842913e+00 5.2675110520648829e+00 1.0000000000000000e+00 1.0428751573456458e+00 5.9850659494720571e+00 1.3061603690797627e+01 
60 1 2 1.1605682584842913e+00 1.3287468340388870e+01 1.0000000000000000e+00 2.6578371726309604e+00 7.5865560993043077e+00 1.4209005442455952e+01 
258 1 2 1.1605682584842913e+00 4.2726374268992293e+00 1.0000000000000000e+00 2.1088885807043147e+00 1.4874234765541905e-01 1.4658015212948209e+01 
198 1 2 1.1605682584842913e+00 1.1657858022237001e+01 1.0000000000000000e+00 2.3425649791120389e+00 2.5561144526083259e+00 1.5214645960937606e+01 
202 1 2 1.1605682584842913e+00 1.3348947573639066e+01 1.0000000000000000e+00 4.1662881417748974e+00 3.6025946558853783e+00 1.5276001519283794e+01 
373 1 2 1.1605682584842913e+00 8.1395803705567893e+00 1.0000000000000000e+00 6.4386294741751984e+00 3.7369961375593519e+00 1.5039494757327864e+01 
96 1 2 1.1605682584842913e+00 8.6987578217801094e+00 1.0000000000000000e+00 2.1370425659993675e+00 5.2218824395850385e+00 1.5382932740280749e+01 
303 1 2 1.1605690037533507e+00 3.1538096771262438e+00 1.0000000000000000e+00 1.9658795181773614e-01 8.4763432294106735e+00 1.4529001848030337e+01 
237 1 2 1.1605682584842913e+00 9.4360230206484452e+00 1.0000000000000000e+00 5.8579724336190253e+00 8.1681727622186475e+00 1.4874918588289233e+01 
196 1 2 1.1605682622808564e+00 6.9332288475639663e+00 1.0000000000000000e+00 3.5595868291984667e+00 9.4201527549895037e+00 1.4669798422676003e+01 
16 1 2 1.1605682584842913e+00 2.8682822358938687e+01 1.0000000000000000e+00 5.4038541995508602e+00 6.6836641996400159e+00 1.6481745552657440e+01 
41 1 2 1.1605682586824575e+00 4.1172213392591868e+00 1.0000000000000000e+00 6.4582085674799856e+00 9.5689610405081176e+00 1.6349890450263715e+01 
130 1 2 1.1605682584842913e+00 2.1039755324758687e+01 1.0000000000000000e+00 2.2982875374981244e+00 9.0591020989695181e-01 1.7230583588086251e+01 
149 1 2 1.1605682584842913e+00 3.3956764872089224e+01 1.0000000000000000e+00 4.3900102107180468e+00 1.0343936810904766e+00 1.8116699821582817e+01 
70 1 2 1.1605682584842913e+00 1.0775185217892822e+01 1.0000000000000000e+00 6.0571359202046771e-01 3.6625904161004899e+00 1.7682164421472994e+01 
376 1 2 1.1605682584842913e+00 7.5355959548026057e+00 1.0000000000000000e+00 4.6130161008764654e+00 3.1871587102266505e+00 1.8108024530202968e+01 
5 1 2 1.1605682584842913e+00 5.0797426537889807e+00 1.0000000000000000e+00 1.4648538307390346e+00 6.9802571436751712e+00 1.7432314136401747e+01 
84 1 2 1.1605682584842913e+00 6.5637753877015736e+00 1.0000000000000000e+00 6.0875607717179641e+00 1.2010824020761812e+00 1.9580595908034418e+01 
232 1 2 1.1605682584842913e+00 6.9721430556123963e+01 1.0000000000000000e+00 4.2829563990788664e+00 4.8314856765267171e+00 1.9807565922199927e+01 
105 1 2 1.1605682584842913e+00 -8.3897530698186564e+00 1.0000000000000000e+00 1.2816520970331240e+00 5.7754826526513376e+00 1.9240162138697045e+01 
223 1 2 1.1605683405691423e+00 2.3692667653241191e+01 1.0000000000000000e+00 8.7250037737069297e-01 9.4362409088866812e+00 1.8852645247762119e+01 
88 1 2 1.1605682584842913e+00 7.7873690827545516e+00 1.0000000000000000e+00 4.7129120586411428e+00 1.0631910355960537e+01 5.1457510100680548e-01 
190 1 2 1.1605682584842913e+00 8.0979084255607212e+00 1.0000000000000000e+00 4.0439025222059986e+00 1.8388346818155590e+01 2.8949835749248665e-01 
103 1 2 1.1605682699514404e+00 -2.2411649481338247e+02 1.0000000000000000e+00 1.3048127813131276e+00 1.1856815803028670e+01 2.3070289949859850e+00 
197 1 2 1.1605682584842913e+00 -1.4085420303692807e+01 1.0000000000000000e+00 5.4194993222808057e+00 1.2347281531150603e+01 1.4864579655962273e+00 
33 1 2 1.1605682699514404e+00 1.3492039888553725e+01 1.0000000000000000e+00 2.7045735384092198e+00 1.3106548018940934e+01 1.6444668185553208e+00 
24 1 2 1.1605682584842913e+00 5.7245370645578745e+01 1.0000000000000000e+00 2.1590462567207114e+00 1.5275817313390387e+01 2.6449122402510086e+00 
343 1 2 1.1605682584842913e+00 7.7660530634133202e+00 1.0000000000000000e+00 5.1675915059413162e+00 1.4948976734411747e+01 2.3298945682455368e+00 
276 1 2 1.1605682584842913e+00 3.2611966574040849e+01 1.0000000000000000e+00 3.9098292582203031e+00 1.6982152681449797e+01 2.4968299431253604e+00 
282 1 2 1.1605682584842913e+00 -1.2626443018864170e+02 1.0000000000000000e+00 6.4155267561179672e+00 1.6713000343599116e+01 1.7278012048429374e+00 
173 1 2 1.1605682584842913e+00 1.2334342052018979e+01 1.0000000000000000e+00 5.8997427760770127e-01 1.6508669317721456e+01 2.9884765643077773e+00 
365 1 2 1.1605682584842913e+00 1.2882502796882335e+01 1.0000000000000000e+00 9.9836029119545056e-01 1.9942651782576245e+01 3.3018301091107256e+00 
67 1 2 1.1605682584842913e+00 1.9252358823364930e+00 1.0000000000000000e+00 5.7178407283798922e+00 1.9460508078290161e+01 3.8533774623646506e+00 
135 1 2 1.1605682584842913e+00 2.7762456664866267e+01 1.0000000000000000e+00 2.3805844372152074e+00 1.0711109201776857e+01 4.4678696875661545e+00 
152 1 2 1.1605682584842913e+00 7.5340480362281781e+00 1.0000000000000000e+00 4.9782367105173906e+00 1.2242927448430555e+01 5.6362769339974754e+00 
179 1 2 1.1605682584842913e+00 -5.7013326460386921e+01 1.0000000000000000e+00 1.5517675532024524e+00 1.3314751327965016e+01 4.6583995396239688e+00 
58 1 2 1.1605682584842913e+00 1.1001042672796618e+01 1.0000000000000000e+00 3.3542106258718403e+00 1.5780544718282616e+01 5.3072675554902213e+00 
170 1 2 1.1605682584842913e+00 2.5892044398218248e+00 1.0000000000000000e+00 5.3743001574368732e+00 1.5971013409902103e+01 4.5666621937933298e+00 
296 1 2 1.1605682584842913e+00 2.6148161584539096e+01 1.0000000000000000e+00 2.3625614656461313e+00 1.9831574456214014e+01 5.5743428920856770e+00 
23 1 2 1.1605682584842913e+00 1.4323487762652789e+02 1.0000000000000000e+00 5.0295733320433884e+00 1.4719784937023581e+01 6.1558016715088115e+00 
253 1 2 1.1605682584842913e+00 6.5522599947191296e+00 1.0000000000000000e+00 4.8201851279188430e+00 1.9334766698673413e+01 6.4196509743565615e+00 
143 1 2 1.1605682584842913e+00 -5.1240141669767620e+00 1.0000000000000000e+00 1.8122401821944845e+00 1.0300653513554357e+01 8.2988178883954085e+00 
335 1 2 1.1605682584842913e+00 1.2583350779969599e+01 1.0000000000000000e+00 5.1324336450540704e+00 1.0023451010273634e+01 8.4478499288805704e+00 
46 1 2 1.1605682584842913e+00 7.2343332910774443e+00 1.0000000000000000e+00 7.5160018993939426e-01 1.4262378743739784e+01 7.5533918935002875e+00 
75 1 2 1.1605682584842913e+00 3.6019189335070889e+00 1.0000000000000000e+00 4.1129728008513631e+00 1.4617208211861419e+01 8.3336472471968399e+00 
162 1 2 1.1605682584842913e+00 1.3066783588945929e+01 1.0000000000000000e+00 6.1195129351744164e+00 1.4533743501501590e+01 7.8350395352302353e+00 
178 1 2 1.1605682584842913e+00 -7.8303349875865052e+01 1.0000000000000000e+00 2.9521131579530904e+00 1.6127113043918328e+01 7.3510581283166090e+00 
361 1 2 1.1605682584842913e+00 6.1394111650230592e+00 1.0000000000000000e+00 2.3506478725907098e+00 1.2551501001372475e+01 9.6940297398380029e+00 
145 1 2 1.1605682584842913e+00 1.3770762903932710e+01 1.0000000000000000e+00 5.3007191085731717e+00 1.6244163840280379e+01 8.9336164501224324e+00 
327 1 2 1.1605682584842913e+00 9.1390203166609041e+00 1.0000000000000000e+00 3.6399447865748500e+00 1.7362865052410442e+01 9.2514564763510485e+00 
157 1 2 1.1605682584842913e+00 3.3948387787100728e+01 1.0000000000000000e+00 6.6501812477335136e+00 1.7976839867549170e+01 9.3676130185890418e+00 
97 1 2 1.1605682584842913e+00 -5.4508858299645784e+00 1.0000000000000000e+00 2.9312133776069067e+00 1.0462743129414070e+01 1.0582194479485374e+01 
55 1 2 1.1605682584842913e+00 7.8391245270606724e+00 1.0000000000000000e+00 3.6216238044984048e+00 1.5187549235184926e+01 1.1266607379631377e+01 
226 1 2 1.1605682584842913e+00 3.7946930869880360e+00 1.0000000000000000e+00 6.3871283859206880e+00 1.0433316649654941e+01 1.2837744405435547e+01 
260 1 2 1.1605682584842913e+00 1.2923452763904532e+01 1.0000000000000000e+00 1.4253694336521656e+00 1.2381948330111149e+01 1.2312047511826902e+01 
114 1 2 1.1605682584842913e+00 1.6676543809635859e+01 1.0000000000000000e+00 3.6478816152072060e+00 1.2638500420606700e+01 1.1459640090789218e+01 
169 1 2 1.1605682584842913e+00 6.8687544722400755e+00 1.0000000000000000e+00 5.2000388885004567e-01 1.5482240773378791e+01 1.2080414383562362e+01 
72 1 2 1.1605682584842913e+00 1.2780374935443373e+01 1.0000000000000000e+00 5.3012104177599779e+00 1.5768925563814499e+01 1.2280281875122851e+01 
71 1 2 1.1605682584842913e+00 2.1439643245368497e+01 1.0000000000000000e+00 5.0100339617814589e+00 1.8279992130826702e+01 1.2150507747903710e+01 
45 1 2 1.1605682584842913e+00 8.1086137077198579e+00 1.0000000000000000e+00 2.7105284730811827e+00 1.9494449970265475e+01 1.1666751467126913e+01 
336 1 2 1.1605682584842913e+00 1.9873098323514178e+01 1.0000000000000000e+00 9.4583546471766378e-01 1.0030649666893508e+01 1.3196949057506483e+01 
324 1 2 1.1605682622808564e+00 1.6239729340397560e+01 1.0000000000000000e+00 2.9727367217268639e+00 1.0153361102335886e+01 1.2912406720171276e+01 
65 1 2 1.1605682584842913e+00 7.1020080977440259e+00 1.0000000000000000e+00 4.8440593216338010e+00 1.1103264596636031e+01 1.4139721922394367e+01 
104 1 2 1.1605682584842913e+00 -3.8409479887621643e+01 1.0000000000000000e+00 3.6857358298437579e+00 1.3995268369298424e+01 1.4270125015893811e+01 
383 1 2 1.1605682584842913e+00 2.4770142279656035e+01 1.0000000000000000e+00 2.6208313729791910e+00 1.5538683230777600e+01 1.3103762732441941e+01 
379 1 2 1.1605682584842913e+00 8.9460564200873183e+00 1.0000000000000000e+00 1.3309371942965413e+00 1.7904256146253147e+01 1.3234985474702176e+01 
141 1 2 1.1605682584842913e+00 3.0230832640196780e+01 1.0000000000000000e+00 1.7750888089785888e-01 1.9593440516567263e+01 1.3130329521019354e+01 
355 1 2 1.1605682584842913e+00 5.5804907881445835e+00 1.0000000000000000e+00 7.7672796547964731e-02 1.2387490540762331e+01 1.4596757953781539e+01 
356 1 2 1.1605682584842913e+00 -7.2438287031125785e+00 1.0000000000000000e+00 5.3083940411958128e+00 1.2753565717423857e+01 1.5471570079769327e+01 
367 1 2 1.1605682584842913e+00 1.3777749841432044e+01 1.0000000000000000e+00 9.1573389569146346e-01 1.4452736363053742e+01 1.5008416525657628e+01 
167 1 2 1.1605682584842913e+00 -3.8961461303031477e+01 1.0000000000000000e+00 6.4352529401911687e+00 1.7241682093873248e+01 1.4936797585063813e+01 
39 1 2 1.1605682584842913e+00 -1.0937944126695253e+01 1.0000000000000000e+00 4.5913568523363750e+00 1.9198160956771872e+01 1.4864896060572008e+01 
347 1 2 1.1605682584842913e+00 7.3092953004108336e+00 1.0000000000000000e+00 1.8057409145892211e+00 1.0265357342936557e+01 1.6021679401385136e+01 
382 1 2 1.1605682584842913e+00 1.5380556637319618e+01 1.0000000000000000e+00 5.9113812587018810e-01 1.2066918997328727e+01 1.6892300199181577e+01 
148 1 2 1.1605682584842913e+00 3.9913727199571829e+00 1.0000000000000000e+00 2.5394494414043796e+00 1.5633584823551097e+01 1.6853110308801067e+01 
295 1 2 1.1605682584842913e+00 2.6527433672687707e+01 1.0000000000000000e+00 4.0684434052624785e-01 1.6863606702770980e+01 1.6236315588341068e+01 
326 1 2 1.1605682584842913e+00 2.1825163884817322e+01 1.0000000000000000e+00 4.7311811996716013e+00 1.5746589632616514e+01 1.5826679429650611e+01 
240 1 2 1.1605682584842913e+00 1.5187327806799058e+01 1.0000000000000000e+00 6.4034791646007090e+00 1.8050403134863451e+01 1.6988910113922266e+01 
128 1 2 1.1605682584842913e+00 2.6659292112796123e+01 1.0000000000000000e+00 6.0072946640025551e+00 1.1795345264400135e+01 1.8287138017029225e+01 
117 1 2 1.1605682584842913e+00 5.2322890745899411e+00 1.0000000000000000e+00 3.1063397736005256e+00 1.3090331483847184e+01 1.7838160469355085e+01 
217 1 2 1.1605682584842913e+00 3.6217734104320868e+01 1.0000000000000000e+00 1.4545874379371931e-01 1.6228142846050282e+01 1.8205457001418829e+01 
189 1 2 1.1605682584842913e+00 5.7845041278902274e+00 1.0000000000000000e+00 3.8720869114730001e+00 1.6012814889107545e+01 1.8314446387114071e+01 
287 1 2 1.1605682584842913e+00 6.9724531238609115e+00 1.0000000000000000e+00 3.9026741852190026e+00 1.8395918173859247e+01 1.7223266801654965e+01 
17 1 2 1.1605682584842913e+00 1.8481437183106809e+01 1.0000000000000000e+00 2.5360119437891600e+00 1.0900057987833840e+01 1.8698759837545737e+01 
146 1 2 1.1605682584842913e+00 1.1796388852540575e+01 1.0000000000000000e+00 9.2766579593171794e-01 1.1926957767236948e+01 1.9879504311182441e+01 
125 1 2 1.1605682584842913e+00 4.5282859146537842e+00 1.0000000000000000e+00 5.6365176310580729e+00 1.3633096927656460e+01 1.9092490662796223e+01 
201 1 2 1.1605682584842913e+00 1.3810767923508154e+00 1.0000000000000000e+00 2.5402761595160332e+00 1.4615693410787518e+01 1.9879649314455861e+01 
322 1 2 1.1605682584842913e+00 5.5419179997670334e+00 1.0000000000000000e+00 1.7303992538305288e+00 1.7670068023857880e+01 1.9029940546535130e+01 
7 1 2 1.1605682584842913e+00 -1.2501771205706058e+00 1.0000000000000000e+00 1.0658933095263027e+01 1.6289262043929645e-01 4.4172173725939359e-02 
163 1 2 1.1605682584842913e+00 -5.5741031695411287e+00 1.0000000000000000e+00 9.9224743610210542e+00 2.5121877120612210e+00 9.4612102809908849e-01 
124 1 2 1.1605682584842913e+00 6.5117371948746463e+00 1.0000000000000000e+00 7.9603624603983452e+00 3.2688229094113233e+00 7.7195995983753674e-01 
115 1 2 1.1605682586648289e+00 -5.9683387083326265e+00 1.0000000000000000e+00 6.9914488686516485e+00 5.3235196447322188e+00 9.5274266928735496e-01 
307 1 2 1.1605682584842913e+00 3.5152331201939333e+00 1.0000000000000000e+00 1.2077098805137775e+01 4.3207507070594424e+00 2.2915642059139524e-01 
112 1 2 1.1605682584842913e+00 -2.4227040558126026e+02 1.0000000000000000e+00 9.4210977439174215e+00 6.0565380826582764e+00 6.1291462284366449e-01 
27 1 2 1.1605682584842913e+00 -1.8491152325492017e+01 1.0000000000000000e+00 6.8876609847459225e+00 8.1494856915226954e+00 6.9348323286728109e-01 
227 1 2 1.1605682584842913e+00 6.4407044001953970e+00 1.0000000000000000e+00 1.1535088704263838e+01 7.8083839823171930e+00 3.3314408855874576e-02 
4 1 2 1.1605682586648289e+00 1.0559992784752065e+01 1.0000000000000000e+00 7.8800048426106670e+00 5.0651148187766273e+00 2.7214721853586639e+00 
221 1 2 1.1605682584842913e+00 7.3959281934455152e+00 1.0000000000000000e+00 8.8453936002340292e+00 8.3860665915869941e+00 1.9071956248357067e+00 
280 1 2 1.1605682584842913e+00 2.4767499028190628e+01 1.0000000000000000e+00 1.2505192688580554e+01 9.2080954472681995e+00 1.5963809161781402e+00 
160 1 2 1.1605682584842913e+00 1.6660222682046168e+01 1.0000000000000000e+00 9.2914422165672335e+00 3.7275670029581426e-01 3.2972709887830853e+00 
238 1 2 1.1605682584842913e+00 7.3832775537033015e+00 1.0000000000000000e+00 9.5325943512935343e+00 2.3409666987653246e+00 3.9698817993724647e+00 
181 1 2 1.1605682584842913e+00 7.0436536256529294e+00 1.0000000000000000e+00 1.2261213889970440e+01 1.7925582775248481e+00 2.9635332397519840e+00 
216 1 2 1.1605682584842913e+00 3.8242884301091182e+00 1.0000000000000000e+00 1.1254056684916630e+01 6.3845230502416088e+00 3.0673707178501246e+00 
290 1 2 1.1605682584842913e+00 2.5039927357777842e+01 1.0000000000000000e+00 6.8047801175505391e+00 1.6331674398262458e-01 5.6408162914027145e+00 
79 1 2 1.1605682584842913e+00 1.7187843156066563e+01 1.0000000000000000e+00 1.2030849480460713e+01 2.6069509777688227e+00 4.9895182502804616e+00 
116 1 2 1.1605682584842913e+00 3.7916175415049258e+00 1.0000000000000000e+00 7.2095838858450589e+00 4.6064337681965890e+00 4.6619108677360241e+00 
298 1 2 1.1605682584842913e+00 -2.1922878114893024e+01 1.0000000000000000e+00 1.0517030461254707e+01 4.5942003686097772e+00 4.2944790975972964e+00 
81 1 2 1.1605721917830498e+00 7.9205703603191804e+00 1.0000000000000000e+00 1.2827751703213112e+01 5.5412658924442875e+00 4.8034490368986491e+00 
185 1 2 1.1605682584842913e+00 3.5770902514819511e+01 1.0000000000000000e+00 7.8130402691380896e+00 7.0755597015947629e+00 4.2960405909976709e+00 
229 1 2 1.1605682584842913e+00 7.2951832753529917e+00 1.0000000000000000e+00 9.7531518980268466e+00 6.6367471101716502e+00 5.5028875032410660e+00 
147 1 2 1.1605682584842913e+00 9.5959133898931608e+00 1.0000000000000000e+00 1.1345957128306500e+01 8.0518617055283421e+00 5.4389101301694183e+00 
61 1 2 1.1605721917830498e+00 6.8225119413746000e+00 1.0000000000000000e+00 1.3158034772748502e+01 7.4308672309088326e+00 4.4177926443867843e+00 
107 1 2 1.1605682584842913e+00 6.1574872796230089e+00 1.0000000000000000e+00 1.1126705401659974e+01 4.3744290077973402e-01 6.6976930167118454e+00 
374 1 2 1.1605682584842913e+00 1.1032020310797375e+01 1.0000000000000000e+00 1.1530143086809861e+01 3.7050485663031374e+00 6.7033619541410241e+00 
309 1 2 1.1605682584842913e+00 9.7541369194387286e+00 1.0000000000000000e+00 7.7388164760093199e+00 5.9955811526672926e+00 7.0866520121745360e+00 
332 1 2 1.1605682584842913e+00 6.4005150075474493e+00 1.0000000000000000e+00 9.9375166006223381e+00 5.3511501950075688e+00 7.2999062037086704e+00 
57 1 2 1.1605682584842913e+00 2.7405474199528641e+01 1.0000000000000000e+00 1.0485249636995249e+01 8.2394732572126532e+00 8.0927432823436707e+00 
136 1 2 1.1605682584842913e+00 9.2282379419335534e+00 1.0000000000000000e+00 1.2696091591301210e+01 8.6014137595086293e+00 7.8881394571809578e+00 
264 1 2 1.1605761104842665e+00 1.3529789400000951e+01 1.0000000000000000e+00 8.0210508983700510e+00 9.7522100455092020e-01 8.6433314047040302e+00 
110 1 2 1.1605761104842665e+00 1.0091508556485884e+01 1.0000000000000000e+00 9.2874555434465673e+00 3.0126007727861720e-01 9.9616763130430801e+00 
78 1 2 1.1605682584842913e+00 1.6640332263391983e+01 1.0000000000000000e+00 1.2007580578948504e+01 2.3415825094290907e+00 8.9793172173104239e+00 
182 1 2 1.1605682584842913e+00 1.1825551079662912e+01 1.0000000000000000e+00 9.0975167749064259e+00 4.2180334769361636e+00 9.6162818556905840e+00 
306 1 2 1.1605682584842913e+00 1.1400407606901116e+01 1.0000000000000000e+00 1.1740607515210133e+01 4.9312676553867298e+00 9.1709313445342495e+00 
338 1 2 1.1605682584842913e+00 -2.7287787951513076e+00 1.0000000000000000e+00 1.0331988586323032e+01 2.2559450498588602e+00 1.1295728761843170e+01 
239 1 2 1.1605682584842913e+00 7.1559915330540891e+00 1.0000000000000000e+00 1.2047093261390339e+01 4.5416850363231447e+00 1.1166191926373910e+01 
187 1 2 1.1605682584842913e+00 -5.4536690625982601e+01 1.0000000000000000e+00 9.6117553212395155e+00 6.7374054936881693e+00 1.0547977504177101e+01 
236 1 2 1.1605682584842913e+00 5.3057780277104936e+00 1.0000000000000000e+00 7.3109344924726187e+00 7.2047324381888549e+00 1.0119215753265880e+01 
292 1 2 1.1605682584842913e+00 1.2966357368292179e+01 1.0000000000000000e+00 1.2120982603197175e+01 8.2381417593149298e+00 1.0280536529668726e+01 
127 1 2 1.1605682584842913e+00 -6.3962278858143429e-01 1.0000000000000000e+00 6.7910300471444094e+00 9.4293179303201313e+00 1.0855728664760139e+01 
277 1 2 1.1605682584842913e+00 3.6891959074508929e+00 1.0000000000000000e+00 1.0092417153195855e+01 9.1389366543173534e+00 1.0691191784624140e+01 
140 1 2 1.1605682584842913e+00 2.2668273161107997e+01 1.0000000000000000e+00 7.9894159776000784e+00 2.1011474314460838e+00 1.1829887696400286e+01 
246 1 2 1.1605682584842913e+00 7.0271827394929876e+00 1.0000000000000000e+00 1.2606099654572745e+01 2.5366167107739943e+00 1.1518746133816387e+01 
208 1 2 1.1605684301773889e+00 1.2454207067385139e+01 1.0000000000000000e+00 1.1572682179023916e+01 9.5114555997686452e+00 1.2694094147812594e+01 
171 1 2 1.1605682588705486e+00 -3.6119777840745875e+00 1.0000000000000000e+00 9.4523529490882972e+00 8.5137074136391089e+00 1.4054978167370871e+01 
362 1 2 1.1605682584842913e+00 8.7856123748592694e+00 1.0000000000000000e+00 1.1878021213824869e+01 7.4008442850979872e+00 1.3921362276983322e+01 
86 1 2 1.1605682584842913e+00 -3.5105947394038384e+02 1.0000000000000000e+00 1.2903662755521992e+01 2.7957776194173141e+00 1.4745547156708952e+01 
209 1 2 1.1605716296733144e+00 9.6325784225022790e+00 1.0000000000000000e+00 1.0115148162792062e+01 3.9141251289710053e+00 1.4318754886836416e+01 
369 1 2 1.1605716296733144e+00 2.5071026849340825e+01 1.0000000000000000e+00 9.6888482849359061e+00 5.4950934462029020e+00 1.5392845563496781e+01 
138 1 2 1.1605682584842913e+00 1.1422993894382993e+01 1.0000000000000000e+00 7.9584066507177029e+00 6.5402612357252501e+00 1.5151296426220217e+01 
176 1 2 1.1605682588705486e+00 -1.7923115732992252e+02 1.0000000000000000e+00 1.0677490754139372e+01 8.7555245649943565e+00 1.5611459519145443e+01 
28 1 2 1.1605682584842913e+00 9.1601286739223227e+00 1.0000000000000000e+00 6.8041316906898208e+00 5.5179362506227514e-01 1.6649444743410786e+01 
329 1 2 1.1605682584842913e+00 1.2874787558598918e+01 1.0000000000000000e+00 1.0767123934716389e+01 2.5212519962527641e-01 1.6400801479289097e+01 
255 1 2 1.1605682584842913e+00 1.7910544691625901e+01 1.0000000000000000e+00 8.0727202022843425e+00 2.9382791323460822e+00 1.5894025783639515e+01 
50 1 2 1.1605682584842913e+00 4.3944141214309962e+00 1.0000000000000000e+00 1.2113961025138236e+01 3.7108114615184533e+00 1.6440194696792229e+01 
126 1 2 1.1605682584842913e+00 9.2559564402313548e+00 1.0000000000000000e+00 8.8892261712363023e+00 8.7421033878838905e+00 1.6683222683524022e+01 
95 1 2 1.1605682584842913e+00 1.1344706036391589e+01 1.0000000000000000e+00 1.1584347914444251e+01 1.5703450632411931e+00 1.8243884714578691e+01 
275 1 2 1.1605682584842913e+00 -4.2265501669424680e+01 1.0000000000000000e+00 1.0011256259649224e+01 3.4580523940922507e+00 1.7344533781564905e+01 
85 1 2 1.1605682584842913e+00 1.5670174565287500e+01 1.0000000000000000e+00 1.1565916941031757e+01 5.2322742984346942e+00 1.8440101651678862e+01 
9 1 2 1.1605682584842913e+00 2.4725170524914489e+01 1.0000000000000000e+00 9.1887351959618027e+00 6.1159427906564341e+00 1.7775820243677334e+01 
11 1 2 1.1605682584842913e+00 -3.0384675455598959e+01 1.0000000000000000e+00 1.2128905550203584e+01 7.3152660830118821e+00 1.7715588553789903e+01 
142 1 2 1.1605682584842913e+00 -1.9797945298568870e+01 1.0000000000000000e+00 1.0660019749560989e+01 8.9111070600339986e+00 1.8198355713524762e+01 
313 1 2 1.1605682584842913e+00 1.6858730043142884e+01 1.0000000000000000e+00 1.2987627037459127e+01 1.4219662066442162e+01 3.5330670745602621e-01 
289 1 2 1.1605682584842913e+00 4.5631415017536785e+00 1.0000000000000000e+00 7.1130391788990543e+00 1.4740622376759939e+01 5.0994318241226677e-01 
214 1 2 1.1605682584842913e+00 8.3118869165162579e+00 1.0000000000000000e+00 1.0908452053335875e+01 1.5042567603355071e+01 7.9936725915337969e-01 
333 1 2 1.1605682584842913e+00 4.1576040213656761e+01 1.0000000000000000e+00 9.1782845518917977e+00 1.6582530727718051e+01 1.1981878441897700e+00 
109 1 2 1.1605682584842913e+00 2.8439452197060122e+00 1.0000000000000000e+00 7.5335428696260518e+00 1.9703395129220809e+01 9.6708624332830395e-01 
31 1 2 1.1605682584842913e+00 2.4579450870103820e+01 1.0000000000000000e+00 1.2864460089965721e+01 1.8650560525350617e+01 1.0697351135195439e+00 
334 1 2 1.1605682584842913e+00 9.4339414480896124e+00 1.0000000000000000e+00 8.7324457683959285e+00 1.1297338800678467e+01 2.2655313534625399e+00 
267 1 2 1.1605682584842913e+00 1.5644731789677010e+01 1.0000000000000000e+00 1.1308662351606843e+01 1.1135723144198677e+01 1.5057209529041806e+00 
345 1 2 1.1605682584842913e+00 2.2029286664110820e+01 1.0000000000000000e+00 8.4756694933055279e+00 1.8042912815699019e+01 2.7151334119042816e+00 
180 1 2 1.1605682584842913e+00 5.4203564510273594e+00 1.0000000000000000e+00 1.3321476021878128e+01 1.2338303961108952e+01 3.5502186130163711e+00 
76 1 2 1.1605682584842913e+00 -1.4113403852241055e+02 1.0000000000000000e+00 1.0575471243284429e+01 1.2925826135061817e+01 3.4744880667404496e+00 