LAMMPS data file via write_data, version 30 Jul 2016, timestep = 50400000

4620 atoms
8 atom types

0.0000000000000000e+00 1.0000000000000000e+02 xlo xhi
0.0000000000000000e+00 4.0000000000000000e+01 ylo yhi
0.0000000000000000e+00 4.0000000000000000e+01 zlo zhi

Masses

1 3.896
2 5.36
3 20.064
4 8.378
5 8.378
6 8.378
7 8.378
8 8.378

Atoms # meso-molecular

4415 4416 2 1.0280000000000000e+00 2.4012895824592280e+02 1.0000000000000000e+00 2.9924350586580282e+01 1.1186084344667753e+01 1.4387197770224973e+00 
4414 4415 2 1.0280000000000000e+00 -6.6294433366330918e+02 1.0000000000000000e+00 3.0922429738695058e+01 1.1411349291573117e+01 9.2836036712755643e-01 
332 333 2 1.0280000000000000e+00 7.7131199682909624e+01 1.0000000000000000e+00 3.2316752362611354e+01 3.2956873356376590e+00 2.3334079657289619e+00 
4490 4491 2 1.0280000000000000e+00 6.7878890628872838e+01 1.0000000000000000e+00 3.2872188917747955e+01 3.0319384506383380e+00 3.2974099244086839e+00 
4027 4028 2 1.0279999999999994e+00 -5.4787564251718959e+02 1.0000000000000000e+00 1.5764976492339478e+01 1.7225043116763647e+01 1.6932035620187116e+00 
4616 4617 2 1.0279999999999994e+00 7.0239154471129154e+02 1.0000000000000000e+00 1.5385026194010377e+01 1.6970439064208978e+01 2.7411480093445753e+00 
799 800 2 1.0279999999999994e+00 -2.6021202480470538e+02 1.0000000000000000e+00 2.5583432832419177e+01 1.2689197665232047e+01 4.7464548309658792e+00 
1554 1555 2 1.0279999999999982e+00 -4.9588359548423057e+02 1.0000000000000000e+00 2.0867033269238917e+01 1.8457574931060453e+01 3.8301994240714565e+00 
2057 2058 2 1.0279999999999982e+00 -2.7934228447582257e+02 1.0000000000000000e+00 2.0741944335708855e+01 1.9113281571291441e+01 4.7585175689571679e+00 
3609 3610 2 1.0279999999999996e+00 6.3974438363848606e+01 1.0000000000000000e+00 2.7033930353291826e+01 2.9103094235205212e-01 5.3085463478132642e+00 
3104 3105 2 1.0279999999999996e+00 -3.8744232518513888e+02 1.0000000000000000e+00 2.7754925196003285e+01 6.0462587342355256e-01 6.1387256498007812e+00 
3277 3278 2 1.0280000000000005e+00 -2.9785890993600844e+02 1.0000000000000000e+00 2.9582506688445807e+01 4.1218153013470262e+00 6.1640318828058049e+00 
2857 2858 2 1.0280000000000005e+00 -5.6486681309632058e+02 1.0000000000000000e+00 2.9785692584146972e+01 3.8514500243349601e+00 5.0717905513075676e+00 
3150 3151 2 1.0280000000000000e+00 -5.4175205929621643e+02 1.0000000000000000e+00 1.9115155940854518e+01 6.9869840271176269e+00 5.6931379182488318e+00 
1764 1765 2 1.0280000000000000e+00 -5.4785638281771958e+02 1.0000000000000000e+00 2.0249609494072217e+01 7.0468039100388786e+00 5.8227902790363020e+00 
841 842 2 1.0279999999999994e+00 -3.8274456190262561e+02 1.0000000000000000e+00 2.6388547389110453e+01 1.3355026970599889e+01 5.2110351837316120e+00 
1919 1920 2 1.0280000000000007e+00 8.5502551258789936e+02 1.0000000000000000e+00 3.3000645230886043e+01 1.4501708182345412e+01 5.3321231959901771e+00 
4161 4162 2 1.0280000000000000e+00 -1.7304858824949806e+03 1.0000000000000000e+00 1.8609701444590838e+00 3.1478552216580615e+00 7.5337182348388092e+00 
4160 4161 2 1.0280000000000000e+00 -9.8301546602224157e+00 1.0000000000000000e+00 8.6836880095759761e-01 3.4652325249076679e+00 7.0632001823479476e+00 
1722 1723 2 1.0279999998641827e+00 -4.9794157281887721e+02 1.0000000000000000e+00 3.2524743753296406e+01 1.5987617746788359e+01 7.5605680446345689e+00 
2141 2142 2 1.0280000001351401e+00 -2.8068347990961479e+02 1.0000000000000000e+00 3.2975129783317279e+01 1.6906943720897900e+01 7.0428524741355822e+00 
44 45 2 1.0279999999742848e+00 -4.3418609339614011e+02 1.0000000000000000e+00 3.0095656922403112e+01 1.4714328472150711e+01 9.2734837498230966e+00 
1860 1861 2 1.0280000000602780e+00 -3.4674170361062284e+02 1.0000000000000000e+00 3.1348664382344442e+01 1.5124783371267821e+01 9.2108218416383796e+00 
4075 4076 2 1.0279999999496117e+00 -3.8165924072012820e+02 1.0000000000000000e+00 3.2878994623391321e+01 1.6212628894722723e+01 9.8934793847912310e+00 
1173 1174 2 1.0280000000324983e+00 -5.4027829317557894e+02 1.0000000000000000e+00 2.8481262604307034e+01 1.8266114734820697e+01 9.2992538561613376e+00 
251 252 2 1.0279999999781020e+00 8.7484069472901433e+02 1.0000000000000000e+00 2.9416704138336925e+01 1.7479484646235385e+01 8.9813963823816430e+00 
3316 3317 2 1.0279999999999996e+00 6.3718849236149151e+02 1.0000000000000000e+00 2.3923808578481342e+01 2.8848683272602722e+00 1.1214206522735578e+01 
3275 3276 2 1.0279999999999996e+00 -3.5871062157072151e+02 1.0000000000000000e+00 2.3848328811142256e+01 3.5556493868393391e+00 1.0291315092343485e+01 
4286 4287 2 1.0279999999999996e+00 -2.6102084815735009e+02 1.0000000000000000e+00 6.8125982005853309e+00 6.5007937898194079e+00 1.0340956530371866e+01 
4329 4330 2 1.0279999999999996e+00 -1.0171713419613736e+03 1.0000000000000000e+00 5.6934048171734322e+00 6.7303455088194557e+00 1.0295292580806676e+01 
1344 1345 2 1.0280000000000000e+00 -3.1610620344751169e+02 1.0000000000000000e+00 1.0711507322913013e+01 9.9157828861170767e+00 1.0914938009246336e+01 
1008 1009 2 1.0280000000000000e+00 -3.0277968423977723e+02 1.0000000000000000e+00 1.1325417686173632e+01 1.0786058228596108e+01 1.1331000398333551e+01 
826 827 2 1.0279999999242646e+00 6.5271727283493260e+02 1.0000000000000000e+00 3.2013553274061913e+01 1.3129114195885780e+01 1.1502967765125593e+01 
3785 3786 2 1.0279999999947154e+00 1.0872785575371881e+03 1.0000000000000000e+00 2.8516535492635317e+01 1.4357787715813481e+01 1.0599390279934516e+01 
4207 4208 2 1.0280000000159522e+00 -7.7951392654589336e+02 1.0000000000000000e+00 2.9879522773557763e+01 1.3859574550163595e+01 1.0750238526881436e+01 
3739 3740 2 1.0280000000746414e+00 -3.8248084216096959e+02 1.0000000000000000e+00 3.2681819938004118e+01 1.4959315925189275e+01 1.0655399516994287e+01 
2859 2860 2 1.0280000000765448e+00 -5.3962656044267669e+02 1.0000000000000000e+00 2.9113232127805432e+01 1.6068355059395167e+01 1.0984156511913962e+01 
45 46 2 1.0279999999624574e+00 -2.9062129037035515e+02 1.0000000000000000e+00 3.0902238062374323e+01 1.5366692791130795e+01 1.0842058595548313e+01 
1598 1599 2 1.0279999999878584e+00 4.2200352633721491e+02 1.0000000000000000e+00 2.9666394189651768e+01 1.8163638190926552e+01 1.0519271858129606e+01 
2062 2063 2 1.0280000000109302e+00 3.0202676480567579e+03 1.0000000000000000e+00 3.0793611033675692e+01 1.6900580018595516e+01 1.0755451225125141e+01 
2059 2060 2 1.0279999999954907e+00 -5.0865503369970213e+01 1.0000000000000000e+00 3.2425891928607633e+01 1.6703312723967567e+01 1.1464908947769269e+01 
2060 2061 2 1.0279999999625413e+00 9.0248023994218715e+02 1.0000000000000000e+00 2.9022361213502972e+01 1.9419942063758370e+01 1.1162133002599798e+01 
3030 3031 2 1.0280000000000000e+00 1.4179473735845590e+03 1.0000000000000000e+00 5.7955824094372428e+00 2.0826621930745204e+00 1.2502987850096023e+01 
3031 3032 2 1.0280000000000000e+00 4.8390812654356660e+02 1.0000000000000000e+00 6.9324847586786067e+00 2.1307729419163888e+00 1.2391133383962199e+01 
380 381 2 1.0280000000200313e+00 -4.3382014019908036e+02 1.0000000000000000e+00 2.7702392595595438e+01 1.2647261139198541e+01 1.2476241881806837e+01 
830 831 2 1.0280000000671867e+00 -7.7575590606913806e+01 1.0000000000000000e+00 3.2410965177886553e+01 1.2393216218734509e+01 1.2308104458525357e+01 
381 382 2 1.0279999999961156e+00 -2.8827970973420213e+02 1.0000000000000000e+00 2.8905222462062429e+01 1.3565439235417143e+01 1.2136917725232403e+01 
3274 3275 2 1.0280000000296767e+00 -9.7870759915794019e+02 1.0000000000000000e+00 3.1204900033882112e+01 1.4132656352160893e+01 1.3331657774719853e+01 
2649 2650 2 1.0279999999821663e+00 6.1038420353054198e+02 1.0000000000000000e+00 3.3077487371632230e+01 1.4805156341086370e+01 1.2316118423406454e+01 
2774 2775 2 1.0279999999460412e+00 -2.5174036339064094e+02 1.0000000000000000e+00 2.8318629368530051e+01 1.5485382695307248e+01 1.1824916881942297e+01 
1219 1220 2 1.0279999999587777e+00 -1.0211358114043296e+03 1.0000000000000000e+00 3.1704649885982583e+01 1.6314812735078057e+01 1.2970933444717467e+01 
673 674 2 1.0279999999658720e+00 1.0133278502307244e+03 1.0000000000000000e+00 3.1541186551716301e+01 1.7998143117653655e+01 1.1873763231028757e+01 
3907 3908 2 1.0280000000078451e+00 1.0168692597905924e+03 1.0000000000000000e+00 3.0913494440185197e+01 1.9375396200800406e+01 1.2278445196967073e+01 
4369 4370 2 1.0280000000248153e+00 -9.9363158838299478e+02 1.0000000000000000e+00 3.2175741309187600e+01 1.9834485365209414e+01 1.2564395464594089e+01 
2942 2943 2 1.0280000000469147e+00 -4.1810853600913262e+01 1.0000000000000000e+00 3.3299636807300551e+01 1.8395067412531077e+01 1.2706677369834173e+01 
2280 2281 2 1.0279999999814933e+00 -3.4641477081223229e+02 1.0000000000000000e+00 2.8387842051908514e+01 1.2970610706640466e+01 1.3601225373137733e+01 
3732 3733 2 1.0279999999634934e+00 -1.2267209472090685e+03 1.0000000000000000e+00 3.1018702464850612e+01 1.4503603334448570e+01 1.4408487647444645e+01 
757 758 2 1.0280000000519736e+00 -1.1605199819774828e+02 1.0000000000000000e+00 3.2473004681569350e+01 1.5974898611709664e+01 1.4060416953860766e+01 
2985 2986 2 1.0279999999887550e+00 -1.0261735439180004e+03 1.0000000000000000e+00 3.2224742922051654e+01 1.7879219844924673e+01 1.3679330639458584e+01 
3026 3027 2 1.0279999999229312e+00 -4.1667845543177037e+01 1.0000000000000000e+00 3.3060203881226528e+01 1.8195113419166788e+01 1.4995844282604336e+01 
4372 4373 2 1.0280000000430816e+00 1.3628193111885512e+03 1.0000000000000000e+00 3.2542346497607660e+01 1.9986626677239560e+01 1.4454219735254233e+01 
3405 3406 2 1.0280000000000000e+00 2.4894037217990029e+02 1.0000000000000000e+00 1.5907834829305093e+01 1.5285019814187675e+00 1.6223453788261370e+01 
4285 4286 2 1.0280000000000000e+00 -1.1026817905007519e+02 1.0000000000000000e+00 1.4908690745579996e+01 1.9123230917124174e+00 1.6625654574820555e+01 
4459 4460 2 1.0279999999812999e+00 -3.7994450016283577e+02 1.0000000000000000e+00 2.8232373643000788e+01 1.2041739212371118e+01 1.5310181247422442e+01 
4079 4080 2 1.0280000000217417e+00 8.0882986434080101e+02 1.0000000000000000e+00 2.8493966928461891e+01 1.3164933616538002e+01 1.5539905072087368e+01 
2895 2896 2 1.0279999999999994e+00 -1.5595901605181598e+03 1.0000000000000000e+00 6.0947503200628166e+00 1.5309134122495404e+01 1.5002584629844828e+01 
3314 3315 2 1.0279999999999994e+00 9.1784871289608463e+02 1.0000000000000000e+00 6.6294592594620534e+00 1.5810305800218977e+01 1.5880244197691624e+01 
3535 3536 2 1.0280000000514800e+00 -1.2439431770870721e+02 1.0000000000000000e+00 3.3132906736580750e+01 1.9585570938403482e+01 1.6117837860521039e+01 
3525 3526 2 1.0279999999491143e+00 -5.5807547807898140e+02 1.0000000000000000e+00 3.2767565831305582e+01 1.8117490017445192e+01 1.7045313337020712e+01 
3105 3106 2 1.0280000000357492e+00 -8.8088562494287135e+02 1.0000000000000000e+00 3.2512339003972016e+01 1.8900594498286086e+01 1.7976772296311477e+01 
4340 4341 2 1.0280000000000000e+00 1.9067600666959481e+02 1.0000000000000000e+00 1.9360177956587151e+01 4.9419676429560944e-01 1.9496629648879086e+01 
3372 3373 2 1.0280000000000000e+00 -4.3571696885606025e+02 1.0000000000000000e+00 2.0458700778022720e+01 2.4623082587820061e-01 1.9298807704624284e+01 
554 555 2 1.0279999999784248e+00 6.4366013096754318e+02 1.0000000000000000e+00 3.3167056513183681e+01 1.8008835076080576e+01 1.9779332682426965e+01 
3575 3576 2 1.0280000000000007e+00 9.6011672897232143e+02 1.0000000000000000e+00 2.5397175309082748e+01 8.6246737123402486e+00 2.0948298500879456e+01 
4040 4041 2 1.0280000000265488e+00 6.6267818786801035e+02 1.0000000000000000e+00 2.7736234132570011e+01 1.6819165571114166e+01 2.1387450119688854e+01 
4586 4587 2 1.0279999999717644e+00 3.1371897760899714e+01 1.0000000000000000e+00 2.8869405876881277e+01 1.6863152556681790e+01 2.1163545321892016e+01 
3323 3324 2 1.0280000000000007e+00 9.6226190211703533e+02 1.0000000000000000e+00 2.5723869301892499e+01 8.4090479615600326e+00 2.2022612043622555e+01 
3863 3864 2 1.0280000000000000e+00 -7.4712385026367838e+02 1.0000000000000000e+00 9.2623723683386032e+00 1.6681491557660920e+01 2.2944466753864820e+01 
2655 2656 2 1.0280000000071041e+00 -4.1118994341383427e+02 1.0000000000000000e+00 2.9549762877809592e+01 1.7797974873478950e+01 2.3141234736085302e+01 
2613 2614 2 1.0280000000184193e+00 2.8260478087011352e+03 1.0000000000000000e+00 2.8518076027279200e+01 1.8214836142147188e+01 2.2715707082913099e+01 
2143 2144 2 1.0279999999260361e+00 -7.8223395346253619e+02 1.0000000000000000e+00 3.1353316161930508e+01 1.7087060829432620e+01 2.2221617365352820e+01 
2605 2606 2 1.0280000000667513e+00 -7.8071563868293254e+02 1.0000000000000000e+00 3.1359419440521510e+01 1.8318519904291627e+01 2.2235170400240566e+01 
855 856 2 1.0280000000404941e+00 -3.1769512926737434e+02 1.0000000000000000e+00 3.3001741156863972e+01 1.7679565324718688e+01 2.1870916994626931e+01 
3778 3779 2 1.0280000000000000e+00 -2.4101383933194620e+02 1.0000000000000000e+00 9.9824215106161134e+00 1.6542416344434248e+01 2.3821712634579068e+01 
4416 4417 2 1.0279999999999996e+00 1.5371037073685824e+02 1.0000000000000000e+00 1.3622720172383730e+01 1.7005152247183624e+01 2.4440287649269713e+01 
4539 4540 2 1.0280000000470444e+00 -2.4782778574778104e+02 1.0000000000000000e+00 2.7733690809785173e+01 1.7384954758156173e+01 2.4357778163235253e+01 
3158 3159 2 1.0279999999375919e+00 9.5277049675254162e+01 1.0000000000000000e+00 2.8725968927655089e+01 1.6859574278416897e+01 2.4684558138828329e+01 
927 928 2 1.0280000000000000e+00 -9.5974385366464048e+02 1.0000000000000000e+00 2.6705790784871892e+00 3.0693925965981617e+00 2.5567742576163504e+01 
931 932 2 1.0280000000000000e+00 -1.3556489077499043e+02 1.0000000000000000e+00 2.6188386564580055e+00 4.2061322246222321e+00 2.5679630753674267e+01 
4543 4544 2 1.0279999999999996e+00 -7.8201091344045813e+02 1.0000000000000000e+00 1.2929565146979701e+01 1.6467540359218898e+01 2.5173692439365119e+01 
2229 2230 2 1.0280000000000000e+00 1.0013429031203955e+03 1.0000000000000000e+00 2.9636584258036578e+01 1.5541270534575116e+01 2.7046508093946443e+01 
2228 2229 2 1.0280000000000000e+00 -5.4369860527219339e+02 1.0000000000000000e+00 2.9566244702719199e+01 1.6669034070076204e+01 2.7221364527658729e+01 
4579 4580 2 1.0280000000000000e+00 1.1365375154415799e+03 1.0000000000000000e+00 1.6209271058827667e+01 1.3200112418482397e+00 2.9876629089530716e+01 
1436 1437 2 1.0280000000000002e+00 6.4411075074248359e+01 1.0000000000000000e+00 2.2166610514313000e+01 8.1984993966032971e-01 2.9276657875939449e+01 
8 9 2 1.0280000000000002e+00 2.7600917972702256e+01 1.0000000000000000e+00 2.3089956943671396e+01 6.3904118750063477e-01 2.9926359795278074e+01 
1683 1684 2 1.0280000000000000e+00 -1.0217255130077565e+03 1.0000000000000000e+00 1.2679533651678547e+01 4.2108926267205700e+00 2.8376339438885694e+01 
1641 1642 2 1.0280000000000000e+00 -3.9689853863468318e+02 1.0000000000000000e+00 1.2231815618962512e+01 4.3926418848270092e+00 2.9412625493900130e+01 
4582 4583 2 1.0280000000000000e+00 -2.9339177146424181e+01 1.0000000000000000e+00 1.5411180993601583e+01 1.0027516544201747e+00 3.0631461269178047e+01 
207 208 2 1.0279999999999994e+00 -6.6506542323140377e+02 1.0000000000000000e+00 2.8381095461458379e+01 1.9192552135682416e+01 3.0962265302171822e+01 
206 207 2 1.0279999999999994e+00 2.2475342669648802e+02 1.0000000000000000e+00 2.9326822400818450e+01 1.9456601886161735e+01 3.0376388776870471e+01 
1255 1256 2 1.0280000000000016e+00 4.7634172655139135e+00 1.0000000000000000e+00 2.0319088919757210e+01 1.3847052638601248e+01 3.4895040883089095e+01 
3825 3826 2 1.0280000000000005e+00 1.0674850646300337e+02 1.0000000000000000e+00 3.0539360763196473e+01 1.4845619142470740e+01 3.3912339151931754e+01 
3362 3363 2 1.0280000000000005e+00 6.0407697646807105e+02 1.0000000000000000e+00 3.1050491174545048e+01 1.5833288656537936e+01 3.3646580518891085e+01 
847 848 2 1.0280000000000000e+00 6.8716795132311472e+02 1.0000000000000000e+00 2.5433181663694437e+00 9.5172252185564314e+00 3.6505398702050712e+01 
1975 1976 2 1.0279999999999996e+00 -7.8241603058789258e+02 1.0000000000000000e+00 1.5223459531092113e+01 9.5443229245283199e+00 3.5195339797819997e+01 
883 884 2 1.0280000000000000e+00 -2.2604244232806786e+02 1.0000000000000000e+00 2.2370191337736252e+00 1.0616398782953354e+01 3.6578688506393270e+01 
2437 2438 2 1.0279999999999996e+00 -7.8134955500150227e+02 1.0000000000000000e+00 1.4701417583252541e+01 1.0520503059979651e+01 3.5481552245670940e+01 
834 835 2 1.0280000000000016e+00 5.0191212237114325e+02 1.0000000000000000e+00 2.0079322028754728e+01 1.4185760866575118e+01 3.5960480506784656e+01 
125 126 2 1.0279999999999994e+00 -5.4753575093849736e+02 1.0000000000000000e+00 1.5404076839566857e+01 1.2120357641518948e+01 3.9258623969262793e+01 
166 167 2 1.0279999999999994e+00 -6.1481758732091680e+02 1.0000000000000000e+00 1.5451322216293534e+01 1.3224461935051233e+01 3.8965205154528164e+01 
167 168 2 1.0280000000000007e+00 -2.5883209611734492e+02 1.0000000000000000e+00 1.9537415628067212e+01 1.4346602889234923e+01 3.9267626682659674e+01 
208 209 2 1.0280000000000007e+00 -1.0119251713579665e+03 1.0000000000000000e+00 2.0624401196181491e+01 1.4701290812273385e+01 3.9261981381899218e+01 
2240 2241 2 1.0279999999999994e+00 8.5394743141032495e+02 1.0000000000000000e+00 3.3320170474421444e+00 2.1679008232558555e+01 1.5402388098994806e+00 
2702 2703 2 1.0279999999999994e+00 8.4981552070418707e+02 1.0000000000000000e+00 2.5671591363916457e+00 2.1142086076503627e+01 2.1990862821565562e+00 
3993 3994 2 1.0280000000000002e+00 1.0405590249577682e+02 1.0000000000000000e+00 2.4473333953557244e+01 2.4422612611714065e+01 3.1842131297590677e+00 
2231 2232 2 1.0279999999999965e+00 -2.8530429097734429e+02 1.0000000000000000e+00 2.5351418283008812e+01 2.9316873533275093e+01 2.1116849007880378e+00 
2854 2855 2 1.0280000000000002e+00 1.7101776966562028e+02 1.0000000000000000e+00 3.2064949688632055e+01 2.8972013095496479e+01 3.2429099937268830e+00 
2148 2149 2 1.0279999999999965e+00 8.3895975436208960e+02 1.0000000000000000e+00 2.4880938280275718e+01 3.0329379381801665e+01 1.8649998968123020e+00 
127 128 2 1.0280000000000000e+00 -1.0919479411755918e+02 1.0000000000000000e+00 2.6641242263065170e+01 3.5688640762684109e+01 1.6692554258106644e+00 
1095 1096 2 1.0280000000000000e+00 2.4913692154559971e+02 1.0000000000000000e+00 2.7682631753369556e+01 3.6136308028701393e+01 1.8191719555161032e+00 
3530 3531 2 1.0280000000000002e+00 6.0354273972739759e+02 1.0000000000000000e+00 2.4735039511327813e+01 2.5376048092207515e+01 3.7585336004258889e+00 
2475 2476 2 1.0280000000000002e+00 6.1649691484205584e+02 1.0000000000000000e+00 3.2614397931537312e+01 2.9747567818760395e+01 3.8785156238546348e+00 
371 372 2 1.0280000000000060e+00 -3.8834876790914018e+02 1.0000000000000000e+00 7.3902192391390076e-01 2.5330655997627396e+01 7.4715260009095132e+00 
2897 2898 2 1.0280000000000005e+00 3.4657478358855508e+02 1.0000000000000000e+00 1.3373535350174198e+01 3.8461803611194981e+01 9.3978749440457428e+00 
2814 2815 2 1.0280000000000005e+00 6.8980460983366743e+02 1.0000000000000000e+00 1.4451664782383668e+01 3.8431173425413185e+01 9.0183071153492165e+00 
2522 2523 2 1.0280000000065646e+00 9.0390990512148801e+02 1.0000000000000000e+00 2.8601684383015307e+01 2.0794941464911947e+01 1.0958021706482121e+01 
2984 2985 2 1.0280000000375378e+00 4.2200095814964629e+02 1.0000000000000000e+00 2.9942132623201527e+01 2.0947510866637195e+01 1.1466319654901703e+01 
3529 3530 2 1.0280000000000005e+00 -1.0312359875640468e+03 1.0000000000000000e+00 1.7820173574928815e+00 3.3083506218588916e+01 1.0689776352539198e+01 
3991 3992 2 1.0280000000000005e+00 -1.2700384954556381e+02 1.0000000000000000e+00 2.6843489856634402e+00 3.2862222708059072e+01 1.1356262855200276e+01 
463 464 2 1.0280000000000002e+00 -2.2500605377406595e+02 1.0000000000000000e+00 2.9990470275128491e+01 3.7935301209557693e+01 1.1515670480706206e+01 
511 512 2 1.0280000000000002e+00 6.8608200316979708e+02 1.0000000000000000e+00 3.0238163370129442e+01 3.7178826279363371e+01 1.0694837472028384e+01 
2524 2525 2 1.0279999998973079e+00 3.0219521037516988e+03 1.0000000000000000e+00 2.9876986870427221e+01 2.2171249394114184e+01 1.2558176896089932e+01 
2521 2522 2 1.0280000001342759e+00 -4.7701160762476107e+01 1.0000000000000000e+00 3.1077044852491419e+01 2.1772374691125769e+01 1.2839061412538868e+01 
3524 3525 2 1.0280000000000007e+00 3.2570222547109836e+02 1.0000000000000000e+00 2.4569394480336115e+01 3.4657124797323085e+01 1.2516276451231727e+01 
3367 3368 2 1.0279999999749201e+00 -1.2565897022855927e+02 1.0000000000000000e+00 3.3159097908550173e+01 2.0955140139657580e+01 1.3557255971753797e+01 
3911 3912 2 1.0279999999172009e+00 -1.2837228506331309e+02 1.0000000000000000e+00 3.1926384834676423e+01 2.2597823676602285e+01 1.4066765207701581e+01 
2987 2988 2 1.0280000001204901e+00 2.5585728454924720e+03 1.0000000000000000e+00 3.2732692429417547e+01 2.3033305555522240e+01 1.4945866241065701e+01 
3522 3523 2 1.0280000000000007e+00 2.2228156411094363e+02 1.0000000000000000e+00 2.4226505671836424e+01 3.4574551581759287e+01 1.3603926186457114e+01 
1555 1556 2 1.0280000000000002e+00 5.2365905161237765e+02 1.0000000000000000e+00 3.0285505412516546e+01 2.6316980040649078e+01 1.5729690515066089e+01 
87 88 2 1.0280000000000002e+00 -1.0185657905686620e+03 1.0000000000000000e+00 2.9950665434380603e+01 2.7397861680007797e+01 1.5893855335286105e+01 
295 296 2 1.0279999999999996e+00 -1.0776449393072630e+02 1.0000000000000000e+00 1.3569037152754852e+01 3.2589814553942240e+01 1.6430434676232263e+01 
2397 2398 2 1.0280000000000027e+00 6.1360213937955075e+02 1.0000000000000000e+00 2.7129182882908641e+01 3.2485898086646650e+01 1.5678516839949596e+01 
2440 2441 2 1.0280000000000027e+00 6.3044636758821832e+02 1.0000000000000000e+00 2.8266007036901843e+01 3.2431582959580851e+01 1.5788306308152114e+01 
2151 2152 2 1.0279999999999994e+00 2.8192685015559896e+03 1.0000000000000000e+00 3.2153474285043337e+01 3.2040046677145249e+01 1.5677673753739736e+01 
2193 2194 2 1.0279999999999994e+00 -4.1662337266298698e+02 1.0000000000000000e+00 3.2751710762612738e+01 3.2198223033697097e+01 1.6639165498161955e+01 
3588 3589 2 1.0279999999428109e+00 2.1016080880529833e+02 1.0000000000000000e+00 3.2882969871079496e+01 2.1553925335398890e+01 1.7552378175485710e+01 
4048 4049 2 1.0280000000439895e+00 3.9134529362331207e+01 1.0000000000000000e+00 3.2892104130274589e+01 2.2779794958701014e+01 1.7759536081818268e+01 
1179 1180 2 1.0279999999999996e+00 2.4992534632775715e+02 1.0000000000000000e+00 1.4480635544330239e+01 3.3159923468585397e+01 1.6819455518065077e+01 
3821 3822 2 1.0280000000000000e+00 -8.1205553312181763e+01 1.0000000000000000e+00 2.4251313393869587e+01 3.6614010564988440e+01 1.6982985107632533e+01 
2979 2980 2 1.0280000000000000e+00 -1.9668215884648072e+02 1.0000000000000000e+00 2.3336806931467947e+01 3.7286873973181194e+01 1.6847686247328355e+01 
3776 3777 2 1.0279999999999996e+00 7.9887435953626607e+02 1.0000000000000000e+00 1.9981608386764879e+01 3.0536578381552545e+01 1.8471413109539608e+01 
4320 4321 2 1.0279999999999996e+00 -3.8100311579172785e+02 1.0000000000000000e+00 2.0197922926929170e+01 3.1300285565302168e+01 1.9294415159756660e+01 
3108 3109 2 1.0279999999999994e+00 -4.9597425505892829e+02 1.0000000000000000e+00 2.8520139638955207e+01 3.6159762634265867e+01 1.8968160921916262e+01 
2603 2604 2 1.0279999999999994e+00 -2.7846875357066125e+02 1.0000000000000000e+00 2.9548668572272319e+01 3.5868559961193355e+01 1.8562325667183838e+01 
3086 3087 2 1.0280000000000007e+00 9.6686837431579931e+01 1.0000000000000000e+00 4.3874933397537930e-01 3.8467710138738781e+01 1.9736518866855636e+01 
3114 3115 2 1.0280000000000034e+00 -3.5261777740515129e+01 1.0000000000000000e+00 2.8148786272599075e+01 3.8019370207421375e+01 2.0974084066595974e+01 
2862 2863 2 1.0280000000000034e+00 -5.6043070021498096e+01 1.0000000000000000e+00 2.7907091430485124e+01 3.7386628408989175e+01 2.1895275923524281e+01 
2538 2539 2 1.0279999999999687e+00 -2.8001168128982636e+03 1.0000000000000000e+00 6.3388361381590194e-02 2.6309156763006122e+01 2.4393970541429169e+01 
3910 3911 2 1.0279999999999994e+00 -3.7931229297252298e+02 1.0000000000000000e+00 1.5565046651371439e+01 3.6283614668028846e+01 2.3894914212580627e+01 
4371 4372 2 1.0279999999999994e+00 -1.3375407044173739e+03 1.0000000000000000e+00 1.4819666960989927e+01 3.7118367855469458e+01 2.4129369433642655e+01 
967 968 2 1.0279999999999994e+00 -3.0516818644678119e+02 1.0000000000000000e+00 1.0908826538777321e+01 3.2399038783120709e+01 2.5178546154871196e+01 
1471 1472 2 1.0279999999999994e+00 -5.6341296056414171e+02 1.0000000000000000e+00 1.0196674759337270e+01 3.2840829920190963e+01 2.5956385117449752e+01 
1726 1727 2 1.0280000000000002e+00 -1.5621448257277880e+03 1.0000000000000000e+00 2.8787580327769025e+01 3.1846264508698511e+01 2.8197276704417703e+01 
1937 1938 2 1.0280000000000000e+00 -5.0035457908050995e+02 1.0000000000000000e+00 2.9019615463906757e+01 2.9437008205782266e+01 2.8849440347950473e+01 
1979 1980 2 1.0280000000000005e+00 6.3576991964024796e+02 1.0000000000000000e+00 2.9999914934110148e+01 2.9951060015154209e+01 2.8558349847805783e+01 
1307 1308 2 1.0279999999999998e+00 9.1587374877754564e+02 1.0000000000000000e+00 2.7803362714578711e+01 3.1323781340209848e+01 2.8458613693391928e+01 
3861 3862 2 1.0280000000000011e+00 -4.2645068183008834e+02 1.0000000000000000e+00 8.1863579264543276e+00 2.6846028508892768e+01 3.0391081259535682e+01 
3903 3904 2 1.0280000000000011e+00 -5.1084020385712631e+02 1.0000000000000000e+00 9.2082098582064837e+00 2.6775156043673412e+01 3.0899184340324268e+01 
2559 2560 2 1.0280000000000007e+00 3.0377204637857621e+03 1.0000000000000000e+00 2.5478406222177082e+01 2.8215542496554253e+01 3.1012983617443140e+01 
3023 3024 2 1.0280000000000007e+00 4.0260913217647510e+02 1.0000000000000000e+00 2.6196140254073445e+01 2.8419180364506790e+01 3.1879449136464107e+01 
4537 4538 2 1.0279999999999996e+00 2.9962668155004371e+02 1.0000000000000000e+00 3.2538654419390767e+01 3.3219910962021316e+01 3.4944676979137640e+01 
387 388 2 1.0279999999999994e+00 -1.1645973161134461e+02 1.0000000000000000e+00 1.4433760185719175e+01 2.1441041954959495e+01 3.5328591346001318e+01 
345 346 2 1.0279999999999994e+00 -1.2074673130566474e+02 1.0000000000000000e+00 1.3353530682779045e+01 2.1804736537005134e+01 3.5419164462471450e+01 
2184 2185 2 1.0279999999999982e+00 -7.8837291762902805e+02 1.0000000000000000e+00 1.5638500488004460e+01 3.6572424929470749e+01 3.6617857558611583e+01 
814 815 2 1.0280000000000005e+00 3.7864867652080946e+01 1.0000000000000000e+00 1.5008855145670276e+01 2.0634686699435001e+01 3.8197218054611824e+01 
2646 2647 2 1.0279999999999982e+00 -7.8325776603153190e+02 1.0000000000000000e+00 1.4838872485392915e+01 3.7367161304298953e+01 3.6808546230071492e+01 
1278 1279 2 1.0280000000000005e+00 2.0177652886810955e+02 1.0000000000000000e+00 1.5376742075439036e+01 2.1692445635300370e+01 3.8427822169841832e+01 
1 2 2 1.0279999999999996e+00 1.1391058127178762e+03 1.0000000000000000e+00 2.9632190293744962e+00 3.0500030045987689e+01 3.9047128943254492e+01 
4 5 2 1.0279999999999996e+00 -2.5845094710886137e+01 1.0000000000000000e+00 1.8903204811724035e+00 3.0758800274929222e+01 3.9345959482754942e+01 
2648 2649 2 1.0279999999414187e+00 9.6842714736021912e+02 1.0000000000000000e+00 4.3975570209380685e+01 1.4247143053593425e+00 1.1178049225311304e-01 
510 511 2 1.0279999999001497e+00 -6.6189665294226143e+02 1.0000000000000000e+00 4.5951978490665844e+01 2.9615351836906069e-03 3.9532916476365648e-01 
31 32 2 1.0280000002934355e+00 -3.6137087072327245e+02 1.0000000000000000e+00 4.8987828130366076e+01 8.3353474262789840e-01 1.0572178130320955e+00 
621 622 2 1.0279999997450651e+00 -8.0315785786108762e+01 1.0000000000000000e+00 5.0071385927069279e+01 1.3500101899322985e+00 9.9047076275188695e-01 
4236 4237 2 1.0280000000017004e+00 -8.0522173058945737e+02 1.0000000000000000e+00 5.3893344126987500e+01 1.8707024057211771e-01 5.3334170091198096e-01 
3611 3612 2 1.0280000000175933e+00 9.7019771267268152e+02 1.0000000000000000e+00 5.3563701549533413e+01 2.4106450680299503e+00 1.7832789858083770e-01 
1934 1935 2 1.0279999999999994e+00 9.6133435022289177e+02 1.0000000000000000e+00 6.3697514741874429e+01 2.3291109443180158e+00 9.9414005170376996e-01 
1891 1892 2 1.0279999999999994e+00 -6.0281595142854280e+02 1.0000000000000000e+00 6.4694849338258436e+01 2.8874364274924220e+00 1.0252748417682256e+00 
1684 1685 2 1.0280000000000000e+00 -8.8276904570552222e+02 1.0000000000000000e+00 3.7024999228651232e+01 4.5625475221650325e+00 8.1489663961235992e-01 
179 180 2 1.0280000000113758e+00 1.5897697338489183e+02 1.0000000000000000e+00 4.4712006990390712e+01 4.1630391416810584e+00 1.5985715504630440e+00 
1502 1503 2 1.0279999995034879e+00 8.2843972175842418e+02 1.0000000000000000e+00 4.7540772778435617e+01 3.5124509787221423e+00 9.7246419306695053e-01 
943 944 2 1.0279999996656668e+00 -6.7347253864154504e+02 1.0000000000000000e+00 4.7377743508761192e+01 4.9736395706661041e+00 2.2339114589858636e-01 
1712 1713 2 1.0279999998591549e+00 1.6581687432735782e+02 1.0000000000000000e+00 5.2111442162250107e+01 3.4266878398573968e+00 8.6048755437273861e-01 
456 457 2 1.0279999999902816e+00 1.0486532797522518e+02 1.0000000000000000e+00 5.4352785727275361e+01 3.4197128844566715e+00 7.5271527602832256e-01 
98 99 2 1.0279999995370728e+00 -3.7735271939302680e+02 1.0000000000000000e+00 4.6271835447662390e+01 6.0355377659399085e+00 7.4806715685891131e-02 
1878 1879 2 1.0280000002675471e+00 -3.2788274232898618e+02 1.0000000000000000e+00 4.8110538777300633e+01 6.1207556901811735e+00 9.9986840113876940e-01 
1084 1085 2 1.0279999998546565e+00 -1.3001697139663548e+02 1.0000000000000000e+00 5.1800876903017148e+01 5.8210055527017657e+00 1.0119913441921475e+00 