LAMMPS data file via write_data, version 30 Jul 2016, timestep = 50400000

180 atoms
2 atom types

0.0000000000000000e+00 2.0000000000000000e+01 xlo xhi
0.0000000000000000e+00 2.0000000000000000e+01 ylo yhi
0.0000000000000000e+00 2.0000000000000000e+01 zlo zhi

Masses

1 3.896
2 5

Atoms # meso-molecular

157 1 2 1.0280040219298467e+00 -1.3977990365708135e+02 1.0000000000000000e+00 2.3775577487488336e-01 2.5835844189842398e+00 2.6026841351548295e+00 
47 1 2 1.0280040219298299e+00 -1.1917299868624158e+02 1.0000000000000000e+00 2.3775577466291417e-01 2.5835844176286775e+00 2.6026841347524470e+00 
16 1 2 1.0280040219298299e+00 -2.3028191127570329e+02 1.0000000000000000e+00 2.3775577466297376e-01 2.5835844176289382e+00 2.6026841347526108e+00 
68 1 2 1.0280040219298294e+00 -2.0751656454374938e+02 1.0000000000000000e+00 2.3775577478231172e-01 2.5835844186158652e+00 2.6026841348913896e+00 
10 1 2 1.0280040219298303e+00 -2.5627159771375892e+02 1.0000000000000000e+00 2.3775577466295938e-01 2.5835844176295741e+00 2.6026841347523053e+00 
149 1 2 1.0280000000000045e+00 -2.2496633062572937e+02 1.0000000000000000e+00 4.1335661553292944e+00 6.6759328168919019e-01 1.5162103765128387e+00 
13 1 2 1.0280000000000038e+00 -2.1834634484780275e+02 1.0000000000000000e+00 4.1335661600590390e+00 6.6759329839344594e-01 1.5162103723564744e+00 
120 1 2 1.0280000000000040e+00 -6.0751394802008825e+01 1.0000000000000000e+00 4.1335662628286984e+00 6.6759331944184774e-01 1.5162103509103735e+00 
114 1 2 1.0280000000000040e+00 -6.6585359210087574e+01 1.0000000000000000e+00 4.1335662628388734e+00 6.6759331941806233e-01 1.5162103509134608e+00 
156 1 2 1.0280000000000040e+00 -2.0207917688419354e+02 1.0000000000000000e+00 4.1335662709758152e+00 6.6759327004808022e-01 1.5162103594948797e+00 
163 1 2 1.0280000000000038e+00 -1.5891223444159692e+02 1.0000000000000000e+00 4.1335661537541721e+00 6.6759327501939458e-01 1.5162103781199445e+00 
43 1 2 1.0280000000000060e+00 -1.8837039768751711e+02 1.0000000000000000e+00 4.6492070015628091e+00 1.2878964980234482e+00 4.5959596926149864e+00 
8 1 2 1.0280000000000065e+00 -1.3778042707777411e+02 1.0000000000000000e+00 4.6492070015557978e+00 1.2878964980283654e+00 4.5959596926151614e+00 
85 1 2 1.0280000000000051e+00 -1.3233959253565871e+02 1.0000000000000000e+00 4.6492070015297751e+00 1.2878964980315126e+00 4.5959596926189032e+00 
7 1 2 1.0280000000000065e+00 -1.5917123984363633e+02 1.0000000000000000e+00 4.6492070015557978e+00 1.2878964980283654e+00 4.5959596926151614e+00 
79 1 2 1.0280000000000060e+00 -1.2594019878712568e+02 1.0000000000000000e+00 4.6492070015628091e+00 1.2878964980234482e+00 4.5959596926149864e+00 
83 1 2 1.0280000000000051e+00 -1.8515193922910424e+02 1.0000000000000000e+00 4.6492070015297751e+00 1.2878964980315126e+00 4.5959596926189032e+00 
2 1 2 1.0280000000000700e+00 -2.4866513798601841e+02 1.0000000000000000e+00 6.3175182782596204e+00 6.9441431222764791e+00 1.7058070482966173e+01 
9 1 2 1.0280000000000706e+00 -2.4227562229650599e+02 1.0000000000000000e+00 6.3175182782594828e+00 6.9441431222766523e+00 1.7058070482966670e+01 
142 1 2 1.0280000000000691e+00 -2.1624749886434756e+02 1.0000000000000000e+00 6.3175182782594659e+00 6.9441431222766141e+00 1.7058070482966677e+01 
177 1 2 1.0280000000000660e+00 -2.3795785866686424e+02 1.0000000000000000e+00 6.3175182782594508e+00 6.9441431222765182e+00 1.7058070482966663e+01 
51 1 2 1.0280000000000691e+00 -1.9825515645500661e+02 1.0000000000000000e+00 6.3175182782594659e+00 6.9441431222766141e+00 1.7058070482966677e+01 
141 1 2 1.0280000000000731e+00 -2.3878907730301458e+02 1.0000000000000000e+00 6.3175182782596346e+00 6.9441431222765209e+00 1.7058070482966251e+01 
135 1 2 1.0280003451918776e+00 -1.7321204727553373e+02 1.0000000000000000e+00 4.9411491851781797e+00 1.2764565512552426e+01 6.3232031979100354e+00 
134 1 2 1.0280003451918773e+00 -1.5618423862841061e+02 1.0000000000000000e+00 4.9411491851775953e+00 1.2764565512553339e+01 6.3232031979099226e+00 
170 1 2 1.0280003451918778e+00 -1.7086806994060595e+02 1.0000000000000000e+00 4.9411491851779754e+00 1.2764565512552739e+01 6.3232031979100389e+00 
171 1 2 1.0280003451918773e+00 -1.7726817320216270e+02 1.0000000000000000e+00 4.9411491851769025e+00 1.2764565512554325e+01 6.3232031979105914e+00 
136 1 2 1.0280003451918771e+00 -1.5090633666741570e+02 1.0000000000000000e+00 4.9411491851779390e+00 1.2764565512552863e+01 6.3232031979094963e+00 
129 1 2 1.0280003451918773e+00 -1.3295875311045569e+02 1.0000000000000000e+00 4.9411491851775953e+00 1.2764565512553339e+01 6.3232031979099226e+00 
60 1 2 1.0279963178277500e+00 -2.6331251423560929e+02 1.0000000000000000e+00 9.6237990819728103e-01 1.6456871850596450e+01 5.5244046824957618e+00 
44 1 2 1.0279963178277503e+00 -1.7002850690796870e+02 1.0000000000000000e+00 9.6237990819730068e-01 1.6456871850596944e+01 5.5244046824953630e+00 
45 1 2 1.0279963178277500e+00 -1.9214026364946275e+02 1.0000000000000000e+00 9.6237990819723362e-01 1.6456871850595796e+01 5.5244046824947288e+00 
3 1 2 1.0279963178277496e+00 -2.4013142819994698e+02 1.0000000000000000e+00 9.6237990819728592e-01 1.6456871850596606e+01 5.5244046824955282e+00 
38 1 2 1.0279963178277496e+00 -2.2662952473024140e+02 1.0000000000000000e+00 9.6237990819728558e-01 1.6456871850596588e+01 5.5244046824955868e+00 
61 1 2 1.0279963178277500e+00 -1.8937889518022072e+02 1.0000000000000000e+00 9.6237990819729669e-01 1.6456871850596844e+01 5.5244046824954349e+00 
155 1 2 1.0280040537377999e+00 -1.9359897196354606e+02 1.0000000000000000e+00 4.0889305302185655e+00 1.5988714033840326e+01 5.0080990316856493e+00 
167 1 2 1.0280040537377999e+00 -2.1421791745002494e+02 1.0000000000000000e+00 4.0889305302185717e+00 1.5988714033840337e+01 5.0080990316856768e+00 
168 1 2 1.0280040537377999e+00 -2.2922217278551099e+02 1.0000000000000000e+00 4.0889305302185539e+00 1.5988714033840303e+01 5.0080990316855996e+00 
161 1 2 1.0280040537377999e+00 -1.7227967301180442e+02 1.0000000000000000e+00 4.0889305302185655e+00 1.5988714033840326e+01 5.0080990316856493e+00 
105 1 2 1.0280040537377999e+00 -1.0041441002912390e+02 1.0000000000000000e+00 4.0889305302185655e+00 1.5988714033840326e+01 5.0080990316856493e+00 
162 1 2 1.0280040537377999e+00 -1.8298323956717266e+02 1.0000000000000000e+00 4.0889305302185717e+00 1.5988714033840337e+01 5.0080990316856768e+00 
92 1 2 1.0279995290036046e+00 -2.2774581813924740e+02 1.0000000000000000e+00 2.3264910556739018e+00 1.4289953885511098e+01 8.7524200838281168e+00 
91 1 2 1.0279995129962092e+00 -2.4837812277166992e+02 1.0000000000000000e+00 2.3229624737565238e+00 1.4403462418019586e+01 8.6785587616186834e+00 
127 1 2 1.0279995040214682e+00 -2.0749891625071905e+02 1.0000000000000000e+00 2.3035441900723255e+00 1.4559774937066111e+01 8.5994518910954270e+00 
148 1 2 1.0280021637493737e+00 -1.4155119643062068e+02 1.0000000000000000e+00 1.7971523210595750e+00 1.5746062664578108e+01 9.0556609545920637e+00 
4 1 2 1.0280021576078786e+00 -2.0355751344847832e+02 1.0000000000000000e+00 1.7965042106858660e+00 1.5745425730567765e+01 9.0554442793160881e+00 
40 1 2 1.0280021576078671e+00 -1.9666327113039060e+02 1.0000000000000000e+00 1.7965042095335100e+00 1.5745425729253432e+01 9.0554442786080322e+00 
154 1 2 1.0280023006053458e+00 -2.3328142655274758e+02 1.0000000000000000e+00 2.5653203603428616e+00 1.8633781551856082e+01 7.9068100273936128e+00 
166 1 2 1.0280023006053460e+00 -2.5619700028796422e+02 1.0000000000000000e+00 2.5653203603429553e+00 1.8633781551855844e+01 7.9068100273938384e+00 
165 1 2 1.0280023006053460e+00 -2.0084287810759511e+02 1.0000000000000000e+00 2.5653203603430321e+00 1.8633781551855630e+01 7.9068100273941475e+00 
146 1 2 1.0280023006053458e+00 -2.0443332590272726e+02 1.0000000000000000e+00 2.5653203603434362e+00 1.8633781551854970e+01 7.9068100273926811e+00 
160 1 2 1.0280023006053456e+00 -2.4831343621981253e+02 1.0000000000000000e+00 2.5653203603429233e+00 1.8633781551856007e+01 7.9068100273932211e+00 
130 1 2 1.0280023006053460e+00 -2.6797542265386346e+02 1.0000000000000000e+00 2.5653203603430321e+00 1.8633781551855630e+01 7.9068100273941475e+00 
21 1 2 1.0280001399743346e+00 -2.4889176284796582e+02 1.0000000000000000e+00 1.5623854183291257e+00 1.3664167926225366e+01 1.1134356437101360e+01 
118 1 2 1.0280001399743344e+00 -1.6756567022860202e+02 1.0000000000000000e+00 1.5623854183292134e+00 1.3664167926225273e+01 1.1134356437101328e+01 
39 1 2 1.0280001399743355e+00 -2.0845779603245484e+02 1.0000000000000000e+00 1.5623854183290720e+00 1.3664167926225439e+01 1.1134356437101395e+01 
31 1 2 1.0280001399743366e+00 -1.7869860936900221e+02 1.0000000000000000e+00 1.5623854183292394e+00 1.3664167926225332e+01 1.1134356437101413e+01 
67 1 2 1.0280002248760178e+00 -1.8419448061645707e+02 1.0000000000000000e+00 2.5265261501433960e+00 1.4010216740725539e+01 1.1401286817214025e+01 
77 1 2 1.0280001555649132e+00 -2.0892068560357964e+02 1.0000000000000000e+00 1.1360179221021574e+00 1.4832994048781245e+01 1.0522888455676883e+01 
113 1 2 1.0279987453546271e+00 -1.8012026031902462e+02 1.0000000000000000e+00 3.6454925148855430e+00 1.5208765531400550e+01 1.0384819038608834e+01 
112 1 2 1.0279987453546293e+00 -2.0119968819061268e+02 1.0000000000000000e+00 3.6454925148839212e+00 1.5208765531349338e+01 1.0384819038666636e+01 
42 1 2 1.0279987458114308e+00 -1.7309965831231005e+02 1.0000000000000000e+00 3.6454865130126088e+00 1.5208607209397098e+01 1.0385001037907623e+01 
41 1 2 1.0279987458157063e+00 -2.0744412854460896e+02 1.0000000000000000e+00 3.6454864714196482e+00 1.5208605726020863e+01 1.0385002692971240e+01 
52 1 2 1.0279978497767142e+00 -1.9481548828618003e+02 1.0000000000000000e+00 6.0378614655390450e+00 1.7039736391933314e+01 1.1335945587710247e+01 
55 1 2 1.0279978497767144e+00 -2.6856048366385863e+02 1.0000000000000000e+00 6.0378614655390290e+00 1.7039736391933324e+01 1.1335945587710246e+01 
12 1 2 1.0279978497767144e+00 -1.8822914355733002e+02 1.0000000000000000e+00 6.0378614655390290e+00 1.7039736391933321e+01 1.1335945587710246e+01 
48 1 2 1.0279978497767139e+00 -1.1652315718304359e+02 1.0000000000000000e+00 6.0378614655390415e+00 1.7039736391933317e+01 1.1335945587710256e+01 
11 1 2 1.0279978497767142e+00 -1.8529008631734274e+02 1.0000000000000000e+00 6.0378614655390459e+00 1.7039736391933314e+01 1.1335945587710246e+01 
66 1 2 1.0279978497767144e+00 -2.8939778982186237e+02 1.0000000000000000e+00 6.0378614655390290e+00 1.7039736391933321e+01 1.1335945587710246e+01 
33 1 2 1.0279944494202549e+00 -1.9637898084562948e+02 1.0000000000000000e+00 4.5288441373191342e+00 1.4160507423053527e+01 1.6505911105257958e+01 
19 1 2 1.0279944494202549e+00 -1.3830501723386405e+02 1.0000000000000000e+00 4.5288441373190986e+00 1.4160507423052874e+01 1.6505911105257525e+01 
20 1 2 1.0279944494202549e+00 -1.9508578057828481e+02 1.0000000000000000e+00 4.5288441373186705e+00 1.4160507423051731e+01 1.6505911105256590e+01 
34 1 2 1.0279944494202549e+00 -1.9279265647026418e+02 1.0000000000000000e+00 4.5288441373194379e+00 1.4160507423055243e+01 1.6505911105259191e+01 
27 1 2 1.0279944494202553e+00 -1.8146644844051048e+02 1.0000000000000000e+00 4.5288441373191191e+00 1.4160507423053117e+01 1.6505911105257688e+01 
25 1 2 1.0279944494202544e+00 -1.8631275163748563e+02 1.0000000000000000e+00 4.5288441373190818e+00 1.4160507423053486e+01 1.6505911105257905e+01 
104 1 2 1.0280073549652271e+00 -2.3084910583810446e+02 1.0000000000000000e+00 5.4877472987598797e+00 1.4340537621013747e+01 1.3391228605566283e+01 
1 1 2 1.0280073549652271e+00 -2.7037738750814793e+02 1.0000000000000000e+00 5.4877472987598797e+00 1.4340537621013747e+01 1.3391228605566283e+01 
54 1 2 1.0280073549652271e+00 -2.7097186140026554e+02 1.0000000000000000e+00 5.4877472987598797e+00 1.4340537621013747e+01 1.3391228605566283e+01 
37 1 2 1.0280073549652271e+00 -2.3727674151171243e+02 1.0000000000000000e+00 5.4877472987598797e+00 1.4340537621013747e+01 1.3391228605566283e+01 
6 1 2 1.0280073549652271e+00 -2.1306851717271957e+02 1.0000000000000000e+00 5.4877472987596541e+00 1.4340537621013713e+01 1.3391228605566184e+01 
69 1 2 1.0280073549652271e+00 -2.3542501707096329e+02 1.0000000000000000e+00 5.4877472987601319e+00 1.4340537621014080e+01 1.3391228605566202e+01 
26 1 2 1.0279997184043628e+00 -2.5899038375760659e+02 1.0000000000000000e+00 5.2681587171974957e+00 1.7760743821377883e+01 1.6412102716784091e+01 
63 1 2 1.0280001472706717e+00 -2.0295345365819193e+02 1.0000000000000000e+00 5.7110777827513273e+00 1.7187077442461909e+01 1.7112806766034012e+01 
99 1 2 1.0280001472183706e+00 -2.5575777569134812e+02 1.0000000000000000e+00 5.7110538344282702e+00 1.7187029216406785e+01 1.7112822972413241e+01 
100 1 2 1.0280001464662398e+00 -2.0792204963864253e+02 1.0000000000000000e+00 5.7107083261970395e+00 1.7186335552352748e+01 1.7113060791659933e+01 
18 1 2 1.0279998265705865e+00 -2.9465552938966977e+02 1.0000000000000000e+00 4.3023948694487295e+00 1.7753239608640801e+01 1.7087012938884723e+01 
17 1 2 1.0279998270939141e+00 -2.0321118907775383e+02 1.0000000000000000e+00 4.3021536966789835e+00 1.7752208446486446e+01 1.7086187349893208e+01 
46 1 2 1.0279998272516577e+00 -2.1424801621072052e+02 1.0000000000000000e+00 4.3020771645440643e+00 1.7751880972410312e+01 1.7085913637810453e+01 
64 1 2 1.0279996333748032e+00 -2.6544015005127778e+02 1.0000000000000000e+00 5.0521615355671532e+00 1.8177786724586785e+01 1.7455599261277669e+01 
87 1 2 1.0280000000010505e+00 -1.4772956823217615e+02 1.0000000000000000e+00 8.6681895539478617e+00 1.2151565812609613e+00 1.8612830947134050e+01 
93 1 2 1.0280000000010505e+00 -1.3432538467026836e+02 1.0000000000000000e+00 8.6681895539478617e+00 1.2151565812609613e+00 1.8612830947134050e+01 
95 1 2 1.0280000000010505e+00 -1.1570774405642095e+02 1.0000000000000000e+00 8.6681895539478617e+00 1.2151565812609613e+00 1.8612830947134050e+01 
159 1 2 1.0280000000010505e+00 -1.6991351486276051e+02 1.0000000000000000e+00 8.6681895539478617e+00 1.2151565812609613e+00 1.8612830947134050e+01 
94 1 2 1.0280000000010505e+00 -1.7717976536095409e+02 1.0000000000000000e+00 8.6681895539478617e+00 1.2151565812609613e+00 1.8612830947134050e+01 
101 1 2 1.0280000000010505e+00 -1.7390419306462167e+02 1.0000000000000000e+00 8.6681895539478617e+00 1.2151565812609613e+00 1.8612830947134050e+01 
138 1 2 1.0280000000000762e+00 -2.4340198913176567e+02 1.0000000000000000e+00 9.3678533441183749e+00 7.5368095440077170e+00 1.7750688639723400e+01 
144 1 2 1.0280000000000640e+00 -2.4233164374872661e+02 1.0000000000000000e+00 9.3678533441178740e+00 7.5368095440072409e+00 1.7750688639726722e+01 
174 1 2 1.0280000000000753e+00 -1.8424908266063113e+02 1.0000000000000000e+00 9.3678533441175489e+00 7.5368095440096106e+00 1.7750688639725468e+01 
180 1 2 1.0280000000000640e+00 -2.2292343777431893e+02 1.0000000000000000e+00 9.3678533441178740e+00 7.5368095440072409e+00 1.7750688639726722e+01 
108 1 2 1.0280000000000753e+00 -2.1892790404067648e+02 1.0000000000000000e+00 9.3678533441175489e+00 7.5368095440096106e+00 1.7750688639725468e+01 
143 1 2 1.0280000000000644e+00 -2.2665781755835019e+02 1.0000000000000000e+00 9.3678533441194798e+00 7.5368095440008709e+00 1.7750688639725073e+01 
164 1 2 1.0280001708288300e+00 -1.8535787279404997e+02 1.0000000000000000e+00 8.3221544792737951e+00 1.3444765537030724e+01 6.6588031422229932e+00 
158 1 2 1.0280001708289248e+00 -1.8782356824526840e+02 1.0000000000000000e+00 8.3221544090718229e+00 1.3444765495924726e+01 6.6588032045394048e+00 
29 1 2 1.0279999395051618e+00 -1.5040935233267621e+02 1.0000000000000000e+00 1.0245353237513726e+01 1.5290997900703758e+01 5.0995831648148533e+00 
65 1 2 1.0279999395051618e+00 -1.8875992685735048e+02 1.0000000000000000e+00 1.0245353237513619e+01 1.5290997900704166e+01 5.0995831648150673e+00 
107 1 2 1.0279999395051620e+00 -1.9790984547565697e+02 1.0000000000000000e+00 1.0245353237513726e+01 1.5290997900703765e+01 5.0995831648148595e+00 
58 1 2 1.0279999395051618e+00 -1.9037081774442456e+02 1.0000000000000000e+00 1.0245353237513804e+01 1.5290997900703569e+01 5.0995831648147956e+00 
30 1 2 1.0279999395051618e+00 -2.6228211143017825e+02 1.0000000000000000e+00 1.0245353237513545e+01 1.5290997900704415e+01 5.0995831648151819e+00 
22 1 2 1.0279999395051616e+00 -1.5941130931491475e+02 1.0000000000000000e+00 1.0245353237513669e+01 1.5290997900704031e+01 5.0995831648150167e+00 
15 1 2 1.0280006387375618e+00 -1.3437092637741191e+02 1.0000000000000000e+00 8.0665588509222417e+00 1.3352862246015526e+01 6.8590238824719583e+00 
14 1 2 1.0280006387375615e+00 -1.1455957158676982e+02 1.0000000000000000e+00 8.0665588509223820e+00 1.3352862246015539e+01 6.8590238824718464e+00 
97 1 2 1.0279996452198705e+00 -1.1168311160758233e+02 1.0000000000000000e+00 7.5759120859139752e+00 1.4452383288989362e+01 6.7163865222872206e+00 
96 1 2 1.0279996452198712e+00 -2.7935215687781221e+02 1.0000000000000000e+00 7.5759120859137639e+00 1.4452383288989198e+01 6.7163865222872587e+00 
102 1 2 1.0279996452198705e+00 -2.8664549239929846e+02 1.0000000000000000e+00 7.5759120859138802e+00 1.4452383288989289e+01 6.7163865222872516e+00 
169 1 2 1.0280001293920542e+00 -1.9678730806766831e+02 1.0000000000000000e+00 7.2892585423658058e+00 1.7418219295112500e+01 7.1005085515302708e+00 
133 1 2 1.0280001293920542e+00 -2.1280908672877629e+02 1.0000000000000000e+00 7.2892585423658094e+00 1.7418219295112497e+01 7.1005085515303010e+00 
176 1 2 1.0280001293920542e+00 -1.9995048590543615e+02 1.0000000000000000e+00 7.2892585423658058e+00 1.7418219295112500e+01 7.1005085515302708e+00 
49 1 2 1.0280001293920540e+00 -2.2064995696249667e+02 1.0000000000000000e+00 7.2892585423658183e+00 1.7418219295112500e+01 7.1005085515302824e+00 
175 1 2 1.0280001293920542e+00 -2.2487456482020966e+02 1.0000000000000000e+00 7.2892585423658058e+00 1.7418219295112500e+01 7.1005085515302708e+00 
50 1 2 1.0280001293920542e+00 -2.1940011250546732e+02 1.0000000000000000e+00 7.2892585423658058e+00 1.7418219295112500e+01 7.1005085515302708e+00 
76 1 2 1.0280168352897199e+00 -1.8590481800137175e+02 1.0000000000000000e+00 1.0623628947387953e+01 1.6787829466569008e+01 9.5243241897927096e+00 
119 1 2 1.0280168355251491e+00 -1.7937003300003315e+02 1.0000000000000000e+00 1.0623643170963183e+01 1.6787833309838600e+01 9.5243378330610398e+00 
117 1 2 1.0280168347131560e+00 -2.4858876782780663e+02 1.0000000000000000e+00 1.0623593642734150e+01 1.6787819557111561e+01 9.5242881132388106e+00 
84 1 2 1.0280168352916517e+00 -1.8373073836388099e+02 1.0000000000000000e+00 1.0623629059371186e+01 1.6787829494228525e+01 9.5243242810630324e+00 
128 1 2 1.0280168345762981e+00 -1.5129486329620678e+02 1.0000000000000000e+00 1.0623585422761556e+01 1.6787817314408983e+01 9.5242801278191092e+00 
24 1 2 1.0280168345872149e+00 -2.2915744586829729e+02 1.0000000000000000e+00 1.0623586213009448e+01 1.6787817606058070e+01 9.5242813648065230e+00 
35 1 2 1.0279833360443416e+00 -2.5563561369177631e+02 1.0000000000000000e+00 1.0964481027577841e+01 1.3663677309155480e+01 1.0034571295092379e+01 
71 1 2 1.0279833360443431e+00 -1.9699914114518057e+02 1.0000000000000000e+00 1.0964481027429898e+01 1.3663677309219747e+01 1.0034571295584511e+01 
23 1 2 1.0279833360443404e+00 -1.2956796692875707e+02 1.0000000000000000e+00 1.0964481027630443e+01 1.3663677309160201e+01 1.0034571295086186e+01 
5 1 2 1.0279833360443404e+00 -2.4846477163102577e+02 1.0000000000000000e+00 1.0964481027606173e+01 1.3663677309158608e+01 1.0034571295092642e+01 
36 1 2 1.0279833360443407e+00 -2.6339852896505829e+02 1.0000000000000000e+00 1.0964481027753379e+01 1.3663677309158714e+01 1.0034571294994945e+01 
72 1 2 1.0279833360443404e+00 -2.5806150982289404e+02 1.0000000000000000e+00 1.0964481027606402e+01 1.3663677309158587e+01 1.0034571295092357e+01 
73 1 2 1.0279999999996356e+00 -2.8902084701701358e+02 1.0000000000000000e+00 1.1306128334352939e+01 1.1794051521793369e+01 1.9420818688777363e+01 
139 1 2 1.0279999999996356e+00 -3.3920141538314715e+02 1.0000000000000000e+00 1.1306128342584532e+01 1.1794051507233076e+01 1.9420818692794374e+01 
109 1 2 1.0279999999996356e+00 -2.0948188485730597e+02 1.0000000000000000e+00 1.1306128338690952e+01 1.1794051514109631e+01 1.9420818690511460e+01 
140 1 2 1.0279999999996356e+00 -2.1345801031615974e+02 1.0000000000000000e+00 1.1306128343520854e+01 1.1794051505547777e+01 1.9420818692193070e+01 
103 1 2 1.0279999999996356e+00 -3.0243208672347714e+02 1.0000000000000000e+00 1.1306128338872934e+01 1.1794051513786810e+01 1.9420818690566737e+01 
78 1 2 1.0279999999996356e+00 -2.3071111122135790e+02 1.0000000000000000e+00 1.1306128345076919e+01 1.1794051502846886e+01 1.9420818694825854e+01 
173 1 2 1.0280000000010516e+00 -1.7821443037631448e+02 1.0000000000000000e+00 1.0468809833521879e+01 1.8593752656560923e+01 1.8466115287436143e+01 
172 1 2 1.0280000000010490e+00 -1.7801774527403160e+02 1.0000000000000000e+00 1.0468809833107107e+01 1.8593752656100310e+01 1.8466115290574802e+01 
178 1 2 1.0280000000010503e+00 -1.5830244227687115e+02 1.0000000000000000e+00 1.0468809832178964e+01 1.8593752655129002e+01 1.8466115296538678e+01 
179 1 2 1.0280000000010516e+00 -2.0260646565278995e+02 1.0000000000000000e+00 1.0468809832783753e+01 1.8593752655734349e+01 1.8466115293145720e+01 
152 1 2 1.0280000000010516e+00 -2.0001324112631272e+02 1.0000000000000000e+00 1.0468809832980336e+01 1.8593752655953473e+01 1.8466115291643174e+01 
137 1 2 1.0280000000010503e+00 -2.1070237394388414e+02 1.0000000000000000e+00 1.0468809833206713e+01 1.8593752656231352e+01 1.8466115289456134e+01 
110 1 2 1.0279959790171131e+00 -2.2703027512446877e+02 1.0000000000000000e+00 1.8059153326118469e+01 2.7791896285608355e+00 3.0892673197903702e+00 
115 1 2 1.0279959778380536e+00 -1.4941033909023841e+02 1.0000000000000000e+00 1.8060950904486287e+01 2.7770478247438590e+00 3.0983080061104116e+00 
151 1 2 1.0279959778457399e+00 -1.8999628940721087e+02 1.0000000000000000e+00 1.8060991579951491e+01 2.7770011066975027e+00 3.0985034085825944e+00 
121 1 2 1.0279959778845149e+00 -1.9323300743471765e+02 1.0000000000000000e+00 1.8061134070383268e+01 2.7768230188497047e+00 3.0991907345313292e+00 
147 1 2 1.0279959781232952e+00 -2.1394109326642803e+02 1.0000000000000000e+00 1.8061590621471606e+01 2.7762588003775917e+00 3.1013623171791176e+00 
82 1 2 1.0279967919720361e+00 -1.4869543653345690e+02 1.0000000000000000e+00 1.3400623694122057e+01 1.9647004887280971e+01 5.8885626982656154e+00 
88 1 2 1.0279968126735359e+00 -2.1713771301829996e+02 1.0000000000000000e+00 1.3399874894988670e+01 1.9644674146959431e+01 5.8864241084369331e+00 
124 1 2 1.0279968150235888e+00 -2.4755664356686327e+02 1.0000000000000000e+00 1.3399865468594170e+01 1.9644745154541987e+01 5.8865718786752383e+00 
125 1 2 1.0279968216135189e+00 -2.1813241884543197e+02 1.0000000000000000e+00 1.3399789245669215e+01 1.9644706405070259e+01 5.8867093387318423e+00 
89 1 2 1.0279968213157333e+00 -2.6358682620964487e+02 1.0000000000000000e+00 1.3399587455469176e+01 1.9643687826761340e+01 5.8855152748579282e+00 
131 1 2 1.0279968391824452e+00 -1.8462355332198524e+02 1.0000000000000000e+00 1.3398937601667251e+01 1.9640904113627016e+01 5.8827695824384332e+00 
86 1 2 1.0280016115664166e+00 -2.2978067397818927e+02 1.0000000000000000e+00 1.6695424436683574e+01 1.9205935598785743e+01 5.4595961351956319e+00 
123 1 2 1.0280016115664166e+00 -2.7012002820322596e+02 1.0000000000000000e+00 1.6695424436683574e+01 1.9205935598785754e+01 5.4595961351956284e+00 
56 1 2 1.0280016115664161e+00 -2.5222469035162999e+02 1.0000000000000000e+00 1.6695424436683563e+01 1.9205935598785736e+01 5.4595961351956310e+00 
116 1 2 1.0280016115664161e+00 -1.7217896605350026e+02 1.0000000000000000e+00 1.6695424436683563e+01 1.9205935598785736e+01 5.4595961351956310e+00 
111 1 2 1.0280016115664161e+00 -1.8685880331936215e+02 1.0000000000000000e+00 1.6695424436683588e+01 1.9205935598785764e+01 5.4595961351956266e+00 
28 1 2 1.0280016115664161e+00 -1.4085331257331163e+02 1.0000000000000000e+00 1.6695424436683563e+01 1.9205935598785736e+01 5.4595961351956310e+00 
80 1 2 1.0280027807525953e+00 -1.6711486698686409e+02 1.0000000000000000e+00 1.4602406411225580e+01 1.7331654865308433e+01 7.7221612845576049e+00 
81 1 2 1.0280027905989593e+00 -1.3030329632197220e+02 1.0000000000000000e+00 1.4600829929814543e+01 1.7331207503377286e+01 7.7219330016488472e+00 
75 1 2 1.0280027935716818e+00 -2.0103864442961628e+02 1.0000000000000000e+00 1.4599954319669736e+01 1.7329414650383907e+01 7.7224613577910981e+00 
122 1 2 1.0279968954904706e+00 -2.3138733672321402e+02 1.0000000000000000e+00 1.4593887234323493e+01 1.7360594245846276e+01 8.8076910338271475e+00 
153 1 2 1.0279968946218188e+00 -2.1176016772590086e+02 1.0000000000000000e+00 1.4593295729658802e+01 1.7360288558225122e+01 8.8077537318789556e+00 
98 1 2 1.0279968944971161e+00 -1.4408918382936508e+02 1.0000000000000000e+00 1.4593122350680030e+01 1.7359953868935925e+01 8.8077533344698935e+00 
59 1 2 1.0280008488897550e+00 -1.5291660499879825e+02 1.0000000000000000e+00 1.4123827589074471e+01 1.7669909162237477e+01 8.4899240234148987e+00 
90 1 2 1.0279971965577346e+00 -1.3860677075818964e+02 1.0000000000000000e+00 1.9450606340874995e+01 1.9642414513144086e+01 7.2518149232796754e+00 
126 1 2 1.0279971965577339e+00 -1.4206749587642159e+02 1.0000000000000000e+00 1.9450606340875009e+01 1.9642414513144086e+01 7.2518149232796789e+00 
70 1 2 1.0279971965577346e+00 -1.7926481173782574e+02 1.0000000000000000e+00 1.9450606340874995e+01 1.9642414513144086e+01 7.2518149232796754e+00 
106 1 2 1.0279971965577346e+00 -1.2035627845545548e+02 1.0000000000000000e+00 1.9450606340874959e+01 1.9642414513144072e+01 7.2518149232796869e+00 
132 1 2 1.0279971965577346e+00 -1.7890113125528487e+02 1.0000000000000000e+00 1.9450606340874959e+01 1.9642414513144072e+01 7.2518149232796869e+00 
74 1 2 1.0279971965577344e+00 -2.2149184982794318e+02 1.0000000000000000e+00 1.9450606340874987e+01 1.9642414513144082e+01 7.2518149232796816e+00 
32 1 2 1.0279999999996363e+00 -2.5844723780022321e+02 1.0000000000000000e+00 1.4082327068410867e+01 1.3351742950211868e+01 1.9377976940363656e+01 
145 1 2 1.0279999999996363e+00 -2.2257572216270114e+02 1.0000000000000000e+00 1.4082327068410867e+01 1.3351742950211868e+01 1.9377976940363656e+01 
150 1 2 1.0279999999996361e+00 -2.2838311485712831e+02 1.0000000000000000e+00 1.4082327068410940e+01 1.3351742950211740e+01 1.9377976940363634e+01 
62 1 2 1.0279999999996361e+00 -1.9311187047102186e+02 1.0000000000000000e+00 1.4082327068410940e+01 1.3351742950211740e+01 1.9377976940363634e+01 
53 1 2 1.0279999999996363e+00 -1.4077187684509761e+02 1.0000000000000000e+00 1.4082327068410867e+01 1.3351742950211868e+01 1.9377976940363656e+01 
57 1 2 1.0279999999996363e+00 -2.5426349240960235e+02 1.0000000000000000e+00 1.4082327068410867e+01 1.3351742950211868e+01 1.9377976940363656e+01 

Velocities

157 2.7452095226153626e-02 3.5077046668097356e-01 -1.7927528670803709e-04
47 2.7452095225700548e-02 3.5077046667941092e-01 -1.7927528711258382e-04
16 2.7452095225701561e-02 3.5077046667941286e-01 -1.7927528711270162e-04
68 2.7452095225848502e-02 3.5077046668053319e-01 -1.7927528695901594e-04
10 2.7452095225768202e-02 3.5077046667942796e-01 -1.7927528712797535e-04
149 2.4504740702282771e-02 3.4447542902123091e-01 -5.9605761915257020e-03
13 2.4504740702282542e-02 3.4447542902123079e-01 -5.9605761915255727e-03
120 2.4504740702282552e-02 3.4447542902122996e-01 -5.9605761915269648e-03
114 2.4504740702282594e-02 3.4447542902122991e-01 -5.9605761915267966e-03
156 2.4504740702282611e-02 3.4447542902122996e-01 -5.9605761915266760e-03
163 2.4504740702282604e-02 3.4447542902123085e-01 -5.9605761915268044e-03
43 2.4504740751514008e-02 3.4447542927790947e-01 -5.9605762493254652e-03
8 2.4504740751509980e-02 3.4447542927792335e-01 -5.9605762493537872e-03
85 2.4504740751504071e-02 3.4447542927791325e-01 -5.9605762493906405e-03
7 2.4504740751509980e-02 3.4447542927792335e-01 -5.9605762493537872e-03
79 2.4504740751514008e-02 3.4447542927790947e-01 -5.9605762493254652e-03
83 2.4504740751504071e-02 3.4447542927791325e-01 -5.9605762493906405e-03
2 2.0552995726108532e-02 3.5480497809106909e-01 -1.7881564089909891e-02
9 2.0552995726131226e-02 3.5480497809107636e-01 -1.7881564089907234e-02
142 2.0552995726141627e-02 3.5480497809107081e-01 -1.7881564089904375e-02
177 2.0552995726132839e-02 3.5480497809106137e-01 -1.7881564089904087e-02
51 2.0552995726141627e-02 3.5480497809107081e-01 -1.7881564089904375e-02
141 2.0552995726091806e-02 3.5480497809107236e-01 -1.7881564089916129e-02
135 1.8907096688728125e-02 3.4834471311304072e-01 -7.3242085205912769e-04
134 1.8907096688729388e-02 3.4834471311304149e-01 -7.3242085205901830e-04
170 1.8907096688729027e-02 3.4834471311304160e-01 -7.3242085205907489e-04
171 1.8907096688729856e-02 3.4834471311304188e-01 -7.3242085205885512e-04
136 1.8907096688728788e-02 3.4834471311304155e-01 -7.3242085205912238e-04
129 1.8907096688729388e-02 3.4834471311304149e-01 -7.3242085205901830e-04
60 2.0199549221789723e-02 3.4974961327042942e-01 9.7697021596434273e-05
44 2.0199549221789681e-02 3.4974961327042881e-01 9.7697021596917949e-05
45 2.0199549221788245e-02 3.4974961327042986e-01 9.7697021597404322e-05
3 2.0199549221789542e-02 3.4974961327042914e-01 9.7697021596698872e-05
38 2.0199549221789813e-02 3.4974961327042919e-01 9.7697021596666509e-05
61 2.0199549221789691e-02 3.4974961327042881e-01 9.7697021596845267e-05
155 1.9965158418173930e-02 3.4968500062436031e-01 -3.3527669495949931e-04
167 1.9965158418173919e-02 3.4968500062436048e-01 -3.3527669495944158e-04
168 1.9965158418173732e-02 3.4968500062436020e-01 -3.3527669495950620e-04
161 1.9965158418173930e-02 3.4968500062436031e-01 -3.3527669495949931e-04
105 1.9965158418173930e-02 3.4968500062436031e-01 -3.3527669495949931e-04
162 1.9965158418173919e-02 3.4968500062436048e-01 -3.3527669495944158e-04
92 2.2484388238491443e-02 3.5092754642523499e-01 -1.9938766479947470e-04