LAMMPS data file via write_data, version 30 Jul 2016, timestep = 50000000

180 atoms
2 atom types

0.0000000000000000e+00 2.0000000000000000e+01 xlo xhi
0.0000000000000000e+00 2.0000000000000000e+01 ylo yhi
0.0000000000000000e+00 2.0000000000000000e+01 zlo zhi

Masses

1 3.896
2 5

Atoms # meso-molecular

156 1 2 1.0279999999999014e+00 -2.0207917688419354e+02 1.0000000000000000e+00 3.1533798947650138e+00 6.8886218126496610e+00 1.7546326149857399e+00 
149 1 2 1.0279999999999017e+00 -2.2496633062572937e+02 1.0000000000000000e+00 3.1533797791184965e+00 6.8886218242907491e+00 1.7546326320036989e+00 
13 1 2 1.0279999999999019e+00 -2.1834634484780275e+02 1.0000000000000000e+00 3.1533797838482402e+00 6.8886218409949755e+00 1.7546326278473399e+00 
163 1 2 1.0279999999999017e+00 -1.5891223444159692e+02 1.0000000000000000e+00 3.1533797775433738e+00 6.8886218176209546e+00 1.7546326336108078e+00 
120 1 2 1.0279999999999014e+00 -6.0751394802008825e+01 1.0000000000000000e+00 3.1533798866178979e+00 6.8886218620434247e+00 1.7546326064012348e+00 
114 1 2 1.0279999999999014e+00 -6.6585359210087574e+01 1.0000000000000000e+00 3.1533798866280729e+00 6.8886218620196384e+00 1.7546326064043218e+00 
60 1 2 1.0279957403506956e+00 -2.6331251646219488e+02 1.0000000000000000e+00 1.5338875551028786e-01 2.4730274422723664e+00 5.5190021754451424e+00 
44 1 2 1.0279957403506945e+00 -1.7002850913366342e+02 1.0000000000000000e+00 1.5338875551030678e-01 2.4730274422728824e+00 5.5190021754447249e+00 
45 1 2 1.0279957403506963e+00 -1.9214026587515747e+02 1.0000000000000000e+00 1.5338875551029757e-01 2.4730274422716918e+00 5.5190021754440686e+00 
3 1 2 1.0279957403506950e+00 -2.4013143042564170e+02 1.0000000000000000e+00 1.5338875551029657e-01 2.4730274422725294e+00 5.5190021754449008e+00 
38 1 2 1.0279957403506956e+00 -2.2662952695593611e+02 1.0000000000000000e+00 1.5338875551029504e-01 2.4730274422725111e+00 5.5190021754449612e+00 
61 1 2 1.0279957403506947e+00 -1.8937889740591544e+02 1.0000000000000000e+00 1.5338875551030379e-01 2.4730274422727820e+00 5.5190021754448040e+00 
155 1 2 1.0280046979004136e+00 -1.9359897288886586e+02 1.0000000000000000e+00 3.2896847899328399e+00 2.0057246755180937e+00 5.0220121254474970e+00 
167 1 2 1.0280046979004136e+00 -2.1421791837534474e+02 1.0000000000000000e+00 3.2896847899328461e+00 2.0057246755181044e+00 5.0220121254475236e+00 
168 1 2 1.0280046979004136e+00 -2.2922217371083079e+02 1.0000000000000000e+00 3.2896847899328288e+00 2.0057246755180715e+00 5.0220121254474508e+00 
161 1 2 1.0280046979004136e+00 -1.7227967393712422e+02 1.0000000000000000e+00 3.2896847899328399e+00 2.0057246755180937e+00 5.0220121254474970e+00 
105 1 2 1.0280046979004136e+00 -1.0041441095369596e+02 1.0000000000000000e+00 3.2896847899328399e+00 2.0057246755180937e+00 5.0220121254474970e+00 
162 1 2 1.0280046979004136e+00 -1.8298324049249246e+02 1.0000000000000000e+00 3.2896847899328461e+00 2.0057246755181044e+00 5.0220121254475236e+00 
43 1 2 1.0279999999999037e+00 -1.8837039768751711e+02 1.0000000000000000e+00 3.6690206211173555e+00 7.5089250182466447e+00 4.8343819533234962e+00 
8 1 2 1.0279999999999037e+00 -1.3778042707777411e+02 1.0000000000000000e+00 3.6690206211102301e+00 7.5089250182515173e+00 4.8343819533237076e+00 
85 1 2 1.0279999999999037e+00 -1.3233959253565871e+02 1.0000000000000000e+00 3.6690206210843010e+00 7.5089250182546543e+00 4.8343819533274175e+00 
7 1 2 1.0279999999999037e+00 -1.5917123984363633e+02 1.0000000000000000e+00 3.6690206211102301e+00 7.5089250182515173e+00 4.8343819533237076e+00 
79 1 2 1.0279999999999037e+00 -1.2594019878712568e+02 1.0000000000000000e+00 3.6690206211173555e+00 7.5089250182466447e+00 4.8343819533234962e+00 
83 1 2 1.0279999999999037e+00 -1.8515193922910424e+02 1.0000000000000000e+00 3.6690206210843010e+00 7.5089250182546543e+00 4.8343819533274175e+00 
148 1 2 1.0280024551079483e+00 -1.4155120884493846e+02 1.0000000000000000e+00 9.0753908219097845e-01 1.7085893527433436e+00 9.0674488777320033e+00 
40 1 2 1.0280024479681207e+00 -1.9666328352749949e+02 1.0000000000000000e+00 9.0688478923841787e-01 1.7079752372261312e+00 9.0672319275680486e+00 
4 1 2 1.0280024479681384e+00 -2.0355752584558721e+02 1.0000000000000000e+00 9.0688479040209047e-01 1.7079752384948061e+00 9.0672319282705924e+00 
127 1 2 1.0279994100243046e+00 -2.0749891762346115e+02 1.0000000000000000e+00 1.4000007311005545e+00 5.2869550797691622e-01 8.6064957956947570e+00 
91 1 2 1.0279994213816062e+00 -2.4837812396200536e+02 1.0000000000000000e+00 1.4191044018668135e+00 3.7172639205879537e-01 8.6854161890004118e+00 
92 1 2 1.0279994401555508e+00 -2.2774581929903658e+02 1.0000000000000000e+00 1.4224977526823961e+00 2.5769117401352043e-01 8.7593456133490069e+00 
146 1 2 1.0280029173218472e+00 -2.0443333547749228e+02 1.0000000000000000e+00 1.7368542280609043e+00 4.6198532668089349e+00 7.8887286604588329e+00 
166 1 2 1.0280029173218472e+00 -2.5619700986247562e+02 1.0000000000000000e+00 1.7368542280604389e+00 4.6198532668097734e+00 7.8887286604599334e+00 
165 1 2 1.0280029173218477e+00 -2.0084288768236013e+02 1.0000000000000000e+00 1.7368542280604753e+00 4.6198532668095433e+00 7.8887286604602265e+00 
160 1 2 1.0280029173218475e+00 -2.4831344579457755e+02 1.0000000000000000e+00 1.7368542280604646e+00 4.6198532668099501e+00 7.8887286604593552e+00 
130 1 2 1.0280029173218477e+00 -2.6797543222837487e+02 1.0000000000000000e+00 1.7368542280604753e+00 4.6198532668095433e+00 7.8887286604602265e+00 
154 1 2 1.0280029173218472e+00 -2.3328143612751259e+02 1.0000000000000000e+00 1.7368542280603858e+00 4.6198532668100158e+00 7.8887286604597202e+00 
169 1 2 1.0280003547051315e+00 -1.9678730876330002e+02 1.0000000000000000e+00 6.5646218280749258e+00 3.4630322352148739e+00 7.1716232780481173e+00 
50 1 2 1.0280003547051315e+00 -2.1940011320109903e+02 1.0000000000000000e+00 6.5646218280749258e+00 3.4630322352148739e+00 7.1716232780481173e+00 
175 1 2 1.0280003547051315e+00 -2.2487456551584137e+02 1.0000000000000000e+00 6.5646218280749258e+00 3.4630322352148739e+00 7.1716232780481173e+00 
49 1 2 1.0280003547051315e+00 -2.2064995765812839e+02 1.0000000000000000e+00 6.5646218280749382e+00 3.4630322352148735e+00 7.1716232780481288e+00 
176 1 2 1.0280003547051315e+00 -1.9995048660106787e+02 1.0000000000000000e+00 6.5646218280749258e+00 3.4630322352148739e+00 7.1716232780481173e+00 
133 1 2 1.0280003547051315e+00 -2.1280908742440801e+02 1.0000000000000000e+00 6.5646218280749293e+00 3.4630322352148699e+00 7.1716232780481475e+00 
113 1 2 1.0279987529158581e+00 -1.8012026977716957e+02 1.0000000000000000e+00 2.7466240236026911e+00 1.1660986541227927e+00 1.0401436463066702e+01 
112 1 2 1.0279987529158563e+00 -2.0119969764875762e+02 1.0000000000000000e+00 2.7466240236009423e+00 1.1660986540706213e+00 1.0401436463125412e+01 
42 1 2 1.0279987533841319e+00 -1.7309966777255667e+02 1.0000000000000000e+00 2.7466176667389366e+00 1.1659371150968361e+00 1.0401621303296874e+01 
41 1 2 1.0279987533885178e+00 -2.0744413800487439e+02 1.0000000000000000e+00 2.7466176219540652e+00 1.1659356018629023e+00 1.0401622984191189e+01 
77 1 2 1.0280000941073160e+00 -2.0892068687646312e+02 1.0000000000000000e+00 2.3413034432534410e-01 8.0013028381630169e-01 1.0529666369472240e+01 
52 1 2 1.0279976989016399e+00 -1.9481549669606471e+02 1.0000000000000000e+00 5.1544510846761131e+00 2.9470370136144455e+00 1.1398333305720103e+01 
55 1 2 1.0279976989016404e+00 -2.6856049207021204e+02 1.0000000000000000e+00 5.1544510846760936e+00 2.9470370136144624e+00 1.1398333305720101e+01 
12 1 2 1.0279976989016404e+00 -1.8822915196721470e+02 1.0000000000000000e+00 5.1544510846760989e+00 2.9470370136144570e+00 1.1398333305720099e+01 
48 1 2 1.0279976989016402e+00 -1.1652316559269643e+02 1.0000000000000000e+00 5.1544510846761087e+00 2.9470370136144495e+00 1.1398333305720111e+01 
11 1 2 1.0279976989016402e+00 -1.8529009472722743e+02 1.0000000000000000e+00 5.1544510846761087e+00 2.9470370136144499e+00 1.1398333305720101e+01 
66 1 2 1.0279976989016404e+00 -2.8939779822821578e+02 1.0000000000000000e+00 5.1544510846760989e+00 2.9470370136144570e+00 1.1398333305720099e+01 
69 1 2 1.0280085750941494e+00 -2.3542504170211720e+02 1.0000000000000000e+00 4.5848906212954006e+00 1.9382001345706756e-01 1.3384002358570228e+01 
6 1 2 1.0280085750941494e+00 -2.1306854180387347e+02 1.0000000000000000e+00 4.5848906212949831e+00 1.9382001345672267e-01 1.3384002358570205e+01 
37 1 2 1.0280085750941492e+00 -2.3727676614286634e+02 1.0000000000000000e+00 4.5848906212951821e+00 1.9382001345675096e-01 1.3384002358570292e+01 
54 1 2 1.0280085750941492e+00 -2.7097188603141541e+02 1.0000000000000000e+00 4.5848906212951821e+00 1.9382001345675096e-01 1.3384002358570292e+01 
1 1 2 1.0280085750941492e+00 -2.7037741213929780e+02 1.0000000000000000e+00 4.5848906212951821e+00 1.9382001345675096e-01 1.3384002358570292e+01 
104 1 2 1.0280085750941492e+00 -2.3084913046925837e+02 1.0000000000000000e+00 4.5848906212951821e+00 1.9382001345675096e-01 1.3384002358570292e+01 
26 1 2 1.0279996903247099e+00 -2.5899038866245382e+02 1.0000000000000000e+00 4.4651815460418289e+00 3.4304479927848095e+00 1.6514885949560565e+01 
63 1 2 1.0279999111829003e+00 -2.0295346779541106e+02 1.0000000000000000e+00 4.9075456264806077e+00 2.8615916041302820e+00 1.7214607896593311e+01 
99 1 2 1.0279999110676876e+00 -2.5575778983039760e+02 1.0000000000000000e+00 4.9075218019161380e+00 2.8615440184968488e+00 1.7214623748954175e+01 
100 1 2 1.0279999094125143e+00 -2.0792206380394646e+02 1.0000000000000000e+00 4.9071780659478037e+00 2.8608595578252043e+00 1.7214856487945998e+01 
18 1 2 1.0279999750568247e+00 -2.9465553507166442e+02 1.0000000000000000e+00 3.4971891091033682e+00 3.4222439956892572e+00 1.7192120462727573e+01 
17 1 2 1.0279999748326221e+00 -2.0321119479254784e+02 1.0000000000000000e+00 3.4969437675058539e+00 3.4212231534556823e+00 1.7191287740578460e+01 
46 1 2 1.0279999747484356e+00 -2.1424802193605680e+02 1.0000000000000000e+00 3.4968658660736320e+00 3.4208989930948439e+00 1.7191011730711988e+01 
64 1 2 1.0279996576666011e+00 -2.6544015052941421e+02 1.0000000000000000e+00 4.2490994944974307e+00 3.8464985334633357e+00 1.7562913349570209e+01 
135 1 2 1.0280004272878698e+00 -1.7321204905271935e+02 1.0000000000000000e+00 4.1844081812870000e+00 1.8833426827860940e+01 6.3513567164898594e+00 
134 1 2 1.0280004272878698e+00 -1.5618424040559623e+02 1.0000000000000000e+00 4.1844081812863898e+00 1.8833426827861828e+01 6.3513567164897440e+00 
170 1 2 1.0280004272878698e+00 -1.7086807171779157e+02 1.0000000000000000e+00 4.1844081812867895e+00 1.8833426827861242e+01 6.3513567164898621e+00 
171 1 2 1.0280004272878698e+00 -1.7726817497934832e+02 1.0000000000000000e+00 4.1844081812856695e+00 1.8833426827862795e+01 6.3513567164904057e+00 
136 1 2 1.0280004272878700e+00 -1.5090633844460132e+02 1.0000000000000000e+00 4.1844081812867442e+00 1.8833426827861359e+01 6.3513567164893203e+00 
129 1 2 1.0280004272878698e+00 -1.3295875488764131e+02 1.0000000000000000e+00 4.1844081812863898e+00 1.8833426827861828e+01 6.3513567164897440e+00 
21 1 2 1.0280000996887320e+00 -2.4889176346278356e+02 1.0000000000000000e+00 6.5667046599688417e-01 1.9630385059197444e+01 1.1143785890597567e+01 
118 1 2 1.0280000996887324e+00 -1.6756567084341975e+02 1.0000000000000000e+00 6.5667046599696111e-01 1.9630385059197380e+01 1.1143785890597556e+01 
39 1 2 1.0280000996887320e+00 -2.0845779664727257e+02 1.0000000000000000e+00 6.5667046599683376e-01 1.9630385059197522e+01 1.1143785890597615e+01 
31 1 2 1.0280000996887322e+00 -1.7869860998381995e+02 1.0000000000000000e+00 6.5667046599699319e-01 1.9630385059197426e+01 1.1143785890597643e+01 
67 1 2 1.0280002326028337e+00 -1.8419448406688389e+02 1.0000000000000000e+00 1.6218403756323809e+00 1.9972127024258800e+01 1.1413695327271522e+01 
33 1 2 1.0279936497236128e+00 -1.9637900912869051e+02 1.0000000000000000e+00 3.6555965742343433e+00 1.9874762128546429e+01 1.6494066704226384e+01 
19 1 2 1.0279936497236128e+00 -1.3830504551692508e+02 1.0000000000000000e+00 3.6555965742342851e+00 1.9874762128545733e+01 1.6494066704225880e+01 
20 1 2 1.0279936497236131e+00 -1.9508580886134584e+02 1.0000000000000000e+00 3.6555965742338565e+00 1.9874762128544575e+01 1.6494066704224856e+01 
34 1 2 1.0279936497236126e+00 -1.9279268475332520e+02 1.0000000000000000e+00 3.6555965742346501e+00 1.9874762128548209e+01 1.6494066704227759e+01 
27 1 2 1.0279936497236124e+00 -1.8146647672357150e+02 1.0000000000000000e+00 3.6555965742343144e+00 1.9874762128545999e+01 1.6494066704226078e+01 
25 1 2 1.0279936497236128e+00 -1.8631277992054666e+02 1.0000000000000000e+00 3.6555965742342895e+00 1.9874762128546394e+01 1.6494066704226327e+01 
177 1 2 1.0280000000000100e+00 -2.3795785866686424e+02 1.0000000000000000e+00 5.4954011756744805e+00 1.2751991066390326e+01 1.7773330674417796e+01 
142 1 2 1.0280000000000087e+00 -2.1624749886434756e+02 1.0000000000000000e+00 5.4954011756744476e+00 1.2751991066390337e+01 1.7773330674417810e+01 
9 1 2 1.0280000000000140e+00 -2.4227562229650599e+02 1.0000000000000000e+00 5.4954011756745258e+00 1.2751991066390355e+01 1.7773330674417803e+01 
141 1 2 1.0280000000000100e+00 -2.3878907730301458e+02 1.0000000000000000e+00 5.4954011756744894e+00 1.2751991066390326e+01 1.7773330674417760e+01 
2 1 2 1.0280000000000122e+00 -2.4866513798601841e+02 1.0000000000000000e+00 5.4954011756745693e+00 1.2751991066390319e+01 1.7773330674417515e+01 
51 1 2 1.0280000000000087e+00 -1.9825515645500661e+02 1.0000000000000000e+00 5.4954011756744476e+00 1.2751991066390337e+01 1.7773330674417810e+01 
29 1 2 1.0279998672710597e+00 -1.5040935247991135e+02 1.0000000000000000e+00 9.5081820630331162e+00 1.3264299222379947e+00 5.1445925216630526e+00 
65 1 2 1.0279998672710593e+00 -1.8875992700458562e+02 1.0000000000000000e+00 9.5081820630330043e+00 1.3264299222384119e+00 5.1445925216632622e+00 
107 1 2 1.0279998672710593e+00 -1.9790984562289211e+02 1.0000000000000000e+00 9.5081820630331162e+00 1.3264299222380060e+00 5.1445925216630553e+00 
58 1 2 1.0279998672710593e+00 -1.9037081789165970e+02 1.0000000000000000e+00 9.5081820630331926e+00 1.3264299222378115e+00 5.1445925216629931e+00 
30 1 2 1.0279998672710593e+00 -2.6228211157941610e+02 1.0000000000000000e+00 9.5081820630329332e+00 1.3264299222386564e+00 5.1445925216633759e+00 
22 1 2 1.0279998672710591e+00 -1.5941130946214989e+02 1.0000000000000000e+00 9.5081820630330576e+00 1.3264299222382705e+00 5.1445925216632080e+00 
82 1 2 1.0279966210858762e+00 -1.4869543967214162e+02 1.0000000000000000e+00 1.2656257619603270e+01 5.6065275200106219e+00 5.6913667953417848e+00 
124 1 2 1.0279966512633634e+00 -2.4755664670635218e+02 1.0000000000000000e+00 1.2655488878203361e+01 5.6041593151552025e+00 5.6892978249041048e+00 
125 1 2 1.0279966587774554e+00 -2.1813242198427773e+02 1.0000000000000000e+00 1.2655415295091517e+01 5.6041157531993004e+00 5.6894421984099033e+00 
88 1 2 1.0279966487396919e+00 -2.1713771615812755e+02 1.0000000000000000e+00 1.2655496653626681e+01 5.6040863833998777e+00 5.6891435155708105e+00 
89 1 2 1.0279966603152011e+00 -2.6358682935015406e+02 1.0000000000000000e+00 1.2655205176982722e+01 5.6030536794442956e+00 5.6881989640402413e+00 
131 1 2 1.0279966856191969e+00 -1.8462355646565052e+02 1.0000000000000000e+00 1.2654544829299155e+01 5.6001428601386181e+00 5.6853446310096540e+00 
128 1 2 1.0280000010046193e+00 -1.5129486450871227e+02 1.0000000000000000e+00 9.8335469697796611e+00 2.5973043174858228e+00 9.6748060854552307e+00 
24 1 2 1.0280000010046388e+00 -2.2915744708080902e+02 1.0000000000000000e+00 9.8335477293648932e+00 2.5973045948817055e+00 9.6748072736617790e+00 
117 1 2 1.0280000010054144e+00 -2.4858876904039238e+02 1.0000000000000000e+00 9.8335548723486745e+00 2.5973064355406117e+00 9.6748137563248839e+00 
76 1 2 1.0280000010086083e+00 -1.8590481921429190e+02 1.0000000000000000e+00 9.8335888130938063e+00 2.5973158018355491e+00 9.6748484114767841e+00 
119 1 2 1.0280000010100054e+00 -1.7937003421309177e+02 1.0000000000000000e+00 9.8336024874152486e+00 2.5973194309176750e+00 9.6748615172552430e+00 
84 1 2 1.0280000010086225e+00 -1.8373073957680205e+02 1.0000000000000000e+00 9.8335889207586877e+00 2.5973158278856228e+00 9.6748484991533772e+00 
102 1 2 1.0279992742213335e+00 -2.8664549527412004e+02 1.0000000000000000e+00 6.8337164191063016e+00 4.9865752148931108e-01 6.7642508374080794e+00 
96 1 2 1.0279992742213315e+00 -2.7935215975263378e+02 1.0000000000000000e+00 6.8337164191061879e+00 4.9865752148923165e-01 6.7642508374080874e+00 
97 1 2 1.0279992742213320e+00 -1.1168311448244948e+02 1.0000000000000000e+00 6.8337164191063957e+00 4.9865752148939091e-01 6.7642508374080599e+00 
152 1 2 1.0280000000016578e+00 -2.0001324112631272e+02 1.0000000000000000e+00 9.7129311991370244e+00 4.9277133467357768e+00 1.8576869514706679e+01 
179 1 2 1.0280000000016578e+00 -2.0260646565278995e+02 1.0000000000000000e+00 9.7129311989404528e+00 4.9277133465166596e+00 1.8576869516209225e+01 
178 1 2 1.0280000000016578e+00 -1.5830244227687115e+02 1.0000000000000000e+00 9.7129311983356263e+00 4.9277133459113109e+00 1.8576869519602184e+01 
172 1 2 1.0280000000016578e+00 -1.7801774527403160e+02 1.0000000000000000e+00 9.7129311992637586e+00 4.9277133468826237e+00 1.8576869513638307e+01 
173 1 2 1.0280000000016578e+00 -1.7821443037631448e+02 1.0000000000000000e+00 9.7129311996785823e+00 4.9277133473432286e+00 1.8576869510499648e+01 
137 1 2 1.0280000000016578e+00 -2.1070237394388414e+02 1.0000000000000000e+00 9.7129311993633731e+00 4.9277133470136594e+00 1.8576869512519639e+01 
87 1 2 1.0280000000016580e+00 -1.4772956823217615e+02 1.0000000000000000e+00 7.9123109187517287e+00 7.5491172712305241e+00 1.8723585167949661e+01 
101 1 2 1.0280000000016580e+00 -1.7390419306462167e+02 1.0000000000000000e+00 7.9123109187517287e+00 7.5491172712305241e+00 1.8723585167949661e+01 
94 1 2 1.0280000000016580e+00 -1.7717976536095409e+02 1.0000000000000000e+00 7.9123109187517287e+00 7.5491172712305241e+00 1.8723585167949661e+01 
159 1 2 1.0280000000016580e+00 -1.6991351486276051e+02 1.0000000000000000e+00 7.9123109187517287e+00 7.5491172712305241e+00 1.8723585167949661e+01 
95 1 2 1.0280000000016580e+00 -1.1570774405642095e+02 1.0000000000000000e+00 7.9123109187517287e+00 7.5491172712305241e+00 1.8723585167949661e+01 
93 1 2 1.0280000000016580e+00 -1.3432538467026836e+02 1.0000000000000000e+00 7.9123109187517287e+00 7.5491172712305241e+00 1.8723585167949661e+01 
15 1 2 1.0280009904904035e+00 -1.3437092770525234e+02 1.0000000000000000e+00 7.3225910654498687e+00 1.9400770241839751e+01 6.9033065385789953e+00 
14 1 2 1.0280009904904019e+00 -1.1455957291460241e+02 1.0000000000000000e+00 7.3225910654500161e+00 1.9400770241839762e+01 6.9033065385788852e+00 
164 1 2 1.0280004448613951e+00 -1.8535787360767077e+02 1.0000000000000000e+00 7.5786730136055374e+00 1.9490372178650393e+01 6.7047087261549541e+00 
158 1 2 1.0280004448615703e+00 -1.8782356905888943e+02 1.0000000000000000e+00 7.5786729431650430e+00 1.9490372138196978e+01 6.7047087881744334e+00 
35 1 2 1.0280000000236609e+00 -2.5563561369177631e+02 1.0000000000000000e+00 1.0174308414158627e+01 1.9473417205247642e+01 1.0185421746996719e+01 
71 1 2 1.0280000000236609e+00 -1.9699914114518057e+02 1.0000000000000000e+00 1.0174308414004667e+01 1.9473417205314572e+01 1.0185421747508956e+01 
23 1 2 1.0280000000236609e+00 -1.2956796692875707e+02 1.0000000000000000e+00 1.0174308414213437e+01 1.9473417205252566e+01 1.0185421746990270e+01 
5 1 2 1.0280000000236609e+00 -2.4846477163102577e+02 1.0000000000000000e+00 1.0174308414188181e+01 1.9473417205250911e+01 1.0185421746997006e+01 
36 1 2 1.0280000000236609e+00 -2.6339852896505829e+02 1.0000000000000000e+00 1.0174308414341464e+01 1.9473417205251003e+01 1.0185421746895281e+01 
72 1 2 1.0280000000236609e+00 -2.5806150982289404e+02 1.0000000000000000e+00 1.0174308414188413e+01 1.9473417205250886e+01 1.0185421746996701e+01 
138 1 2 1.0280000000000131e+00 -2.4340198913176567e+02 1.0000000000000000e+00 8.5457362415936675e+00 1.3344657487803344e+01 1.8465948831184861e+01 
143 1 2 1.0280000000000145e+00 -2.2665781755835019e+02 1.0000000000000000e+00 8.5457362415945202e+00 1.3344657487796487e+01 1.8465948831186903e+01 
108 1 2 1.0280000000000142e+00 -2.1892790404067648e+02 1.0000000000000000e+00 8.5457362415926834e+00 1.3344657487805490e+01 1.8465948831187298e+01 
180 1 2 1.0280000000000040e+00 -2.2292343777431893e+02 1.0000000000000000e+00 8.5457362415930884e+00 1.3344657487803007e+01 1.8465948831188232e+01 
174 1 2 1.0280000000000142e+00 -1.8424908266063113e+02 1.0000000000000000e+00 8.5457362415926834e+00 1.3344657487805490e+01 1.8465948831187298e+01 
144 1 2 1.0280000000000040e+00 -2.4233164374872661e+02 1.0000000000000000e+00 8.5457362415930884e+00 1.3344657487803007e+01 1.8465948831188232e+01 
109 1 2 1.0280000000026281e+00 -2.0948188485730597e+02 1.0000000000000000e+00 1.0326653314251873e+01 1.7653250453903592e+01 1.9918130969625139e+01 
140 1 2 1.0280000000026281e+00 -2.1345801031615974e+02 1.0000000000000000e+00 1.0326653319081775e+01 1.7653250445341744e+01 1.9918130971306752e+01 
103 1 2 1.0280000000026281e+00 -3.0243208672347714e+02 1.0000000000000000e+00 1.0326653314433850e+01 1.7653250453580782e+01 1.9918130969680419e+01 
78 1 2 1.0280000000026281e+00 -2.3071111122135790e+02 1.0000000000000000e+00 1.0326653320637840e+01 1.7653250442640854e+01 1.9918130973939537e+01 
73 1 2 1.0280000000026281e+00 -2.8902084701701358e+02 1.0000000000000000e+00 1.0326653309913855e+01 1.7653250461587334e+01 1.9918130967891045e+01 
139 1 2 1.0280000000026281e+00 -3.3920141538314715e+02 1.0000000000000000e+00 1.0326653318145448e+01 1.7653250447027048e+01 1.9918130971908056e+01 
145 1 2 1.0280000000026281e+00 -2.2257572216270114e+02 1.0000000000000000e+00 1.3102851689783396e+01 1.9210942522043947e+01 1.9875289250839113e+01 
150 1 2 1.0280000000026284e+00 -2.2838311485712831e+02 1.0000000000000000e+00 1.3102851689783462e+01 1.9210942522043819e+01 1.9875289250839092e+01 
62 1 2 1.0280000000026284e+00 -1.9311187047102186e+02 1.0000000000000000e+00 1.3102851689783462e+01 1.9210942522043819e+01 1.9875289250839092e+01 
53 1 2 1.0280000000026281e+00 -1.4077187684509761e+02 1.0000000000000000e+00 1.3102851689783396e+01 1.9210942522043947e+01 1.9875289250839113e+01 
57 1 2 1.0280000000026281e+00 -2.5426349240960235e+02 1.0000000000000000e+00 1.3102851689783396e+01 1.9210942522043947e+01 1.9875289250839113e+01 
32 1 2 1.0280000000026281e+00 -2.5844723780022321e+02 1.0000000000000000e+00 1.3102851689783396e+01 1.9210942522043947e+01 1.9875289250839113e+01 
157 1 2 1.0280044224623850e+00 -1.3977990365708135e+02 1.0000000000000000e+00 1.9139675530554598e+01 8.5528122912844378e+00 2.6098551393220308e+00 
47 1 2 1.0280044224624307e+00 -1.1917299868624158e+02 1.0000000000000000e+00 1.9139675530352235e+01 8.5528122899926107e+00 2.6098551389379052e+00 
16 1 2 1.0280044224624247e+00 -2.3028191127570329e+02 1.0000000000000000e+00 1.9139675530352307e+01 8.5528122899927492e+00 2.6098551389380744e+00 
68 1 2 1.0280044224624478e+00 -2.0751656454374938e+02 1.0000000000000000e+00 1.9139675530466139e+01 8.5528122909345559e+00 2.6098551390706390e+00 
10 1 2 1.0280044224624258e+00 -2.5627159771375892e+02 1.0000000000000000e+00 1.9139675530352243e+01 8.5528122899928665e+00 2.6098551389377627e+00 
110 1 2 1.0279955786806865e+00 -2.2703027512446877e+02 1.0000000000000000e+00 1.6960998836572990e+01 8.7485107358745946e+00 3.0960456781627967e+00 
115 1 2 1.0279955772564455e+00 -1.4941033909023841e+02 1.0000000000000000e+00 1.6962880611433647e+01 8.7462651098549422e+00 3.1055265226973359e+00 
151 1 2 1.0279955772656069e+00 -1.8999628940721087e+02 1.0000000000000000e+00 1.6962923286114677e+01 8.7462161177079487e+00 3.1057314243348886e+00 
121 1 2 1.0279955773124498e+00 -1.9323300743471765e+02 1.0000000000000000e+00 1.6963072810911942e+01 8.7460293588855329e+00 3.1064521558107141e+00 
147 1 2 1.0279955776009368e+00 -2.1394109326642803e+02 1.0000000000000000e+00 1.6963552204535194e+01 8.7454376463849925e+00 3.1087291911874444e+00 
86 1 2 1.0280017760037146e+00 -2.2978068179906595e+02 1.0000000000000000e+00 1.5939648119185554e+01 5.1743271398531210e+00 5.3063321415324811e+00 
123 1 2 1.0280017760037143e+00 -2.7012003602398897e+02 1.0000000000000000e+00 1.5939648119185559e+01 5.1743271398531379e+00 5.3063321415324802e+00 
56 1 2 1.0280017760037139e+00 -2.5222469817250666e+02 1.0000000000000000e+00 1.5939648119185541e+01 5.1743271398531174e+00 5.3063321415324776e+00 
116 1 2 1.0280017760037139e+00 -1.7217897387437694e+02 1.0000000000000000e+00 1.5939648119185541e+01 5.1743271398531174e+00 5.3063321415324776e+00 
111 1 2 1.0280017760037141e+00 -1.8685881114023883e+02 1.0000000000000000e+00 1.5939648119185570e+01 5.1743271398531405e+00 5.3063321415324838e+00 
28 1 2 1.0280017760037139e+00 -1.4085332039418830e+02 1.0000000000000000e+00 1.5939648119185541e+01 5.1743271398531174e+00 5.3063321415324776e+00 
122 1 2 1.0279971307089670e+00 -2.3138733695372650e+02 1.0000000000000000e+00 1.3893866490636151e+01 3.2984203565026347e+00 8.5968134552728852e+00 
153 1 2 1.0279971299078747e+00 -2.1176016795521593e+02 1.0000000000000000e+00 1.3893260460534487e+01 3.2981065733428210e+00 8.5968797370596448e+00 
98 1 2 1.0279971299549981e+00 -1.4408918405890964e+02 1.0000000000000000e+00 1.3893082635929856e+01 3.2977635334658668e+00 8.5968790706328324e+00 
80 1 2 1.0280029168947507e+00 -1.6711486939361868e+02 1.0000000000000000e+00 1.3897171802025403e+01 3.2739003622054828e+00 7.5127193848272027e+00 
81 1 2 1.0280029291185071e+00 -1.3030329872847412e+02 1.0000000000000000e+00 1.3895622721704566e+01 3.2734718043990956e+00 7.5125194583901038e+00 
75 1 2 1.0280029335908978e+00 -2.0103864682795466e+02 1.0000000000000000e+00 1.3894769337773466e+01 3.2717141899764202e+00 7.5130423481729647e+00 
59 1 2 1.0279993391561262e+00 -1.5291661282644196e+02 1.0000000000000000e+00 1.3419178029831848e+01 3.6087594678985830e+00 8.2731231478920488e+00 
90 1 2 1.0279968506220232e+00 -1.3860678061024873e+02 1.0000000000000000e+00 1.8664781648298337e+01 5.6440868793925878e+00 7.1786204690734001e+00 
74 1 2 1.0279968506220232e+00 -2.2149185968000228e+02 1.0000000000000000e+00 1.8664781648298330e+01 5.6440868793925807e+00 7.1786204690734037e+00 
132 1 2 1.0279968506220232e+00 -1.7890114110734396e+02 1.0000000000000000e+00 1.8664781648298302e+01 5.6440868793925683e+00 7.1786204690734055e+00 
106 1 2 1.0279968506220232e+00 -1.2035628830753713e+02 1.0000000000000000e+00 1.8664781648298302e+01 5.6440868793925683e+00 7.1786204690734055e+00 
70 1 2 1.0279968506220232e+00 -1.7926482158988483e+02 1.0000000000000000e+00 1.8664781648298337e+01 5.6440868793925878e+00 7.1786204690734001e+00 
126 1 2 1.0279968506220236e+00 -1.4206750572848068e+02 1.0000000000000000e+00 1.8664781648298348e+01 5.6440868793925905e+00 7.1786204690734037e+00 

Velocities

156 2.4504570572610795e-02 3.4447303806413410e-01 -5.9605347355980417e-03
149 2.4504570572610559e-02 3.4447303806413582e-01 -5.9605347355985543e-03
13 2.4504570572610858e-02 3.4447303806413582e-01 -5.9605347355979202e-03
163 2.4504570572610580e-02 3.4447303806413587e-01 -5.9605347355984510e-03
120 2.4504570572610813e-02 3.4447303806413421e-01 -5.9605347355979488e-03
114 2.4504570572610806e-02 3.4447303806413426e-01 -5.9605347355978621e-03
60 2.0254850108316992e-02 3.4942554917891644e-01 1.7217629204553260e-04
44 2.0254850108316985e-02 3.4942554917891616e-01 1.7217629204613116e-04
45 2.0254850108314897e-02 3.4942554917891744e-01 1.7217629204657986e-04
3 2.0254850108316791e-02 3.4942554917891661e-01 1.7217629204585043e-04
38 2.0254850108316763e-02 3.4942554917891666e-01 1.7217629204576570e-04
61 2.0254850108316787e-02 3.4942554917891616e-01 1.7217629204600198e-04
155 2.0005014453544349e-02 3.4945687090202315e-01 -3.6133980455012153e-04
167 2.0005014453544443e-02 3.4945687090202343e-01 -3.6133980455008396e-04
168 2.0005014453544637e-02 3.4945687090202304e-01 -3.6133980455027055e-04
161 2.0005014453544349e-02 3.4945687090202315e-01 -3.6133980455012153e-04
105 2.0005014453544349e-02 3.4945687090202315e-01 -3.6133980455012153e-04
162 2.0005014453544443e-02 3.4945687090202343e-01 -3.6133980455008396e-04
43 2.4504570768694570e-02 3.4447303910321203e-01 -5.9605349757257372e-03
8 2.4504570768694594e-02 3.4447303910321203e-01 -5.9605349757253885e-03
85 2.4504570768694528e-02 3.4447303910321203e-01 -5.9605349757260277e-03
7 2.4504570768694594e-02 3.4447303910321203e-01 -5.9605349757253885e-03
79 2.4504570768694570e-02 3.4447303910321203e-01 -5.9605349757257372e-03
83 2.4504570768694528e-02 3.4447303910321203e-01 -5.9605349757260277e-03
148 2.2342329365344960e-02 3.5082241533829739e-01 -2.7522454992823090e-04
40 2.2342491967003705e-02 3.5082180646949568e-01 -2.7520460278148605e-04
4 2.2342491966721594e-02 3.5082180647069794e-01 -2.7520460264966750e-04
127 2.2703312377822749e-02 3.5065405461053584e-01 -1.4241029990789270e-04
91 2.2711674472847398e-02 3.5067174423922792e-01 -1.3697406103510150e-04
92 2.2715073168274719e-02 3.5068584885526916e-01 -1.3847510307247307e-04
146 2.0742316077724178e-02 3.5006423870776365e-01 4.8026657319219615e-04
166 2.0742316077723963e-02 3.5006423870776476e-01 4.8026657319338997e-04
165 2.0742316077725410e-02 3.5006423870776504e-01 4.8026657319394660e-04
160 2.0742316077721427e-02 3.5006423870776382e-01 4.8026657319234306e-04
130 2.0742316077725410e-02 3.5006423870776504e-01 4.8026657319394660e-04
154 2.0742316077722183e-02 3.5006423870776404e-01 4.8026657319285210e-04
169 1.7991501545746209e-02 3.4892917256456385e-01 -1.9321376969885970e-03
50 1.7991501545746209e-02 3.4892917256456385e-01 -1.9321376969885970e-03
175 1.7991501545746209e-02 3.4892917256456385e-01 -1.9321376969885970e-03
49 1.7991501545746209e-02 3.4892917256456379e-01 -1.9321376969885936e-03
176 1.7991501545746209e-02 3.4892917256456385e-01 -1.9321376969885970e-03
133 1.7991501545746202e-02 3.4892917256456379e-01 -1.9321376969885849e-03
113 2.2592235615334254e-02 3.5095699346054871e-01 -3.9400272930203696e-04