LAMMPS data file via write_data, version 30 Jul 2016, timestep = 50000000

180 atoms
2 atom types

0.0000000000000000e+00 2.0000000000000000e+01 xlo xhi
0.0000000000000000e+00 2.0000000000000000e+01 ylo yhi
0.0000000000000000e+00 2.0000000000000000e+01 zlo zhi

Masses

1 3.896
2 4.31

Atoms # meso-molecular

140 1 2 1.0494468627506282e+00 -2.1877786775674946e+02 1.0000000000000000e+00 5.2731909684908800e+00 5.6697672943297048e+00 7.1911403032752350e+00 
82 1 2 1.0203458743570888e+00 -3.2024076579378732e+02 1.0000000000000000e+00 4.6302770391081989e+00 6.3827891148071991e+00 8.1216024064457688e+00 
24 1 2 1.0398534923082419e+00 -3.0062734693255618e+02 1.0000000000000000e+00 5.6511359789340707e+00 5.1676372281503200e+00 7.4135396357463632e+00 
6 1 2 1.0552861369393838e+00 -3.2753423930760607e+02 1.0000000000000000e+00 5.7120933677742354e+00 4.7855595418076255e+00 8.4332706817173957e+00 
70 1 2 1.0231640433367484e+00 -2.7487540315738732e+02 1.0000000000000000e+00 5.6474192057860026e+00 5.0299428001099749e+00 8.9719076867742693e+00 
22 1 2 1.0037231662008728e+00 -3.5149756827025260e+02 1.0000000000000000e+00 6.3760907763201109e+00 4.3437643793402891e+00 8.6308907395161061e+00 
131 1 2 1.0382182263775384e+00 -2.7023329216998661e+02 1.0000000000000000e+00 5.1606926786361660e+00 5.4791316341729877e+00 7.3872872836412391e+00 
62 1 2 1.0004718818692897e+00 -3.2791829255123946e+02 1.0000000000000000e+00 6.0483765522776975e+00 9.0042982280896862e+00 9.2656860496323716e+00 
17 1 2 1.0024088280376757e+00 -3.1892281336453641e+02 1.0000000000000000e+00 5.3549435279129893e+00 7.2475101972513860e+00 9.2531233288731709e+00 
56 1 2 9.6889295241860207e-01 -2.3658961304303651e+02 1.0000000000000000e+00 5.5222873377717248e+00 8.3464073039840603e+00 7.1428717921669111e+00 
63 1 2 1.0300978645786354e+00 -3.3149695295837228e+02 1.0000000000000000e+00 5.4357206138973568e+00 8.1568437986482270e+00 7.2996913708237292e+00 
154 1 2 1.0174111684797302e+00 -2.7112577512833235e+02 1.0000000000000000e+00 5.4138498847830068e+00 6.9781956686334459e+00 6.8264547760223770e+00 
74 1 2 1.0077361217866692e+00 -1.9341481498523831e+02 1.0000000000000000e+00 5.6054769431187168e+00 8.7943201305850387e+00 8.8137073357647751e+00 
38 1 2 1.0116676445102810e+00 -1.6145227569513514e+02 1.0000000000000000e+00 4.6547452665424354e+00 7.2498278849433744e+00 7.7666863847702334e+00 
151 1 2 9.9181378189512881e-01 -3.5470961920266313e+02 1.0000000000000000e+00 4.8436381722665498e+00 7.1426582269513501e+00 8.6974767935484039e+00 
68 1 2 1.0469579888229807e+00 -2.6168793495553763e+02 1.0000000000000000e+00 6.4288491581075666e+00 8.9052311349144890e+00 7.2492760929002236e+00 
150 1 2 1.0102319581597150e+00 -3.0731188886281240e+02 1.0000000000000000e+00 6.0398445502591338e+00 8.5154384544030730e+00 1.1379767705347303e+01 
160 1 2 1.0484059644497550e+00 -2.9464077180197233e+02 1.0000000000000000e+00 6.3042905906467208e+00 8.2656519922357710e+00 1.1743313318774639e+01 
139 1 2 1.0641691514186886e+00 -2.1476727229379881e+02 1.0000000000000000e+00 6.3279486224006396e+00 7.4917407772395554e+00 1.1601613175156052e+01 
37 1 2 1.0203450944165928e+00 -3.6257560944264577e+02 1.0000000000000000e+00 6.4144483090451887e+00 7.0476682343906516e+00 1.1108312913935215e+01 
46 1 2 1.0348644863376728e+00 -2.7134026792537998e+02 1.0000000000000000e+00 5.8387949440614326e+00 8.5442775935481414e+00 1.0241458023220758e+01 
80 1 2 1.0374636037054288e+00 -2.5757461294735208e+02 1.0000000000000000e+00 9.9179508640030676e+00 3.8063001801788503e+00 6.1623013439293759e+00 
138 1 2 1.0427291887896515e+00 -2.5096812154336482e+02 1.0000000000000000e+00 9.4583846041451274e+00 4.9844966023062751e+00 5.6603498503902188e+00 
55 1 2 1.0413888274327041e+00 -2.0458614256687193e+02 1.0000000000000000e+00 9.6000532815270798e+00 4.2663555288178481e+00 6.6442234000735176e+00 
34 1 2 1.0422102167683394e+00 -3.1933258381722214e+02 1.0000000000000000e+00 9.0593593544475723e+00 6.3102711723742502e+00 3.5791535742900402e+00 
108 1 2 1.0353341546917134e+00 -3.0383473386119084e+02 1.0000000000000000e+00 9.0392553248141088e+00 6.1635527833483374e+00 3.6796515387199027e+00 
9 1 2 1.0505219360709557e+00 -2.9888401550225166e+02 1.0000000000000000e+00 9.9856556136587944e+00 6.4705249294572313e+00 3.9145593680789528e+00 
113 1 2 1.0756111134038737e+00 -2.8039795169098966e+02 1.0000000000000000e+00 9.9877083220967453e+00 3.8764825260611167e+00 6.3346140940998037e+00 
48 1 2 1.0151123715980033e+00 -1.5232622106364235e+02 1.0000000000000000e+00 8.6482111762408511e+00 6.4717603555822878e+00 5.3102181702526599e+00 
109 1 2 1.0236752066436505e+00 -1.9448125478801023e+02 1.0000000000000000e+00 1.0016838405914902e+01 3.6906846955237289e+00 6.3149631223990657e+00 
51 1 2 1.0221532373868893e+00 -2.3240771921797190e+02 1.0000000000000000e+00 1.0185546564270277e+01 3.9688332202403340e+00 5.4556429692296255e+00 
75 1 2 1.0572808162175182e+00 -2.7028880324068422e+02 1.0000000000000000e+00 1.1407544668473786e+01 6.0374827172928747e+00 5.5406018478054611e+00 
156 1 2 1.0877032624031095e+00 -2.9199039403870228e+02 1.0000000000000000e+00 1.1503414871365894e+01 4.1268179478907259e+00 5.9645309590037474e+00 
105 1 2 1.0309871076175647e+00 -2.6906403235414712e+02 1.0000000000000000e+00 1.1866399788201599e+01 5.1717427230528603e+00 5.4050449830108755e+00 
103 1 2 1.0490117680800082e+00 -2.9016721727458997e+02 1.0000000000000000e+00 1.0790714147270670e+01 6.2021580308431989e+00 5.2203053381275364e+00 
76 1 2 1.0779041677600159e+00 -2.4101037796370966e+02 1.0000000000000000e+00 1.1212792752924321e+01 5.2618950943643288e+00 5.0874837910709019e+00 
27 1 2 9.8920944637807562e-01 -2.1836727079754240e+02 1.0000000000000000e+00 1.2685400445218331e+01 5.7179871128446624e+00 5.7266880881602660e+00 
120 1 2 1.0715163828374483e+00 -2.3446202737193690e+02 1.0000000000000000e+00 1.3127401553784596e+01 5.9129425539277793e+00 6.4430618400634785e+00 
59 1 2 1.0241963907029192e+00 -2.2387807771258855e+02 1.0000000000000000e+00 8.8794557142239743e+00 7.0773108840158425e+00 3.3891561645002164e+00 
164 1 2 9.8401858284675003e-01 -3.0343279717807224e+02 1.0000000000000000e+00 9.7315592523015937e+00 6.8096838125363437e+00 3.4937292883824229e+00 
137 1 2 1.0042829977832006e+00 -1.6291490262265921e+02 1.0000000000000000e+00 9.3833641798103802e+00 9.0082343852660571e+00 4.6347010412684684e+00 
107 1 2 9.8467913962490861e-01 -2.7953743694700051e+02 1.0000000000000000e+00 8.3139887284847749e+00 9.7515158203876453e+00 4.3790210179845763e+00 
20 1 2 9.7758592422272161e-01 -2.4189712072182749e+02 1.0000000000000000e+00 7.4932191476767080e+00 7.7225268062042876e+00 4.4548120884551334e+00 
64 1 2 1.0368722196994939e+00 -2.8594725988837155e+02 1.0000000000000000e+00 7.6073169355919434e+00 8.2435265758595460e+00 4.6587723531383833e+00 
86 1 2 9.9719927058957181e-01 -2.4270705059225605e+02 1.0000000000000000e+00 7.2508250651558699e+00 9.1705927021727138e+00 5.5646276229884268e+00 
73 1 2 1.0949295314334595e+00 -2.2968336986624419e+02 1.0000000000000000e+00 7.8439012740772922e+00 9.4827391114130197e+00 5.8486028414213571e+00 
21 1 2 1.0562180906820799e+00 -2.5918131952440581e+02 1.0000000000000000e+00 7.9071144005320475e+00 7.1340009588463200e+00 4.1205267776946952e+00 
161 1 2 9.8721298682761338e-01 -2.0980125315487422e+02 1.0000000000000000e+00 7.6988673173508593e+00 6.9284081478476516e+00 4.4897003372490412e+00 
99 1 2 1.0182181918548339e+00 -2.4614999883677211e+02 1.0000000000000000e+00 7.8330201262922863e+00 7.8931448551751782e+00 6.1602144808796755e+00 
172 1 2 1.0704073657352182e+00 -2.8579920449430131e+02 1.0000000000000000e+00 8.1747985626042237e+00 9.8323550383000864e+00 6.1861246513255344e+00 
88 1 2 1.0490416329025662e+00 -2.1414642143703480e+02 1.0000000000000000e+00 1.0030722590650884e+01 6.9915559284097526e+00 4.3891267342849130e+00 
159 1 2 9.9882864976458896e-01 -2.5084421495297008e+02 1.0000000000000000e+00 1.2470983113590020e+01 9.1254237343965556e+00 5.5144221672403564e+00 
115 1 2 1.0266410538157880e+00 -1.9869336896713770e+02 1.0000000000000000e+00 1.3197215320854101e+01 8.6447260168389555e+00 5.8207108524149946e+00 
28 1 2 9.9632531661377988e-01 -2.9987434534927155e+02 1.0000000000000000e+00 1.2872091810721075e+01 9.3030845469140679e+00 5.8651001213479086e+00 
89 1 2 1.0479149829692882e+00 -2.8137991036013335e+02 1.0000000000000000e+00 1.2652305410419975e+01 8.5001558026865141e+00 5.6029641742438292e+00 
106 1 2 9.7743480234119817e-01 -2.5381972559518516e+02 1.0000000000000000e+00 1.3098576310640944e+01 9.1826101773188800e+00 5.9426320476337668e+00 
104 1 2 1.0258894571997559e+00 -2.4623387138317446e+02 1.0000000000000000e+00 1.0470909142053154e+01 9.8397483180142036e+00 5.0398117945844190e+00 
91 1 2 1.0096197946791508e+00 -2.5626244228745583e+02 1.0000000000000000e+00 9.5684268435783704e+00 5.4510288318206923e+00 8.7447215238294849e+00 
5 1 2 1.0056675636682331e+00 -2.9596816344368813e+02 1.0000000000000000e+00 9.1791945634773349e+00 5.0822407624804784e+00 9.1744564441339893e+00 
19 1 2 9.9727098121630586e-01 -3.6698041648710785e+02 1.0000000000000000e+00 6.7098798713261996e+00 4.2387533317399777e+00 9.4275399575869603e+00 
50 1 2 9.9385850893697092e-01 -2.3849730635119113e+02 1.0000000000000000e+00 6.8732565412978586e+00 6.0180084043451654e+00 7.2440819240453065e+00 
60 1 2 1.0440404068978293e+00 -2.1775801386027851e+02 1.0000000000000000e+00 8.1124046799046550e+00 5.6187222398944190e+00 8.0912459090734163e+00 
95 1 2 1.0375560075107908e+00 -2.6335228720196318e+02 1.0000000000000000e+00 9.0015895168278579e+00 5.8864540303557211e+00 7.9543431437724745e+00 
130 1 2 1.0601797140308240e+00 -1.9517772589337613e+02 1.0000000000000000e+00 7.2910886210406041e+00 4.2885294242082059e+00 9.2835429123819075e+00 
146 1 2 1.0378340865773221e+00 -2.8684139099199729e+02 1.0000000000000000e+00 9.4581886537855855e+00 6.4774068185144120e+00 7.8021301130476628e+00 
66 1 2 1.0325925085910499e+00 -2.4139644911519088e+02 1.0000000000000000e+00 6.7021171996093685e+00 6.4910530181882802e+00 7.1648141801856733e+00 
1 1 2 1.0570019998182623e+00 -3.0801965787137254e+02 1.0000000000000000e+00 1.2173383711051859e+01 4.8817831548409636e+00 8.9981143626386082e+00 
31 1 2 1.0202717889736843e+00 -3.4299876510623409e+02 1.0000000000000000e+00 1.2169223701530754e+01 4.4701806209287440e+00 8.4731326972222956e+00 
72 1 2 1.0103350946723917e+00 -2.3437343211189133e+02 1.0000000000000000e+00 1.2880879554339550e+01 5.3116507845433798e+00 8.9372950803985773e+00 
90 1 2 1.0121685530304596e+00 -3.2040474377508826e+02 1.0000000000000000e+00 1.1473034269371404e+01 3.7423461742138442e+00 6.8201262645378034e+00 
119 1 2 1.0485206568096668e+00 -4.0661827820468085e+02 1.0000000000000000e+00 1.1566849658656265e+01 4.9801198085935567e+00 9.3609470571709803e+00 
129 1 2 1.0085324111390253e+00 -3.2517658882909757e+02 1.0000000000000000e+00 1.2480031739510547e+01 4.5130479511146637e+00 7.9898318680195191e+00 
11 1 2 1.0391449624432534e+00 -1.9327970459709431e+02 1.0000000000000000e+00 1.1065074839574315e+01 4.4728978841819185e+00 8.2907949283899640e+00 
165 1 2 1.0312860979435381e+00 -3.0201492327870642e+02 1.0000000000000000e+00 1.2359224071388295e+01 4.4707156228629055e+00 7.7176998819069871e+00 
176 1 2 1.0020191735901609e+00 -2.5369221064371635e+02 1.0000000000000000e+00 8.6449398389965371e+00 6.6912754774635568e+00 8.5122450907079532e+00 
126 1 2 1.0501552241231711e+00 -2.9912580516511707e+02 1.0000000000000000e+00 9.0420079482737741e+00 9.7831274638704215e+00 8.9853638552128032e+00 
166 1 2 1.0435369347111210e+00 -2.4193977644594608e+02 1.0000000000000000e+00 9.2949244296331983e+00 7.9646054725341981e+00 8.4911727856679491e+00 
39 1 2 1.0330528060846822e+00 -2.8337204734276844e+02 1.0000000000000000e+00 9.4570584247948499e+00 8.1074854162673908e+00 7.7087131332748422e+00 
83 1 2 1.0466735964298053e+00 -2.8764896014076828e+02 1.0000000000000000e+00 6.8758491147095953e+00 9.2537611842304894e+00 8.0645637878172654e+00 
171 1 2 9.8337474272556991e-01 -3.0133909849730406e+02 1.0000000000000000e+00 7.8767694445559950e+00 9.7891285631600891e+00 7.0718367690170778e+00 
43 1 2 1.0305894974676417e+00 -2.8062982989024022e+02 1.0000000000000000e+00 7.6067117348439206e+00 9.0075215637223227e+00 8.5900712595661908e+00 
53 1 2 1.0370230662489157e+00 -2.5204285846561888e+02 1.0000000000000000e+00 7.2042835633353466e+00 8.9684540262495887e+00 8.9136240071046160e+00 
167 1 2 9.9465900925352446e-01 -2.1547207766807449e+02 1.0000000000000000e+00 7.0643245148190710e+00 7.2443883142534453e+00 9.9297149510802907e+00 
35 1 2 1.0291226659628283e+00 -3.1150402511741078e+02 1.0000000000000000e+00 1.1342543625054864e+01 7.4512692673386871e+00 7.3854053224348002e+00 
94 1 2 1.0380649554061305e+00 -2.5517620021120874e+02 1.0000000000000000e+00 1.0616603583453687e+01 9.2426334556496581e+00 9.1630320688587865e+00 
116 1 2 1.0508336157184803e+00 -2.1879113873931266e+02 1.0000000000000000e+00 1.1552829983120910e+01 8.2352697671078747e+00 9.1929615476048046e+00 
58 1 2 1.0588360810453812e+00 -2.8075970786783358e+02 1.0000000000000000e+00 1.1890330672633777e+01 8.1749802640099123e+00 7.9493466897037601e+00 
61 1 2 1.0171170960506406e+00 -3.3057691878972383e+02 1.0000000000000000e+00 1.0510985987229212e+01 8.8243210246422077e+00 6.7339776912673983e+00 
87 1 2 1.0699254914214726e+00 -2.2336687241842998e+02 1.0000000000000000e+00 1.0879481085006871e+01 9.6001481445449102e+00 7.1354938065740443e+00 
123 1 2 1.0602302367575640e+00 -2.3826595349642898e+02 1.0000000000000000e+00 1.0021842593133330e+01 7.6012525852898669e+00 7.8303311866424758e+00 
162 1 2 1.0510269111626807e+00 -2.3370535988080493e+02 1.0000000000000000e+00 1.1748169193644857e+01 7.3526273231662005e+00 8.4370193781923000e+00 
33 1 2 1.0109102594175834e+00 -3.5513754553881023e+02 1.0000000000000000e+00 1.1631920002442660e+01 9.8830385733471751e+00 7.0668220738273968e+00 
124 1 2 1.0998513813867081e+00 -2.4033403707369484e+02 1.0000000000000000e+00 7.5533395482032111e+00 4.9536112866051116e+00 1.0146752210535626e+01 
18 1 2 1.0287710468890419e+00 -3.4192644089586543e+02 1.0000000000000000e+00 7.5150362517462233e+00 5.1920736673761825e+00 1.0427770936867431e+01 
175 1 2 9.9837670609012363e-01 -3.8134136884461719e+02 1.0000000000000000e+00 8.9675962313317168e+00 3.9289309389179587e+00 1.1266428988074672e+01 
52 1 2 1.0204186004266136e+00 -3.0175429394326892e+02 1.0000000000000000e+00 7.3144175990407261e+00 4.2545195823479354e+00 1.0055049779152700e+01 
7 1 2 1.0555591768815287e+00 -2.8766786397143005e+02 1.0000000000000000e+00 8.4633003476698274e+00 4.1822242732105961e+00 1.0667980651896258e+01 
67 1 2 1.0187389133199021e+00 -2.7980056229939424e+02 1.0000000000000000e+00 9.0082064223289624e+00 4.2540752479495438e+00 1.2019304731684212e+01 
3 1 2 1.0480853821836527e+00 -2.8222168241795373e+02 1.0000000000000000e+00 9.6792495191530623e+00 4.3428978551639670e+00 1.2113455967235316e+01 
134 1 2 9.8373778815498480e-01 -3.1466080156405934e+02 1.0000000000000000e+00 9.0687664736198368e+00 3.8958449736101137e+00 1.1400268699148530e+01 
141 1 2 1.0514246819433242e+00 -1.6017130712352574e+02 1.0000000000000000e+00 9.6260378952734307e+00 5.6224979799711639e+00 1.2832394720236445e+01 
81 1 2 1.0602319317122957e+00 -2.8941505670256720e+02 1.0000000000000000e+00 9.5820385091582896e+00 4.9895859288840985e+00 1.2580923641875826e+01 
12 1 2 1.0277908734769388e+00 -2.0518882859162994e+02 1.0000000000000000e+00 9.9694319104864153e+00 6.2060887399797009e+00 1.1600389289285149e+01 
85 1 2 1.0478921815602384e+00 -2.3957189558004154e+02 1.0000000000000000e+00 1.0644032048690995e+01 5.6125053289020848e+00 1.1464013657158642e+01 
92 1 2 1.0239275115714206e+00 -2.3119246215986442e+02 1.0000000000000000e+00 1.1900480855287734e+01 6.3581876364082444e+00 1.0643366886162436e+01 
16 1 2 1.0546307761031177e+00 -2.6895650122540030e+02 1.0000000000000000e+00 1.0319860519108612e+01 5.2814518541292195e+00 1.2237952526007842e+01 
41 1 2 1.0170786846768991e+00 -3.4098022005868836e+02 1.0000000000000000e+00 1.0905179980521099e+01 5.4673615662783117e+00 1.0987023467462823e+01 
15 1 2 1.0212470379580088e+00 -3.1062068042595945e+02 1.0000000000000000e+00 1.1173789756282652e+01 5.9398519412276114e+00 1.0156232586161662e+01 
4 1 2 1.0632204364986177e+00 -2.5775117167270867e+02 1.0000000000000000e+00 7.3837079132441295e+00 8.7877489126747275e+00 1.1022318406347043e+01 
69 1 2 1.0185817902711489e+00 -3.7705358450751203e+02 1.0000000000000000e+00 6.8997125942360018e+00 7.2296442146224233e+00 1.1893798128742411e+01 
54 1 2 9.9522394070336762e-01 -2.5721951614299707e+02 1.0000000000000000e+00 9.3799946441023287e+00 8.7531602486877969e+00 1.1741540445083128e+01 
79 1 2 1.0171093190567779e+00 -2.4056710457393655e+02 1.0000000000000000e+00 9.3879840791252569e+00 9.5405723637923270e+00 1.0500504554189622e+01 
45 1 2 1.0556858608660460e+00 -3.0518039490986166e+02 1.0000000000000000e+00 7.4181096046167321e+00 7.3868550276734330e+00 1.2169679345678682e+01 
111 1 2 1.0241825216668006e+00 -2.5547250945394924e+02 1.0000000000000000e+00 9.2538656560445620e+00 8.8380102577032176e+00 1.1385322527056749e+01 
118 1 2 1.0042028524166307e+00 -2.1012647756766003e+02 1.0000000000000000e+00 9.5804988300429059e+00 8.2208725815361863e+00 1.1376667352914259e+01 
147 1 2 1.0161092279761659e+00 -1.5124318613867055e+02 1.0000000000000000e+00 6.7799167460366174e+00 8.5342490888103963e+00 1.1931561537383976e+01 
29 1 2 1.0267512533241103e+00 -2.8862192399743151e+02 1.0000000000000000e+00 9.1511893912417168e+00 8.2576224270202552e+00 1.3091448419496604e+01 
152 1 2 9.9965401731829728e-01 -2.1493383487240820e+02 1.0000000000000000e+00 1.0021985253173787e+01 9.2765393629461563e+00 1.1027549476086230e+01 
84 1 2 9.8766753175168442e-01 -2.0878828139611889e+02 1.0000000000000000e+00 1.0319326966276826e+01 9.6280682323704667e+00 1.0196451239237105e+01 
40 1 2 1.0407225141533365e+00 -3.0344152000575838e+02 1.0000000000000000e+00 1.2945892062223544e+01 8.8927050806279055e+00 1.0691982666939715e+01 
158 1 2 1.0640041439134575e+00 -2.1490771909437751e+02 1.0000000000000000e+00 1.0639809366480335e+01 8.7922338856592184e+00 1.0323678472977470e+01 
8 1 2 1.0236507170580056e+00 -3.4052892536670788e+02 1.0000000000000000e+00 1.2506221120800024e+01 8.9124929068064951e+00 1.0558306826547973e+01 
110 1 2 1.0530129416580116e+00 -2.9763903781976359e+02 1.0000000000000000e+00 1.3012045413487606e+01 7.1232586621814535e+00 1.1298149357324338e+01 
153 1 2 1.0552898574014498e+00 -2.8894396934361743e+02 1.0000000000000000e+00 1.2693370260187297e+01 8.3420653157571447e+00 1.1306827275361961e+01 
32 1 2 1.0154767207008828e+00 -3.5935688988063703e+02 1.0000000000000000e+00 1.3186669426929749e+01 7.6445451735067147e+00 1.1580733244442289e+01 
77 1 2 9.9496501026688877e-01 -2.1838543584318143e+02 1.0000000000000000e+00 9.1650267993687553e+00 6.2808845340441204e+00 1.3829229261081240e+01 
98 1 2 1.0322052121028025e+00 -1.8889654514776115e+02 1.0000000000000000e+00 9.1969166593415341e+00 8.0974293212184651e+00 1.3484739804589474e+01 
114 1 2 1.0211659883309960e+00 -3.2360943105561859e+02 1.0000000000000000e+00 8.5203843482906176e+00 7.4815062722838714e+00 1.4230459230703799e+01 
30 1 2 1.0421495583747300e+00 -2.9661679406257298e+02 1.0000000000000000e+00 8.3965103236946828e+00 7.3637528806212718e+00 1.4061180860899633e+01 
36 1 2 9.9206305432038044e-01 -2.5058511666661443e+02 1.0000000000000000e+00 8.7512315098578366e+00 7.1492676446561800e+00 1.4442343854445529e+01 
145 1 2 1.0101000299865046e+00 -2.8400538334034019e+02 1.0000000000000000e+00 9.1071797746726766e+00 6.9316471936953850e+00 1.4313393730334608e+01 
125 1 2 1.0127968027814780e+00 -3.0057278239525255e+02 1.0000000000000000e+00 9.0737022662162019e+00 7.6060991756801410e+00 1.4295568625246451e+01 
65 1 2 1.0542753750134126e+00 -2.3205027084137853e+02 1.0000000000000000e+00 8.2986700850406887e+00 1.0215022135591068e+01 4.8584455374587776e+00 
136 1 2 1.0583158957075400e+00 -2.1760363543775051e+02 1.0000000000000000e+00 9.6607458888030919e+00 1.1026933403249554e+01 4.7677431056977611e+00 
42 1 2 1.0458248022172949e+00 -1.9230096944062120e+02 1.0000000000000000e+00 9.0703901536838938e+00 1.0819171754385883e+01 4.6798955179638764e+00 
26 1 2 1.0525785429118808e+00 -3.3026540615691783e+02 1.0000000000000000e+00 9.5505110468708931e+00 1.1457457422748945e+01 5.1942837816738470e+00 
71 1 2 1.0486870825882337e+00 -2.3440824026560216e+02 1.0000000000000000e+00 1.0094754200994887e+01 1.0518279016815987e+01 4.7063895647732981e+00 
122 1 2 1.0170316903259324e+00 -2.4047430166610135e+02 1.0000000000000000e+00 1.2076995364429965e+01 1.0056127114176995e+01 6.2557053052682425e+00 
100 1 2 1.0120581840628442e+00 -2.9306230918942504e+02 1.0000000000000000e+00 1.0643157651612237e+01 1.1332113031758732e+01 5.3954004128079101e+00 
10 1 2 1.0083894638822688e+00 -2.4499242066589011e+02 1.0000000000000000e+00 1.0410858808702505e+01 1.1957153018543268e+01 6.3022767277735028e+00 
25 1 2 1.0305209214754598e+00 -3.0728183195472945e+02 1.0000000000000000e+00 1.0778256584153947e+01 1.1444588960164019e+01 6.6644341621785861e+00 
173 1 2 1.0945912670632971e+00 -1.7210951043225913e+02 1.0000000000000000e+00 8.6234311131747567e+00 1.2120816815910798e+01 7.7055862029433762e+00 
112 1 2 1.0487501888122157e+00 -2.5897618385868230e+02 1.0000000000000000e+00 8.8822887698285733e+00 1.2424986474498166e+01 8.4469284577927350e+00 
96 1 2 1.0115480856892751e+00 -2.8697709671902055e+02 1.0000000000000000e+00 8.5371920288321164e+00 1.1676430684597420e+01 8.9404336970334413e+00 
101 1 2 1.0449250538570891e+00 -2.6930209162566308e+02 1.0000000000000000e+00 9.2815403490048549e+00 1.1324915726997334e+01 9.0244244755949143e+00 
128 1 2 1.0361750449575036e+00 -1.8217492421186475e+02 1.0000000000000000e+00 8.6774179631872439e+00 1.1465838587809914e+01 8.9842510940689042e+00 
170 1 2 1.0394444124136009e+00 -3.4713090150813764e+02 1.0000000000000000e+00 8.9223393997478375e+00 1.2434681547913982e+01 7.3231620491316605e+00 
47 1 2 1.0209580606212039e+00 -3.2315787515793301e+02 1.0000000000000000e+00 9.7224832082424246e+00 1.2581564122798216e+01 7.5544811168428092e+00 
57 1 2 1.0007159263758025e+00 -3.1251075468421385e+02 1.0000000000000000e+00 9.6358143880985700e+00 1.2564761455066581e+01 7.0588661900320178e+00 
44 1 2 1.0139704215649366e+00 -2.0380133024297331e+02 1.0000000000000000e+00 8.3875040110917229e+00 1.1829294914189921e+01 8.7275343541679824e+00 
13 1 2 1.0170331634705581e+00 -3.2445165937996853e+02 1.0000000000000000e+00 1.0469617867508425e+01 1.1073525841618755e+01 7.6597332204407120e+00 
93 1 2 1.0634858088503971e+00 -2.4759577990836226e+02 1.0000000000000000e+00 1.3431649535749930e+01 6.5187654384178373e+00 6.2363669833423421e+00 
14 1 2 9.9627362491965143e-01 -3.4534668999816580e+02 1.0000000000000000e+00 1.3608361646104429e+01 7.2487356051484220e+00 5.8408768595275156e+00 
135 1 2 1.0153780786660678e+00 -1.4943808205588510e+02 1.0000000000000000e+00 1.3432620133108003e+01 6.3924802378355325e+00 9.9545930746246380e+00 
132 1 2 1.0624140226493342e+00 -3.1254769812441106e+02 1.0000000000000000e+00 1.3954287569357186e+01 7.7695590152648011e+00 9.6330649904628043e+00 
102 1 2 1.0987246778502204e+00 -2.4789425291079880e+02 1.0000000000000000e+00 1.3398637183110070e+01 7.0532803461673428e+00 8.8761269036131090e+00 
117 1 2 1.0261422690944435e+00 -2.3408813716432422e+02 1.0000000000000000e+00 1.3856862780780704e+01 6.9836416658219163e+00 7.0341025564657906e+00 
97 1 2 1.0056685927518938e+00 -3.1815383682508468e+02 1.0000000000000000e+00 1.3866348501310556e+01 7.2295689416761979e+00 7.3166562580556578e+00 
2 1 2 1.0087570843843057e+00 -2.9403287615052886e+02 1.0000000000000000e+00 1.4039504786171026e+01 7.7467615025363115e+00 9.5218881388331980e+00 
155 1 2 1.0315149184131438e+00 -4.2668321516958940e+02 1.0000000000000000e+00 1.3805882746640506e+01 6.8171539334871571e+00 7.1881957661051006e+00 
78 1 2 1.0098111438510944e+00 -1.9885890126647610e+02 1.0000000000000000e+00 1.3949512069843315e+01 8.5355739487865598e+00 1.0906719401735970e+01 
49 1 2 1.0330194299098918e+00 -2.8570026151032852e+02 1.0000000000000000e+00 1.3991193958278762e+01 8.4682889202737606e+00 1.0747695285986360e+01 
23 1 2 1.0428211215405623e+00 -3.2323883394845620e+02 1.0000000000000000e+00 1.3731280270113972e+01 7.1922603650299965e+00 1.1106063574355094e+01 
142 1 2 8.7042619340182625e-01 -1.8411883554964328e+02 1.0000000000000000e+00 1.6827430896524799e+01 1.8420833081577282e+01 1.1365037850850339e+01 
143 1 2 8.7042619340182625e-01 -1.8082165922573873e+02 1.0000000000000000e+00 1.6827430896525851e+01 1.8420833081577808e+01 1.1365037850850337e+01 
178 1 2 8.7042619363252227e-01 -3.6487319086525952e+02 1.0000000000000000e+00 1.6827379581732611e+01 1.8420821371287747e+01 1.1365058100901932e+01 
148 1 2 8.7042619363252238e-01 -3.7177230642760196e+02 1.0000000000000000e+00 1.6827379581748016e+01 1.8420821371287854e+01 1.1365058100893901e+01 
149 1 2 8.7042619363252238e-01 -3.2440272045724964e+02 1.0000000000000000e+00 1.6827379581750510e+01 1.8420821371287595e+01 1.1365058100891622e+01 
177 1 2 8.7042619363252216e-01 -2.8225442519794399e+02 1.0000000000000000e+00 1.6827379581714833e+01 1.8420821371287850e+01 1.1365058100909852e+01 
180 1 2 4.3521309693160926e-01 -2.8602751044062416e+02 1.0000000000000000e+00 1.6621305319275177e+01 1.6723395053951929e+01 1.6103513961291416e+01 
144 1 2 4.3521309693160926e-01 -2.8131693712695971e+02 1.0000000000000000e+00 1.6621305319274366e+01 1.6723395053950767e+01 1.6103513961289639e+01 
179 1 2 4.3521309693160926e-01 -2.0035995406064905e+02 1.0000000000000000e+00 1.6621305319275265e+01 1.6723395053950913e+01 1.6103513961288229e+01 
168 1 2 1.0280843500115016e+00 -2.5863858454637511e+02 1.0000000000000000e+00 1.5950941533065842e+01 1.0165083049073251e+01 1.7625646189843881e+01 
169 1 2 1.0280068256135280e+00 -3.2666493134646873e+02 1.0000000000000000e+00 1.6033774869715977e+01 1.1111932850038555e+01 1.7942496123965302e+01 
163 1 2 1.0279749841688854e+00 -2.1072389133519005e+02 1.0000000000000000e+00 1.6044232441170767e+01 1.1105159748804333e+01 1.7959439092815177e+01 
174 1 2 1.0279699034436944e+00 -2.5787206234611597e+02 1.0000000000000000e+00 1.6038582360115491e+01 1.1107918876731057e+01 1.7953469024026010e+01 
133 1 2 1.0281130466381463e+00 -3.0815180704922773e+02 1.0000000000000000e+00 1.6055319613545059e+01 1.1106160131112283e+01 1.7951463381270372e+01 
121 1 2 1.0280626935814723e+00 -2.0558380671154228e+02 1.0000000000000000e+00 1.5962326262923098e+01 1.0168642862922233e+01 1.7612625160245820e+01 
127 1 2 1.0279569295699671e+00 -2.5426801049954008e+02 1.0000000000000000e+00 1.5940388374614097e+01 1.0167208449026743e+01 1.7621081062539293e+01 
157 1 2 1.0279606833003363e+00 -2.0712006471760409e+02 1.0000000000000000e+00 1.5941609120243712e+01 1.0169565542488925e+01 1.7614119539694578e+01 

Velocities

140 -3.7788515201045281e-01 -3.2065567440862625e-01 2.7011015746619398e-02
82 2.2334115100796040e-01 -5.2304975556975719e-02 -2.6012926599999382e-02
24 -1.0467315668560075e-01 -2.9403618791516367e-01 1.5251383739042560e-02
6 2.6771505304889692e-01 3.8243774950379111e-01 -1.3955612404112727e-01
70 2.2966353046457422e-01 -2.5134598413337988e-01 -6.1924117201006837e-02
22 -2.4255084829877893e-01 9.1115479578877820e-02 -5.9901533096540172e-02
131 -4.7298317896579661e-01 1.0540000369410292e-01 2.5585785060789556e-01
62 -1.4587215530587369e-01 -3.4900258039408427e-01 -1.3631296258319781e-01
17 1.2267731905947832e-01 -4.5725271835102438e-01 -3.8463859931033356e-01
56 -3.9447385665488674e-03 2.4720546350997333e-01 1.8475602384466422e-01
63 -4.4584045490852882e-02 1.1269008731906673e-01 8.5379072402022943e-02
154 -4.7253820975062012e-02 2.4500929266520054e-02 -3.9841429255195665e-01
74 -2.2224798165919085e-01 3.5977522008210233e-01 1.4177833445658919e-01
38 -3.0857575654903574e-01 -1.7869017755972681e-02 1.6790470320690609e-01
151 3.9388223963449050e-02 -1.0764060275510386e-01 4.4912687365483130e-02
68 4.9146737530652068e-01 7.0793139743247677e-02 -2.5074682993299124e-02
150 -6.3134207140133583e-02 4.5530565804748258e-01 1.2476429465384592e-01
160 -1.8276032406241347e-01 5.9849709069799702e-02 -6.9467658537788315e-02
139 -2.4144896918583644e-01 5.7143401376106566e-02 3.0059583792100858e-01
37 2.8328962676421593e-01 4.1496237269177789e-02 2.5723111032866425e-02
46 -2.8573998110288612e-01 -4.2294182001939595e-01 -2.6171293911886351e-01
80 3.3365600387437772e-01 -3.7962709246005749e-01 -2.6661242866460555e-01
138 -1.0922490776090249e-01 1.3678822944107269e-01 -2.4850007123180903e-01
55 3.3334155900347812e-01 -1.2711309956368605e-01 2.9771568769200141e-01
34 -2.1140709752962714e-01 1.3588742970605908e-01 -8.5782295583165830e-02
108 -2.0320842215643886e-01 6.9305107421414575e-02 -3.0266271650727522e-01
9 4.5948758752535412e-01 -1.1641861287426207e-01 1.0418503651547266e-01
113 -2.1561846726091981e-02 2.8895253642852547e-01 -6.3563844015431414e-02
48 8.8124666260148837e-03 -2.1358043096729620e-01 4.3076999694178900e-02
109 2.8326196079026245e-01 3.0674738791315076e-01 -5.8919907598825594e-02
51 3.3837466187495524e-01 -3.5497444381578608e-01 1.2881838046841823e-01
75 2.4848988932479232e-02 1.7441288462280582e-01 5.1809999858546625e-02
156 2.3885060760879084e-01 -3.7868285967316845e-01 -1.5639800498849729e-01
105 2.5391917775530293e-01 -7.0437420135804382e-02 -3.2032070603623708e-01
103 -3.0917689450388075e-01 -1.8611483090582946e-02 -3.9957334919819967e-02
76 -5.1856001104787097e-01 1.5247082486677242e-02 1.5798495110458438e-01
27 -7.3873062333900397e-02 1.0290393541322015e-01 -4.9476577854872594e-01
120 -6.1651100407876858e-02 2.1218880184679773e-01 -7.5092027406782585e-02
59 9.0481373672765542e-03 2.6320061537006373e-01 3.5535618443623196e-01
164 -9.1755268758350758e-02 1.6966940611222579e-02 2.7221743934154563e-01
137 -8.9809428227128077e-02 3.5012719049942298e-01 8.2878731795366450e-02
107 3.0293803677697125e-02 9.1452179501376824e-02 -1.0356992337906190e-01