LAMMPS data file via write_data, version 30 Jul 2016, timestep = 50400000

180 atoms
2 atom types

0.0000000000000000e+00 2.0000000000000000e+01 xlo xhi
0.0000000000000000e+00 2.0000000000000000e+01 ylo yhi
0.0000000000000000e+00 2.0000000000000000e+01 zlo zhi

Masses

1 3.896
2 4.31

Atoms # meso-molecular

6 1 2 1.0534620424444097e+00 -3.2769458924948970e+02 1.0000000000000000e+00 5.7387392106932209e+00 9.7535601016412592e+00 6.5574613438299592e+00 
70 1 2 1.0099306585743451e+00 -2.7633345667018932e+02 1.0000000000000000e+00 5.9179408836268808e+00 6.4441997185564528e+00 7.7610544670496635e+00 
101 1 2 9.8746837414094402e-01 -2.6853478447253372e+02 1.0000000000000000e+00 6.2849524179934768e+00 5.9317911106124939e+00 9.0131829716289467e+00 
128 1 2 1.0455140918400490e+00 -1.8107402934714548e+02 1.0000000000000000e+00 6.5948884911214520e+00 5.8640641960694939e+00 7.6933641380013444e+00 
56 1 2 9.8857309842644359e-01 -2.3912446499758613e+02 1.0000000000000000e+00 5.8959641329560473e+00 6.3971390638437686e+00 9.0778444003197940e+00 
68 1 2 1.0080609118662562e+00 -2.6269667571391636e+02 1.0000000000000000e+00 6.3879073676304161e+00 6.5008126560173327e+00 7.2492677021470797e+00 
114 1 2 9.7538632600983100e-01 -3.2254413649365438e+02 1.0000000000000000e+00 5.4001537607706505e+00 8.1263952248562745e+00 8.8482349076506015e+00 
66 1 2 1.0660745283752739e+00 -2.4183917818639895e+02 1.0000000000000000e+00 6.2573612465412323e+00 8.5756332492062413e+00 8.9734770003971605e+00 
62 1 2 1.0224733819279943e+00 -3.2783838564446444e+02 1.0000000000000000e+00 6.0213164857619761e+00 9.3152789194258112e+00 8.7699740907351948e+00 
131 1 2 1.0541754488779811e+00 -2.7020423256401330e+02 1.0000000000000000e+00 5.5303059088908739e+00 8.1427031074948975e+00 8.3434584187556897e+00 
36 1 2 1.0504697315260458e+00 -2.4968480363122816e+02 1.0000000000000000e+00 5.8252283479979843e+00 9.0849815991931901e+00 6.6995621765016251e+00 
82 1 2 1.0181865896793050e+00 -3.2014015824759014e+02 1.0000000000000000e+00 5.8492067630651032e+00 7.7768336435669605e+00 9.3425861254015867e+00 
150 1 2 1.0723332728482085e+00 -3.0727368599072179e+02 1.0000000000000000e+00 5.8556979029070417e+00 8.0372912448286637e+00 9.0140458786234490e+00 
160 1 2 1.0187122791654977e+00 -2.9464123087470256e+02 1.0000000000000000e+00 6.3612656167887627e+00 1.0038515219753291e+01 5.7328454237561139e+00 
44 1 2 1.0042506336602368e+00 -2.0333578969118219e+02 1.0000000000000000e+00 5.7585823719225733e+00 1.0251251624257414e+01 6.4688926949522996e+00 
45 1 2 9.9480756804452586e-01 -3.0489066584292868e+02 1.0000000000000000e+00 6.2763269449918511e+00 1.0149563452774945e+01 5.7578803574584958e+00 
38 1 2 1.0308987862269039e+00 -1.6106211683868881e+02 1.0000000000000000e+00 5.9999668693846093e+00 1.0615842706936439e+01 7.2408780190831603e+00 
23 1 2 1.0664967255869238e+00 -3.2303407705959290e+02 1.0000000000000000e+00 6.4601158018966389e+00 1.0743552203669720e+01 7.7356521382299066e+00 
17 1 2 9.6718597159851782e-01 -3.1855649985833486e+02 1.0000000000000000e+00 1.1423431417262776e+01 3.2306268138528336e+00 6.3547469280132507e+00 
48 1 2 1.0491117471386415e+00 -1.5274107661929150e+02 1.0000000000000000e+00 9.2135433027087021e+00 4.8147211725625434e+00 4.9663253763236446e+00 
76 1 2 1.0099816368531487e+00 -2.4127834816308211e+02 1.0000000000000000e+00 8.8340374986528243e+00 4.8798846130133047e+00 5.1421499614882755e+00 
115 1 2 9.9800231067252743e-01 -1.9911211213424576e+02 1.0000000000000000e+00 8.5320804545267741e+00 6.4381880019952291e+00 4.7400812321331731e+00 
57 1 2 1.0395672602243780e+00 -3.1358910702386595e+02 1.0000000000000000e+00 8.8453841085410900e+00 4.7804275165763492e+00 5.8546333730453890e+00 
171 1 2 1.0393362283337297e+00 -3.0231045338675892e+02 1.0000000000000000e+00 8.4277208190663124e+00 5.9367407651396888e+00 5.3390229489517731e+00 
58 1 2 1.0691565218063745e+00 -2.8244380218460037e+02 1.0000000000000000e+00 9.3071412677540231e+00 4.9421132874168574e+00 4.8962740790894834e+00 
99 1 2 9.7926819709988855e-01 -2.4520113125575938e+02 1.0000000000000000e+00 9.5794182349039065e+00 6.5555139847791688e+00 4.9326117944121393e+00 
14 1 2 9.4409971137731508e-01 -3.4442560904742965e+02 1.0000000000000000e+00 1.2270263758477688e+01 4.7574050101813468e+00 5.5441776959749376e+00 
117 1 2 1.0611047084916105e+00 -2.3432572196236288e+02 1.0000000000000000e+00 1.1397079515168414e+01 4.6671807022839875e+00 4.6881330617142805e+00 
18 1 2 1.0550412290778453e+00 -3.4371541086347452e+02 1.0000000000000000e+00 1.0564820850921562e+01 4.4818996730493055e+00 4.6370025944086271e+00 
9 1 2 1.0273771043300117e+00 -2.9861596872309224e+02 1.0000000000000000e+00 1.1270604223842922e+01 3.8905822919501647e+00 5.1826103364016856e+00 
80 1 2 9.9893507826036210e-01 -2.5655397258411131e+02 1.0000000000000000e+00 1.1134713323707437e+01 4.3814847759896320e+00 4.5582663288674885e+00 
97 1 2 1.0208084066713503e+00 -3.1764830261377904e+02 1.0000000000000000e+00 1.2171011519728618e+01 5.5026072824700005e+00 4.6737214217866061e+00 
155 1 2 1.0332354767866447e+00 -4.2683862824682313e+02 1.0000000000000000e+00 1.2760924889258600e+01 6.6513826876341371e+00 5.0103178660715324e+00 
85 1 2 1.0271737258961384e+00 -2.3943496301137571e+02 1.0000000000000000e+00 1.1692199960291187e+01 6.6511377776193861e+00 4.1100080776809653e+00 
88 1 2 1.0604971784374040e+00 -2.1390325929816581e+02 1.0000000000000000e+00 9.1045371702024251e+00 8.7537100609946066e+00 3.4447750563402098e+00 
90 1 2 1.0198638099673822e+00 -3.2042262116107867e+02 1.0000000000000000e+00 9.8256500907631317e+00 7.9189680843695776e+00 3.7242840362410572e+00 
165 1 2 1.0188762738939292e+00 -3.0193503121116919e+02 1.0000000000000000e+00 8.9347171393371827e+00 7.8244020302549320e+00 3.6151238935493515e+00 
113 1 2 1.0160532047334230e+00 -2.7928589579714190e+02 1.0000000000000000e+00 9.4174105849569880e+00 9.6711375455442479e+00 3.6199680588162813e+00 
138 1 2 1.0630469377545537e+00 -2.5009807976825283e+02 1.0000000000000000e+00 7.2978178068199178e+00 8.5003837300392622e+00 5.7602302221412476e+00 
34 1 2 1.0217828463640033e+00 -3.1833244290924370e+02 1.0000000000000000e+00 7.5850124300429167e+00 9.0284954787876561e+00 4.7745318927524636e+00 
106 1 2 1.0289941550483388e+00 -2.5448812442204820e+02 1.0000000000000000e+00 7.9124360011942105e+00 7.8070991186729746e+00 4.6569872139639141e+00 
22 1 2 1.0428013842046726e+00 -3.5162398624282440e+02 1.0000000000000000e+00 8.7902156767376312e+00 8.2119559702672049e+00 3.5436134482393129e+00 
4 1 2 1.0034349663496640e+00 -2.5826709438341214e+02 1.0000000000000000e+00 7.7857205420095603e+00 8.8072479633171277e+00 4.3096409335275041e+00 
110 1 2 1.0251492473155797e+00 -2.9771204844666386e+02 1.0000000000000000e+00 9.0117485010335514e+00 9.9107921064325772e+00 5.1786936080929573e+00 
83 1 2 1.0460398258054910e+00 -2.8878673458656721e+02 1.0000000000000000e+00 7.4671074703935023e+00 6.8561137037439837e+00 6.6284849560535601e+00 
162 1 2 1.0086542749533196e+00 -2.3481455664097197e+02 1.0000000000000000e+00 1.2858378068138128e+01 7.7655469194208493e+00 4.6118103022545798e+00 
3 1 2 9.7932025408554746e-01 -2.8201332832365006e+02 1.0000000000000000e+00 1.1728175330923378e+01 7.1045094985582917e+00 3.9136406113231637e+00 
1 1 2 9.7392951586275422e-01 -3.0818409846603106e+02 1.0000000000000000e+00 1.0535740115286849e+01 8.2716296866042018e+00 3.6896840758251219e+00 
116 1 2 1.0107248272849154e+00 -2.1995138406274248e+02 1.0000000000000000e+00 1.2652500011627579e+01 7.7961694448420973e+00 6.0175608586846039e+00 
26 1 2 1.0282867411752536e+00 -3.2970601917111503e+02 1.0000000000000000e+00 1.2785423771244385e+01 7.1581251568747861e+00 4.4305889839682067e+00 
156 1 2 1.0477430819318629e+00 -2.9223970127780035e+02 1.0000000000000000e+00 1.2667595572168100e+01 6.8767214523781757e+00 4.4279160133724851e+00 
28 1 2 9.8127994706598509e-01 -3.0020107334300275e+02 1.0000000000000000e+00 1.2313401741192928e+01 9.1563231807014418e+00 4.9102933954000960e+00 
73 1 2 1.0508447696819667e+00 -2.3131704530348270e+02 1.0000000000000000e+00 1.2584445409392178e+01 8.2769330911044179e+00 5.7098710632402350e+00 
125 1 2 1.0506657126671965e+00 -2.9896227382967896e+02 1.0000000000000000e+00 1.1024396539222428e+01 9.1070608131693938e+00 6.2058627954110035e+00 
122 1 2 1.0009925841982981e+00 -2.4053836958922855e+02 1.0000000000000000e+00 1.0836240704391354e+01 9.8311713013182143e+00 4.0012106088407249e+00 
72 1 2 1.0423233313154530e+00 -2.3380768461826537e+02 1.0000000000000000e+00 1.1154710649592078e+01 3.1663922586852147e+00 8.6018833239677228e+00 
164 1 2 1.0004972297865093e+00 -3.0321481003441289e+02 1.0000000000000000e+00 1.1322949298290022e+01 3.0820795919673132e+00 7.3019838379445643e+00 
59 1 2 1.0527669039881196e+00 -2.2346281036876502e+02 1.0000000000000000e+00 9.4155180005884880e+00 5.2389915953901420e+00 8.6205410546155079e+00 
159 1 2 1.0021250857119726e+00 -2.5174227522570422e+02 1.0000000000000000e+00 8.2889858077243428e+00 4.4757585275564731e+00 8.3628580883257673e+00 
103 1 2 1.0162356011434497e+00 -2.8832386994307547e+02 1.0000000000000000e+00 9.7967640709465673e+00 5.0895086198310331e+00 9.8990926457505903e+00 
19 1 2 1.0216601285483766e+00 -3.6631295234789434e+02 1.0000000000000000e+00 9.0230082426132139e+00 6.6384421414603167e+00 8.6857066336604962e+00 
10 1 2 1.0511609537022357e+00 -2.4518313960707994e+02 1.0000000000000000e+00 7.7083398718011997e+00 4.9397490762280105e+00 8.7546365299049906e+00 
53 1 2 1.0097167655323929e+00 -2.5272110137217115e+02 1.0000000000000000e+00 8.4831602978559992e+00 4.4358455893591389e+00 8.3456519907559930e+00 
109 1 2 1.0137019834497880e+00 -1.9525913270664122e+02 1.0000000000000000e+00 9.2272401055853948e+00 4.6722654852461920e+00 6.9809707353274870e+00 
112 1 2 1.0381689402720089e+00 -2.6053009722485473e+02 1.0000000000000000e+00 8.6558925504985229e+00 4.8746835835668492e+00 7.2129460321758163e+00 
24 1 2 1.0111325817910786e+00 -3.0076947303031932e+02 1.0000000000000000e+00 6.8760773131223187e+00 5.4136510276187169e+00 8.8141952309827953e+00 
154 1 2 1.0684461548724422e+00 -2.7101275683817948e+02 1.0000000000000000e+00 1.1521098899404651e+01 3.4295608830604358e+00 6.7424432229320166e+00 
130 1 2 1.0339114313443232e+00 -1.9571073074419101e+02 1.0000000000000000e+00 1.0259654869054190e+01 3.6628309577208396e+00 8.0998327340186389e+00 
20 1 2 1.0177625846295473e+00 -2.4159148775903162e+02 1.0000000000000000e+00 1.0731217013101414e+01 3.3661709186186091e+00 9.5223525553955035e+00 
89 1 2 1.0340676914099538e+00 -2.8126222371130001e+02 1.0000000000000000e+00 1.2179697247982570e+01 6.0006201029879236e+00 8.6769238501587331e+00 
51 1 2 1.0468002708225246e+00 -2.3153327715170909e+02 1.0000000000000000e+00 1.2536558318036121e+01 4.1722795435428957e+00 8.6564626316629099e+00 
93 1 2 1.0183777171579422e+00 -2.4723844060071062e+02 1.0000000000000000e+00 1.2450754218051420e+01 3.6220898405185058e+00 8.2788473643160820e+00 
2 1 2 1.0401385429012602e+00 -2.9364353782223060e+02 1.0000000000000000e+00 1.2061356352525964e+01 3.4010199731959632e+00 7.2462549679485040e+00 
75 1 2 1.0437416555212256e+00 -2.6918202792928759e+02 1.0000000000000000e+00 1.2601344910768049e+01 5.0544216121421499e+00 8.4155782843032050e+00 
161 1 2 1.0493489398499953e+00 -2.0881936084211247e+02 1.0000000000000000e+00 1.1484286452270364e+01 4.8851234870538462e+00 6.7144963119081762e+00 
49 1 2 1.0178684838413201e+00 -2.8659941577567366e+02 1.0000000000000000e+00 1.2550600339906985e+01 5.0457391136142444e+00 8.8681570594918089e+00 
61 1 2 1.0466419216387937e+00 -3.3275297667762510e+02 1.0000000000000000e+00 1.2495635717169847e+01 6.2415880618507629e+00 8.4547658599760442e+00 
21 1 2 1.0331225800018236e+00 -2.5894518257143193e+02 1.0000000000000000e+00 1.1612332462040747e+01 3.9014832273242841e+00 9.9323475837593804e+00 
35 1 2 1.0340599123317109e+00 -3.1268010840550761e+02 1.0000000000000000e+00 7.2377994490938677e+00 6.9595944825367013e+00 6.6879151067107943e+00 
140 1 2 1.0465824681138041e+00 -2.1855775079025284e+02 1.0000000000000000e+00 7.9265210428606876e+00 7.7394129348172038e+00 6.7702311586418258e+00 
111 1 2 1.0435654037753730e+00 -2.5511975449849348e+02 1.0000000000000000e+00 9.0571811077153086e+00 8.0856611128497917e+00 8.0365677501176531e+00 
30 1 2 1.0578338718612283e+00 -2.9721181173797737e+02 1.0000000000000000e+00 8.7368207112734844e+00 7.8619321601874512e+00 8.7899105741987604e+00 
39 1 2 1.0484663872930726e+00 -2.8375072456118670e+02 1.0000000000000000e+00 9.2415785691915229e+00 8.2557539492463441e+00 8.0776500569904002e+00 
46 1 2 1.0422698530846310e+00 -2.7174622656086223e+02 1.0000000000000000e+00 9.0763564388477871e+00 8.9653961864520166e+00 9.6696528942817483e+00 
69 1 2 9.9398981707866907e-01 -3.7823135175046986e+02 1.0000000000000000e+00 9.2273474340922501e+00 7.6902707902299667e+00 8.0444169630315816e+00 
126 1 2 1.0262559589748395e+00 -3.0056797528862762e+02 1.0000000000000000e+00 8.3370722887694626e+00 7.5333828666368570e+00 9.3944082456956863e+00 
170 1 2 1.0240901657574506e+00 -3.4808279841918932e+02 1.0000000000000000e+00 7.6453157560604028e+00 9.9953960055631761e+00 7.4594583966045382e+00 
47 1 2 1.0037875115503583e+00 -3.2225068418422421e+02 1.0000000000000000e+00 9.1466718137610652e+00 9.9806306905100719e+00 8.1686105873351611e+00 
15 1 2 1.0257056168121583e+00 -3.1115927859352701e+02 1.0000000000000000e+00 1.2128308664775941e+01 8.0513832789037192e+00 9.6872904263197253e+00 
27 1 2 1.0370432549178323e+00 -2.1907245909886140e+02 1.0000000000000000e+00 1.1890519455719531e+01 6.8086699313122807e+00 8.2357400138984271e+00 
71 1 2 1.0627614294530299e+00 -2.3516610141862088e+02 1.0000000000000000e+00 1.1536998140792225e+01 9.3045889543711997e+00 9.3478883109259652e+00 
33 1 2 1.0160811114703348e+00 -3.5597355086618307e+02 1.0000000000000000e+00 1.2981290006848729e+01 6.9105623004661645e+00 8.3127737359875891e+00 
91 1 2 9.7994357842559510e-01 -2.5706233863817300e+02 1.0000000000000000e+00 1.3020918091511451e+01 7.6756060817823277e+00 8.9364720848039472e+00 
107 1 2 1.0244575265465645e+00 -2.8124433046386997e+02 1.0000000000000000e+00 1.1223381285456073e+01 9.8309208063413500e+00 7.3092775489992512e+00 
79 1 2 1.0344297860409162e+00 -2.4053877241250987e+02 1.0000000000000000e+00 1.2446243895970502e+01 8.1200164519433624e+00 7.0638419273151714e+00 
102 1 2 1.1099098011517023e+00 -2.4816308401814700e+02 1.0000000000000000e+00 1.2183757865247815e+01 8.5284176320824052e+00 7.7833062696669035e+00 
32 1 2 9.9049058351026165e-01 -3.5911792019068571e+02 1.0000000000000000e+00 1.2496785573669827e+01 8.9654641744298615e+00 8.2583764062984741e+00 
92 1 2 1.0588598944748386e+00 -2.3107944358932221e+02 1.0000000000000000e+00 1.2674525355002624e+01 8.1885495087631135e+00 8.7861960233842353e+00 
98 1 2 1.0021378624629316e+00 -1.8887800121956249e+02 1.0000000000000000e+00 7.5068012492204499e+00 6.0868068323268911e+00 1.2850552923415654e+01 
37 1 2 1.0417267883764763e+00 -3.6281730987927347e+02 1.0000000000000000e+00 7.1800002860759289e+00 5.8697188908156708e+00 1.2527059526548696e+01 
134 1 2 1.0418382390303882e+00 -3.1547617064184266e+02 1.0000000000000000e+00 8.7298998728625019e+00 6.1001143854186708e+00 1.2389415656246301e+01 
141 1 2 9.9773005860644226e-01 -1.6006577708084248e+02 1.0000000000000000e+00 8.1840911435295958e+00 4.8601246798010527e+00 1.2362865059204404e+01 
25 1 2 1.0117532716229114e+00 -3.0709789716248804e+02 1.0000000000000000e+00 7.7742809376517457e+00 5.1009209488117220e+00 1.2563467565820861e+01 
153 1 2 1.0507631455820268e+00 -2.8960685479989161e+02 1.0000000000000000e+00 8.4123102379434034e+00 5.2523648473012692e+00 1.2517545756491879e+01 
151 1 2 1.0391546828547160e+00 -3.5441250014389965e+02 1.0000000000000000e+00 8.4461594871250867e+00 4.9164851557725626e+00 1.0298375531819577e+01 
5 1 2 1.0579729255826693e+00 -2.9623691035548370e+02 1.0000000000000000e+00 9.0059502769631568e+00 5.1361919619868432e+00 1.0788206217933801e+01 
87 1 2 1.0440563892897583e+00 -2.2398447565878141e+02 1.0000000000000000e+00 7.5788108053031547e+00 5.0875298232071433e+00 1.1260305238052442e+01 
176 1 2 9.9566399929202609e-01 -2.5334541388834199e+02 1.0000000000000000e+00 9.8162665228317572e+00 3.9090250178933239e+00 1.0359503406030502e+01 
7 1 2 1.0289727058042357e+00 -2.8933284773142702e+02 1.0000000000000000e+00 6.8953552043154609e+00 6.2637206172113062e+00 1.1899362758818343e+01 
52 1 2 1.0415865390318129e+00 -3.0199082607204451e+02 1.0000000000000000e+00 1.0986019135104351e+01 4.2125209737854794e+00 1.1318596515633654e+01 
16 1 2 1.0239184202630782e+00 -2.6903805108534681e+02 1.0000000000000000e+00 1.0730025133758303e+01 3.9905542919379546e+00 1.1046825959190928e+01 
67 1 2 1.0309520299995734e+00 -2.7969437934693599e+02 1.0000000000000000e+00 1.1367488965384485e+01 4.5361647893126138e+00 1.2768972478119995e+01 
81 1 2 9.9278364410030717e-01 -2.9008649456093440e+02 1.0000000000000000e+00 1.1142510709354580e+01 3.7265099676899509e+00 1.0461064877736968e+01 
124 1 2 1.0053142369297827e+00 -2.4104169407649042e+02 1.0000000000000000e+00 1.1033808969882147e+01 4.6339815884921673e+00 1.3048112078146431e+01 
13 1 2 1.0538117078064688e+00 -3.2461737940893875e+02 1.0000000000000000e+00 1.2095715397889622e+01 6.2403197455944932e+00 1.2157572542631005e+01 
132 1 2 9.9740027115914498e-01 -3.1195997590318734e+02 1.0000000000000000e+00 1.0970459610581049e+01 4.5378993878119918e+00 1.2983402050089897e+01 
119 1 2 9.9718676621537194e-01 -4.0526863617586525e+02 1.0000000000000000e+00 1.1635332075231156e+01 5.1129832184713209e+00 1.3236563746579289e+01 
105 1 2 1.0425682358718364e+00 -2.6940910616631766e+02 1.0000000000000000e+00 1.1034427063934000e+01 5.3624587010510210e+00 1.3146690349770516e+01 
78 1 2 1.0564307007964233e+00 -1.9898846982960478e+02 1.0000000000000000e+00 1.1623242321495889e+01 5.4027775584487472e+00 1.3089720115290884e+01 
175 1 2 9.9857258574383423e-01 -3.8207232801141413e+02 1.0000000000000000e+00 6.9337741292355197e+00 6.7108211079630165e+00 1.1196446298555705e+01 
31 1 2 9.9671170554335142e-01 -3.4267635906341349e+02 1.0000000000000000e+00 7.8296589996736774e+00 8.2202884031410495e+00 1.1836034423705035e+01 
50 1 2 1.0208736913465271e+00 -2.3831199807292049e+02 1.0000000000000000e+00 8.6880292109383070e+00 7.8569920446836488e+00 1.1019807110103649e+01 
29 1 2 1.0431074117760988e+00 -2.8789232298582544e+02 1.0000000000000000e+00 7.4118375270969494e+00 7.3094249254220101e+00 1.1507618238246584e+01 
94 1 2 1.0232264873464507e+00 -2.5362252972667031e+02 1.0000000000000000e+00 9.1639986887426517e+00 9.0901312527888862e+00 1.2539223570865769e+01 
137 1 2 1.0508587585785971e+00 -1.6269412586165964e+02 1.0000000000000000e+00 8.0808161668239045e+00 8.1771832322870317e+00 1.1757895989389239e+01 
95 1 2 1.0571510854046053e+00 -2.6246314953824719e+02 1.0000000000000000e+00 9.7707057524463785e+00 9.6758178648090620e+00 1.2121859063108738e+01 
96 1 2 1.0155046835517618e+00 -2.8614328445711561e+02 1.0000000000000000e+00 8.2113221997642452e+00 9.6592421921781995e+00 1.2286325966143657e+01 
158 1 2 1.0459696008390824e+00 -2.1495337717762717e+02 1.0000000000000000e+00 9.1147839215298401e+00 9.8757621763392009e+00 1.2431908275010533e+01 
41 1 2 1.0485765427279319e+00 -3.4092252433935266e+02 1.0000000000000000e+00 1.2126048085299784e+01 6.9468266409842387e+00 1.2461748752298799e+01 
166 1 2 1.0304300342554285e+00 -2.4149032921003371e+02 1.0000000000000000e+00 1.0220400977243692e+01 8.5734083112258173e+00 1.2129304848052127e+01 
65 1 2 9.8783642465004629e-01 -2.3297140319624535e+02 1.0000000000000000e+00 1.1390913651520615e+01 7.6869068558635982e+00 1.2603239418483472e+01 
84 1 2 9.6932161045970522e-01 -2.0909982567613309e+02 1.0000000000000000e+00 1.2415313004731276e+01 7.4940678141071801e+00 1.1620044924184935e+01 
54 1 2 1.0145248503375615e+00 -2.5862146636609862e+02 1.0000000000000000e+00 1.2266263167228182e+01 7.2458459688805794e+00 1.2287928254580184e+01 
152 1 2 1.0548766156488913e+00 -2.1451230115888762e+02 1.0000000000000000e+00 1.0818095783727237e+01 7.9948584671452538e+00 1.1515043833269266e+01 
173 1 2 1.0566355521741211e+00 -1.7127919948276684e+02 1.0000000000000000e+00 1.1895329094442737e+01 7.9119551629514513e+00 1.1680375525909581e+01 
129 1 2 1.0406087010602219e+00 -3.2622755389751666e+02 1.0000000000000000e+00 1.1650291275317336e+01 8.1573951378330083e+00 1.1074384225686092e+01 
120 1 2 9.8221439824398016e-01 -2.3383509731662571e+02 1.0000000000000000e+00 9.5794895791531971e+00 1.0323702284703932e+01 4.1988914259022581e+00 
139 1 2 1.0071852776546824e+00 -2.1446892064501111e+02 1.0000000000000000e+00 7.3000754105019414e+00 1.0243549909333701e+01 6.1152610935231353e+00 
63 1 2 9.8558100343429689e-01 -3.3207142270911697e+02 1.0000000000000000e+00 1.0007177077205029e+01 1.0532791378773268e+01 5.3578606434514340e+00 
108 1 2 1.0400107710425792e+00 -3.0406597992005089e+02 1.0000000000000000e+00 1.1425832080302992e+01 1.0242342724211856e+01 5.4366995774585201e+00 
167 1 2 1.0414081290784805e+00 -2.1661675723968213e+02 1.0000000000000000e+00 1.1295534051025642e+01 1.0324896190941036e+01 5.4383036623855121e+00 
12 1 2 1.0579593577088455e+00 -2.0623455646274795e+02 1.0000000000000000e+00 1.0107939750205063e+01 1.0435653188155678e+01 4.9717595393683105e+00 
77 1 2 9.8396488193288001e-01 -2.1736186366001434e+02 1.0000000000000000e+00 1.1776650857213163e+01 1.0111464651252067e+01 5.2752849502774213e+00 
172 1 2 1.0637561351514659e+00 -2.8672410008841399e+02 1.0000000000000000e+00 7.1591483863833592e+00 1.0686622874817536e+01 9.3324122708415622e+00 
135 1 2 1.0363196369548264e+00 -1.4897655212895555e+02 1.0000000000000000e+00 6.7669194697691220e+00 1.1024982534116022e+01 9.1714670751223668e+00 
104 1 2 1.0282737711459722e+00 -2.4618775858278923e+02 1.0000000000000000e+00 6.8813682290319607e+00 1.1556700500256852e+01 9.1140434366073020e+00 
86 1 2 1.0452104279682821e+00 -2.4329034519246608e+02 1.0000000000000000e+00 8.0408756902582805e+00 1.1619747772411253e+01 9.1295131313991398e+00 
8 1 2 9.9644815807550635e-01 -3.3969202487740580e+02 1.0000000000000000e+00 6.9732783192614534e+00 1.2019144464273918e+01 9.3820028246709946e+00 
100 1 2 1.0044238424115892e+00 -2.9299543395288032e+02 1.0000000000000000e+00 1.0903593672918515e+01 1.0094539889862391e+01 9.6505609310218556e+00 
55 1 2 9.9586761566900961e-01 -2.0345638442895381e+02 1.0000000000000000e+00 1.0886958071736416e+01 1.0192208680806113e+01 9.5631031120369308e+00 
136 1 2 1.0204190639555499e+00 -2.1787207063664255e+02 1.0000000000000000e+00 1.0093097420422664e+01 1.0476730743769435e+01 8.6882722878861429e+00 
145 1 2 1.0331168422677464e+00 -2.8305478876304085e+02 1.0000000000000000e+00 1.0164477438291810e+01 1.0394311754421050e+01 8.5580349190750145e+00 
60 1 2 1.0205020036893291e+00 -2.1831679101890916e+02 1.0000000000000000e+00 1.0452722158322940e+01 1.0148751350686826e+01 7.8172571081479783e+00 
64 1 2 1.0067939845367546e+00 -2.8596821085622122e+02 1.0000000000000000e+00 7.5142194445494646e+00 1.2094056156349453e+01 1.1176373101098440e+01 
74 1 2 9.9053397065448190e-01 -1.9298095622116762e+02 1.0000000000000000e+00 8.6199388119035572e+00 1.1711269191811109e+01 1.1622943848264219e+01 
40 1 2 1.0506086880770944e+00 -3.0303380115729982e+02 1.0000000000000000e+00 8.6302550847767172e+00 1.1976231200351846e+01 1.0232197030528141e+01 
118 1 2 1.0356660875236519e+00 -2.0982517482591226e+02 1.0000000000000000e+00 9.6593023288084527e+00 1.0666983284221203e+01 1.1134278170372328e+01 
43 1 2 1.0220393866416848e+00 -2.8196311263143491e+02 1.0000000000000000e+00 8.1308423242842274e+00 1.1019001742329250e+01 1.1934546491386014e+01 
42 1 2 9.9408210685551013e-01 -1.9293849404146846e+02 1.0000000000000000e+00 7.8725892665060888e+00 1.2139961747412935e+01 1.1346754257647513e+01 
146 1 2 1.0400013152863277e+00 -2.8733276243262958e+02 1.0000000000000000e+00 8.1347602827030858e+00 1.2368922930092566e+01 1.0204733656591674e+01 
123 1 2 9.8709183003246614e-01 -2.3779441246582476e+02 1.0000000000000000e+00 7.1877699114324294e+00 1.2399453423543827e+01 1.0409564005968162e+01 
11 1 2 1.0613036999474728e+00 -1.9278851537792843e+02 1.0000000000000000e+00 8.0538949515518645e+00 1.0058991583896860e+01 1.1785398973444670e+01 
147 1 2 1.0093808261291759e+00 -1.4961166560883564e+02 1.0000000000000000e+00 1.0297783729183957e+01 1.0036373410004860e+01 1.0854577945820239e+01 
142 1 2 8.7042619373983066e-01 -1.8411883557789275e+02 1.0000000000000000e+00 1.6827414387325497e+01 1.8420829314096139e+01 1.1365044365777353e+01 
143 1 2 8.7042619373983066e-01 -1.8082165925398814e+02 1.0000000000000000e+00 1.6827414387327032e+01 1.8420829314095521e+01 1.1365044365776903e+01 
178 1 2 8.7042619380152464e-01 -3.6487319087941609e+02 1.0000000000000000e+00 1.6827387836342318e+01 1.8420823255030530e+01 1.1365054843434841e+01 
148 1 2 8.7042619380152464e-01 -3.7177230644175853e+02 1.0000000000000000e+00 1.6827387836325673e+01 1.8420823255023393e+01 1.1365054843437679e+01 
149 1 2 8.7042619380152453e-01 -3.2440272047140667e+02 1.0000000000000000e+00 1.6827387836319392e+01 1.8420823255022771e+01 1.1365054843438790e+01 
177 1 2 8.7042619380152475e-01 -2.8225442521210067e+02 1.0000000000000000e+00 1.6827387836358415e+01 1.8420823255040247e+01 1.1365054843432400e+01 
180 1 2 4.3521309693160926e-01 -2.8602751044062416e+02 1.0000000000000000e+00 1.6621305319277049e+01 1.6723395053958942e+01 1.6103513961289238e+01 
144 1 2 4.3521309693160926e-01 -2.8131693712695971e+02 1.0000000000000000e+00 1.6621305319276967e+01 1.6723395053958907e+01 1.6103513961289639e+01 
179 1 2 4.3521309693160926e-01 -2.0035995406064905e+02 1.0000000000000000e+00 1.6621305319277720e+01 1.6723395053959845e+01 1.6103513961290961e+01 
168 1 2 1.0279871095502600e+00 -2.5863858542932797e+02 1.0000000000000000e+00 1.5951002831305818e+01 1.0164832864357047e+01 1.7625345012358903e+01 
169 1 2 1.0279791423487181e+00 -3.2666493163473461e+02 1.0000000000000000e+00 1.6033915731808534e+01 1.1111898981832805e+01 1.7942653281281089e+01 
163 1 2 1.0279645428929234e+00 -2.1072389163835498e+02 1.0000000000000000e+00 1.6044116664657423e+01 1.1105173655127338e+01 1.7959304949597030e+01 
174 1 2 1.0279723230368387e+00 -2.5787206274278219e+02 1.0000000000000000e+00 1.6038570219472270e+01 1.1107828286047951e+01 1.7953431520041480e+01 
133 1 2 1.0279869348758564e+00 -3.0815180844971724e+02 1.0000000000000000e+00 1.6055333719338339e+01 1.1106584941263362e+01 1.7951581507503050e+01 
121 1 2 1.0279734481673155e+00 -2.0558380725192245e+02 1.0000000000000000e+00 1.5962085695112776e+01 1.0168327168428400e+01 1.7612677735768308e+01 
127 1 2 1.0279704498132467e+00 -2.5426801099202495e+02 1.0000000000000000e+00 1.5940459731351064e+01 1.0167368758341365e+01 1.7621013125418891e+01 
157 1 2 1.0279730332343351e+00 -2.0712006519147570e+02 1.0000000000000000e+00 1.5941646186652338e+01 1.0169654775402094e+01 1.7614247967051689e+01 

Velocities

6 -1.8497181250302655e-01 1.8940779479446027e-01 5.8262290758112081e-02
70 -1.2139584502841218e-01 -1.0645541064489321e-01 5.0515927431987950e-01
101 1.2916235132818843e-01 2.7539232835743045e-02 -1.2108264272413488e-01
128 3.9668727093867340e-01 1.3762917138805220e-01 -2.7569472278278235e-02
56 -2.5314463010871796e-01 1.3595715630615324e-01 2.8361091207971767e-01
68 -7.9252314991558853e-02 -2.4922479820905880e-01 4.8104258196862132e-01
114 -6.9812147098847019e-02 -8.8506303807996789e-02 -3.3187922347206239e-01
66 9.9646240028625599e-02 1.7853980555587784e-01 1.6910045707712953e-01
62 8.3249632523495400e-03 4.6009497750651551e-02 7.7146524299984212e-02
131 -1.2212252664937460e-01 -1.4081531048264562e-01 1.4303321831587656e-01
36 -9.3124412469159243e-02 8.7199755568897804e-03 -4.6439911967099323e-01
82 -3.0656240338191990e-02 2.0986252497950161e-01 4.5838538619096136e-01
150 -1.1174920593395977e-01 -2.3795449429841464e-01 1.4558674728619111e-01
160 -2.3041221609082993e-02 -1.8216004545358247e-01 -4.1561909581277789e-01
44 9.5581464869463242e-02 3.5985301390261105e-02 -7.2477475472109740e-02
45 6.2921679399629019e-02 -1.6629403215584504e-01 -5.3943438131173971e-01
38 -3.3587142284437169e-02 5.2963842315083953e-01 1.2197355554226741e-01
23 -7.0805163371836219e-02 5.1760284061304042e-02 -1.8427938404981781e-01
17 3.1528539639240588e-01 -3.0134365309442791e-02 1.9585865538627906e-01
48 5.3633708445867359e-02 -2.8776363956451051e-01 -2.4745103773605226e-01
76 1.9507586960577183e-01 -1.4169796485671052e-01 2.9968838679702026e-01
115 1.6265258302261557e-01 2.4718124717343698e-01 -1.3740134190505882e-01
57 2.5924927572376316e-01 -2.8474541706354806e-01 -4.0036626786167755e-02
171 -2.0627358559270217e-01 2.1658161214661892e-01 2.1552696433635818e-01
58 -5.0813189470007847e-01 5.0364415368708219e-02 1.6128885341699048e-01
99 -4.7765789764802907e-01 -3.7318555013322302e-01 -3.1622576666835334e-01
14 -2.3411867213239856e-01 9.9263582159677174e-03 7.4732222418212105e-02
117 -2.6645176664470593e-01 -2.9067893970663383e-01 -1.7173988044891814e-01
18 -3.2300880607674087e-01 3.2048524598311945e-01 1.1328504181057774e-02
9 -2.3847248908958174e-02 -6.9781030128046623e-02 -3.4201458775964177e-01
80 -6.9785972837821883e-03 3.2233463516680277e-01 8.2576681682014069e-02
97 3.0833235161148019e-02 -2.5217235310011316e-01 -9.0339798446890843e-02
155 -1.8385802676950152e-02 2.4429087976363489e-01 -2.2621777492654385e-01
85 1.1918546186685641e-01 -9.3509028929333368e-02 7.3092750553578029e-02
88 -9.3483509170660548e-02 3.5500331703957205e-01 -3.1526746882887757e-01
90 9.0720051290511469e-05 7.2177476794135484e-02 -1.2697695254001337e-01
165 1.2538638375050512e-01 1.9177757550753058e-01 -2.8653505439274387e-04
113 7.3915590609504631e-02 4.6840056882327119e-01 1.8494907255780717e-02
138 -1.0090660639681250e-01 3.0521770670444065e-01 -1.9570046289580953e-01
34 -1.0294505854144284e-01 2.1194316477649650e-01 -5.7740765460394708e-02
106 4.3011083042100706e-01 7.6089997906301611e-03 2.8821228826158288e-02
22 -1.1410256214942657e-01 -7.8699133532987395e-02 3.4197471603095209e-01