LAMMPS data file via write_data, version 30 Jul 2016, timestep = 50000000

180 atoms
2 atom types

0.0000000000000000e+00 2.0000000000000000e+01 xlo xhi
0.0000000000000000e+00 2.0000000000000000e+01 ylo yhi
0.0000000000000000e+00 2.0000000000000000e+01 zlo zhi

Masses

1 3.896
2 4.31

Atoms # meso-molecular

126 1 2 1.0279999998584830e+00 -2.0586755521741185e+07 1.0000000000000000e+00 6.3303827078673125e+00 2.0352502444253160e+00 1.2293832068617617e+01 
37 1 2 1.0279999998661440e+00 -1.0660561574974250e+07 1.0000000000000000e+00 6.3220996677670351e+00 2.0162229853314040e+00 1.2286764791324369e+01 
178 1 2 1.0279999998647267e+00 -1.4720358336357482e+07 1.0000000000000000e+00 6.3233791953560772e+00 2.0192481440283356e+00 1.2287061295993567e+01 
26 1 2 1.0280000002248324e+00 -1.5612510968867417e+07 1.0000000000000000e+00 6.4563102046788741e+00 1.4668705580855366e+00 1.2213607001835191e+01 
38 1 2 1.0280000002257934e+00 -1.3355930876600984e+07 1.0000000000000000e+00 6.4585133916334687e+00 1.4648372027472141e+00 1.2212825157131322e+01 
86 1 2 1.0279999999510940e+00 -1.7701280581321757e+07 1.0000000000000000e+00 6.6220231955775448e+00 2.2977924128793537e+00 1.2325895196271015e+01 
151 1 2 1.0280000107425835e+00 -6.9777444024189170e+06 1.0000000000000000e+00 2.3472483584465191e+00 1.2015487308715393e+01 1.5516226017629549e+01 
134 1 2 1.0280000076030198e+00 -1.4222004139863979e+07 1.0000000000000000e+00 2.1504282323315724e+00 1.2110035762160559e+01 1.5437660725160228e+01 
7 1 2 1.0280000066442985e+00 -1.7434969364543561e+07 1.0000000000000000e+00 9.3065738001649145e-01 1.2962756027129823e+01 1.5530922649517944e+01 
139 1 2 1.0280000064829440e+00 -1.5251282210455721e+07 1.0000000000000000e+00 9.1957750087740575e-01 1.2973892137475683e+01 1.5538653938704218e+01 
4 1 2 1.0280000066390393e+00 -1.8907174070268922e+07 1.0000000000000000e+00 9.3029484141247121e-01 1.2963118127378753e+01 1.5531173182065196e+01 
50 1 2 1.0280000072188409e+00 -1.2058143988533992e+07 1.0000000000000000e+00 9.7163227339811742e-01 1.2923217046709647e+01 1.5503655651781170e+01 
127 1 2 1.0280000946980326e+00 -1.4240837292887202e+07 1.0000000000000000e+00 5.0980298586995438e+00 1.0586163816906087e+01 1.5200955845044842e+01 
28 1 2 1.0280001186329619e+00 -1.9452859242778141e+07 1.0000000000000000e+00 5.0878644590195981e+00 1.0563275362467571e+01 1.5108684316017408e+01 
18 1 2 1.0280001183880940e+00 -1.2499588306874441e+07 1.0000000000000000e+00 5.0878643978686142e+00 1.0563277425734595e+01 1.5108689619487871e+01 
56 1 2 1.0280001182487457e+00 -1.5263374987535333e+07 1.0000000000000000e+00 5.0878647461089681e+00 1.0563279451533141e+01 1.5108692147586771e+01 
156 1 2 1.0280001170778728e+00 -1.2991919812942941e+07 1.0000000000000000e+00 5.0878658268965262e+00 1.0563292396470743e+01 1.5108715821473345e+01 
114 1 2 1.0280001241482837e+00 -1.4702522463143880e+07 1.0000000000000000e+00 5.0878622708182233e+00 1.0563221426589530e+01 1.5108570689901745e+01 
21 1 2 1.0279999872903955e+00 -1.9990416254043024e+07 1.0000000000000000e+00 2.9187284569014200e+00 1.1849779870301093e+01 1.6860560185304262e+01 
20 1 2 1.0279999872918304e+00 -1.6158595511880454e+07 1.0000000000000000e+00 2.9187173262241641e+00 1.1849794608978030e+01 1.6860579533317228e+01 
147 1 2 1.0279999872954568e+00 -1.2367097022103090e+07 1.0000000000000000e+00 2.9186887274845161e+00 1.1849831481449639e+01 1.6860628584337661e+01 
29 1 2 1.0279999872954613e+00 -1.8659960301302858e+07 1.0000000000000000e+00 2.9186887276797204e+00 1.1849831481199022e+01 1.6860628584003550e+01 
148 1 2 1.0279999872954604e+00 -1.2350192965397693e+07 1.0000000000000000e+00 2.9186887274562601e+00 1.1849831481487788e+01 1.6860628584387243e+01 
100 1 2 1.0279999934757338e+00 -1.1640545990288865e+07 1.0000000000000000e+00 2.4016345385746942e+00 1.5504761011447975e+01 1.7278947772072996e+01 
48 1 2 1.0279999878386361e+00 -1.4881391065549742e+07 1.0000000000000000e+00 2.0079311867378618e+00 1.5056238239685879e+01 1.7189853463042965e+01 
11 1 2 1.0280000027428946e+00 -1.4185476322307877e+07 1.0000000000000000e+00 2.0586871647654830e+00 1.4860652302688354e+01 1.8190734573289983e+01 
94 1 2 1.0280000034289078e+00 -1.5247669720588919e+07 1.0000000000000000e+00 8.0730216979318026e-01 1.3586359689394328e+01 1.7045257434982084e+01 
41 1 2 1.0280000114674963e+00 -1.4880124292778309e+07 1.0000000000000000e+00 1.0876494800541836e+00 1.3390849342337354e+01 1.7259888948804068e+01 
5 1 2 1.0280000094570860e+00 -2.2655891735087026e+07 1.0000000000000000e+00 1.0007957996622794e+00 1.3420117626623043e+01 1.7200114286384590e+01 
32 1 2 1.0280000065869090e+00 -1.9643674177460629e+07 1.0000000000000000e+00 2.4610548903983922e+00 1.4523280023391711e+01 1.7596699992001419e+01 
108 1 2 1.0280000020248914e+00 -1.9314530224067394e+07 1.0000000000000000e+00 2.7315253479291508e+00 1.6140383061121760e+01 1.8323128761602860e+01 
158 1 2 1.0280000020249698e+00 -2.3843989451493032e+07 1.0000000000000000e+00 2.7315639405340599e+00 1.6140563739959571e+01 1.8322829629991496e+01 
96 1 2 1.0280000020606799e+00 -1.7013943593559571e+07 1.0000000000000000e+00 2.7399823418011104e+00 1.6144078384472611e+01 1.8311302373497071e+01 
145 1 2 1.0280000020030526e+00 -2.2014334948848400e+07 1.0000000000000000e+00 2.7257708725187388e+00 1.6139441713685212e+01 1.8328394846071941e+01 
113 1 2 1.0280000020252986e+00 -1.1638125826999649e+07 1.0000000000000000e+00 2.7316144592045011e+00 1.6140275351492260e+01 1.8323229624095568e+01 
97 1 2 1.0286993050137447e+00 5.7921400567654401e+07 1.0000000000000000e+00 1.2488224986219478e+01 7.5705609865642742e+00 1.0189485842384447e+00 
115 1 2 1.0286993050137447e+00 5.8871444802265450e+07 1.0000000000000000e+00 1.2488224986219478e+01 7.5705609865642742e+00 1.0189485842384447e+00 
106 1 2 1.0286993050137447e+00 6.1007538311673120e+07 1.0000000000000000e+00 1.2488224986219478e+01 7.5705609865642742e+00 1.0189485842384447e+00 
105 1 2 1.0286993050137447e+00 5.9477923232100807e+07 1.0000000000000000e+00 1.2488224986219478e+01 7.5705609865642742e+00 1.0189485842384447e+00 
64 1 2 1.0286993050137447e+00 6.6069176698570013e+07 1.0000000000000000e+00 1.2488224986219478e+01 7.5705609865642742e+00 1.0189485842384447e+00 
13 1 2 1.0286993050137454e+00 6.0057810805482388e+07 1.0000000000000000e+00 1.2488224986219478e+01 7.5705609865642733e+00 1.0189485842384414e+00 
70 1 2 1.0279999999900906e+00 -1.7401598243955981e+07 1.0000000000000000e+00 6.6725370454912376e+00 2.3162950140366991e+00 1.2321641630054955e+01 
27 1 2 1.0279999996686848e+00 -1.4162989497751310e+07 1.0000000000000000e+00 8.6857393751085059e+00 2.2919433079947987e-01 1.2967909126541633e+01 
111 1 2 1.0279999996679934e+00 -1.8188674083173066e+07 1.0000000000000000e+00 8.6849370526591088e+00 2.2977313589942447e-01 1.2966590109020768e+01 
159 1 2 1.0279999988794288e+00 -2.0052302526386477e+07 1.0000000000000000e+00 8.0115017919795033e+00 6.1176638397011462e-01 1.2822088499796456e+01 
69 1 2 1.0279999997349751e+00 -1.7470081879131358e+07 1.0000000000000000e+00 8.9257465042809070e+00 1.8109558585768795e-01 1.3064286704295405e+01 
14 1 2 1.0279999999915965e+00 -1.2152484385525685e+07 1.0000000000000000e+00 8.4338086274123683e+00 4.5181642625991412e+00 1.1310218103133250e+01 
92 1 2 1.0279999999915963e+00 -1.7429761024177468e+06 1.0000000000000000e+00 8.4338086274139936e+00 4.5181642625977982e+00 1.1310218103133215e+01 
39 1 2 1.0279999999915965e+00 -1.8407355697254352e+07 1.0000000000000000e+00 8.4338086273952140e+00 4.5181642626000107e+00 1.1310218103103141e+01 
101 1 2 1.0279999999915961e+00 -1.4871151445681624e+07 1.0000000000000000e+00 8.4338086273947894e+00 4.5181642626014167e+00 1.1310218103105578e+01 
130 1 2 1.0279999999915963e+00 -1.2954958606228910e+07 1.0000000000000000e+00 8.4338086274043516e+00 4.5181642625987886e+00 1.1310218103117437e+01 
122 1 2 1.0279999999915963e+00 -1.9584309306446873e+07 1.0000000000000000e+00 8.4338086277933826e+00 4.5181642627239365e+00 1.1310218104133096e+01 
51 1 2 1.0279999999915965e+00 3.8115614693605453e+06 1.0000000000000000e+00 8.4338086270430743e+00 4.5181642629220313e+00 1.1310218103183434e+01 
67 1 2 1.0280000881316815e+00 -1.5820970116379259e+07 1.0000000000000000e+00 7.3263148693967404e+00 8.8116728765667727e+00 1.4089939958042269e+01 
62 1 2 1.0280000881316815e+00 -1.5681097774536980e+07 1.0000000000000000e+00 7.3263148693947269e+00 8.8116728765673322e+00 1.4089939958039679e+01 
53 1 2 1.0280000881316822e+00 -8.8861403587351069e+06 1.0000000000000000e+00 7.3263148693941726e+00 8.8116728765666466e+00 1.4089939958040132e+01 
16 1 2 1.0280000881316813e+00 -1.7677234586393856e+07 1.0000000000000000e+00 7.3263148693929949e+00 8.8116728765655310e+00 1.4089939958040603e+01 
17 1 2 1.0280000881316820e+00 -1.5830647329846874e+07 1.0000000000000000e+00 7.3263148693930153e+00 8.8116728765656642e+00 1.4089939958040445e+01 
133 1 2 1.0280000881316820e+00 -1.3977551701345500e+07 1.0000000000000000e+00 7.3263148693847091e+00 8.8116728765652308e+00 1.4089939958033550e+01 
142 1 2 1.0281365580166077e+00 -5.7088416534125008e+07 1.0000000000000000e+00 1.1360085183110366e+01 9.1000160102778942e+00 1.6791963423426203e+01 
163 1 2 1.0281365580166077e+00 -5.9014544074204810e+07 1.0000000000000000e+00 1.1360085183110366e+01 9.1000160102778942e+00 1.6791963423426203e+01 
170 1 2 1.0281365580166077e+00 -5.8342545915433019e+07 1.0000000000000000e+00 1.1360085183110366e+01 9.1000160102778942e+00 1.6791963423426203e+01 
169 1 2 1.0281365580166077e+00 -6.7178810729438007e+07 1.0000000000000000e+00 1.1360085183110366e+01 9.1000160102778942e+00 1.6791963423426203e+01 
93 1 2 1.0281365580166077e+00 -6.1430141949526563e+07 1.0000000000000000e+00 1.1360085183110366e+01 9.1000160102778942e+00 1.6791963423426203e+01 
25 1 2 1.0281365580166077e+00 -6.1628045381023720e+07 1.0000000000000000e+00 1.1360085183110366e+01 9.1000160102778942e+00 1.6791963423426203e+01 
119 1 2 1.0282768613527447e+00 -4.8084022206109002e+07 1.0000000000000000e+00 1.1619415523479271e+01 8.2757098582188444e+00 1.8737734623288411e+01 
164 1 2 1.0282768613527447e+00 -5.9550001093042970e+07 1.0000000000000000e+00 1.1619415523479271e+01 8.2757098582188444e+00 1.8737734623288411e+01 
54 1 2 1.0282768613527447e+00 -4.8365623668867484e+07 1.0000000000000000e+00 1.1619415523479271e+01 8.2757098582188444e+00 1.8737734623288411e+01 
121 1 2 1.0282768613527447e+00 -5.0655088259836704e+07 1.0000000000000000e+00 1.1619415523479271e+01 8.2757098582188444e+00 1.8737734623288411e+01 
19 1 2 1.0263712686218238e+00 -1.0868245357438500e+08 1.0000000000000000e+00 1.2329572672483891e+01 8.2151258092075334e+00 1.9531097125699088e+01 
141 1 2 1.0279999999837652e+00 -1.2113988643673018e+07 1.0000000000000000e+00 1.0962993298072817e+01 1.4084413405253891e+01 9.4122670379156297e+00 
174 1 2 1.0280000000915051e+00 -1.7840741141490299e+07 1.0000000000000000e+00 1.0844956863401771e+01 1.4030895067167345e+01 9.3719707538963242e+00 
76 1 2 1.0280000001739937e+00 -1.8729976386116825e+07 1.0000000000000000e+00 1.0709010676831785e+01 1.3904521692705208e+01 9.2591539343744600e+00 
59 1 2 1.0280000001722913e+00 -8.1777658519129232e+06 1.0000000000000000e+00 1.0694097051359192e+01 1.3884557281114727e+01 9.2340999686122434e+00 
175 1 2 1.0279999998746605e+00 -1.8862293491228938e+07 1.0000000000000000e+00 1.1531501873836667e+01 1.3606202179274492e+01 8.8182571034062587e+00 
78 1 2 1.0279999998637381e+00 -2.1041915765757132e+07 1.0000000000000000e+00 1.1514198879160480e+01 1.3643833156472475e+01 8.7489706899951116e+00 
173 1 2 1.0279999998616707e+00 -2.2922626096078932e+07 1.0000000000000000e+00 1.1500703992126873e+01 1.3743242575611264e+01 8.6811387116821539e+00 
117 1 2 1.0279999998843077e+00 -8.9769616073577590e+06 1.0000000000000000e+00 1.1340516975383991e+01 1.3841496539675829e+01 8.5585025962649883e+00 
176 1 2 1.0279999983992125e+00 -2.1449519840155255e+07 1.0000000000000000e+00 1.1199647008622110e+01 1.6173488405237659e+01 1.2351735615970751e+01 
104 1 2 1.0279999984116681e+00 -9.6197360390587244e+06 1.0000000000000000e+00 1.1190029773478900e+01 1.6175066974339472e+01 1.2358076723628164e+01 
79 1 2 1.0279999984116439e+00 -1.1059523217959229e+07 1.0000000000000000e+00 1.1190045163487584e+01 1.6175075641945050e+01 1.2358053355409385e+01 
123 1 2 1.0279999984116530e+00 -1.8968556720486253e+07 1.0000000000000000e+00 1.1190038336932764e+01 1.6175071857159317e+01 1.2358063651641761e+01 
43 1 2 1.0279999984116446e+00 -1.1124677082660124e+07 1.0000000000000000e+00 1.1190045159443324e+01 1.6175075639731325e+01 1.2358053361476269e+01 
162 1 2 1.0279999984072079e+00 -1.6910527203234289e+07 1.0000000000000000e+00 1.1194456249990267e+01 1.6186039213819662e+01 1.2342204918352085e+01 
23 1 2 1.0279999996879519e+00 -1.5594241057990860e+07 1.0000000000000000e+00 9.2089034837226702e+00 1.9698150727087789e+01 1.3074387809364984e+01 
172 1 2 1.0280000003826240e+00 -8.3780502956317570e+06 1.0000000000000000e+00 9.4353118459028043e+00 1.9879609797104084e+01 1.3049741797241037e+01 
89 1 2 1.0279999996630511e+00 -8.6774182408570386e+06 1.0000000000000000e+00 8.8033056058384513e+00 1.9997760983680909e+01 1.2982893756884614e+01 
85 1 2 1.0280000007379295e+00 -1.6504743397186235e+07 1.0000000000000000e+00 1.2183327230450235e+01 1.8152601188550136e+01 1.2809729674911656e+01 
3 1 2 1.0279999990279760e+00 -2.0222200430157904e+07 1.0000000000000000e+00 1.1016111710716421e+01 1.8686275222796631e+01 1.3331061433659583e+01 
146 1 2 1.0279996501957325e+00 -2.1652708472450562e+07 1.0000000000000000e+00 6.9460192358652915e+00 1.0117626391750283e+01 1.5138801174437750e+01 
47 1 2 1.0279996501940565e+00 -1.2526457902315874e+07 1.0000000000000000e+00 6.9460220563992561e+00 1.0117623973435860e+01 1.5138799852107914e+01 
152 1 2 1.0279994424098968e+00 -1.9382033202888202e+07 1.0000000000000000e+00 8.7249505612380087e+00 1.1926564927689599e+01 1.6647341573244443e+01 
10 1 2 1.0279994424098966e+00 -1.3123435168163579e+07 1.0000000000000000e+00 8.7249505612378311e+00 1.1926564927689348e+01 1.6647341573244958e+01 
107 1 2 1.0279994424098966e+00 -1.1016506020981021e+07 1.0000000000000000e+00 8.7249505612361951e+00 1.1926564927688581e+01 1.6647341573247797e+01 
166 1 2 1.0279994424098966e+00 -1.7555696315237053e+07 1.0000000000000000e+00 8.7249505612371188e+00 1.1926564927688878e+01 1.6647341573246361e+01 
160 1 2 1.0279994424098966e+00 -1.4846063052566731e+07 1.0000000000000000e+00 8.7249505612371436e+00 1.1926564927688963e+01 1.6647341573246226e+01 
161 1 2 1.0279994424098968e+00 -1.4805871853444532e+07 1.0000000000000000e+00 8.7249505612373373e+00 1.1926564927689114e+01 1.6647341573245814e+01 
74 1 2 1.0279994424098966e+00 -1.4159743736650489e+07 1.0000000000000000e+00 8.7249505612377209e+00 1.1926564927689206e+01 1.6647341573245260e+01 
2 1 2 1.0280000016617430e+00 -1.7003837405128762e+07 1.0000000000000000e+00 1.2919909160278873e+01 1.3069653099370486e+01 1.6314550273862039e+01 
120 1 2 1.0280000016617430e+00 -1.7754783791767947e+07 1.0000000000000000e+00 1.2919909160278873e+01 1.3069653099370486e+01 1.6314550273862039e+01 
9 1 2 1.0280000016617430e+00 -1.1544397094099738e+07 1.0000000000000000e+00 1.2919909160278873e+01 1.3069653099370486e+01 1.6314550273862039e+01 
144 1 2 1.0279999989003925e+00 -1.5332001842872610e+07 1.0000000000000000e+00 1.2945382852534509e+01 1.3996107604007404e+01 1.3750283330720961e+01 
103 1 2 1.0279999989003918e+00 -1.4363079104036212e+07 1.0000000000000000e+00 1.2945382852534681e+01 1.3996107604006845e+01 1.3750283330719489e+01 
6 1 2 1.0279999989003923e+00 -1.6469689387429532e+07 1.0000000000000000e+00 1.2945382852534348e+01 1.3996107604006331e+01 1.3750283330719292e+01 
15 1 2 1.0279999989003916e+00 -1.3046255003427565e+07 1.0000000000000000e+00 1.2945382852534550e+01 1.3996107604006518e+01 1.3750283330719164e+01 
165 1 2 1.0279999989003923e+00 -1.8186483301993668e+07 1.0000000000000000e+00 1.2945382852534298e+01 1.3996107604006319e+01 1.3750283330719377e+01 
55 1 2 1.0279999990280124e+00 -1.3663043726001717e+07 1.0000000000000000e+00 1.1102115307735687e+01 1.8697847103834128e+01 1.3407764721576040e+01 
88 1 2 1.0279999990311266e+00 -9.0436785928684678e+06 1.0000000000000000e+00 1.1109668987977132e+01 1.8698237441509573e+01 1.3413828144132998e+01 
109 1 2 1.0280000031880234e+00 -2.1766636926788088e+07 1.0000000000000000e+00 1.2700920697838516e+01 1.7557531342219033e+01 1.3756221801934265e+01 
82 1 2 1.0280000031842738e+00 -1.8397672319164090e+07 1.0000000000000000e+00 1.2700847563927773e+01 1.7557271909741981e+01 1.3755455411675866e+01 
129 1 2 1.0280000032266507e+00 -1.0780996983371761e+07 1.0000000000000000e+00 1.2701661628801828e+01 1.7560172951385340e+01 1.3763982641890689e+01 
157 1 2 1.0279999990933024e+00 -8.6479092880299333e+06 1.0000000000000000e+00 1.1272714896825120e+01 1.8690797070445271e+01 1.3533827540874571e+01 
60 1 2 1.0279999887551141e+00 -1.0668537227875162e+07 1.0000000000000000e+00 1.2716679468744790e+01 1.8026638804132538e+01 1.4841399308764208e+01 
63 1 2 1.0279999986008836e+00 -1.0578400242857460e+07 1.0000000000000000e+00 1.2449033185532798e+01 1.3464026032786853e+01 1.7324011298625969e+01 
44 1 2 1.0279999986008819e+00 -1.3808414287484450e+07 1.0000000000000000e+00 1.2449033185562829e+01 1.3464026032796227e+01 1.7324011298636158e+01 
30 1 2 1.0279999986008830e+00 -1.6137249101363618e+07 1.0000000000000000e+00 1.2449033185543332e+01 1.3464026032789457e+01 1.7324011298629795e+01 
98 1 2 1.0279999986008821e+00 -1.8346511537436362e+07 1.0000000000000000e+00 1.2449033185543081e+01 1.3464026032788915e+01 1.7324011298629888e+01 
128 1 2 1.0279999986008830e+00 -6.0670226530878330e+06 1.0000000000000000e+00 1.2449033185536306e+01 1.3464026032786334e+01 1.7324011298627759e+01 
57 1 2 1.0280882425222033e+00 -2.3953793295352407e+07 1.0000000000000000e+00 1.4137630831815137e+01 7.0636979382637470e+00 3.7535364873733705e+00 
177 1 2 1.0280882425222033e+00 -2.9222076948494315e+07 1.0000000000000000e+00 1.4137630831815137e+01 7.0636979382637470e+00 3.7535364873733705e+00 
65 1 2 1.0280882425222033e+00 -2.8248569983702265e+07 1.0000000000000000e+00 1.4137630831815137e+01 7.0636979382637470e+00 3.7535364873733705e+00 
77 1 2 1.0280882425222033e+00 -2.9262491160570022e+07 1.0000000000000000e+00 1.4137630831815137e+01 7.0636979382637470e+00 3.7535364873733705e+00 
58 1 2 1.0280882425222033e+00 -2.4386299382267002e+07 1.0000000000000000e+00 1.4137630831815137e+01 7.0636979382637470e+00 3.7535364873733705e+00 
95 1 2 1.0280882425222033e+00 -2.4731800213720620e+07 1.0000000000000000e+00 1.4137630831815137e+01 7.0636979382637470e+00 3.7535364873733705e+00 
34 1 2 1.0280882425222033e+00 -2.8457357847620267e+07 1.0000000000000000e+00 1.4137630831815137e+01 7.0636979382637470e+00 3.7535364873733705e+00 
91 1 2 1.0280003076960005e+00 -1.6091860018966850e+07 1.0000000000000000e+00 1.6498115933697978e+01 8.6821844379228281e+00 6.2363393338227500e+00 
49 1 2 1.0280003076960005e+00 -1.1735646934318108e+07 1.0000000000000000e+00 1.6498115933698365e+01 8.6821844379226754e+00 6.2363393338226825e+00 
8 1 2 1.0280003076960003e+00 -1.3487858837227264e+07 1.0000000000000000e+00 1.6498115933698095e+01 8.6821844379229027e+00 6.2363393338225688e+00 
99 1 2 1.0280003076960003e+00 -1.4002655855373178e+07 1.0000000000000000e+00 1.6498115933698095e+01 8.6821844379229027e+00 6.2363393338225688e+00 
90 1 2 1.0280003076959996e+00 -2.0729114064671610e+07 1.0000000000000000e+00 1.6498115933698397e+01 8.6821844379228299e+00 6.2363393338224480e+00 
12 1 2 1.0280003076959998e+00 -1.7966195733546555e+07 1.0000000000000000e+00 1.6498115933698003e+01 8.6821844379229258e+00 6.2363393338225990e+00 
52 1 2 1.0280028592215853e+00 -1.0812283460502448e+07 1.0000000000000000e+00 1.6986380661368578e+01 9.9622887827769695e+00 7.1240074609242647e+00 
124 1 2 1.0279966565771104e+00 -1.0954211112414926e+07 1.0000000000000000e+00 1.8426076437993654e+01 1.1574396499962571e+01 8.6926816235522839e+00 
72 1 2 1.0279966565868659e+00 -1.9847291059664711e+07 1.0000000000000000e+00 1.8426056160697815e+01 1.1574417219265181e+01 8.6926754656401322e+00 
22 1 2 1.0279966569335497e+00 -1.7796672506292336e+07 1.0000000000000000e+00 1.8427212498894900e+01 1.1573474932751875e+01 8.6927329482488584e+00 
24 1 2 1.0279966555133995e+00 -1.3427572343071744e+07 1.0000000000000000e+00 1.8425938169011921e+01 1.1574192938734425e+01 8.6930554626658534e+00 
68 1 2 1.0279966562306078e+00 -1.9376187155396260e+07 1.0000000000000000e+00 1.8426097341454760e+01 1.1574272843174903e+01 8.6928113805150549e+00 
168 1 2 1.0279974088989099e+00 -2.3427295490081996e+07 1.0000000000000000e+00 1.8338660667117107e+01 1.1484548976678035e+01 8.8148434102425224e+00 
80 1 2 1.0280048439959839e+00 -1.6869808882644635e+07 1.0000000000000000e+00 1.7489065359199170e+01 1.0308766011268069e+01 7.5245595329196373e+00 
40 1 2 1.0280048439962390e+00 -1.7308743148333304e+07 1.0000000000000000e+00 1.7489065285392687e+01 1.0308765631320568e+01 7.5245596123743956e+00 
135 1 2 1.0280048439962035e+00 -3.8824890186351803e+06 1.0000000000000000e+00 1.7489065295626666e+01 1.0308765684005492e+01 7.5245596013569447e+00 
167 1 2 1.0280000000580063e+00 -1.9387591860577311e+07 1.0000000000000000e+00 1.5604403969441382e+01 1.2530034033423370e+01 1.2697587115929599e+01 
171 1 2 1.0280000000569123e+00 -1.2012355401405182e+07 1.0000000000000000e+00 1.6689481878678862e+01 1.3049450766421085e+01 1.2167957633782134e+01 
125 1 2 1.0280000001477834e+00 -6.6158742134836894e+06 1.0000000000000000e+00 1.7366795300261025e+01 1.2400475837826965e+01 1.3124817267312450e+01 
73 1 2 1.0280000000821801e+00 -1.9312948993496150e+07 1.0000000000000000e+00 1.7249844773378300e+01 1.3765006097241715e+01 1.2623117425189669e+01 
42 1 2 1.0280000000723708e+00 -1.7404884855705135e+07 1.0000000000000000e+00 1.7146125184616423e+01 1.3847990287653237e+01 1.2679743625997091e+01 
71 1 2 1.0280000000723719e+00 -1.6037077585429017e+07 1.0000000000000000e+00 1.7146123871399919e+01 1.3847990408249018e+01 1.2679741716154876e+01 
36 1 2 1.0280000000723704e+00 -1.8908796378232129e+07 1.0000000000000000e+00 1.7146124009401188e+01 1.3847990395615708e+01 1.2679741917001248e+01 
35 1 2 1.0280000000723710e+00 -1.7925371417954069e+07 1.0000000000000000e+00 1.7146116324741577e+01 1.3847991092992229e+01 1.2679730710349034e+01 
1 1 2 1.0279999997393201e+00 -1.4051427554574415e+07 1.0000000000000000e+00 1.6135205176271999e+01 1.1782997699632528e+01 1.4027408126989434e+01 
31 1 2 1.0279999997374993e+00 -1.7239372396195341e+07 1.0000000000000000e+00 1.6128086664140227e+01 1.1783332072932032e+01 1.4027957881937677e+01 
102 1 2 1.0279999997370826e+00 -1.5927222393389774e+07 1.0000000000000000e+00 1.6126427922859108e+01 1.1783414169208752e+01 1.4028079734802656e+01 
131 1 2 1.0279999997367260e+00 -1.6146204059310360e+07 1.0000000000000000e+00 1.6124993933722674e+01 1.1783494767952012e+01 1.4028193247518725e+01 
179 1 2 1.0279999997363689e+00 -1.5124188683797516e+07 1.0000000000000000e+00 1.6123545668926287e+01 1.1783584156895973e+01 1.4028314283152493e+01 
81 1 2 1.0280000013580841e+00 -1.4981323932688667e+07 1.0000000000000000e+00 1.4035505634725926e+01 1.2951001740475766e+01 1.3848938933364895e+01 
137 1 2 1.0280000013757875e+00 -1.7991236292261723e+07 1.0000000000000000e+00 1.4036007454163068e+01 1.2950541024183080e+01 1.3856562717196235e+01 
112 1 2 1.0279999980053378e+00 -1.1575026701689074e+07 1.0000000000000000e+00 1.4168758924624216e+01 1.3374016389442001e+01 1.3562264026036202e+01 
155 1 2 1.0279999960671455e+00 -1.3054055942803424e+07 1.0000000000000000e+00 1.8885598585989978e+01 1.4782336294684077e+01 1.6097479445710817e+01 
46 1 2 1.0279999957273618e+00 -1.8199428103322208e+07 1.0000000000000000e+00 1.8922494724019035e+01 1.5243862027149206e+01 1.6126099804938217e+01 
136 1 2 1.0279999957270443e+00 -6.9981587531222608e+06 1.0000000000000000e+00 1.8922866485086118e+01 1.5244849263081429e+01 1.6126945694574808e+01 
154 1 2 1.0279999956913455e+00 -1.4023445695078664e+07 1.0000000000000000e+00 1.8933236869312275e+01 1.5255448877547305e+01 1.6142408699520733e+01 
153 1 2 1.0280000030403400e+00 -1.6870369027933229e+07 1.0000000000000000e+00 1.3678465028659208e+01 1.7828839981546263e+01 1.6414857838037300e+01 
116 1 2 1.0280000030397329e+00 -2.0208798993707635e+07 1.0000000000000000e+00 1.3679243203527729e+01 1.7828737111253005e+01 1.6414730313606775e+01 
75 1 2 1.0279999987874007e+00 -1.6170924649248773e+07 1.0000000000000000e+00 1.3383495239455144e+01 1.7969044506553477e+01 1.6255880851361500e+01 
45 1 2 1.0279999990865714e+00 -1.4166431451662956e+07 1.0000000000000000e+00 1.3388335463036507e+01 1.7981642735696546e+01 1.6253919554713672e+01 
180 1 2 1.0280000003342646e+00 -2.0049092874589533e+07 1.0000000000000000e+00 1.3525140817087671e+01 1.8096513230325307e+01 1.6198931944866782e+01 
61 1 2 1.0280000003360368e+00 -1.5692610707681237e+07 1.0000000000000000e+00 1.3534658847694727e+01 1.8098057105364617e+01 1.6195533694204908e+01 
140 1 2 1.0280000024251092e+00 -1.1257749095055284e+07 1.0000000000000000e+00 1.8380934896151839e+01 1.4628703330986372e+01 1.6752613184140156e+01 
33 1 2 1.0280000044755080e+00 -1.5240086280173972e+07 1.0000000000000000e+00 1.7594388270231562e+01 1.5404872232978811e+01 1.6697851531319369e+01 
118 1 2 1.0280000049694866e+00 -1.4556046712278854e+07 1.0000000000000000e+00 1.7619701156232964e+01 1.5607010631005112e+01 1.6901808349452772e+01 
138 1 2 1.0280000042286248e+00 -1.9435187783546723e+07 1.0000000000000000e+00 1.7697171036444949e+01 1.5564844677206418e+01 1.7069220972303096e+01 
84 1 2 1.0280000051139533e+00 -1.7001164201992121e+07 1.0000000000000000e+00 1.7622520324111523e+01 1.5573596841340322e+01 1.6942697896393565e+01 
132 1 2 1.0280000014418955e+00 -2.2468731552084755e+07 1.0000000000000000e+00 1.6147726911549452e+01 1.7291083351676622e+01 1.8802630181659755e+01 
150 1 2 1.0280000007623005e+00 -1.2901406290701134e+07 1.0000000000000000e+00 1.6273261793921431e+01 1.7211485459050376e+01 1.8766359660396123e+01 
66 1 2 1.0280000016427688e+00 -2.1414808969600428e+07 1.0000000000000000e+00 1.6102298263173708e+01 1.7319192827063095e+01 1.8806376350885142e+01 
83 1 2 1.0280000009194850e+00 -1.5075734828905791e+07 1.0000000000000000e+00 1.5221838570385017e+01 1.7349730310964802e+01 1.8140850542914013e+01 
87 1 2 1.0279999960724953e+00 -1.4802674861842155e+07 1.0000000000000000e+00 1.5203424542754975e+01 1.7364515503070876e+01 1.7937344739304887e+01 
110 1 2 1.0279999975163787e+00 -1.8079500785878554e+07 1.0000000000000000e+00 1.5204307306183614e+01 1.7360081689212944e+01 1.7932148976455984e+01 
149 1 2 1.0279999993822857e+00 -1.7246821733142853e+07 1.0000000000000000e+00 1.6476385256743956e+01 1.7078976688348948e+01 1.8608041575345894e+01 
143 1 2 1.0279999996320919e+00 -1.4730215249867914e+07 1.0000000000000000e+00 1.6443955097417440e+01 1.7102376677185646e+01 1.8644095279920442e+01 

Velocities

126 -8.0029405466159818e-07 2.3826758801165942e-07 -2.2037426869002634e-07
37 -7.8165021785756602e-07 2.1450916999925627e-07 -2.3047566320250911e-07
178 -7.8486090795123278e-07 2.1798872272599605e-07 -2.2976972667569106e-07
26 -3.1870427783868434e-07 8.5755686766192012e-07 -6.8445671230550100e-08
38 -3.2208305245027270e-07 8.6299172459131855e-07 -6.6059180103667132e-08
86 -5.8282278296657916e-07 3.7879063037859813e-07 -1.7494701873084909e-07
151 2.7306850870087814e-04 -1.2207288580020151e-04 -1.1132168708651993e-05
134 1.5456032936069051e-04 -7.0124689227027144e-05 -2.3283512733694011e-05
7 2.9673134364842703e-05 7.1195099657640540e-06 9.0428339019464393e-05
139 3.1163195040280970e-05 5.4865911412397028e-06 8.9379140579136954e-05
4 2.9722673286222254e-05 7.0662931622741947e-06 9.0394981389917183e-05
50 2.3907781014837144e-05 1.2784536287556184e-05 9.3642858869006970e-05
127 -2.7849642051826202e-04 -2.2459995157236541e-04 -4.1968673133390848e-04
28 -4.8699962176335570e-05 -2.1681960586670019e-04 -2.5164787482422575e-05
18 -4.8776147148276144e-05 -2.1679931752768394e-04 -2.5205655930579908e-05
56 -4.8820535905532485e-05 -2.1679277111464584e-04 -2.5226091375252808e-05
156 -4.9189724724346371e-05 -2.1671330350676114e-04 -2.5411928913850484e-05
114 -4.6995819555476387e-05 -2.1722334335299673e-04 -2.4280124005644486e-05
21 2.6933089797558026e-04 -1.4667741972472848e-04 -2.3479314373234749e-04
20 2.6931462838148719e-04 -1.4666817584138171e-04 -2.3478305987180228e-04
147 2.6927341381100748e-04 -1.4664470209205339e-04 -2.3475741959160226e-04
29 2.6927341420491239e-04 -1.4664470234585758e-04 -2.3475741962078787e-04
148 2.6927341501082447e-04 -1.4664470309788024e-04 -2.3475741796972685e-04
100 3.4967814122783598e-05 1.4125167039308278e-05 -4.6007356876238693e-05
48 -2.1957491559228536e-05 1.2225589088348123e-05 -1.0915521262890261e-04
11 2.7364857123563295e-05 -3.8168800111519487e-06 -1.6282179404760583e-05
94 6.6710092471378797e-05 -4.5216932841084694e-05 -5.9565071006296617e-05
41 6.1589117131305722e-05 4.5208468282335234e-07 -1.3744553162486803e-04
5 6.8793515799078095e-05 -9.2436350565693764e-06 -1.1617415605450237e-04
32 -1.3537556726372788e-04 3.7443076793428543e-05 1.5161803303260049e-05
108 -3.4780670085211963e-06 -4.1258836811803265e-05 8.5890722887508353e-06
158 -3.4796853173707729e-06 -4.1281612171672410e-05 8.6535931113322950e-06
96 -4.8811764969759194e-06 -4.1589720620662939e-05 1.1060457020229455e-05
145 -2.4442098446637079e-06 -4.1181683112570116e-05 7.5298814551799410e-06
113 -3.4976829130418453e-06 -4.1244100819507657e-05 8.5659785380578715e-06
97 -6.3131988090811419e-01 -5.6290966792650950e-02 -5.1096386364914637e-01
115 -6.3131988090811419e-01 -5.6290966792650950e-02 -5.1096386364914637e-01
106 -6.3131988090811419e-01 -5.6290966792650950e-02 -5.1096386364914637e-01
105 -6.3131988090811419e-01 -5.6290966792650950e-02 -5.1096386364914637e-01
64 -6.3131988090811419e-01 -5.6290966792650950e-02 -5.1096386364914637e-01
13 -6.3131988090805125e-01 -5.6290966792915648e-02 -5.1096386364859725e-01
70 -5.4941415244169091e-07 3.1835510702926100e-07 -1.9929842884662654e-07