LAMMPS data file via write_data, version 30 Jul 2016, timestep = 50400000

180 atoms
2 atom types

0.0000000000000000e+00 2.0000000000000000e+01 xlo xhi
0.0000000000000000e+00 2.0000000000000000e+01 ylo yhi
0.0000000000000000e+00 2.0000000000000000e+01 zlo zhi

Masses

1 3.896
2 4.31

Atoms # meso-molecular

126 1 2 1.0279999943043348e+00 -2.0586755521763038e+07 1.0000000000000000e+00 6.3303800362806273e+00 2.0352508929985675e+00 1.2293831037981025e+01 
37 1 2 1.0279999934822635e+00 -1.0660561575012669e+07 1.0000000000000000e+00 6.3220970937067564e+00 2.0162235951387046e+00 1.2286763777584364e+01 
178 1 2 1.0279999935838797e+00 -1.4720358336393841e+07 1.0000000000000000e+00 6.3233766052640377e+00 2.0192487593920814e+00 1.2287060281103038e+01 
26 1 2 1.0280000048250928e+00 -1.5612510968849668e+07 1.0000000000000000e+00 6.4563081695830506e+00 1.4668757785109725e+00 1.2213607024297492e+01 
38 1 2 1.0280000050000067e+00 -1.3355930876581980e+07 1.0000000000000000e+00 6.4585113255178168e+00 1.4648424544458825e+00 1.2212825193265575e+01 
86 1 2 1.0280000032873340e+00 -1.7701280581338320e+07 1.0000000000000000e+00 6.6220201269730614e+00 2.2977945599308698e+00 1.2325894138859004e+01 
151 1 2 1.0280000075141558e+00 -6.9777443965547448e+06 1.0000000000000000e+00 2.3476960198449803e+00 1.2015297455968602e+01 1.5516074764083468e+01 
134 1 2 1.0280000002325353e+00 -1.4222004133368740e+07 1.0000000000000000e+00 2.1506213411733452e+00 1.2109985911577827e+01 1.5437585303961093e+01 
7 1 2 1.0280000290139908e+00 -1.7434969365875807e+07 1.0000000000000000e+00 9.3070198971318896e-01 1.2962799836815329e+01 1.5531100488813014e+01 
139 1 2 1.0280000287191799e+00 -1.5251282211813154e+07 1.0000000000000000e+00 9.1962572289342359e-01 1.2973931359805391e+01 1.5538827597098269e+01 
4 1 2 1.0280000290053599e+00 -1.8907174071601644e+07 1.0000000000000000e+00 9.3033957198811790e-01 1.2963161786912979e+01 1.5531350886485246e+01 
50 1 2 1.0280000295815830e+00 -1.2058143989834152e+07 1.0000000000000000e+00 9.7166256610475066e-01 1.2923277095231541e+01 1.5503847490211527e+01 
127 1 2 1.0280005527189264e+00 -1.4240837522167750e+07 1.0000000000000000e+00 5.0965090649767602e+00 1.0585897880858765e+01 1.5199975893771558e+01 
28 1 2 1.0280006245890261e+00 -1.9452859422057439e+07 1.0000000000000000e+00 5.0867100115939090e+00 1.0563110504841307e+01 1.5108643600419542e+01 
18 1 2 1.0280006248972831e+00 -1.2499588486326339e+07 1.0000000000000000e+00 5.0867099462286056e+00 1.0563112540202880e+01 1.5108648825912084e+01 
56 1 2 1.0280006250726290e+00 -1.5263375167087162e+07 1.0000000000000000e+00 5.0867102879145802e+00 1.0563114539170334e+01 1.5108651315674088e+01 
156 1 2 1.0280006265441859e+00 -1.2991919993328260e+07 1.0000000000000000e+00 5.0867113335012686e+00 1.0563127311366520e+01 1.5108674638027020e+01 
114 1 2 1.0280006176079863e+00 -1.4702522638496265e+07 1.0000000000000000e+00 5.0867079542605582e+00 1.0563057298381375e+01 1.5108531668808997e+01 
21 1 2 1.0279999668224407e+00 -1.9990416252455242e+07 1.0000000000000000e+00 2.9193612442319128e+00 1.1849398552332616e+01 1.6860164865121064e+01 
20 1 2 1.0279999668248818e+00 -1.6158595510288579e+07 1.0000000000000000e+00 2.9193500651107360e+00 1.1849413325856982e+01 1.6860184231562812e+01 
147 1 2 1.0279999668310080e+00 -1.2367097020509427e+07 1.0000000000000000e+00 2.9193213433144649e+00 1.1849450286417703e+01 1.6860233329435324e+01 
29 1 2 1.0279999668310076e+00 -1.8659960299713936e+07 1.0000000000000000e+00 2.9193213435109975e+00 1.1849450286166539e+01 1.6860233329100531e+01 
148 1 2 1.0279999668310100e+00 -1.2350192963804031e+07 1.0000000000000000e+00 2.9193213432866276e+00 1.1849450286455619e+01 1.6860233329484284e+01 
100 1 2 1.0279999294798663e+00 -1.1640545990887666e+07 1.0000000000000000e+00 2.4016487667962925e+00 1.5504744603701052e+01 1.7278885779786478e+01 
48 1 2 1.0279998521051010e+00 -1.4881391067085067e+07 1.0000000000000000e+00 2.0078677638088624e+00 1.5056209169825962e+01 1.7189730829824942e+01 
11 1 2 1.0280000361215949e+00 -1.4185476323875511e+07 1.0000000000000000e+00 2.0586912591318054e+00 1.4860641151568055e+01 1.8190679866185945e+01 
94 1 2 1.0280000424781499e+00 -1.5247669723263144e+07 1.0000000000000000e+00 8.0737707534808167e-01 1.3586313285586073e+01 1.7045114692219943e+01 
41 1 2 1.0280000656139709e+00 -1.4880124296452213e+07 1.0000000000000000e+00 1.0877033111237004e+00 1.3390924864099439e+01 1.7259554258701204e+01 
5 1 2 1.0280000611807290e+00 -2.2655891738420125e+07 1.0000000000000000e+00 1.0008697867535430e+00 1.3420165037920842e+01 1.7199829745305291e+01 
32 1 2 1.0280001476785174e+00 -1.9643674180018991e+07 1.0000000000000000e+00 2.4608314956357775e+00 1.4523358220497375e+01 1.7596711301290721e+01 
108 1 2 1.0280000306071344e+00 -1.9314530224546719e+07 1.0000000000000000e+00 2.7315168566680295e+00 1.6140329996473120e+01 1.8323136956752201e+01 
158 1 2 1.0280000306021737e+00 -2.3843989451972462e+07 1.0000000000000000e+00 2.7315554479563580e+00 1.6140510651838063e+01 1.8322837892474617e+01 
96 1 2 1.0280000304187198e+00 -1.7013943594041780e+07 1.0000000000000000e+00 2.7399723516223942e+00 1.6144024886935643e+01 1.8311313085091072e+01 
145 1 2 1.0280000306206694e+00 -2.2014334949328151e+07 1.0000000000000000e+00 2.7257634776666464e+00 1.6139388782104430e+01 1.8328401981099905e+01 
113 1 2 1.0280000306098862e+00 -1.1638125827484140e+07 1.0000000000000000e+00 2.7316059467805593e+00 1.6140222300871052e+01 1.8323237794226721e+01 
97 1 2 1.0286450653044434e+00 5.8556316903555170e+07 1.0000000000000000e+00 1.2462778251689015e+01 7.5893593116647908e+00 1.0366751601249264e+00 
115 1 2 1.0286450653044434e+00 5.9506361138166219e+07 1.0000000000000000e+00 1.2462778251689015e+01 7.5893593116647908e+00 1.0366751601249264e+00 
106 1 2 1.0286450653044434e+00 6.1642454647573888e+07 1.0000000000000000e+00 1.2462778251689015e+01 7.5893593116647908e+00 1.0366751601249264e+00 
105 1 2 1.0286450653044434e+00 6.0112839568001576e+07 1.0000000000000000e+00 1.2462778251689015e+01 7.5893593116647908e+00 1.0366751601249264e+00 
64 1 2 1.0286450653044434e+00 6.6704093034470782e+07 1.0000000000000000e+00 1.2462778251689015e+01 7.5893593116647908e+00 1.0366751601249264e+00 
13 1 2 1.0286450653044428e+00 6.0692727141383171e+07 1.0000000000000000e+00 1.2462778251689015e+01 7.5893593116647891e+00 1.0366751601249284e+00 
70 1 2 1.0280000017757309e+00 -1.7401598244018391e+07 1.0000000000000000e+00 6.6725340826740123e+00 2.3162973739209325e+00 1.2321640549913761e+01 
27 1 2 1.0279999906601924e+00 -1.4162989498121543e+07 1.0000000000000000e+00 8.6857439429819365e+00 2.2919914211577133e-01 1.2967911498550309e+01 
111 1 2 1.0279999906773725e+00 -1.8188674083542902e+07 1.0000000000000000e+00 8.6849415526844087e+00 2.2977798683220499e-01 1.2966592443148274e+01 
159 1 2 1.0279999215541487e+00 -2.0052302525658794e+07 1.0000000000000000e+00 8.0115068697046752e+00 6.1177461321836613e-01 1.2822085387075429e+01 
69 1 2 1.0279999642721547e+00 -1.7470081879580230e+07 1.0000000000000000e+00 8.9257501900428178e+00 1.8109138672098124e-01 1.3064280925863574e+01 
14 1 2 1.0280000029449372e+00 -1.2152484385531232e+07 1.0000000000000000e+00 8.4338084450976805e+00 4.5181640386827686e+00 1.1310218191072002e+01 
92 1 2 1.0280000029449370e+00 -1.7429761024237212e+06 1.0000000000000000e+00 8.4338084450991762e+00 4.5181640386815634e+00 1.1310218191072030e+01 
39 1 2 1.0280000029449370e+00 -1.8407355697259735e+07 1.0000000000000000e+00 8.4338084450804054e+00 4.5181640386836586e+00 1.1310218191041702e+01 
101 1 2 1.0280000029449372e+00 -1.4871151445687171e+07 1.0000000000000000e+00 8.4338084450797819e+00 4.5181640386853088e+00 1.1310218191044338e+01 
130 1 2 1.0280000029449372e+00 -1.2954958606234457e+07 1.0000000000000000e+00 8.4338084450895341e+00 4.5181640386824622e+00 1.1310218191056048e+01 
122 1 2 1.0280000029449372e+00 -1.9584309306452256e+07 1.0000000000000000e+00 8.4338084454785402e+00 4.5181640388077557e+00 1.1310218192071986e+01 
51 1 2 1.0280000029449374e+00 3.8115614693545648e+06 1.0000000000000000e+00 8.4338084447281663e+00 4.5181640390058657e+00 1.1310218191122242e+01 
67 1 2 1.0280005823922125e+00 -1.5820970284312923e+07 1.0000000000000000e+00 7.3255142187635469e+00 8.8110543755312865e+00 1.4089229787139924e+01 
62 1 2 1.0280005823922120e+00 -1.5681097942470644e+07 1.0000000000000000e+00 7.3255142187616569e+00 8.8110543755318762e+00 1.4089229787137405e+01 
53 1 2 1.0280005823922120e+00 -8.8861405266687702e+06 1.0000000000000000e+00 7.3255142187612083e+00 8.8110543755312314e+00 1.4089229787137890e+01 
16 1 2 1.0280005823922118e+00 -1.7677234754324835e+07 1.0000000000000000e+00 7.3255142187595306e+00 8.8110543755300057e+00 1.4089229787138068e+01 
17 1 2 1.0280005823922120e+00 -1.5830647497780537e+07 1.0000000000000000e+00 7.3255142187596078e+00 8.8110543755301691e+00 1.4089229787137914e+01 
133 1 2 1.0280005823922127e+00 -1.3977551869279163e+07 1.0000000000000000e+00 7.3255142187512758e+00 8.8110543755293094e+00 1.4089229787131600e+01 
142 1 2 1.0287580997670205e+00 -5.7457260887266025e+07 1.0000000000000000e+00 1.1712733882676931e+01 9.3370251051918274e+00 1.6805979181971445e+01 
163 1 2 1.0287580997670205e+00 -5.9383388427345827e+07 1.0000000000000000e+00 1.1712733882676931e+01 9.3370251051918274e+00 1.6805979181971445e+01 
170 1 2 1.0287580997670205e+00 -5.8711390268574037e+07 1.0000000000000000e+00 1.1712733882676931e+01 9.3370251051918274e+00 1.6805979181971445e+01 
169 1 2 1.0287580997670205e+00 -6.7547655082582310e+07 1.0000000000000000e+00 1.1712733882676931e+01 9.3370251051918274e+00 1.6805979181971445e+01 
93 1 2 1.0287580997670205e+00 -6.1798986302667581e+07 1.0000000000000000e+00 1.1712733882676931e+01 9.3370251051918274e+00 1.6805979181971445e+01 
25 1 2 1.0287580997670205e+00 -6.1996889734164737e+07 1.0000000000000000e+00 1.1712733882676931e+01 9.3370251051918274e+00 1.6805979181971445e+01 
119 1 2 1.0273120145932619e+00 -4.8401356993751280e+07 1.0000000000000000e+00 1.1801334523864000e+01 8.4068886325716949e+00 1.8715570349169873e+01 
164 1 2 1.0273120145932619e+00 -5.9867335880685247e+07 1.0000000000000000e+00 1.1801334523864000e+01 8.4068886325716949e+00 1.8715570349169873e+01 
54 1 2 1.0273120145932619e+00 -4.8682958456509762e+07 1.0000000000000000e+00 1.1801334523864000e+01 8.4068886325716949e+00 1.8715570349169873e+01 
121 1 2 1.0273120145932619e+00 -5.0972423047478981e+07 1.0000000000000000e+00 1.1801334523864000e+01 8.4068886325716949e+00 1.8715570349169873e+01 
19 1 2 1.0281989201436836e+00 -1.0945592953771649e+08 1.0000000000000000e+00 1.2417928892035018e+01 8.3056189745452897e+00 1.9584575103164511e+01 
141 1 2 1.0279999903489203e+00 -1.2113988643643044e+07 1.0000000000000000e+00 1.0962994584136871e+01 1.4084413732378584e+01 9.4122674739898535e+00 
174 1 2 1.0279999902437167e+00 -1.7840741141472764e+07 1.0000000000000000e+00 1.0844961304892390e+01 1.4030898325211007e+01 9.3719743347016724e+00 
76 1 2 1.0279999917623850e+00 -1.8729976386116825e+07 1.0000000000000000e+00 1.0709012233032650e+01 1.3904526148890115e+01 9.2591593702495807e+00 
59 1 2 1.0279999921231504e+00 -8.1777658519129232e+06 1.0000000000000000e+00 1.0694098251375092e+01 1.3884561667875140e+01 9.2341054795224977e+00 
175 1 2 1.0280000063651655e+00 -1.8862293491228007e+07 1.0000000000000000e+00 1.1531501644450815e+01 1.3606201529876158e+01 8.8182621199357030e+00 
78 1 2 1.0280000065193773e+00 -2.1041915765756886e+07 1.0000000000000000e+00 1.1514198505171274e+01 1.3643833177234752e+01 8.7489740220914598e+00 
173 1 2 1.0280000065879162e+00 -2.2922626096078821e+07 1.0000000000000000e+00 1.1500703424759861e+01 1.3743244880206053e+01 8.6811404455236865e+00 
117 1 2 1.0280000062662162e+00 -8.9769616073581986e+06 1.0000000000000000e+00 1.1340512281902857e+01 1.3841500784282577e+01 8.5585033667640467e+00 
176 1 2 1.0279999239318633e+00 -2.1449519858126853e+07 1.0000000000000000e+00 1.1199693963797076e+01 1.6173558166831135e+01 1.2351820743899138e+01 
104 1 2 1.0279999233129258e+00 -9.6197360567845404e+06 1.0000000000000000e+00 1.1190084682593335e+01 1.6175133872132143e+01 1.2358153968910408e+01 
79 1 2 1.0279999233101678e+00 -1.1059523235685041e+07 1.0000000000000000e+00 1.1190100056456769e+01 1.6175142530782459e+01 1.2358130622404229e+01 
123 1 2 1.0279999233113712e+00 -1.8968556738212138e+07 1.0000000000000000e+00 1.1190093237044129e+01 1.6175138749896185e+01 1.2358140909052954e+01 
43 1 2 1.0279999233101689e+00 -1.1124677100385936e+07 1.0000000000000000e+00 1.1190100052416842e+01 1.6175142528571310e+01 1.2358130628465014e+01 
162 1 2 1.0279999205462116e+00 -1.6910527220648728e+07 1.0000000000000000e+00 1.1194503737317648e+01 1.6186093242876883e+01 1.2342293986030759e+01 
23 1 2 1.0279999823398074e+00 -1.5594241057883978e+07 1.0000000000000000e+00 9.2089052127336259e+00 1.9698142675126128e+01 1.3074390025902991e+01 
172 1 2 1.0279999979844110e+00 -8.3780502954118783e+06 1.0000000000000000e+00 9.4352780663312377e+00 1.9879612593368240e+01 1.3049744869400067e+01 
89 1 2 1.0279999687035808e+00 -8.6774182412599996e+06 1.0000000000000000e+00 8.8033044393890343e+00 1.9997752032442165e+01 1.2982894762452849e+01 
85 1 2 1.0279999174692651e+00 -1.6504743400732780e+07 1.0000000000000000e+00 1.2183310619507038e+01 1.8152537995939845e+01 1.2809602642527947e+01 
3 1 2 1.0279999116644121e+00 -2.0222200429888036e+07 1.0000000000000000e+00 1.1016070339329069e+01 1.8686214168278401e+01 1.3331051673133379e+01 
146 1 2 1.0279985420203044e+00 -2.1652708125104386e+07 1.0000000000000000e+00 6.9451066008203757e+00 1.0115948642113187e+01 1.5138445622172444e+01 
47 1 2 1.0279985420140008e+00 -1.2526457554970883e+07 1.0000000000000000e+00 6.9451094880337374e+00 1.0115946218102220e+01 1.5138444315548982e+01 
152 1 2 1.0279989395677120e+00 -1.9382611392833453e+07 1.0000000000000000e+00 8.7846686117209369e+00 1.1873047086693919e+01 1.6635300597765990e+01 
10 1 2 1.0279989395677120e+00 -1.3124013358110631e+07 1.0000000000000000e+00 8.7846686117205781e+00 1.1873047086693706e+01 1.6635300597766676e+01 
107 1 2 1.0279989395677123e+00 -1.1017084210928073e+07 1.0000000000000000e+00 8.7846686117192050e+00 1.1873047086692763e+01 1.6635300597769469e+01 
166 1 2 1.0279989395677123e+00 -1.7556274505182296e+07 1.0000000000000000e+00 8.7846686117197219e+00 1.1873047086693219e+01 1.6635300597768296e+01 
160 1 2 1.0279989395677120e+00 -1.4846641242513783e+07 1.0000000000000000e+00 8.7846686117199102e+00 1.1873047086693321e+01 1.6635300597767952e+01 
161 1 2 1.0279989395677123e+00 -1.4806450043391583e+07 1.0000000000000000e+00 8.7846686117199546e+00 1.1873047086693500e+01 1.6635300597767682e+01 
74 1 2 1.0279989395677120e+00 -1.4160321926597541e+07 1.0000000000000000e+00 8.7846686117204946e+00 1.1873047086693655e+01 1.6635300597766843e+01 
2 1 2 1.0280015948338368e+00 -1.7003846392509200e+07 1.0000000000000000e+00 1.2916941033221955e+01 1.3063745279124239e+01 1.6313921944900098e+01 
120 1 2 1.0280015948338368e+00 -1.7754792779148385e+07 1.0000000000000000e+00 1.2916941033221955e+01 1.3063745279124239e+01 1.6313921944900098e+01 
9 1 2 1.0280015948338368e+00 -1.1544406081480669e+07 1.0000000000000000e+00 1.2916941033221955e+01 1.3063745279124239e+01 1.6313921944900098e+01 
144 1 2 1.0279995816624956e+00 -1.5332001745638231e+07 1.0000000000000000e+00 1.2945303173246904e+01 1.3995830626510285e+01 1.3751480245476477e+01 
103 1 2 1.0279995816624952e+00 -1.4363079006801832e+07 1.0000000000000000e+00 1.2945303173246755e+01 1.3995830626509385e+01 1.3751480245475102e+01 
6 1 2 1.0279995816624952e+00 -1.6469689290195152e+07 1.0000000000000000e+00 1.2945303173246495e+01 1.3995830626508896e+01 1.3751480245474756e+01 
15 1 2 1.0279995816624949e+00 -1.3046254906193186e+07 1.0000000000000000e+00 1.2945303173246558e+01 1.3995830626509026e+01 1.3751480245474855e+01 
165 1 2 1.0279995816624943e+00 -1.8186483204759587e+07 1.0000000000000000e+00 1.2945303173246467e+01 1.3995830626508694e+01 1.3751480245474422e+01 
55 1 2 1.0279999334996479e+00 -1.3663043725960994e+07 1.0000000000000000e+00 1.1102082278119083e+01 1.8697780537581046e+01 1.3407760498742253e+01 
88 1 2 1.0279999346117992e+00 -9.0436785928533692e+06 1.0000000000000000e+00 1.1109636392613153e+01 1.8698170397463510e+01 1.3413824224143893e+01 
109 1 2 1.0280000747219082e+00 -2.1766636930884507e+07 1.0000000000000000e+00 1.2700988733981589e+01 1.7557427874754012e+01 1.3756226101359735e+01 
82 1 2 1.0280000745048161e+00 -1.8397672323269494e+07 1.0000000000000000e+00 1.2700915594389135e+01 1.7557168323520649e+01 1.3755459476069275e+01 
129 1 2 1.0280000769719233e+00 -1.0780996987376546e+07 1.0000000000000000e+00 1.2701729720184455e+01 1.7560070691218552e+01 1.3763989315669216e+01 
157 1 2 1.0279999366724892e+00 -8.6479092885702588e+06 1.0000000000000000e+00 1.1272685913402988e+01 1.8690721597670450e+01 1.3533827239732243e+01 
60 1 2 1.0279995362171335e+00 -1.0668537227123685e+07 1.0000000000000000e+00 1.2716686455213555e+01 1.8026579123614855e+01 1.4841384438861789e+01 
63 1 2 1.0279989627751742e+00 -1.0578400248802692e+07 1.0000000000000000e+00 1.2449549640431933e+01 1.3463516461667949e+01 1.7322967618751829e+01 
44 1 2 1.0279989627751747e+00 -1.3808414293429682e+07 1.0000000000000000e+00 1.2449549640462244e+01 1.3463516461676502e+01 1.7322967618762291e+01 
30 1 2 1.0279989627751784e+00 -1.6137249107308850e+07 1.0000000000000000e+00 1.2449549640442845e+01 1.3463516461669808e+01 1.7322967618756032e+01 
98 1 2 1.0279989627751762e+00 -1.8346511543380905e+07 1.0000000000000000e+00 1.2449549640441726e+01 1.3463516461669233e+01 1.7322967618755754e+01 
128 1 2 1.0279989627751753e+00 -6.0670226590324044e+06 1.0000000000000000e+00 1.2449549640435059e+01 1.3463516461666243e+01 1.7322967618753875e+01 
57 1 2 1.0283854751735799e+00 -2.4072912972088955e+07 1.0000000000000000e+00 1.3852809146743324e+01 6.9598617611296651e+00 3.8823511207175745e+00 
177 1 2 1.0283854751735799e+00 -2.9341196625230864e+07 1.0000000000000000e+00 1.3852809146743324e+01 6.9598617611296651e+00 3.8823511207175745e+00 
65 1 2 1.0283854751735799e+00 -2.8367689660438813e+07 1.0000000000000000e+00 1.3852809146743324e+01 6.9598617611296651e+00 3.8823511207175745e+00 
77 1 2 1.0283854751735799e+00 -2.9381610837306570e+07 1.0000000000000000e+00 1.3852809146743324e+01 6.9598617611296651e+00 3.8823511207175745e+00 
58 1 2 1.0283854751735799e+00 -2.4505419059003551e+07 1.0000000000000000e+00 1.3852809146743324e+01 6.9598617611296651e+00 3.8823511207175745e+00 
95 1 2 1.0283854751735799e+00 -2.4850919890457168e+07 1.0000000000000000e+00 1.3852809146743324e+01 6.9598617611296651e+00 3.8823511207175745e+00 
34 1 2 1.0283854751735799e+00 -2.8576477524356816e+07 1.0000000000000000e+00 1.3852809146743324e+01 6.9598617611296651e+00 3.8823511207175745e+00 
91 1 2 1.0279949381616120e+00 -1.6093584398564728e+07 1.0000000000000000e+00 1.6383083148994459e+01 8.6414315290368986e+00 6.1783835876417443e+00 
49 1 2 1.0279949381616122e+00 -1.1737371313915983e+07 1.0000000000000000e+00 1.6383083148993872e+01 8.6414315290371153e+00 6.1783835876419104e+00 
8 1 2 1.0279949381616120e+00 -1.3489583216825135e+07 1.0000000000000000e+00 1.6383083148993936e+01 8.6414315290370283e+00 6.1783835876419717e+00 
99 1 2 1.0279949381616120e+00 -1.4004380234971048e+07 1.0000000000000000e+00 1.6383083148993936e+01 8.6414315290370283e+00 6.1783835876419717e+00 
90 1 2 1.0279949381616122e+00 -2.0730838444269780e+07 1.0000000000000000e+00 1.6383083148993791e+01 8.6414315290371668e+00 6.1783835876419060e+00 
12 1 2 1.0279949381616122e+00 -1.7967920113144726e+07 1.0000000000000000e+00 1.6383083148993475e+01 8.6414315290372805e+00 6.1783835876419966e+00 
52 1 2 1.0280284070794332e+00 -1.0812303318717413e+07 1.0000000000000000e+00 1.6927565615026673e+01 9.9096699000254276e+00 7.0635788960455086e+00 
124 1 2 1.0279965376986302e+00 -1.0954197960121891e+07 1.0000000000000000e+00 1.8375014315858632e+01 1.1500406170458071e+01 8.6269361187177598e+00 
72 1 2 1.0279965376779203e+00 -1.9847277907162059e+07 1.0000000000000000e+00 1.8374995926562519e+01 1.1500424741642506e+01 8.6269304737515071e+00 
22 1 2 1.0279965392059924e+00 -1.7796659363788292e+07 1.0000000000000000e+00 1.8376044090237787e+01 1.1499580470402558e+01 8.6269861479024001e+00 
24 1 2 1.0279965371430475e+00 -1.3427559192153649e+07 1.0000000000000000e+00 1.8374890007538752e+01 1.1500223374247234e+01 8.6272747703468227e+00 
68 1 2 1.0279965375964935e+00 -1.9376174004158918e+07 1.0000000000000000e+00 1.8375033594197767e+01 1.1500295231402013e+01 8.6270538649443740e+00 
168 1 2 1.0279969084166132e+00 -2.3427281727854040e+07 1.0000000000000000e+00 1.8296213016472915e+01 1.1419733660294298e+01 8.7414062494680405e+00 
80 1 2 1.0280034157771503e+00 -1.6869820253960609e+07 1.0000000000000000e+00 1.7442687078823496e+01 1.0214303872599515e+01 7.4724316968490072e+00 
40 1 2 1.0280034157783651e+00 -1.7308754519652385e+07 1.0000000000000000e+00 1.7442686999603534e+01 1.0214303695017319e+01 7.4724318105142675e+00 
135 1 2 1.0280034157781968e+00 -3.8825003899539202e+06 1.0000000000000000e+00 1.7442687010588472e+01 1.0214303719640659e+01 7.4724317947534864e+00 
167 1 2 1.0279999411205987e+00 -1.9387591911192659e+07 1.0000000000000000e+00 1.5604703270637497e+01 1.2530191321944349e+01 1.2697817046678631e+01 
171 1 2 1.0280001255447471e+00 -1.2012355425972285e+07 1.0000000000000000e+00 1.6689372773967861e+01 1.3049420111001785e+01 1.2168011875058159e+01 
125 1 2 1.0280001513394437e+00 -6.6158742370820222e+06 1.0000000000000000e+00 1.7366834206453984e+01 1.2400382915420074e+01 1.3124800250456522e+01 
73 1 2 1.0280000869241424e+00 -1.9312949009883419e+07 1.0000000000000000e+00 1.7249811116043961e+01 1.3765029645163064e+01 1.2623085365342030e+01 
42 1 2 1.0280000703488268e+00 -1.7404884873239536e+07 1.0000000000000000e+00 1.7146059054014561e+01 1.3848013033179772e+01 1.2679726543143651e+01 
71 1 2 1.0280000703485785e+00 -1.6037077602963893e+07 1.0000000000000000e+00 1.7146057740401996e+01 1.3848013153579414e+01 1.2679724633031455e+01 
36 1 2 1.0280000703486036e+00 -1.8908796395766515e+07 1.0000000000000000e+00 1.7146057878445845e+01 1.3848013140966433e+01 1.2679724833906869e+01 
35 1 2 1.0280000703471430e+00 -1.7925371435488485e+07 1.0000000000000000e+00 1.7146050191468710e+01 1.3848013837195012e+01 1.2679713625672527e+01 
1 1 2 1.0279999437450866e+00 -1.4051427574624289e+07 1.0000000000000000e+00 1.6135329485995516e+01 1.1782950593373762e+01 1.4027344228367367e+01 
31 1 2 1.0279999423613653e+00 -1.7239372416219175e+07 1.0000000000000000e+00 1.6128213068463673e+01 1.1783284639856005e+01 1.4027893600254863e+01 
102 1 2 1.0279999419965977e+00 -1.5927222413408209e+07 1.0000000000000000e+00 1.6126554816363040e+01 1.1783366657148161e+01 1.4028015366752085e+01 
131 1 2 1.0279999416676380e+00 -1.6146204079324400e+07 1.0000000000000000e+00 1.6125121250712109e+01 1.1783447184462602e+01 1.4028128805608242e+01 
179 1 2 1.0279999413226972e+00 -1.5124188703806739e+07 1.0000000000000000e+00 1.6123673413644685e+01 1.1783536498615186e+01 1.4028249767463418e+01 
81 1 2 1.0280016714026530e+00 -1.4981323865353094e+07 1.0000000000000000e+00 1.4034908817907459e+01 1.2950634843112304e+01 1.3850082094804753e+01 
137 1 2 1.0280016988710947e+00 -1.7991236220895462e+07 1.0000000000000000e+00 1.4035407172619381e+01 1.2950170599947844e+01 1.3857730974332863e+01 
112 1 2 1.0279973670615028e+00 -1.1575026737702528e+07 1.0000000000000000e+00 1.4168340527649518e+01 1.3373729453402809e+01 1.3563700861306023e+01 
155 1 2 1.0280000172603925e+00 -1.3054055942765441e+07 1.0000000000000000e+00 1.8885626468999821e+01 1.4782259051182479e+01 1.6097485258437828e+01 
46 1 2 1.0280000017148798e+00 -1.8199428103272978e+07 1.0000000000000000e+00 1.8922509971880782e+01 1.5243857472960290e+01 1.6126098452402864e+01 
136 1 2 1.0280000016677642e+00 -6.9981587530150488e+06 1.0000000000000000e+00 1.8922881756097915e+01 1.5244844888404611e+01 1.6126944483148304e+01 
154 1 2 1.0280000007531056e+00 -1.4023445694962487e+07 1.0000000000000000e+00 1.8933253754609705e+01 1.5255446409089434e+01 1.6142409727902759e+01 
153 1 2 1.0280000768884414e+00 -1.6870369028499465e+07 1.0000000000000000e+00 1.3678458089780094e+01 1.7828840265475481e+01 1.6414844442005215e+01 
116 1 2 1.0280000768845821e+00 -2.0208798994273886e+07 1.0000000000000000e+00 1.3679236275013114e+01 1.7828737405647757e+01 1.6414716902455144e+01 
75 1 2 1.0280000353090128e+00 -1.6170924649685176e+07 1.0000000000000000e+00 1.3383470703575494e+01 1.7969052890150312e+01 1.6255862764239229e+01 
45 1 2 1.0280000367969770e+00 -1.4166431452098986e+07 1.0000000000000000e+00 1.3388311520269893e+01 1.7981651539163558e+01 1.6253900920339117e+01 
180 1 2 1.0280000250545260e+00 -2.0049092875013597e+07 1.0000000000000000e+00 1.3525123658300389e+01 1.8096523525312879e+01 1.6198910490005655e+01 
61 1 2 1.0280000226733297e+00 -1.5692610708106726e+07 1.0000000000000000e+00 1.3534642044568644e+01 1.8098067495618711e+01 1.6195512324228510e+01 
140 1 2 1.0280000061239656e+00 -1.1257749094913555e+07 1.0000000000000000e+00 1.8380927284767335e+01 1.4628716209766715e+01 1.6752640970014081e+01 
33 1 2 1.0280000033386814e+00 -1.5240086280293675e+07 1.0000000000000000e+00 1.7594395384947660e+01 1.5404891351901870e+01 1.6697894280059774e+01 
118 1 2 1.0280000019978606e+00 -1.4556046712322442e+07 1.0000000000000000e+00 1.7619707160140408e+01 1.5606995815382724e+01 1.6901817277310588e+01 
138 1 2 1.0280000070081012e+00 -1.9435187783568386e+07 1.0000000000000000e+00 1.7697152800863652e+01 1.5564840589779246e+01 1.7069198275704004e+01 
84 1 2 1.0280000028635803e+00 -1.7001164202008814e+07 1.0000000000000000e+00 1.7622525806795981e+01 1.5573590214441786e+01 1.6942696637923362e+01 
132 1 2 1.0280001056172667e+00 -2.2468731552038744e+07 1.0000000000000000e+00 1.6147698015804682e+01 1.7291091526634613e+01 1.8802623190475423e+01 
150 1 2 1.0280001051829524e+00 -1.2901406290698349e+07 1.0000000000000000e+00 1.6273251338670867e+01 1.7211484770112023e+01 1.8766353574445784e+01 
66 1 2 1.0280001024306313e+00 -2.1414808969549228e+07 1.0000000000000000e+00 1.6102263745573090e+01 1.7319203075212826e+01 1.8806366894351644e+01 
83 1 2 1.0280000034151384e+00 -1.5075734828849537e+07 1.0000000000000000e+00 1.5221841344069110e+01 1.7349725676068964e+01 1.8140810847193677e+01 
87 1 2 1.0279997756017456e+00 -1.4802674861720564e+07 1.0000000000000000e+00 1.5203441135989735e+01 1.7364507375389039e+01 1.7937331898206260e+01 
110 1 2 1.0279997889411736e+00 -1.8079500785763480e+07 1.0000000000000000e+00 1.5204323997569544e+01 1.7360074392466327e+01 1.7932137098685139e+01 
149 1 2 1.0280000793443291e+00 -1.7246821733262531e+07 1.0000000000000000e+00 1.6476404797818475e+01 1.7078956961502335e+01 1.8608013855887144e+01 
143 1 2 1.0280000855230618e+00 -1.4730215249969270e+07 1.0000000000000000e+00 1.6443970544763751e+01 1.7102360295436323e+01 1.8644073067735725e+01 

Velocities

126 -1.7115963343308487e-03 5.6312193985446192e-04 -5.5403114405159571e-04
37 -1.6638456824793189e-03 5.3006584065060189e-04 -5.6701790486535339e-04
178 -1.6718734928330601e-03 5.3466973535306966e-04 -5.6591839739921173e-04
26 -8.3380660549361996e-04 2.2976516034000330e-03 -1.5818054978206916e-04
38 -8.4242320496607495e-04 2.3103429511227621e-03 -1.5233561448919469e-04
86 -1.5306427668174900e-03 7.7235230583953970e-04 -4.7883492277461126e-04
151 -1.3941505866183162e-03 6.2278183810078526e-04 8.6501857317379784e-05
134 -7.7493384593080197e-04 3.4554082527642199e-04 1.3185895847044705e-04
7 -1.6428970366404644e-04 -3.1578672261617001e-05 -4.6563936581944809e-04
139 -1.7278577893697661e-04 -2.2408940215565580e-05 -4.5999347716254760e-04
4 -1.6457166337386327e-04 -3.1279819733530719e-05 -4.6545955692923200e-04
50 -1.3163460099873325e-04 -6.3467586751229954e-05 -4.8310973670598974e-04
127 1.7553136414756288e-03 1.0845525164804215e-03 2.1585103776800263e-03
28 4.0710317548652865e-04 1.1355839557368448e-03 1.8178890500180860e-04
18 4.0890716142378078e-04 1.1349408618813669e-03 1.8232659443936079e-04
56 4.0995067306074908e-04 1.1345962126730175e-03 1.8262067349362728e-04
156 4.1863894513757496e-04 1.1315966918973878e-03 1.8514970177062741e-04
114 3.6634374623653994e-04 1.1498559631650800e-03 1.6980043822386099e-04
21 -1.4185364450631632e-03 7.8986874112011037e-04 1.2031489372807918e-03
20 -1.4184486452942485e-03 7.8981733395572782e-04 1.2030957069101079e-03
147 -1.4182261516952658e-03 7.8968688882119910e-04 1.2029603614259093e-03
29 -1.4182261541477860e-03 7.8968689048642901e-04 1.2029603611444267e-03
148 -1.4182261521268069e-03 7.8968688923319278e-04 1.2029603604498135e-03
100 -1.4162713977634839e-04 -4.8327902669600579e-05 2.0764915272531494e-04
48 1.0957930967984193e-04 -1.8722150892067333e-05 4.7241818233494939e-04
11 -1.0251989843257286e-04 2.5770649241586489e-05 9.4755511186157541e-05
94 -3.7385600461316710e-04 2.3963395368292893e-04 3.1897460498853315e-04
41 -3.1214791413899413e-04 -1.4123083439276840e-05 7.2666930883946636e-04
5 -3.5844450078924110e-04 4.0154567836765973e-05 6.1563004639260920e-04
32 6.2708813485472270e-04 -1.5547288909293190e-04 -6.2969166888189493e-05
108 2.1801622026174560e-05 1.9027044261603590e-04 -3.4531235220303845e-05
158 2.1811144174183526e-05 1.9038044860493101e-04 -3.4825538365235529e-05
96 2.8369983513863421e-05 1.9199123248194282e-04 -4.5804332587348873e-05
145 1.6994858268154186e-05 1.8983262145933627e-04 -2.9707603474446154e-05
113 2.1891508012312045e-05 1.9020073204287496e-04 -3.4425774307877788e-05
97 -3.0948799521553555e-01 2.1266034951519880e-02 -3.5822450749956236e-01
115 -3.0948799521553555e-01 2.1266034951519880e-02 -3.5822450749956236e-01
106 -3.0948799521553555e-01 2.1266034951519880e-02 -3.5822450749956236e-01
105 -3.0948799521553555e-01 2.1266034951519880e-02 -3.5822450749956236e-01
64 -3.0948799521553555e-01 2.1266034951519880e-02 -3.5822450749956236e-01
13 -3.0948799521552578e-01 2.1266034951556431e-02 -3.5822450749956491e-01
70 -1.4925395035636474e-03 6.6651403025044234e-04 -5.2159252692918559e-04