LAMMPS data file via write_data, version 30 Jul 2016, timestep = 50000000

384 atoms
2 atom types

0.0000000000000000e+00 2.0000000000000000e+01 xlo xhi
0.0000000000000000e+00 2.0000000000000000e+01 ylo yhi
0.0000000000000000e+00 2.0000000000000000e+01 zlo zhi

Masses

1 3.89
2 2.094

Atoms # meso-molecular

96 1 2 5.6385845319399208e-01 6.3874951978546268e-01 1.0000000000000000e+00 4.4006074018130761e+00 2.5522415051859419e+00 1.0702084428992582e+00 
314 1 2 5.6385845319399208e-01 4.3702352942902607e+00 1.0000000000000000e+00 3.9063125639389559e-02 3.6156879351758784e+00 3.5318072114455998e-03 
17 1 2 5.6385845319399208e-01 5.1500852719253167e+00 1.0000000000000000e+00 3.5444283954675287e-01 6.6819251826597066e+00 1.3278664999314238e+00 
170 1 2 5.6385845319399208e-01 -4.6355421689663281e+00 1.0000000000000000e+00 2.1745404812538918e+00 7.4941833189281715e+00 2.8051274296297229e-01 
338 1 2 5.6385845319399208e-01 -4.7901010525164480e+00 1.0000000000000000e+00 6.2335604678415342e+00 7.9682259631344632e+00 7.1186573344621973e-01 
132 1 2 5.6385845319399208e-01 5.5810893836205206e+00 1.0000000000000000e+00 2.2505747669962433e+00 3.6832529819529101e+00 2.7545095467006977e+00 
261 1 2 5.6385845319399208e-01 5.4346028557252364e+00 1.0000000000000000e+00 4.8126397081896544e+00 9.3265048195576945e+00 2.1492634743787504e+00 
357 1 2 5.6385857004831230e-01 4.8337317183244561e+00 1.0000000000000000e+00 5.4963910806556138e+00 3.6314570760910985e+00 2.8589062529026861e+00 
102 1 2 5.6385845319399208e-01 -1.0812172108479312e+00 1.0000000000000000e+00 1.4533341971571168e+00 5.9042200855085136e+00 2.8828036731768156e+00 
272 1 2 5.6385882717079305e-01 3.6561138407445686e+00 1.0000000000000000e+00 5.6264764573876596e+00 6.9169715838327104e+00 3.0614176263955328e+00 
129 1 2 5.6385845319399208e-01 5.6137758310696704e+00 1.0000000000000000e+00 1.7607774545575261e+00 8.6616929658994586e+00 2.9651548470537801e+00 
61 1 2 5.6385845319399208e-01 6.3367426291491213e+00 1.0000000000000000e+00 3.6703329918772178e+00 9.6725757054005221e+00 3.9483529740179009e+00 
292 1 2 5.6385845319399208e-01 3.9712750892224475e+00 1.0000000000000000e+00 3.2340506767179722e+00 4.0586848217968435e-01 4.2915254336327946e+00 
215 1 2 5.6385845319399208e-01 5.2173634194923313e+00 1.0000000000000000e+00 5.5762859666850764e+00 1.2290013134192175e+00 5.1716527274007804e+00 
368 1 2 5.6385845319399208e-01 6.1626155731909655e+00 1.0000000000000000e+00 7.3469229797660829e-01 1.5831212069199780e+00 4.4392373454500866e+00 
187 1 2 5.6385845319399208e-01 -7.7655570267032132e+00 1.0000000000000000e+00 2.3919446432332725e-01 4.0833987434635457e+00 4.2910247582880245e+00 
14 1 2 5.6385845319399208e-01 3.9449216203845294e+00 1.0000000000000000e+00 4.5323421472671264e+00 4.3425421857139694e+00 5.0855486332813795e+00 
156 1 2 5.6385857004831230e-01 8.1462405749886706e+00 1.0000000000000000e+00 6.4559515738201751e+00 4.3531762048427893e+00 4.4315228079246989e+00 
267 1 2 5.6385845319399208e-01 5.1425665295856806e+00 1.0000000000000000e+00 2.0878382906451103e+00 6.6819217352282401e+00 4.7936473044481254e+00 
352 1 2 5.6385882717079305e-01 4.4164609810189281e+00 1.0000000000000000e+00 6.1470298606046221e+00 8.1944470716685736e+00 4.4694801166500095e+00 
256 1 2 5.6385845319399208e-01 3.5296871491438244e+00 1.0000000000000000e+00 9.3477454653012582e-01 2.9292933118734127e-01 6.6319362657753178e+00 
51 1 2 5.6385845319399208e-01 7.2544100088051717e+00 1.0000000000000000e+00 1.7683759567507435e+00 2.6715700290658440e+00 6.9484447342447258e+00 
3 1 2 5.6385845319399208e-01 4.9789972487524707e+00 1.0000000000000000e+00 3.1355340360480057e+00 5.7575743745516661e+00 7.0414333436818062e+00 
367 1 2 5.6385845319399208e-01 7.6087388224809871e+00 1.0000000000000000e+00 4.2918038424672194e+00 6.9373366575134359e+00 5.7504710929609955e+00 
216 1 2 5.6385845319399208e-01 3.7345344376855127e+00 1.0000000000000000e+00 4.0040429456718885e+00 8.8417665742969103e+00 6.7029772398537881e+00 
37 1 2 5.6385845319399208e-01 -7.4998751296467141e+00 1.0000000000000000e+00 3.3330475074976745e-01 7.4756859203164772e-01 8.5533423748188593e+00 
304 1 2 5.6385845319399208e-01 5.4563994951263162e+00 1.0000000000000000e+00 5.6727756335400246e+00 4.1241485779925933e+00 7.8452772759531255e+00 
238 1 2 5.6385845319399208e-01 1.2296534839940287e+00 1.0000000000000000e+00 2.2856193414904040e+00 1.9928140974792544e-01 9.6398395424967980e+00 
269 1 2 5.6385845319399208e-01 2.9150643399592435e-01 1.0000000000000000e+00 4.3073522294692133e+00 1.6844283438052778e+00 8.7476449341965647e+00 
237 1 2 5.6385845319399208e-01 1.5285243170688125e+00 1.0000000000000000e+00 3.1769139251772609e+00 7.8532562357176117e+00 8.7058835767247356e+00 
276 1 2 5.6385845319399208e-01 3.1647507255512881e+00 1.0000000000000000e+00 6.3114764822669365e+00 1.9620579703770065e+00 1.1119856388805912e+01 
95 1 2 5.6385845319399208e-01 -2.2450625286156128e-01 1.0000000000000000e+00 2.2993883253380174e+00 3.0179373969073859e+00 1.0599624930782928e+01 
112 1 2 5.6385845319399208e-01 2.3810643711462980e+00 1.0000000000000000e+00 1.6227080044915432e+00 5.4563906627610184e+00 1.0129332358846808e+01 
199 1 2 5.6385845319399208e-01 5.6943358548060239e+00 1.0000000000000000e+00 4.8705542069276646e+00 5.9997798075371511e+00 1.0116656722913145e+01 
26 1 2 5.6385845319399208e-01 2.2158233141399739e+00 1.0000000000000000e+00 1.2208811664027563e+00 7.3097714678564687e+00 1.1004249571734054e+01 
41 1 2 5.6385845319399208e-01 6.8417283445500736e+00 1.0000000000000000e+00 4.4876338660667177e+00 8.1810872029217538e+00 1.0380691468803954e+01 
56 1 2 5.6385845319399208e-01 5.9091234123470766e+00 1.0000000000000000e+00 2.9117504225925859e+00 1.3953018842872125e+00 1.2242425179966817e+01 
123 1 2 5.6385848575088382e-01 3.6053151547495116e-01 1.0000000000000000e+00 5.8331679138526171e+00 4.7973645347149674e+00 1.1493260393559588e+01 
33 1 2 5.6385845319399208e-01 5.1954816264952335e+00 1.0000000000000000e+00 4.8897049837184641e+00 9.0040697394119604e+00 1.2372516932720185e+01 
137 1 2 5.6385845319399208e-01 8.9095414166726812e+00 1.0000000000000000e+00 1.7535627037084138e+00 8.4182179719825689e-01 1.4090974176385084e+01 
30 1 2 5.6385845319399208e-01 7.3814176967308409e+00 1.0000000000000000e+00 3.3922265311322528e+00 2.6884274299885984e+00 1.3844720742252214e+01 
371 1 2 5.6385845319399208e-01 4.4007809325969394e+00 1.0000000000000000e+00 6.0053470321601434e+00 2.3183309974004156e+00 1.4152538887986948e+01 
319 1 2 5.6385845319399208e-01 -7.9180453094551018e-01 1.0000000000000000e+00 4.6877689353115409e-01 5.4211928157226410e+00 1.2884614146274425e+01 
381 1 2 5.6385845319399208e-01 2.6264863446261879e+00 1.0000000000000000e+00 2.7988847131014141e+00 4.8350341914271162e+00 1.3028494728490932e+01 
25 1 2 5.6385845319399208e-01 3.8354618975901920e+00 1.0000000000000000e+00 5.7872513465390059e+00 6.3793321319652732e+00 1.4224031147624501e+01 
35 1 2 5.6385845319399208e-01 2.7164860870675209e+00 1.0000000000000000e+00 3.9357215467470414e+00 8.1410164784333183e+00 1.4282452026840522e+01 
164 1 2 5.6385845319399208e-01 5.7441497566986044e+00 1.0000000000000000e+00 7.3525127018498970e-01 4.3428424207332572e+00 1.5160706007072537e+01 
125 1 2 5.6385845319399208e-01 1.0613429901405375e+01 1.0000000000000000e+00 1.4517607730039737e+00 8.9343453969249360e+00 1.5465477765553505e+01 
146 1 2 5.6385845319399208e-01 3.4622908144186395e+00 1.0000000000000000e+00 5.0945030772793825e+00 7.2153738650280197e-01 1.6313144729796367e+01 
185 1 2 5.6385845319374217e-01 -9.0857896758113696e+00 1.0000000000000000e+00 4.4235861613708671e+00 3.7430393981225496e+00 1.6155332986021879e+01 
7 1 2 5.6385845319374217e-01 4.1570938172765866e+00 1.0000000000000000e+00 5.8160928157260718e+00 5.1498209892819444e+00 1.5874001762386124e+01 
101 1 2 5.6385845319399208e-01 2.2932018539856092e+00 1.0000000000000000e+00 1.9419180367051583e+00 5.9462638484775274e+00 1.6368258527914126e+01 
366 1 2 5.6385845319399208e-01 4.5941636170968341e+00 1.0000000000000000e+00 2.9008331159438141e+00 1.4710892484554718e+00 1.8005283623338038e+01 
243 1 2 5.6385845319399208e-01 -7.4310008046302897e+01 1.0000000000000000e+00 1.2327203517666323e+00 4.0693237704473413e+00 1.7839325665214442e+01 
317 1 2 5.6385845319399208e-01 3.9158456041296343e+00 1.0000000000000000e+00 6.6378393416423993e+00 6.4203627623900497e+00 1.7634384949142039e+01 
91 1 2 5.6385845319399208e-01 4.3749715839005425e+00 1.0000000000000000e+00 1.6107733892984655e+00 7.7616554480107354e+00 1.7346155834384135e+01 
285 1 2 5.6385845319399208e-01 -1.9846049445733250e+01 1.0000000000000000e+00 2.0145753706219405e+00 9.9698787218524441e+00 1.8063797125836306e+01 
235 1 2 5.6385845319399208e-01 -7.1837164906856383e+00 1.0000000000000000e+00 3.4914957250676162e+00 8.7400155857732091e+00 1.7348752869171932e+01 
325 1 2 5.6385845319399208e-01 1.4628046882701482e+00 1.0000000000000000e+00 1.1113148249481992e+00 9.8411364708964744e-01 1.9192629680674653e+01 
232 1 2 5.6385853649804984e-01 3.5993083736698579e+00 1.0000000000000000e+00 3.9513851621227691e+00 6.7724088477461608e-01 1.9577335448950663e+01 
260 1 2 5.6385845319399208e-01 3.2596033024026099e+00 1.0000000000000000e+00 4.0536788469594836e+00 3.7548575152770693e+00 1.8902719432372116e+01 
100 1 2 5.6385845319399208e-01 3.2264742818102077e+00 1.0000000000000000e+00 3.1503112380159428e+00 5.2642095065530645e+00 1.9895391729612335e+01 
265 1 2 5.6385845319399208e-01 -2.5708619481921311e+01 1.0000000000000000e+00 9.6976417298106010e-01 5.7618577154680350e+00 1.9408440998748024e+01 
324 1 2 5.6385845319399208e-01 6.0973654118803129e+00 1.0000000000000000e+00 4.9616399291730442e+00 8.5397740856487303e+00 1.8927076823351502e+01 
344 1 2 5.6385845319399208e-01 5.4148305668480692e+00 1.0000000000000000e+00 1.4428311765375865e+00 1.0029845013003944e+01 4.4219566970949842e-01 
34 1 2 5.6385846425313946e-01 5.9885070464976620e+00 1.0000000000000000e+00 3.3017963459755744e+00 1.3753738457216354e+01 2.3193191158838100e-01 
166 1 2 5.6385846425313946e-01 -9.2987002686148901e-01 1.0000000000000000e+00 3.5949436045211121e+00 1.5670693166177962e+01 6.6968725697015230e-01 
255 1 2 5.6385845319399208e-01 5.3007812520616593e+00 1.0000000000000000e+00 5.5841833193543939e+00 1.6567146207379700e+01 1.1303927557684637e+00 
226 1 2 5.6385845319399208e-01 3.7140060328192241e+00 1.0000000000000000e+00 3.8735644162926947e-01 1.0506318754260430e+01 2.0748525794771204e+00 
227 1 2 5.6385845319399208e-01 3.1487582360369482e+00 1.0000000000000000e+00 5.5719458809880482e+00 1.1214092388906593e+01 2.4422172827492665e+00 
179 1 2 5.6385845319408612e-01 -8.0536189913989574e+01 1.0000000000000000e+00 5.2902282263278333e-01 1.2676772429922739e+01 1.5995919529557787e+00 
130 1 2 5.6385845319408612e-01 -4.2842974434795150e-02 1.0000000000000000e+00 1.5451237439454599e-01 1.4331398541885481e+01 2.6579801494359692e+00 
290 1 2 5.6385845319399208e-01 5.5359608274757974e+00 1.0000000000000000e+00 4.5014886326463648e+00 1.5283743545251683e+01 2.5256067318915938e+00 
20 1 2 5.6385845319399208e-01 -3.0786535495740761e+00 1.0000000000000000e+00 3.0818286264552515e+00 1.7266630165037355e+01 2.4972447413967043e+00 
217 1 2 5.6385845319399208e-01 -8.5156841929960798e+00 1.0000000000000000e+00 2.2185567675603859e+00 1.9453254859355258e+01 1.9873170089926901e+00 
213 1 2 5.6385845319399208e-01 -4.6366357009973441e+01 1.0000000000000000e+00 5.3724296564142895e+00 1.9705869801581784e+01 1.5482651399750964e+00 
89 1 2 5.6385845319399208e-01 -4.9105207647954629e+01 1.0000000000000000e+00 1.4423971097994090e+00 1.1986295636243199e+01 4.1787964860189275e+00 
157 1 2 5.6385845319399208e-01 -2.0485397819154556e+01 1.0000000000000000e+00 3.2959853722529306e+00 1.2136609202151984e+01 2.9784722289055829e+00 
206 1 2 5.6385845319399208e-01 -6.6645621137348350e+00 1.0000000000000000e+00 5.0202924095543153e+00 1.2823079149660282e+01 4.3758763252001192e+00 
280 1 2 5.6385845319399208e-01 3.7926030022062509e+00 1.0000000000000000e+00 3.0947838797672067e+00 1.3603654809891186e+01 4.9391935326148300e+00 
337 1 2 5.6385845319399208e-01 4.7226731197439857e+00 1.0000000000000000e+00 5.5362292873587844e+00 1.5451038729188330e+01 5.5795816821234494e+00 
153 1 2 5.6385845319399208e-01 4.0211657370520806e+00 1.0000000000000000e+00 2.5190256611414594e+00 1.7950888501538422e+01 4.3175894764218929e+00 
310 1 2 5.6385845319399208e-01 5.0368773931080959e+00 1.0000000000000000e+00 5.6408117846505821e+00 1.8251260399497355e+01 4.3080028927029597e+00 
84 1 2 5.6385845319399208e-01 5.6322999033659578e+00 1.0000000000000000e+00 7.0774562446773059e-01 1.0677472717661955e+01 7.0116793058157860e+00 
2 1 2 5.6385845319399208e-01 5.7383123351511482e+00 1.0000000000000000e+00 3.8049840975331959e+00 1.1404414985941237e+01 5.7501268702482911e+00 
87 1 2 5.6385845319399208e-01 6.4590799984946514e+00 1.0000000000000000e+00 1.6865813309691078e+00 1.3110382529662900e+01 6.7906793474399008e+00 
109 1 2 5.6385845319399208e-01 3.0774152326990460e+00 1.0000000000000000e+00 6.6057012721870416e+00 1.3606796991851420e+01 6.4258475064429232e+00 
297 1 2 5.6385845319399208e-01 -2.7299586475523050e+00 1.0000000000000000e+00 3.2520356993252366e+00 1.4444457981789329e+01 7.1131800106879792e+00 
83 1 2 5.6385845319399208e-01 6.2942482772421169e+00 1.0000000000000000e+00 3.3871836240916520e+00 1.7491081941257686e+01 7.0944333140207947e+00 
339 1 2 5.6385845319399208e-01 -3.4871648437916065e+01 1.0000000000000000e+00 5.5589801443406337e+00 1.1093738976366224e+01 8.2947049662876715e+00 
340 1 2 5.6385845319399208e-01 5.3713683660935185e+00 1.0000000000000000e+00 5.1812547049882189e+00 1.7831006688803246e+01 8.0140107157777685e+00 
184 1 2 5.6385845319399208e-01 -4.4742043678893189e+01 1.0000000000000000e+00 1.9982451968932700e+00 1.8906854330806940e+01 7.7732523683339068e+00 
48 1 2 5.6385845319399208e-01 5.6879318662965339e+00 1.0000000000000000e+00 8.4095278929689266e-01 1.2038529176429645e+01 9.8044870403262045e+00 
307 1 2 5.6385845319399208e-01 9.2857960287850965e+00 1.0000000000000000e+00 4.3607263755117991e+00 1.4537118076215117e+01 8.7777351943246789e+00 
128 1 2 5.6385846178716670e-01 4.7765019720762636e+00 1.0000000000000000e+00 4.9421440758072210e-01 1.6191934807114720e+01 9.5570914426400240e+00 
224 1 2 5.6385845319399208e-01 2.5501003715778046e+00 1.0000000000000000e+00 2.6830545340122871e+00 1.7830789273078828e+01 9.6688829487331294e+00 
182 1 2 5.6385845319399208e-01 5.3756991013145914e+00 1.0000000000000000e+00 2.7631076694267160e+00 1.0949015633651440e+01 1.0431503331679966e+01 
71 1 2 5.6385859060997234e-01 -2.9976623365219311e+01 1.0000000000000000e+00 4.8407536488454985e+00 1.2653695081565818e+01 1.0081625757744591e+01 
145 1 2 5.6385845319399208e-01 8.6818535791873579e+00 1.0000000000000000e+00 5.1802150975170678e+00 1.4723535163439388e+01 1.0713608655473070e+01 
379 1 2 5.6385846178716670e-01 4.2731329474384312e+00 1.0000000000000000e+00 1.4418764488538558e+00 1.5717522191291557e+01 1.1240136691429441e+01 
221 1 2 5.6385845319399208e-01 3.8900731322905568e-01 1.0000000000000000e+00 1.3381237561521537e+00 1.7724983312706783e+01 1.1230087384379956e+01 
309 1 2 5.6385845319399208e-01 -7.2856690694517194e+00 1.0000000000000000e+00 6.0108063378736727e+00 1.8405754579117374e+01 1.0098564333201610e+01 
190 1 2 5.6385845319399208e-01 3.4844786392405638e+00 1.0000000000000000e+00 5.4286751354111100e+00 1.1021497132557338e+01 1.2030639401352067e+01 
139 1 2 5.6385847045177429e-01 5.5281207491793705e+00 1.0000000000000000e+00 1.1798457070619397e+00 1.3947653196249568e+01 1.2371524237404438e+01 
162 1 2 5.6385845319399208e-01 -2.6674481677721502e+00 1.0000000000000000e+00 3.3170983280968924e+00 1.4363018548702154e+01 1.2240453131384257e+01 
193 1 2 5.6385845319399208e-01 5.4421189074642058e+00 1.0000000000000000e+00 1.6536398321953534e+00 1.9273499787487022e+01 1.2481402528804248e+01 
318 1 2 5.6385845319399208e-01 3.9193164851640185e+00 1.0000000000000000e+00 4.5992824475281280e+00 1.9646716463408563e+01 1.2722322938488674e+01 
24 1 2 5.6385845319399208e-01 4.8004558709202563e+00 1.0000000000000000e+00 9.9258839065025162e-01 1.0540638472942332e+01 1.3329610547012406e+01 
176 1 2 5.6385845319399208e-01 2.5925550081649078e+00 1.0000000000000000e+00 5.0806553492042150e+00 1.0879506999539771e+01 1.4268737112057281e+01 
158 1 2 5.6385847045177429e-01 -6.8800755605135251e+00 1.0000000000000000e+00 1.3220954409321259e+00 1.3201397162072535e+01 1.4207385626509035e+01 
358 1 2 5.6385894503258238e-01 3.4812790373383642e+00 1.0000000000000000e+00 8.6714836335364887e-01 1.6964274548381344e+01 1.3092356305602250e+01 
67 1 2 5.6385894503258238e-01 3.3946222701912294e+00 1.0000000000000000e+00 2.6093785087051358e+00 1.6156976329157843e+01 1.3529015740291664e+01 
345 1 2 5.6385845319399208e-01 5.2543892625162290e+00 1.0000000000000000e+00 6.4465807670400066e+00 1.6329913859278935e+01 1.3228489800910189e+01 
377 1 2 5.6385845319399208e-01 6.2634825914461807e+00 1.0000000000000000e+00 4.3066346749902422e+00 1.5558078438982395e+01 1.5236436516845997e+01 
39 1 2 5.6385845319399208e-01 8.5073185867703032e+00 1.0000000000000000e+00 9.3568038165086120e-01 1.6956632750141697e+01 1.5307927172248945e+01 
29 1 2 5.6385845319399208e-01 5.4580016038252701e+00 1.0000000000000000e+00 3.7643884226455215e+00 1.7606201507018604e+01 1.5625229823687125e+01 
120 1 2 5.6385845319399208e-01 -4.2468925378203181e+01 1.0000000000000000e+00 5.6525036190081268e+00 1.8365160791191055e+01 1.4923950484045470e+01 
186 1 2 5.6385845488334274e-01 -1.7663169533478825e+01 1.0000000000000000e+00 2.3546851161531310e+00 1.9160137671642534e+01 1.5042784976763887e+01 
356 1 2 5.6385845319399208e-01 4.6318442714726551e+00 1.0000000000000000e+00 3.3563642902119026e+00 1.0770321752769593e+01 1.6317214348284711e+01 
259 1 2 5.6385863693997207e-01 3.2868269931577343e+00 1.0000000000000000e+00 5.2352745917729704e-01 1.3812756954628163e+01 1.6471755857206873e+01 
257 1 2 5.6385845539056068e-01 -1.2890440709708135e+00 1.0000000000000000e+00 2.7236366910337457e+00 1.3128324285152296e+01 1.5789047812632955e+01 
59 1 2 5.6385845319399208e-01 7.0310891274469487e+00 1.0000000000000000e+00 2.4941271451150504e+00 1.6175422593193790e+01 1.6836003271943966e+01 
141 1 2 5.6385845488334274e-01 3.9179992988938137e+00 1.0000000000000000e+00 1.3629520205975734e+00 1.9331946565324813e+01 1.6762676101622215e+01 
188 1 2 5.6385845319399208e-01 -9.4048458394956000e+00 1.0000000000000000e+00 3.9472413114328111e+00 1.1352138402080088e+01 1.8463452297744514e+01 
155 1 2 5.6385845539056068e-01 4.6104521375751757e+00 1.0000000000000000e+00 2.1109066561510419e+00 1.3313610975841941e+01 1.7675591465935288e+01 
378 1 2 5.6385845319399208e-01 8.4966229570571201e+00 1.0000000000000000e+00 5.3069736659355380e+00 1.3741197913875739e+01 1.7385177367969920e+01 
115 1 2 5.6385845319399208e-01 4.7801830166159203e+00 1.0000000000000000e+00 5.9262594312212551e+00 1.1227691633111235e+01 1.9142854737080111e+01 
127 1 2 5.6385845319399208e-01 2.0780344495194569e+00 1.0000000000000000e+00 7.7496750201248299e-01 1.2565133317802047e+01 1.9320150037723998e+01 
271 1 2 5.6385853649804984e-01 2.8227421512247370e+00 1.0000000000000000e+00 4.1280922269236404e+00 1.8719363286189513e+01 1.9338330574280526e+01 
68 1 2 5.6385902930651632e-01 5.6700990190552689e+00 1.0000000000000000e+00 9.1199226589460416e+00 1.3642135825356640e+00 2.9285657804272741e-01 
72 1 2 5.6385845319399208e-01 4.8518503395210058e+00 1.0000000000000000e+00 1.1959527532613111e+01 1.6588710025761990e+00 5.3890847110497930e-01 
277 1 2 5.6385845319399208e-01 -4.6725166105394521e+01 1.0000000000000000e+00 9.3410399626863150e+00 8.4302065220203080e+00 1.2957877463930181e+00 
273 1 2 5.6385845319399208e-01 5.0241681559397016e+00 1.0000000000000000e+00 1.1976670470111818e+01 7.6111040300489599e+00 1.2263647866377683e+00 
249 1 2 5.6385845319399208e-01 -1.2240070945388773e+01 1.0000000000000000e+00 9.4778001804113163e+00 9.0346737805730293e-01 2.4838944991741920e+00 
110 1 2 5.6385845319399208e-01 4.6767082947599885e+00 1.0000000000000000e+00 7.5906534909189958e+00 1.5942694335624974e+00 1.6768339518748501e+00 
263 1 2 5.6385845319399208e-01 5.8087186045658381e+00 1.0000000000000000e+00 9.3630260713397018e+00 3.6386070994016926e+00 2.8106923114155364e+00 
279 1 2 5.6385845319399208e-01 4.4050812087658349e+00 1.0000000000000000e+00 1.1275360646352620e+01 3.7082643865105172e+00 1.4421829726461590e+00 
253 1 2 5.6385845319399208e-01 4.4454066674790358e+00 1.0000000000000000e+00 7.7675454837899807e+00 4.9618800808266981e+00 2.1546814944795072e+00 
354 1 2 5.6385845319399208e-01 4.7944782029994268e+00 1.0000000000000000e+00 7.0305185846795268e+00 9.7257135268155341e+00 1.6575879876474418e+00 
52 1 2 5.6385845319399208e-01 5.1310536727857432e+00 1.0000000000000000e+00 8.3249259079294067e+00 1.3792049147710055e+00 4.0959168357617797e+00 
104 1 2 5.6385845319399208e-01 2.2091255870864783e+00 1.0000000000000000e+00 1.3065701436625783e+01 9.6674798617632707e-01 3.7412248009588764e+00 
353 1 2 5.6385845319399208e-01 -2.0439393590869104e+00 1.0000000000000000e+00 1.1715743056559646e+01 3.0533213199996654e+00 4.1254177304169133e+00 
283 1 2 5.6385845319399208e-01 1.0034860122495733e+01 1.0000000000000000e+00 8.2628560639515882e+00 8.7654041365933146e+00 2.9685235489255648e+00 
247 1 2 5.6385845319399208e-01 3.7472670101796943e+00 1.0000000000000000e+00 1.1804041847161903e+01 5.2763239167366383e+00 4.3546692603340045e+00 
223 1 2 5.6385845325487227e-01 5.0585364715025118e+00 1.0000000000000000e+00 7.3966582175894562e+00 9.6418613563310220e+00 5.1174099239226534e+00 
55 1 2 5.6385845319399208e-01 -6.9033162829289747e+00 1.0000000000000000e+00 9.7997621312509953e+00 8.9188227951725825e+00 4.5086970778649595e+00 
133 1 2 5.6385857830101116e-01 -1.8824687043340170e+01 1.0000000000000000e+00 1.2718423131697865e+01 9.4679002059300270e+00 4.4070670816934898e+00 
250 1 2 5.6385845319399208e-01 -1.3441844598114663e+01 1.0000000000000000e+00 1.0293089148115708e+01 9.9291746940595627e-01 5.9928067735131352e+00 
246 1 2 5.6385845319399208e-01 1.3381225237514704e+00 1.0000000000000000e+00 9.2631651551701939e+00 4.7108929367445604e+00 5.8712113670751558e+00 
195 1 2 5.6385845319399208e-01 3.2411945079597002e+00 1.0000000000000000e+00 1.2096771456791664e+01 4.3538957868893808e+00 6.9639921544520238e+00 
380 1 2 5.6385960761625264e-01 9.0803083528347788e+00 1.0000000000000000e+00 1.1797029561190763e+01 7.1039069354657061e+00 6.4180681204826486e+00 
239 1 2 5.6385845319399208e-01 4.5540317419056446e+00 1.0000000000000000e+00 8.3931554551388814e+00 7.3955186849812176e+00 5.7735516904324458e+00 
375 1 2 5.6385845319399208e-01 9.1865887158071158e-01 1.0000000000000000e+00 9.4642819645415468e+00 9.7625065872860546e+00 6.4343409845282125e+00 
347 1 2 5.6385857346985013e-01 6.3083011627955061e+00 1.0000000000000000e+00 8.3934638439376936e+00 5.0044086455426458e+00 7.9747572443632349e+00 
98 1 2 5.6385960761625264e-01 7.8153066344264284e+00 1.0000000000000000e+00 1.0244556854255201e+01 7.1254774102748879e+00 7.6172875886252083e+00 
303 1 2 5.6385845319399208e-01 8.0698551499441287e+00 1.0000000000000000e+00 1.2325667984633247e+01 8.5218244772556329e+00 8.4114576002941899e+00 
242 1 2 5.6385845319399208e-01 3.5673800200664116e+00 1.0000000000000000e+00 6.8065183512420742e+00 1.0196884996181899e+00 8.6243042654248292e+00 
177 1 2 5.6385845319399208e-01 6.1241065714936571e+00 1.0000000000000000e+00 1.2957890810204283e+01 1.2347128786849588e+00 9.9582905466704315e+00 
12 1 2 5.6385857346985013e-01 -1.7004916759066566e+00 1.0000000000000000e+00 7.5689864559252023e+00 3.3593600350798396e+00 8.7012658065743107e+00 
117 1 2 5.6385845319399208e-01 -2.2356955770916755e+01 1.0000000000000000e+00 9.0176030932302744e+00 6.3865834395860013e+00 9.5744423171448947e+00 
58 1 2 5.6385845319399208e-01 -2.6553669596802777e+01 1.0000000000000000e+00 6.9299881513515285e+00 8.9873793922015555e+00 8.7634376545499535e+00 
211 1 2 5.6385845319399208e-01 4.4759002769751728e+00 1.0000000000000000e+00 1.0780379621780638e+01 9.9084670880696457e+00 8.9500639678680507e+00 
64 1 2 5.6385845319399208e-01 7.2624625690290348e+00 1.0000000000000000e+00 9.3711913412284282e+00 1.3422912090356316e+00 1.0253357236060495e+01 
228 1 2 5.6385845319399208e-01 4.6140072020126777e+00 1.0000000000000000e+00 1.1261668908914762e+01 2.8237816908496010e+00 1.0993226465996354e+01 
284 1 2 5.6385845319399208e-01 2.6087692008225609e+00 1.0000000000000000e+00 8.9674929319499839e+00 3.4351417253737648e+00 1.1140577232093158e+01 
327 1 2 5.6385848575088382e-01 8.3777472166526721e+00 1.0000000000000000e+00 7.2996074474565775e+00 5.8172879759709231e+00 1.0628813068321858e+01 
6 1 2 5.6385845319399208e-01 4.2582123811873007e+00 1.0000000000000000e+00 1.0898317626053691e+01 6.8436961177268012e+00 1.0142525516393103e+01 
1 1 2 5.6385845319399208e-01 3.1772848266567708e+00 1.0000000000000000e+00 7.4564640337339041e+00 7.8982977509840255e+00 1.1345732715851632e+01 
183 1 2 5.6385845319399208e-01 5.1016179638198444e+00 1.0000000000000000e+00 1.0240249603730755e+01 8.4431460924708679e-01 1.2612542207072583e+01 
93 1 2 5.6385845319399208e-01 -2.0772499438414819e+01 1.0000000000000000e+00 1.2748839987399620e+01 3.5891615234396324e+00 1.2266499771225392e+01 
330 1 2 5.6385845319399208e-01 -5.3498604344109761e+00 1.0000000000000000e+00 1.3223914683159350e+01 6.4131909600542576e+00 1.1975048655297519e+01 
323 1 2 5.6385845319399208e-01 8.2157310801318353e+00 1.0000000000000000e+00 9.3468626391348941e+00 7.2616433035276620e+00 1.2146583081950277e+01 
208 1 2 5.6385845319399208e-01 3.4304481721398581e+00 1.0000000000000000e+00 1.1817965824110427e+01 8.0062781928864926e+00 1.2036680780510048e+01 
119 1 2 5.6385845319399208e-01 2.7826783659010594e+00 1.0000000000000000e+00 8.2278404392226872e+00 2.5668667330185171e+00 1.3473248997672897e+01 
262 1 2 5.6385845319399208e-01 1.0589339300323346e+01 1.0000000000000000e+00 1.1140990411995142e+01 2.8708715762967021e+00 1.4019130027657452e+01 
245 1 2 5.6385845319399208e-01 -3.3769962575391039e+00 1.0000000000000000e+00 8.9451797879713375e+00 4.6148066514425361e+00 1.4118069680059099e+01 
42 1 2 5.6385845319399208e-01 -1.6554471660618217e+00 1.0000000000000000e+00 8.2313492984139032e+00 8.2047262031701909e+00 1.3778294963474712e+01 
66 1 2 5.6385845319399208e-01 4.6445737232643864e+00 1.0000000000000000e+00 1.3101060849403684e+01 6.1566176431404696e+00 1.4453163142856916e+01 
308 1 2 5.6385845319399208e-01 2.7112678211964649e+00 1.0000000000000000e+00 9.8685960340790100e+00 9.3474999575929427e+00 1.4923297681160884e+01 
362 1 2 5.6385845319399208e-01 7.6121066403873385e+00 1.0000000000000000e+00 1.2821820395125147e+01 8.6045040967337254e+00 1.4640941102844209e+01 
287 1 2 5.6385845319399208e-01 2.7607716562288385e+00 1.0000000000000000e+00 8.6310212487033233e+00 1.5398521096065088e+00 1.6041787905876749e+01 
107 1 2 5.6385845319399208e-01 6.0257789533425701e+00 1.0000000000000000e+00 1.2245594350410661e+01 1.7528882493024904e+00 1.7009778208901452e+01 
322 1 2 5.6385845319399208e-01 3.8545446976281079e+00 1.0000000000000000e+00 1.1335525495605602e+01 5.4923401679114150e+00 1.6008414267001363e+01 
268 1 2 5.6385845319399208e-01 2.8379202271265696e+00 1.0000000000000000e+00 8.6916067241872010e+00 5.9696826645166059e+00 1.6818170851128873e+01 
80 1 2 5.6385845319399208e-01 3.5693354500384400e+00 1.0000000000000000e+00 9.7611239204160345e+00 3.1157415128135053e+00 1.7338024522201557e+01 
296 1 2 5.6385845319399208e-01 5.0937578554734078e+00 1.0000000000000000e+00 1.1919786341836909e+01 3.5158794012001455e+00 1.8509595234227511e+01 
329 1 2 5.6385845319399208e-01 4.0875234332733754e+00 1.0000000000000000e+00 1.0770424184960197e+01 7.5145665301966922e+00 1.7779049603761493e+01 
191 1 2 5.6385845319399208e-01 2.6102574704411792e+00 1.0000000000000000e+00 7.2506986928078137e+00 8.9927321308578811e+00 1.7993734805832780e+01 
222 1 2 5.6385845319399208e-01 3.0302262261690487e+00 1.0000000000000000e+00 1.2626573762531477e+01 8.7253391116024535e+00 1.8550646874438272e+01 
361 1 2 5.6385845319399208e-01 4.2841916152311263e+00 1.0000000000000000e+00 6.8107267486523950e+00 2.4592832194708052e+00 1.9221045017120328e+01 
291 1 2 5.6385902930651632e-01 2.1583255492689477e+00 1.0000000000000000e+00 9.8341832065956449e+00 3.1341931029610550e+00 1.9813422128881847e+01 
204 1 2 5.6385845319399208e-01 4.2994726693233054e-01 1.0000000000000000e+00 6.7003734727031725e+00 4.4485133042459033e+00 1.9693557309685673e+01 
10 1 2 5.6385845319399208e-01 -2.8564981653373485e+00 1.0000000000000000e+00 1.0638612271313193e+01 5.6520700203460423e+00 1.9272020623223074e+01 
275 1 2 5.6385845319399208e-01 4.0451693778015709e+00 1.0000000000000000e+00 1.3047264398567449e+01 4.6274132769301763e+00 1.9794014784580895e+01 
202 1 2 5.6385845319399208e-01 -8.0374225896921949e+00 1.0000000000000000e+00 1.0704214331484444e+01 8.6016089435228409e+00 1.9665832975610176e+01 
167 1 2 5.6385845319399208e-01 4.5762961837834375e+00 1.0000000000000000e+00 1.2129215313698069e+01 1.0695145786820436e+01 7.3879545206271791e-01 
274 1 2 5.6385845319399208e-01 7.3803327234704175e-01 1.0000000000000000e+00 1.1628458061030623e+01 1.5772328573699566e+01 2.4018396188115698e-01 
207 1 2 5.6385845319399208e-01 4.3167090856332244e+00 1.0000000000000000e+00 8.3371931269127497e+00 1.7618520540121782e+01 6.2167563845817131e-01 
316 1 2 5.6385845319399208e-01 4.6796198215668561e+00 1.0000000000000000e+00 9.8848865830086208e+00 1.9386476689412493e+01 9.1540559022683959e-02 
114 1 2 5.6385845319399208e-01 4.5612871516011886e+00 1.0000000000000000e+00 1.2536006984459032e+01 1.6332161147936446e+01 1.9806585745855214e+00 
384 1 2 5.6385845319399208e-01 7.3222104415357645e+00 1.0000000000000000e+00 1.1791644600105473e+01 1.9444386523525548e+01 1.9451806218287109e+00 
75 1 2 5.6385848403579630e-01 3.9532008901234343e+00 1.0000000000000000e+00 9.3127261394381016e+00 1.6259647234671252e+01 4.0987122564069933e+00 