LAMMPS data file via write_data, version 30 Jul 2016, timestep = 1000000

2080 atoms
8 atom types

0.0000000000000000e+00 4.0000000000000000e+01 xlo xhi
0.0000000000000000e+00 4.0000000000000000e+01 ylo yhi
0.0000000000000000e+00 1.0000000000000000e+02 zlo zhi

Masses

1 3.896
2 4.306
3 20.064
4 8.378
5 8.378
6 8.378
7 8.378
8 8.378

Atoms # meso-molecular

1 2 4 2.2559723595316457e+00 0.0000000000000000e+00 1.0000000000000000e+00 0.0000000000000000e+00 0.0000000000000000e+00 2.5000000000000000e+00 
2 2 4 2.2559723595316457e+00 0.0000000000000000e+00 1.0000000000000000e+00 0.0000000000000000e+00 2.0000000000000000e+00 2.5000000000000000e+00 
21 2 4 2.2559723595316457e+00 0.0000000000000000e+00 1.0000000000000000e+00 2.0000000000000000e+00 0.0000000000000000e+00 2.5000000000000000e+00 
22 2 4 2.2559723595316457e+00 0.0000000000000000e+00 1.0000000000000000e+00 2.0000000000000000e+00 2.0000000000000000e+00 2.5000000000000000e+00 
41 2 4 2.2559723595316457e+00 0.0000000000000000e+00 1.0000000000000000e+00 4.0000000000000000e+00 0.0000000000000000e+00 2.5000000000000000e+00 
42 2 4 2.2559723595316457e+00 0.0000000000000000e+00 1.0000000000000000e+00 4.0000000000000000e+00 2.0000000000000000e+00 2.5000000000000000e+00 
61 2 4 2.2559723595316457e+00 0.0000000000000000e+00 1.0000000000000000e+00 6.0000000000000000e+00 0.0000000000000000e+00 2.5000000000000000e+00 
62 2 4 2.2559723595316457e+00 0.0000000000000000e+00 1.0000000000000000e+00 6.0000000000000000e+00 2.0000000000000000e+00 2.5000000000000000e+00 
81 2 4 2.2559723595316457e+00 0.0000000000000000e+00 1.0000000000000000e+00 8.0000000000000000e+00 0.0000000000000000e+00 2.5000000000000000e+00 
82 2 4 2.2559723595316457e+00 0.0000000000000000e+00 1.0000000000000000e+00 8.0000000000000000e+00 2.0000000000000000e+00 2.5000000000000000e+00 
101 2 4 2.2559723595316457e+00 0.0000000000000000e+00 1.0000000000000000e+00 1.0000000000000000e+01 0.0000000000000000e+00 2.5000000000000000e+00 
102 2 4 2.2559723595316457e+00 0.0000000000000000e+00 1.0000000000000000e+00 1.0000000000000000e+01 2.0000000000000000e+00 2.5000000000000000e+00 
121 2 4 2.2559723595316457e+00 0.0000000000000000e+00 1.0000000000000000e+00 1.2000000000000000e+01 0.0000000000000000e+00 2.5000000000000000e+00 
122 2 4 2.2559723595316457e+00 0.0000000000000000e+00 1.0000000000000000e+00 1.2000000000000000e+01 2.0000000000000000e+00 2.5000000000000000e+00 
141 2 4 2.2559723595316457e+00 0.0000000000000000e+00 1.0000000000000000e+00 1.4000000000000000e+01 0.0000000000000000e+00 2.5000000000000000e+00 
142 2 4 2.2559723595316457e+00 0.0000000000000000e+00 1.0000000000000000e+00 1.4000000000000000e+01 2.0000000000000000e+00 2.5000000000000000e+00 
161 2 4 2.2559723595316457e+00 0.0000000000000000e+00 1.0000000000000000e+00 1.6000000000000000e+01 0.0000000000000000e+00 2.5000000000000000e+00 
162 2 4 2.2559723595316457e+00 0.0000000000000000e+00 1.0000000000000000e+00 1.6000000000000000e+01 2.0000000000000000e+00 2.5000000000000000e+00 
181 2 4 2.2559723595316457e+00 0.0000000000000000e+00 1.0000000000000000e+00 1.8000000000000000e+01 0.0000000000000000e+00 2.5000000000000000e+00 
182 2 4 2.2559723595316457e+00 9.0622047178357878e-07 1.0000000000000000e+00 1.8000000000000000e+01 2.0000000000000000e+00 2.5000000000000000e+00 
3 2 4 2.2559723595316457e+00 0.0000000000000000e+00 1.0000000000000000e+00 0.0000000000000000e+00 4.0000000000000000e+00 2.5000000000000000e+00 
4 2 4 2.2559723595316457e+00 0.0000000000000000e+00 1.0000000000000000e+00 0.0000000000000000e+00 6.0000000000000000e+00 2.5000000000000000e+00 
23 2 4 2.2559723595316457e+00 0.0000000000000000e+00 1.0000000000000000e+00 2.0000000000000000e+00 4.0000000000000000e+00 2.5000000000000000e+00 
24 2 4 2.2559723595316457e+00 0.0000000000000000e+00 1.0000000000000000e+00 2.0000000000000000e+00 6.0000000000000000e+00 2.5000000000000000e+00 
43 2 4 2.2559723595316457e+00 0.0000000000000000e+00 1.0000000000000000e+00 4.0000000000000000e+00 4.0000000000000000e+00 2.5000000000000000e+00 
44 2 4 2.2559723595316457e+00 0.0000000000000000e+00 1.0000000000000000e+00 4.0000000000000000e+00 6.0000000000000000e+00 2.5000000000000000e+00 
63 2 4 2.2559723595316457e+00 0.0000000000000000e+00 1.0000000000000000e+00 6.0000000000000000e+00 4.0000000000000000e+00 2.5000000000000000e+00 
64 2 4 2.2559723595316457e+00 0.0000000000000000e+00 1.0000000000000000e+00 6.0000000000000000e+00 6.0000000000000000e+00 2.5000000000000000e+00 
83 2 4 2.2559723595316457e+00 0.0000000000000000e+00 1.0000000000000000e+00 8.0000000000000000e+00 4.0000000000000000e+00 2.5000000000000000e+00 
84 2 4 2.2559723595316457e+00 0.0000000000000000e+00 1.0000000000000000e+00 8.0000000000000000e+00 6.0000000000000000e+00 2.5000000000000000e+00 
103 2 4 2.2559723595316457e+00 0.0000000000000000e+00 1.0000000000000000e+00 1.0000000000000000e+01 4.0000000000000000e+00 2.5000000000000000e+00 
104 2 4 2.2559723595316457e+00 2.0747903814153226e-08 1.0000000000000000e+00 1.0000000000000000e+01 6.0000000000000000e+00 2.5000000000000000e+00 
123 2 4 2.2559723595316457e+00 0.0000000000000000e+00 1.0000000000000000e+00 1.2000000000000000e+01 4.0000000000000000e+00 2.5000000000000000e+00 
124 2 4 2.2559723595316457e+00 4.3329894429309166e-06 1.0000000000000000e+00 1.2000000000000000e+01 6.0000000000000000e+00 2.5000000000000000e+00 
143 2 4 2.2559723595316457e+00 5.5560191819531530e-09 1.0000000000000000e+00 1.4000000000000000e+01 4.0000000000000000e+00 2.5000000000000000e+00 
144 2 4 2.2559723595316457e+00 3.8374237654843848e-08 1.0000000000000000e+00 1.4000000000000000e+01 6.0000000000000000e+00 2.5000000000000000e+00 
163 2 4 2.2559723595316457e+00 1.1323853766594273e-06 1.0000000000000000e+00 1.6000000000000000e+01 4.0000000000000000e+00 2.5000000000000000e+00 
164 2 4 2.2559723595316457e+00 4.1659712437966208e-05 1.0000000000000000e+00 1.6000000000000000e+01 6.0000000000000000e+00 2.5000000000000000e+00 
183 2 4 2.2559723595316457e+00 4.5914476907500407e-06 1.0000000000000000e+00 1.8000000000000000e+01 4.0000000000000000e+00 2.5000000000000000e+00 
184 2 4 2.2559723595316457e+00 7.9202088190305947e-05 1.0000000000000000e+00 1.8000000000000000e+01 6.0000000000000000e+00 2.5000000000000000e+00 
5 2 4 2.2559723595316457e+00 0.0000000000000000e+00 1.0000000000000000e+00 0.0000000000000000e+00 8.0000000000000000e+00 2.5000000000000000e+00 
6 2 4 2.2559723595316457e+00 0.0000000000000000e+00 1.0000000000000000e+00 0.0000000000000000e+00 1.0000000000000000e+01 2.5000000000000000e+00 
25 2 4 2.2559723595316457e+00 0.0000000000000000e+00 1.0000000000000000e+00 2.0000000000000000e+00 8.0000000000000000e+00 2.5000000000000000e+00 
26 2 4 2.2559723595316457e+00 0.0000000000000000e+00 1.0000000000000000e+00 2.0000000000000000e+00 1.0000000000000000e+01 2.5000000000000000e+00 
45 2 4 2.2559723595316457e+00 0.0000000000000000e+00 1.0000000000000000e+00 4.0000000000000000e+00 8.0000000000000000e+00 2.5000000000000000e+00 
46 2 4 2.2559723595316457e+00 0.0000000000000000e+00 1.0000000000000000e+00 4.0000000000000000e+00 1.0000000000000000e+01 2.5000000000000000e+00 
65 2 4 2.2559723595316457e+00 0.0000000000000000e+00 1.0000000000000000e+00 6.0000000000000000e+00 8.0000000000000000e+00 2.5000000000000000e+00 
66 2 4 2.2559723595316457e+00 4.5565792109544068e-07 1.0000000000000000e+00 6.0000000000000000e+00 1.0000000000000000e+01 2.5000000000000000e+00 
85 2 4 2.2559723595316457e+00 2.0543321764190820e-06 1.0000000000000000e+00 8.0000000000000000e+00 8.0000000000000000e+00 2.5000000000000000e+00 
86 2 4 2.2559723595316457e+00 2.5637587148630909e-05 1.0000000000000000e+00 8.0000000000000000e+00 1.0000000000000000e+01 2.5000000000000000e+00 
105 2 4 2.2559723595316457e+00 0.0000000000000000e+00 1.0000000000000000e+00 1.0000000000000000e+01 8.0000000000000000e+00 2.5000000000000000e+00 
106 2 4 2.2559723595316457e+00 -1.4016725363777958e-07 1.0000000000000000e+00 1.0000000000000000e+01 1.0000000000000000e+01 2.5000000000000000e+00 
125 2 4 2.2559723595316457e+00 1.1658683386667500e-05 1.0000000000000000e+00 1.2000000000000000e+01 8.0000000000000000e+00 2.5000000000000000e+00 
126 2 4 2.2559723595316457e+00 4.2857945474238115e-08 1.0000000000000000e+00 1.2000000000000000e+01 1.0000000000000000e+01 2.5000000000000000e+00 
145 2 4 2.2559723595316457e+00 -3.9414866269429176e+01 1.0000000000000000e+00 1.4000000000000000e+01 8.0000000000000000e+00 2.5000000000000000e+00 
146 2 4 2.2559723595316457e+00 -2.0645359796336388e+02 1.0000000000000000e+00 1.4000000000000000e+01 1.0000000000000000e+01 2.5000000000000000e+00 
165 2 4 2.2559723595316457e+00 -2.0664804996376020e+02 1.0000000000000000e+00 1.6000000000000000e+01 8.0000000000000000e+00 2.5000000000000000e+00 
166 2 4 2.2559723595316457e+00 -8.7837242838365182e+02 1.0000000000000000e+00 1.6000000000000000e+01 1.0000000000000000e+01 2.5000000000000000e+00 
185 2 4 2.2559723595316457e+00 -2.8774212550753634e+02 1.0000000000000000e+00 1.8000000000000000e+01 8.0000000000000000e+00 2.5000000000000000e+00 
186 2 4 2.2559723595316457e+00 -1.2097871277587485e+03 1.0000000000000000e+00 1.8000000000000000e+01 1.0000000000000000e+01 2.5000000000000000e+00 
7 2 4 2.2559723595316457e+00 0.0000000000000000e+00 1.0000000000000000e+00 0.0000000000000000e+00 1.2000000000000000e+01 2.5000000000000000e+00 
8 2 4 2.2559723595316457e+00 0.0000000000000000e+00 1.0000000000000000e+00 0.0000000000000000e+00 1.4000000000000000e+01 2.5000000000000000e+00 
27 2 4 2.2559723595316457e+00 0.0000000000000000e+00 1.0000000000000000e+00 2.0000000000000000e+00 1.2000000000000000e+01 2.5000000000000000e+00 
28 2 4 2.2559723595316457e+00 0.0000000000000000e+00 1.0000000000000000e+00 2.0000000000000000e+00 1.4000000000000000e+01 2.5000000000000000e+00 
47 2 4 2.2559723595316457e+00 0.0000000000000000e+00 1.0000000000000000e+00 4.0000000000000000e+00 1.2000000000000000e+01 2.5000000000000000e+00 
48 2 4 2.2559723595316457e+00 0.0000000000000000e+00 1.0000000000000000e+00 4.0000000000000000e+00 1.4000000000000000e+01 2.5000000000000000e+00 
67 2 4 2.2559723595316457e+00 0.0000000000000000e+00 1.0000000000000000e+00 6.0000000000000000e+00 1.2000000000000000e+01 2.5000000000000000e+00 
68 2 4 2.2559723595316457e+00 0.0000000000000000e+00 1.0000000000000000e+00 6.0000000000000000e+00 1.4000000000000000e+01 2.5000000000000000e+00 
87 2 4 2.2559723595316457e+00 3.6636703659920912e-05 1.0000000000000000e+00 8.0000000000000000e+00 1.2000000000000000e+01 2.5000000000000000e+00 
88 2 4 2.2559723595316457e+00 6.0610181042078943e-05 1.0000000000000000e+00 8.0000000000000000e+00 1.4000000000000000e+01 2.5000000000000000e+00 
107 2 4 2.2559723595316457e+00 1.1407779282340805e-04 1.0000000000000000e+00 1.0000000000000000e+01 1.2000000000000000e+01 2.5000000000000000e+00 
108 2 4 2.2559723595316457e+00 2.1683835558518409e-04 1.0000000000000000e+00 1.0000000000000000e+01 1.4000000000000000e+01 2.5000000000000000e+00 
127 2 4 2.2559723595316457e+00 5.6002486269774809e-05 1.0000000000000000e+00 1.2000000000000000e+01 1.2000000000000000e+01 2.5000000000000000e+00 
128 2 4 2.2559723595316457e+00 -8.5513663144662819e-06 1.0000000000000000e+00 1.2000000000000000e+01 1.4000000000000000e+01 2.5000000000000000e+00 
147 2 4 2.2559723595316457e+00 -2.8695934393223547e+02 1.0000000000000000e+00 1.4000000000000000e+01 1.2000000000000000e+01 2.5000000000000000e+00 
148 2 4 2.2559723595316457e+00 -2.9863108854920557e+02 1.0000000000000000e+00 1.4000000000000000e+01 1.4000000000000000e+01 2.5000000000000000e+00 
167 2 4 2.2559723595316457e+00 -1.2061284042923940e+03 1.0000000000000000e+00 1.6000000000000000e+01 1.2000000000000000e+01 2.5000000000000000e+00 
168 2 4 2.2559723595316457e+00 -1.2401615163738243e+03 1.0000000000000000e+00 1.6000000000000000e+01 1.4000000000000000e+01 2.5000000000000000e+00 
187 2 4 2.2559723595316457e+00 -1.6138047077781953e+03 1.0000000000000000e+00 1.8000000000000000e+01 1.2000000000000000e+01 2.5000000000000000e+00 
188 2 4 2.2559723595316457e+00 -1.6420871031998784e+03 1.0000000000000000e+00 1.8000000000000000e+01 1.4000000000000000e+01 2.5000000000000000e+00 
9 2 4 2.2559723595316457e+00 0.0000000000000000e+00 1.0000000000000000e+00 0.0000000000000000e+00 1.6000000000000000e+01 2.5000000000000000e+00 
10 2 4 2.2559723595316457e+00 -1.7475012658542484e-03 1.0000000000000000e+00 0.0000000000000000e+00 1.8000000000000000e+01 2.5000000000000000e+00 
29 2 4 2.2559723595316457e+00 0.0000000000000000e+00 1.0000000000000000e+00 2.0000000000000000e+00 1.6000000000000000e+01 2.5000000000000000e+00 
30 2 4 2.2559723595316457e+00 -3.4052404376982322e-03 1.0000000000000000e+00 2.0000000000000000e+00 1.8000000000000000e+01 2.5000000000000000e+00 
49 2 4 2.2559723595316457e+00 0.0000000000000000e+00 1.0000000000000000e+00 4.0000000000000000e+00 1.6000000000000000e+01 2.5000000000000000e+00 
50 2 4 2.2559723595316457e+00 -2.9078391707106066e-04 1.0000000000000000e+00 4.0000000000000000e+00 1.8000000000000000e+01 2.5000000000000000e+00 
69 2 4 2.2559723595316457e+00 0.0000000000000000e+00 1.0000000000000000e+00 6.0000000000000000e+00 1.6000000000000000e+01 2.5000000000000000e+00 
70 2 4 2.2559723595316457e+00 -3.4367060087482090e-04 1.0000000000000000e+00 6.0000000000000000e+00 1.8000000000000000e+01 2.5000000000000000e+00 
89 2 4 2.2559723595316457e+00 3.9640496856247715e-09 1.0000000000000000e+00 8.0000000000000000e+00 1.6000000000000000e+01 2.5000000000000000e+00 
90 2 4 2.2559723595316457e+00 -1.8165297598052996e-04 1.0000000000000000e+00 8.0000000000000000e+00 1.8000000000000000e+01 2.5000000000000000e+00 
109 2 4 2.2559723595316457e+00 3.5998275116193551e-04 1.0000000000000000e+00 1.0000000000000000e+01 1.6000000000000000e+01 2.5000000000000000e+00 
110 2 4 2.2559723595316457e+00 -5.0269778305225867e-05 1.0000000000000000e+00 1.0000000000000000e+01 1.8000000000000000e+01 2.5000000000000000e+00 
129 2 4 2.2559723595316457e+00 -3.5354132636847003e-04 1.0000000000000000e+00 1.2000000000000000e+01 1.6000000000000000e+01 2.5000000000000000e+00 
130 2 4 2.2559723595316457e+00 1.1478431255373562e-05 1.0000000000000000e+00 1.2000000000000000e+01 1.8000000000000000e+01 2.5000000000000000e+00 
149 2 4 2.2559723595316457e+00 -2.9417344220138216e+02 1.0000000000000000e+00 1.4000000000000000e+01 1.6000000000000000e+01 2.5000000000000000e+00 
150 2 4 2.2559723595316457e+00 -2.9587486188458877e+02 1.0000000000000000e+00 1.4000000000000000e+01 1.8000000000000000e+01 2.5000000000000000e+00 
169 2 4 2.2559723595316457e+00 -1.2164932788899303e+03 1.0000000000000000e+00 1.6000000000000000e+01 1.6000000000000000e+01 2.5000000000000000e+00 
170 2 4 2.2559723595316457e+00 -1.2166961506599732e+03 1.0000000000000000e+00 1.6000000000000000e+01 1.8000000000000000e+01 2.5000000000000000e+00 
189 2 4 2.2559723595316457e+00 -1.5989122021384151e+03 1.0000000000000000e+00 1.8000000000000000e+01 1.6000000000000000e+01 2.5000000000000000e+00 
190 2 4 2.2559723595316457e+00 -1.5605015859425246e+03 1.0000000000000000e+00 1.8000000000000000e+01 1.8000000000000000e+01 2.5000000000000000e+00 
485 87 2 1.0280000494108643e+00 -1.1851994466974641e+03 1.0000000000000000e+00 1.2046667669858165e+01 7.8116291722776836e+00 9.1300433151841830e+01 
1473 1075 2 1.0280000406869967e+00 -5.0663923641378778e+03 1.0000000000000000e+00 1.2092670499309808e+01 7.7244725177690059e+00 9.1237348975478668e+01 
432 34 2 1.0280000007315018e+00 2.9198401926484203e+03 1.0000000000000000e+00 1.2096238273557118e+01 6.6330880571975452e+00 9.1383563435109252e+01 
1114 716 2 1.0280000348476477e+00 -4.0327203693406645e+03 1.0000000000000000e+00 1.2186200342151375e+01 7.8438084872098015e+00 9.1208456900204766e+01 
1874 1476 2 1.0280000286281534e+00 3.4437097747647226e+02 1.0000000000000000e+00 1.2225883415261519e+01 7.7647150316304829e+00 9.1158382429060069e+01 
1273 875 2 1.0280000135933325e+00 -1.5066038862648384e+03 1.0000000000000000e+00 1.2347368690579545e+01 7.2647876871740102e+00 9.1019234705378977e+01 
1535 1137 2 1.0280000126109838e+00 -1.7628133938412109e+03 1.0000000000000000e+00 1.2376797331859693e+01 7.3053106443992943e+00 9.1005362598111844e+01 
1545 1147 2 1.0280000087562655e+00 1.5681857935281425e+03 1.0000000000000000e+00 1.2484454238266665e+01 7.1625679621016998e+00 9.0961222034937052e+01 
1381 983 2 1.0280000085060912e+00 -2.5474073145063394e+03 1.0000000000000000e+00 1.2505077159980253e+01 7.0599205482476970e+00 9.0961195647294815e+01 
1337 939 2 1.0280000697711582e+00 -2.8404847826788086e+03 1.0000000000000000e+00 1.3614551432457384e+01 6.4454226099770118e+00 9.1085468201676747e+01 
1035 637 2 1.0280000894053443e+00 -1.1008497868141123e+03 1.0000000000000000e+00 1.3738728052114134e+01 6.3121120445390480e+00 9.1174050448841840e+01 
762 364 2 1.0280000013850612e+00 7.6917848516418178e+02 1.0000000000000000e+00 1.2691331453572518e+01 6.1513174299212903e+00 9.1261489248811841e+01 
947 549 2 1.0280000461913403e+00 -3.4941506986137042e+03 1.0000000000000000e+00 1.3261086672717953e+01 5.9917918626902029e+00 9.1285611726191576e+01 
950 552 2 1.0280000874805619e+00 -3.0777715417272202e+03 1.0000000000000000e+00 1.3618417496429837e+01 5.9737416896664204e+00 9.1341057619064387e+01 
1016 618 2 1.0279999934470097e+00 -4.6714108215112728e+03 1.0000000000000000e+00 1.9157543003464156e+01 5.7991541003750644e+00 9.1025432335770745e+01 
1013 615 2 1.0279999826648576e+00 -4.6714302227354992e+03 1.0000000000000000e+00 1.9513299562809244e+01 5.7830724041271058e+00 9.1048650103984883e+01 
708 310 2 1.0280000092559602e+00 4.5985609730529104e+03 1.0000000000000000e+00 1.8449361326958353e+01 6.1649534814760170e+00 9.1112377443061831e+01 
551 153 2 1.0280000361597839e+00 2.7115160090830122e+03 1.0000000000000000e+00 1.8257514705854607e+01 5.9559956386913306e+00 9.1150831547771659e+01 
1613 1215 2 1.0280000599589798e+00 3.0380252806399762e+03 1.0000000000000000e+00 1.8240767441043175e+01 5.3950645036312697e+00 9.1207872914518717e+01 
837 439 2 1.0280000347795069e+00 1.7193793690463651e+03 1.0000000000000000e+00 1.8055784364933650e+01 6.2091736347476596e+00 9.1227889608727807e+01 
1226 828 2 1.0279998846105016e+00 -3.1435092137885740e+03 1.0000000000000000e+00 1.8634549078105156e+01 7.2537195546821422e+00 9.1308129065642774e+01 
1830 1432 2 1.0280000772698972e+00 -1.6465503091474745e+03 1.0000000000000000e+00 1.7895771221738034e+01 5.8188966191455442e+00 9.1280535503983074e+01 
1227 829 2 1.0279998396594840e+00 -3.1434725867461862e+03 1.0000000000000000e+00 1.9846386731303788e+01 7.1713996818778840e+00 9.1366299225882045e+01 
1668 1270 2 1.0280000599105450e+00 3.3659528763991730e+03 1.0000000000000000e+00 1.8264147213876843e+01 5.0419912510569276e+00 9.1308424816054682e+01 
1872 1474 2 1.0280001379085273e+00 -2.3121605671093148e+03 1.0000000000000000e+00 1.7538765642734869e+01 5.2405550668146308e+00 9.1565342938970758e+01 
1847 1449 2 1.0280000580475865e+00 1.1498425493411927e+01 1.0000000000000000e+00 1.2145566289599790e+01 8.2580661460387255e+00 9.1455118848935413e+01 
1193 795 2 1.0280000427555145e+00 1.4585551499429553e+02 1.0000000000000000e+00 1.2188225335974362e+01 8.0887008304447683e+00 9.1319456293573950e+01 
1488 1090 2 1.0280000422096425e+00 -1.3723856398760838e+03 1.0000000000000000e+00 1.2209008098650374e+01 8.1549530860085735e+00 9.1346924937175643e+01 
2014 1616 2 1.0279997812250561e+00 2.9290928502316424e+03 1.0000000000000000e+00 1.4417458463717658e+01 8.0912580098593239e+00 9.1494400687713423e+01 
2054 1656 2 1.0279997720309606e+00 -1.3066888518774681e+03 1.0000000000000000e+00 1.4275334164001316e+01 8.2293051427576476e+00 9.1519324168098052e+01 
707 309 2 1.0279997550914770e+00 1.3376647082163386e+03 1.0000000000000000e+00 1.4466648396120203e+01 8.1499471336461173e+00 9.1541567680093337e+01 
504 106 2 1.0279997427124237e+00 -8.0029919644404072e+02 1.0000000000000000e+00 1.4419507354113422e+01 8.2274422626801655e+00 9.1566558022133506e+01 
1121 723 2 1.0280000871807382e+00 -2.8517205734593754e+03 1.0000000000000000e+00 1.2102450911557424e+01 8.4652914944255979e+00 9.1663780879526783e+01 
586 188 2 1.0279998054900041e+00 -1.0907370640278157e+03 1.0000000000000000e+00 1.6058290323290748e+01 1.1764357762886508e+01 9.1007339014038195e+01 
472 74 2 1.0279998485756221e+00 -7.5274326620826264e+02 1.0000000000000000e+00 1.6272257314251512e+01 1.1314909185492272e+01 9.0847430640315835e+01 
1078 680 2 1.0279998570462732e+00 -9.4855515622677940e+03 1.0000000000000000e+00 1.6341124429119372e+01 1.0319087087558554e+01 9.1093237470988299e+01 
1135 737 2 1.0279998670019690e+00 1.5071618491190754e+03 1.0000000000000000e+00 1.6340690493770524e+01 1.0972568853314494e+01 9.0862281211090362e+01 
530 132 2 1.0279998689486718e+00 6.5890277792925626e+03 1.0000000000000000e+00 1.6366796133082499e+01 1.0953881767176183e+01 9.0846886849670994e+01 
718 320 2 1.0279998817662190e+00 2.4679939461068711e+03 1.0000000000000000e+00 1.6517341694692018e+01 1.0635311419039715e+01 9.0838813959979291e+01 
858 460 2 1.0279998900015288e+00 9.9590570641036520e+03 1.0000000000000000e+00 1.6685834332288074e+01 1.0361275231012737e+01 9.0851508685390144e+01 
758 360 2 1.0279999615654283e+00 -2.5343952399057371e+03 1.0000000000000000e+00 1.7410650654920634e+01 9.8331208072101113e+00 9.0924863004658462e+01 
987 589 2 1.0279999722250228e+00 -2.5759632726713685e+03 1.0000000000000000e+00 1.7437978831950812e+01 9.8994431150486211e+00 9.0888363173587976e+01 
462 64 2 1.0279999595213860e+00 2.4738491551656862e+03 1.0000000000000000e+00 1.7345053034425860e+01 9.9721595080216012e+00 9.0858048408365889e+01 
460 62 2 1.0279999345609445e+00 -4.1168597947470262e+03 1.0000000000000000e+00 1.7168154815075223e+01 1.0049033717239958e+01 9.0843088703744343e+01 
1419 1021 2 1.0279999420901744e+00 -7.8362955085199001e+03 1.0000000000000000e+00 1.7218824908529268e+01 1.0037912551899034e+01 9.0840527168190064e+01 
467 69 2 1.0279999418769539e+00 2.9738476518790008e+03 1.0000000000000000e+00 1.7206296803684875e+01 1.0064603162704886e+01 9.0829705334905711e+01 
1162 764 2 1.0279999421509514e+00 -5.6895544930819706e+03 1.0000000000000000e+00 1.7201267169194804e+01 1.0081016514789376e+01 9.0822793536409179e+01 
1967 1569 2 1.0279999148486798e+00 2.7378676872192009e+03 1.0000000000000000e+00 1.6867947162924210e+01 1.0491861391384406e+01 9.0731328121386724e+01 
1783 1385 2 1.0279999036490148e+00 8.1684162357312459e+02 1.0000000000000000e+00 1.6835307543019606e+01 1.1183433051931647e+01 9.0569245110653867e+01 
1720 1322 2 1.0279999301647595e+00 1.7535303866219001e+03 1.0000000000000000e+00 1.7276239008858006e+01 1.1938280441277254e+01 9.0449221839264581e+01 
1184 786 2 1.0279999635651333e+00 -2.5448684314403608e+03 1.0000000000000000e+00 1.2813282016662299e+01 1.5817267041626133e+01 9.0170752394867591e+01 
1707 1309 2 1.0279993933733951e+00 4.6008811551365452e+03 1.0000000000000000e+00 1.5269789650144130e+01 1.4252053873955678e+01 9.1066494298407335e+01 
539 141 2 1.0279995126230166e+00 3.1070946813803698e+02 1.0000000000000000e+00 1.5047159709605001e+01 1.4448934854249503e+01 9.0934558493654208e+01 
578 180 2 1.0279997909934953e+00 -5.9422241555005721e+03 1.0000000000000000e+00 1.4420802488184448e+01 1.4957570540373268e+01 9.0451323141467398e+01 
1084 686 2 1.0279996002134131e+00 -7.7682319921589406e+03 1.0000000000000000e+00 1.4890034723656218e+01 1.4572928930608992e+01 9.0823099745085642e+01 
1817 1419 2 1.0279998137610578e+00 -1.5985759873983257e+03 1.0000000000000000e+00 1.4342518338074660e+01 1.5034287261247128e+01 9.0385626539612986e+01 
1380 982 2 1.0279998432952127e+00 -2.5745298185016359e+03 1.0000000000000000e+00 1.4218662037834838e+01 1.5147565911114183e+01 9.0294912499860146e+01 
1197 799 2 1.0279997516965105e+00 -1.5285074173351006e+03 1.0000000000000000e+00 1.5987094248491831e+01 1.2235458385028151e+01 9.1057567959580311e+01 
1328 930 2 1.0279998616201431e+00 -2.9566124931085160e+03 1.0000000000000000e+00 1.4137029043438703e+01 1.5234884073709875e+01 9.0232536316806417e+01 
778 380 2 1.0279995731260649e+00 5.8202541471136001e+03 1.0000000000000000e+00 1.5321407439648135e+01 1.4552031575291567e+01 9.0847360687175154e+01 
1714 1316 2 1.0279999237556867e+00 4.6532831280339417e+02 1.0000000000000000e+00 1.3805441371602615e+01 1.5779790698479529e+01 8.9968570689082028e+01 
1279 881 2 1.0279999482109954e+00 -6.7617301257701438e+03 1.0000000000000000e+00 1.3301156902665873e+01 1.5873273189440285e+01 8.9976743050177987e+01 
780 382 2 1.0280000998285665e+00 3.6189870801003512e+03 1.0000000000000000e+00 1.2399566612108975e+01 1.4962064119863246e+01 9.1658353739330366e+01 
848 450 2 1.0280000451332456e+00 2.8260536755372195e+03 1.0000000000000000e+00 1.6442157242550191e+01 1.4983194343666558e+01 9.1000180114583173e+01 
1379 981 2 1.0279999002786941e+00 -3.1575851416214073e+03 1.0000000000000000e+00 1.9096197953459001e+01 1.2755263154707274e+01 9.0684385346162557e+01 
1378 980 2 1.0279998769183267e+00 -3.1575865878068898e+03 1.0000000000000000e+00 1.9353664719201912e+01 1.2765227437746210e+01 9.0705133046882310e+01 
1446 1048 2 1.0279999502585249e+00 -3.3113318725641238e+03 1.0000000000000000e+00 1.7808042206670848e+01 1.2547729679585597e+01 9.0499362806134712e+01 
1396 998 2 1.0279999423530428e+00 -1.4095257164883662e+03 1.0000000000000000e+00 1.7511576752720384e+01 1.2255508798303062e+01 9.0457054219397392e+01 
435 37 2 1.0279999796887402e+00 -3.1839762754538883e+03 1.0000000000000000e+00 1.8493648688496638e+01 1.4067608461397837e+01 9.0958456242542212e+01 
899 501 2 1.0279998505284405e+00 -5.3336140977381310e+03 1.0000000000000000e+00 1.9407479745666485e+01 1.4505491216015965e+01 9.1256760361925643e+01 
898 500 2 1.0279999678668084e+00 -5.3334688204626182e+03 1.0000000000000000e+00 1.9132714713852479e+01 1.4502625725160575e+01 9.1222861518699389e+01 
446 48 2 1.0280000238689664e+00 4.0112595258996494e+03 1.0000000000000000e+00 1.8273558601138323e+01 1.4240046937388717e+01 9.0967421775125274e+01 
1716 1318 2 1.0280001105145784e+00 5.5489153173568411e+02 1.0000000000000000e+00 1.8510684232472077e+01 1.4584963276306464e+01 9.1124588221387683e+01 
2002 1604 2 1.0280003101488402e+00 1.6990897799047420e+03 1.0000000000000000e+00 1.8603888499339373e+01 1.5014852716028283e+01 9.1275520284187024e+01 
782 384 2 1.0280004454518541e+00 6.0271017083330407e+03 1.0000000000000000e+00 1.8609407358361260e+01 1.5205659469398293e+01 9.1338137416029014e+01 
1439 1041 2 1.0280003532368323e+00 -2.2540540111947939e+03 1.0000000000000000e+00 3.6282797543905771e+00 1.8456136105292927e+01 9.1561700207511038e+01 
2047 1649 2 1.0280004431654581e+00 1.9516227463189828e+03 1.0000000000000000e+00 3.8236073142908524e+00 1.8577137179544842e+01 9.1590041064942540e+01 
1075 677 2 1.0280004616446663e+00 -1.2642601673600595e+03 1.0000000000000000e+00 3.8580269093662567e+00 1.8595187364650581e+01 9.1600059759044882e+01 
935 537 2 1.0280003785657998e+00 -2.2544747096826004e+03 1.0000000000000000e+00 3.7167382888951126e+00 1.8361374153252939e+01 9.1620258679089531e+01 
1510 1112 2 1.0279999019083668e+00 -2.0382633794977037e+03 1.0000000000000000e+00 1.1850460572049501e+01 1.6057662283711696e+01 9.0866725954060414e+01 
1180 782 2 1.0279999840267273e+00 -2.8652834338432949e+03 1.0000000000000000e+00 1.0568324877621487e+01 1.8598139402131597e+01 9.0836637062999984e+01 
1348 950 2 1.0279999765095740e+00 -2.8654204505333018e+03 1.0000000000000000e+00 1.0611109201356740e+01 1.8726079768095669e+01 9.0864769449719475e+01 
1312 914 2 1.0279998122479925e+00 -2.0222355888039817e+03 1.0000000000000000e+00 1.1194911901994299e+01 1.8563154934933550e+01 9.0905819210340354e+01 
1144 746 2 1.0279998097294927e+00 -2.0222194588239581e+03 1.0000000000000000e+00 1.1199685949760337e+01 1.8541901764014376e+01 9.0900613823439073e+01 
1089 691 2 1.0279997925139395e+00 -9.5075525144794096e+02 1.0000000000000000e+00 1.1917789952182137e+01 1.6833789112615428e+01 9.0473751486819481e+01 
2071 1673 2 1.0279995177939207e+00 -1.0887923606916706e+03 1.0000000000000000e+00 1.1962583690786298e+01 1.7908161818120210e+01 9.0707503456050645e+01 
559 161 2 1.0279995793781502e+00 -1.0891417614770160e+03 1.0000000000000000e+00 1.1746487536255945e+01 1.8951734074138898e+01 9.1201436851541658e+01 
1986 1588 2 1.0280001435159483e+00 4.0224529412601300e+03 1.0000000000000000e+00 8.5155860596726907e+00 1.8670669448383098e+01 9.1096660911188764e+01 
2033 1635 2 1.0280001519864144e+00 -8.7647106137005710e+02 1.0000000000000000e+00 8.5132644450529664e+00 1.8830196719339170e+01 9.1102642141974115e+01 
774 376 2 1.0280001487200170e+00 6.5815164926302868e+03 1.0000000000000000e+00 8.4592629524230034e+00 1.8753796854532723e+01 9.1110598898087588e+01 
573 175 2 1.0280000916488656e+00 -7.9060715533186919e+02 1.0000000000000000e+00 8.9005942249171941e+00 1.8067875689630956e+01 9.1152859291814622e+01 
1087 689 2 1.0280000782507102e+00 6.0394952404350206e+03 1.0000000000000000e+00 9.0358887168370092e+00 1.7909262288341822e+01 9.1197039084404352e+01 
521 123 2 1.0280001570638129e+00 -8.7645089307959768e+02 1.0000000000000000e+00 8.5498670521476132e+00 1.9138712171732919e+01 9.1167424062674243e+01 
690 292 2 1.0280000918617072e+00 5.7700928050113191e+02 1.0000000000000000e+00 8.5665351106529393e+00 1.8140909289521971e+01 9.1225811542467497e+01 
474 76 2 1.0280001549466713e+00 4.0224942912966449e+03 1.0000000000000000e+00 8.5823877535753663e+00 1.9265852934092656e+01 9.1215387479059288e+01 
1614 1216 2 1.0280001546292370e+00 6.5815088305498984e+03 1.0000000000000000e+00 8.5215203210370607e+00 1.9259450672701661e+01 9.1227613160207795e+01 
1866 1468 2 1.0280001306297144e+00 5.7710045065635472e+02 1.0000000000000000e+00 8.6990544575188480e+00 1.9661260725751895e+01 9.1470476116999748e+01 
1749 1351 2 1.0280001197654303e+00 -7.9095005707501662e+02 1.0000000000000000e+00 8.9269259963188237e+00 1.9799918875082323e+01 9.1542170664737668e+01 
1565 1167 2 1.0279999160930060e+00 3.4725114785866299e+03 1.0000000000000000e+00 1.2014088460404269e+01 1.6097012450997948e+01 9.0644729028922953e+01 