LAMMPS data file via write_data, version 30 Jul 2016, timestep = 50400000

180 atoms
2 atom types

0.0000000000000000e+00 2.0000000000000000e+01 xlo xhi
0.0000000000000000e+00 2.0000000000000000e+01 ylo yhi
0.0000000000000000e+00 2.0000000000000000e+01 zlo zhi

Masses

1 3.896
2 4.31

Atoms # meso-molecular

125 1 2 1.0279999814539811e+00 -6.0820113141121819e+03 1.0000000000000000e+00 4.0911339429777085e+00 4.4165838311248939e-01 1.7841498832814824e+00 
55 1 2 1.0279999922403262e+00 -7.4156031237897532e+03 1.0000000000000000e+00 4.7641061913708018e+00 4.9558699127817729e-01 1.6126897526242141e+00 
131 1 2 1.0279999832953091e+00 -6.3758491718794212e+03 1.0000000000000000e+00 3.9998945952329685e+00 4.1756559731096105e-01 2.0251983385980674e+00 
127 1 2 1.0279999863988678e+00 -7.1580384193998098e+03 1.0000000000000000e+00 4.0028051260865034e+00 3.9402418605793271e-01 2.2174072497464459e+00 
169 1 2 1.0280000125976285e+00 -9.1176035559023985e+03 1.0000000000000000e+00 4.8408841911746778e+00 1.0191517913593932e-01 2.5366592808624482e+00 
175 1 2 1.0280000125974886e+00 -9.9765271175409835e+03 1.0000000000000000e+00 4.8408469120078035e+00 1.0193575223964889e-01 2.5367068141463185e+00 
176 1 2 1.0280000125964679e+00 -1.0383599656131206e+04 1.0000000000000000e+00 4.8406571807281109e+00 1.0202258327037007e-01 2.5369369428132895e+00 
165 1 2 1.0280000126107181e+00 -8.0418946409693526e+03 1.0000000000000000e+00 4.8422336077893338e+00 1.0267314780879408e-01 2.5359097472170640e+00 
109 1 2 1.0280000147296751e+00 -8.6537852436250469e+03 1.0000000000000000e+00 4.5430633824126030e+00 2.8417440601622719e+00 6.8685775708628216e-01 
18 1 2 1.0280000147302386e+00 -8.1422698413235685e+03 1.0000000000000000e+00 4.5430672705403108e+00 2.8417453956432506e+00 6.8686122120968118e-01 
12 1 2 1.0280000147295398e+00 -7.7609848252467646e+03 1.0000000000000000e+00 4.5430625179103057e+00 2.8417437632931133e+00 6.8685698677114526e-01 
94 1 2 1.0280000147293240e+00 -7.0636664781330628e+03 1.0000000000000000e+00 4.5430610908188411e+00 2.8417432731201933e+00 6.8685571532962375e-01 
177 1 2 1.0279999814939240e+00 -4.5331076314921183e+03 1.0000000000000000e+00 3.2183746289312145e+00 3.8302419130395537e+00 6.3793511472761177e-01 
141 1 2 1.0279999814932903e+00 -4.3710413424022363e+03 1.0000000000000000e+00 3.2183719810997355e+00 3.8303489552214232e+00 6.3798761612687382e-01 
86 1 2 1.0279999814932896e+00 -8.0747264245955157e+03 1.0000000000000000e+00 3.2183719694665243e+00 3.8303498005745724e+00 6.3798801468289590e-01 
147 1 2 1.0279999814932885e+00 -7.7694806554714251e+03 1.0000000000000000e+00 3.2183719770552113e+00 3.8303492666432604e+00 6.3798776253112854e-01 
5 1 2 1.0279999877900490e+00 -5.8943782285859006e+03 1.0000000000000000e+00 2.6332393475391327e+00 4.6841881747052234e+00 2.9675051388289577e+00 
4 1 2 1.0279999877900960e+00 -5.6225047708531865e+03 1.0000000000000000e+00 2.6332392608519002e+00 4.6841881575915432e+00 2.9675051507688419e+00 
35 1 2 1.0279999877900747e+00 -6.1349701254569591e+03 1.0000000000000000e+00 2.6332392996463954e+00 4.6841881646303216e+00 2.9675051456802723e+00 
23 1 2 1.0279999982800134e+00 -7.2031353438621345e+03 1.0000000000000000e+00 1.2997085160869424e+00 6.5083502385805057e+00 3.0839084991315540e+00 
105 1 2 1.0279999980991801e+00 -7.8392130792286089e+03 1.0000000000000000e+00 1.3028621789757917e+00 6.5177305809911230e+00 3.0850387621658935e+00 
47 1 2 1.0279999980990804e+00 -6.0271548454895701e+03 1.0000000000000000e+00 1.3028625554871927e+00 6.5177369128731710e+00 3.0850424622071175e+00 
178 1 2 1.0280000142900336e+00 -4.5421866273349497e+03 1.0000000000000000e+00 4.3029045534341801e+00 4.3751386775354097e+00 7.8040600408850858e-01 
100 1 2 1.0280000029729297e+00 -5.9151612517187596e+03 1.0000000000000000e+00 4.5559071069449120e+00 4.9850037175317690e+00 2.4553897724027092e+00 
123 1 2 1.0279999695171604e+00 -6.3818085313158062e+03 1.0000000000000000e+00 5.4843741272341138e+00 5.0210445419098253e+00 2.9318758922083039e+00 
159 1 2 1.0279999695137281e+00 -7.6654882100349796e+03 1.0000000000000000e+00 5.4843518497312100e+00 5.0210476420004868e+00 2.9319249273568047e+00 
117 1 2 1.0279999641308706e+00 -6.8427306147272702e+03 1.0000000000000000e+00 5.4345431537037037e+00 5.0206463606128056e+00 3.0190398579468236e+00 
116 1 2 1.0279999646049702e+00 -1.0631947846711066e+04 1.0000000000000000e+00 5.4408284222350813e+00 5.0212746178242975e+00 3.0100984465575666e+00 
118 1 2 1.0280000566476790e+00 -6.6325071263131522e+03 1.0000000000000000e+00 5.8988761505782028e+00 3.5417201608165692e+00 3.1629721195423151e+00 
73 1 2 1.0280000550307051e+00 -6.7817763936572846e+03 1.0000000000000000e+00 5.9099818053698208e+00 3.5421916501996429e+00 3.1753643626240637e+00 
75 1 2 1.0279999946647842e+00 -4.3220068719925175e+03 1.0000000000000000e+00 1.6307792951288922e+00 6.8301521575877127e+00 3.1983550192112422e+00 
63 1 2 1.0280000150910116e+00 -6.6476311884568204e+03 1.0000000000000000e+00 2.3072535134413186e+00 3.3901592434084171e+00 4.6526646984467561e+00 
7 1 2 1.0280000137266392e+00 -7.7510943609679362e+03 1.0000000000000000e+00 2.3038550018520194e+00 3.3909008479682905e+00 4.6559896044967441e+00 
43 1 2 1.0280000136827872e+00 -7.8407829627525734e+03 1.0000000000000000e+00 2.3037492144425569e+00 3.3909248767681217e+00 4.6560955924710621e+00 
27 1 2 1.0280000136753942e+00 -5.6571732791043232e+03 1.0000000000000000e+00 2.3037313901856011e+00 3.3909289311188822e+00 4.6561134673203801e+00 
54 1 2 1.0280000126446318e+00 -7.3434271819739361e+03 1.0000000000000000e+00 2.3012955842650840e+00 3.3914985645053108e+00 4.6585941618942019e+00 
158 1 2 1.0279999386866814e+00 -7.6031665417274044e+03 1.0000000000000000e+00 2.3445181780816124e+00 3.3953240290167424e+00 4.7942134026704046e+00 
103 1 2 1.0280000068761357e+00 -5.6591247330664482e+03 1.0000000000000000e+00 1.8215443015778490e+00 6.6130440188260753e+00 3.7692064440735509e+00 
88 1 2 1.0280000053696010e+00 -6.5796168121311548e+03 1.0000000000000000e+00 1.7904063203909173e+00 6.6402661155331222e+00 3.7536109148038297e+00 
139 1 2 1.0280000053562781e+00 -5.2672283134686841e+03 1.0000000000000000e+00 1.7901274223606352e+00 6.6405048862565037e+00 3.7534610107671025e+00 
3 1 2 1.0280000310610995e+00 -6.3408466386536820e+03 1.0000000000000000e+00 6.0623426297048280e+00 3.5540225551593334e+00 3.3368097963114085e+00 
119 1 2 1.0279999122175429e+00 -8.0216614906894702e+03 1.0000000000000000e+00 6.3407621780466288e+00 3.7207465881918846e+00 3.6755048550170124e+00 
135 1 2 1.0279999986852488e+00 -5.9542294559698712e+03 1.0000000000000000e+00 2.3247531930266727e+00 2.6673059955053713e+00 7.4643398662921712e+00 
129 1 2 1.0280000060571690e+00 -7.6638271269856896e+03 1.0000000000000000e+00 2.8568149863846410e+00 2.7935626110167573e+00 8.3059271084477970e+00 
107 1 2 1.0280000060525001e+00 -5.5867383748419061e+03 1.0000000000000000e+00 2.8523834946804016e+00 2.7936221647495301e+00 8.3097036118025649e+00 
92 1 2 1.0280000060323595e+00 -7.5192515006527619e+03 1.0000000000000000e+00 2.8370406324905666e+00 2.7940361345235449e+00 8.3225924920477379e+00 
51 1 2 1.0279999969727014e+00 -5.6854741041934822e+03 1.0000000000000000e+00 3.2534059400133137e+00 3.1058938609736790e+00 7.3118720014381342e+00 
46 1 2 1.0279999998278517e+00 -7.1577571195073870e+03 1.0000000000000000e+00 1.4692923484214206e+00 3.3126813576292924e+00 7.8084135528307224e+00 
71 1 2 1.0279999903359467e+00 -6.9715347561800563e+03 1.0000000000000000e+00 1.4378024258023929e+00 3.9964646260424508e+00 7.3141920367558910e+00 
115 1 2 1.0279999903869090e+00 -8.6102292411644939e+03 1.0000000000000000e+00 1.4395797385033482e+00 4.0113485480440838e+00 7.3147609970881993e+00 
152 1 2 1.0279999923213101e+00 -6.2695337464919239e+03 1.0000000000000000e+00 3.1993013579541385e+00 4.5404065463269356e+00 7.1774501619355915e+00 
166 1 2 1.0280000004678249e+00 -5.3014580576144863e+03 1.0000000000000000e+00 1.4650426666028935e+00 4.6012776999829468e+00 8.4151050772927807e+00 
24 1 2 1.0279999998450453e+00 -3.9437133195943770e+03 1.0000000000000000e+00 3.0928565009317954e+00 5.0552748933567040e+00 8.8742891745248542e+00 
170 1 2 1.0279999995846807e+00 -7.9700388823505637e+03 1.0000000000000000e+00 2.5713783875334704e+00 4.8054977864164199e+00 9.1870464122106981e+00 
126 1 2 1.0279999992082700e+00 -6.4612550743143420e+03 1.0000000000000000e+00 2.6848281399630745e+00 5.3862399755229386e+00 8.7102326246417263e+00 
157 1 2 1.0279999992609627e+00 -7.4276863807599811e+03 1.0000000000000000e+00 2.6033268310240181e+00 5.4317839021105661e+00 8.6241204988657660e+00 
163 1 2 1.0279999992609818e+00 -7.6932306002911037e+03 1.0000000000000000e+00 2.6033181916065016e+00 5.4317858819938101e+00 8.6241162796358406e+00 
153 1 2 1.0279999980929990e+00 -5.8935441526780305e+03 1.0000000000000000e+00 3.4618010172298637e+00 4.4279864034409977e+00 7.4605170271774472e+00 
148 1 2 1.0280001025802696e+00 -7.4613395239129486e+03 1.0000000000000000e+00 6.6406183813190482e+00 4.2589162673076713e+00 1.8406728622901269e+01 
151 1 2 1.0280001022048910e+00 -9.1349094662799926e+03 1.0000000000000000e+00 6.6399184385692447e+00 4.2594345787500627e+00 1.8404574695877916e+01 
28 1 2 1.0280001022263598e+00 -5.3483952885690169e+03 1.0000000000000000e+00 6.6399579419193548e+00 4.2594052325021119e+00 1.8404694539205959e+01 
70 1 2 1.0280001022266316e+00 -7.5082100154840882e+03 1.0000000000000000e+00 6.6399584421616966e+00 4.2594048608767405e+00 1.8404696058263312e+01 
34 1 2 1.0280001022265084e+00 -7.3333303141274228e+03 1.0000000000000000e+00 6.6399582211158314e+00 4.2594050251087303e+00 1.8404695386980737e+01 
61 1 2 1.0279998354794400e+00 -6.4738620030016918e+03 1.0000000000000000e+00 6.4526868027053323e+00 4.3374006596477921e+00 1.8620151303889493e+01 
40 1 2 1.0279998311769618e+00 -5.7917312812949449e+03 1.0000000000000000e+00 6.4465837263894956e+00 4.3378838696770510e+00 1.8617248593651954e+01 
171 1 2 1.0279999650867926e+00 -8.0689694395558563e+03 1.0000000000000000e+00 6.0876545844124150e+00 7.1839207375406051e+00 1.7059107765675886e+01 
52 1 2 1.0279999641670949e+00 -6.7428926954852814e+03 1.0000000000000000e+00 6.0837928408623494e+00 7.1856160008415841e+00 1.7064739379455673e+01 
58 1 2 1.0279999641305140e+00 -5.7712779691478945e+03 1.0000000000000000e+00 6.0841479090136108e+00 7.1858048104450987e+00 1.7065057152706597e+01 
179 1 2 1.0279999667203299e+00 -8.0295701464414833e+03 1.0000000000000000e+00 6.0866859991428379e+00 7.1796450376105669e+00 1.7050827997312869e+01 
62 1 2 1.0279999667203419e+00 -5.8237458803844584e+03 1.0000000000000000e+00 6.0866859929611818e+00 7.1796450312018427e+00 1.7050827987551511e+01 
143 1 2 1.0279999667203301e+00 -7.7890029805397126e+03 1.0000000000000000e+00 6.0866859991527722e+00 7.1796450376444376e+00 1.7050827997371510e+01 
56 1 2 1.0279999667203299e+00 -6.0383132304447645e+03 1.0000000000000000e+00 6.0866859991364652e+00 7.1796450376027821e+00 1.7050827997300654e+01 
81 1 2 1.0279999709744165e+00 -8.2778874453105218e+03 1.0000000000000000e+00 1.2199088884067493e+01 2.9775550481137638e+00 2.6191845072028124e+00 
45 1 2 1.0279999709744161e+00 -9.0706052813385541e+03 1.0000000000000000e+00 1.2199088884783849e+01 2.9775550474236150e+00 2.6191844944646796e+00 
44 1 2 1.0279999709744176e+00 -8.8273189906755269e+03 1.0000000000000000e+00 1.2199088884314593e+01 2.9775550478741630e+00 2.6191845027531957e+00 
160 1 2 1.0279999620427440e+00 -7.2853472623354073e+03 1.0000000000000000e+00 1.2195988482528751e+01 2.9821176600824355e+00 2.6801495328043430e+00 
134 1 2 1.0280000213634968e+00 -6.1344091298208104e+03 1.0000000000000000e+00 1.0791884703860944e+01 4.7643086347641157e+00 2.5570291800329907e+00 
97 1 2 1.0280000213675642e+00 -6.3635121724243045e+03 1.0000000000000000e+00 1.0791890682400396e+01 4.7643066977156376e+00 2.5570459566048767e+00 
79 1 2 1.0280000240261968e+00 -6.3335709324326954e+03 1.0000000000000000e+00 1.0795909360291494e+01 4.7630064538739942e+00 2.5681358820806026e+00 
133 1 2 1.0280000239383953e+00 -6.0416722503770607e+03 1.0000000000000000e+00 1.0795773673778058e+01 4.7630514009404274e+00 2.5677646042920106e+00 
130 1 2 1.0280000230729982e+00 -5.9388842719509212e+03 1.0000000000000000e+00 1.0794439843106620e+01 4.7634814656781170e+00 2.5641233613178462e+00 
132 1 2 1.0280000230488970e+00 -7.4427212710977574e+03 1.0000000000000000e+00 1.0794403142993444e+01 4.7634933385465104e+00 2.5640225218628943e+00 
9 1 2 1.0279999885030247e+00 -6.4007187331408977e+03 1.0000000000000000e+00 1.2937134994101632e+01 5.7656546386743805e+00 1.7356598246248284e-01 
22 1 2 1.0279999884957685e+00 -7.4611080371961152e+03 1.0000000000000000e+00 1.2937210560157357e+01 5.7656473507558950e+00 1.7365233129274096e-01 
99 1 2 1.0279999884957769e+00 -8.0568462294751262e+03 1.0000000000000000e+00 1.2937210468057193e+01 5.7656473611037740e+00 1.7365227500252950e-01 
145 1 2 1.0279999884957889e+00 -8.0737746606073588e+03 1.0000000000000000e+00 1.2937210435804658e+01 5.7656473647324837e+00 1.7365225545851068e-01 
14 1 2 1.0279999884874980e+00 -8.2665585098395568e+03 1.0000000000000000e+00 1.2937335746070023e+01 5.7656299132135933e+00 1.7361607315538075e-01 
80 1 2 1.0279999951987910e+00 -6.9166620162612899e+03 1.0000000000000000e+00 9.4428107312356602e+00 2.1423748532761517e+00 4.2751376834284986e+00 
48 1 2 1.0279999951986227e+00 -8.1786702605418041e+03 1.0000000000000000e+00 9.4428117236220039e+00 2.1423756044207543e+00 4.2751355351517946e+00 
13 1 2 1.0279999951530980e+00 -8.0331133634361213e+03 1.0000000000000000e+00 9.4431809253710632e+00 2.1426542831302613e+00 4.2743446919907937e+00 
146 1 2 1.0279999951986201e+00 -7.1734994578540864e+03 1.0000000000000000e+00 9.4428117238533869e+00 2.1423756045957987e+00 4.2751355346513611e+00 
124 1 2 1.0279999951986236e+00 -6.3027057596930435e+03 1.0000000000000000e+00 9.4428117223867076e+00 2.1423756034861454e+00 4.2751355378236893e+00 
66 1 2 1.0279999706962351e+00 -4.9519013246763625e+03 1.0000000000000000e+00 7.9767103641434778e+00 3.0811267867362555e+00 4.3515771552224178e+00 
59 1 2 1.0279999715835901e+00 -7.9758793175671399e+03 1.0000000000000000e+00 7.9894348061965683e+00 3.0802128476438049e+00 4.3636667512254297e+00 
1 1 2 1.0279999715830830e+00 -6.4682544088832346e+03 1.0000000000000000e+00 7.9894333087710061e+00 3.0802193406072482e+00 4.3636585447696055e+00 
2 1 2 1.0279999715830721e+00 -6.4676983496783841e+03 1.0000000000000000e+00 7.9894333313483070e+00 3.0802192415164287e+00 4.3636586697789275e+00 
69 1 2 1.0279999711201611e+00 -7.8915943172114685e+03 1.0000000000000000e+00 1.2200512026155943e+01 3.0814598438675520e+00 4.7703674127377624e+00 
15 1 2 1.0280000172806381e+00 -6.4186274969707374e+03 1.0000000000000000e+00 1.1880525897327825e+01 3.1259547259332257e+00 5.6936276300867954e+00 
60 1 2 1.0280000178830455e+00 -7.7464674921928154e+03 1.0000000000000000e+00 1.1874881154689952e+01 3.1307447372675909e+00 5.6943996303610644e+00 
95 1 2 1.0280000173593569e+00 -5.5043593709167353e+03 1.0000000000000000e+00 1.1879799329804133e+01 3.1265603352376035e+00 5.6937386597584565e+00 
180 1 2 1.0280000172173167e+00 -8.4882554815354852e+03 1.0000000000000000e+00 1.1881108754538637e+01 3.1254659279335577e+00 5.6935371778680057e+00 
8 1 2 1.0280000173460795e+00 -6.4868954132883628e+03 1.0000000000000000e+00 1.1879921959061278e+01 3.1264600442681432e+00 5.6937197177286700e+00 
96 1 2 1.0280000178830508e+00 -5.7153240516075812e+03 1.0000000000000000e+00 1.1874881147779357e+01 3.1307447434516646e+00 5.6943996311334253e+00 
57 1 2 1.0280000076353781e+00 -7.6705746265459256e+03 1.0000000000000000e+00 1.1523691953872575e+01 2.3037453496852196e+00 1.3169814213648829e+01 
154 1 2 1.0280000076307791e+00 -7.8012436036248955e+03 1.0000000000000000e+00 1.1523727005601264e+01 2.3036270234234233e+00 1.3169867991962537e+01 
164 1 2 1.0280000076026172e+00 -9.3127052332683634e+03 1.0000000000000000e+00 1.1523937099762916e+01 2.3029021360904656e+00 1.3170195733018289e+01 
49 1 2 1.0280000160962337e+00 -7.2635611809371194e+03 1.0000000000000000e+00 1.1557745468215025e+01 2.5714643123437990e+00 1.3191479621684666e+01 
90 1 2 1.0279999918783531e+00 -7.7244466459823034e+03 1.0000000000000000e+00 8.6135734297116624e+00 5.6132478426751140e+00 1.2186161336835134e+01 
101 1 2 1.0279999918783429e+00 -6.3800424450768987e+03 1.0000000000000000e+00 8.6135729296903403e+00 5.6132480525005102e+00 1.2186161644095934e+01 
102 1 2 1.0279999918783413e+00 -6.5127408732044150e+03 1.0000000000000000e+00 8.6135729296887238e+00 5.6132480525011772e+00 1.2186161644096922e+01 
72 1 2 1.0279999918783365e+00 -7.3796533705857673e+03 1.0000000000000000e+00 8.6135729296913954e+00 5.6132480525000377e+00 1.2186161644095264e+01 
108 1 2 1.0279999918783334e+00 -7.1086009753066155e+03 1.0000000000000000e+00 8.6135729296893935e+00 5.6132480525020050e+00 1.2186161644096529e+01 
19 1 2 1.0279999818617340e+00 -8.5818205681237741e+03 1.0000000000000000e+00 1.0972204217659074e+01 2.1685985159694443e+00 1.4103070516313911e+01 
36 1 2 1.0279999818646484e+00 -6.6807625619138717e+03 1.0000000000000000e+00 1.0972160110699125e+01 2.1686457317103303e+00 1.4103059924750674e+01 
6 1 2 1.0279999818647605e+00 -7.1087168995882030e+03 1.0000000000000000e+00 1.0972158407659974e+01 2.1686475549350397e+00 1.4103059515723920e+01 
65 1 2 1.0280000133602545e+00 -5.8735385389215862e+03 1.0000000000000000e+00 1.2917224545160190e+01 1.4957205027005920e+00 1.6158871798433349e+01 
174 1 2 1.0280000025324225e+00 -6.6209838629119713e+03 1.0000000000000000e+00 1.2855326634539521e+01 1.6040326001958269e-01 1.6315226059387083e+01 
144 1 2 1.0280000026242688e+00 -5.9769546396927190e+03 1.0000000000000000e+00 1.2841972411720974e+01 1.6548194404080671e-01 1.6315385916681826e+01 
31 1 2 1.0280000188111733e+00 -5.1501815294282987e+03 1.0000000000000000e+00 1.1509734990432904e+01 2.9255407080556965e+00 1.3708643553670022e+01 
112 1 2 1.0280000174866148e+00 -5.9690555232764891e+03 1.0000000000000000e+00 9.5241589772798445e+00 4.7218436052266668e+00 1.3458573027427903e+01 
138 1 2 1.0280000189981018e+00 -6.5855344843470666e+03 1.0000000000000000e+00 9.5618997927381244e+00 4.7253070800003201e+00 1.3439129279468052e+01 
93 1 2 1.0280000060736227e+00 -6.9201286163850546e+03 1.0000000000000000e+00 9.2986376185617168e+00 4.8586427539331352e+00 1.3720468414949623e+01 
137 1 2 1.0280000072852273e+00 -5.3223231372883638e+03 1.0000000000000000e+00 9.3603962926256585e+00 4.8611812343389458e+00 1.3726353004629699e+01 
77 1 2 1.0279999997335365e+00 -6.3512051042447756e+03 1.0000000000000000e+00 9.7813947759035145e+00 7.1231966179209429e+00 1.4101837447071681e+01 
41 1 2 1.0279999997335396e+00 -6.8208757192594148e+03 1.0000000000000000e+00 9.7813947759035393e+00 7.1231966179183628e+00 1.4101837447076170e+01 
78 1 2 1.0279999997335330e+00 -5.8898414275868299e+03 1.0000000000000000e+00 9.7813947759167625e+00 7.1231966179088539e+00 1.4101837447084488e+01 
42 1 2 1.0279999997335383e+00 -5.9210991528537634e+03 1.0000000000000000e+00 9.7813947759076871e+00 7.1231966179154389e+00 1.4101837447078671e+01 
53 1 2 1.0279999997335345e+00 -5.3191875821043950e+03 1.0000000000000000e+00 9.7813947757290425e+00 7.1231966180291186e+00 1.4101837446992844e+01 
74 1 2 1.0279999997335338e+00 -8.0194454949024603e+03 1.0000000000000000e+00 9.7813947766937002e+00 7.1231966174205041e+00 1.4101837447447240e+01 
38 1 2 1.0280000034448700e+00 -7.0297030434125609e+03 1.0000000000000000e+00 1.1519342214691669e+01 2.0172701217006641e+00 1.6928142992936905e+01 
68 1 2 1.0280000034917676e+00 -6.8546080439541984e+03 1.0000000000000000e+00 1.1518161847971676e+01 2.0147574539548434e+00 1.6930148514479310e+01 
37 1 2 1.0280000035125327e+00 -8.3126575639327693e+03 1.0000000000000000e+00 1.1517647812703359e+01 2.0136486645815541e+00 1.6931027232915572e+01 
173 1 2 1.0279999754802041e+00 -6.1205052776722823e+03 1.0000000000000000e+00 1.2430127437743936e+01 2.1681884675779153e+00 1.8029545622804346e+01 
136 1 2 1.0279999754803539e+00 -5.9732117357278130e+03 1.0000000000000000e+00 1.2430128815402398e+01 2.1681867202036380e+00 1.8029546319161373e+01 
11 1 2 1.0280000032431096e+00 -4.4529973264721375e+03 1.0000000000000000e+00 1.1683598673073998e+01 2.1725918830065440e+00 1.6713416943852323e+01 
172 1 2 1.0279999754806983e+00 -6.9136590983052556e+03 1.0000000000000000e+00 1.2430132114011998e+01 2.1681825363678033e+00 1.8029547986475873e+01 
82 1 2 1.0279999984623835e+00 -6.0051711018564029e+03 1.0000000000000000e+00 9.7615747173379042e+00 5.2709030189819144e+00 1.9699890103691274e+01 
25 1 2 1.0279999984569468e+00 -5.7294335630373307e+03 1.0000000000000000e+00 9.7615766884611848e+00 5.2708906322108584e+00 1.9699960395072651e+01 
67 1 2 1.0279999984567350e+00 -5.9518340820269832e+03 1.0000000000000000e+00 9.7615826717599283e+00 5.2708997771721089e+00 1.9699965185426397e+01 
32 1 2 1.0279999984567436e+00 -5.4063967563108254e+03 1.0000000000000000e+00 9.7615826475961978e+00 5.2708997419112507e+00 1.9699965158627986e+01 
26 1 2 1.0279999984567252e+00 -5.1037801598190936e+03 1.0000000000000000e+00 9.7615826702125048e+00 5.2708997749184068e+00 1.9699965183691035e+01 
91 1 2 1.0279999587249731e+00 -1.0451496650824394e+04 1.0000000000000000e+00 1.1165053024283475e+01 4.1717647319561619e+00 1.9071476772032113e+01 
111 1 2 1.0279999587241246e+00 -8.2338015616754965e+03 1.0000000000000000e+00 1.1165038856646698e+01 4.1717697519777985e+00 1.9071455539817414e+01 
87 1 2 1.0279999587241222e+00 -6.0265228486192591e+03 1.0000000000000000e+00 1.1165038856639743e+01 4.1717697519798840e+00 1.9071455539807946e+01 
128 1 2 1.0280000657427217e+00 -7.2371358757787284e+03 1.0000000000000000e+00 1.2368345421603076e+01 5.2567466923123485e+00 1.9194822398351484e+01 
155 1 2 1.0280000118411907e+00 -7.5364777422080697e+03 1.0000000000000000e+00 1.0389507509138692e+01 4.6496556902971902e+00 1.8786274791878885e+01 
39 1 2 1.0279999994548801e+00 -6.1364734473902399e+03 1.0000000000000000e+00 1.3268234015233030e+01 1.9727246587743153e+01 1.6822886929737653e+01 
84 1 2 1.0280000029964163e+00 -6.0708998774164638e+03 1.0000000000000000e+00 1.4189395190328886e+01 1.6881442588047002e+00 1.7287049915869122e+00 
83 1 2 1.0280000029964174e+00 -5.5568091981358402e+03 1.0000000000000000e+00 1.4189395190327859e+01 1.6881442588042694e+00 1.7287049915865886e+00 
29 1 2 1.0280000029964393e+00 -6.1769198792264187e+03 1.0000000000000000e+00 1.4189397974327774e+01 1.6881451412982342e+00 1.7287076877930350e+00 
89 1 2 1.0280000029964180e+00 -5.2594621198085124e+03 1.0000000000000000e+00 1.4189395190328273e+01 1.6881442588044602e+00 1.7287049915866353e+00 
104 1 2 1.0280000029964169e+00 -5.0473222884031611e+03 1.0000000000000000e+00 1.4189395188890686e+01 1.6881442586553690e+00 1.7287049883151591e+00 
142 1 2 1.0280000029964322e+00 -6.5308769525830030e+03 1.0000000000000000e+00 1.4189397943572365e+01 1.6881451335533193e+00 1.7287076457218398e+00 
85 1 2 1.0280000161733276e+00 -9.2660197980773955e+03 1.0000000000000000e+00 1.4155379419890078e+01 4.2342976529493654e+00 1.5884646183807187e+00 
20 1 2 1.0280000161266409e+00 -6.5606671917818821e+03 1.0000000000000000e+00 1.4154297692374573e+01 4.2362778464863071e+00 1.5882084465859923e+00 
162 1 2 1.0280000150424340e+00 -6.3099174382431029e+03 1.0000000000000000e+00 1.4143423390387554e+01 4.2835924654596020e+00 1.5272001752136697e+00 
168 1 2 1.0280000150424178e+00 -6.2093176774752765e+03 1.0000000000000000e+00 1.4143423381202501e+01 4.2835924496226134e+00 1.5272002533882103e+00 
167 1 2 1.0280000150424113e+00 -5.4357871495790168e+03 1.0000000000000000e+00 1.4143423365398839e+01 4.2835924219263015e+00 1.5272003889639560e+00 
106 1 2 1.0280000006168422e+00 -6.3370528453151355e+03 1.0000000000000000e+00 1.4049496280649803e+01 3.1082885202854232e-01 1.7023350185594008e+01 
121 1 2 1.0280000000616270e+00 -6.7294556953854299e+03 1.0000000000000000e+00 1.3997989907100001e+01 1.3606128282559160e-01 1.7153521661529339e+01 
140 1 2 1.0280000022589084e+00 -5.1919432413255126e+03 1.0000000000000000e+00 1.3672897073989382e+01 8.5326683008547499e-01 1.7934127912341950e+01 
21 1 2 1.0280000017824455e+00 -6.3841115755766059e+03 1.0000000000000000e+00 1.3620670010910789e+01 3.7434417940638093e-01 1.7893061909545498e+01 
16 1 2 1.0279999554757244e+00 -7.6061737153053637e+03 1.0000000000000000e+00 1.4374791241524582e+01 5.1705802581151632e+00 1.7485633565985921e+01 
17 1 2 1.0279999553936865e+00 -6.1563819546182904e+03 1.0000000000000000e+00 1.4372402913724414e+01 5.1699668782368473e+00 1.7489602107691606e+01 
33 1 2 1.0279999585293700e+00 -7.5481578177941019e+03 1.0000000000000000e+00 1.4467701153591225e+01 5.2022661884585117e+00 1.7353726897557458e+01 
10 1 2 1.0279999610187993e+00 -7.4864430026844102e+03 1.0000000000000000e+00 1.4532474181241518e+01 5.2344365014933425e+00 1.7282543600769749e+01 
98 1 2 1.0279999610019892e+00 -7.4846594700433834e+03 1.0000000000000000e+00 1.4532076660556561e+01 5.2342253615615411e+00 1.7282934000430114e+01 
110 1 2 1.0280000431036869e+00 -8.4935833411603871e+03 1.0000000000000000e+00 1.6070617534469282e+01 5.4576143481878869e+00 1.8186968160186378e+01 
122 1 2 1.0280000431036846e+00 -6.7645996955506434e+03 1.0000000000000000e+00 1.6070617535023274e+01 5.4576143473717220e+00 1.8186968159771791e+01 
120 1 2 1.0280000431036849e+00 -4.8322000408024251e+03 1.0000000000000000e+00 1.6070617535619625e+01 5.4576143464780360e+00 1.8186968159333226e+01 
156 1 2 1.0280000431036842e+00 -5.0135332614146082e+03 1.0000000000000000e+00 1.6070617535618815e+01 5.4576143464764328e+00 1.8186968159335269e+01 
161 1 2 1.0280000434108734e+00 -6.7081996577850286e+03 1.0000000000000000e+00 1.6048849964377158e+01 5.4984921254601788e+00 1.8195878071365641e+01 
114 1 2 1.0279999457724860e+00 -7.2161807868785745e+03 1.0000000000000000e+00 1.8947839687051438e+01 4.1040914039599823e+00 1.7972130529166026e+01 
50 1 2 1.0279999457748701e+00 -5.9160989817767986e+03 1.0000000000000000e+00 1.8947842953430019e+01 4.1040965761595123e+00 1.7972141488660647e+01 
30 1 2 1.0279999457736273e+00 -5.7170645446590461e+03 1.0000000000000000e+00 1.8947846817511397e+01 4.1041081814765192e+00 1.7972119960672025e+01 
113 1 2 1.0279999457747571e+00 -7.1346540858747358e+03 1.0000000000000000e+00 1.8947844793283881e+01 4.1041014541735485e+00 1.7972135301297644e+01 
64 1 2 1.0279999457729141e+00 -7.9077796594133933e+03 1.0000000000000000e+00 1.8947845949918108e+01 4.1041069036977724e+00 1.7972116451184178e+01 
149 1 2 1.0279999457783215e+00 -7.9594322452591114e+03 1.0000000000000000e+00 1.8947850550474858e+01 4.1041114449929150e+00 1.7972149150099167e+01 
150 1 2 1.0279999457731839e+00 -7.9997278775533123e+03 1.0000000000000000e+00 1.8947841913898152e+01 4.1040961740930175e+00 1.7972130172987967e+01 
76 1 2 1.0279999995893154e+00 -6.0939344936431789e+03 1.0000000000000000e+00 1.3510075170732616e+01 1.9749939590780162e+01 1.7276494301575720e+01 

Velocities

125 8.5735705342889670e-02 -3.2492717449153496e-01 -1.7109395538608480e-01
55 8.5696756224513601e-02 -3.2493874872730794e-01 -1.7110608532538440e-01
131 8.5739068777865163e-02 -3.2492739141571458e-01 -1.7111160157276453e-01
127 8.5732023773962718e-02 -3.2492745831010378e-01 -1.7112277869612355e-01
169 8.5714741709120232e-02 -3.2493967430043613e-01 -1.7109812606166250e-01
175 8.5714739075953270e-02 -3.2493967302777577e-01 -1.7109812332367408e-01
176 8.5714725567845249e-02 -3.2493966710918964e-01 -1.7109811012106460e-01
165 8.5714845633900708e-02 -3.2493967306795174e-01 -1.7109816571718234e-01
109 8.5768217044180403e-02 -3.2494809904871530e-01 -1.7123884995336464e-01
18 8.5768217816374420e-02 -3.2494809972384187e-01 -1.7123885036818670e-01
12 8.5768216872555675e-02 -3.2494809889868403e-01 -1.7123884986120419e-01
94 8.5768216589235641e-02 -3.2494809865101743e-01 -1.7123884970904760e-01
177 8.5816790523710801e-02 -3.2487180484031697e-01 -1.7114461280219956e-01
141 8.5816793566291974e-02 -3.2487181373957391e-01 -1.7114461431853045e-01
86 8.5816793588439411e-02 -3.2487181381009939e-01 -1.7114461433009828e-01
147 8.5816793574260530e-02 -3.2487181376552465e-01 -1.7114461432286515e-01
5 8.5857261469751089e-02 -3.2467841879169757e-01 -1.7111900308257977e-01
4 8.5857261461736084e-02 -3.2467841879289205e-01 -1.7111900310732017e-01
35 8.5857261465302176e-02 -3.2467841879229925e-01 -1.7111900309627481e-01
23 8.5870626354486362e-02 -3.2466247193532777e-01 -1.7108410975640961e-01
105 8.5870816002404038e-02 -3.2466266073433214e-01 -1.7108395282963607e-01
47 8.5870816099809968e-02 -3.2466266082054329e-01 -1.7108395277569197e-01
178 8.5791125109632577e-02 -3.2488648203455611e-01 -1.7123005614815393e-01
100 8.5880441921553044e-02 -3.2500854225671816e-01 -1.7125105786330477e-01
123 8.5878312329680934e-02 -3.2520401797605863e-01 -1.7133827336762814e-01
159 8.5878315294238367e-02 -3.2520402487555200e-01 -1.7133828269809828e-01
117 8.5885892314428988e-02 -3.2521266818256017e-01 -1.7135620822699119e-01
116 8.5884880093650473e-02 -3.2521217619204223e-01 -1.7135427437470899e-01
118 8.5964686737810367e-02 -3.2529591772024308e-01 -1.7139758812377362e-01
73 8.5966197003337047e-02 -3.2529564300392283e-01 -1.7139854561006190e-01
75 8.5867130163208238e-02 -3.2467125214582387e-01 -1.7108321277469221e-01
63 8.5766507418960886e-02 -3.2442374670823615e-01 -1.7102143173995393e-01
7 8.5766443796262429e-02 -3.2442242785431646e-01 -1.7102101456317056e-01
43 8.5766442520245928e-02 -3.2442238582414812e-01 -1.7102100154232480e-01
27 8.5766442309737997e-02 -3.2442237873543106e-01 -1.7102099934802220e-01
54 8.5766425425703952e-02 -3.2442139533616959e-01 -1.7102069984062054e-01
158 8.5764237256280629e-02 -3.2436038768953890e-01 -1.7102095175842583e-01
103 8.5867190136381055e-02 -3.2464949922448905e-01 -1.7107654295474417e-01
88 8.5866222149103374e-02 -3.2465102756658271e-01 -1.7107882661987470e-01
139 8.5866214755489348e-02 -3.2465104166552250e-01 -1.7107884640785487e-01
3 8.5984184003217085e-02 -3.2528916244666778e-01 -1.7142012509608281e-01
119 8.5979465011016901e-02 -3.2526667803174197e-01 -1.7158423079074517e-01