LAMMPS data file via write_data, version 30 Jul 2016, timestep = 50000000

180 atoms
2 atom types

0.0000000000000000e+00 2.0000000000000000e+01 xlo xhi
0.0000000000000000e+00 2.0000000000000000e+01 ylo yhi
0.0000000000000000e+00 2.0000000000000000e+01 zlo zhi

Masses

1 3.896
2 4.31

Atoms # meso-molecular

42 1 2 1.0279999995352931e+00 -5.9210991528537634e+03 1.0000000000000000e+00 6.3192662976356582e+00 2.2640410991538187e-01 1.0252964573585697e+00 
78 1 2 1.0279999995352931e+00 -5.8898414275868299e+03 1.0000000000000000e+00 6.3192662976447656e+00 2.2640410990873358e-01 1.0252964573644456e+00 
74 1 2 1.0279999995352926e+00 -8.0194454949024603e+03 1.0000000000000000e+00 6.3192662984216561e+00 2.2640410942047484e-01 1.0252964577272379e+00 
77 1 2 1.0279999995352931e+00 -6.3512051042447756e+03 1.0000000000000000e+00 6.3192662976314828e+00 2.2640410992083024e-01 1.0252964573516672e+00 
41 1 2 1.0279999995352929e+00 -6.8208757192594148e+03 1.0000000000000000e+00 6.3192662976314651e+00 2.2640410991830059e-01 1.0252964573561174e+00 
53 1 2 1.0279999995352931e+00 -5.3191875821043950e+03 1.0000000000000000e+00 6.3192662974569895e+00 2.2640411002901356e-01 1.0252964572727821e+00 
179 1 2 1.0279999557272386e+00 -8.0295701464414833e+03 1.0000000000000000e+00 2.6623899164977858e+00 1.7959826723379202e-01 3.8988038848430953e+00 
143 1 2 1.0279999557272383e+00 -7.7890029805397126e+03 1.0000000000000000e+00 2.6623899165078031e+00 1.7959826726831382e-01 3.8988038849022990e+00 
56 1 2 1.0279999557272386e+00 -6.0383132304447645e+03 1.0000000000000000e+00 2.6623899164913372e+00 1.7959826722584682e-01 3.8988038848307363e+00 
62 1 2 1.0279999557272430e+00 -5.8237458803844584e+03 1.0000000000000000e+00 2.6623899102423199e+00 1.7959826070422069e-01 3.8988038749777405e+00 
171 1 2 1.0279999537966693e+00 -8.0689694395558563e+03 1.0000000000000000e+00 2.6633663956683367e+00 1.8396000593041245e-01 3.9071769071734450e+00 
58 1 2 1.0279999527673642e+00 -5.7712779691478945e+03 1.0000000000000000e+00 2.6598098923068516e+00 1.8588762798464378e-01 3.9131981543033949e+00 
52 1 2 1.0279999528118200e+00 -6.7428926954852814e+03 1.0000000000000000e+00 2.6594501936658581e+00 1.8569557052184271e-01 3.9128763706386942e+00 
112 1 2 1.0280000172395543e+00 -5.9690555232764891e+03 1.0000000000000000e+00 6.0618938487550293e+00 1.7826251341267344e+01 3.8090715841685302e-01 
138 1 2 1.0280000186999685e+00 -6.5855344843470666e+03 1.0000000000000000e+00 6.0994850053253620e+00 1.7829757477207398e+01 3.6149381753886900e-01 
93 1 2 1.0280000060278078e+00 -6.9201286163850546e+03 1.0000000000000000e+00 5.8368881885918835e+00 1.7962366992587128e+01 6.4279808277888895e-01 
137 1 2 1.0280000072106639e+00 -5.3223231372883638e+03 1.0000000000000000e+00 5.8985539555876425e+00 1.7964953481402340e+01 6.4857704534475547e-01 
148 1 2 1.0280001306054098e+00 -7.4613395260957359e+03 1.0000000000000000e+00 3.2132962036528263e+00 1.7265079809013976e+01 5.2658157058681807e+00 
151 1 2 1.0280001300924229e+00 -9.1349094686754433e+03 1.0000000000000000e+00 3.2126195634935146e+00 1.7265579145293096e+01 5.2637019123637687e+00 
28 1 2 1.0280001301216442e+00 -5.3483952907518042e+03 1.0000000000000000e+00 3.2126577523875786e+00 1.7265550878451553e+01 5.2638195360718258e+00 
70 1 2 1.0280001301220241e+00 -7.5082100176668755e+03 1.0000000000000000e+00 3.2126582359834899e+00 1.7265550520490901e+01 5.2638210269824199e+00 
34 1 2 1.0280001301218595e+00 -7.3333303163102100e+03 1.0000000000000000e+00 3.2126580222931835e+00 1.7265550678684402e+01 5.2638203681382221e+00 
61 1 2 1.0279997997471664e+00 -6.4738620044568834e+03 1.0000000000000000e+00 3.0257190268224043e+00 1.7339795011173855e+01 5.4804026673845270e+00 
40 1 2 1.0279997938067038e+00 -5.7917312827501364e+03 1.0000000000000000e+00 3.0194368986408886e+00 1.7340238477978495e+01 5.4775073306592885e+00 
82 1 2 1.0279999988520365e+00 -6.0051711044654621e+03 1.0000000000000000e+00 6.3041972199403844e+00 1.8344962179460254e+01 6.6101341764292671e+00 
25 1 2 1.0279999988459791e+00 -5.7294335656459880e+03 1.0000000000000000e+00 6.3041989247171388e+00 1.8344949996588674e+01 6.6102046151915674e+00 
67 1 2 1.0279999988456083e+00 -5.9518340846354567e+03 1.0000000000000000e+00 6.3042048993130422e+00 1.8344959193766488e+01 6.6102094427056590e+00 
32 1 2 1.0279999988455970e+00 -5.4063967589193007e+03 1.0000000000000000e+00 6.3042048752130588e+00 1.8344959158274762e+01 6.6102094157421467e+00 
26 1 2 1.0279999988456079e+00 -5.1037801624275671e+03 1.0000000000000000e+00 6.3042048977697798e+00 1.8344959191497882e+01 6.6102094409597454e+00 
165 1 2 1.0280000129659663e+00 -8.0418946409693526e+03 1.0000000000000000e+00 1.4143597514646995e+00 1.3098484471544142e+01 9.3783434502945298e+00 
169 1 2 1.0280000129529212e+00 -9.1176035559023985e+03 1.0000000000000000e+00 1.4130145403777084e+00 1.3097726543014542e+01 9.3790913655051664e+00 
175 1 2 1.0280000129527305e+00 -9.9765271175409835e+03 1.0000000000000000e+00 1.4129773681356548e+00 1.3097747064495495e+01 9.3791387884481452e+00 
176 1 2 1.0280000129516000e+00 -1.0383599656131206e+04 1.0000000000000000e+00 1.4127881851863660e+00 1.3097833655352044e+01 9.3793683848004878e+00 
55 1 2 1.0279999920212650e+00 -7.4156031237897532e+03 1.0000000000000000e+00 1.3369649670242891e+00 1.3491379052710489e+01 8.4554519821511285e+00 
125 1 2 1.0279999808101909e+00 -6.0820113141121819e+03 1.0000000000000000e+00 6.6240743168441951e-01 1.3436974709458745e+01 8.6264146152732337e+00 
131 1 2 1.0279999826423423e+00 -6.3758491718794212e+03 1.0000000000000000e+00 5.7102781274040693e-01 1.3412888082702647e+01 8.8681804290577038e+00 
127 1 2 1.0279999858235516e+00 -7.1580384193998098e+03 1.0000000000000000e+00 5.7422413887728085e-01 1.3389347736546089e+01 9.0608449445143737e+00 
109 1 2 1.0280000158165514e+00 -8.6537852439890066e+03 1.0000000000000000e+00 1.1130045563392708e+00 1.5837962730551943e+01 7.5351594163028075e+00 
18 1 2 1.0280000158171925e+00 -8.1422698420511642e+03 1.0000000000000000e+00 1.1130084120331727e+00 1.5837964094333389e+01 7.5351628977278331e+00 
12 1 2 1.0280000158164362e+00 -7.7609848259743603e+03 1.0000000000000000e+00 1.1130036990485233e+00 1.5837962427390181e+01 7.5351586421408703e+00 
94 1 2 1.0280000158162004e+00 -7.0636664788606586e+03 1.0000000000000000e+00 1.1130022838609781e+00 1.5837961926829729e+01 7.5351573643490308e+00 
178 1 2 1.0280000164468119e+00 -4.5421866280625454e+03 1.0000000000000000e+00 8.7189040415686769e-01 1.7368765109913948e+01 7.6283904803400517e+00 
100 1 2 1.0280000029496712e+00 -5.9151612532572326e+03 1.0000000000000000e+00 1.1211505933220440e+00 1.7983877387103632e+01 9.3042711298860450e+00 
123 1 2 1.0279999666090869e+00 -6.3818085325428119e+03 1.0000000000000000e+00 2.0496803470574347e+00 1.8028079997050703e+01 9.7843977313807589e+00 
159 1 2 1.0279999666052833e+00 -7.6654882112620653e+03 1.0000000000000000e+00 2.0496579443639900e+00 1.8028083390325531e+01 9.7844471580163077e+00 
116 1 2 1.0279999611725772e+00 -1.0631947848166257e+04 1.0000000000000000e+00 2.0058574008821481e+00 1.8028658220202946e+01 9.8632926338140123e+00 
117 1 2 1.0279999606478876e+00 -6.8427306161444021e+03 1.0000000000000000e+00 1.9995294302507496e+00 1.8028051267334547e+01 9.8723154207818276e+00 
118 1 2 1.0280000612104239e+00 -6.6325071291487338e+03 1.0000000000000000e+00 2.4605690346972291e+00 1.6552547228961551e+01 1.0017966216252304e+01 
73 1 2 1.0280000594889931e+00 -6.7817763964983596e+03 1.0000000000000000e+00 2.4716116616429691e+00 1.6553008017706997e+01 1.0030397782110846e+01 
3 1 2 1.0280000341242064e+00 -6.3408466415640651e+03 1.0000000000000000e+00 2.6232183946984220e+00 1.6564582331295103e+01 1.0192730676139462e+01 
146 1 2 1.0279999947338412e+00 -7.1734994604953199e+03 1.0000000000000000e+00 6.0051124561856035e+00 1.5177753093706908e+01 1.1160382717655118e+01 
124 1 2 1.0279999947338352e+00 -6.3027057623342771e+03 1.0000000000000000e+00 6.0051124547218926e+00 1.5177753092590985e+01 1.1160382720829148e+01 
48 1 2 1.0279999947338405e+00 -8.1786702631830376e+03 1.0000000000000000e+00 6.0051124559547562e+00 1.5177753093530908e+01 1.1160382718155747e+01 
80 1 2 1.0279999947340062e+00 -6.9166620189025089e+03 1.0000000000000000e+00 6.0051114655756184e+00 1.5177752338175599e+01 1.1160384867581323e+01 
13 1 2 1.0279999946842568e+00 -8.0331133660825990e+03 1.0000000000000000e+00 6.0054809126282382e+00 1.5178033365661927e+01 1.1159591466257700e+01 
59 1 2 1.0279999695643836e+00 -7.9758793206162945e+03 1.0000000000000000e+00 4.5490235143815294e+00 1.6109000849867968e+01 1.1241231700151102e+01 
2 1 2 1.0279999695638442e+00 -6.4676983527275788e+03 1.0000000000000000e+00 4.5490220361727731e+00 1.6109007272554095e+01 1.1241223543434407e+01 
66 1 2 1.0279999685869712e+00 -4.9519013277852000e+03 1.0000000000000000e+00 4.5362236722718876e+00 1.6109838481206658e+01 1.1228995068417392e+01 
1 1 2 1.0279999695638113e+00 -6.4682544119324311e+03 1.0000000000000000e+00 4.5490220135452883e+00 1.6109007372093554e+01 1.1241223417261800e+01 
119 1 2 1.0279999074784267e+00 -8.0216614943274490e+03 1.0000000000000000e+00 2.9017672766092035e+00 1.6730365096145064e+01 1.0538222433522654e+01 
153 1 2 1.0279999980122532e+00 -5.8935441526780305e+03 1.0000000000000000e+00 3.7758966423691684e-02 1.7391902268658839e+01 1.4295760339245696e+01 
72 1 2 1.0279999921850409e+00 -7.3796533705857673e+03 1.0000000000000000e+00 5.1511590518569879e+00 1.8716487866498568e+01 1.9108784916291640e+01 
101 1 2 1.0279999921850440e+00 -6.3800424450768987e+03 1.0000000000000000e+00 5.1511590518559593e+00 1.8716487866499040e+01 1.9108784916292283e+01 
102 1 2 1.0279999921850416e+00 -6.5127408732044150e+03 1.0000000000000000e+00 5.1511590518543020e+00 1.8716487866499747e+01 1.9108784916293295e+01 
90 1 2 1.0279999921850389e+00 -7.7244466459823034e+03 1.0000000000000000e+00 5.1511595528027554e+00 1.8716487656298266e+01 1.9108784608322601e+01 
108 1 2 1.0279999921850373e+00 -7.1086009753066155e+03 1.0000000000000000e+00 5.1511590518549975e+00 1.8716487866500540e+01 1.9108784916292898e+01 
174 1 2 1.0280000022123055e+00 -6.6209838629119713e+03 1.0000000000000000e+00 9.3988544514380088e+00 1.3242979707122485e+01 3.2285436888500936e+00 
144 1 2 1.0280000023012090e+00 -5.9769546396927190e+03 1.0000000000000000e+00 9.3855053195371152e+00 1.3248065360690452e+01 3.2287110828344017e+00 
19 1 2 1.0279999829569386e+00 -8.5818205681237741e+03 1.0000000000000000e+00 7.5088319547835702e+00 1.5266370548895230e+01 1.0214917985776055e+00 
36 1 2 1.0279999829598678e+00 -6.6807625626414674e+03 1.0000000000000000e+00 7.5087878142804954e+00 1.5266418097353283e+01 1.0214811416389342e+00 
6 1 2 1.0279999829599902e+00 -7.1087169003157987e+03 1.0000000000000000e+00 7.5087861099475735e+00 1.5266419933425381e+01 1.0214807300874853e+00 
164 1 2 1.0280000068982627e+00 -9.3127052332683634e+03 1.0000000000000000e+00 8.0605623957309813e+00 1.5402922968574746e+01 8.8910677312389941e-02 
154 1 2 1.0280000069255411e+00 -7.8012436036248955e+03 1.0000000000000000e+00 8.0603514532963327e+00 1.5403648000694696e+01 8.8585302577805197e-02 
57 1 2 1.0280000069300039e+00 -7.6705746265459256e+03 1.0000000000000000e+00 8.0603162642505541e+00 1.5403766350612738e+01 8.8531911519951795e-02 
49 1 2 1.0280000152297613e+00 -7.2635611809371194e+03 1.0000000000000000e+00 8.0938804268293154e+00 1.5671047500462063e+01 1.1070261915623904e-01 
31 1 2 1.0280000185148361e+00 -5.1501815294282987e+03 1.0000000000000000e+00 8.0458048739645083e+00 1.6023834817658734e+01 6.2658920300914700e-01 
65 1 2 1.0280000131446714e+00 -5.8735385396491820e+03 1.0000000000000000e+00 9.4596235012315173e+00 1.4578169478868476e+01 3.0732651077991733e+00 
39 1 2 1.0279999992860618e+00 -6.1364734473902399e+03 1.0000000000000000e+00 9.8118161656325977e+00 1.2809442916269278e+01 3.7359124348893662e+00 
76 1 2 1.0279999995492854e+00 -6.0939344936431789e+03 1.0000000000000000e+00 1.0053793760259282e+01 1.2831957103891607e+01 4.1895370296008716e+00 
121 1 2 1.0280000001258300e+00 -6.7294556953854299e+03 1.0000000000000000e+00 1.0541715394476807e+01 1.3218085770817275e+01 4.0665464415223189e+00 
37 1 2 1.0280000040418247e+00 -8.3126575639327693e+03 1.0000000000000000e+00 8.0605093255251372e+00 1.5095791869515544e+01 3.8433311105845651e+00 
68 1 2 1.0280000040228858e+00 -6.8546080446817941e+03 1.0000000000000000e+00 8.0610213533015642e+00 1.5096902325712561e+01 3.8424526859634582e+00 
38 1 2 1.0280000039800912e+00 -7.0297030441401566e+03 1.0000000000000000e+00 8.0621971927675045e+00 1.5099418827953603e+01 3.8404478411333915e+00 
11 1 2 1.0280000040663266e+00 -4.4529973271997333e+03 1.0000000000000000e+00 8.2263262697768660e+00 1.5255192161149488e+01 3.6259445947518514e+00 
172 1 2 1.0279999747715698e+00 -6.9136590983052556e+03 1.0000000000000000e+00 8.9747174614983010e+00 1.5249977533854446e+01 4.9443337943768721e+00 
173 1 2 1.0279999747710244e+00 -6.1205052776722823e+03 1.0000000000000000e+00 8.9747127775129538e+00 1.5249983494658931e+01 4.9443314442584327e+00 
136 1 2 1.0279999747711657e+00 -5.9732117357278130e+03 1.0000000000000000e+00 8.9747141574451117e+00 1.5249981738566419e+01 4.9443321366224131e+00 
21 1 2 1.0280000018084059e+00 -6.3841115755766059e+03 1.0000000000000000e+00 1.0164671284714062e+01 1.3455933239546003e+01 4.8059578691625742e+00 
140 1 2 1.0280000022414542e+00 -5.1919432413255126e+03 1.0000000000000000e+00 1.0217065696443241e+01 1.3934605886264077e+01 4.8470053868060887e+00 
106 1 2 1.0280000006754475e+00 -6.3370528453151355e+03 1.0000000000000000e+00 1.0593150505568079e+01 1.3392857196116188e+01 3.9363681752815149e+00 
91 1 2 1.0279999570370018e+00 -1.0451496650824394e+04 1.0000000000000000e+00 7.7096903272063271e+00 1.7246362071466965e+01 5.9822732310948261e+00 
111 1 2 1.0279999570362459e+00 -8.2338015616754965e+03 1.0000000000000000e+00 7.7096760642299342e+00 1.7246367125924824e+01 5.9822518269793283e+00 
87 1 2 1.0279999570362213e+00 -6.0265228493468549e+03 1.0000000000000000e+00 7.7096760642229638e+00 1.7246367125926859e+01 5.9822518269697254e+00 
128 1 2 1.0280000705190329e+00 -7.2371358765063242e+03 1.0000000000000000e+00 8.9135911211988130e+00 1.8334367912259076e+01 6.1119119676572975e+00 
155 1 2 1.0280000121870496e+00 -7.5364777429356654e+03 1.0000000000000000e+00 6.9323168950262524e+00 1.7726282186201708e+01 5.6977906552895350e+00 
17 1 2 1.0279999522712644e+00 -6.1563819553458861e+03 1.0000000000000000e+00 1.0920054071742092e+01 1.8262918947189316e+01 4.4046227524161727e+00 
16 1 2 1.0279999523565324e+00 -7.6061737160329594e+03 1.0000000000000000e+00 1.0922464972141075e+01 1.8263550384903713e+01 4.4006269393546766e+00 
33 1 2 1.0279999555748716e+00 -7.5481578180920442e+03 1.0000000000000000e+00 1.1016295026111415e+01 1.8295939795918077e+01 4.2678469644155799e+00 
98 1 2 1.0279999582286810e+00 -7.4846594700433834e+03 1.0000000000000000e+00 1.1081353650983310e+01 1.8328416206941903e+01 4.1966614572185286e+00 
10 1 2 1.0279999582467303e+00 -7.4864430026844102e+03 1.0000000000000000e+00 1.1081755468460752e+01 1.8328630503402376e+01 4.1962692168589628e+00 
110 1 2 1.0280000462951682e+00 -8.4935833411603871e+03 1.0000000000000000e+00 1.2617605204145159e+01 1.8553730301853502e+01 5.1034250824449447e+00 
122 1 2 1.0280000462951633e+00 -6.7645996955506434e+03 1.0000000000000000e+00 1.2617605204693984e+01 1.8553730301047825e+01 5.1034250820358578e+00 
120 1 2 1.0280000462951628e+00 -4.8322000408024251e+03 1.0000000000000000e+00 1.2617605205284782e+01 1.8553730300165377e+01 5.1034250816032367e+00 
156 1 2 1.0280000462951628e+00 -5.0135332614146082e+03 1.0000000000000000e+00 1.2617605205284002e+01 1.8553730300163771e+01 5.1034250816052298e+00 
161 1 2 1.0280000466118109e+00 -6.7081996577850286e+03 1.0000000000000000e+00 1.2596055460957363e+01 1.8594100950360328e+01 5.1122000321018390e+00 
81 1 2 1.0279999689367498e+00 -8.2778874467657133e+03 1.0000000000000000e+00 8.7483878038370175e+00 1.6043338821471320e+01 9.5183806446813595e+00 
44 1 2 1.0279999689367518e+00 -8.8273189921307185e+03 1.0000000000000000e+00 8.7483878040884786e+00 1.6043338821271860e+01 9.5183806402192310e+00 
45 1 2 1.0279999689367303e+00 -9.0706052827937456e+03 1.0000000000000000e+00 8.7483878045662049e+00 1.6043338820895816e+01 9.5183806319073163e+00 
160 1 2 1.0279999593003413e+00 -7.2853472637905988e+03 1.0000000000000000e+00 8.7452526312073982e+00 1.6047345473827992e+01 9.5795573947348966e+00 
84 1 2 1.0280000030239160e+00 -6.0708998774164638e+03 1.0000000000000000e+00 1.0742769979403985e+01 1.4759536161140316e+01 8.6287227256655470e+00 
83 1 2 1.0280000030239052e+00 -5.5568091981358402e+03 1.0000000000000000e+00 1.0742769979402990e+01 1.4759536161139854e+01 8.6287227256652130e+00 
29 1 2 1.0280000030238596e+00 -6.1769198792264187e+03 1.0000000000000000e+00 1.0742772759534084e+01 1.4759537046668388e+01 8.6287254207556874e+00 
89 1 2 1.0280000030239187e+00 -5.2594621198085124e+03 1.0000000000000000e+00 1.0742769979403366e+01 1.4759536161140064e+01 8.6287227256653427e+00 
104 1 2 1.0280000030239165e+00 -5.0473222884031611e+03 1.0000000000000000e+00 1.0742769977967088e+01 1.4759536160990676e+01 8.6287227223963807e+00 
142 1 2 1.0280000030238345e+00 -6.5308769525830030e+03 1.0000000000000000e+00 1.0742772728816409e+01 1.4759537038897927e+01 8.6287253787097633e+00 
99 1 2 1.0279999874285433e+00 -8.0568462302027219e+03 1.0000000000000000e+00 9.4848302257711943e+00 1.8842876744188011e+01 7.0855363773917377e+00 
22 1 2 1.0279999874285395e+00 -7.4611080379237110e+03 1.0000000000000000e+00 9.4848303182354012e+00 1.8842876734187360e+01 7.0855364337091373e+00 
145 1 2 1.0279999874285475e+00 -8.0737746613349545e+03 1.0000000000000000e+00 9.4848301933913994e+00 1.8842876747694913e+01 7.0855363578381167e+00 
14 1 2 1.0279999874199701e+00 -8.2665585098395568e+03 1.0000000000000000e+00 9.4849559054136829e+00 1.8842859919622523e+01 7.0855002209526248e+00 
9 1 2 1.0279999874360979e+00 -6.4007187338684935e+03 1.0000000000000000e+00 9.4847544203658387e+00 1.8842883790864963e+01 7.0854500655799368e+00 
134 1 2 1.0280000231469568e+00 -6.1344091305484062e+03 1.0000000000000000e+00 7.3402845969841062e+00 1.7831360395421900e+01 9.4573648128486614e+00 
97 1 2 1.0280000231513666e+00 -6.3635121731519002e+03 1.0000000000000000e+00 7.3402906781982900e+00 1.7831358267645651e+01 9.4573814025386600e+00 
132 1 2 1.0280000249635211e+00 -7.4427212718253531e+03 1.0000000000000000e+00 7.3428447291717358e+00 1.7830465867363614e+01 9.4642797110206462e+00 
130 1 2 1.0280000249895067e+00 -5.9388842726785169e+03 1.0000000000000000e+00 7.3428820142249904e+00 1.7830452856101445e+01 9.4643794115046695e+00 
133 1 2 1.0280000259227913e+00 -6.0416722511046564e+03 1.0000000000000000e+00 7.3442366461419351e+00 1.7829981762758397e+01 9.4679793931174672e+00 
79 1 2 1.0280000260175186e+00 -6.3335709331602911e+03 1.0000000000000000e+00 7.3443744299750753e+00 1.7829932638705237e+01 9.4683464457170619e+00 
85 1 2 1.0280000173119448e+00 -9.2660197980773955e+03 1.0000000000000000e+00 1.0704673680901672e+01 1.7305858774638725e+01 8.4919887578510433e+00 
20 1 2 1.0280000172631270e+00 -6.5606671925094779e+03 1.0000000000000000e+00 1.0703594917823581e+01 1.7307837113894092e+01 8.4917373539492438e+00 
162 1 2 1.0280000161618648e+00 -6.3099174389706986e+03 1.0000000000000000e+00 1.0692716164414419e+01 1.7355158844180757e+01 8.4311058318886332e+00 
168 1 2 1.0280000161618430e+00 -6.2093176782028722e+03 1.0000000000000000e+00 1.0692716155298870e+01 1.7355158828287742e+01 8.4311059096628131e+00 
167 1 2 1.0280000161618201e+00 -5.4357871503066126e+03 1.0000000000000000e+00 1.0692716139614866e+01 1.7355158800495389e+01 8.4311060445438635e+00 
69 1 2 1.0279999690741826e+00 -7.8915943186666600e+03 1.0000000000000000e+00 8.7548410046793830e+00 1.6136142022134472e+01 1.1670168575613376e+01 
15 1 2 1.0280000189786576e+00 -6.4186274976983332e+03 1.0000000000000000e+00 8.4335475636815236e+00 1.6177953538101999e+01 1.2590481468952582e+01 
180 1 2 1.0280000189107930e+00 -8.4882554828876764e+03 1.0000000000000000e+00 8.4341283807241094e+00 1.6177468032622809e+01 1.2590394854613182e+01 
95 1 2 1.0280000190630529e+00 -5.5043593716443311e+03 1.0000000000000000e+00 8.4328235586915561e+00 1.6178555046651152e+01 1.2590587728627440e+01 
8 1 2 1.0280000190488194e+00 -6.4868954140159585e+03 1.0000000000000000e+00 8.4329457535596077e+00 1.6178455441181868e+01 1.2590569593006558e+01 
96 1 2 1.0280000196242371e+00 -5.7153240523351769e+03 1.0000000000000000e+00 8.4279232258327923e+00 1.6182711062073139e+01 1.2591217127886271e+01 
60 1 2 1.0280000196242343e+00 -7.7464674929204111e+03 1.0000000000000000e+00 8.4279232327179621e+00 1.6182711055930348e+01 1.2591217127157003e+01 
50 1 2 1.0279999420366623e+00 -5.9160989817767986e+03 1.0000000000000000e+00 1.5498319464245418e+01 1.7206350211090527e+01 4.8955349264600549e+00 
114 1 2 1.0279999420340331e+00 -7.2161807868785745e+03 1.0000000000000000e+00 1.5498316171933077e+01 1.7206344927021821e+01 4.8955237617768734e+00 
150 1 2 1.0279999420347965e+00 -7.9997278775533123e+03 1.0000000000000000e+00 1.5498318429921744e+01 1.7206349790085167e+01 4.8955233997528955e+00 
149 1 2 1.0279999420404284e+00 -7.9594322452591114e+03 1.0000000000000000e+00 1.5498327152206031e+01 1.7206365378180756e+01 4.8955427332040395e+00 
30 1 2 1.0279999420352266e+00 -5.7170645446590461e+03 1.0000000000000000e+00 1.5498323418277105e+01 1.7206362022284953e+01 4.8955129990400836e+00 
113 1 2 1.0279999420365113e+00 -7.1346540858747358e+03 1.0000000000000000e+00 1.5498321339959565e+01 1.7206355178434297e+01 4.8955286245536955e+00 
64 1 2 1.0279999420344519e+00 -7.9077796594133933e+03 1.0000000000000000e+00 1.5498322544816777e+01 1.7206360716088632e+01 4.8955094239067680e+00 
86 1 2 1.0279999804667057e+00 -8.0747264245955157e+03 1.0000000000000000e+00 1.9786350399241243e+01 1.6823441784358014e+01 7.4824429580771588e+00 
177 1 2 1.0279999804672262e+00 -4.5331076314921183e+03 1.0000000000000000e+00 1.9786353180475107e+01 1.6823333527123150e+01 7.4823899928034185e+00 
147 1 2 1.0279999804667399e+00 -7.7694806554714251e+03 1.0000000000000000e+00 1.9786350407389268e+01 1.6823441248591401e+01 7.4824427056136438e+00 
141 1 2 1.0279999804667184e+00 -4.3710413424022363e+03 1.0000000000000000e+00 1.9786350411756736e+01 1.6823440936097214e+01 7.4824425590279970e+00 
5 1 2 1.0279999871727636e+00 -5.8943782300410921e+03 1.0000000000000000e+00 1.9199589475464919e+01 1.7669451352825462e+01 9.8109393144282375e+00 
4 1 2 1.0279999871728154e+00 -5.6225047723083781e+03 1.0000000000000000e+00 1.9199589389138421e+01 1.7669451335779176e+01 9.8109393274221421e+00 
35 1 2 1.0279999871727885e+00 -6.1349701269121506e+03 1.0000000000000000e+00 1.9199589427773692e+01 1.7669451342787109e+01 9.8109393218666572e+00 
23 1 2 1.0279999982773524e+00 -7.2031353438621345e+03 1.0000000000000000e+00 1.7865534197998258e+01 1.9492984683673171e+01 9.9259093183041447e+00 
47 1 2 1.0279999980913812e+00 -6.0271548454895701e+03 1.0000000000000000e+00 1.7868680532321498e+01 1.9502379015473231e+01 9.9270369095348645e+00 
105 1 2 1.0279999980914465e+00 -7.8392130792286089e+03 1.0000000000000000e+00 1.7868680159764921e+01 1.9502372680098944e+01 9.9270332117022111e+00 
63 1 2 1.0280000157555742e+00 -6.6476311891844161e+03 1.0000000000000000e+00 1.8877453746584525e+01 1.6364934946214326e+01 1.1492070321314728e+01 
43 1 2 1.0280000142746639e+00 -7.8407829634801692e+03 1.0000000000000000e+00 1.8873952102814428e+01 1.6365644951633723e+01 1.1495483267735890e+01 
7 1 2 1.0280000143207826e+00 -7.7510943616955319e+03 1.0000000000000000e+00 1.8874057838035633e+01 1.6365622640980572e+01 1.1495377823290777e+01 
27 1 2 1.0280000142668668e+00 -5.6571732798319190e+03 1.0000000000000000e+00 1.8873934287170556e+01 1.6365648716222566e+01 1.1495501050990093e+01 
54 1 2 1.0280000131829194e+00 -7.3434271827015318e+03 1.0000000000000000e+00 1.8871499171282647e+01 1.6366178147291173e+01 1.1497969237279685e+01 
158 1 2 1.0279999360343368e+00 -7.6031665424550001e+03 1.0000000000000000e+00 1.8914814595212338e+01 1.6367507927982253e+01 1.1633577890735687e+01 
139 1 2 1.0280000054045972e+00 -5.2672283134686841e+03 1.0000000000000000e+00 1.8356134399786203e+01 1.9624680209859907e+01 1.0595252799583381e+01 
88 1 2 1.0280000054185319e+00 -6.5796168121311548e+03 1.0000000000000000e+00 1.8356413001194468e+01 1.9624440862430603e+01 1.0595401897299782e+01 
103 1 2 1.0280000069946347e+00 -5.6591247330664482e+03 1.0000000000000000e+00 1.8387512033182823e+01 1.9597156200825669e+01 1.0610904271918988e+01 
75 1 2 1.0279999945268723e+00 -4.3220068719925175e+03 1.0000000000000000e+00 1.8196746258649650e+01 1.9815144440881344e+01 1.0040319104302732e+01 
135 1 2 1.0279999987569772e+00 -5.9542294559698712e+03 1.0000000000000000e+00 1.8899818307801336e+01 1.5631186719995801e+01 1.4299991954230531e+01 
129 1 2 1.0280000063522809e+00 -7.6638271269856896e+03 1.0000000000000000e+00 1.9432116627864342e+01 1.5757494673712680e+01 1.5140856509353259e+01 
107 1 2 1.0280000063468897e+00 -5.5867383748419061e+03 1.0000000000000000e+00 1.9427690884516654e+01 1.5757552706834186e+01 1.5144628410703238e+01 
92 1 2 1.0280000063246035e+00 -7.5192515006527619e+03 1.0000000000000000e+00 1.9412367947221703e+01 1.5757960935475753e+01 1.5157501856463989e+01 
51 1 2 1.0279999970494071e+00 -5.6854741041934822e+03 1.0000000000000000e+00 1.9828862945604001e+01 1.6069831432479987e+01 1.4147430390717815e+01 
46 1 2 1.0279999997675124e+00 -7.1577571195073870e+03 1.0000000000000000e+00 1.8044320634567054e+01 1.6276178517647843e+01 1.4643932321291693e+01 
157 1 2 1.0279999992275892e+00 -7.4276863807599811e+03 1.0000000000000000e+00 1.9179214330648303e+01 1.8395117044119694e+01 1.5459409682386209e+01 
126 1 2 1.0279999991753805e+00 -6.4612550743143420e+03 1.0000000000000000e+00 1.9260744461704697e+01 1.8349536706638148e+01 1.5545536736533718e+01 
24 1 2 1.0279999998541038e+00 -3.9437133195943770e+03 1.0000000000000000e+00 1.9668826001706506e+01 1.8018375554131229e+01 1.5709556312314405e+01 
170 1 2 1.0279999995557108e+00 -7.9700388823505637e+03 1.0000000000000000e+00 1.9147239623857025e+01 1.7768527335449757e+01 1.6022374695773355e+01 
163 1 2 1.0279999992276225e+00 -7.6932306002911037e+03 1.0000000000000000e+00 1.9179205688210974e+01 1.8395119026294143e+01 1.5459405462711429e+01 
71 1 2 1.0279999897540439e+00 -6.9715347561800563e+03 1.0000000000000000e+00 1.8011184508076671e+01 1.6960951257586764e+01 1.4149251354410049e+01 
115 1 2 1.0279999898058632e+00 -8.6102292411644939e+03 1.0000000000000000e+00 1.8012972630835474e+01 1.6975853482068565e+01 1.4149816501028250e+01 
152 1 2 1.0279999919922791e+00 -6.2695337464919239e+03 1.0000000000000000e+00 1.9775449583338325e+01 1.7505253108258120e+01 1.4012228730321620e+01 
166 1 2 1.0280000004542058e+00 -5.3014580576144863e+03 1.0000000000000000e+00 1.8040490769555195e+01 1.7564547384477677e+01 1.5250471277948456e+01 

Velocities

42 8.6565197506315195e-02 -3.2761418821183697e-01 -1.7309899535126716e-01
78 8.6565197506327296e-02 -3.2761418821180410e-01 -1.7309899535124984e-01
74 8.6565197506323119e-02 -3.2761418821179922e-01 -1.7309899535125142e-01
77 8.6565197506307257e-02 -3.2761418821185290e-01 -1.7309899535128503e-01
41 8.6565197506326588e-02 -3.2761418821180360e-01 -1.7309899535125298e-01
53 8.6565197506331862e-02 -3.2761418821179344e-01 -1.7309899535124110e-01
179 8.5595460212990485e-02 -3.2493485998677885e-01 -1.7114844475809671e-01
143 8.5595460212987959e-02 -3.2493485998679639e-01 -1.7114844475811711e-01
56 8.5595460212992441e-02 -3.2493485998677257e-01 -1.7114844475809324e-01
62 8.5595460215109040e-02 -3.2493485998325305e-01 -1.7114844475510410e-01
171 8.5595224993619129e-02 -3.2493729578032471e-01 -1.7115115540724282e-01
58 8.5596652109910493e-02 -3.2493850338773000e-01 -1.7115324377065591e-01
52 8.5596785620118979e-02 -3.2493841072931479e-01 -1.7115312803269697e-01
112 8.6568779537360613e-02 -3.2764362544064202e-01 -1.7307230178887256e-01
138 8.6572481573958651e-02 -3.2764466864295677e-01 -1.7307308857698492e-01
93 8.6555961029887080e-02 -3.2762663202103925e-01 -1.7307181288156798e-01
137 8.6558271785360269e-02 -3.2762781624038745e-01 -1.7306925171661908e-01
148 8.5669791312822000e-02 -3.2510415268559750e-01 -1.7144643483330235e-01
151 8.5669140481080264e-02 -3.2510362081555050e-01 -1.7144756384201318e-01
28 8.5669177186709744e-02 -3.2510365105121619e-01 -1.7144750139060394e-01
70 8.5669177651466727e-02 -3.2510365143383746e-01 -1.7144750059860492e-01
34 8.5669177446086375e-02 -3.2510365126473367e-01 -1.7144750094858585e-01
61 8.5656545821548524e-02 -3.2499977383486067e-01 -1.7147726681585965e-01
40 8.5661578301401115e-02 -3.2499865315666904e-01 -1.7147767621722654e-01
82 8.6453176561526915e-02 -3.2688442003647422e-01 -1.7278489570695313e-01
25 8.6453183578354992e-02 -3.2688442554197306e-01 -1.7278489946233572e-01
67 8.6453183901534059e-02 -3.2688442696552578e-01 -1.7278490044623099e-01
32 8.6453183899588795e-02 -3.2688442695929160e-01 -1.7278490044188843e-01
26 8.6453183901276195e-02 -3.2688442696504921e-01 -1.7278490044594114e-01
165 8.5678573442023231e-02 -3.2484970889055115e-01 -1.7102268517155558e-01
169 8.5678467242607789e-02 -3.2484970965566101e-01 -1.7102264392751160e-01
175 8.5678464532779774e-02 -3.2484970834922428e-01 -1.7102264115200225e-01
176 8.5678450638130177e-02 -3.2484970226598830e-01 -1.7102262775896698e-01
55 8.5660050074525929e-02 -3.2484968884055493e-01 -1.7103117975117149e-01
125 8.5700336196408433e-02 -3.2483748337941715e-01 -1.7101845054659459e-01
131 8.5703985303771255e-02 -3.2483757227056842e-01 -1.7103665579527100e-01
127 8.5696747447611826e-02 -3.2483755710346124e-01 -1.7104824877127220e-01
109 8.5734416770291838e-02 -3.2486168519577346e-01 -1.7117540860046038e-01
18 8.5734417620927691e-02 -3.2486168593696130e-01 -1.7117540905149792e-01
12 8.5734416581146625e-02 -3.2486168503096013e-01 -1.7117540850016952e-01
94 8.5734416269552013e-02 -3.2486168475969385e-01 -1.7117540833523570e-01
178 8.5759311953788997e-02 -3.2479350845568783e-01 -1.7116844683499202e-01