LAMMPS data file via write_data, version 30 Jul 2016, timestep = 50000000

384 atoms
2 atom types

0.0000000000000000e+00 2.0000000000000000e+01 xlo xhi
0.0000000000000000e+00 2.0000000000000000e+01 ylo yhi
0.0000000000000000e+00 2.0000000000000000e+01 zlo zhi

Masses

1 3.896
2 4.31

Atoms # meso-molecular

23 1 2 1.1605682584842913e+00 2.1982890822228783e+03 1.0000000000000000e+00 4.1445021091046916e+00 2.4188990292712126e-02 8.4758579740241424e-01 
144 1 2 1.1605682584842913e+00 1.2152764232616623e+03 1.0000000000000000e+00 5.1146643346512279e+00 3.2715431929270435e+00 9.4060303522090671e-01 
275 1 2 1.1605682584842913e+00 1.4966876672273693e+03 1.0000000000000000e+00 2.2393771762896679e+00 4.3871903079503518e+00 1.4590562025173942e-01 
68 1 2 1.1605682584842913e+00 1.0220043124943138e+03 1.0000000000000000e+00 5.0113386552232688e+00 5.9671764443971282e+00 6.7942727636732120e-02 
123 1 2 1.1605682584842913e+00 1.0310732025806356e+03 1.0000000000000000e+00 5.3705561620768441e+00 7.8109354163593423e+00 1.1188651950242225e+00 
82 1 2 1.1605682584842913e+00 -2.2288409081924881e+04 1.0000000000000000e+00 5.7088706287485875e+00 1.0031969881857712e+00 2.6736281320260322e+00 
80 1 2 1.1605682584842913e+00 1.2589299666714655e+03 1.0000000000000000e+00 7.7991773868742642e-01 2.6662993485572479e+00 1.4437464623124825e+00 
134 1 2 1.1605682584842913e+00 1.6162806172778110e+03 1.0000000000000000e+00 4.2914134400055000e+00 5.1757934466335529e+00 1.9621907380942933e+00 
256 1 2 1.1605682584842913e+00 1.9225967379824638e+03 1.0000000000000000e+00 2.2700255748469971e+00 7.3336961921879196e+00 1.6046447816940625e+00 
59 1 2 1.1605682584842913e+00 1.7783081007108872e+03 1.0000000000000000e+00 2.8246470952476734e+00 9.1403625949683871e+00 2.7334546223268812e+00 
55 1 2 1.1605682584842913e+00 9.2990574212704587e+02 1.0000000000000000e+00 4.7142176458397298e+00 9.6712124537181854e+00 1.5049383440122719e+00 
104 1 2 1.1605682584842913e+00 1.2511092906864360e+03 1.0000000000000000e+00 2.4389468486044064e+00 1.1589025554294998e+00 3.0675575058434923e+00 
298 1 2 1.1605682584842913e+00 1.4711490630184157e+03 1.0000000000000000e+00 7.5453053778661172e-01 3.2219827160512304e+00 3.4769617942269742e+00 
356 1 2 1.1605682584842913e+00 1.3883822999592385e+03 1.0000000000000000e+00 3.3296088910745918e+00 3.3940372204063110e+00 3.2534273048001667e+00 
280 1 2 1.1605682584842913e+00 1.1189085434360368e+03 1.0000000000000000e+00 3.3438964616262825e+00 5.8064736171440519e+00 3.9756689060068879e+00 
213 1 2 1.1605682584842913e+00 9.2461214891491613e+02 1.0000000000000000e+00 4.5338281435892842e+00 7.4579101694062437e+00 3.1669882292590148e+00 
10 1 2 1.1605682584842913e+00 1.7086019914242120e+03 1.0000000000000000e+00 9.6499643444888861e-01 1.5291484198278456e+00 5.2386738985113981e+00 
343 1 2 1.1605682584842913e+00 -6.6388903904088738e+02 1.0000000000000000e+00 6.3834378119350017e+00 3.8396623795768083e+00 4.6007315477735204e+00 
281 1 2 1.1605682584842913e+00 1.3586899823498220e+03 1.0000000000000000e+00 6.1072093290925604e+00 6.7912216782807961e+00 5.2674447503647857e+00 
149 1 2 1.1605682584842913e+00 -2.4751223897145792e+04 1.0000000000000000e+00 5.3787586507683303e+00 8.8167460383135747e+00 5.0877419190462376e+00 
364 1 2 1.1605682584842913e+00 8.1682091507758605e+02 1.0000000000000000e+00 5.3697175182383159e+00 6.4467456835293957e-01 5.9382052566950234e+00 
197 1 2 1.1605682584842913e+00 2.7828865517674758e+03 1.0000000000000000e+00 4.4639282590394531e+00 4.2837926630811030e+00 5.7728414789472788e+00 
221 1 2 1.1605682584842913e+00 1.2415699467471145e+03 1.0000000000000000e+00 2.5508366597059489e+00 4.4344558062247499e+00 6.8907260685935627e+00 
129 1 2 1.1605682584842913e+00 3.9592709608113819e+02 1.0000000000000000e+00 1.7297576488791999e+00 7.0170123610910364e+00 6.9465533213358679e+00 
225 1 2 1.1605682584842913e+00 1.1318548938314730e+03 1.0000000000000000e+00 3.6219852336289913e+00 6.1245986232853955e+00 6.8410475849311991e+00 
71 1 2 1.1605682584842913e+00 8.8936796095834052e+02 1.0000000000000000e+00 1.0918031861644222e+00 9.5470613890393086e+00 5.8403252233173379e+00 
265 1 2 1.1605682584842913e+00 2.4221380643040339e+02 1.0000000000000000e+00 3.7714623546212072e+00 8.7864542772455216e+00 7.1174314980243576e+00 
11 1 2 1.1605682584842913e+00 -4.2571060409987585e+03 1.0000000000000000e+00 5.6377744551499180e+00 1.6013633573879398e+00 7.8795806090876015e+00 
188 1 2 1.1605682584842913e+00 1.4382698739549835e+02 1.0000000000000000e+00 1.1774544350568863e+00 1.8873655904480844e+00 8.9165914277408156e+00 
38 1 2 1.1605682584842913e+00 9.1503885851402356e+02 1.0000000000000000e+00 5.0538040682387209e+00 3.0343966239924427e+00 9.8059391757952188e+00 
33 1 2 1.1605682584842913e+00 1.3713910471719491e+03 1.0000000000000000e+00 1.0165014724870765e+00 4.5679204810198506e+00 9.0671160333099241e+00 
345 1 2 1.1605682584842913e+00 2.1283359006023211e+03 1.0000000000000000e+00 6.0828221558003310e+00 4.5328433128255936e+00 8.9475258633477530e+00 
259 1 2 1.1605682584842913e+00 1.0325834838870428e+03 1.0000000000000000e+00 2.6675106311003884e+00 9.5980382848456536e+00 8.6197847445733835e+00 
205 1 2 1.1605682584842913e+00 1.0400247863832242e+03 1.0000000000000000e+00 5.5542267515040882e+00 1.2538167188998117e+00 1.0600874677036206e+01 
107 1 2 1.1605682587218424e+00 1.2656291505787979e+03 1.0000000000000000e+00 8.7993346258498450e-01 3.0433388819434222e+00 1.0546164938122750e+01 
347 1 2 1.1605682584842913e+00 1.2507953706843873e+03 1.0000000000000000e+00 3.5856127762681518e+00 4.3966589551684532e+00 1.0235629735224373e+01 
330 1 2 1.1605682584842913e+00 1.6977597809942545e+03 1.0000000000000000e+00 5.1668758474479599e+00 8.7397698794196437e+00 1.0917295711819900e+01 
88 1 2 1.1605682584842913e+00 -1.1188157634842260e+03 1.0000000000000000e+00 4.5506063908098587e-01 2.3704429535004716e+00 1.2768364398259024e+01 
148 1 2 1.1605682584842913e+00 1.3663350970141805e+03 1.0000000000000000e+00 2.3016859206929592e+00 1.4651853861331168e+00 1.1622209797720357e+01 
274 1 2 1.1605682584842913e+00 1.4378503111976952e+03 1.0000000000000000e+00 3.9941478729066406e+00 3.0012639399528274e+00 1.1749184029396062e+01 
163 1 2 1.1605682587218424e+00 -2.9812303964706689e+03 1.0000000000000000e+00 1.3800711549724203e+00 4.6896302891069972e+00 1.1558456922512422e+01 
371 1 2 1.1605682584842913e+00 1.2012965097800761e+03 1.0000000000000000e+00 3.3415679123757629e+00 6.1135960357487038e+00 1.1927597202544000e+01 
39 1 2 1.1605682584842913e+00 1.1080405414574921e+03 1.0000000000000000e+00 5.8229298943108221e+00 7.0684584282064886e+00 1.2674892804515322e+01 
133 1 2 1.1605682584842913e+00 5.8050212092439961e+02 1.0000000000000000e+00 4.1485023692895712e-01 8.4919050815277259e+00 1.2493344533186626e+01 
380 1 2 1.1605682584842913e+00 1.1505429563672615e+03 1.0000000000000000e+00 1.7408800987155264e+00 9.9285900602497001e+00 1.1748942501896634e+01 
359 1 2 1.1605682584842913e+00 1.3215424710503239e+03 1.0000000000000000e+00 6.1916152527858026e-01 2.4585875526759104e-01 1.4067765240351070e+01 
241 1 2 1.1605682584842913e+00 9.5617089017884973e+02 1.0000000000000000e+00 5.3564458257330934e+00 1.6559003556495011e+00 1.2861953555492073e+01 
257 1 2 1.1605682584842913e+00 1.5821118060158810e+03 1.0000000000000000e+00 5.4197557317140677e-01 6.1150664921152149e+00 1.3838616096014890e+01 
56 1 2 1.1605714468588975e+00 1.6492753380078868e+03 1.0000000000000000e+00 2.2062879325608735e+00 7.2340052533523505e+00 1.3841505818632257e+01 
75 1 2 1.1605714468588975e+00 1.1319274825834830e+03 1.0000000000000000e+00 3.5906627127550101e+00 8.6004186151730888e+00 1.3610492809460805e+01 
267 1 2 1.1605682584842913e+00 1.1372429917137151e+03 1.0000000000000000e+00 3.4142179546558675e+00 1.3723562589055205e-01 1.5188131218121853e+01 
245 1 2 1.1605682584842913e+00 -3.1590393908564397e+02 1.0000000000000000e+00 7.5925662322936471e-01 1.9828583456626658e+00 1.5336704414697717e+01 
340 1 2 1.1605682584842913e+00 1.0550847066718361e+03 1.0000000000000000e+00 4.2021966227825409e+00 2.7059857227803019e+00 1.5061157387298092e+01 
91 1 2 1.1605682584842913e+00 1.8161229982977279e+03 1.0000000000000000e+00 1.3506942015662515e+00 3.9365268432312348e+00 1.5647907864064319e+01 
228 1 2 1.1605682584842913e+00 -6.6880096466547948e+03 1.0000000000000000e+00 3.4888909096094878e+00 6.9955619365147355e+00 1.5513151233053405e+01 
270 1 2 1.1605682584842913e+00 1.8849671992722206e+03 1.0000000000000000e+00 9.5760764043661206e-01 1.0157616877008377e-01 1.6370250806509144e+01 
277 1 2 1.1605682584842913e+00 1.1143372707808767e+03 1.0000000000000000e+00 4.3950507118537541e+00 4.6263536854371710e+00 1.6821325693933087e+01 
374 1 2 1.1605682584842913e+00 8.3199186118700868e+02 1.0000000000000000e+00 1.7853801262904572e+00 5.9912426892926041e+00 1.6056266980294769e+01 
293 1 2 1.1605682584842913e+00 1.0629319176580043e+03 1.0000000000000000e+00 7.6987289419178762e-02 7.2226407496254739e+00 1.5810947208305379e+01 
295 1 2 1.1605682584842913e+00 1.4310831673561374e+03 1.0000000000000000e+00 2.3885287526327303e+00 8.6660364642563064e+00 1.6445488178884421e+01 
169 1 2 1.1605683007919245e+00 -7.1410742902588038e+02 1.0000000000000000e+00 6.1254768741101975e+00 1.2516033225719627e+00 1.7755157605037084e+01 
230 1 2 1.1605682584842913e+00 1.3589025788108152e+03 1.0000000000000000e+00 6.6061937509842696e+00 5.1636146247355663e+00 1.7557317062871700e+01 
99 1 2 1.1605682584842913e+00 -2.4495553023491238e+03 1.0000000000000000e+00 4.4173604707594825e+00 7.7615499402083650e+00 1.8302371459561869e+01 
34 1 2 1.1605682584842913e+00 1.6979778384314832e+03 1.0000000000000000e+00 1.3553010934709797e-01 8.8491814450993012e+00 1.7234666857821662e+01 
52 1 2 1.1605682584842913e+00 1.5699397525528411e+03 1.0000000000000000e+00 2.3861186220869732e+00 7.2390243296125212e-01 1.8947550659892201e+01 
307 1 2 1.1605682584842913e+00 1.8307854015443754e+03 1.0000000000000000e+00 1.5489298594067626e+00 2.6517193051779508e+00 1.8716434308771746e+01 
119 1 2 1.1605683007919245e+00 1.0034672616340393e+03 1.0000000000000000e+00 5.8473615117885425e+00 1.5489565034680455e+00 1.9699398232943899e+01 
334 1 2 1.1605682584842913e+00 4.5989069605484110e+02 1.0000000000000000e+00 4.9896364250717191e+00 4.0437214515549513e+00 1.8981509678472438e+01 
50 1 2 1.1605682584842913e+00 1.1882448441194360e+03 1.0000000000000000e+00 3.6286804316172006e-01 5.7518835413972207e+00 1.8625544976878572e+01 
317 1 2 1.1605682584842913e+00 8.1149668624213928e+02 1.0000000000000000e+00 2.0280155179687531e+00 8.2804972451546615e+00 1.9710719616104271e+01 
240 1 2 1.1605682584842913e+00 1.2025505125164937e+03 1.0000000000000000e+00 1.2709103269170214e+00 1.2616141151263321e+01 7.3338808170203085e-01 
191 1 2 1.1605682584842913e+00 1.4860230805159067e+03 1.0000000000000000e+00 4.9832603310254999e+00 1.1665813681802776e+01 1.4350008316130775e-01 
336 1 2 1.1605682584842913e+00 -1.5667873826957452e+02 1.0000000000000000e+00 3.6212958018241261e+00 1.3462636925307962e+01 5.8256247372772563e-01 
182 1 2 1.1605696964787240e+00 1.1872840801223974e+03 1.0000000000000000e+00 5.8567813700880862e+00 1.4763290216548361e+01 1.4793547932944245e-01 
271 1 2 1.1605682584842913e+00 9.4707345808587070e+02 1.0000000000000000e+00 4.1493249376049579e-01 1.4383482591935344e+01 1.9564939943318929e+00 
187 1 2 1.1605682584842913e+00 -5.5618929146150685e+02 1.0000000000000000e+00 5.2506738386722729e+00 1.8537372877237715e+01 1.6290533046134732e+00 
299 1 2 1.1605682584842913e+00 -8.3403839092320891e+02 1.0000000000000000e+00 3.0563370903712950e+00 1.1770383389862186e+01 3.1449006015427807e+00 
76 1 2 1.1605682584842913e+00 -4.0734710363323791e+02 1.0000000000000000e+00 3.5629901694191632e+00 1.3934524131228116e+01 2.9529188140803817e+00 
285 1 2 1.1605682584842913e+00 1.0809111957345276e+03 1.0000000000000000e+00 4.7871547522699274e+00 1.5419927439384614e+01 3.6352063753800321e+00 
211 1 2 1.1605682584842913e+00 2.6211531722184318e+03 1.0000000000000000e+00 1.1012763433903052e+00 1.5762254937195715e+01 3.5863301217428964e+00 
173 1 2 1.1605682584842913e+00 1.1534442302842422e+03 1.0000000000000000e+00 3.2636697602084030e+00 1.0269335122284923e+01 4.5160774319647476e+00 
325 1 2 1.1605682586992521e+00 1.3976653949863196e+03 1.0000000000000000e+00 1.1001896931164219e+00 1.1597055912128711e+01 4.5935450234086623e+00 
70 1 2 1.1605682586992521e+00 -5.5065616926257071e+03 1.0000000000000000e+00 2.8831919656509664e-02 1.3093843197371948e+01 5.3681767439701265e+00 
116 1 2 1.1605682584677048e+00 1.1732796189347616e+03 1.0000000000000000e+00 6.3413764700324438e-01 1.7225782966500471e+01 5.4533887008898887e+00 
180 1 2 1.1605682584842913e+00 1.4724176485836756e+03 1.0000000000000000e+00 4.1659349254348426e+00 1.1245546316571311e+01 7.0878993851751630e+00 
61 1 2 1.1605682584842913e+00 1.4709639198021250e+03 1.0000000000000000e+00 2.5546623570168743e+00 1.4655514931984017e+01 5.9552071733013205e+00 
62 1 2 1.1605682584842913e+00 1.3877734741298286e+03 1.0000000000000000e+00 6.0044401542467156e+00 1.7422483665897918e+01 6.0172197384148252e+00 
156 1 2 1.1605682584842913e+00 1.5427150260191934e+03 1.0000000000000000e+00 7.0170039137925355e-01 1.9458216321740998e+01 7.1072866371607439e+00 
64 1 2 1.1605682584842913e+00 1.1118708352837648e+03 1.0000000000000000e+00 1.8707670173804116e+00 1.2984570237012338e+01 7.7794383411499952e+00 
368 1 2 1.1605682584842913e+00 1.0618772694934200e+03 1.0000000000000000e+00 2.6473200637664535e-01 1.4706410257363551e+01 8.5567331291677409e+00 
60 1 2 1.1605682584677048e+00 6.7158023716353478e+02 1.0000000000000000e+00 1.2843420429409218e+00 1.6404326728942898e+01 7.1546391406918977e+00 
313 1 2 1.1605682584842913e+00 1.3163397983629329e+03 1.0000000000000000e+00 1.9542150577361570e+00 1.7974085817732004e+01 8.4934449248301540e+00 
223 1 2 1.1605682584842913e+00 1.3883779335009713e+03 1.0000000000000000e+00 4.2960373923949922e+00 1.7321872705861967e+01 8.3185851084445606e+00 
46 1 2 1.1605682584842913e+00 1.6039008848587196e+03 1.0000000000000000e+00 4.6616725236098393e+00 1.9482495924349642e+01 8.1533779192332201e+00 
32 1 2 1.1605682584842913e+00 9.2704621538972674e+02 1.0000000000000000e+00 4.5466931868026350e+00 1.0642813286192025e+01 9.8850629100766128e+00 
161 1 2 1.1605682584842913e+00 1.8666044392945628e+03 1.0000000000000000e+00 1.4951693551784191e+00 1.2582273008064259e+01 9.9592419236681327e+00 
109 1 2 1.1605682584842913e+00 4.0817748352775163e+02 1.0000000000000000e+00 5.6875826178322226e+00 1.2459287903883522e+01 8.7445727294510487e+00 
202 1 2 1.1605682584842913e+00 1.3975742159435066e+02 1.0000000000000000e+00 4.1954620565664262e+00 1.5398830308019546e+01 8.8977535466039264e+00 
167 1 2 1.1605682584842913e+00 3.1380801151332489e+03 1.0000000000000000e+00 5.2224383424868848e-01 1.6886493633200985e+01 9.5918726477525809e+00 
311 1 2 1.1605682584842913e+00 1.1979431072479128e+03 1.0000000000000000e+00 4.0694458614539653e-01 1.9327177924781235e+01 9.6439956878535753e+00 
14 1 2 1.1605682584842913e+00 4.0437734190681283e+02 1.0000000000000000e+00 3.2298552609056630e+00 1.4155464539615682e+01 1.0493463133977832e+01 
357 1 2 1.1605682584842913e+00 1.2388953040294155e+03 1.0000000000000000e+00 4.5155060078531700e-01 1.4552500406472133e+01 1.0915682753890877e+01 
4 1 2 1.1605682584842913e+00 1.0737640068463957e+03 1.0000000000000000e+00 5.5828887931357611e+00 1.9268429882046917e+01 1.0893445785048096e+01 
341 1 2 1.1605682584842913e+00 1.7426958268060630e+03 1.0000000000000000e+00 2.2356531273071428e-01 1.1363604528613912e+01 1.2021579098713504e+01 
319 1 2 1.1605682584842913e+00 -3.3576178777151313e+02 1.0000000000000000e+00 5.1684965336593205e+00 1.0162159408752229e+01 1.2826378132987614e+01 
13 1 2 1.1605682584842913e+00 1.1701985583955643e+03 1.0000000000000000e+00 6.3668288099309480e+00 1.1738128021966480e+01 1.1572999056179317e+01 
40 1 2 1.1605682584842913e+00 1.1173252388569204e+03 1.0000000000000000e+00 1.1012337401317979e-01 1.3562161390334495e+01 1.2824730452130799e+01 
272 1 2 1.1605682584842913e+00 1.0550716345976125e+03 1.0000000000000000e+00 4.7891572494145356e+00 1.4595172397270305e+01 1.1826591991939441e+01 
366 1 2 1.1605682584842913e+00 1.7333589064564376e+03 1.0000000000000000e+00 5.6455047513857970e+00 1.6693723629451213e+01 1.2241181452032363e+01 
84 1 2 1.1605682584842913e+00 1.3762829399630359e+03 1.0000000000000000e+00 4.0121891942397454e+00 1.8174971676917050e+01 1.2087134339102585e+01 
217 1 2 1.1605682584842913e+00 1.5408224655283989e+03 1.0000000000000000e+00 1.2139016720805687e+00 1.0092069795503699e+01 1.4023311949141375e+01 
369 1 2 1.1605682595180280e+00 1.2517694363693613e+03 1.0000000000000000e+00 3.0224100615773279e+00 1.4298095442727950e+01 1.3298374579720797e+01 
103 1 2 1.1605682584842913e+00 1.0898798543210160e+03 1.0000000000000000e+00 1.1349697020973231e+00 1.7905229907838425e+01 1.3028322670544558e+01 
199 1 2 1.1605682584842913e+00 6.1520079618542900e+02 1.0000000000000000e+00 5.2578586816192123e+00 1.0726484438167578e+01 1.4786847119173686e+01 
224 1 2 1.1605682595180280e+00 -7.7344884196530666e+02 1.0000000000000000e+00 3.0928212968496354e+00 1.2569603644636985e+01 1.4293190502272465e+01 
25 1 2 1.1605682584842913e+00 1.1781378832137257e+03 1.0000000000000000e+00 1.0664968107399204e+00 1.5747526313333786e+01 1.4805991201509038e+01 
383 1 2 1.1605682584842913e+00 1.4046283155345145e+03 1.0000000000000000e+00 4.6060576063030583e+00 1.5915852719134891e+01 1.5620463329524673e+01 
93 1 2 1.1605682584842913e+00 1.3881423203356949e+03 1.0000000000000000e+00 6.0629303758055233e+00 1.7970876325842735e+01 1.4365123928036246e+01 
154 1 2 1.1605682656565051e+00 -2.5739056061481815e+03 1.0000000000000000e+00 1.1659986155017807e+00 1.1004285129901389e+01 1.6966983624212311e+01 
261 1 2 1.1605682584842913e+00 -6.6719467905442143e+03 1.0000000000000000e+00 3.1864230499480861e+00 1.1210609095583859e+01 1.6042885191882430e+01 
86 1 2 1.1605682656565051e+00 -5.2056312482243184e+03 1.0000000000000000e+00 1.1685891948897373e+00 1.2589862961673834e+01 1.5763282548448364e+01 
27 1 2 1.1605682584842913e+00 7.9895441826153547e+02 1.0000000000000000e+00 3.3622327018269220e+00 1.4508642877705251e+01 1.6381501488456081e+01 
195 1 2 1.1605682584842913e+00 1.4837324833700895e+03 1.0000000000000000e+00 2.7759711260391851e+00 1.7575748745560198e+01 1.5973446526021807e+01 
155 1 2 1.1605682584842913e+00 -3.0930744768414816e+03 1.0000000000000000e+00 2.9889913566621189e+00 1.2476498319776697e+01 1.7641982674699861e+01 
170 1 2 1.1605682584842913e+00 1.2594550862696365e+03 1.0000000000000000e+00 7.4020883704205298e-01 1.4183016301563356e+01 1.7958545426754220e+01 
338 1 2 1.1605682584842913e+00 6.4954522583319272e+02 1.0000000000000000e+00 6.6628644607143306e+00 1.4309941012976994e+01 1.8366126852634537e+01 
57 1 2 1.1605682584842913e+00 1.2007854010642691e+03 1.0000000000000000e+00 1.1848457927515290e+00 1.7120692961184041e+01 1.7734259730007725e+01 
22 1 2 1.1605682584842913e+00 4.8527224999995303e+02 1.0000000000000000e+00 3.1869555642462735e+00 1.6577775353891269e+01 1.7972046923998750e+01 
15 1 2 1.1605682584842913e+00 1.3298032507612188e+03 1.0000000000000000e+00 5.3020290698977055e+00 1.7863165595866665e+01 1.8024684312449942e+01 
95 1 2 1.1605682584842913e+00 -1.2184261066436738e+04 1.0000000000000000e+00 2.6396747244774112e+00 1.0487763859357088e+01 1.9543893450126003e+01 
138 1 2 1.1605682584842913e+00 7.6590038671429761e+02 1.0000000000000000e+00 5.6774877477083074e-01 1.1660810271665161e+01 1.9113381018849715e+01 
102 1 2 1.1605696964787240e+00 1.1586287062805318e+03 1.0000000000000000e+00 6.0711928459407583e+00 1.6632669426475772e+01 1.9577425752488534e+01 
362 1 2 1.1605682584842913e+00 1.8442690090631349e+03 1.0000000000000000e+00 1.5003109435405571e+00 1.8912233811251031e+01 1.9654947463596859e+01 
20 1 2 1.1605682584842913e+00 6.5852217831598409e+02 1.0000000000000000e+00 5.1868375632489050e+00 1.9599633368724479e+01 1.9087787737095404e+01 
184 1 2 1.1605682584842913e+00 1.2548947439780763e+03 1.0000000000000000e+00 1.0098337630752766e+01 2.7162209944704565e+00 1.1330018824923511e+00 
97 1 2 1.1605682584842913e+00 1.2687359119137814e+03 1.0000000000000000e+00 8.3097570719517719e+00 5.0020651614765814e+00 1.6292137878019183e-01 
9 1 2 1.1605682584842913e+00 5.9600128959850713e+02 1.0000000000000000e+00 1.0624895858926292e+01 8.1642501213740193e+00 1.2754516973781149e+00 
7 1 2 1.1605682584842913e+00 1.3644324893430019e+02 1.0000000000000000e+00 1.2642279988830092e+01 7.7597208547646481e+00 7.6917208419536676e-01 
315 1 2 1.1605682584842913e+00 1.5906323462902501e+03 1.0000000000000000e+00 7.7666224986616532e+00 9.8234206664644874e-01 1.4450461787033106e+00 
222 1 2 1.1605682584842913e+00 1.8929067928193363e+03 1.0000000000000000e+00 1.1958568994248035e+01 2.8457027615023632e-02 2.5861409437027714e+00 
153 1 2 1.1605682584842913e+00 2.2574560651531183e+03 1.0000000000000000e+00 7.2265290011185703e+00 2.7136127977845703e+00 2.7731555498731306e+00 
157 1 2 1.1605682584842913e+00 1.9278005380297050e+03 1.0000000000000000e+00 1.2045499673471383e+01 3.9820917315926421e+00 2.6249605327623815e+00 
35 1 2 1.1605682584842913e+00 5.4182405923106558e+02 1.0000000000000000e+00 7.1539240393026287e+00 6.6138423464386458e+00 2.4312491638044187e+00 
214 1 2 1.1605682584842913e+00 1.5583309799779827e+03 1.0000000000000000e+00 8.7999163277052652e+00 9.1581911766964321e+00 2.3572840601008362e+00 
344 1 2 1.1605682584842913e+00 3.4490115631274136e+02 1.0000000000000000e+00 1.2005703633767451e+01 9.1246387468723640e+00 2.5328522880383373e+00 
78 1 2 1.1605682584842913e+00 1.1698026026705234e+03 1.0000000000000000e+00 7.1121131453776920e+00 2.6207704326061904e-01 4.0447573928739944e+00 
248 1 2 1.1605682584842913e+00 1.7780045914987350e+03 1.0000000000000000e+00 1.3276165832303606e+01 6.7793717563091038e-01 4.0160414651264515e+00 
322 1 2 1.1605682584842913e+00 1.0563624882680674e+03 1.0000000000000000e+00 1.0508929922730269e+01 6.1250831172644844e+00 3.3140547928630792e+00 
115 1 2 1.1605682584842913e+00 1.1634225550056162e+03 1.0000000000000000e+00 1.3220382310412518e+01 7.4247826992264745e+00 3.3254118875495999e+00 
172 1 2 1.1605682584842913e+00 7.9626480158129448e+02 1.0000000000000000e+00 1.1491605770290825e+01 3.7694540358547952e+00 5.1481018486593140e+00 
378 1 2 1.1605682584842913e+00 1.5067559214200719e+03 1.0000000000000000e+00 8.1120363769963255e+00 5.2699637651220783e+00 4.9100396867429899e+00 
381 1 2 1.1605682584842913e+00 1.4815144105750724e+03 1.0000000000000000e+00 1.1604660667628325e+01 5.7826956304286403e+00 5.4180440004054136e+00 
337 1 2 1.1605682584842913e+00 1.5978200884137077e+03 1.0000000000000000e+00 9.3561112075813213e+00 8.0834005127516342e+00 4.5756547397465992e+00 
314 1 2 1.1605682584842913e+00 1.6510410829532807e+03 1.0000000000000000e+00 1.1582241157404008e+01 9.7547548548083167e+00 4.5453317849215722e+00 
66 1 2 1.1605682584842913e+00 1.1269407818389377e+03 1.0000000000000000e+00 9.6650386470087124e+00 2.2520741739838726e+00 6.0002215771700351e+00 
207 1 2 1.1605682584842913e+00 1.9767279254599856e+02 1.0000000000000000e+00 1.2683538595611736e+01 2.7792012712540641e+00 6.7273621887567154e+00 
48 1 2 1.1605682584842913e+00 1.5711227068270846e+03 1.0000000000000000e+00 1.2669263187946616e+01 5.7995168479609118e+00 7.1133575708217176e+00 
128 1 2 1.1605682584842913e+00 7.9981996246051381e+02 1.0000000000000000e+00 9.4693151256097643e+00 7.8767929071481184e+00 6.5658057590176613e+00 
94 1 2 1.1605682584842913e+00 9.7684268445649559e+02 1.0000000000000000e+00 8.0603219066854273e+00 9.1450856965152827e-01 7.7354927214158238e+00 
67 1 2 1.1605682584842913e+00 9.7366720690818011e+02 1.0000000000000000e+00 1.1468081049304477e+01 4.1868932692925664e+00 8.3544079327490142e+00 
348 1 2 1.1605682584842913e+00 4.7692074214413947e+02 1.0000000000000000e+00 1.1479951067632420e+01 7.6272919964763943e+00 8.1080609429220569e+00 
87 1 2 1.1605682584842913e+00 1.1581238996912225e+03 1.0000000000000000e+00 7.2771409649008634e+00 8.6151033833484032e+00 7.6371852105658409e+00 
370 1 2 1.1605682766750678e+00 1.2768490683532825e+03 1.0000000000000000e+00 9.8742311413415234e+00 1.8555309063272671e+00 9.6774030303915506e+00 
139 1 2 1.1605682584842913e+00 8.3860672752981077e+02 1.0000000000000000e+00 8.8853794999982103e+00 5.5288156960315256e+00 9.0748180457122540e+00 
253 1 2 1.1605682584842913e+00 -1.9457116224954384e+03 1.0000000000000000e+00 7.0069782370246712e+00 7.8335488075974862e+00 9.6316287375521252e+00 
332 1 2 1.1605682584842913e+00 1.2434189453587737e+03 1.0000000000000000e+00 7.9991937925336236e+00 1.1012634483690602e+00 1.1270346584342169e+01 
159 1 2 1.1605682766750678e+00 1.5594390153198512e+02 1.0000000000000000e+00 1.0544423755515814e+01 3.1598868220377279e+00 1.1020031249741722e+01 
92 1 2 1.1605682584842913e+00 1.6338916623292935e+03 1.0000000000000000e+00 1.1897711256173611e+01 5.0991052361892759e+00 1.0603034141477906e+01 
200 1 2 1.1605682584842913e+00 1.5196216936130495e+03 1.0000000000000000e+00 7.9945362717441650e+00 6.3222730673155532e+00 1.1381371449928142e+01 
326 1 2 1.1605682584842913e+00 1.3088471650525398e+03 1.0000000000000000e+00 6.8864255774608329e+00 3.0259671787114102e+00 1.1909397516594209e+01 
243 1 2 1.1605682584842913e+00 1.1084907829561562e+03 1.0000000000000000e+00 1.3308150622732136e+01 3.5806610509378545e+00 1.1763700308193826e+01 
318 1 2 1.1605682584842913e+00 -1.6166383862556080e+02 1.0000000000000000e+00 1.0193053698533555e+01 4.8145102404197599e+00 1.2756263027662882e+01 
121 1 2 1.1605682584842913e+00 6.7334535315158746e+02 1.0000000000000000e+00 8.3564061544217143e+00 9.5656688446355496e+00 1.2071990871205243e+01 
31 1 2 1.1605682584842913e+00 2.0213171026585637e+03 1.0000000000000000e+00 1.0899274581137334e+01 9.1487770546174954e+00 1.1938538483913122e+01 
384 1 2 1.1605682584842913e+00 1.2513170586662209e+03 1.0000000000000000e+00 1.0531219151991911e+01 9.0677104811471598e-01 1.3534008793808859e+01 
291 1 2 1.1605682584842913e+00 -1.1548726310740267e+03 1.0000000000000000e+00 8.6538558764576177e+00 2.9023772407656638e+00 1.4173476322901974e+01 
44 1 2 1.1605682584842913e+00 1.4405000307047058e+03 1.0000000000000000e+00 7.3859057002011577e+00 4.4550939069123210e+00 1.4244532767484129e+01 
269 1 2 1.1605682584842913e+00 1.2225275987112814e+03 1.0000000000000000e+00 9.7426442681881884e+00 6.8857397158606677e+00 1.3996010753922892e+01 
263 1 2 1.1605682584842913e+00 1.4720213094045275e+03 1.0000000000000000e+00 7.8353896763550654e+00 8.0158545636753047e+00 1.3519506833854484e+01 
305 1 2 1.1605682584842913e+00 -1.1397853478856203e+04 1.0000000000000000e+00 1.1918648814849005e+01 2.4258251701662830e+00 1.4678212072883850e+01 
206 1 2 1.1605682584842913e+00 7.9177427354685142e+02 1.0000000000000000e+00 1.2768066443655787e+01 5.2880854358459191e+00 1.4435794644388862e+01 
51 1 2 1.1605682584842913e+00 1.3655170719680254e+03 1.0000000000000000e+00 8.2885035111724097e+00 4.4805887027836461e-01 1.6193116889178896e+01 
209 1 2 1.1605682584842913e+00 8.6553944933707453e+02 1.0000000000000000e+00 1.1055382194452070e+01 8.0234248393684604e-01 1.5810474633868859e+01 
114 1 2 1.1605682584842913e+00 7.3589082976827945e+02 1.0000000000000000e+00 1.1050272328086523e+01 4.1640796960676116e+00 1.6835953480047312e+01 
190 1 2 1.1605682584842913e+00 1.0942060930975317e+03 1.0000000000000000e+00 8.8318350802657761e+00 4.3222643420957949e+00 1.6041208082789527e+01 
218 1 2 1.1605682584842913e+00 1.3818534820609225e+03 1.0000000000000000e+00 7.7478038934988813e+00 6.6851946071048207e+00 1.6079114052376617e+01 
208 1 2 1.1605682584842913e+00 1.2052999207665507e+03 1.0000000000000000e+00 9.9183825167335460e+00 6.9451812069596732e+00 1.6428141874808638e+01 
178 1 2 1.1605682780678868e+00 1.1704991296869814e+03 1.0000000000000000e+00 1.0542344985763261e+01 9.8618524626434017e+00 1.6380679753057517e+01 
377 1 2 1.1605682584842913e+00 1.4789526720155754e+03 1.0000000000000000e+00 7.9811003635837672e+00 2.6218261163447112e+00 1.7418321003044376e+01 
273 1 2 1.1605682584842913e+00 1.3379622142658959e+03 1.0000000000000000e+00 1.1676934209937727e+01 1.6292872242994887e+00 1.7562233141649770e+01 
260 1 2 1.1605682584842913e+00 -6.8289730976277606e+03 1.0000000000000000e+00 7.0276632587585386e+00 8.5556252899276277e+00 1.7864852039657091e+01 
239 1 2 1.1605682584842913e+00 -6.2223813919367061e+01 1.0000000000000000e+00 1.3015733669519550e+01 8.8410212211083756e+00 1.7670209298920636e+01 
198 1 2 1.1605682584842913e+00 9.6117520315838942e+02 1.0000000000000000e+00 9.8798616695631889e+00 1.3927346678194290e+00 1.8980948615110556e+01 
96 1 2 1.1605682584842913e+00 -1.2524620160456834e+04 1.0000000000000000e+00 1.2875347716668681e+01 4.1284247536105545e-01 1.8831652027903559e+01 
316 1 2 1.1605682584842913e+00 4.0737613273165920e+01 1.0000000000000000e+00 1.2827344920582499e+01 2.3085537522105186e+00 1.9874030681282107e+01 
1 1 2 1.1605682584842913e+00 1.0019526844732911e+03 1.0000000000000000e+00 9.8727300500888813e+00 4.1947243755913792e+00 1.8999892294960375e+01 
276 1 2 1.1605682584842913e+00 1.0492777819700023e+03 1.0000000000000000e+00 9.9137883136707998e+00 7.5666041604611634e+00 1.9405932677860740e+01 
72 1 2 1.1605682584842913e+00 1.2039483525806559e+03 1.0000000000000000e+00 1.2625487270080443e+01 1.0932908461248406e+01 1.1357843018094078e+00 
171 1 2 1.1605682584842913e+00 1.3662209614320418e+03 1.0000000000000000e+00 9.9231994352196775e+00 1.5716997341667707e+01 3.5991545940573699e-01 
6 1 2 1.1605682584842913e+00 -5.1896446674423532e+03 1.0000000000000000e+00 7.8262183242661854e+00 1.8737943844642977e+01 3.1594984200561210e-01 
132 1 2 1.1605682584842913e+00 1.5432161362072184e+03 1.0000000000000000e+00 9.7670966387357758e+00 1.9187972487606583e+01 1.2640498985887629e+00 
358 1 2 1.1605682584842913e+00 1.1977753492665893e+03 1.0000000000000000e+00 8.8449272184672729e+00 1.3615473615463662e+01 2.2441402961533017e+00 