LAMMPS data file via write_data, version 30 Jul 2016, timestep = 50400000

384 atoms
2 atom types

0.0000000000000000e+00 2.0000000000000000e+01 xlo xhi
0.0000000000000000e+00 2.0000000000000000e+01 ylo yhi
0.0000000000000000e+00 2.0000000000000000e+01 zlo zhi

Masses

1 3.896
2 4.31

Atoms # meso-molecular

195 1 2 1.1605682584842913e+00 1.4837358351270254e+03 1.0000000000000000e+00 8.0176742658260214e-01 1.3992150181499181e+00 1.0916185233540197e+00 
334 1 2 1.1605682584842913e+00 4.5989174243815489e+02 1.0000000000000000e+00 5.1395605774107427e+00 1.0736566329372024e+00 9.7485087292474099e-02 
362 1 2 1.1605682584842913e+00 1.8442714787903715e+03 1.0000000000000000e+00 1.7549142707975425e+00 4.0762739209871599e+00 6.0437451913202633e-01 
307 1 2 1.1605682584842913e+00 1.8307858352860794e+03 1.0000000000000000e+00 4.0489274319328699e+00 3.1857503307833017e+00 8.8027834526420745e-01 
280 1 2 1.1605682584842913e+00 1.1189092430334813e+03 1.0000000000000000e+00 2.9159120265089546e+00 7.1584454707028007e+00 1.1803218958144857e+00 
337 1 2 1.1605682584842913e+00 1.5978212915432582e+03 1.0000000000000000e+00 5.1896382732023323e+00 8.5474878753986374e+00 1.2489164751428854e+00 
5 1 2 1.1605682584842913e+00 9.4386717240515395e+02 1.0000000000000000e+00 3.7780410758054748e+00 5.6788632638126413e-01 2.3247701641100136e+00 
69 1 2 1.1605682584842913e+00 1.5142191516087059e+03 1.0000000000000000e+00 5.7946298903982454e+00 3.7747572574600117e+00 2.7267519644011364e+00 
68 1 2 1.1605682584842913e+00 1.0220061669151353e+03 1.0000000000000000e+00 5.0238612836933383e+00 5.5892406597918685e+00 1.7565993552311743e+00 
265 1 2 1.1605682584842913e+00 2.4221542492227138e+02 1.0000000000000000e+00 6.4490588110518416e+00 6.9156988965600936e+00 2.3259004763889957e+00 
264 1 2 1.1605682584842913e+00 1.1854648428193900e+03 1.0000000000000000e+00 9.6150097398486123e-01 8.0596145875065215e+00 1.8028582376433353e+00 
189 1 2 1.1605682584842913e+00 9.5725853167145988e+02 1.0000000000000000e+00 1.8358129349679280e+00 4.7504917663769080e+00 3.0187504281252471e+00 
256 1 2 1.1605682584842913e+00 1.9225987599150335e+03 1.0000000000000000e+00 5.7065052042838680e+00 7.7068677702768298e+00 4.0098641598262788e+00 
365 1 2 1.1605682584842913e+00 7.9216783794098797e+02 1.0000000000000000e+00 1.8807407280898174e+00 9.3123339169588633e+00 3.9329109175605192e+00 
213 1 2 1.1605682584842913e+00 9.2461269707031306e+02 1.0000000000000000e+00 4.9832942895586099e+00 9.9362156267079715e+00 2.8723785249661651e+00 
134 1 2 1.1605682584842913e+00 1.6162825463410195e+03 1.0000000000000000e+00 2.5270389353241005e+00 5.6143766094169822e-01 5.5210478432968157e+00 
94 1 2 1.1605682584842913e+00 9.7684377967524506e+02 1.0000000000000000e+00 4.6786780363368043e+00 7.1110603220493229e-01 4.6227361424311155e+00 
166 1 2 1.1605682584842913e+00 5.5700008787462752e+02 1.0000000000000000e+00 9.8795995604586029e-01 6.2236105978108931e+00 4.2943441612523410e+00 
380 1 2 1.1605682584842913e+00 1.1505466057116655e+03 1.0000000000000000e+00 5.1335101028036396e+00 9.2985913587964593e+00 5.6757760056049387e+00 
297 1 2 1.1605682584842913e+00 9.3087240579376862e+02 1.0000000000000000e+00 2.7133817148360717e-01 1.1301906487717661e+00 6.6329825283185855e+00 
156 1 2 1.1605682584842913e+00 1.5427156419799207e+03 1.0000000000000000e+00 3.7776012448194241e+00 2.8379735208955834e+00 5.9246325268834754e+00 
275 1 2 1.1605682584842913e+00 1.4966892820428566e+03 1.0000000000000000e+00 5.3799774514601617e-01 3.5160393380614958e+00 5.9725057412566862e+00 
35 1 2 1.1605682584842913e+00 5.4182471181210894e+02 1.0000000000000000e+00 4.0225942566250215e+00 5.4533291745882364e+00 6.2179049362846071e+00 
311 1 2 1.1605691158023490e+00 1.1980352883564435e+03 1.0000000000000000e+00 4.1470080270005480e+00 1.2626266692066133e+00 8.3287461600426607e+00 
32 1 2 1.1605682584842913e+00 9.2704716079341779e+02 1.0000000000000000e+00 5.8619511275078140e-01 5.2254537539965948e+00 8.3820674605616521e+00 
122 1 2 1.1605682584842913e+00 3.0519700097416029e+02 1.0000000000000000e+00 1.5933609934481137e+00 8.4097332429997191e+00 7.2392972845113350e+00 
281 1 2 1.1605682584842913e+00 1.3586922636536151e+03 1.0000000000000000e+00 3.4557541592212955e+00 7.3982346067691065e+00 7.6902826657588239e+00 
33 1 2 1.1605682592072917e+00 1.3713951118869670e+03 1.0000000000000000e+00 1.2496126831078047e+00 2.5544593090966399e+00 8.7682983202365392e+00 
225 1 2 1.1605682584842913e+00 1.1318570258490417e+03 1.0000000000000000e+00 4.9598710400237094e+00 3.4661760139201463e+00 8.6913956741081577e+00 
253 1 2 1.1605693369869665e+00 -1.9455988105474626e+03 1.0000000000000000e+00 6.6650734036379848e+00 5.4611233143293276e+00 8.7588455789996225e+00 
87 1 2 1.1605693369869665e+00 1.1582368238338845e+03 1.0000000000000000e+00 5.4997724046190353e+00 6.8363166865730713e+00 9.5495527154645963e+00 
206 1 2 1.1605682584842913e+00 7.9177776727644823e+02 1.0000000000000000e+00 3.2270647160238890e+00 8.2451766608451340e+00 9.9088407335936655e+00 
197 1 2 1.1605682584842913e+00 2.7828869477415319e+03 1.0000000000000000e+00 6.0822382141896556e+00 8.3110768770136012e-01 1.0077970818820546e+01 
205 1 2 1.1605682592072917e+00 1.0400279148144484e+03 1.0000000000000000e+00 2.7645081209061817e+00 2.3885575598402582e+00 1.0054525097365298e+01 
259 1 2 1.1605682584842913e+00 1.0325846783186867e+03 1.0000000000000000e+00 4.2137608684544086e+00 4.2506820692253342e+00 1.1190527139966944e+01 
371 1 2 1.1605682584842913e+00 1.2012983283172366e+03 1.0000000000000000e+00 6.2719043294997379e-01 5.4129140592005109e+00 1.0398012076709801e+01 
163 1 2 1.1605682584842913e+00 -2.9812280882400546e+03 1.0000000000000000e+00 2.5219457532149581e+00 4.4931171116955753e+00 1.0070979401764070e+01 
340 1 2 1.1605682584842913e+00 1.0550851853873487e+03 1.0000000000000000e+00 6.3592247436540850e-01 7.6048710118325937e+00 1.1026659326925886e+01 
221 1 2 1.1605682584842913e+00 1.2415715757933549e+03 1.0000000000000000e+00 3.0552970141499953e+00 1.9337876334632658e+00 1.2392241928575713e+01 
332 1 2 1.1605682584842913e+00 1.2434211565716168e+03 1.0000000000000000e+00 5.4439687782250132e+00 2.3311085394549784e+00 1.2419885375911957e+01 
179 1 2 1.1605682584842913e+00 1.0105352554264791e+03 1.0000000000000000e+00 1.9895862234553479e+00 3.6277237717936375e+00 1.2083785465928566e+01 
199 1 2 1.1605682584842913e+00 6.1520334369274633e+02 1.0000000000000000e+00 2.4044983605612233e+00 8.2008905130327552e+00 1.2010833017024400e+01 
326 1 2 1.1605682584842913e+00 1.3088485436304877e+03 1.0000000000000000e+00 4.3566932411673935e+00 7.1822489145257240e+00 1.2241668554074710e+01 
347 1 2 1.1605682584842913e+00 1.2507968561250523e+03 1.0000000000000000e+00 4.2464648309249275e+00 1.9893115566292452e+00 1.4034605422343027e+01 
160 1 2 1.1605682584842913e+00 -8.8912996168455938e+03 1.0000000000000000e+00 2.0350148355710602e-02 3.2501013616924173e+00 1.3922171253891273e+01 
384 1 2 1.1605682584842913e+00 1.2513184898739460e+03 1.0000000000000000e+00 2.8032243505311332e+00 5.2966630923410003e+00 1.2980940863446083e+01 
139 1 2 1.1605682584842913e+00 8.3860845789855171e+02 1.0000000000000000e+00 6.2598341369273172e+00 7.9615419857056366e+00 1.3470220433857330e+01 
84 1 2 1.1605682584842913e+00 1.3762838991138924e+03 1.0000000000000000e+00 2.5645684233860866e+00 6.6092705611443681e-01 1.4590509215803207e+01 
267 1 2 1.1605682584842913e+00 1.1372439879114713e+03 1.0000000000000000e+00 2.3731095736534358e+00 3.0108448607445903e+00 1.4545646251907115e+01 
44 1 2 1.1605714304703554e+00 1.4407459396771908e+03 1.0000000000000000e+00 1.6590252713242992e+00 6.0787778612777528e+00 1.5655722220674848e+01 
99 1 2 1.1605682584842913e+00 -2.4495543272830828e+03 1.0000000000000000e+00 4.0699630209340221e+00 6.5883824222962151e+00 1.4351161166018017e+01 
56 1 2 1.1605714304703554e+00 1.6492768801564819e+03 1.0000000000000000e+00 2.5596257026058239e-01 7.1658492054524539e+00 1.4826863149049144e+01 
161 1 2 1.1605682584842913e+00 1.8666053592109579e+03 1.0000000000000000e+00 1.0878852121532994e+00 9.4140357230859344e+00 1.5472088898316951e+01 
20 1 2 1.1605682584696215e+00 6.5852321375077702e+02 1.0000000000000000e+00 2.7985992061242722e+00 4.3556436911482166e-01 1.6716543990510669e+01 
119 1 2 1.1605682584842913e+00 1.0034611576099850e+03 1.0000000000000000e+00 3.9431181259494590e+00 2.1351398287507952e+00 1.6310055320807592e+01 
198 1 2 1.1605682584842913e+00 9.6117702289152157e+02 1.0000000000000000e+00 6.0005712125673236e+00 1.6708338824285847e+00 1.7002351165744688e+01 
91 1 2 1.1605682584842913e+00 1.8161263573544156e+03 1.0000000000000000e+00 7.4110246756906961e-01 4.1193756030522373e+00 1.6227362617706017e+01 
363 1 2 1.1605682584842913e+00 -1.0442055467657664e+01 1.0000000000000000e+00 4.6748009391850767e+00 4.3915828741984653e+00 1.5733350561247040e+01 
377 1 2 1.1605682584842913e+00 1.4789533823538827e+03 1.0000000000000000e+00 6.3948198844849919e+00 5.7982424510361765e+00 1.6590866944075767e+01 
191 1 2 1.1605682641842037e+00 1.4860260447735907e+03 1.0000000000000000e+00 2.8158579535803567e+00 9.9503081255308476e+00 1.6495175207434897e+01 
31 1 2 1.1605682584842913e+00 2.0213183668385409e+03 1.0000000000000000e+00 6.3146237495302602e+00 9.5747632892278958e+00 1.5757841377949063e+01 
97 1 2 1.1605682584842913e+00 1.2687365031143263e+03 1.0000000000000000e+00 5.6642927391109943e+00 3.8221302813105886e+00 1.7410094549647649e+01 
382 1 2 1.1605682584842913e+00 1.2485867234963730e+03 1.0000000000000000e+00 8.7580242621189441e-01 6.3413812930163544e+00 1.7734305680961846e+01 
245 1 2 1.1605682641842037e+00 -3.1590007137613532e+02 1.0000000000000000e+00 2.8484726653523027e+00 8.4251336280625271e+00 1.7777141437384181e+01 
117 1 2 1.1605682584842913e+00 -3.7567749465315836e+04 1.0000000000000000e+00 4.6650467862295448e+00 5.2520325104907286e+00 1.9313308615318846e+01 
317 1 2 1.1605682584842913e+00 8.1149800547542804e+02 1.0000000000000000e+00 6.6471112673159691e+00 5.3564684313422175e+00 1.9961574229727951e+01 
295 1 2 1.1605682584842913e+00 1.4310853396914958e+03 1.0000000000000000e+00 2.6286412728943240e+00 9.4127413228972205e+00 1.9857876118662467e+01 
185 1 2 1.1605682584842913e+00 1.4951341491207245e+03 1.0000000000000000e+00 2.4039783063084141e+00 1.1405985401969868e+01 5.5602934531579518e-01 
109 1 2 1.1605682584842913e+00 4.0817964256064658e+02 1.0000000000000000e+00 5.1779789928741691e+00 1.0606322873592973e+01 6.6635257553291127e-01 
23 1 2 1.1605682584842913e+00 2.1982904393471663e+03 1.0000000000000000e+00 1.3446337821340129e+00 1.6456250426265981e+01 1.1972282081984482e+00 
358 1 2 1.1605682584842913e+00 1.1977763484661245e+03 1.0000000000000000e+00 6.2776869167535212e+00 1.8144569592422474e+01 1.0797648204060482e+00 
88 1 2 1.1605682584842913e+00 -1.1188135037177849e+03 1.0000000000000000e+00 3.3077068668035605e+00 1.9500879420514021e+01 6.5944710021018893e-01 
336 1 2 1.1605682584842913e+00 -1.5667694565877969e+02 1.0000000000000000e+00 5.7123648246802912e+00 1.3863072551886432e+01 2.6167572967219708e+00 
277 1 2 1.1605682584842913e+00 1.1143393305650557e+03 1.0000000000000000e+00 1.9174166121855314e+00 1.8206370131248114e+01 2.0058190071503996e+00 
59 1 2 1.1605682584842913e+00 1.7783094997615776e+03 1.0000000000000000e+00 2.7163934374404972e+00 1.1598577241020266e+01 3.0071373220437425e+00 
271 1 2 1.1605682584842913e+00 9.4707600986869011e+02 1.0000000000000000e+00 4.6431566288950815e-01 1.5011248746377774e+01 3.1876521361609433e+00 
146 1 2 1.1605682584842913e+00 1.5582217224888032e+03 1.0000000000000000e+00 3.2384227874249039e+00 1.5543916944416424e+01 2.8985503262049379e+00 
343 1 2 1.1605682584842913e+00 -6.6388693850419486e+02 1.0000000000000000e+00 3.7666852668363431e+00 1.8168428113756963e+01 4.0164254479166956e+00 
53 1 2 1.1605682584842913e+00 1.7354056600779154e+03 1.0000000000000000e+00 1.0014789069694388e+00 1.9326927208713037e+01 3.6349298520951319e+00 
145 1 2 1.1605682584842913e+00 1.0557399228762478e+00 1.0000000000000000e+00 2.6653290485140859e+00 1.3823012979065908e+01 4.3231572288400208e+00 
21 1 2 1.1605682584842913e+00 1.4714990233372869e+03 1.0000000000000000e+00 1.8184576253815633e-02 1.8415701972653775e+01 5.5654918757808849e+00 
351 1 2 1.1605682584842913e+00 -2.6506199461955530e+03 1.0000000000000000e+00 7.2369321426560884e-01 1.0064780352672287e+01 6.0418475863447343e+00 
278 1 2 1.1605682584842913e+00 -5.6665230801567282e+02 1.0000000000000000e+00 5.8413520639933658e+00 1.2443678108566260e+01 5.7694137757314801e+00 
300 1 2 1.1605682584842913e+00 -8.5839363287085939e+02 1.0000000000000000e+00 9.6450880055785893e-01 1.3717008039808029e+01 5.8038414793217292e+00 
180 1 2 1.1605682584842913e+00 1.4724195969110592e+03 1.0000000000000000e+00 3.5750692998463003e+00 1.3454638125045289e+01 6.5621134922023145e+00 
64 1 2 1.1605682584842913e+00 1.1118722733486388e+03 1.0000000000000000e+00 3.4995139005164471e+00 1.6799920468804359e+01 5.7420939492985825e+00 
361 1 2 1.1605682584842913e+00 8.7573046924079836e+02 1.0000000000000000e+00 6.1641970849586301e+00 1.7050768031322573e+01 6.3161408986625140e+00 
325 1 2 1.1605682584842913e+00 1.3976675949107241e+03 1.0000000000000000e+00 1.5702763879921453e+00 1.0269156063828373e+01 8.5659280030444425e+00 
61 1 2 1.1605683457611669e+00 1.4709831445039522e+03 1.0000000000000000e+00 5.1750967241414125e+00 1.1753679543014488e+01 7.8646012652190240e+00 
289 1 2 1.1605682584842913e+00 8.5794652221063438e+02 1.0000000000000000e+00 4.4780283299115903e-01 1.4669790833611525e+01 7.6162319906694407e+00 
188 1 2 1.1605682584842913e+00 1.4383091279681497e+02 1.0000000000000000e+00 4.0388484165114029e+00 1.4542478461425901e+01 8.4712413254025378e+00 
60 1 2 1.1605682584842913e+00 6.7158204203273669e+02 1.0000000000000000e+00 3.9181970652105202e+00 1.7245609958276077e+01 7.8895409150734794e+00 
313 1 2 1.1605691158023490e+00 1.3164317895797610e+03 1.0000000000000000e+00 3.6063040834241527e+00 1.9594292977352836e+01 7.4301866754937445e+00 
111 1 2 1.1605683457611669e+00 2.0364305521115889e+03 1.0000000000000000e+00 3.9981581483466924e+00 1.1689698257209951e+01 9.4594147770020811e+00 
212 1 2 1.1605682584842913e+00 -5.3502118028509685e+03 1.0000000000000000e+00 1.9594675868857818e+00 1.4139024292382350e+01 9.8104156029849037e+00 
227 1 2 1.1605682584842913e+00 -6.7979337611280016e+02 1.0000000000000000e+00 6.5714590540825277e+00 1.4489637180765429e+01 9.6247372769178341e+00 
78 1 2 1.1605682584842913e+00 1.1698062124940820e+03 1.0000000000000000e+00 6.3861297096715672e+00 1.6464571844896479e+01 8.6308957910932929e+00 
298 1 2 1.1605682657191809e+00 1.4711536568923862e+03 1.0000000000000000e+00 2.5899353258648206e+00 1.8378372542110217e+01 9.0084875474304376e+00 
167 1 2 1.1605682657191809e+00 3.1380836608272975e+03 1.0000000000000000e+00 4.3303518238205712e+00 1.7851295121915236e+01 9.8215865715564377e+00 
10 1 2 1.1605682584842913e+00 1.7086048676717246e+03 1.0000000000000000e+00 4.6153433512463499e-01 1.8818029940986346e+01 8.8498749142573416e+00 
272 1 2 1.1605682584842913e+00 1.0550734719331313e+03 1.0000000000000000e+00 1.5696791652986961e+00 1.0250685454076892e+01 1.0875223240623267e+01 
341 1 2 1.1605682584842913e+00 1.7426975990929514e+03 1.0000000000000000e+00 6.3506085521328037e+00 1.0254627526168031e+01 1.0377612359149154e+01 
42 1 2 1.1605682584842913e+00 1.0286374330470117e+03 1.0000000000000000e+00 7.9832576314530579e-01 1.5765361639667606e+01 1.0688579325647094e+01 
379 1 2 1.1605682584842913e+00 1.0166069496679484e+03 1.0000000000000000e+00 3.2462483843287098e+00 1.1670690080642482e+01 1.2829842235977614e+01 
357 1 2 1.1605682584842913e+00 1.2388961338718791e+03 1.0000000000000000e+00 6.7075187277575588e-01 1.4037356441906525e+01 1.1762473575586116e+01 
383 1 2 1.1605682584842913e+00 1.4046301156315171e+03 1.0000000000000000e+00 8.7527488858737756e-01 1.6451353674983988e+01 1.2607818015907936e+01 
301 1 2 1.1605682641344846e+00 1.2973217265726869e+03 1.0000000000000000e+00 5.2773065738262117e+00 1.7791119729405747e+01 1.1705543344761924e+01 
274 1 2 1.1605682641344846e+00 1.4378548336300075e+03 1.0000000000000000e+00 4.6833405699039874e+00 1.9651002529150489e+01 1.2093566288618664e+01 
228 1 2 1.1605682584842913e+00 -6.6880066866470970e+03 1.0000000000000000e+00 4.4170234844876619e+00 1.0076414480924582e+01 1.3459338810215081e+01 
263 1 2 1.1605682584842913e+00 1.4720222172610688e+03 1.0000000000000000e+00 6.6593284291657602e+00 1.1708848686522810e+01 1.3514343678690718e+01 
86 1 2 1.1605682584842913e+00 -5.2056326817462113e+03 1.0000000000000000e+00 1.6774275267591316e+00 1.4239046802513078e+01 1.3661071781320382e+01 
366 1 2 1.1605682584842913e+00 1.7333604149614357e+03 1.0000000000000000e+00 4.7346696881315236e+00 1.3356279148338086e+01 1.3099723654793758e+01 
224 1 2 1.1605682584842913e+00 -7.7344694322368809e+02 1.0000000000000000e+00 4.6868672840060484e+00 1.5595363028732038e+01 1.3335648958809333e+01 
168 1 2 1.1605682584842913e+00 -8.8587122536679162e+03 1.0000000000000000e+00 2.2238922043782261e+00 1.6804100731045573e+01 1.4266587982567755e+01 
25 1 2 1.1605682584842913e+00 1.1781396261127570e+03 1.0000000000000000e+00 3.9361035109982074e+00 1.8560662080620450e+01 1.3813944954588527e+01 
338 1 2 1.1605682584842913e+00 6.4954712290730777e+02 1.0000000000000000e+00 6.0358323108437961e+00 1.8203595407671674e+01 1.3961855215795646e+01 
369 1 2 1.1605682584842913e+00 1.2517704358383623e+03 1.0000000000000000e+00 3.0111103328785171e-01 1.1720988312826469e+01 1.4510397982949121e+01 
217 1 2 1.1605682584842913e+00 1.5408232703533949e+03 1.0000000000000000e+00 3.6094548815115819e+00 1.1482642785381897e+01 1.4936697963272586e+01 
55 1 2 1.1605682584842913e+00 9.2990670907551544e+02 1.0000000000000000e+00 4.5937691430601770e+00 1.3589935081179593e+01 1.5108705792336572e+01 
103 1 2 1.1605682584842913e+00 1.0898806191373315e+03 1.0000000000000000e+00 4.3399190170628312e+00 1.7155160265529545e+01 1.5401754525463202e+01 
268 1 2 1.1605682584842913e+00 1.8273950187731084e+03 1.0000000000000000e+00 1.0823469512725008e+00 1.3538610513747095e+01 1.6660024799382011e+01 
173 1 2 1.1605682584842913e+00 1.1534453225846737e+03 1.0000000000000000e+00 1.9951647379369584e+00 1.6435433082687709e+01 1.6994281913926521e+01 
354 1 2 1.1605682584842913e+00 7.5078050423800210e+02 1.0000000000000000e+00 6.1683933884961890e+00 1.6024809985153428e+01 1.5742039274567812e+01 
255 1 2 1.1605682584842913e+00 1.6798976786751255e+03 1.0000000000000000e+00 6.0691794460786976e+00 1.9340529592358227e+01 1.5755578769919385e+01 
261 1 2 1.1605682584842913e+00 -6.6719445243707542e+03 1.0000000000000000e+00 3.4626884014248831e+00 1.3789650214265826e+01 1.7886995551268168e+01 
155 1 2 1.1605686032486711e+00 -3.0930269911577593e+03 1.0000000000000000e+00 6.6972746881289158e-01 1.6809405151712177e+01 1.8566717374165993e+01 
315 1 2 1.1605682584696215e+00 1.5906347775588592e+03 1.0000000000000000e+00 3.7500549650932293e+00 1.9146486174797413e+01 1.7910597530380638e+01 
9 1 2 1.1605682584842913e+00 5.9600332851782400e+02 1.0000000000000000e+00 6.0373871245564876e+00 1.1084426133313086e+01 1.8727830910299023e+01 
27 1 2 1.1605682584842913e+00 7.9895567125984167e+02 1.0000000000000000e+00 4.3085454207540250e+00 1.2196308292972706e+01 1.9405285964501385e+01 
138 1 2 1.1605686032486711e+00 7.6594672971867487e+02 1.0000000000000000e+00 1.9533606744053220e+00 1.5360889368939389e+01 1.8967343071299712e+01 
132 1 2 1.1605682584842913e+00 1.5432193038665409e+03 1.0000000000000000e+00 5.4152882241933087e+00 1.5202996720518943e+01 1.9529304907348429e+01 
148 1 2 1.1605682584842913e+00 1.3663363727658098e+03 1.0000000000000000e+00 2.0007182692563799e+00 1.8381510353239431e+01 1.9044745788531262e+01 
62 1 2 1.1605682584842913e+00 1.3877762363419984e+03 1.0000000000000000e+00 4.2449077514869780e+00 1.7540117899371410e+01 1.9685571631509951e+01 
207 1 2 1.1605684827178999e+00 1.9770839497213638e+02 1.0000000000000000e+00 9.9883810483334621e+00 6.5824508694625616e-01 1.3387522592092733e+00 
96 1 2 1.1605682584842913e+00 -1.2524618371098044e+04 1.0000000000000000e+00 7.4135219201567466e+00 3.1924586979194389e+00 5.8219072934855565e-01 
157 1 2 1.1605682584842913e+00 1.9278013919138066e+03 1.0000000000000000e+00 1.2899781907877298e+01 3.6056540686298391e+00 2.2561872959012755e-01 
339 1 2 1.1605682584842913e+00 1.8136362757577012e+03 1.0000000000000000e+00 1.2467505725329296e+01 5.4989611849978246e+00 1.2509042737724327e+00 
124 1 2 1.1605682584842913e+00 2.8910637640766731e+02 1.0000000000000000e+00 1.0579602983039447e+01 6.2352817962989784e+00 1.1314540837434626e+00 
230 1 2 1.1605682584842913e+00 1.3589043387782849e+03 1.0000000000000000e+00 7.0311409280897026e+00 7.6073150710142752e+00 4.4181452158132606e-01 
322 1 2 1.1605682584842913e+00 1.0563646022845346e+03 1.0000000000000000e+00 1.3285831974058844e+01 7.8606272530788344e+00 7.3627781243171386e-01 
6 1 2 1.1605684827178999e+00 -5.1896083562359590e+03 1.0000000000000000e+00 1.1751159623671324e+01 1.4217846148822864e+00 1.8140394760644021e+00 
82 1 2 1.1605682584842913e+00 -2.2288407706833677e+04 1.0000000000000000e+00 6.9062055908754809e+00 1.8178534364882022e+00 1.9759089279799684e+00 
66 1 2 1.1605682584842913e+00 1.1269447045568145e+03 1.0000000000000000e+00 8.6631914055822339e+00 4.4378258767000389e+00 1.9695186524507284e+00 
153 1 2 1.1605683222303407e+00 2.2574712388566318e+03 1.0000000000000000e+00 8.6537838339950515e+00 8.0944082217253683e+00 1.6213263097171311e+00 
210 1 2 1.1605682584842913e+00 -9.9564029305349919e+01 1.0000000000000000e+00 1.1195462214138535e+01 8.1581358302011520e+00 2.3728023869091937e+00 
292 1 2 1.1605683222303407e+00 1.1666813197651313e+03 1.0000000000000000e+00 7.1688134529749847e+00 9.3866595234221837e+00 1.8743065643692771e+00 
248 1 2 1.1605682584842913e+00 1.7780066215956340e+03 1.0000000000000000e+00 1.2900154132829341e+01 1.1955588865207005e+00 3.4563838113988430e+00 
381 1 2 1.1605682584842913e+00 1.4815164785323427e+03 1.0000000000000000e+00 8.4603025722438492e+00 2.8738156488999915e+00 3.3366683766048175e+00 
128 1 2 1.1605682584842913e+00 7.9982080196607035e+02 1.0000000000000000e+00 1.1813159964835279e+01 6.2869531373861376e+00 3.6320473980407968e+00 
38 1 2 1.1605682584842913e+00 9.1503969278906038e+02 1.0000000000000000e+00 9.2422183566893619e+00 4.6686531749105811e+00 4.4638625042811997e+00 
378 1 2 1.1605682584842913e+00 1.5067584599539919e+03 1.0000000000000000e+00 9.9722129408694915e+00 7.4153926491172140e+00 4.8819806277490478e+00 
196 1 2 1.1605682588567290e+00 1.2454942031584055e+03 1.0000000000000000e+00 1.2920651450904902e+01 7.1962419185435467e+00 5.5710637466588331e+00 
201 1 2 1.1605682584842913e+00 1.4418214172603630e+03 1.0000000000000000e+00 9.5614461447825878e+00 1.2131542916614362e+00 6.8994441583361201e+00 
46 1 2 1.1605682584842913e+00 1.6039033419613179e+03 1.0000000000000000e+00 7.2652356188081981e+00 3.6261240085828197e+00 6.1111255183735107e+00 
345 1 2 1.1605682584842913e+00 2.1283368037694181e+03 1.0000000000000000e+00 1.0106499271231312e+01 3.3158193777744733e+00 6.6272732237238863e+00 
310 1 2 1.1605682584842913e+00 1.1375292692927364e+03 1.0000000000000000e+00 7.5276159517543091e+00 1.4191235902924022e+00 8.4400507673780432e+00 
4 1 2 1.1605682584842913e+00 1.0737660880228832e+03 1.0000000000000000e+00 1.0436985587405854e+01 3.4405245311935527e-02 8.3734720458744611e+00 
284 1 2 1.1605682584842913e+00 9.5451436180133942e+02 1.0000000000000000e+00 1.1039510989062869e+01 5.0594060831742187e+00 7.5407333009545479e+00 
200 1 2 1.1605682584842913e+00 1.5196231470241855e+03 1.0000000000000000e+00 9.0954147388178175e+00 6.0000834163212771e+00 8.4281083008654782e+00 
48 1 2 1.1605682584842913e+00 1.5711240898464439e+03 1.0000000000000000e+00 1.1584021625921563e+01 2.9654143478977080e+00 8.5768037160597093e+00 
291 1 2 1.1605682584842913e+00 -1.1548708676268702e+03 1.0000000000000000e+00 1.0489233663913771e+01 4.3115860112896218e+00 9.8041450408290878e+00 
375 1 2 1.1605682584842913e+00 1.3370739068985931e+03 1.0000000000000000e+00 9.8335628566413220e+00 7.7045350713739644e+00 9.6360007190842278e+00 
39 1 2 1.1605682584842913e+00 1.1080419920413574e+03 1.0000000000000000e+00 7.2797746720106282e+00 8.7055341820949224e+00 9.4470829904740352e+00 
370 1 2 1.1605682584842913e+00 1.2768451748634361e+03 1.0000000000000000e+00 1.2051507901356183e+01 1.5416014126374195e-01 1.0798408511826931e+01 
364 1 2 1.1605682584842913e+00 8.1682232574530940e+02 1.0000000000000000e+00 6.8148967709832924e+00 3.3492018018664558e+00 1.0026777625183922e+01 
330 1 2 1.1605682584842913e+00 1.6977606606294153e+03 1.0000000000000000e+00 8.7810265645416603e+00 5.8777164753930480e+00 1.0691677195157659e+01 
176 1 2 1.1605682584842913e+00 9.7071437961458059e+02 1.0000000000000000e+00 1.3179802536223102e+01 7.7662493376257000e+00 1.0759626570990369e+01 
67 1 2 1.1605682584842913e+00 9.7366842090447381e+02 1.0000000000000000e+00 8.9796798741517865e+00 9.5204838925645152e+00 1.1247030324521893e+01 
223 1 2 1.1605682584842913e+00 1.3883816229153804e+03 1.0000000000000000e+00 8.9371535342453203e+00 3.5986845884423380e-01 1.1851180177072550e+01 
147 1 2 1.1605682584842913e+00 1.3617161422345084e+03 1.0000000000000000e+00 1.1526402009896909e+01 2.6622054041950416e+00 1.1442678585631931e+01 
11 1 2 1.1605682584842913e+00 -4.2571045498738349e+03 1.0000000000000000e+00 9.5298201547374237e+00 2.9851192139967080e+00 1.2302551110574138e+01 
243 1 2 1.1605682584842913e+00 1.1084917909024521e+03 1.0000000000000000e+00 7.7404253581017004e+00 4.9618974022733315e+00 1.2352155525309026e+01 
8 1 2 1.1605682584842913e+00 1.9299444979625887e+03 1.0000000000000000e+00 1.2915044946239121e+01 5.8926140848224264e+00 1.1545285950430696e+01 
125 1 2 1.1605682584842913e+00 -2.7988895104158677e+04 1.0000000000000000e+00 7.1414563829701017e+00 9.7148910844627103e+00 1.2247046925514814e+01 
92 1 2 1.1605682584842913e+00 1.6338931672849949e+03 1.0000000000000000e+00 7.5576951134485286e+00 9.3008202394674178e-01 1.3938154221812013e+01 
318 1 2 1.1605682584842913e+00 -1.6166196048135629e+02 1.0000000000000000e+00 9.4621699313260113e+00 4.5452418349542212e+00 1.3647863064253620e+01 
276 1 2 1.1605682584842913e+00 1.0492788747467685e+03 1.0000000000000000e+00 9.6124105197016174e+00 7.5370253016867510e+00 1.3944793927141095e+01 
144 1 2 1.1605682584842913e+00 1.2152789454054091e+03 1.0000000000000000e+00 8.1359491785617788e+00 2.5935623206782923e+00 1.4962419460843405e+01 
239 1 2 1.1605682584842913e+00 -6.2223179010312464e+01 1.0000000000000000e+00 1.2039366405744730e+01 9.3790774817644103e+00 1.5288186281602222e+01 
316 1 2 1.1605682584842913e+00 4.0739762967474050e+01 1.0000000000000000e+00 1.0944592006916583e+01 2.3628218394541638e+00 1.6405966557132626e+01 
1 1 2 1.1605682584842913e+00 1.0019548428762050e+03 1.0000000000000000e+00 1.1476765293865581e+01 4.2611105276797003e+00 1.5838959464135518e+01 
190 1 2 1.1605682584842913e+00 1.0942089184520655e+03 1.0000000000000000e+00 9.8457458764771335e+00 5.0000832025333350e+00 1.6803610638777762e+01 
184 1 2 1.1605682584842913e+00 1.2548958232973268e+03 1.0000000000000000e+00 1.1912502617027709e+01 6.0428581176111251e+00 1.6843248206461855e+01 
123 1 2 1.1605682584842913e+00 1.0310745459697505e+03 1.0000000000000000e+00 7.8836158783998478e+00 9.9605784762673384e+00 1.7003722583430228e+01 
208 1 2 1.1605682584842913e+00 1.2053006099277791e+03 1.0000000000000000e+00 1.0146051878988557e+01 9.8166945397219205e+00 1.6201139466886872e+01 
83 1 2 1.1605682584842913e+00 -2.0455456397183523e+04 1.0000000000000000e+00 1.1465231224897266e+01 1.1231814725343700e-01 1.7405968871035633e+01 
218 1 2 1.1605682584842913e+00 1.3818557520532981e+03 1.0000000000000000e+00 7.9200259709357494e+00 7.8122234955115086e+00 1.7364856519028667e+01 
376 1 2 1.1605682818961867e+00 1.2791051717599760e+03 1.0000000000000000e+00 1.1912005290646018e+01 8.6676224187262623e+00 1.8146969958666901e+01 
355 1 2 1.1605682584842913e+00 5.5877230331878673e+02 1.0000000000000000e+00 8.6048593189735687e+00 1.6517712487127336e+00 1.9279507069506341e+01 
187 1 2 1.1605682584842913e+00 -5.5618715781461970e+02 1.0000000000000000e+00 1.1106064795426066e+01 1.6785513600306941e+00 1.8828009592907375e+01 
51 1 2 1.1605682584842913e+00 1.3655187587506048e+03 1.0000000000000000e+00 9.4031804462925379e+00 3.6596470051899126e+00 1.9653196977677688e+01 
49 1 2 1.1605682584842913e+00 9.4699032764351205e+02 1.0000000000000000e+00 1.1045769378400017e+01 5.1618486289233267e+00 1.9142972522055491e+01 
346 1 2 1.1605683425837408e+00 1.8725241799544131e+03 1.0000000000000000e+00 1.3143587974741138e+01 5.7494241554615639e+00 1.9284960323409418e+01 
344 1 2 1.1605682818961867e+00 3.4490837716957276e+02 1.0000000000000000e+00 1.0980225650579824e+01 8.7338690335693467e+00 1.9902616657656633e+01 
178 1 2 1.1605682584842913e+00 1.1704983359207049e+03 1.0000000000000000e+00 1.1943260970896265e+01 1.0837204460008181e+01 8.2635937688221262e-01 
328 1 2 1.1605682584842913e+00 1.2142657860599638e+03 1.0000000000000000e+00 1.3092207940505805e+01 1.3779785705731953e+01 1.3084598907198590e+00 
244 1 2 1.1605682584842913e+00 1.2797354520412368e+03 1.0000000000000000e+00 1.2678816591009291e+01 1.6887878761558241e+01 1.0691578276374984e+00 
270 1 2 1.1605682584842913e+00 1.8849699463500497e+03 1.0000000000000000e+00 1.0210037740613256e+01 1.7922073972180034e+01 1.3356115262993091e+00 
104 1 2 1.1605682584842913e+00 1.2511115455443928e+03 1.0000000000000000e+00 7.2918691356517611e+00 1.9998664021681151e+01 1.1416152644021116e+00 
314 1 2 1.1605682584842913e+00 1.6510435124714795e+03 1.0000000000000000e+00 1.2707876840323452e+01 1.1201148791159952e+01 2.7190295457834002e+00 
260 1 2 1.1605682584842913e+00 -6.8289716407538963e+03 1.0000000000000000e+00 7.5198617443466977e+00 1.1969919496636660e+01 2.5553241581090500e+00 
319 1 2 1.1605682584842913e+00 -3.3575905743989540e+02 1.0000000000000000e+00 7.6606805546343297e+00 1.5415822047197553e+01 1.7692313506120687e+00 