LAMMPS data file via write_data, version 30 Jul 2016, timestep = 1000000

2080 atoms
8 atom types

0.0000000000000000e+00 4.0000000000000000e+01 xlo xhi
0.0000000000000000e+00 4.0000000000000000e+01 ylo yhi
0.0000000000000000e+00 1.0000000000000000e+02 zlo zhi

Masses

1 3.896
2 4.306
3 20.064
4 8.378
5 8.378
6 8.378
7 8.378
8 8.378

Atoms # meso-molecular

1 2 4 2.2559723595316457e+00 0.0000000000000000e+00 1.0000000000000000e+00 0.0000000000000000e+00 0.0000000000000000e+00 2.5000000000000000e+00 
2 2 4 2.2559723595316457e+00 0.0000000000000000e+00 1.0000000000000000e+00 0.0000000000000000e+00 2.0000000000000000e+00 2.5000000000000000e+00 
3 2 4 2.2559723595316457e+00 0.0000000000000000e+00 1.0000000000000000e+00 0.0000000000000000e+00 4.0000000000000000e+00 2.5000000000000000e+00 
4 2 4 2.2559723595316457e+00 0.0000000000000000e+00 1.0000000000000000e+00 0.0000000000000000e+00 6.0000000000000000e+00 2.5000000000000000e+00 
5 2 4 2.2559723595316457e+00 0.0000000000000000e+00 1.0000000000000000e+00 0.0000000000000000e+00 8.0000000000000000e+00 2.5000000000000000e+00 
21 2 4 2.2559723595316457e+00 0.0000000000000000e+00 1.0000000000000000e+00 2.0000000000000000e+00 0.0000000000000000e+00 2.5000000000000000e+00 
22 2 4 2.2559723595316457e+00 0.0000000000000000e+00 1.0000000000000000e+00 2.0000000000000000e+00 2.0000000000000000e+00 2.5000000000000000e+00 
23 2 4 2.2559723595316457e+00 0.0000000000000000e+00 1.0000000000000000e+00 2.0000000000000000e+00 4.0000000000000000e+00 2.5000000000000000e+00 
24 2 4 2.2559723595316457e+00 0.0000000000000000e+00 1.0000000000000000e+00 2.0000000000000000e+00 6.0000000000000000e+00 2.5000000000000000e+00 
25 2 4 2.2559723595316457e+00 0.0000000000000000e+00 1.0000000000000000e+00 2.0000000000000000e+00 8.0000000000000000e+00 2.5000000000000000e+00 
41 2 4 2.2559723595316457e+00 0.0000000000000000e+00 1.0000000000000000e+00 4.0000000000000000e+00 0.0000000000000000e+00 2.5000000000000000e+00 
42 2 4 2.2559723595316457e+00 0.0000000000000000e+00 1.0000000000000000e+00 4.0000000000000000e+00 2.0000000000000000e+00 2.5000000000000000e+00 
43 2 4 2.2559723595316457e+00 0.0000000000000000e+00 1.0000000000000000e+00 4.0000000000000000e+00 4.0000000000000000e+00 2.5000000000000000e+00 
44 2 4 2.2559723595316457e+00 0.0000000000000000e+00 1.0000000000000000e+00 4.0000000000000000e+00 6.0000000000000000e+00 2.5000000000000000e+00 
45 2 4 2.2559723595316457e+00 0.0000000000000000e+00 1.0000000000000000e+00 4.0000000000000000e+00 8.0000000000000000e+00 2.5000000000000000e+00 
61 2 4 2.2559723595316457e+00 0.0000000000000000e+00 1.0000000000000000e+00 6.0000000000000000e+00 0.0000000000000000e+00 2.5000000000000000e+00 
62 2 4 2.2559723595316457e+00 0.0000000000000000e+00 1.0000000000000000e+00 6.0000000000000000e+00 2.0000000000000000e+00 2.5000000000000000e+00 
63 2 4 2.2559723595316457e+00 0.0000000000000000e+00 1.0000000000000000e+00 6.0000000000000000e+00 4.0000000000000000e+00 2.5000000000000000e+00 
64 2 4 2.2559723595316457e+00 0.0000000000000000e+00 1.0000000000000000e+00 6.0000000000000000e+00 6.0000000000000000e+00 2.5000000000000000e+00 
65 2 4 2.2559723595316457e+00 0.0000000000000000e+00 1.0000000000000000e+00 6.0000000000000000e+00 8.0000000000000000e+00 2.5000000000000000e+00 
81 2 4 2.2559723595316457e+00 0.0000000000000000e+00 1.0000000000000000e+00 8.0000000000000000e+00 0.0000000000000000e+00 2.5000000000000000e+00 
82 2 4 2.2559723595316457e+00 0.0000000000000000e+00 1.0000000000000000e+00 8.0000000000000000e+00 2.0000000000000000e+00 2.5000000000000000e+00 
83 2 4 2.2559723595316457e+00 -1.4506058670263929e-04 1.0000000000000000e+00 8.0000000000000000e+00 4.0000000000000000e+00 2.5000000000000000e+00 
84 2 4 2.2559723595316457e+00 -3.2332952653331488e+00 1.0000000000000000e+00 8.0000000000000000e+00 6.0000000000000000e+00 2.5000000000000000e+00 
85 2 4 2.2559723595316457e+00 -1.7524098654973649e+01 1.0000000000000000e+00 8.0000000000000000e+00 8.0000000000000000e+00 2.5000000000000000e+00 
101 2 4 2.2559723595316457e+00 0.0000000000000000e+00 1.0000000000000000e+00 1.0000000000000000e+01 0.0000000000000000e+00 2.5000000000000000e+00 
102 2 4 2.2559723595316457e+00 -1.4506034681399657e-04 1.0000000000000000e+00 1.0000000000000000e+01 2.0000000000000000e+00 2.5000000000000000e+00 
103 2 4 2.2559723595316457e+00 -8.9288116775306854e+00 1.0000000000000000e+00 1.0000000000000000e+01 4.0000000000000000e+00 2.5000000000000000e+00 
104 2 4 2.2559723595316457e+00 -6.8063808074147545e+01 1.0000000000000000e+00 1.0000000000000000e+01 6.0000000000000000e+00 2.5000000000000000e+00 
105 2 4 2.2559723595316457e+00 -2.1696135391944017e+02 1.0000000000000000e+00 1.0000000000000000e+01 8.0000000000000000e+00 2.5000000000000000e+00 
121 2 4 2.2559723595316457e+00 0.0000000000000000e+00 1.0000000000000000e+00 1.2000000000000000e+01 0.0000000000000000e+00 2.5000000000000000e+00 
122 2 4 2.2559723595316457e+00 -3.2332306880783630e+00 1.0000000000000000e+00 1.2000000000000000e+01 2.0000000000000000e+00 2.5000000000000000e+00 
123 2 4 2.2559723595316457e+00 -6.7845906087814598e+01 1.0000000000000000e+00 1.2000000000000000e+01 4.0000000000000000e+00 2.5000000000000000e+00 
124 2 4 2.2559723595316457e+00 -3.3971442222850567e+02 1.0000000000000000e+00 1.2000000000000000e+01 6.0000000000000000e+00 2.5000000000000000e+00 
125 2 4 2.2559723595316457e+00 -9.1871299443588805e+02 1.0000000000000000e+00 1.2000000000000000e+01 8.0000000000000000e+00 2.5000000000000000e+00 
141 2 4 2.2559723595316457e+00 0.0000000000000000e+00 1.0000000000000000e+00 1.4000000000000000e+01 0.0000000000000000e+00 2.5000000000000000e+00 
142 2 4 2.2559723595316457e+00 -1.7409091107487246e+01 1.0000000000000000e+00 1.4000000000000000e+01 2.0000000000000000e+00 2.5000000000000000e+00 
143 2 4 2.2559723595316457e+00 -2.1421449225824023e+02 1.0000000000000000e+00 1.4000000000000000e+01 4.0000000000000000e+00 2.5000000000000000e+00 
144 2 4 2.2559723595316457e+00 -9.0953964544399196e+02 1.0000000000000000e+00 1.4000000000000000e+01 6.0000000000000000e+00 2.5000000000000000e+00 
145 2 4 2.2559723595316457e+00 -2.2871913828745051e+03 1.0000000000000000e+00 1.4000000000000000e+01 8.0000000000000000e+00 2.5000000000000000e+00 
161 2 4 2.2559723595316457e+00 -1.4503936474978505e-04 1.0000000000000000e+00 1.6000000000000000e+01 0.0000000000000000e+00 2.5000000000000000e+00 
162 2 4 2.2559723595316457e+00 -3.9846775089374319e+01 1.0000000000000000e+00 1.6000000000000000e+01 2.0000000000000000e+00 2.5000000000000000e+00 
163 2 4 2.2559723595316457e+00 -4.1380533197188754e+02 1.0000000000000000e+00 1.6000000000000000e+01 4.0000000000000000e+00 2.5000000000000000e+00 
164 2 4 2.2559723595316457e+00 -1.6417851171413427e+03 1.0000000000000000e+00 1.6000000000000000e+01 6.0000000000000000e+00 2.5000000000000000e+00 
165 2 4 2.2559723595316457e+00 -4.0031317272963292e+03 1.0000000000000000e+00 1.6000000000000000e+01 8.0000000000000000e+00 2.5000000000000000e+00 
181 2 4 2.2559723595316457e+00 -1.6717925820259854e-04 1.0000000000000000e+00 1.8000000000000000e+01 0.0000000000000000e+00 2.5000000000000000e+00 
182 2 4 2.2559723595316457e+00 -5.6476872109590062e+01 1.0000000000000000e+00 1.8000000000000000e+01 2.0000000000000000e+00 2.5000000000000000e+00 
183 2 4 2.2559723595316457e+00 -5.6300838615871339e+02 1.0000000000000000e+00 1.8000000000000000e+01 4.0000000000000000e+00 2.5000000000000000e+00 
184 2 4 2.2559723595316457e+00 -2.1781863154150292e+03 1.0000000000000000e+00 1.8000000000000000e+01 6.0000000000000000e+00 2.5000000000000000e+00 
185 2 4 2.2559723595316457e+00 -5.2474043342894765e+03 1.0000000000000000e+00 1.8000000000000000e+01 8.0000000000000000e+00 2.5000000000000000e+00 
6 2 4 2.2559723595316457e+00 0.0000000000000000e+00 1.0000000000000000e+00 0.0000000000000000e+00 1.0000000000000000e+01 2.5000000000000000e+00 
7 2 4 2.2559723595316457e+00 0.0000000000000000e+00 1.0000000000000000e+00 0.0000000000000000e+00 1.2000000000000000e+01 2.5000000000000000e+00 
8 2 4 2.2559723595316457e+00 0.0000000000000000e+00 1.0000000000000000e+00 0.0000000000000000e+00 1.4000000000000000e+01 2.5000000000000000e+00 
9 2 4 2.2559723595316457e+00 0.0000000000000000e+00 1.0000000000000000e+00 0.0000000000000000e+00 1.6000000000000000e+01 2.5000000000000000e+00 
10 2 4 2.2559723595316457e+00 0.0000000000000000e+00 1.0000000000000000e+00 0.0000000000000000e+00 1.8000000000000000e+01 2.5000000000000000e+00 
26 2 4 2.2559723595316457e+00 0.0000000000000000e+00 1.0000000000000000e+00 2.0000000000000000e+00 1.0000000000000000e+01 2.5000000000000000e+00 
27 2 4 2.2559723595316457e+00 0.0000000000000000e+00 1.0000000000000000e+00 2.0000000000000000e+00 1.2000000000000000e+01 2.5000000000000000e+00 
28 2 4 2.2559723595316457e+00 0.0000000000000000e+00 1.0000000000000000e+00 2.0000000000000000e+00 1.4000000000000000e+01 2.5000000000000000e+00 
29 2 4 2.2559723595316457e+00 0.0000000000000000e+00 1.0000000000000000e+00 2.0000000000000000e+00 1.6000000000000000e+01 2.5000000000000000e+00 
30 2 4 2.2559723595316457e+00 0.0000000000000000e+00 1.0000000000000000e+00 2.0000000000000000e+00 1.8000000000000000e+01 2.5000000000000000e+00 
46 2 4 2.2559723595316457e+00 0.0000000000000000e+00 1.0000000000000000e+00 4.0000000000000000e+00 1.0000000000000000e+01 2.5000000000000000e+00 
47 2 4 2.2559723595316457e+00 0.0000000000000000e+00 1.0000000000000000e+00 4.0000000000000000e+00 1.2000000000000000e+01 2.5000000000000000e+00 
48 2 4 2.2559723595316457e+00 0.0000000000000000e+00 1.0000000000000000e+00 4.0000000000000000e+00 1.4000000000000000e+01 2.5000000000000000e+00 
49 2 4 2.2559723595316457e+00 0.0000000000000000e+00 1.0000000000000000e+00 4.0000000000000000e+00 1.6000000000000000e+01 2.5000000000000000e+00 
50 2 4 2.2559723595316457e+00 0.0000000000000000e+00 1.0000000000000000e+00 4.0000000000000000e+00 1.8000000000000000e+01 2.5000000000000000e+00 
66 2 4 2.2559723595316457e+00 -1.4504102396789768e-04 1.0000000000000000e+00 6.0000000000000000e+00 1.0000000000000000e+01 2.5000000000000000e+00 
67 2 4 2.2559723595316457e+00 -1.7165525980631659e-04 1.0000000000000000e+00 6.0000000000000000e+00 1.2000000000000000e+01 2.5000000000000000e+00 
68 2 4 2.2559723595316457e+00 -1.8244631288525433e-04 1.0000000000000000e+00 6.0000000000000000e+00 1.4000000000000000e+01 2.5000000000000000e+00 
69 2 4 2.2559723595316457e+00 -1.8573237979552045e-04 1.0000000000000000e+00 6.0000000000000000e+00 1.6000000000000000e+01 2.5000000000000000e+00 
70 2 4 2.2559723595316457e+00 -1.8618803916735781e-04 1.0000000000000000e+00 6.0000000000000000e+00 1.8000000000000000e+01 2.5000000000000000e+00 
86 2 4 2.2559723595316457e+00 -4.0745726860659730e+01 1.0000000000000000e+00 8.0000000000000000e+00 1.0000000000000000e+01 2.5000000000000000e+00 
87 2 4 2.2559723595316457e+00 -5.9909856943392029e+01 1.0000000000000000e+00 8.0000000000000000e+00 1.2000000000000000e+01 2.5000000000000000e+00 
88 2 4 2.2559723595316457e+00 -6.7990196225256611e+01 1.0000000000000000e+00 8.0000000000000000e+00 1.4000000000000000e+01 2.5000000000000000e+00 
89 2 4 2.2559723595316457e+00 -7.0231320733333092e+01 1.0000000000000000e+00 8.0000000000000000e+00 1.6000000000000000e+01 2.5000000000000000e+00 
90 2 4 2.2559723595316457e+00 -7.0794733531456870e+01 1.0000000000000000e+00 8.0000000000000000e+00 1.8000000000000000e+01 2.5000000000000000e+00 
106 2 4 2.2559723595316457e+00 -4.2759677631397631e+02 1.0000000000000000e+00 1.0000000000000000e+01 1.0000000000000000e+01 2.5000000000000000e+00 
107 2 4 2.2559723595316457e+00 -6.1337247957247507e+02 1.0000000000000000e+00 1.0000000000000000e+01 1.2000000000000000e+01 2.5000000000000000e+00 
108 2 4 2.2559723595316457e+00 -7.1528739971039704e+02 1.0000000000000000e+00 1.0000000000000000e+01 1.4000000000000000e+01 2.5000000000000000e+00 
109 2 4 2.2559723595316457e+00 -7.4950182815332357e+02 1.0000000000000000e+00 1.0000000000000000e+01 1.6000000000000000e+01 2.5000000000000000e+00 
110 2 4 2.2559723595316457e+00 -7.5813129007256771e+02 1.0000000000000000e+00 1.0000000000000000e+01 1.8000000000000000e+01 2.5000000000000000e+00 
126 2 4 2.2559723595316457e+00 -1.6939174400569277e+03 1.0000000000000000e+00 1.2000000000000000e+01 1.0000000000000000e+01 2.5000000000000000e+00 
127 2 4 2.2559723595316457e+00 -2.3884641509125800e+03 1.0000000000000000e+00 1.2000000000000000e+01 1.2000000000000000e+01 2.5000000000000000e+00 
128 2 4 2.2559723595316457e+00 -2.8001715877271586e+03 1.0000000000000000e+00 1.2000000000000000e+01 1.4000000000000000e+01 2.5000000000000000e+00 
129 2 4 2.2559723595316457e+00 -2.9536951765865242e+03 1.0000000000000000e+00 1.2000000000000000e+01 1.6000000000000000e+01 2.5000000000000000e+00 
130 2 4 2.2559723595316457e+00 -2.9914524302133136e+03 1.0000000000000000e+00 1.2000000000000000e+01 1.8000000000000000e+01 2.5000000000000000e+00 
146 2 4 2.2559723595316457e+00 -4.0920205584105970e+03 1.0000000000000000e+00 1.4000000000000000e+01 1.0000000000000000e+01 2.5000000000000000e+00 
147 2 4 2.2559723595316457e+00 -5.7246919245735189e+03 1.0000000000000000e+00 1.4000000000000000e+01 1.2000000000000000e+01 2.5000000000000000e+00 
148 2 4 2.2559723595316457e+00 -6.7258241518565173e+03 1.0000000000000000e+00 1.4000000000000000e+01 1.4000000000000000e+01 2.5000000000000000e+00 
149 2 4 2.2559723595316457e+00 -7.1154895896959524e+03 1.0000000000000000e+00 1.4000000000000000e+01 1.6000000000000000e+01 2.5000000000000000e+00 
150 2 4 2.2559723595316457e+00 -7.2073827689703403e+03 1.0000000000000000e+00 1.4000000000000000e+01 1.8000000000000000e+01 2.5000000000000000e+00 
166 2 4 2.2559723595316457e+00 -7.0797355938096107e+03 1.0000000000000000e+00 1.6000000000000000e+01 1.0000000000000000e+01 2.5000000000000000e+00 
167 2 4 2.2559723595316457e+00 -9.8875123441806172e+03 1.0000000000000000e+00 1.6000000000000000e+01 1.2000000000000000e+01 2.5000000000000000e+00 
168 2 4 2.2559723595316457e+00 -1.1637304810125952e+04 1.0000000000000000e+00 1.6000000000000000e+01 1.4000000000000000e+01 2.5000000000000000e+00 
169 2 4 2.2559723595316457e+00 -1.2324014738996120e+04 1.0000000000000000e+00 1.6000000000000000e+01 1.6000000000000000e+01 2.5000000000000000e+00 
170 2 4 2.2559723595316457e+00 -1.2478343900653335e+04 1.0000000000000000e+00 1.6000000000000000e+01 1.8000000000000000e+01 2.5000000000000000e+00 
186 2 4 2.2559723595316457e+00 -9.2436204715464210e+03 1.0000000000000000e+00 1.8000000000000000e+01 1.0000000000000000e+01 2.5000000000000000e+00 
187 2 4 2.2559723595316457e+00 -1.2912928293345674e+04 1.0000000000000000e+00 1.8000000000000000e+01 1.2000000000000000e+01 2.5000000000000000e+00 
188 2 4 2.2559723595316457e+00 -1.5219891623635533e+04 1.0000000000000000e+00 1.8000000000000000e+01 1.4000000000000000e+01 2.5000000000000000e+00 
189 2 4 2.2559723595316457e+00 -1.6125932424630862e+04 1.0000000000000000e+00 1.8000000000000000e+01 1.6000000000000000e+01 2.5000000000000000e+00 
190 2 4 2.2559723595316457e+00 -1.6319127819373443e+04 1.0000000000000000e+00 1.8000000000000000e+01 1.8000000000000000e+01 2.5000000000000000e+00 
2013 1615 2 1.0280089422755561e+00 -1.5108368258600525e+04 1.0000000000000000e+00 1.9360454221453907e+01 5.5522891067733160e-01 6.1063027900801004e+01 
1864 1466 2 1.0280084668967839e+00 1.7599145745065951e+04 1.0000000000000000e+00 1.9473080100263033e+01 5.8799473908316480e-01 6.1069353802359771e+01 
1861 1463 2 1.0280088050561631e+00 1.7596190613915922e+04 1.0000000000000000e+00 1.9327649452799477e+01 8.9638374969335799e-01 6.1080753545189616e+01 
623 225 2 1.0280088748804252e+00 2.6145744154624781e+03 1.0000000000000000e+00 1.9130094731473772e+01 1.1056010283478629e-01 6.1077130904593446e+01 
598 200 2 1.0280091654485288e+00 1.8587546564681461e+03 1.0000000000000000e+00 1.9396984833101662e+01 1.0589708311631714e+00 6.1093764310729235e+01 
1925 1527 2 1.0280100591693440e+00 -1.2069922309166406e+04 1.0000000000000000e+00 1.9037729974376013e+01 1.6726119278791546e-01 6.1096005020192898e+01 
1918 1520 2 1.0280091173331500e+00 -3.7040417120277771e+03 1.0000000000000000e+00 1.9314928656291109e+01 1.2889150617940557e+00 6.1121496223023840e+01 
892 494 2 1.0280094758604545e+00 3.0937775317399237e+03 1.0000000000000000e+00 1.9743203202269580e+01 3.9931522353994187e-01 6.1122358355281818e+01 
1456 1058 2 1.0280092480279959e+00 3.6382071388980166e+03 1.0000000000000000e+00 1.9064371218028853e+01 9.6916902448928199e-01 6.1123508427683973e+01 
573 175 2 1.0280087020141553e+00 6.6331897882477215e+03 1.0000000000000000e+00 1.9461001721083086e+01 1.4576594966984497e+00 6.1146132474690639e+01 
788 390 2 1.0280102360783516e+00 1.1246361685496149e+03 1.0000000000000000e+00 1.9841888289242945e+01 5.6581440071599587e-01 6.1158991386802001e+01 
1028 630 2 1.0280083431492455e+00 4.8848339874901339e+03 1.0000000000000000e+00 1.9349491097331128e+01 1.5929252126642985e+00 6.1168558103285719e+01 
1975 1577 2 1.0280084406997119e+00 -2.9326817956077975e+03 1.0000000000000000e+00 1.9032602691340543e+01 1.2343643494746954e+00 6.1161762974198879e+01 
1701 1303 2 1.0280088974281638e+00 4.7282256442587568e+03 1.0000000000000000e+00 1.9663120503042578e+01 1.4650282399889687e+00 6.1174875629904257e+01 
1031 633 2 1.0280085478386349e+00 4.6143771896048565e+03 1.0000000000000000e+00 1.9046551590370736e+01 1.3017830398130443e+00 6.1167257983132060e+01 
1069 671 2 1.0280097497686065e+00 2.0717932811957776e+03 1.0000000000000000e+00 1.8860372492020254e+01 6.1841678702710234e-01 6.1166029277286185e+01 
1006 608 2 1.0280082253389951e+00 5.0499022289025452e+03 1.0000000000000000e+00 1.9515752991573994e+01 1.6644224026415340e+00 6.1187026478554444e+01 
726 328 2 1.0280079540314948e+00 -2.3792911339992293e+03 1.0000000000000000e+00 1.9381142265529174e+01 1.7081171744664780e+00 6.1190644614468191e+01 
785 387 2 1.0280105030701754e+00 1.1256732983880959e+03 1.0000000000000000e+00 1.8817652971132166e+01 5.8771205356727618e-01 6.1183149110319228e+01 
1704 1306 2 1.0280079751150750e+00 4.7262038152900559e+03 1.0000000000000000e+00 1.9246780833323950e+01 1.8373972934686775e+00 6.1229432887103648e+01 
558 160 2 1.0280078328120825e+00 -6.0019646306120167e+03 1.0000000000000000e+00 1.9434096327961292e+01 1.9284958074188800e+00 6.1242162275575410e+01 
1576 1178 2 1.0280094421289936e+00 2.0508845188839041e+03 1.0000000000000000e+00 1.9973424504260599e+01 1.2095216297199727e+00 6.1253016012330335e+01 
425 27 2 1.0280090697739388e+00 -1.5932623119549592e+03 1.0000000000000000e+00 1.9955360989779628e+01 1.3840830889028153e+00 6.1264543049679887e+01 
632 234 2 1.0280075355339353e+00 -5.3038061730282407e+03 1.0000000000000000e+00 1.9533620168810248e+01 2.1404738051388024e+00 6.1307581561748293e+01 
1739 1341 2 1.0280084065112058e+00 -5.2534857496269478e+02 1.0000000000000000e+00 1.8962271167918178e+01 1.8725994769984815e+00 6.1309235528427735e+01 
662 264 2 1.0280080652932291e+00 -5.9695537119012970e+03 1.0000000000000000e+00 1.9325478035602242e+01 2.3461706892947922e+00 6.1374432346070968e+01 
1974 1576 2 1.0280079946348009e+00 -2.9288340772169740e+03 1.0000000000000000e+00 1.9874531206105267e+01 2.1344416667094359e+00 6.1389179016295657e+01 
1919 1521 2 1.0280076857219254e+00 -3.7043191166137290e+03 1.0000000000000000e+00 1.9318312052835161e+01 2.4409173652493608e+00 6.1410899803278767e+01 
709 311 2 1.0280096149655258e+00 7.6201186542527330e+03 1.0000000000000000e+00 1.8660829625614884e+01 1.5647661775526300e+00 6.1391847375856607e+01 
712 314 2 1.0280081460761248e+00 7.6155458605944441e+03 1.0000000000000000e+00 1.9124004653731877e+01 2.3626012257183091e+00 6.1414261697481116e+01 
2005 1607 2 1.0280085330510058e+00 -1.4082593021841765e+04 1.0000000000000000e+00 1.9101726968923671e+01 2.3535285631822229e+00 6.1416760158856356e+01 
1458 1060 2 1.0280075208786570e+00 2.3654538980485286e+03 1.0000000000000000e+00 1.9627367248719121e+01 2.4551534559534804e+00 6.1429358844344776e+01 
1036 638 2 1.0280085342351766e+00 2.8099157248823449e+03 1.0000000000000000e+00 1.9973083222846100e+01 2.1352013664154548e+00 6.1433354390097669e+01 
806 408 2 1.0280081608367142e+00 -6.8161917534281508e+02 1.0000000000000000e+00 1.9647228768655204e+01 2.4767273338102487e+00 6.1441480987979205e+01 
770 372 2 1.0280081985987770e+00 2.5934568185718458e+03 1.0000000000000000e+00 1.9478859859540343e+01 2.5631739530980804e+00 6.1457040138484928e+01 
1358 960 2 1.0280092630415603e+00 4.4352842505785920e+03 1.0000000000000000e+00 1.8831318996917265e+01 2.1564191615323423e+00 6.1453424004118098e+01 
1478 1080 2 1.0280085319326127e+00 -2.5019168571373874e+02 1.0000000000000000e+00 1.9909372793012892e+01 2.3806967134290575e+00 6.1486263502521339e+01 
407 9 2 1.0280081851494656e+00 -3.6462060482583770e+03 1.0000000000000000e+00 1.9315852707156385e+01 2.6240063281062844e+00 6.1487910285123903e+01 
663 265 2 1.0280077562019838e+00 -5.9697867065889986e+03 1.0000000000000000e+00 1.9550587344541945e+01 2.6792481338915515e+00 6.1513607061979002e+01 
1058 660 2 1.0280082757741797e+00 9.3594556876235163e+02 1.0000000000000000e+00 1.8957705966801917e+01 2.5087112709672681e+00 6.1529732212250138e+01 
1072 674 2 1.0280082438301987e+00 2.0724080377187597e+03 1.0000000000000000e+00 1.9936092619120231e+01 2.5190643410297104e+00 6.1552457168942787e+01 
1459 1061 2 1.0280080011267771e+00 2.3686912681113058e+03 1.0000000000000000e+00 1.9189986904070825e+01 2.7910897888998125e+00 6.1587627797463036e+01 
521 123 2 1.0280073987865304e+00 1.2490747438483601e+02 1.0000000000000000e+00 1.9194969737511084e+01 2.9041117708249353e+00 6.1646145286837104e+01 
719 321 2 1.0280076401172311e+00 4.0107949996675143e+03 1.0000000000000000e+00 1.9749520463538026e+01 2.9539975098230427e+00 6.1691518764577737e+01 
1723 1325 2 1.0280080235510090e+00 3.2602813861566501e+03 1.0000000000000000e+00 1.9997186526517737e+01 2.7651464776770562e+00 6.1695094032556277e+01 
1476 1078 2 1.0280072747294442e+00 6.6486317380900675e+02 1.0000000000000000e+00 1.9273974939896469e+01 3.0507061140214602e+00 6.1714963467210374e+01 
1057 659 2 1.0280072589443756e+00 4.7420290132662922e+02 1.0000000000000000e+00 1.9359677314811538e+01 3.1032464334452818e+00 6.1736703682421897e+01 
1473 1075 2 1.0280075732253178e+00 6.6129256459306578e+02 1.0000000000000000e+00 1.9701139337690595e+01 3.0803993149319844e+00 6.1751566653298610e+01 
1611 1213 2 1.0280076336499058e+00 2.5343426951163519e+03 1.0000000000000000e+00 1.9175858323697174e+01 3.0717657426957548e+00 6.1747777071697563e+01 
679 281 2 1.0280069306432349e+00 1.6918914577000965e+03 1.0000000000000000e+00 1.9225264468703045e+01 3.1653384528501984e+00 6.1795068358688802e+01 
523 125 2 1.0280069734614916e+00 5.2178318910934704e+03 1.0000000000000000e+00 1.9206554727377810e+01 3.1665687533298912e+00 6.1799989689630323e+01 
524 126 2 1.0280072799937017e+00 1.2721705016390196e+02 1.0000000000000000e+00 1.9848753133224506e+01 3.1737815985760105e+00 6.1857724801219689e+01 
2060 1662 2 1.0280075130197759e+00 1.0680728749477130e+03 1.0000000000000000e+00 1.9517891195571135e+01 3.3374916326602535e+00 6.1890046896357696e+01 
963 565 2 1.0280069901296229e+00 -6.5733860156443563e+02 1.0000000000000000e+00 1.9379513372119742e+01 3.3374157180440984e+00 6.1889835310081359e+01 
695 297 2 1.0280072935784528e+00 5.5243662609370986e+03 1.0000000000000000e+00 1.9544099888760218e+01 3.4177362265625884e+00 6.1950235465027170e+01 
1502 1104 2 1.0280071734708285e+00 6.0529074765364276e+03 1.0000000000000000e+00 1.9661346883464173e+01 3.4271395746407181e+00 6.1975548302034944e+01 
559 161 2 1.0280068627337955e+00 -6.0063360505617893e+03 1.0000000000000000e+00 1.9280546820070576e+01 3.4682712450219841e+00 6.1998613384969737e+01 
1610 1212 2 1.0280068752289631e+00 2.5340515241649105e+03 1.0000000000000000e+00 1.9588469505492593e+01 3.4932600262626257e+00 6.2012762660087368e+01 
678 280 2 1.0280074620324633e+00 1.6857226210852223e+03 1.0000000000000000e+00 1.9786212888687103e+01 3.5211203679619030e+00 6.2083894813566566e+01 
629 231 2 1.0280074346415711e+00 -5.3042637539252901e+03 1.0000000000000000e+00 1.9769611872308076e+01 3.5318552471287088e+00 6.2086665165120735e+01 
1338 940 2 1.0280072142801009e+00 1.1187190196935394e+03 1.0000000000000000e+00 1.9542587003467439e+01 3.6124438888402901e+00 6.2103086166164751e+01 
661 263 2 1.0280072240663352e+00 -8.4674481655984619e+03 1.0000000000000000e+00 1.9444238221157111e+01 3.6380971023407063e+00 6.2120438308492240e+01 
1455 1057 2 1.0280072303666390e+00 7.0336595448099115e+02 1.0000000000000000e+00 1.9239279662537989e+01 3.6061214710833154e+00 6.2118144105455727e+01 
1738 1340 2 1.0280071403134521e+00 -5.1927905890683041e+02 1.0000000000000000e+00 1.9364994920101825e+01 3.6834406949729890e+00 6.2163627184214569e+01 
1722 1324 2 1.0280081282007392e+00 3.2655701600768575e+03 1.0000000000000000e+00 1.8775702187972055e+01 3.3937936184279245e+00 6.2172734810252614e+01 
1126 728 2 1.0280040834508015e+00 6.2663244303968186e+03 1.0000000000000000e+00 1.9495217267508718e+01 5.8710298697338343e+00 6.5324923589384611e+01 
1645 1247 2 1.0280066219193311e+00 -3.7752447455428364e+02 1.0000000000000000e+00 1.9393490384315296e+01 3.7400786890963063e+00 6.2211349297818245e+01 
2010 1612 2 1.0280071088415270e+00 -1.4465051984020067e+04 1.0000000000000000e+00 1.9426804340072298e+01 3.7546508415328139e+00 6.2222798480304661e+01 
2008 1610 2 1.0280071538136313e+00 -1.4089623805199297e+04 1.0000000000000000e+00 1.9798078498011993e+01 3.6883122852714996e+00 6.2228658385162696e+01 
1834 1436 2 1.0280069125490769e+00 -2.9862120972360071e+03 1.0000000000000000e+00 1.9454939416571072e+01 3.7822778428418089e+00 6.2247493119967949e+01 
795 397 2 1.0280066264171441e+00 5.7006964290269389e+03 1.0000000000000000e+00 1.9432217088767793e+01 3.8000962948580232e+00 6.2264288152738352e+01 
794 396 2 1.0280070397901326e+00 5.6981541127963756e+03 1.0000000000000000e+00 1.9681307503222495e+01 3.7975550616703608e+00 6.2290072835904574e+01 
548 150 2 1.0280078537256674e+00 1.0899506434343198e+03 1.0000000000000000e+00 1.9105857963494184e+01 3.7876818551325084e+00 6.2322981733211329e+01 
1510 1112 2 1.0280068731263028e+00 5.0359054693910875e+03 1.0000000000000000e+00 1.9409510693537378e+01 3.9352083444919002e+00 6.2395689030204366e+01 
2067 1669 2 1.0280071617109914e+00 -8.0339396938130731e+03 1.0000000000000000e+00 1.9194914359051495e+01 3.9168794158005240e+00 6.2417258544364074e+01 
406 8 2 1.0280066647599440e+00 -3.6457241227929326e+03 1.0000000000000000e+00 1.9699789555958759e+01 3.9311490526885033e+00 6.2424401143663566e+01 
1060 662 2 1.0280073920444841e+00 4.7468027147734267e+02 1.0000000000000000e+00 1.9439828679431010e+01 4.0013791014100590e+00 6.2461957411808363e+01 
1603 1205 2 1.0280068143270724e+00 1.2706206150966570e+03 1.0000000000000000e+00 1.9225133079494590e+01 3.9776049708802170e+00 6.2470426827837102e+01 
1511 1113 2 1.0280074670515809e+00 5.0336103033339341e+03 1.0000000000000000e+00 1.9725686852141905e+01 3.9728116748430415e+00 6.2474775462499295e+01 
842 444 2 1.0280070599297191e+00 -3.2890116397619781e+03 1.0000000000000000e+00 1.9723347136014301e+01 3.9843560292893878e+00 6.2485960630778067e+01 
659 261 2 1.0280069640198584e+00 -2.9447805515317345e+03 1.0000000000000000e+00 1.9551647004511988e+01 4.0215405908579065e+00 6.2487734769404184e+01 
1034 636 2 1.0280071232538042e+00 7.2524239703164985e+03 1.0000000000000000e+00 1.9137205191659241e+01 3.9842522396175117e+00 6.2507534868227417e+01 
1454 1056 2 1.0280066465310844e+00 7.0541915383146579e+02 1.0000000000000000e+00 1.9536000701166824e+01 4.1083798858047205e+00 6.2579492802199930e+01 
1503 1105 2 1.0280067288313588e+00 6.0526989385928046e+03 1.0000000000000000e+00 1.9353197723468369e+01 4.1451335095263424e+00 6.2624535819808763e+01 
1835 1437 2 1.0280068583531794e+00 -2.9832429066967502e+03 1.0000000000000000e+00 1.9613902766914610e+01 4.1502165444357821e+00 6.2637192198748785e+01 
1381 983 2 1.0280072565511669e+00 9.5762649168376684e+03 1.0000000000000000e+00 1.9285857723398586e+01 4.1447395340978073e+00 6.2636398408925487e+01 
1299 901 2 1.0280072611833648e+00 -1.1192639367568377e+03 1.0000000000000000e+00 1.9762146134719178e+01 4.1493110176318870e+00 6.2679454904468884e+01 
1622 1224 2 1.0280070049614458e+00 7.2383885138231733e+02 1.0000000000000000e+00 1.9560470074301172e+01 4.2059591014088085e+00 6.2692396532626859e+01 
665 267 2 1.0280067290086339e+00 -1.6094782826960835e+02 1.0000000000000000e+00 1.9418387982181951e+01 4.2154507181526153e+00 6.2698648497087596e+01 
962 564 2 1.0280072099818987e+00 -6.5284362688503893e+02 1.0000000000000000e+00 1.9842998912285523e+01 4.1580222185017570e+00 6.2726007841148743e+01 
807 409 2 1.0280077151521878e+00 -6.6863073186630129e+02 1.0000000000000000e+00 1.9535333629746816e+01 4.2546345555250396e+00 6.2746778759748942e+01 
698 300 2 1.0280071901609922e+00 -3.2396261792801347e+03 1.0000000000000000e+00 1.9634955845789474e+01 4.2422781881960834e+00 6.2748098667112814e+01 
1623 1225 2 1.0280070026044175e+00 7.2290778887872693e+02 1.0000000000000000e+00 1.9626814265106034e+01 4.2499830493885371e+00 6.2755438368508244e+01 
1602 1204 2 1.0280067766713432e+00 1.2777392884923222e+03 1.0000000000000000e+00 1.9595909875796821e+01 4.3537034282439677e+00 6.2875929441392856e+01 
2011 1613 2 1.0280069330622776e+00 -1.4458163245694202e+04 1.0000000000000000e+00 1.9335398126056532e+01 4.3568390849307441e+00 6.2879715590727798e+01 
432 34 2 1.0280074193704354e+00 -5.9881096577414992e+03 1.0000000000000000e+00 1.8961713309822166e+01 4.2386509069654288e+00 6.2898414262119580e+01 
658 260 2 1.0280067707333871e+00 -2.9427984690936623e+03 1.0000000000000000e+00 1.9538556925147343e+01 4.4152910942106764e+00 6.2946037682330271e+01 
1534 1136 2 1.0280060075615076e+00 4.6836290924491732e+03 1.0000000000000000e+00 1.9548442427424497e+01 4.5244388508550726e+00 6.3091566570195226e+01 
1214 816 2 1.0280066265822234e+00 5.5723347756796993e+03 1.0000000000000000e+00 1.9538372554552701e+01 4.5312009334644072e+00 6.3099632750455946e+01 