LAMMPS data file via write_data, version 30 Jul 2016, timestep = 50000000

3696 atoms
8 atom types

0.0000000000000000e+00 1.0000000000000000e+02 xlo xhi
0.0000000000000000e+00 4.0000000000000000e+01 ylo yhi
0.0000000000000000e+00 4.0000000000000000e+01 zlo zhi

Masses

1 3.896
2 5.36
3 20.064
4 8.378
5 8.378
6 8.378
7 8.378
8 8.378

Atoms # meso-molecular

798 799 2 1.0280000161665337e+00 -7.9202486209452752e+02 1.0000000000000000e+00 1.6383243076008149e+01 9.0318032864315629e+00 1.0696739759902094e+00 
879 880 2 1.0279999796336008e+00 -2.1890677779384218e+03 1.0000000000000000e+00 1.6205335487243502e+01 8.4547898401625403e+00 1.8056246348179790e+00 
3248 3249 2 1.0280000012641748e+00 5.2236750450645513e+02 1.0000000000000000e+00 2.3928572274916757e+01 1.2550374111535465e+01 7.9390019223911823e-01 
1896 1897 2 1.0280000002853806e+00 -6.4946798844357136e+02 1.0000000000000000e+00 2.3001186508407692e+01 1.1438368513886122e+01 1.5992279858678198e+00 
2016 2017 2 1.0279999953122809e+00 -5.6158870359176717e+02 1.0000000000000000e+00 1.5555931415480957e+01 1.2784719660699650e+01 1.2365130654020799e+00 
1554 1555 2 1.0280000003509009e+00 -5.6449840014667132e+02 1.0000000000000000e+00 1.6683469275627143e+01 1.4009713239997101e+01 4.3491305312283030e-01 
500 501 2 1.0279999922151299e+00 3.1274491170063914e+02 1.0000000000000000e+00 1.7657374108794265e+01 1.2789428694586300e+01 4.0275271977161553e-01 
1141 1142 2 1.0279999956703605e+00 -3.2676337193655590e+03 1.0000000000000000e+00 1.9642154311951323e+01 1.3027261184486699e+01 9.6721570667355194e-01 
1139 1140 2 1.0280000049960021e+00 -8.1089788106039020e+02 1.0000000000000000e+00 1.9311829060617967e+01 1.4334504218032830e+01 6.7054559007367642e-01 
1891 1892 2 1.0280000000000000e+00 -5.6307917183341601e+02 1.0000000000000000e+00 2.7433417430604519e+00 4.6691663507263073e+00 2.3666973463852941e+00 
2227 2228 2 1.0280000000000000e+00 -5.6274943023085439e+02 1.0000000000000000e+00 2.9989105087723877e+00 4.4401300601465472e+00 2.9853004174793050e+00 
2387 2388 2 1.0279999707895044e+00 2.2907239455700337e+03 1.0000000000000000e+00 1.6121928957592853e+01 9.3792629583709708e+00 3.3590089379403736e+00 
3104 3105 2 1.0280000147552706e+00 -3.9726055501574308e+02 1.0000000000000000e+00 1.6928087840586301e+01 1.0152198799241255e+01 2.1309171295811673e+00 
3317 3318 2 1.0280000027735077e+00 4.6377686880470419e+03 1.0000000000000000e+00 1.4650758004787983e+01 1.2620275755858865e+01 2.4621843570727036e+00 
261 262 2 1.0279999909922111e+00 5.4836600212925771e+02 1.0000000000000000e+00 1.6103340541126340e+01 1.2113340548629267e+01 2.6404137947917530e+00 
764 765 2 1.0280000022422162e+00 8.2528377477410868e+02 1.0000000000000000e+00 1.7480533414960988e+01 1.1317719701638778e+01 2.1101243415060282e+00 
6 7 2 1.0280000007242092e+00 -4.4475689686284181e+02 1.0000000000000000e+00 2.3082638752242033e+01 1.2410624397805206e+01 2.0282679399523835e+00 
83 84 2 1.0280000010340291e+00 4.6362749329417493e+03 1.0000000000000000e+00 1.4920063869650010e+01 1.3891529797051765e+01 2.7060299412941946e+00 
2602 2603 2 1.0280000084934127e+00 -2.2750650614091933e+03 1.0000000000000000e+00 1.7874864407510746e+01 1.2732898951814295e+01 2.0984334147662347e+00 
2184 2185 2 1.0280000098651683e+00 -5.6514214562202403e+02 1.0000000000000000e+00 1.6953711899796374e+01 1.3412437137357330e+01 3.1878870223348672e+00 
1216 1217 2 1.0280000009139074e+00 -2.2802058752193884e+03 1.0000000000000000e+00 1.9156199496787419e+01 1.4030034068873686e+01 2.0859870450995435e+00 
3230 3231 2 1.0279999896671521e+00 3.1123013370737732e+02 1.0000000000000000e+00 2.0066244968358987e+01 1.2839491077798771e+01 3.3074848348687254e+00 
502 503 2 1.0279999950914795e+00 -3.0147882974347891e+02 1.0000000000000000e+00 1.5623487273144960e+01 1.4644115115019977e+01 3.5654872763318677e+00 
1722 1723 2 1.0279999932292443e+00 -5.6674178138522814e+02 1.0000000000000000e+00 1.7803242386966158e+01 1.4610555506135949e+01 3.0247996998835673e+00 
1000 1001 2 1.0280000031264731e+00 2.2542319319930493e+03 1.0000000000000000e+00 1.6769351616607150e+01 1.5295556506904566e+01 3.3474608574717668e+00 
3344 3345 2 1.0280000449416649e+00 1.0462140176975979e+03 1.0000000000000000e+00 1.5540769397032689e+01 1.0452293903774390e+01 4.1196115719813591e+00 
1961 1962 2 1.0279999334481633e+00 -2.8158685678912507e+03 1.0000000000000000e+00 1.6656820047131870e+01 9.9764226312939108e+00 4.5953513069437921e+00 
3684 3685 2 1.0279999700944409e+00 3.9469878281914163e+02 1.0000000000000000e+00 1.8049442818630979e+01 1.0209356155767123e+01 5.4128702317918815e+00 
1717 1718 2 1.0279999979317429e+00 -1.7380061039465259e+03 1.0000000000000000e+00 1.9071926287455039e+01 1.0269061553096471e+01 5.2876925471758707e+00 
450 451 2 1.0279999865620773e+00 4.0114074088912969e+02 1.0000000000000000e+00 1.4313747843128855e+01 1.1454136122429214e+01 4.7376515822371283e+00 
794 795 2 1.0280000139678676e+00 -3.9598541240809755e+02 1.0000000000000000e+00 1.3617430842020880e+01 1.2366628193448038e+01 4.8087558835569739e+00 
1344 1345 2 1.0279999986061477e+00 -8.2530299041417743e+02 1.0000000000000000e+00 1.5314303549570736e+01 1.2722409990306403e+01 4.7001773323134941e+00 
375 376 2 1.0279999944946283e+00 -2.9601739911453035e+02 1.0000000000000000e+00 1.4107947231313574e+01 1.3857085504109751e+01 5.1488900430315008e+00 
920 921 2 1.0280000116549977e+00 3.0753555443363319e+02 1.0000000000000000e+00 1.9492658137792066e+01 1.3132751849080691e+01 3.7795101277340786e+00 
1136 1137 2 1.0279999703171685e+00 -1.9009725968044654e+03 1.0000000000000000e+00 1.2629207816559413e+01 1.4963075899000563e+01 3.9942522833335476e+00 
211 212 2 1.0280000307868358e+00 6.6667055375453302e+01 1.0000000000000000e+00 1.2908085672212447e+01 1.5509420327483017e+01 4.3917963687955366e+00 
1971 1972 2 1.0280000819932473e+00 2.0695736584770259e+02 1.0000000000000000e+00 2.2868646626278348e+01 6.5860035905473273e+00 7.2244675114270613e+00 
2730 2731 2 1.0280000440106145e+00 -8.4812455593903053e+02 1.0000000000000000e+00 1.9142019000558378e+01 8.9347491984373075e+00 6.3749976016531882e+00 
2179 2180 2 1.0279999055988853e+00 -1.7352827814757193e+03 1.0000000000000000e+00 1.9973897059048024e+01 9.4101102067382669e+00 6.5808502915987157e+00 
190 191 2 1.0280000080342917e+00 -7.4438795688444645e+02 1.0000000000000000e+00 1.5188644570318923e+01 1.3700305479540326e+01 5.6404774169861813e+00 
2433 2434 2 1.0279999756796661e+00 5.6373461083182136e+01 1.0000000000000000e+00 2.3138942274450454e+01 6.6565805584179136e+00 7.9213426477452780e+00 
1863 1864 2 1.0280000278061681e+00 2.0127604447335982e+03 1.0000000000000000e+00 2.1124389270639444e+01 8.2081138325560943e+00 7.3467427780151713e+00 
2918 2919 2 1.0279998723835511e+00 -1.9834971614158334e+02 1.0000000000000000e+00 2.1690207757198234e+01 8.1453761792831081e+00 7.9740457562947853e+00 
555 556 2 1.0280000078738507e+00 4.4246957370117156e+02 1.0000000000000000e+00 1.5769337329320575e+01 1.2552382987022490e+01 7.5410460625617732e+00 
638 639 2 1.0279999932174306e+00 -1.1955314759258179e+03 1.0000000000000000e+00 1.6421160863173540e+01 1.2772367783163309e+01 7.3395738404617514e+00 
3180 3181 2 1.0279999087130229e+00 -3.7665561852453841e+01 1.0000000000000000e+00 2.2028312473691987e+01 8.7239375514788087e+00 9.8736845281955095e+00 
2590 2591 2 1.0279999717103740e+00 -1.0331555192083611e+03 1.0000000000000000e+00 2.1978094688378359e+01 9.0580670672815486e+00 1.0848271547092340e+01 
1488 1489 2 1.0280000307282360e+00 -2.5421841616738748e+03 1.0000000000000000e+00 2.2060904269719227e+01 1.0415868554653603e+01 9.2396666321262018e+00 
650 651 2 1.0280000321525762e+00 -2.1576870865707665e+03 1.0000000000000000e+00 2.2908870418612903e+01 1.0250360523735559e+01 9.4216227162036557e+00 
2434 2435 2 1.0279998776978791e+00 1.7343907699597396e+03 1.0000000000000000e+00 2.1831169456586135e+01 9.5290055281099395e+00 1.2388361827216478e+01 
3675 3676 2 1.0280000075698252e+00 5.0155429327729212e+02 1.0000000000000000e+00 2.7801741717517238e+01 7.1146224347546374e+00 1.3853815686906332e+01 
3548 3549 2 1.0279999915703024e+00 -1.1010468704993850e+03 1.0000000000000000e+00 2.8207033808034158e+01 7.1173570821836529e+00 1.4471433295084379e+01 
2686 2687 2 1.0280000169690251e+00 1.7414865340748024e+03 1.0000000000000000e+00 2.1697371012883309e+01 1.0229533397520894e+01 1.3034764386544143e+01 
2126 2127 2 1.0279998569832722e+00 -3.8586050751075586e+03 1.0000000000000000e+00 2.2543315404435365e+01 1.0614984369438794e+01 1.4373241669734513e+01 
1224 1225 2 1.0279999999647091e+00 -6.5763094560360901e+02 1.0000000000000000e+00 2.8273401404035390e+01 9.1878135366058533e+00 1.3631230136479795e+01 
1107 1108 2 1.0279999985118260e+00 -1.0440393943612421e+03 1.0000000000000000e+00 2.9006931150289631e+01 9.5580509750472142e+00 1.4038214791609672e+01 
1383 1384 2 1.0279999269620113e+00 -1.8973397953062647e+02 1.0000000000000000e+00 2.3748159882951928e+01 1.2056420852164349e+01 1.3061548797779691e+01 
1001 1002 2 1.0280000845842310e+00 2.2479634166083852e+03 1.0000000000000000e+00 2.2973989883942064e+01 1.2093400632718868e+01 1.2984202030609396e+01 
3240 3241 2 1.0279999992776858e+00 -4.4145910436531364e+02 1.0000000000000000e+00 2.4971858205581825e+01 1.3692532483104513e+01 1.3118681013260264e+01 
1434 1435 2 1.0279999888860600e+00 -6.4955018204658029e+02 1.0000000000000000e+00 2.6111727576431726e+01 1.3232206162360288e+01 1.3746810161895592e+01 
1638 1639 2 1.0279999949829588e+00 3.4272783107497207e+03 1.0000000000000000e+00 2.7160937043720953e+01 1.2838226109923356e+01 1.4315619908226003e+01 
1174 1175 2 1.0280000022244107e+00 3.8204052259605834e+02 1.0000000000000000e+00 2.4221241408729441e+01 1.4686054561351749e+01 1.3326609054606671e+01 
3271 3272 2 1.0279999967419928e+00 -4.5227551976873411e+02 1.0000000000000000e+00 2.5440677665303784e+01 1.5925572883418036e+01 1.3167318237564375e+01 
2488 2489 2 1.0280000054159688e+00 -1.6749256821084759e+03 1.0000000000000000e+00 2.6210280642201393e+01 1.5507280177996961e+01 1.3831166099488243e+01 
2127 2128 2 1.0280000343526132e+00 -4.5011897534790796e+03 1.0000000000000000e+00 2.3181618555026404e+01 1.0381066970024371e+01 1.5552599673788558e+01 
1179 1180 2 1.0279999969373277e+00 -2.2860638652591847e+03 1.0000000000000000e+00 2.7730430357349309e+01 9.1246119094279425e+00 1.5322863011150089e+01 
520 521 2 1.0280000032607759e+00 -1.9108768354043633e+02 1.0000000000000000e+00 2.6189800120371984e+01 1.0838993361966871e+01 1.4955881216494291e+01 
1636 1637 2 1.0280000051549227e+00 -7.7699991581065410e+02 1.0000000000000000e+00 2.8182085413959122e+01 1.0451652286050351e+01 1.5507553772793994e+01 
1123 1124 2 1.0280000469128101e+00 -1.8055060854520384e+03 1.0000000000000000e+00 2.2999638900878736e+01 1.1750368436386625e+01 1.5195765523337949e+01 
303 304 2 1.0279999976758776e+00 -5.9241673270000069e+02 1.0000000000000000e+00 2.5247940591418210e+01 1.1132418111709073e+01 1.5223386458015126e+01 
1854 1855 2 1.0280000053320422e+00 -3.7268848203199570e+02 1.0000000000000000e+00 2.6183169002611759e+01 1.2360348321626848e+01 1.5426926005310618e+01 
213 214 2 1.0280000263502962e+00 -2.0367127412353709e+03 1.0000000000000000e+00 2.3878075370334376e+01 1.3922948300484164e+01 1.5162801821624198e+01 
413 414 2 1.0279999771781401e+00 5.0797612310503212e+02 1.0000000000000000e+00 2.3191407411712710e+01 1.3539133413935975e+01 1.5712638964901094e+01 
623 624 2 1.0279999669871300e+00 7.9848345858576931e+02 1.0000000000000000e+00 2.7564865102908428e+01 1.3404814307574682e+01 1.5769425869147618e+01 
53 54 2 1.0280000076990441e+00 3.2350201228223564e+03 1.0000000000000000e+00 2.2765852016004633e+01 1.5429014631822398e+01 1.6355664740415822e+01 
710 711 2 1.0279999984876353e+00 -1.3288738729603847e+02 1.0000000000000000e+00 2.4989354459231802e+01 1.5139904548088092e+01 1.4566359054996525e+01 
517 518 2 1.0279999897558829e+00 -6.9343672058564380e+01 1.0000000000000000e+00 2.8537838899433392e+01 9.4714893158938764e+00 1.6421260325002706e+01 
48 49 2 1.0279999852488608e+00 -5.1973928847522939e+02 1.0000000000000000e+00 2.9068214130766403e+01 1.0485173543646493e+01 1.8120180863408475e+01 
2990 2991 2 1.0280000036245887e+00 -8.4966486968604420e+02 1.0000000000000000e+00 3.0093221037336086e+01 1.0312131464762142e+01 1.6704881483469606e+01 
2923 2924 2 1.0279998695889092e+00 -5.4942812541872463e+01 1.0000000000000000e+00 2.3320798790278154e+01 1.1415980799283441e+01 1.6806472750663527e+01 
1545 1546 2 1.0280001423607250e+00 -3.3864694761511771e+02 1.0000000000000000e+00 2.4010892858372713e+01 1.2451722436595823e+01 1.7383721396655886e+01 
3449 3450 2 1.0279999989713273e+00 -4.3970628767670121e+02 1.0000000000000000e+00 2.9561639077975798e+01 1.1170333168331000e+01 1.6514730072505532e+01 
2006 2007 2 1.0279999604766734e+00 3.4586556873233135e+03 1.0000000000000000e+00 2.7557838438273528e+01 1.4297914493632932e+01 1.7282556512287581e+01 
202 203 2 1.0280000185471898e+00 5.3061833522179222e+02 1.0000000000000000e+00 2.8248036730458178e+01 1.3237833938296934e+01 1.6836532834970260e+01 
2702 2703 2 1.0279999986980379e+00 2.7934874829188320e+03 1.0000000000000000e+00 3.1135642897929774e+01 1.3959880868277899e+01 1.7478616747950113e+01 
1316 1317 2 1.0280000060338077e+00 2.8095903208804893e+03 1.0000000000000000e+00 3.0516953722998945e+01 1.4527896143144620e+01 1.7504651802377989e+01 
142 143 2 1.0280000024719365e+00 2.8311853142723356e+02 1.0000000000000000e+00 2.2487566795620211e+01 1.4961381640677670e+01 1.6910245399429318e+01 
1017 1018 2 1.0280000000375364e+00 1.1840138733968117e+03 1.0000000000000000e+00 3.2692037811917949e+01 1.5233964525477276e+01 1.7801079141067675e+01 
1565 1566 2 1.0279999967506059e+00 -1.4755793628957058e+03 1.0000000000000000e+00 3.1813717149745120e+01 1.5987076180227604e+01 1.8035082926909251e+01 
3044 3045 2 1.0279999975453702e+00 -2.3184818981473022e+03 1.0000000000000000e+00 2.7176278524664180e+01 1.8613393947816345e+01 1.8027373241633381e+01 
1310 1311 2 1.0280000005092333e+00 2.3658850315484569e+03 1.0000000000000000e+00 3.0823241723680280e+01 5.3191680073527090e+00 1.9812090816906061e+01 
731 732 2 1.0280000007580907e+00 -3.8788304475133236e+03 1.0000000000000000e+00 2.9779183254810473e+01 5.6531092487863548e+00 1.9720099029970402e+01 
3282 3283 2 1.0280000065461716e+00 -5.1861348146637158e+02 1.0000000000000000e+00 2.9437489015496247e+01 9.0670066021037190e+00 1.9151400302730064e+01 
2042 2043 2 1.0279999540478322e+00 -3.8973805827859878e+03 1.0000000000000000e+00 2.4975575589918233e+01 1.0768702057618444e+01 1.9878379805573040e+01 
1901 1902 2 1.0280000143182249e+00 -5.2541722410181978e+02 1.0000000000000000e+00 2.8432024170810994e+01 9.7858968165493536e+00 1.9179918073823785e+01 
1589 1590 2 1.0279998855271826e+00 -3.9890553320725035e+03 1.0000000000000000e+00 2.3974467861108153e+01 1.1739450992814806e+01 1.8317275766894102e+01 
2974 2975 2 1.0280000456639740e+00 -5.3105130615631629e+02 1.0000000000000000e+00 2.4858619337737000e+01 1.1761086648734711e+01 1.9712856702010583e+01 
3647 3648 2 1.0279999966534354e+00 5.1268036711644311e+02 1.0000000000000000e+00 2.6673188136431634e+01 1.1089618550333546e+01 1.9486931060586439e+01 
3280 3281 2 1.0279999868354670e+00 -1.5627928177816650e+03 1.0000000000000000e+00 2.8654663261517697e+01 1.2623220536881021e+01 1.8714410866145268e+01 
46 47 2 1.0280000165395273e+00 -1.5751065647188670e+03 1.0000000000000000e+00 2.9748723108311253e+01 1.1896958716788015e+01 1.8743899988350726e+01 
675 676 2 1.0280000217186174e+00 -1.2926659467294639e+03 1.0000000000000000e+00 2.7676887512765411e+01 1.3917256939973264e+01 1.8704070357475473e+01 
1544 1545 2 1.0279999917375693e+00 3.6212383224583114e+03 1.0000000000000000e+00 3.0019142464788473e+01 1.3346887548356062e+01 1.9028094475082128e+01 
3345 3346 2 1.0279999771886705e+00 2.3721925703941574e+03 1.0000000000000000e+00 2.7745550172008802e+01 1.5418573022347127e+01 1.8748408205739754e+01 
676 677 2 1.0279999999279839e+00 -5.2983801600194101e+03 1.0000000000000000e+00 2.7274517310427292e+01 1.5179588901957905e+01 1.9959037024005081e+01 
1600 1601 2 1.0279999890322953e+00 -3.4515755337845630e+03 1.0000000000000000e+00 3.3017776827991931e+01 1.5013752219167916e+01 1.9254866162967840e+01 
2562 2563 2 1.0280000172043036e+00 2.8146762952604868e+03 1.0000000000000000e+00 3.1689700085316364e+01 1.5431645895160406e+01 1.9428317363743165e+01 
3547 3548 2 1.0280000029291050e+00 -1.2326758263431188e+02 1.0000000000000000e+00 2.9487351241661386e+01 1.7672350109957087e+01 1.8211723329912214e+01 
3125 3126 2 1.0279999923559406e+00 1.1964837002558531e+03 1.0000000000000000e+00 2.9512609082585769e+01 1.6502974460841351e+01 1.8918286004821017e+01 
2956 2957 2 1.0279999973215930e+00 -3.1584070517736659e+03 1.0000000000000000e+00 2.8664641467420804e+01 1.7997872882527059e+01 1.9741537811628920e+01 
2663 2664 2 1.0280000128239943e+00 -9.1348562227412515e+02 1.0000000000000000e+00 2.8348248530704403e+01 1.6714077768909810e+01 1.9890697913577334e+01 
3623 3624 2 1.0280000025040077e+00 3.0116406371634680e+03 1.0000000000000000e+00 2.7274773020651448e+01 1.9490105722254686e+01 1.8293241585632579e+01 
734 735 2 1.0280000002039609e+00 -2.3616195365566173e+03 1.0000000000000000e+00 2.8818592749186280e+01 1.8837679948307116e+01 1.8326279168955384e+01 
2585 2586 2 1.0279999678772413e+00 -3.2407710374970338e+03 1.0000000000000000e+00 3.3063921958655463e+01 3.5256758443211371e+00 2.1720590330964065e+01 
377 378 2 1.0279999968737674e+00 -1.7187861353268207e+02 1.0000000000000000e+00 3.0641138441820164e+01 6.6751758545487325e+00 2.0224461896353738e+01 
552 553 2 1.0280000046046098e+00 -1.9285385493544953e+02 1.0000000000000000e+00 3.0462560593665195e+01 8.4059414001029111e+00 2.0067577442875407e+01 
592 593 2 1.0279999971103821e+00 5.5394149837015166e+03 1.0000000000000000e+00 3.0286038920146904e+01 8.2560015919867329e+00 2.1253708046697191e+01 
3309 3310 2 1.0279999874383583e+00 -1.9791778675336188e+03 1.0000000000000000e+00 2.5543097797225197e+01 1.0051749908000172e+01 2.1552000820232475e+01 
2932 2933 2 1.0280000188858003e+00 1.2819723227734573e+03 1.0000000000000000e+00 2.6389679193011318e+01 9.3848951363848006e+00 2.1237757371022351e+01 
2316 2317 2 1.0279999443293451e+00 -4.4491635220302192e+02 1.0000000000000000e+00 2.9745939524830668e+01 1.0424524051252341e+01 2.0545972527455522e+01 
77 78 2 1.0279999965022357e+00 5.1153792523730215e+02 1.0000000000000000e+00 2.7470600171340227e+01 1.1309282288921565e+01 2.0124510079007930e+01 
2843 2844 2 1.0279999808663358e+00 4.8919680358263145e+02 1.0000000000000000e+00 2.6521528870868643e+01 1.1197284421534516e+01 2.1402084325064251e+01 
2820 2821 2 1.0280000296650347e+00 -6.6430880848544496e+02 1.0000000000000000e+00 3.0505616993402466e+01 1.1249336282497319e+01 2.0605152330861529e+01 
1598 1599 2 1.0280000041070798e+00 -2.5808267681093621e+03 1.0000000000000000e+00 2.9504100459424532e+01 1.3828658589223128e+01 2.1174574222431325e+01 
111 112 2 1.0279999687252377e+00 2.3232438621652104e+03 1.0000000000000000e+00 3.0204724425820512e+01 1.3115286545312170e+01 2.0471297939557935e+01 
2922 2923 2 1.0280000094259001e+00 -1.3661151094832439e+03 1.0000000000000000e+00 3.2891254966108761e+01 1.3675505504915449e+01 2.0227830484986718e+01 
3430 3431 2 1.0279999799919477e+00 -1.5038579643838304e+03 1.0000000000000000e+00 3.2614948945649765e+01 1.4152554141478594e+01 2.0991210819018615e+01 
2061 2062 2 1.0280000008474277e+00 -9.2815593497515931e+02 1.0000000000000000e+00 2.5835544040550030e+01 1.5462130408210930e+01 2.0379901188937861e+01 
2149 2150 2 1.0279999598748124e+00 -1.0495544768236286e+03 1.0000000000000000e+00 3.0940923021212058e+01 1.4660323360171633e+01 2.1797872379857765e+01 
1226 1227 2 1.0279999999999987e+00 -2.7056798243747935e+03 1.0000000000000000e+00 1.7345554235984650e+01 1.7164465992547189e+01 2.1189312877566508e+01 
1058 1059 2 1.0279999999999987e+00 -2.7042515201198448e+03 1.0000000000000000e+00 1.7288713393240940e+01 1.6518676042226449e+01 2.1472451067569072e+01 
1558 1559 2 1.0280000074615687e+00 1.7696082092494319e+03 1.0000000000000000e+00 2.5668268647389642e+01 1.6685245893267378e+01 2.0073334346940904e+01 
2985 2986 2 1.0279999832364353e+00 -1.3012037341663886e+03 1.0000000000000000e+00 2.6521958418180862e+01 1.6785784537700266e+01 2.0996222592943180e+01 
3628 3629 2 1.0280000085545833e+00 4.8621153259188407e+02 1.0000000000000000e+00 3.0974929460524979e+01 1.6688670038019168e+01 2.0181830848748664e+01 
3287 3288 2 1.0279999987127135e+00 3.0607417187249498e+03 1.0000000000000000e+00 3.0302767641990243e+01 1.7465874155467972e+01 2.0246572025125808e+01 
1218 1219 2 1.0279999843639200e+00 1.1778054770709912e+03 1.0000000000000000e+00 3.2377917443635958e+01 5.1955631700946778e+00 2.3174121539373569e+01 
163 164 2 1.0279999929204062e+00 -3.7253500273309055e+02 1.0000000000000000e+00 2.8280479160320674e+01 6.8781462984728563e+00 2.2657985547072752e+01 
3495 3496 2 1.0279999929623143e+00 5.4101657897006407e+02 1.0000000000000000e+00 3.0967617988953165e+01 7.2113672728486069e+00 2.2124868113343503e+01 
3357 3358 2 1.0279999677416676e+00 -3.1335056757633652e+02 1.0000000000000000e+00 2.7547692403874198e+01 8.5616947654413682e+00 2.1902240874071175e+01 
3442 3443 2 1.0280000198762214e+00 -7.2173401827095699e+02 1.0000000000000000e+00 2.7109861531503412e+01 7.5998530869072134e+00 2.2742513179629839e+01 
3397 3398 2 1.0280000068178807e+00 -3.5332140820257797e+02 1.0000000000000000e+00 2.9492742989005798e+01 7.4060470819339139e+00 2.2775247664711785e+01 
2008 2009 2 1.0280000080645637e+00 -4.5184418268034597e+03 1.0000000000000000e+00 2.8006236310939641e+01 8.9200915308467863e+00 2.3348846121886577e+01 
335 336 2 1.0279999968733531e+00 -1.7711029233782708e+03 1.0000000000000000e+00 3.2363434610056039e+01 7.6336442640560902e+00 2.2531845827745286e+01 
3021 3022 2 1.0279999407504310e+00 -5.2815458940781400e+03 1.0000000000000000e+00 2.7654275761445561e+01 1.1613268274647629e+01 2.2403513003767394e+01 
1196 1197 2 1.0280000042246404e+00 -3.2203902985159716e+03 1.0000000000000000e+00 2.7048496187964986e+01 1.2291159475461615e+01 2.3566668013476150e+01 
78 79 2 1.0280000752987897e+00 1.4378380979432231e+03 1.0000000000000000e+00 2.9149988245619440e+01 1.1044298795001239e+01 2.1958027114549051e+01 
37 38 2 1.0279999005720819e+00 -4.5069364983433968e+02 1.0000000000000000e+00 3.0512403006076532e+01 1.1374745193112945e+01 2.2289494526181862e+01 
203 204 2 1.0280000034705048e+00 -4.2065027725051755e+02 1.0000000000000000e+00 3.0655858508561437e+01 1.2120215479755297e+01 2.3412798455557454e+01 
1999 2000 2 1.0280000035186037e+00 2.3111671418893411e+03 1.0000000000000000e+00 2.4868226552855972e+01 1.4458774377502058e+01 2.3360149166160586e+01 
1172 1173 2 1.0279999703760390e+00 -8.1997242551720785e+02 1.0000000000000000e+00 2.8937266444236339e+01 1.2833394598457478e+01 2.2313826578779562e+01 
1131 1132 2 1.0279999950532610e+00 1.0165442403911677e+03 1.0000000000000000e+00 2.8571431677849787e+01 1.4449825531228051e+01 2.2754099408516080e+01 
714 715 2 1.0280000481816991e+00 -2.4435615661645925e+03 1.0000000000000000e+00 3.0221392243427051e+01 1.4054608576016696e+01 2.3219195937292902e+01 
1687 1688 2 1.0280000096797590e+00 -1.0457973117482213e+03 1.0000000000000000e+00 3.1671948478097875e+01 1.4083010391493826e+01 2.2748364865889105e+01 
3049 3050 2 1.0279999968880953e+00 -1.8452247995242233e+03 1.0000000000000000e+00 2.5419762973707346e+01 1.5717151620148183e+01 2.3220398076905077e+01 
1006 1007 2 1.0280000108688097e+00 -2.3064797188993002e+03 1.0000000000000000e+00 2.6875891701920700e+01 1.5173455804196962e+01 2.3243110001983180e+01 
544 545 2 1.0279999912947495e+00 -1.7675512242739992e+03 1.0000000000000000e+00 2.6985210710448250e+01 1.6352719638448079e+01 2.2521877243852231e+01 
2991 2992 2 1.0279999883328921e+00 -1.9497693353157163e+03 1.0000000000000000e+00 2.9232860189298737e+01 1.5732003677168521e+01 2.2934709682561817e+01 
3446 3447 2 1.0280000054626448e+00 1.0859284554514790e+02 1.0000000000000000e+00 2.8459788965008034e+01 1.6143196531370894e+01 2.2137840150576569e+01 
2999 3000 2 1.0279999671373783e+00 -5.1278277612143398e+01 1.0000000000000000e+00 3.1392542950337166e+01 1.5668278467978695e+01 2.3169268712368478e+01 
1260 1261 2 1.0280000092976624e+00 -2.5987786861508073e+02 1.0000000000000000e+00 3.2780213981815322e+01 5.3573630722208421e+00 2.3806857695548299e+01 
3074 3075 2 1.0280000032707177e+00 8.1900728085909589e+02 1.0000000000000000e+00 3.1864793131466406e+01 7.1473027103735216e+00 2.3648425982978313e+01 
3441 3442 2 1.0279999788554399e+00 1.6183527533734764e+02 1.0000000000000000e+00 2.8900013356803257e+01 7.7409917418413885e+00 2.4243468814450726e+01 
3384 3385 2 1.0279999931630783e+00 1.3889309705087695e+02 1.0000000000000000e+00 2.9992601586081246e+01 8.0263049069964296e+00 2.4875323238552856e+01 
3325 3326 2 1.0280000067078492e+00 2.8482814142462307e+03 1.0000000000000000e+00 3.1203523950402641e+01 9.0528361211382649e+00 2.4389416235098619e+01 
2150 2151 2 1.0279999803094817e+00 2.6655617332228935e+03 1.0000000000000000e+00 3.2927099206808364e+01 8.1980645002558621e+00 2.3881518063665641e+01 
1143 1144 2 1.0280000092117247e+00 -2.1066925491929305e+03 1.0000000000000000e+00 2.8669337928476164e+01 1.0087429371130106e+01 2.3803400817150909e+01 
3437 3438 2 1.0280000052621845e+00 -4.1762401264160843e+02 1.0000000000000000e+00 3.0383215008123578e+01 9.4416920674170104e+00 2.3907667222690062e+01 
1197 1198 2 1.0279999962026958e+00 -2.0022691176778965e+03 1.0000000000000000e+00 2.6890607658027974e+01 1.1778687707993271e+01 2.4845919075142447e+01 
2099 2100 2 1.0280000142784429e+00 -2.5389554247092615e+03 1.0000000000000000e+00 2.8781470232269136e+01 1.1406192371160884e+01 2.3999271609741992e+01 
1632 1633 2 1.0279998577548375e+00 4.7102835217901120e+03 1.0000000000000000e+00 3.0386173380124749e+01 1.2642472268922203e+01 2.4635571722285032e+01 
3058 3059 2 1.0279999984860702e+00 -5.8575567445242234e+02 1.0000000000000000e+00 2.5457742693892289e+01 1.3225987283736812e+01 2.4260052716117180e+01 
748 749 2 1.0279999927740360e+00 -5.4078435721047799e+02 1.0000000000000000e+00 2.6597633214819457e+01 1.3706999926581362e+01 2.4818358831987986e+01 
1169 1170 2 1.0280000395740103e+00 -7.8813908051222120e+02 1.0000000000000000e+00 2.8841526969436391e+01 1.2903826036158549e+01 2.3935432371145794e+01 
1215 1216 2 1.0280000659288029e+00 1.0138520677133214e+03 1.0000000000000000e+00 2.9168162092051027e+01 1.4521962718457395e+01 2.5210774889452580e+01 
3004 3005 2 1.0279999971492235e+00 -8.9264421361223549e+02 1.0000000000000000e+00 2.4724152872628501e+01 1.5015362400687293e+01 2.4662733978453890e+01 
2542 2543 2 1.0280000077458340e+00 -4.8586707536839180e+02 1.0000000000000000e+00 2.5829573986192589e+01 1.5336132961523139e+01 2.5427658876207687e+01 
2840 2841 2 1.0279999935073436e+00 -1.3092059174608175e+02 1.0000000000000000e+00 2.6667329124933580e+01 1.5940471244290391e+01 2.4722923450054434e+01 
1140 1141 2 1.0279999688839698e+00 4.6105433288598697e+03 1.0000000000000000e+00 3.1989687930963747e+01 1.5855004598670957e+01 2.4208960699605139e+01 
671 672 2 1.0280000156919493e+00 -2.1271953945323289e+03 1.0000000000000000e+00 3.1760830576319524e+01 1.4665577472059441e+01 2.4921539765451072e+01 
82 83 2 1.0279999681722003e+00 -2.3462387125073014e+03 1.0000000000000000e+00 2.7796940700093767e+01 1.7282888727523119e+01 2.5237414904590661e+01 
418 419 2 1.0280000417256911e+00 -2.3654516983777380e+03 1.0000000000000000e+00 2.8335928174764202e+01 1.6652290714736221e+01 2.5360233096125079e+01 
2769 2770 2 1.0279999951208394e+00 -1.8418470633367812e+02 1.0000000000000000e+00 3.1271965175319973e+01 6.9104642191225576e+00 2.7161201875019490e+01 
1841 1842 2 1.0280000026829077e+00 -6.7514044491004699e+02 1.0000000000000000e+00 3.2795611904961611e+01 6.7083890860097330e+00 2.6917137185534859e+01 
1385 1386 2 1.0280000019486646e+00 -1.8183317005436963e+03 1.0000000000000000e+00 2.8768043074676562e+01 8.8999885903904001e+00 2.5912722484681616e+01 
963 964 2 1.0279999687413317e+00 -1.4653061366380405e+02 1.0000000000000000e+00 3.0701910259069432e+01 9.0319730930263642e+00 2.6782747974154201e+01 
1847 1848 2 1.0279999941367697e+00 -1.0293796424087309e+03 1.0000000000000000e+00 2.9187053607603371e+01 9.6932147211660009e+00 2.5700556366760654e+01 
1852 1853 2 1.0279999558616382e+00 9.9058797298948923e+02 1.0000000000000000e+00 3.3208155195410299e+01 1.0100198815168890e+01 2.6476353293320845e+01 
3312 3313 2 1.0280000236218012e+00 1.4334709697819487e+03 1.0000000000000000e+00 3.1737141247109470e+01 9.4909636830562718e+00 2.6602509204295814e+01 
867 868 2 1.0280000058186511e+00 2.8580166371116491e+02 1.0000000000000000e+00 2.6094913416881145e+01 1.2482957856607650e+01 2.5563355734318350e+01 
3410 3411 2 1.0279999580280585e+00 -4.0675228621756577e+02 1.0000000000000000e+00 3.2604825641107062e+01 1.1136369605364282e+01 2.7152010876178959e+01 
251 252 2 1.0279999366852539e+00 7.7892065768252934e+01 1.0000000000000000e+00 2.8458488825567603e+01 1.4536382499374236e+01 2.5526627496221142e+01 
414 415 2 1.0279999752485172e+00 1.4308400220307699e+03 1.0000000000000000e+00 3.0693902463942280e+01 1.2827017227255702e+01 2.6062304979296879e+01 
460 461 2 1.0279998573823081e+00 -2.0506251982275517e+03 1.0000000000000000e+00 3.1103570394958670e+01 1.3587449131961822e+01 2.6703138098961283e+01 
91 92 2 1.0280001153633993e+00 2.8370543496081532e+03 1.0000000000000000e+00 3.2857803097429652e+01 1.3380041789659639e+01 2.6736743176213036e+01 
755 756 2 1.0279999510083300e+00 -2.1227220367238306e+03 1.0000000000000000e+00 3.2125601588095705e+01 1.5121163977487086e+01 2.5978882922205692e+01 
3486 3487 2 1.0279999961141366e+00 5.7856221309964451e-01 1.0000000000000000e+00 3.1229610965268311e+01 5.0445042793557358e+00 2.7956137605297535e+01 
2561 2562 2 1.0280000062516943e+00 -1.9876785741397607e+03 1.0000000000000000e+00 3.0597090566129964e+01 5.3473572777886131e+00 2.8259907023280757e+01 