LAMMPS data file via write_data, version 30 Jul 2016, timestep = 50400000

3696 atoms
8 atom types

0.0000000000000000e+00 1.0000000000000000e+02 xlo xhi
0.0000000000000000e+00 4.0000000000000000e+01 ylo yhi
0.0000000000000000e+00 4.0000000000000000e+01 zlo zhi

Masses

1 3.896
2 5.36
3 20.064
4 8.378
5 8.378
6 8.378
7 8.378
8 8.378

Atoms # meso-molecular

2227 2228 2 1.0280000000000000e+00 -5.6274943023085439e+02 1.0000000000000000e+00 3.1463499990779886e+00 3.5938142249564216e+00 1.2708388264714907e+00 
1891 1892 2 1.0280000000000000e+00 -5.6307917183341601e+02 1.0000000000000000e+00 2.8907812333660527e+00 3.8228505155361816e+00 6.5223575537747880e-01 
879 880 2 1.0279999814452854e+00 -2.1890677768470282e+03 1.0000000000000000e+00 1.6318557810008578e+01 7.9090596228507000e+00 6.0381506863951284e-01 
3104 3105 2 1.0280000132058640e+00 -3.9726055111671923e+02 1.0000000000000000e+00 1.7040628053859596e+01 9.6055086548432396e+00 9.2634230385613425e-01 
764 765 2 1.0280000015054296e+00 8.2528377789038620e+02 1.0000000000000000e+00 1.7591572286165249e+01 1.0771926365626626e+01 8.9982971738048012e-01 
1896 1897 2 1.0280000003099459e+00 -6.4946798844357136e+02 1.0000000000000000e+00 2.3108191419338581e+01 1.0891947483102767e+01 3.7895156968748023e-01 
3317 3318 2 1.0280000017449633e+00 4.6377686880470419e+03 1.0000000000000000e+00 1.4761078101105621e+01 1.2073808535744348e+01 1.2480767816393779e+00 
2016 2017 2 1.0279999981092280e+00 -5.6158870342164630e+02 1.0000000000000000e+00 1.5665861739677966e+01 1.2238384589573071e+01 2.2470777059202772e-02 
261 262 2 1.0279999912960895e+00 5.4836600353400377e+02 1.0000000000000000e+00 1.6213506094060055e+01 1.1567561753423460e+01 1.4270724655195384e+00 
2602 2603 2 1.0280000079369815e+00 -2.2750650603586646e+03 1.0000000000000000e+00 1.7984744265724743e+01 1.2186882234593492e+01 8.8415536478343615e-01 
6 7 2 1.0280000009150736e+00 -4.4475689686284181e+02 1.0000000000000000e+00 2.3189651640680392e+01 1.1864304469250257e+01 8.0806599661118117e-01 
83 84 2 1.0280000013823376e+00 4.6362749329417493e+03 1.0000000000000000e+00 1.5030130766110334e+01 1.3345447145308380e+01 1.4917899461082944e+00 
1722 1723 2 1.0279999944599512e+00 -5.6674178129427867e+02 1.0000000000000000e+00 1.7912678878704977e+01 1.4064827993729191e+01 1.8098948483553980e+00 
1216 1217 2 1.0280000014792317e+00 -2.2802058749070120e+03 1.0000000000000000e+00 1.9265000805945203e+01 1.3484366149482172e+01 8.7021903077522555e-01 
2387 2388 2 1.0279999733760912e+00 2.2907239476508662e+03 1.0000000000000000e+00 1.6238138225852115e+01 8.8335174465106459e+00 2.1587774745864770e+00 
3344 3345 2 1.0280000418579052e+00 1.0462140209698098e+03 1.0000000000000000e+00 1.5655830495078819e+01 9.9054179423537434e+00 2.9177462765971591e+00 
1961 1962 2 1.0279999383470517e+00 -2.8158685540559286e+03 1.0000000000000000e+00 1.6770432425647666e+01 9.4303491337787033e+00 3.3958898867816729e+00 
450 451 2 1.0279999874773265e+00 4.0114074326309674e+02 1.0000000000000000e+00 1.4424065419816428e+01 1.0909143662404903e+01 3.5286523069099207e+00 
794 795 2 1.0280000126338023e+00 -3.9598541192294113e+02 1.0000000000000000e+00 1.3726897686412247e+01 1.1820435234520858e+01 3.5977890162239223e+00 
1344 1345 2 1.0279999996233835e+00 -8.2530298961255789e+02 1.0000000000000000e+00 1.5424523908547775e+01 1.2176334252244962e+01 3.4883345084420649e+00 
3230 3231 2 1.0279999900649117e+00 3.1123013375285205e+02 1.0000000000000000e+00 2.0175104437747066e+01 1.2293408869905431e+01 2.0908569409650277e+00 
920 921 2 1.0280000108922089e+00 3.0753555452458266e+02 1.0000000000000000e+00 1.9601672392355354e+01 1.2586507463781922e+01 2.5633737810027233e+00 
1136 1137 2 1.0279999709056520e+00 -1.9009725968044654e+03 1.0000000000000000e+00 1.2740808879398456e+01 1.4415715348705282e+01 2.7796468396451641e+00 
502 503 2 1.0279999958812733e+00 -3.0147882963880977e+02 1.0000000000000000e+00 1.5733272731901033e+01 1.4098067508204840e+01 2.3509962664366597e+00 
2184 2185 2 1.0280000085871166e+00 -5.6514214553107456e+02 1.0000000000000000e+00 1.7063327163208907e+01 1.2866347147707124e+01 1.9739908733573570e+00 
211 212 2 1.0280000301905705e+00 6.6667055477771456e+01 1.0000000000000000e+00 1.3019387562911167e+01 1.4962455845772405e+01 3.1769980163378784e+00 
1000 1001 2 1.0280000026902174e+00 2.2542319319930493e+03 1.0000000000000000e+00 1.6879030038758412e+01 1.4749794750521726e+01 2.1326691520229120e+00 
2730 2731 2 1.0280000448563749e+00 -8.4812454555214799e+02 1.0000000000000000e+00 1.9246083109918242e+01 8.3991188377704997e+00 5.2073530526753125e+00 
2179 2180 2 1.0279999069932373e+00 -1.7352827466412884e+03 1.0000000000000000e+00 2.0073729296082174e+01 8.8754673852479904e+00 5.4143002216558278e+00 
3684 3685 2 1.0279999713014834e+00 3.9469880433182061e+02 1.0000000000000000e+00 1.8153827543767040e+01 9.6683874092299575e+00 4.2301762584050051e+00 
1717 1718 2 1.0279999979844894e+00 -1.7380060946226602e+03 1.0000000000000000e+00 1.9174782651709965e+01 9.7297376102666266e+00 4.1124805812724041e+00 
375 376 2 1.0279999947507765e+00 -2.9601739886647550e+02 1.0000000000000000e+00 1.4218291408548261e+01 1.3311054707235495e+01 3.9362542873902395e+00 
190 191 2 1.0280000074725109e+00 -7.4438795661159804e+02 1.0000000000000000e+00 1.5299151945868031e+01 1.3154478238486012e+01 4.4281083644368424e+00 
1971 1972 2 1.0280000788665933e+00 2.0695736999721819e+02 1.0000000000000000e+00 2.2956735014156553e+01 6.0845279109822803e+00 6.0901602271360229e+00 
2433 2434 2 1.0279999782942739e+00 5.6373457611474066e+01 1.0000000000000000e+00 2.3227341785936002e+01 6.1569138827682384e+00 6.7914448512069683e+00 
1863 1864 2 1.0280000289676621e+00 2.0127604828133844e+03 1.0000000000000000e+00 2.1227652090886938e+01 7.6923096675709033e+00 6.2119493344559986e+00 
2918 2919 2 1.0279998758425350e+00 -1.9834968414707060e+02 1.0000000000000000e+00 2.1790029793505656e+01 7.6323280104828681e+00 6.8411522622997651e+00 
638 639 2 1.0279999923953012e+00 -1.1955314757439189e+03 1.0000000000000000e+00 1.6531996713461837e+01 1.2223233004657120e+01 6.1234941090240884e+00 
555 556 2 1.0280000087428294e+00 4.4246957383759576e+02 1.0000000000000000e+00 1.5880112344621462e+01 1.2003176212454948e+01 6.3250646191314539e+00 
1925 1926 2 1.0279999999999996e+00 2.5357444864040272e+03 1.0000000000000000e+00 3.3303721738793996e+01 2.5981990470485612e+00 8.9844808679647237e+00 
3180 3181 2 1.0279999104950999e+00 -3.7665530237431447e+01 1.0000000000000000e+00 2.2137673231411096e+01 8.2203022958750793e+00 8.7693683748149969e+00 
1488 1489 2 1.0280000298654139e+00 -2.5421841620376726e+03 1.0000000000000000e+00 2.2166513077022234e+01 9.9039885800159890e+00 8.1366896843154688e+00 
650 651 2 1.0280000310638457e+00 -2.1576870869345644e+03 1.0000000000000000e+00 2.3019312694495714e+01 9.7376347239076022e+00 8.3196639624302033e+00 
2590 2591 2 1.0279999754366771e+00 -1.0331555096010416e+03 1.0000000000000000e+00 2.2090121592939507e+01 8.5521818967802954e+00 9.7442157520942274e+00 
2434 2435 2 1.0279998823113388e+00 1.7343907802613305e+03 1.0000000000000000e+00 2.1952715981132425e+01 9.0254036178742254e+00 1.1289066031506884e+01 
1224 1225 2 1.0279999998981426e+00 -6.5763094560360901e+02 1.0000000000000000e+00 2.8389693160132570e+01 8.6933339759880930e+00 1.2562198548279842e+01 
2686 2687 2 1.0280000160383631e+00 1.7414865419587879e+03 1.0000000000000000e+00 2.1822502508077463e+01 9.7202428075621921e+00 1.1937576427328873e+01 
1001 1002 2 1.0280000807474527e+00 2.2479634173359809e+03 1.0000000000000000e+00 2.3093732412074246e+01 1.1588683084503453e+01 1.1895651323734858e+01 
1383 1384 2 1.0279999303058396e+00 -1.8973397996560126e+02 1.0000000000000000e+00 2.3868275672543270e+01 1.1551634785237678e+01 1.1974951858979621e+01 
3240 3241 2 1.0279999991975972e+00 -4.4145910206254746e+02 1.0000000000000000e+00 2.5089183180059930e+01 1.3188909751140143e+01 1.2035506706729622e+01 
1174 1175 2 1.0280000022225551e+00 3.8204052309759356e+02 1.0000000000000000e+00 2.4338671202575036e+01 1.4183036793835219e+01 1.2241359158146818e+01 
1434 1435 2 1.0279999896353273e+00 -6.4955017842502764e+02 1.0000000000000000e+00 2.6228544676440816e+01 1.2732170574407723e+01 1.2668247849778783e+01 
3271 3272 2 1.0279999966852638e+00 -4.5227551972325938e+02 1.0000000000000000e+00 2.5558343148086024e+01 1.5422490774510187e+01 1.2082084914017413e+01 
3675 3676 2 1.0280000078670473e+00 5.0155429327729212e+02 1.0000000000000000e+00 2.7917804741400090e+01 6.6199277217830614e+00 1.2783676819344256e+01 
3548 3549 2 1.0279999912149302e+00 -1.1010468704993850e+03 1.0000000000000000e+00 2.8323067420435351e+01 6.6228918525274620e+00 1.3401257233379802e+01 
1179 1180 2 1.0279999968195421e+00 -2.2860638648953868e+03 1.0000000000000000e+00 2.7847045520700728e+01 8.6305577577716779e+00 1.4254178137409356e+01 
1107 1108 2 1.0279999984902761e+00 -1.0440393943612421e+03 1.0000000000000000e+00 2.9123069079076302e+01 9.0634962406991981e+00 1.2969204725416143e+01 
2126 2127 2 1.0279998638228800e+00 -3.8586050682748250e+03 1.0000000000000000e+00 2.2664941533893028e+01 1.0111246443419812e+01 1.3282465386941212e+01 
2127 2128 2 1.0280000325905245e+00 -4.5011897495478970e+03 1.0000000000000000e+00 2.3298728185404599e+01 9.8755510548433545e+00 1.4462831222216911e+01 
303 304 2 1.0279999981524917e+00 -5.9241673067808415e+02 1.0000000000000000e+00 2.5365273758596302e+01 1.0633894199840407e+01 1.4146171129003385e+01 
520 521 2 1.0280000029627652e+00 -1.9108768246512130e+02 1.0000000000000000e+00 2.6306768956987501e+01 1.0340939025622978e+01 1.3879688163619717e+01 
1636 1637 2 1.0280000052844582e+00 -7.7699991490115940e+02 1.0000000000000000e+00 2.8298166711845774e+01 9.9575907489646482e+00 1.4438961947195381e+01 
1123 1124 2 1.0280000451177136e+00 -1.8055060830076061e+03 1.0000000000000000e+00 2.3116648009691243e+01 1.1244247361475356e+01 1.4106972961682954e+01 
1638 1639 2 1.0279999948644500e+00 3.4272783129325080e+03 1.0000000000000000e+00 2.7276500606072400e+01 1.2340857295282646e+01 1.3240440173833045e+01 
1854 1855 2 1.0280000051014693e+00 -3.7268848122500145e+02 1.0000000000000000e+00 2.6300100508692992e+01 1.1863377818007864e+01 1.4351106095938142e+01 
213 214 2 1.0280000251444341e+00 -2.0367127406896741e+03 1.0000000000000000e+00 2.3993918459075122e+01 1.3418952798530015e+01 1.4076110013773365e+01 
710 711 2 1.0279999987629895e+00 -1.3288738712204386e+02 1.0000000000000000e+00 2.5107209384708035e+01 1.4637251004895752e+01 1.3480715266217935e+01 
2488 2489 2 1.0280000052652658e+00 -1.6749256818363053e+03 1.0000000000000000e+00 2.6328348207325334e+01 1.5004379894528377e+01 1.2746012941669402e+01 
517 518 2 1.0279999894788876e+00 -6.9343671424756636e+01 1.0000000000000000e+00 2.8653719981599760e+01 8.9784608730743987e+00 1.5352989524742945e+01 
3449 3450 2 1.0279999989762436e+00 -4.3970628731290333e+02 1.0000000000000000e+00 2.9676580910972973e+01 1.0677079286973422e+01 1.5448243867189197e+01 
2990 2991 2 1.0280000035800738e+00 -8.4966486941319579e+02 1.0000000000000000e+00 3.0208149474398319e+01 9.8190314622748147e+00 1.5638470638924778e+01 
2923 2924 2 1.0279998749847470e+00 -5.4942813479982419e+01 1.0000000000000000e+00 2.3441256307930029e+01 1.0910237277851428e+01 1.5719336699192615e+01 
1545 1546 2 1.0280001368635783e+00 -3.3864694719231278e+02 1.0000000000000000e+00 2.4130306196425842e+01 1.1946384977251977e+01 1.6295771308812309e+01 
413 414 2 1.0279999786903704e+00 5.0797612310503212e+02 1.0000000000000000e+00 2.3306599178743205e+01 1.3035850939315930e+01 1.4624755008383843e+01 
142 143 2 1.0280000028235992e+00 2.8311853140608389e+02 1.0000000000000000e+00 2.2602692425548135e+01 1.4455726642213131e+01 1.5821482151218571e+01 
623 624 2 1.0279999676516136e+00 7.9848346002831875e+02 1.0000000000000000e+00 2.7678287818973192e+01 1.2908193266815815e+01 1.4696840978942491e+01 
2006 2007 2 1.0279999601424168e+00 3.4586556884147071e+03 1.0000000000000000e+00 2.7671534600879884e+01 1.3800482979288702e+01 1.6210804896861820e+01 
202 203 2 1.0280000188965677e+00 5.3061833576748904e+02 1.0000000000000000e+00 2.8360614842120949e+01 1.2742265017215372e+01 1.5763887392442458e+01 
53 54 2 1.0280000069290316e+00 3.2350201228223564e+03 1.0000000000000000e+00 2.2881140131971243e+01 1.4924061655307588e+01 1.5266541085351351e+01 
3282 3283 2 1.0280000065169594e+00 -5.1861348002389855e+02 1.0000000000000000e+00 2.9553934594762307e+01 8.5801393006601359e+00 1.8089276238230877e+01 
48 49 2 1.0279999851380013e+00 -5.1973928642445787e+02 1.0000000000000000e+00 2.9183556610835844e+01 9.9943885694360155e+00 1.7054692047804913e+01 
1901 1902 2 1.0280000143225407e+00 -5.2541722210093144e+02 1.0000000000000000e+00 2.8547360325488135e+01 9.2978015157558467e+00 1.8116429024748623e+01 
1589 1590 2 1.0279998899558100e+00 -3.9890553262980220e+03 1.0000000000000000e+00 2.4091124368612221e+01 1.1232377909771646e+01 1.7227962727020483e+01 
3280 3281 2 1.0279999874401211e+00 -1.5627928150531809e+03 1.0000000000000000e+00 2.8768816846912074e+01 1.2130104680020754e+01 1.7648986052267961e+01 
46 47 2 1.0280000164006711e+00 -1.5751065636274734e+03 1.0000000000000000e+00 2.9862629728790978e+01 1.1404895698085376e+01 1.7679936850364793e+01 
675 676 2 1.0280000219171486e+00 -1.2926659452742724e+03 1.0000000000000000e+00 2.7789532462671126e+01 1.3421827240736731e+01 1.7633803706262096e+01 
2702 2703 2 1.0279999986423625e+00 2.7934874829188320e+03 1.0000000000000000e+00 3.1246922628299277e+01 1.3465291960285624e+01 1.6415885195390466e+01 
1316 1317 2 1.0280000062233321e+00 2.8095903208804893e+03 1.0000000000000000e+00 3.0627899748647831e+01 1.4033514357454221e+01 1.6441775580958264e+01 
1544 1545 2 1.0279999912837485e+00 3.6212383242773008e+03 1.0000000000000000e+00 3.0131783959649205e+01 1.2854550630038222e+01 1.7966523130770248e+01 
3345 3346 2 1.0279999774572433e+00 2.3721925714855511e+03 1.0000000000000000e+00 2.7857607566453265e+01 1.4921956714072952e+01 1.7678407947934296e+01 
3125 3126 2 1.0279999920689162e+00 1.1964837006196510e+03 1.0000000000000000e+00 2.9622714107920423e+01 1.6007727922466358e+01 1.7849660090776265e+01 
1017 1018 2 1.0279999999279099e+00 1.1840138733968117e+03 1.0000000000000000e+00 3.2802978137328388e+01 1.4739071180043751e+01 1.6738116605637170e+01 
1565 1566 2 1.0279999967614561e+00 -1.4755793628957058e+03 1.0000000000000000e+00 3.1924789648081862e+01 1.5492066983935400e+01 1.6971525381206582e+01 
3044 3045 2 1.0279999973237544e+00 -2.3184818981473022e+03 1.0000000000000000e+00 2.7286803108441426e+01 1.8117482441475417e+01 1.6957625399699815e+01 
3547 3548 2 1.0280000030921022e+00 -1.2326758256660936e+02 1.0000000000000000e+00 2.9597848535507591e+01 1.7176526534373682e+01 1.7142601296481715e+01 
3623 3624 2 1.0280000027229883e+00 3.0116406371634680e+03 1.0000000000000000e+00 2.7385141547962135e+01 1.8994220476601519e+01 1.7223454955256624e+01 
734 735 2 1.0280000001980514e+00 -2.3616195365566173e+03 1.0000000000000000e+00 2.8929009652309606e+01 1.8341923094624537e+01 1.7256876185097859e+01 
1310 1311 2 1.0280000004260978e+00 2.3658850315484569e+03 1.0000000000000000e+00 3.0939119613765723e+01 4.8357994358565533e+00 1.8753021790352687e+01 
731 732 2 1.0280000008273591e+00 -3.8788304475133236e+03 1.0000000000000000e+00 2.9895009622330427e+01 5.1697449222494631e+00 1.8661021423553908e+01 
377 378 2 1.0279999968841949e+00 -1.7187861335212625e+02 1.0000000000000000e+00 3.0756910070882881e+01 6.1916654098459922e+00 1.9165601231961315e+01 
552 553 2 1.0280000043692159e+00 -1.9285385453879562e+02 1.0000000000000000e+00 3.0578695298281794e+01 7.9216666258828470e+00 1.9008025355430693e+01 
2042 2043 2 1.0279999563439113e+00 -3.8973805705699519e+03 1.0000000000000000e+00 2.5090764869014734e+01 1.0275108376864550e+01 1.8799055032233962e+01 
3647 3648 2 1.0279999963661501e+00 5.1268037344504285e+02 1.0000000000000000e+00 2.6786797812170235e+01 1.0597762695571141e+01 1.8416984153835401e+01 
77 78 2 1.0279999965402078e+00 5.1153792721819849e+02 1.0000000000000000e+00 2.7584028564328001e+01 1.0818778565149685e+01 1.9057157079034990e+01 
2316 2317 2 1.0279999448684880e+00 -4.4491635074783039e+02 1.0000000000000000e+00 2.9861606005861283e+01 9.9367686177179291e+00 1.9485298556569976e+01 
2820 2821 2 1.0280000295750160e+00 -6.6430880693930396e+02 1.0000000000000000e+00 3.0620141482501516e+01 1.0760657833932079e+01 1.9546111981404490e+01 
2974 2975 2 1.0280000435890808e+00 -5.3105129387392424e+02 1.0000000000000000e+00 2.4971131453130145e+01 1.1264839065469626e+01 1.8629836624171276e+01 
111 112 2 1.0279999688167709e+00 2.3232438639841998e+03 1.0000000000000000e+00 3.0316915135572394e+01 1.2625864904982796e+01 1.9410693938542153e+01 
2922 2923 2 1.0280000096104296e+00 -1.3661151089692014e+03 1.0000000000000000e+00 3.3000810983003696e+01 1.3183066919322611e+01 1.9167626809510072e+01 
3430 3431 2 1.0279999796359394e+00 -1.5038579631105379e+03 1.0000000000000000e+00 3.2724396615488295e+01 1.3660744298967801e+01 1.9931009319036296e+01 
1600 1601 2 1.0279999891667519e+00 -3.4515755330569673e+03 1.0000000000000000e+00 3.3127894335632007e+01 1.4519260897029183e+01 1.8192505930858761e+01 
1058 1059 2 1.0279999999999987e+00 -2.7042515201198448e+03 1.0000000000000000e+00 1.7396275243156722e+01 1.5757968433677267e+01 1.9713424091224514e+01 
1558 1559 2 1.0280000076423441e+00 1.7696082092494319e+03 1.0000000000000000e+00 2.5781294167584658e+01 1.6190936980182091e+01 1.9006213457058220e+01 
2061 2062 2 1.0280000008353178e+00 -9.2815593479326037e+02 1.0000000000000000e+00 2.5948620939663769e+01 1.4967400989033298e+01 1.9312399496026817e+01 
676 677 2 1.0279999997827365e+00 -5.2983801592918144e+03 1.0000000000000000e+00 2.7386861472509523e+01 1.4684465269939032e+01 1.8889500266532622e+01 
2985 2986 2 1.0279999828657269e+00 -1.3012037332568939e+03 1.0000000000000000e+00 2.6634388246898933e+01 1.6290639310575614e+01 1.9929274916681347e+01 
2663 2664 2 1.0280000132811320e+00 -9.1348562172842833e+02 1.0000000000000000e+00 2.8458720312412090e+01 1.6218233643649349e+01 1.8821806150103402e+01 
3628 3629 2 1.0280000088602335e+00 4.8621153338497879e+02 1.0000000000000000e+00 3.1084572903896241e+01 1.6194372545666930e+01 1.9115928584630371e+01 
2562 2563 2 1.0280000174168629e+00 2.8146762959880825e+03 1.0000000000000000e+00 3.1799863646660761e+01 1.4936406177896345e+01 1.8365422190225011e+01 
1226 1227 2 1.0279999999999987e+00 -2.7056798243747935e+03 1.0000000000000000e+00 1.7453116085900433e+01 1.6403758383998007e+01 1.9430285901221950e+01 
2956 2957 2 1.0279999972468818e+00 -3.1584070517736659e+03 1.0000000000000000e+00 2.8775291057803447e+01 1.7502619501550658e+01 1.8672367781105642e+01 
3287 3288 2 1.0279999987351585e+00 3.0607417190887477e+03 1.0000000000000000e+00 3.0412329268052133e+01 1.6971377995807526e+01 1.9179071613057832e+01 
2585 2586 2 1.0279999668804287e+00 -3.2407710374970338e+03 1.0000000000000000e+00 3.3177396669582954e+01 3.0449288399353529e+00 2.0662385547172452e+01 
3442 3443 2 1.0280000196207260e+00 -7.2173401772526017e+02 1.0000000000000000e+00 2.7223410304856685e+01 7.1145657011382761e+00 2.1681600689966302e+01 
163 164 2 1.0279999929623866e+00 -3.7253500218739373e+02 1.0000000000000000e+00 2.8395446992570438e+01 6.3946232377193493e+00 2.1598587206417136e+01 
3397 3398 2 1.0280000062971504e+00 -3.5332140782099270e+02 1.0000000000000000e+00 2.9607629377948793e+01 6.9230112991786639e+00 2.1716974826992288e+01 
3495 3496 2 1.0279999926582324e+00 5.4101658003331738e+02 1.0000000000000000e+00 3.1082638607146919e+01 6.7298692396530235e+00 2.1067360184633063e+01 
335 336 2 1.0279999968307449e+00 -1.7711029224687761e+03 1.0000000000000000e+00 3.2477122979045639e+01 7.1538595120693111e+00 2.1476994823356215e+01 
3357 3358 2 1.0279999685019261e+00 -3.1335056531786353e+02 1.0000000000000000e+00 2.7662313992807402e+01 8.0750507686306658e+00 2.0841528925642798e+01 
2932 2933 2 1.0280000191410605e+00 1.2819723262137218e+03 1.0000000000000000e+00 2.6506100855283659e+01 8.8968934571311014e+00 2.0170015765622029e+01 
592 593 2 1.0279999973233380e+00 5.5394149837015166e+03 1.0000000000000000e+00 3.0401852922587288e+01 7.7724885487140991e+00 2.0194912089985895e+01 
3309 3310 2 1.0279999871815042e+00 -1.9791778633523418e+03 1.0000000000000000e+00 2.5659524055690262e+01 9.5647860967199172e+00 2.0481016273862650e+01 
2843 2844 2 1.0279999814091123e+00 4.8919680926885013e+02 1.0000000000000000e+00 2.6637573735752120e+01 1.0708242196223573e+01 2.0334540384179597e+01 
78 79 2 1.0280000736601425e+00 1.4378380983070210e+03 1.0000000000000000e+00 2.9262408799647496e+01 1.0556380824623730e+01 2.0897993079044682e+01 
37 38 2 1.0279999023144215e+00 -4.5069364535998818e+02 1.0000000000000000e+00 3.0621297405313271e+01 1.0890084558211775e+01 2.1231041032299181e+01 
3021 3022 2 1.0279999425180264e+00 -5.2815458904401612e+03 1.0000000000000000e+00 2.7766595785715907e+01 1.1126763727845663e+01 2.1341483276112061e+01 
1172 1173 2 1.0279999705668126e+00 -8.1997242621125736e+02 1.0000000000000000e+00 2.9049501733272738e+01 1.2344573561144607e+01 2.1253912043843368e+01 
1598 1599 2 1.0280000037209913e+00 -2.5808267673817663e+03 1.0000000000000000e+00 2.9618045860102622e+01 1.3337891232326900e+01 2.0114511915443511e+01 
1131 1132 2 1.0279999951906826e+00 1.0165442411187635e+03 1.0000000000000000e+00 2.8683437948262352e+01 1.3960379003719009e+01 2.1692567664054952e+01 
2149 2150 2 1.0279999594557230e+00 -1.0495544735494477e+03 1.0000000000000000e+00 3.1055213905905809e+01 1.4169753699485648e+01 2.0742125425844353e+01 
1687 1688 2 1.0280000100630591e+00 -1.0457973090197372e+03 1.0000000000000000e+00 3.1786184350799250e+01 1.3594537291076218e+01 2.1691416114847357e+01 
544 545 2 1.0279999915840423e+00 -1.7675512231826056e+03 1.0000000000000000e+00 2.7097144837097506e+01 1.5861246663373278e+01 2.1456752880119399e+01 
3446 3447 2 1.0280000054453124e+00 1.0859284626312632e+02 1.0000000000000000e+00 2.8571992701983074e+01 1.5652322018402398e+01 2.1074919405854697e+01 
1218 1219 2 1.0279999838708314e+00 1.1778054772528901e+03 1.0000000000000000e+00 3.2492372075229355e+01 4.7144448545084048e+00 2.2116520922666080e+01 
1260 1261 2 1.0280000095273292e+00 -2.5987786856960599e+02 1.0000000000000000e+00 3.2894490075408847e+01 4.8759091565559176e+00 2.2748940437778476e+01 
3441 3442 2 1.0279999793830092e+00 1.6183527636643112e+02 1.0000000000000000e+00 2.9015326359269956e+01 7.2585938434380193e+00 2.3185051257436328e+01 
3074 3075 2 1.0280000033828665e+00 8.1900728176825305e+02 1.0000000000000000e+00 3.1978853143271447e+01 6.6675807180404840e+00 2.2592766219435028e+01 
2008 2009 2 1.0280000083109815e+00 -4.5184418260758639e+03 1.0000000000000000e+00 2.8120313673782547e+01 8.4345282681181786e+00 2.2288947240344925e+01 
3325 3326 2 1.0280000082790743e+00 2.8482814153376244e+03 1.0000000000000000e+00 3.1317825124978995e+01 8.5712544092306331e+00 2.3333301742512798e+01 
3437 3438 2 1.0280000044100364e+00 -4.1762401211642634e+02 1.0000000000000000e+00 3.0496997262755382e+01 8.9593560095385048e+00 2.2850576668250401e+01 
2150 2151 2 1.0279999792351877e+00 2.6655617357694787e+03 1.0000000000000000e+00 3.3039007564701791e+01 7.7195744125009789e+00 2.2828175648366038e+01 
1143 1144 2 1.0280000098639681e+00 -2.1066925477377390e+03 1.0000000000000000e+00 2.8782701148101442e+01 9.6013940165536447e+00 2.2745963227229971e+01 
1196 1197 2 1.0280000037186736e+00 -3.2203902977883758e+03 1.0000000000000000e+00 2.7161235011965545e+01 1.1801786629425646e+01 2.2502518306853968e+01 
2099 2100 2 1.0280000149002264e+00 -2.5389554214350806e+03 1.0000000000000000e+00 2.8895250411776555e+01 1.0919455793582076e+01 2.2941852426489675e+01 
1169 1170 2 1.0280000392793163e+00 -7.8813907852082991e+02 1.0000000000000000e+00 2.8955362442991170e+01 1.2416313930766156e+01 2.2879140816956241e+01 
203 204 2 1.0280000028827769e+00 -4.2065027032968879e+02 1.0000000000000000e+00 3.0765811920778727e+01 1.1634295061954033e+01 2.2357979948206914e+01 
1632 1633 2 1.0279998598492974e+00 4.7102835347021446e+03 1.0000000000000000e+00 3.0496110084930876e+01 1.2160812693019091e+01 2.3579838229088477e+01 
1999 2000 2 1.0280000034964607e+00 2.3111671418893411e+03 1.0000000000000000e+00 2.4980463924364791e+01 1.3968653364513942e+01 2.2296065751863292e+01 
3058 3059 2 1.0279999983601928e+00 -5.8575567436147287e+02 1.0000000000000000e+00 2.5570689768050254e+01 1.2736628948650310e+01 2.3196675776326167e+01 
3004 3005 2 1.0279999970800247e+00 -8.9264421361223549e+02 1.0000000000000000e+00 2.4836614873464871e+01 1.4525328019039049e+01 2.3598626013812478e+01 
714 715 2 1.0280000484511704e+00 -2.4435615647094010e+03 1.0000000000000000e+00 3.0334861698965202e+01 1.3565632279433414e+01 2.2163497880220643e+01 
3049 3050 2 1.0279999970895979e+00 -1.8452247995242233e+03 1.0000000000000000e+00 2.5532030325305154e+01 1.5226927013409512e+01 2.2156341406981948e+01 
1006 1007 2 1.0280000104881690e+00 -2.3064797185355023e+03 1.0000000000000000e+00 2.6988243103795540e+01 1.4682775253604857e+01 2.2179140968970856e+01 
2991 2992 2 1.0279999885046611e+00 -1.9497693336786258e+03 1.0000000000000000e+00 2.9344865591331740e+01 1.5241651784673140e+01 2.1872979059102949e+01 
2999 3000 2 1.0279999662749437e+00 -5.1278270540659484e+01 1.0000000000000000e+00 3.1504118122196044e+01 1.5176539927918821e+01 2.2117991957822664e+01 
1140 1141 2 1.0279999658305858e+00 4.6105433360934676e+03 1.0000000000000000e+00 3.2096591365034008e+01 1.5363464106544027e+01 2.3160082186566356e+01 
1385 1386 2 1.0280000003828405e+00 -1.8183316989066059e+03 1.0000000000000000e+00 2.8883659639561891e+01 8.4186099419473628e+00 2.4857236236925473e+01 
3384 3385 2 1.0279999924951044e+00 1.3889309866846207e+02 1.0000000000000000e+00 3.0106000742232226e+01 7.5446346833838493e+00 2.3818161986429541e+01 
1847 1848 2 1.0279999961781878e+00 -1.0293796389535303e+03 1.0000000000000000e+00 2.9302548318880202e+01 9.2115914550595033e+00 2.4645889262584845e+01 
1852 1853 2 1.0279999552664645e+00 9.9058797803229231e+02 1.0000000000000000e+00 3.3317332700510946e+01 9.6296202863186906e+00 2.5432682513478895e+01 
1197 1198 2 1.0279999966259177e+00 -2.0022691171321997e+03 1.0000000000000000e+00 2.7003140764970535e+01 1.1289765780470233e+01 2.3782896315146367e+01 
867 868 2 1.0280000055835241e+00 2.8580166371116491e+02 1.0000000000000000e+00 2.6207615812615913e+01 1.1993765330942271e+01 2.4500398919030850e+01 
414 415 2 1.0279999741688650e+00 1.4308400359409161e+03 1.0000000000000000e+00 3.0804868766544370e+01 1.2356936786626120e+01 2.5008871067136710e+01 
748 749 2 1.0279999931614929e+00 -5.4078435666478117e+02 1.0000000000000000e+00 2.6710510543389663e+01 1.3217658118980662e+01 2.3755369044178359e+01 
1215 1216 2 1.0280000679601642e+00 1.0138520689604227e+03 1.0000000000000000e+00 2.9279026199761557e+01 1.4035672089936083e+01 2.4155870558070550e+01 
251 252 2 1.0279999350991809e+00 7.7892067104109330e+01 1.0000000000000000e+00 2.8568126924984210e+01 1.4049514042430895e+01 2.4469766201271700e+01 
671 672 2 1.0280000215222640e+00 -2.1271953889058177e+03 1.0000000000000000e+00 3.1867884865692183e+01 1.4179119163214375e+01 2.3877837596139280e+01 
2542 2543 2 1.0280000078423688e+00 -4.8586707532291706e+02 1.0000000000000000e+00 2.5941974388624601e+01 1.4846321673380897e+01 2.4364300733062215e+01 
2840 2841 2 1.0279999933987221e+00 -1.3092059160965755e+02 1.0000000000000000e+00 2.6779156190673692e+01 1.5450734888063442e+01 2.3659537106254390e+01 
418 419 2 1.0280000432835257e+00 -2.3654516972863444e+03 1.0000000000000000e+00 2.8447075999811684e+01 1.6163250855523899e+01 2.4298754185094786e+01 
755 756 2 1.0279999476585175e+00 -2.1227220285100270e+03 1.0000000000000000e+00 3.2230549808621902e+01 1.4635789617793620e+01 2.4937258777813501e+01 
82 83 2 1.0279999670103266e+00 -2.3462387121435036e+03 1.0000000000000000e+00 2.7906704641670164e+01 1.6793119167100290e+01 2.4174896409284017e+01 
3486 3487 2 1.0279999960266606e+00 5.7856223410777319e-01 1.0000000000000000e+00 3.1338323450886339e+01 4.5709020535214702e+00 2.6903523858706521e+01 
2561 2562 2 1.0280000065382660e+00 -1.9876785741397607e+03 1.0000000000000000e+00 3.0705616651244060e+01 4.8737069113772593e+00 2.7207428676737237e+01 
2769 2770 2 1.0279999952325547e+00 -1.8418470617451655e+02 1.0000000000000000e+00 3.1380632832529436e+01 6.4368989249074202e+00 2.6110159262217906e+01 
1841 1842 2 1.0280000027179259e+00 -6.7514044481909752e+02 1.0000000000000000e+00 3.2903608684852387e+01 6.2337969800504291e+00 2.5866409882763200e+01 
963 964 2 1.0279999683733174e+00 -1.4653060578175479e+02 1.0000000000000000e+00 3.0813624774848453e+01 8.5587576148493731e+00 2.5732990059690390e+01 
2349 2350 2 1.0280000078905953e+00 -1.5238852272785448e+02 1.0000000000000000e+00 3.1562409332124176e+01 7.4245255049894991e+00 2.6604877812569097e+01 
3312 3313 2 1.0280000242452840e+00 1.4334709722330203e+03 1.0000000000000000e+00 3.1848594475207548e+01 9.0197794347453826e+00 2.5554652845589885e+01 
403 404 2 1.0279999757707616e+00 -4.6032666251789056e+00 1.0000000000000000e+00 2.9427820840930305e+01 1.0425279503186459e+01 2.6940117794135393e+01 
3637 3638 2 1.0279999838347476e+00 -3.0121437233466292e+01 1.0000000000000000e+00 2.9776538274681027e+01 9.7250808897504797e+00 2.6959291060456106e+01 
3410 3411 2 1.0279999561340820e+00 -4.0675228178793901e+02 1.0000000000000000e+00 3.2717315700603812e+01 1.0664593558796138e+01 2.6109859778083695e+01 
460 461 2 1.0279998589258903e+00 -2.0506251607778154e+03 1.0000000000000000e+00 3.1211862818672074e+01 1.3112430670543676e+01 2.5653900654572084e+01 
91 92 2 1.0280001183971694e+00 2.8370543629604308e+03 1.0000000000000000e+00 3.2960640904689434e+01 1.2906715029038255e+01 2.5698254387628857e+01 
781 782 2 1.0279999583416330e+00 -1.9022630553594336e+01 1.0000000000000000e+00 3.0464830990413560e+01 1.1849217438810443e+01 2.7817220330238406e+01 
1715 1716 2 1.0280000569965195e+00 2.6471124729718535e+03 1.0000000000000000e+00 3.1028204214931598e+01 1.2372197144761929e+01 2.8758668641401304e+01 