LAMMPS data file via write_data, version 30 Jul 2016, timestep = 50000000

384 atoms
2 atom types

0.0000000000000000e+00 2.0000000000000000e+01 xlo xhi
0.0000000000000000e+00 2.0000000000000000e+01 ylo yhi
0.0000000000000000e+00 2.0000000000000000e+01 zlo zhi

Masses

1 3.89
2 2.094

Atoms # meso-molecular

107 1 2 7.9999998125041871e-01 7.9563473125639039e-01 1.0000000000000000e+00 2.7919236860160006e+00 4.0576551402129759e+00 2.6915525386605904e-01 
137 1 2 7.9999999999998916e-01 2.7734041652154034e-01 1.0000000000000000e+00 3.9943434791331232e+00 8.2657347886142887e+00 1.1667214873972493e+00 
255 1 2 7.9999999999999694e-01 -2.8085528577453092e+00 1.0000000000000000e+00 7.3324370346434564e-01 1.4981224624937863e+00 2.4102681260261245e+00 
256 1 2 7.9999999999999694e-01 2.9025080062754096e+00 1.0000000000000000e+00 1.3758578260746948e+00 2.1051188069910909e+00 2.4383974295742887e+00 
129 1 2 7.9999999999998916e-01 -3.6198465796510764e+00 1.0000000000000000e+00 4.5248521911224762e+00 7.9114344676835211e+00 1.7792739501473744e+00 
9 1 2 7.9999999999998073e-01 1.2086335826921297e+00 1.0000000000000000e+00 6.5324610102303113e+00 7.2640886764780168e+00 4.5426386252821400e+00 
253 1 2 8.0000001945064936e-01 -5.3429823483155916e+00 1.0000000000000000e+00 1.1811657942557205e-01 8.4785658113375266e+00 7.1358684580615925e+00 
188 1 2 8.0000001178846714e-01 9.2618426251889166e-02 1.0000000000000000e+00 1.1965405027875515e+00 9.3481645093178791e+00 7.0233631000842971e+00 
294 1 2 8.0000006523381018e-01 -6.8373522634688078e-01 1.0000000000000000e+00 1.5628876850032156e+00 6.5401702022805319e-01 8.3034377147959191e+00 
189 1 2 7.9999998428533226e-01 7.5021856347991023e-02 1.0000000000000000e+00 1.0312023434690489e+00 9.2134298531879608e+00 7.9666471785773645e+00 
293 1 2 7.9999992983455970e-01 2.1232481251963335e+00 1.0000000000000000e+00 8.8107270534281690e-01 4.7946970472271400e-01 8.9354014796144234e+00 
103 1 2 8.0000001075686844e-01 4.1070246457829311e+00 1.0000000000000000e+00 3.2658790492501351e+00 1.0890278804394808e+00 9.1577969157655232e+00 
288 1 2 7.9999998234422309e-01 -8.7933412226780500e-02 1.0000000000000000e+00 3.9240495913438180e+00 1.9058532356629876e+00 8.7843288263582089e+00 
239 1 2 8.0000001789405895e-01 -2.2498821781612555e+00 1.0000000000000000e+00 4.9434364073829702e+00 1.4883525183365010e+00 9.6681429127221694e+00 
46 1 2 8.0000000470603527e-01 1.8325875942622056e+00 1.0000000000000000e+00 5.0437906317600163e+00 2.8384701102726213e+00 9.6331103346545994e+00 
238 1 2 7.9999999196099614e-01 -3.4460595662778792e-01 1.0000000000000000e+00 5.4298526040388682e+00 2.2606786518309572e+00 8.8125942992885662e+00 
251 1 2 7.9999999776607833e-01 1.0171179082484133e-01 1.0000000000000000e+00 1.2242537084448770e+00 3.0879322379231509e+00 8.7351033238323463e+00 
187 1 2 8.0000000318817255e-01 3.8711425270913327e-02 1.0000000000000000e+00 9.2683627523881951e-01 4.1200606429966866e+00 8.9142876982522985e+00 
196 1 2 7.9999999757665374e-01 4.1360757323333769e-01 1.0000000000000000e+00 9.7872202857501145e-01 3.3401057643188654e+00 9.9073420990669749e+00 
142 1 2 7.9999997476576790e-01 -2.0614125537769841e+00 1.0000000000000000e+00 2.3629746111328855e+00 3.7204612366973699e+00 9.6655895696881355e+00 
197 1 2 7.9999997218250862e-01 -4.4848317541523935e-02 1.0000000000000000e+00 1.4251222302384559e+00 5.4011260110712085e+00 9.9999600242454161e+00 
260 1 2 8.0000002931966008e-01 5.9045498383852410e-02 1.0000000000000000e+00 2.1019880545213629e+00 4.9836467728812570e+00 9.3425569240397639e+00 
232 1 2 7.9999999999999882e-01 -9.7989969213045280e-01 1.0000000000000000e+00 1.7766876979735149e+00 7.0731018531548973e+00 8.6322736024124485e+00 
95 1 2 7.9999999999999882e-01 -1.4789936527157534e+00 1.0000000000000000e+00 2.5314847788895469e+00 7.5228382666773097e+00 8.7333045655974662e+00 
80 1 2 7.9999999537002175e-01 5.0056052307687759e-01 1.0000000000000000e+00 5.5963637500643287e-02 9.9213623009856029e+00 9.0770892539312502e+00 
265 1 2 7.9999958737324317e-01 -3.8597019234300576e+00 1.0000000000000000e+00 2.2814457419103786e+00 4.5142608469699425e-01 1.0541463435137201e+01 
341 1 2 8.0000001460671522e-01 3.4888968364995693e-01 1.0000000000000000e+00 5.0125542764730326e+00 5.1652275339914411e-01 1.0839408750208703e+01 
72 1 2 8.0000009527200222e-01 2.4594100543994326e+00 1.0000000000000000e+00 5.4085227065110075e-01 1.8693082011752788e+00 1.1298661883982374e+01 
143 1 2 8.0000004340796049e-01 3.0657169801166961e-01 1.0000000000000000e+00 2.3676044289640314e+00 2.7641135975444637e+00 1.0211643425923739e+01 
96 1 2 8.0000000284777339e-01 1.6149769653119146e+00 1.0000000000000000e+00 3.6952409107313606e+00 1.6679360212106709e+00 1.0074602097453846e+01 
377 1 2 8.0000003234630168e-01 9.0377268121073662e-01 1.0000000000000000e+00 3.1288567454983522e+00 2.4557138946629573e+00 1.1344373759000142e+01 
102 1 2 7.9999995974369220e-01 -4.1663460966757210e-01 1.0000000000000000e+00 4.5998561031332938e+00 2.5764422468445236e+00 1.1090277721523535e+01 
133 1 2 7.9999995558873538e-01 4.6824642080239322e-02 1.0000000000000000e+00 6.2972127864272487e+00 2.0103141904147286e+00 1.1154725238844760e+01 
98 1 2 7.9999998907697834e-01 1.2652724850533696e+00 1.0000000000000000e+00 1.1485592429667610e+00 3.9560559055991309e+00 1.1296790898517781e+01 
185 1 2 7.9999996598690193e-01 1.6103778166117102e+00 1.0000000000000000e+00 3.2644788489471561e+00 3.5211097776106630e+00 1.1014945594954742e+01 
93 1 2 8.0000002569940387e-01 1.1007472550223445e+00 1.0000000000000000e+00 5.3830268859026527e+00 3.1928922167526181e+00 1.1023321794495615e+01 
194 1 2 8.0000005422372789e-01 -5.2304276600771482e-01 1.0000000000000000e+00 6.3164666098516664e-01 4.7479623619296492e+00 1.0749246077725788e+01 
370 1 2 7.9999999999999283e-01 8.7466043368945345e-01 1.0000000000000000e+00 4.1667549514592839e+00 8.2020365300039249e+00 1.0416632859392415e+01 
136 1 2 8.0000002785759794e-01 8.0324131054265890e-01 1.0000000000000000e+00 1.0848866288893864e+00 9.7381888948915183e+00 1.0109677178836888e+01 
331 1 2 7.9999999999999283e-01 -2.2895316456722803e-01 1.0000000000000000e+00 3.4312995791866983e+00 8.6017545722838022e+00 1.0702149255770649e+01 
67 1 2 7.9999997287628299e-01 2.2666069785083938e+00 1.0000000000000000e+00 4.5985152365532628e-01 7.5738836562213541e-01 1.1782785478652144e+01 
30 1 2 7.9999998768616054e-01 5.2759814185359366e-01 1.0000000000000000e+00 4.7781667666199574e+00 6.1185510470287607e-01 1.2268233793594757e+01 
349 1 2 8.0000001059101877e-01 9.4056759148593772e-01 1.0000000000000000e+00 5.6912942719453623e+00 3.2699726488145048e-01 1.2108748403166915e+01 
378 1 2 7.9999986311914084e-01 -1.6775803023425897e+00 1.0000000000000000e+00 1.7993108808918359e+00 2.0499433840101551e+00 1.1484359175076168e+01 
134 1 2 8.0000004459169460e-01 4.0123927340400233e-02 1.0000000000000000e+00 5.8701466240998954e+00 2.0423833066818577e+00 1.1976022543810117e+01 
64 1 2 8.0000009343786482e-01 2.2357591174915972e-01 1.0000000000000000e+00 1.2113511623758417e+00 2.8977646930672889e+00 1.1966533175314133e+01 
26 1 2 8.0000003720486013e-01 3.7503996067981560e-01 1.0000000000000000e+00 2.6013428124065467e+00 3.8675384696392867e+00 1.2067408297205693e+01 
27 1 2 8.0000000981212960e-01 9.7328604461639923e-01 1.0000000000000000e+00 2.5418946441363381e+00 5.5988471113908078e+00 1.1776939652968617e+01 
19 1 2 7.9999998565068953e-01 6.7767476428156559e-02 1.0000000000000000e+00 2.2081267086682725e+00 4.6649650067640795e+00 1.2625941624840094e+01 
10 1 2 7.9999999999999538e-01 5.4136669083506317e-01 1.0000000000000000e+00 6.6001128066143853e+00 5.5493764593081494e+00 1.1446769696299151e+01 
384 1 2 7.9999986565581382e-01 4.3319234973354337e-01 1.0000000000000000e+00 2.8359354480955540e-01 6.6937423024912679e+00 1.2851977282284210e+01 
97 1 2 7.9999999207887029e-01 -2.2147095098379723e+00 1.0000000000000000e+00 3.1550201726174079e+00 6.5676885571109160e+00 1.2113386265697422e+01 
57 1 2 8.0000013601328701e-01 3.4091832097243663e-01 1.0000000000000000e+00 3.1040795053223486e-01 7.3619586660339191e+00 1.2271788055281579e+01 
354 1 2 7.9999974286427644e-01 1.1383309539924824e+00 1.0000000000000000e+00 1.7804293236642632e+00 5.7964787431472298e-01 1.3101311873039991e+01 
364 1 2 8.0000025210815695e-01 -2.5921301322373695e+00 1.0000000000000000e+00 1.4208533735355682e+00 1.3547622158947292e+00 1.3330464846345642e+01 
114 1 2 8.0000000615292644e-01 7.6856503764235543e-02 1.0000000000000000e+00 2.6290894012464303e+00 6.0819668790179380e+00 1.2929045872799948e+01 
123 1 2 8.0000002342227783e-01 -3.4808546944657306e-02 1.0000000000000000e+00 5.2504763606592099e-02 4.4686032621580880e+00 1.4625287993388476e+01 
351 1 2 8.0000001626318740e-01 -1.7208636947969316e+00 1.0000000000000000e+00 3.4383848148576330e+00 3.8921063601738370e+00 1.7887224934991170e+01 
352 1 2 7.9999998140984985e-01 2.1674641940613464e+00 1.0000000000000000e+00 3.7315060393864825e+00 3.0701062599666624e+00 1.7743751673192644e+01 
163 1 2 8.0000001610375626e-01 9.1250804907110283e-01 1.0000000000000000e+00 3.4695654612599616e+00 3.6651698748645725e+00 1.9858125163321894e+01 
21 1 2 7.9999999999998983e-01 7.3013411858053745e-01 1.0000000000000000e+00 3.6397861108043945e+00 1.4145123792215971e+01 1.1014820652206756e+00 
85 1 2 7.9999999999998983e-01 3.2662146382919088e-01 1.0000000000000000e+00 4.4801881651446083e+00 1.3876020617135097e+01 1.1606141102692777e+00 
82 1 2 8.0000000000000338e-01 3.9047567939999717e-01 1.0000000000000000e+00 1.5012954691577949e+00 1.4676642681703363e+01 8.8802569787378827e-01 
174 1 2 7.9999999999999916e-01 -2.9007193402408085e+00 1.0000000000000000e+00 5.9709029325131056e+00 1.1555691618292688e+01 2.6880228242088000e+00 
74 1 2 8.0000000000000338e-01 5.3030014343462684e-01 1.0000000000000000e+00 1.2760756881357618e+00 1.5300680784463944e+01 1.4728686059002130e+00 
150 1 2 8.0000002893457167e-01 -4.8255813757550685e+00 1.0000000000000000e+00 1.9900631815664139e-02 1.7595085680636849e+01 2.7831497769239735e+00 
54 1 2 7.9999999999999916e-01 2.2846750841546108e+00 1.0000000000000000e+00 6.4406244224620739e+00 1.1299215603974906e+01 3.3921325503802562e+00 
379 1 2 7.9999999969495850e-01 -2.5631447912137928e-01 1.0000000000000000e+00 5.3836496236178277e-01 1.6433092882613860e+01 3.0301583194329966e+00 
380 1 2 8.0000000862138310e-01 2.6656215525169418e+00 1.0000000000000000e+00 1.1457496810051087e+00 1.6051613446314047e+01 3.7684894835300820e+00 
259 1 2 7.9999996306318721e-01 -2.8988743890497637e+00 1.0000000000000000e+00 3.6855613633836376e-01 1.7627528482665465e+01 4.1154234244998289e+00 
328 1 2 8.0000002061726250e-01 8.3884514681490263e-01 1.0000000000000000e+00 9.3956647733951293e-01 1.8464850622338208e+01 3.4342691834780643e+00 
257 1 2 7.9999998439331077e-01 7.8221242305668504e-01 1.0000000000000000e+00 3.1295640301576250e-02 1.9163254933426106e+01 3.4170179418906241e+00 
154 1 2 7.9999999999999694e-01 -4.2906629567423987e-01 1.0000000000000000e+00 4.6493707338754504e+00 1.9285942235133874e+01 3.6572859430763396e+00 
323 1 2 8.0000001067227555e-01 -2.1574594907943889e-01 1.0000000000000000e+00 6.0638863925409636e-01 1.6823383572850936e+01 4.9859920106743347e+00 
223 1 2 7.9999997977895121e-01 5.4769960991502442e+00 1.0000000000000000e+00 1.4743034875655405e+00 1.6133681529534520e+01 5.0528591137789141e+00 
303 1 2 8.0000003324291902e-01 2.9649880551843205e-01 1.0000000000000000e+00 2.4983358873877681e+00 1.6812010033609340e+01 5.5877192506172522e+00 
309 1 2 8.0000001744425853e-01 2.1751715627544910e-01 1.0000000000000000e+00 2.2202054969816136e+00 1.8043924026199708e+01 5.5563916742592845e+00 
266 1 2 7.9999999767618135e-01 -3.8656427162632685e+00 1.0000000000000000e+00 2.5118710375216613e-01 1.9851629393365574e+01 5.6496945080737255e+00 
210 1 2 7.9999995834850968e-01 2.3757037319836085e+00 1.0000000000000000e+00 8.7836899588991157e-02 1.9376242519129733e+01 4.8110052053215906e+00 
162 1 2 7.9999999999999694e-01 -2.0326703734616660e-03 1.0000000000000000e+00 4.9439949857318135e+00 1.9567642694261437e+01 4.4421618135647005e+00 
261 1 2 7.9999986869400608e-01 3.2841421006641663e-01 1.0000000000000000e+00 2.4100291935906375e+00 1.0846203795534306e+01 6.9365472536490245e+00 
233 1 2 7.9999993570855421e-01 1.4647628993086897e-01 1.0000000000000000e+00 6.6233236848516029e-03 1.8409832577573074e+01 6.2068746468582026e+00 
343 1 2 7.9999997387669541e-01 3.4803856017222570e+00 1.0000000000000000e+00 2.2017651522455561e+00 1.8330896245684283e+01 6.7352543475773707e+00 
310 1 2 7.9999996462934164e-01 6.8535278493038998e-01 1.0000000000000000e+00 3.4878974776044935e+00 1.7392604916173600e+01 5.7675332869947411e+00 
335 1 2 8.0000004705801364e-01 5.6242891486846103e-01 1.0000000000000000e+00 3.2013948299611048e+00 1.7802528589853850e+01 6.8513297236160833e+00 
241 1 2 8.0000006365046938e-01 -7.5045998905604472e-01 1.0000000000000000e+00 1.0397008321045424e+00 1.8709437087633830e+01 5.9446775978394921e+00 
183 1 2 7.9999993539082792e-01 -1.4539152662459061e+00 1.0000000000000000e+00 3.2455111550604132e-01 1.0713344786127884e+01 7.7045276374776677e+00 
70 1 2 8.0000006160830284e-01 -8.8408712329093653e-01 1.0000000000000000e+00 9.6885154730290890e-01 1.1438985395081451e+01 7.5891452006166000e+00 
262 1 2 8.0000013496161393e-01 -2.6763187958873376e+00 1.0000000000000000e+00 2.6222538002800380e+00 1.1669532986752129e+01 7.2054921386631410e+00 
100 1 2 7.9999986779479659e-01 -1.2088258995854541e-01 1.0000000000000000e+00 3.8283489472039540e+00 1.6367719269587862e+01 7.3260581276401560e+00 
36 1 2 8.0000014696952138e-01 1.6102177162314633e+00 1.0000000000000000e+00 3.7054552641901486e+00 1.6833693972752833e+01 8.0832831343221727e+00 
212 1 2 8.0000000494526857e-01 -1.5232680682489947e+00 1.0000000000000000e+00 1.0421882992601814e+00 1.7227409275615138e+01 8.5452157825172179e+00 
362 1 2 7.9999998258439853e-01 1.3131557584492501e+00 1.0000000000000000e+00 4.7842994200786297e-02 1.7519151387746504e+01 8.4881197850424499e+00 
41 1 2 8.0000002235345036e-01 1.7890132414357363e-01 1.0000000000000000e+00 4.9272534589938316e-01 1.1147717537492502e+01 9.6022176883918817e+00 
201 1 2 7.9999999382658948e-01 3.3963330589025453e+00 1.0000000000000000e+00 1.4663673537071411e+00 1.0630078629842517e+01 9.3659541639747630e+00 
283 1 2 8.0000001574082369e-01 3.9096155036187363e-01 1.0000000000000000e+00 2.8297383547653576e-01 1.2259109658651258e+01 8.8732561367649829e+00 
73 1 2 7.9999986999212702e-01 4.3992880287124541e+00 1.0000000000000000e+00 2.4679668473090630e+00 1.1985515492120726e+01 9.0640284948713994e+00 
81 1 2 8.0000012367074913e-01 -1.3515480992029560e+00 1.0000000000000000e+00 3.1981384158399688e+00 1.2380841334828752e+01 8.7430091512426564e+00 
221 1 2 7.9999994228171578e-01 -1.3509179277547620e-01 1.0000000000000000e+00 1.3132331590512247e+00 1.3546980544440078e+01 9.7083020774793791e+00 
297 1 2 8.0000002631965428e-01 -3.7571120659411067e-02 1.0000000000000000e+00 4.1895801368269980e-02 1.7118528560772020e+01 9.9017532923458589e+00 
325 1 2 8.0000001314416291e-01 3.3059373607599123e+00 1.0000000000000000e+00 1.5530483936806612e+00 1.8373281232223544e+01 8.9382699549041895e+00 
130 1 2 8.0000021424944268e-01 -3.0485348631933107e+00 1.0000000000000000e+00 4.9053328690691487e+00 1.7205996171485463e+01 9.3745028936819708e+00 
313 1 2 7.9999980066602872e-01 -2.9410859278115233e+00 1.0000000000000000e+00 4.5943348601268630e+00 1.8023333305342717e+01 9.5350700073680166e+00 
268 1 2 7.9999998953993301e-01 4.9607711011310929e-01 1.0000000000000000e+00 1.7873075389001578e+00 1.9345530093013270e+01 8.8469027811727567e+00 
236 1 2 7.9999996471517731e-01 2.7112799867780550e+00 1.0000000000000000e+00 1.8598982062597074e+00 1.0472312196152618e+01 1.1045655079012398e+01 
180 1 2 8.0000005268935892e-01 -2.3407658179573447e+00 1.0000000000000000e+00 2.5909572278808288e+00 1.0432430276292793e+01 1.0430960429420630e+01 
13 1 2 8.0000002058284414e-01 4.2597046645792586e-01 1.0000000000000000e+00 4.9137489954270759e+00 1.1234823853255598e+01 1.1025273124438957e+01 
23 1 2 7.9999999935458344e-01 -5.2641109278091180e-01 1.0000000000000000e+00 3.4897372959843294e+00 1.1527442556270008e+01 1.0959036160731904e+01 
14 1 2 7.9999999836559088e-01 -2.0796978055434515e-01 1.0000000000000000e+00 4.0099459649670104e+00 1.1523830104673566e+01 1.0058987024836995e+01 
222 1 2 8.0000005245149319e-01 4.8385520374495866e-01 1.0000000000000000e+00 9.5066125365014587e-01 1.3928752602874344e+01 1.0419530500505429e+01 
207 1 2 8.0000000349218858e-01 -3.9419159723509356e-01 1.0000000000000000e+00 3.6371126187460301e+00 1.2898584471317751e+01 1.0403483450063312e+01 
209 1 2 7.9999999396161270e-01 7.7452760963349987e-01 1.0000000000000000e+00 2.9303353955711038e+00 1.3458792278522068e+01 1.1404664950478583e+01 
285 1 2 7.9999999751189643e-01 -2.3644930644206492e+00 1.0000000000000000e+00 4.2896798892930841e+00 1.3061659097657063e+01 1.1264296482197738e+01 
6 1 2 7.9999995464736939e-01 -3.1231172065604382e+00 1.0000000000000000e+00 1.6905843721136520e+00 1.5621464258564224e+01 1.0352381677845944e+01 
234 1 2 8.0000004778712708e-01 2.5610991694657304e+00 1.0000000000000000e+00 1.1945257751350915e+00 1.5787526568338953e+01 1.1084870895217401e+01 
92 1 2 7.9999997826592772e-01 -3.2504130997490246e+00 1.0000000000000000e+00 9.6024440602938910e-01 1.7044934014871377e+01 1.0095596066084045e+01 
278 1 2 8.0000005563037990e-01 -7.0106667470426478e+00 1.0000000000000000e+00 5.6106919829540027e+00 1.7711622366447259e+01 1.0892899819209493e+01 
271 1 2 8.0000040708655695e-01 6.7857863728553669e-01 1.0000000000000000e+00 1.6707959914508734e+00 1.9812113189929338e+01 1.0592730040171832e+01 
132 1 2 8.0000000856845865e-01 -4.7294240862234882e-01 1.0000000000000000e+00 4.7207874385629331e+00 1.9559031848357229e+01 1.1131493780577697e+01 
68 1 2 7.9999999557860257e-01 1.6905726813431143e+00 1.0000000000000000e+00 5.8876238373659167e+00 1.9071954955776654e+01 1.0671817133123374e+01 
50 1 2 7.9999996990313371e-01 1.2369317429263731e+00 1.0000000000000000e+00 3.7130496864385267e+00 1.1632985146232912e+01 1.2820518929205832e+01 
22 1 2 7.9999999117875120e-01 1.3473197196932496e+00 1.0000000000000000e+00 4.8749973054892379e+00 1.1967963382845017e+01 1.1761122902681810e+01 
357 1 2 8.0000002032178108e-01 -1.6791796319973848e-01 1.0000000000000000e+00 3.3040391520682193e+00 1.3570182231486401e+01 1.2386142987186913e+01 
146 1 2 7.9999999992777171e-01 -1.8018623113046170e+00 1.0000000000000000e+00 5.5906248941068553e+00 1.6240877062032276e+01 1.2794617942780430e+01 
383 1 2 8.0000000233157753e-01 6.2092156256546349e-01 1.0000000000000000e+00 3.6817506890786977e+00 1.7772073330996612e+01 1.2484716647494864e+01 
375 1 2 7.9999999967322710e-01 4.6323009181921415e-01 1.0000000000000000e+00 4.8312982820586265e+00 1.7551604837156074e+01 1.2236941013321758e+01 
69 1 2 7.9999999812689193e-01 3.3598181030048191e-01 1.0000000000000000e+00 4.4043677439055235e+00 1.8513171117630577e+01 1.2806659735326051e+01 
192 1 2 7.9999998169093200e-01 -3.3826575182086396e+00 1.0000000000000000e+00 6.1739817485657635e+00 1.7214906535370989e+01 1.1699788221297572e+01 
131 1 2 7.9999999046765313e-01 1.7095790715247015e+00 1.0000000000000000e+00 6.1886307974147545e+00 1.8686483096432582e+01 1.1626880017535040e+01 
115 1 2 8.0000003396610242e-01 1.7114853007658215e+00 1.0000000000000000e+00 4.4195520642933284e+00 1.1119286481551008e+01 1.3045103005797296e+01 
217 1 2 8.0000001910728680e-01 -5.9884715193750504e-01 1.0000000000000000e+00 3.6579999369900080e+00 1.3276634944819010e+01 1.3733840565645755e+01 
281 1 2 7.9999998063683531e-01 9.0868055400521341e-02 1.0000000000000000e+00 4.4353147693106285e+00 1.3453442567407041e+01 1.3197140498557596e+01 
145 1 2 8.0000000915583869e-01 -5.5731046588356307e-02 1.0000000000000000e+00 6.4203184463718896e+00 1.6560887885918042e+01 1.3042102273621682e+01 
342 1 2 8.0002607741498488e-01 3.2088612127983307e-01 1.0000000000000000e+00 3.0660183163336024e-01 1.8938544814874476e+01 1.3047303073011182e+01 
116 1 2 8.0000000000002269e-01 -3.7581429258727197e+00 1.0000000000000000e+00 5.2246076825965622e+00 1.1328515960112039e+01 1.5032393753524875e+01 
11 1 2 7.9999996568326814e-01 2.9305742443971189e-01 1.0000000000000000e+00 4.5997600694536311e+00 1.3756551767811573e+01 1.5087021639771185e+01 
18 1 2 8.0000003527931995e-01 -9.3023718714710968e-01 1.0000000000000000e+00 4.1593109269073336e+00 1.3032347305070310e+01 1.5357222986588861e+01 
186 1 2 8.0000000000002269e-01 3.1057750139329778e+00 1.0000000000000000e+00 5.7586367490262784e+00 1.1290647447417662e+01 1.5736359422065535e+01 
193 1 2 8.0000000000000138e-01 -5.3351809456461430e-01 1.0000000000000000e+00 1.1374317868359324e+01 3.5034192259423906e+00 8.2628812541695285e-01 
60 1 2 8.0000000000000171e-01 2.0373346645337578e+00 1.0000000000000000e+00 1.1753184612108345e+01 8.0537382783062750e-01 1.9651555449537024e+00 
4 1 2 8.0000000000000171e-01 1.1562698357064456e+00 1.0000000000000000e+00 1.1694833076525466e+01 4.2507629330163499e-02 1.5215126795653149e+00 
202 1 2 8.0000000000000138e-01 -4.1853137848335189e+00 1.0000000000000000e+00 1.1931812102340491e+01 3.3385019366910011e+00 1.4927648296708786e+00 
170 1 2 8.0000000000001059e-01 1.8793147239784033e-01 1.0000000000000000e+00 1.3070124289496389e+01 6.9340872822704815e+00 3.9238828067530873e+00 
178 1 2 8.0000000000001059e-01 1.0472678068774026e+00 1.0000000000000000e+00 1.2401973883664841e+01 7.1313694644716445e+00 3.3790493401759125e+00 
356 1 2 8.0000000000000449e-01 -1.7008031735030837e-01 1.0000000000000000e+00 1.0132666472112634e+01 2.3006912066337732e+00 5.6150302604903013e+00 
355 1 2 8.0000000000000449e-01 -1.0603003435350784e+00 1.0000000000000000e+00 1.0868340047393662e+01 1.8133517328869666e+00 5.5560950546210304e+00 
65 1 2 7.9999999999998073e-01 3.3282522306701994e+00 1.0000000000000000e+00 7.0494571759406419e+00 7.2937271705387836e+00 5.2595941712123926e+00 
166 1 2 7.9999999999999993e-01 5.8915433082839447e-02 1.0000000000000000e+00 9.4066529351928949e+00 7.8346240005645051e-01 9.8499114007400372e+00 
229 1 2 7.9999999999999993e-01 6.8345947258109815e-02 1.0000000000000000e+00 9.9962159811198159e+00 3.3132790772355070e-01 9.3701421371875497e+00 
321 1 2 7.9999999999995886e-01 9.0900909211132919e-01 1.0000000000000000e+00 1.2258547270804067e+01 7.6860475181735666e+00 1.1281265205368589e+01 
2 1 2 7.9999999999999538e-01 4.2817929475069227e-01 1.0000000000000000e+00 6.7742938749433321e+00 4.6885638046365150e+00 1.1550939075304836e+01 
322 1 2 7.9999999999995886e-01 -2.4744602767640079e-03 1.0000000000000000e+00 1.2254409750227570e+01 7.6385206904287486e+00 1.2164391930192149e+01 
105 1 2 8.0000000000000082e-01 -6.5293686680432756e+00 1.0000000000000000e+00 1.0038956096762474e+01 8.0243512193044388e+00 1.3885341765000760e+01 
376 1 2 7.9999999999998350e-01 4.6918293073280948e-01 1.0000000000000000e+00 8.1646596648901060e+00 5.2520577193359097e+00 1.5473774767345885e+01 
40 1 2 8.0000000000000082e-01 5.7013366482501029e+00 1.0000000000000000e+00 1.0197653501911383e+01 8.1732504214063653e+00 1.4742565709919393e+01 
320 1 2 7.9999999999998350e-01 -1.6405861690666106e+00 1.0000000000000000e+00 7.7902444398185331e+00 4.7194512845833545e+00 1.6072383450397080e+01 
213 1 2 7.9999999999999849e-01 5.4344544270776005e+00 1.0000000000000000e+00 7.5279523715133454e+00 1.0816246837043176e+01 7.9257576437638877e-01 
339 1 2 7.9999999999999849e-01 6.9317501080281962e-01 1.0000000000000000e+00 7.4239881319219121e+00 1.0017943016635359e+01 1.1587603868524263e+00 
218 1 2 7.9999999838436464e-01 -5.1727525987148599e+00 1.0000000000000000e+00 1.2801829708838858e+01 1.6629252575113767e+01 1.4268885298517193e+00 
330 1 2 7.9999999917416009e-01 5.1450896456345285e-01 1.0000000000000000e+00 1.2108928042381789e+01 1.7256986289813671e+01 1.0268789347711289e+00 
284 1 2 8.0000000192063225e-01 1.1510366385263386e+00 1.0000000000000000e+00 1.3128214913423729e+01 1.8031452354990140e+01 1.1831202238662111e+00 
198 1 2 7.9999999017096513e-01 -2.0623687264683621e+00 1.0000000000000000e+00 1.2934176196440109e+01 1.0490697354999112e+01 2.7732571793641556e+00 
317 1 2 8.0000000098962698e-01 3.1417391737822538e+00 1.0000000000000000e+00 1.2427561810163263e+01 1.1634893510627254e+01 2.6106139383668197e+00 
86 1 2 8.0000000000000049e-01 2.4589119202095614e-02 1.0000000000000000e+00 8.8108166051556580e+00 1.7183216290919411e+01 2.3501884354899394e+00 
87 1 2 8.0000000000000049e-01 3.5842938477199333e-02 1.0000000000000000e+00 9.5393049872626676e+00 1.7184142459874725e+01 2.8516787642856500e+00 
374 1 2 7.9999920902204136e-01 5.0954259315627949e-02 1.0000000000000000e+00 9.4603277424050720e+00 1.0958598030813400e+01 4.0450993711979661e+00 
287 1 2 8.0000001939346288e-01 5.6937647638847733e-01 1.0000000000000000e+00 1.1901194471261125e+01 1.0677242316566556e+01 3.4716239145943311e+00 
286 1 2 8.0000001415894295e-01 -2.2318443664070613e+00 1.0000000000000000e+00 1.3264730023016366e+01 1.1264005055301386e+01 3.9887334480420802e+00 
373 1 2 8.0000078731174473e-01 5.9296650627624306e-02 1.0000000000000000e+00 9.7648389097902903e+00 1.1535991362492092e+01 3.4483738776876751e+00 
295 1 2 7.9999999175778780e-01 4.5847995435794386e-01 1.0000000000000000e+00 1.1590955821748315e+01 1.2190998706811277e+01 3.1788394546148124e+00 
224 1 2 8.0000000792806636e-01 -1.2813297696850250e+00 1.0000000000000000e+00 1.1824993279539067e+01 1.1643201701634316e+01 4.1643869535471030e+00 
84 1 2 7.9999999999999405e-01 -4.4668059798551363e-01 1.0000000000000000e+00 1.0916707954063709e+01 1.2308306991814998e+01 6.8737579953748975e+00 
20 1 2 7.9999999999999405e-01 6.6886596744481386e-01 1.0000000000000000e+00 1.1011687491874385e+01 1.3163453913579911e+01 6.6690842058396012e+00 
45 1 2 7.9999999084002704e-01 3.5633551952621312e-01 1.0000000000000000e+00 1.3156884005108761e+01 1.6819883410507231e+01 7.1145113218873917e+00 
44 1 2 7.9999998097640379e-01 5.7229293263336545e-01 1.0000000000000000e+00 1.3161047949943224e+01 1.7563730773762799e+01 7.7946385117081673e+00 
298 1 2 8.0000000000001059e-01 -3.8209628529857147e+00 1.0000000000000000e+00 1.1428867822201273e+01 1.0597348694968883e+01 9.1457269267981935e+00 
299 1 2 8.0000000000001059e-01 -4.7877752581169464e+00 1.0000000000000000e+00 1.1507478389511787e+01 1.0424268121661196e+01 1.0009470074024277e+01 
184 1 2 8.0000000000002469e-01 3.2036111228058735e+00 1.0000000000000000e+00 9.3809343021874980e+00 1.3955542669072267e+01 1.0635456098622754e+01 
249 1 2 8.0000000000002469e-01 -9.6281274744598977e-01 1.0000000000000000e+00 9.1092957936117145e+00 1.4508227796765471e+01 1.0000680232025070e+01 
214 1 2 7.9999999115317977e-01 3.2700651471717235e+00 1.0000000000000000e+00 7.5592625456134694e+00 1.7959140189236745e+01 1.1366913727180796e+01 
314 1 2 8.0000001534011067e-01 6.9178195142320187e-01 1.0000000000000000e+00 7.4823658588151210e+00 1.7763433497331430e+01 1.2267571136224113e+01 
48 1 2 8.0001198094263681e-01 5.8945695959645983e-01 1.0000000000000000e+00 1.7039934466345759e+01 5.4384176858528450e+00 1.4584512493310980e-01 
5 1 2 7.9999999999999882e-01 -6.2068907185650266e+00 1.0000000000000000e+00 1.9380644382147231e+01 9.4554548698448677e+00 1.4795896871573513e-01 
329 1 2 7.9999999999999638e-01 9.7776762156415925e-02 1.0000000000000000e+00 1.8096896972663927e+01 2.7360522218973924e+00 2.3907861904987247e+00 
337 1 2 7.9999999999999638e-01 8.1320761876279457e-02 1.0000000000000000e+00 1.8560485596985014e+01 3.3344707810503786e+00 1.9334356181903340e+00 
316 1 2 7.9999997958603275e-01 -6.5583711653232672e+00 1.0000000000000000e+00 1.5537871928849270e+01 8.4142326188220515e+00 4.5971870312858156e+00 
308 1 2 8.0000002667710912e-01 3.3949138841004883e-01 1.0000000000000000e+00 1.6218053346518040e+01 8.1301713589365185e+00 5.0898769083266853e+00 
327 1 2 7.9999996977509447e-01 3.6211722861569479e-01 1.0000000000000000e+00 1.4701901694052967e+01 9.9547676302737269e+00 4.3149877896038680e+00 
206 1 2 8.0000000277919125e-01 7.4534318028405266e-01 1.0000000000000000e+00 1.7903737270360772e+01 9.9140308527366194e+00 5.4874077703563993e+00 
111 1 2 7.9999999999999272e-01 -5.6249520010752792e-02 1.0000000000000000e+00 1.8866724430475031e+01 4.7999803042494955e+00 6.2071990108980968e+00 
118 1 2 7.9999999999999272e-01 -3.3058780644523909e+00 1.0000000000000000e+00 1.9636404595116442e+01 5.1121740205896877e+00 5.9033631042564538e+00 
275 1 2 7.9999999101128072e-01 -9.8404056586317595e-02 1.0000000000000000e+00 1.7289311855560374e+01 6.9205569709146983e+00 5.8253769079226494e+00 
267 1 2 8.0000001073083349e-01 1.3037711920390855e+00 1.0000000000000000e+00 1.7298503954541399e+01 6.1164516336153598e+00 6.2160621017748490e+00 
35 1 2 7.9999993739513209e-01 7.6512660675412925e-01 1.0000000000000000e+00 1.6949809985469404e+01 9.2172793776841662e+00 6.8359901511990095e+00 
205 1 2 7.9999997980087578e-01 2.9042138221397433e+00 1.0000000000000000e+00 1.8277311108772373e+01 9.2263578774223234e+00 6.2459484992802095e+00 
333 1 2 7.9999992491773309e-01 1.7097519375557395e+00 1.0000000000000000e+00 1.8463384936151130e+01 3.3605354887444994e-01 8.4582972208441305e+00 
340 1 2 8.0000001727232606e-01 3.6322028704778980e-01 1.0000000000000000e+00 1.9533905774331608e+01 8.8150294920722538e-01 7.9492653531588315e+00 
225 1 2 8.0000000913587288e-01 -3.6825221354090982e+00 1.0000000000000000e+00 1.6934593691888512e+01 4.4019995962241829e+00 8.4099041764508122e+00 
37 1 2 8.0000000672249627e-01 3.4648122955314414e-01 1.0000000000000000e+00 1.6879468230496816e+01 5.5844396056621530e+00 8.2720718509944895e+00 
311 1 2 8.0000022031548090e-01 3.4552070367996541e+00 1.0000000000000000e+00 1.5615771691894077e+01 6.3938991053612355e+00 7.3486557498183416e+00 
247 1 2 7.9999978447258424e-01 -2.8028159958629399e+00 1.0000000000000000e+00 1.5461137409482149e+01 7.0091118589475618e+00 7.9689923498344379e+00 