LAMMPS data file via write_data, version 30 Jul 2016, timestep = 50400000

384 atoms
2 atom types

0.0000000000000000e+00 2.0000000000000000e+01 xlo xhi
0.0000000000000000e+00 2.0000000000000000e+01 ylo yhi
0.0000000000000000e+00 2.0000000000000000e+01 zlo zhi

Masses

1 3.89
2 2.094

Atoms # meso-molecular

107 1 2 7.9999999999996829e-01 7.9563473125639039e-01 1.0000000000000000e+00 2.7497560061026869e+00 4.1912818506739473e+00 2.8257608866529493e-01 
137 1 2 7.9999999999999860e-01 2.7734041652154034e-01 1.0000000000000000e+00 3.9329456179379338e+00 8.1143093386574563e+00 9.7502192016062650e-01 
255 1 2 7.9999999999999694e-01 -2.8085528577453092e+00 1.0000000000000000e+00 7.1882829370957013e-01 1.5116048698621012e+00 2.3578930150223694e+00 
256 1 2 7.9999999999999694e-01 2.9025080062754096e+00 1.0000000000000000e+00 1.3614424163199192e+00 2.1186012143594057e+00 2.3860223185705336e+00 
129 1 2 7.9999999999999860e-01 -3.6198465796510764e+00 1.0000000000000000e+00 4.4634543297496512e+00 7.7600090174507477e+00 1.5875743829049651e+00 
9 1 2 7.9999999999998073e-01 1.2086335826921297e+00 1.0000000000000000e+00 6.4244932855140933e+00 7.2004890904359433e+00 4.6101171603972686e+00 
253 1 2 8.0000001197060921e-01 -5.3429823470917208e+00 1.0000000000000000e+00 1.2348429867270261e-01 8.4794283336902829e+00 7.1376108303542507e+00 
188 1 2 7.9999999857825510e-01 9.2618427049373342e-02 1.0000000000000000e+00 1.2017245104368843e+00 9.3492915435286790e+00 7.0250149455517228e+00 
294 1 2 8.0000003766666783e-01 -6.8373522579606805e-01 1.0000000000000000e+00 1.5671781379701952e+00 6.5469082759793418e-01 8.3080861984340348e+00 
189 1 2 7.9999999995211668e-01 7.5021858179394940e-02 1.0000000000000000e+00 1.0363174581681045e+00 9.2145753949539042e+00 7.9682656996588435e+00 
293 1 2 7.9999996332742351e-01 2.1232481285424476e+00 1.0000000000000000e+00 8.8537881592464740e-01 4.8004604095087722e-01 8.9399841338273998e+00 
103 1 2 8.0000000437692897e-01 4.1070246472040166e+00 1.0000000000000000e+00 3.2698393596930133e+00 1.0901705668067792e+00 9.1603246623859143e+00 
288 1 2 7.9999998695022367e-01 -8.7933412111068560e-02 1.0000000000000000e+00 3.9280388768321917e+00 1.9070042771702453e+00 8.7868201879025136e+00 
239 1 2 8.0000000538740657e-01 -2.2498821773463913e+00 1.0000000000000000e+00 4.9474638863373483e+00 1.4895574989108262e+00 9.6705523064457743e+00 
46 1 2 8.0000000543675320e-01 1.8325875943428618e+00 1.0000000000000000e+00 5.0477315737456712e+00 2.8396938440023298e+00 9.6354685654458763e+00 
238 1 2 7.9999999662889287e-01 -3.4460595655679532e-01 1.0000000000000000e+00 5.4338093581088280e+00 2.2618846458088044e+00 8.8149649194287552e+00 
251 1 2 7.9999999963252577e-01 1.0171179089562085e-01 1.0000000000000000e+00 1.2281986210983100e+00 3.0889456311805294e+00 8.7375143963810196e+00 
187 1 2 7.9999999585702031e-01 3.8711425302807474e-02 1.0000000000000000e+00 9.3078035658771008e-01 4.1210601984315334e+00 8.9166785523519785e+00 
196 1 2 8.0000000659603487e-01 4.1360757370985363e-01 1.0000000000000000e+00 9.8264672062250569e-01 3.3411299973790132e+00 9.9097498602237266e+00 
142 1 2 7.9999998390521787e-01 -2.0614125537769841e+00 1.0000000000000000e+00 2.3668510286118170e+00 3.7214850216283044e+00 9.6679726972249345e+00 
260 1 2 8.0000001830791567e-01 5.9045498514639846e-02 1.0000000000000000e+00 2.1059993235869605e+00 4.9847139651929160e+00 9.3448797870900577e+00 
232 1 2 7.9999999999999882e-01 -9.7989969213045280e-01 1.0000000000000000e+00 1.7841341279350478e+00 7.0370625166620204e+00 8.6208997970482475e+00 
95 1 2 7.9999999999999882e-01 -1.4789936527157534e+00 1.0000000000000000e+00 2.5389312088510798e+00 7.4867989301844329e+00 8.7219307602332652e+00 
80 1 2 7.9999999521801546e-01 5.0056052649607408e-01 1.0000000000000000e+00 6.0436418650152479e-02 9.9226421248606638e+00 9.0783606937597181e+00 
265 1 2 7.9999966747199025e-01 -3.8597019223642435e+00 1.0000000000000000e+00 2.2870292842030562e+00 4.5406678302118064e-01 1.0545032695585832e+01 
341 1 2 8.0000000608932853e-01 3.4888968452616609e-01 1.0000000000000000e+00 5.0168903270199277e+00 5.1811397302879103e-01 1.0841978941283498e+01 
72 1 2 8.0000004779755007e-01 2.4594100630940785e+00 1.0000000000000000e+00 5.4442882019650651e-01 1.8707156908955622e+00 1.1300947295262491e+01 
143 1 2 8.0000001843991542e-01 3.0657169806892465e-01 1.0000000000000000e+00 2.3714364732832758e+00 2.7651317438355059e+00 1.0214045255706504e+01 
96 1 2 8.0000001106956409e-01 1.6149769653119146e+00 1.0000000000000000e+00 3.6992131691427304e+00 1.6690967919602355e+00 1.0077085986551481e+01 
377 1 2 8.0000001487427186e-01 9.0377268161002144e-01 1.0000000000000000e+00 3.1326994960814454e+00 2.4567766979012329e+00 1.1346843344650473e+01 
102 1 2 7.9999997779834342e-01 -4.1663460952048237e-01 1.0000000000000000e+00 4.6037549220623140e+00 2.5776718371283565e+00 1.1092611677336125e+01 
133 1 2 7.9999997276843193e-01 4.6824642144988812e-02 1.0000000000000000e+00 6.3011230303554475e+00 2.0115970880589553e+00 1.1157127495540131e+01 
98 1 2 7.9999999202698746e-01 1.2652724854061206e+00 1.0000000000000000e+00 1.1525828755993737e+00 3.9572203523548519e+00 1.1299139020549324e+01 
185 1 2 7.9999998322065158e-01 1.6103778168012015e+00 1.0000000000000000e+00 3.2684043717240492e+00 3.5221521353833904e+00 1.1017339428226204e+01 
93 1 2 8.0000001401562271e-01 1.1007472550223445e+00 1.0000000000000000e+00 5.3869088403052769e+00 3.1941361867616740e+00 1.1025675045335836e+01 
194 1 2 8.0000002976005602e-01 -5.2304276565065999e-01 1.0000000000000000e+00 6.3562137315471590e-01 4.7490442222183429e+00 1.0751553952748587e+01 
197 1 2 7.9999998341122458e-01 -4.4848317514231004e-02 1.0000000000000000e+00 1.4291545466229900e+00 5.4022085848033630e+00 1.0002237264619490e+01 
370 1 2 7.9999999999999283e-01 8.7466043368945345e-01 1.0000000000000000e+00 4.1856885624050211e+00 8.1915481845229170e+00 1.0423440180676856e+01 
136 1 2 8.0000002232456369e-01 8.0324131146545552e-01 1.0000000000000000e+00 1.0892383985961924e+00 9.7395130514166812e+00 1.0110866365106149e+01 
331 1 2 7.9999999999999283e-01 -2.2895316456722803e-01 1.0000000000000000e+00 3.4502331901324355e+00 8.5912662268027944e+00 1.0708956577055091e+01 
67 1 2 8.0000001133136789e-01 2.2666070190300442e+00 1.0000000000000000e+00 4.6269008898865077e-01 7.5920460997398242e-01 1.1784870878552978e+01 
30 1 2 7.9999999217241868e-01 5.2759814200516209e-01 1.0000000000000000e+00 4.7825221710537846e+00 6.1340225225770384e-01 1.2270842427146251e+01 
349 1 2 8.0000000769378621e-01 9.4056759192209660e-01 1.0000000000000000e+00 5.6956616362990422e+00 3.2854177971256349e-01 1.2111384115498399e+01 
378 1 2 7.9999993984655404e-01 -1.6775803009945074e+00 1.0000000000000000e+00 1.8031771829993002e+00 2.0512965935540697e+00 1.1486726662275482e+01 
134 1 2 8.0000002763009448e-01 4.0123927819641962e-02 1.0000000000000000e+00 5.8741132205316005e+00 2.0436470530337103e+00 1.1978457817025815e+01 
64 1 2 8.0000003536188147e-01 2.2357591235548913e-01 1.0000000000000000e+00 1.2153571615528211e+00 2.8990079277037561e+00 1.1969027488112653e+01 
26 1 2 8.0000001873522453e-01 3.7503996095432779e-01 1.0000000000000000e+00 2.6053761505309376e+00 3.8686423275560480e+00 1.2069799858518339e+01 
27 1 2 8.0000000486503131e-01 9.7328604465830959e-01 1.0000000000000000e+00 2.5458806101910634e+00 5.5999061461738231e+00 1.1779273636450462e+01 
19 1 2 7.9999999076134298e-01 6.7767476466710469e-02 1.0000000000000000e+00 2.2121220295057080e+00 4.6660993660703376e+00 1.2628330821810295e+01 
384 1 2 7.9999986536513756e-01 4.3319234958753211e-01 1.0000000000000000e+00 2.8760006324768689e-01 6.6942304758211906e+00 1.2854026580764652e+01 
97 1 2 7.9999999544082467e-01 -2.2147095098379723e+00 1.0000000000000000e+00 3.1590074100135666e+00 6.5687348753599739e+00 1.2115733890856848e+01 
57 1 2 8.0000013565576089e-01 3.4091832154888541e-01 1.0000000000000000e+00 3.1442953087065129e-01 7.3624904443235950e+00 1.2273873218972508e+01 
354 1 2 8.0000625925125102e-01 1.1383309580953132e+00 1.0000000000000000e+00 1.7906552028119018e+00 5.9256168033892886e-01 1.3102957150192120e+01 
364 1 2 7.9999370443465534e-01 -2.5921300313612288e+00 1.0000000000000000e+00 1.4306146821534966e+00 1.3675016446509016e+00 1.3331816984720337e+01 
114 1 2 8.0000000300022522e-01 7.6856503764925005e-02 1.0000000000000000e+00 2.6330798490722196e+00 6.0830251195120661e+00 1.2931409109374938e+01 
123 1 2 8.0000001435906953e-01 -3.4808546341213858e-02 1.0000000000000000e+00 5.6212959257665063e-02 4.4690524429195735e+00 1.4628333384724732e+01 
351 1 2 8.0000000000000271e-01 -1.7208636906670374e+00 1.0000000000000000e+00 3.4814241846733016e+00 3.9312753885814065e+00 1.7809368500574863e+01 
352 1 2 8.0000000000000271e-01 2.1674641940613464e+00 1.0000000000000000e+00 3.7745458213219161e+00 3.1092755959580116e+00 1.7665894539226546e+01 
163 1 2 7.9999999999996851e-01 9.1250805320101769e-01 1.0000000000000000e+00 3.4273974567522005e+00 3.7987963159037021e+00 1.9871545797947810e+01 
21 1 2 7.9999999999998983e-01 7.3013411858053745e-01 1.0000000000000000e+00 3.5478570906748392e+00 1.4181319761460061e+01 1.0463712288817637e+00 
85 1 2 7.9999999999998983e-01 3.2662146382919088e-01 1.0000000000000000e+00 4.3882591450150530e+00 1.3912216586379188e+01 1.1055032739303658e+00 
74 1 2 8.0000000000000338e-01 5.3030014343462684e-01 1.0000000000000000e+00 1.2338079209827693e+00 1.5284958508005426e+01 1.3772511882721219e+00 
82 1 2 8.0000000000000338e-01 3.9047567939999717e-01 1.0000000000000000e+00 1.4590277020048024e+00 1.4660920405244845e+01 7.9240828024569721e-01 
174 1 2 7.9999999999999916e-01 -2.9007193402408085e+00 1.0000000000000000e+00 5.9593990729592647e+00 1.1472157632874971e+01 2.7545657139849444e+00 
150 1 2 8.0000001486263339e-01 -4.8255813737170197e+00 1.0000000000000000e+00 2.3001406739583032e-02 1.7597584719285162e+01 2.7887680030204405e+00 
54 1 2 7.9999999999999916e-01 2.2846750841546108e+00 1.0000000000000000e+00 6.4291205629082331e+00 1.1215681618557189e+01 3.4586754401564006e+00 
379 1 2 8.0000000083802481e-01 -2.5631447885470177e-01 1.0000000000000000e+00 5.4135876959639850e-01 1.6435605798911148e+01 3.0359534598675006e+00 
380 1 2 8.0000000520016201e-01 2.6656215525169418e+00 1.0000000000000000e+00 1.1487066638787777e+00 1.6054128502412880e+01 3.7743391744995498e+00 
259 1 2 7.9999997288180902e-01 -2.8988743886944923e+00 1.0000000000000000e+00 3.7158610523803765e-01 1.7630052249097371e+01 4.1211809688410570e+00 
328 1 2 8.0000001333827253e-01 8.3884514713008773e-01 1.0000000000000000e+00 9.4264057329417361e-01 1.8467359017548137e+01 3.4401265864828825e+00 
257 1 2 7.9999999149938716e-01 7.8221242602839425e-01 1.0000000000000000e+00 3.4336693351026189e-02 1.9165707740986150e+01 3.4229018090685366e+00 
154 1 2 7.9999999999999494e-01 -4.2906629567423987e-01 1.0000000000000000e+00 4.4604909793719045e+00 1.9363577564055007e+01 3.5289215734537374e+00 
323 1 2 8.0000000328875509e-01 -2.1574594885739429e-01 1.0000000000000000e+00 6.0931080423939199e-01 1.6825942561549560e+01 4.9917836818690260e+00 
223 1 2 7.9999999124501919e-01 5.4769960998607869e+00 1.0000000000000000e+00 1.4771687206445430e+00 1.6136142434462901e+01 5.0587134884525398e+00 
303 1 2 8.0000002979183304e-01 2.9649880612756691e-01 1.0000000000000000e+00 2.5012803996345356e+00 1.6814175304023781e+01 5.5937693627609804e+00 
309 1 2 8.0000000836699181e-01 2.1751715702410143e-01 1.0000000000000000e+00 2.2231671255476670e+00 1.8046093395366558e+01 5.5625060352104816e+00 
266 1 2 8.0000000919864234e-01 -3.8656427152724806e+00 1.0000000000000000e+00 2.5390415181024084e-01 1.9853486498244262e+01 5.6557857010620642e+00 
210 1 2 7.9999995893421894e-01 2.3757037344937153e+00 1.0000000000000000e+00 9.0650897415154627e-02 1.9378245992892822e+01 4.8171660596030588e+00 
162 1 2 7.9999999999999494e-01 -2.0326703734616660e-03 1.0000000000000000e+00 4.7551152312282676e+00 1.9645278023182570e+01 4.3137974439421027e+00 
261 1 2 7.9999988940048405e-01 3.2841421075271943e-01 1.0000000000000000e+00 2.4144408166408104e+00 1.0847462153453126e+01 6.9371228785736276e+00 
233 1 2 7.9999994707824873e-01 1.4647629793943640e-01 1.0000000000000000e+00 9.6208394968040241e-03 1.8411291027731629e+01 6.2132545359586500e+00 
343 1 2 7.9999998214066093e-01 3.4803856023174764e+00 1.0000000000000000e+00 2.2046727342995833e+00 1.8333044544342908e+01 6.7414101906511048e+00 
310 1 2 7.9999997495183861e-01 6.8535278493038998e-01 1.0000000000000000e+00 3.4908136902255933e+00 1.7394812047258377e+01 5.7736220977699331e+00 
335 1 2 8.0000003386777629e-01 5.6242891497034075e-01 1.0000000000000000e+00 3.2043441426373183e+00 1.7804741173485734e+01 6.8574563006465361e+00 
241 1 2 8.0000004052501206e-01 -7.5045998661267765e-01 1.0000000000000000e+00 1.0425114651601259e+00 1.8711232599653670e+01 5.9509592011478842e+00 
183 1 2 7.9999995524902601e-01 -1.4539152652095497e+00 1.0000000000000000e+00 3.2925288670504999e-01 1.0714573925258001e+01 7.7059200049537102e+00 
70 1 2 8.0000004173000683e-01 -8.8408712190424354e-01 1.0000000000000000e+00 9.7355347053091967e-01 1.1440150300963856e+01 7.5904029814932459e+00 
262 1 2 8.0000011391728987e-01 -2.6763187945711038e+00 1.0000000000000000e+00 2.6267202827127862e+00 1.1670800869760017e+01 7.2060015216591351e+00 
100 1 2 7.9999988200870176e-01 -1.2088258995060872e-01 1.0000000000000000e+00 3.8311188298704266e+00 1.6369975206131020e+01 7.3320580222807381e+00 
36 1 2 8.0000013008525295e-01 1.6102177211010882e+00 1.0000000000000000e+00 3.7082535181756531e+00 1.6835869848734553e+01 8.0893595369539817e+00 
212 1 2 8.0000000210178812e-01 -1.5232680657171700e+00 1.0000000000000000e+00 1.0463477932562766e+00 1.7228027576598265e+01 8.5511712476711299e+00 
362 1 2 7.9999999011222833e-01 1.3131557617643959e+00 1.0000000000000000e+00 5.1974550463433133e-02 1.7519799079986456e+01 8.4943378595742551e+00 
41 1 2 8.0000001931430320e-01 1.7890132511114235e-01 1.0000000000000000e+00 4.9714297778083205e-01 1.1149159677391969e+01 9.6034746532676500e+00 
201 1 2 7.9999999585956894e-01 3.3963330602178563e+00 1.0000000000000000e+00 1.4707336675371521e+00 1.0631562300425436e+01 9.3670398293451012e+00 
283 1 2 8.0000001381172925e-01 3.9096155199038357e-01 1.0000000000000000e+00 2.8766283340335136e-01 1.2260551747258774e+01 8.8746871309262687e+00 
73 1 2 7.9999988498526697e-01 4.3992880294229968e+00 1.0000000000000000e+00 2.4714961887122353e+00 1.1987155521743247e+01 9.0647137864239475e+00 
81 1 2 8.0000010995331439e-01 -1.3515480978551124e+00 1.0000000000000000e+00 3.2016433549012708e+00 1.2382552473698341e+01 8.7436688298658751e+00 
221 1 2 7.9999994729274060e-01 -1.3509179212337266e-01 1.0000000000000000e+00 1.3174078557421505e+00 1.3547752369420577e+01 9.7111748063599492e+00 
297 1 2 8.0000001588765413e-01 -3.7571120445219305e-02 1.0000000000000000e+00 4.6140505682588741e-02 1.7119096396743636e+01 9.9078445983166450e+00 
325 1 2 8.0000000951639427e-01 3.3059373643014065e+00 1.0000000000000000e+00 1.5573027229481586e+00 1.8373980805750140e+01 8.9436340032162125e+00 
130 1 2 8.0000015880589770e-01 -3.0485348563598906e+00 1.0000000000000000e+00 4.9101192328357683e+00 1.7207893584124047e+01 9.3782000242108978e+00 
313 1 2 7.9999985295569687e-01 -2.9410859279976274e+00 1.0000000000000000e+00 4.5991366117553660e+00 1.8025296023158489e+01 9.5387885844244433e+00 
268 1 2 7.9999998856900900e-01 4.9607711586183550e-01 1.0000000000000000e+00 1.7915658349232053e+00 1.9346232638318934e+01 8.8519025864795911e+00 
236 1 2 7.9999996947034413e-01 2.7112799872214475e+00 1.0000000000000000e+00 1.8640034319398631e+00 1.0473815422747442e+01 1.1046633536601663e+01 
180 1 2 8.0000004811035319e-01 -2.3407658145969998e+00 1.0000000000000000e+00 2.5950957919178044e+00 1.0433987308245028e+01 1.0431848134400385e+01 
13 1 2 8.0000001897612627e-01 4.2597046675703298e-01 1.0000000000000000e+00 4.9172736335460367e+00 1.1237064257629038e+01 1.1025641302799411e+01 
23 1 2 8.0000000344152478e-01 -5.2641109016515830e-01 1.0000000000000000e+00 3.4933102218184295e+00 1.1529652865221943e+01 1.0959504897269907e+01 
14 1 2 7.9999999557482304e-01 -2.0796977961743654e-01 1.0000000000000000e+00 4.0134649683521255e+00 1.1526035028594050e+01 1.0059416486076804e+01 
222 1 2 8.0000004723986051e-01 4.8385520581089270e-01 1.0000000000000000e+00 9.5484735901518758e-01 1.3929505498072468e+01 1.0422420770593789e+01 
207 1 2 8.0000000307844876e-01 -3.9419159651790503e-01 1.0000000000000000e+00 3.6405172195654867e+00 1.2900894582953727e+01 1.0403822428350756e+01 
209 1 2 7.9999999239577202e-01 7.7452760998113479e-01 1.0000000000000000e+00 2.9336392898650980e+00 1.3461166195081621e+01 1.1404842953964881e+01 
285 1 2 7.9999999762494067e-01 -2.3644930640653778e+00 1.0000000000000000e+00 4.2930566510127735e+00 1.3063981327058631e+01 1.1264583093870407e+01 
6 1 2 7.9999997557509694e-01 -3.1231172045532722e+00 1.0000000000000000e+00 1.6948864502624532e+00 1.5622171557006100e+01 1.0358239212238272e+01 
234 1 2 8.0000002490049094e-01 2.5610991695278047e+00 1.0000000000000000e+00 1.1988401922372596e+00 1.5788196470510469e+01 1.1090772946336800e+01 
92 1 2 7.9999998391806937e-01 -3.2504130993937532e+00 1.0000000000000000e+00 9.6453141070034676e-01 1.7045494327720114e+01 1.0101614965375909e+01 
278 1 2 8.0000004461481755e-01 -7.0106667450657918e+00 1.0000000000000000e+00 5.6152284760749529e+00 1.7713514655417711e+01 1.0895631330207646e+01 
271 1 2 8.0000032723679082e-01 6.7857864192789652e-01 1.0000000000000000e+00 1.6763733214866721e+00 1.9814743533006702e+01 1.0596435372204169e+01 
132 1 2 8.0000000829569140e-01 -4.7294240795027825e-01 1.0000000000000000e+00 4.7251528927801649e+00 1.9560627575110495e+01 1.1134118258580074e+01 
68 1 2 7.9999999261759203e-01 1.6905726820879108e+00 1.0000000000000000e+00 5.8921684525391385e+00 1.9073838786234578e+01 1.0674538267550718e+01 
50 1 2 7.9999997065135142e-01 1.2369317429263731e+00 1.0000000000000000e+00 3.7164465391851547e+00 1.1635372444425993e+01 1.2820675941392787e+01 
22 1 2 7.9999999106691699e-01 1.3473197200485210e+00 1.0000000000000000e+00 4.8784177171540879e+00 1.1970301816043509e+01 1.1761454191095426e+01 
357 1 2 8.0000001928462117e-01 -1.6791796306651172e-01 1.0000000000000000e+00 3.3072831082343783e+00 1.3572619001586242e+01 1.2386326564115622e+01 
146 1 2 7.9999999980606096e-01 -1.8018623113046170e+00 1.0000000000000000e+00 5.5952400712471402e+00 1.6242900281593329e+01 1.2797346098982372e+01 
383 1 2 8.0000000146507366e-01 6.2092156256546349e-01 1.0000000000000000e+00 3.6863572467696835e+00 1.7774061368212362e+01 1.2487532223104719e+01 
375 1 2 8.0000000052945608e-01 4.6323009186362307e-01 1.0000000000000000e+00 4.8359038362828688e+00 1.7553576913975590e+01 1.2239774255382812e+01 
69 1 2 7.9999999847284420e-01 3.3598181030048191e-01 1.0000000000000000e+00 4.4089805171752179e+00 1.8515156147791089e+01 1.2809472985704533e+01 
192 1 2 7.9999998447936471e-01 -3.3826575182086396e+00 1.0000000000000000e+00 6.1785977962020260e+00 1.7216851957382346e+01 1.1702623984993004e+01 
131 1 2 7.9999999254179444e-01 1.7095790717023371e+00 1.0000000000000000e+00 6.1932103037726511e+00 1.8688412967100803e+01 1.1629617423911741e+01 
115 1 2 8.0000003283455146e-01 1.7114853009434572e+00 1.0000000000000000e+00 4.4229427307872111e+00 1.1121647974405395e+01 1.3045294273529752e+01 
217 1 2 8.0000001445291014e-01 -5.9884715184868720e-01 1.0000000000000000e+00 3.6612016914620540e+00 1.3279101745412662e+01 1.3734067134628647e+01 
281 1 2 7.9999998453554544e-01 9.0868055420503316e-02 1.0000000000000000e+00 4.4385159366448095e+00 1.3455910023668238e+01 1.3197348326717066e+01 
145 1 2 8.0000000754534317e-01 -5.5731046555088946e-02 1.0000000000000000e+00 6.4249646938451406e+00 1.6562919244649272e+01 1.3044843840761740e+01 
342 1 2 8.0000565628366183e-01 3.2088609850564320e-01 1.0000000000000000e+00 2.5786744231374703e-01 1.8886339230645106e+01 1.3066554180279898e+01 
116 1 2 8.0000000000002269e-01 -3.7581429258727197e+00 1.0000000000000000e+00 5.2437242998635076e+00 1.1312382962241085e+01 1.4896109338305141e+01 
186 1 2 8.0000000000002269e-01 3.1057750139329778e+00 1.0000000000000000e+00 5.7777533662932239e+00 1.1274514449546707e+01 1.5600075006845801e+01 
11 1 2 7.9999998251230120e-01 2.9305742447380645e-01 1.0000000000000000e+00 4.6028185284347218e+00 1.3759115036168851e+01 1.5087135351176244e+01 
18 1 2 8.0000001874650672e-01 -9.3023718705829184e-01 1.0000000000000000e+00 4.1623722817362676e+00 1.3034904456822472e+01 1.5357356965618651e+01 
193 1 2 8.0000000000000138e-01 -5.3351809456461430e-01 1.0000000000000000e+00 1.1266826793473822e+01 3.6635603618499561e+00 8.0447748066002733e-01 
60 1 2 8.0000000000000171e-01 2.0373346645337578e+00 1.0000000000000000e+00 1.1808247434321249e+01 8.9259197635626375e-01 1.9191473093324158e+00 
4 1 2 8.0000000000000171e-01 1.1562698357064456e+00 1.0000000000000000e+00 1.1749895898738369e+01 1.2972577785579975e-01 1.4755044439440284e+00 
202 1 2 8.0000000000000138e-01 -4.1853137848335189e+00 1.0000000000000000e+00 1.1824321027454989e+01 3.4986430725985667e+00 1.4709541849139531e+00 
170 1 2 8.0000000000001059e-01 1.8793147239784033e-01 1.0000000000000000e+00 1.3283603798411205e+01 6.8185316237174467e+00 3.7821010428237711e+00 
178 1 2 8.0000000000001059e-01 1.0472678068774026e+00 1.0000000000000000e+00 1.2615453392579656e+01 7.0158138059186097e+00 3.2372675762465963e+00 
356 1 2 8.0000000000000449e-01 -1.7008031735030837e-01 1.0000000000000000e+00 1.0048000643275929e+01 2.3571320163485594e+00 5.6222353414665927e+00 
355 1 2 8.0000000000000449e-01 -1.0603003435350784e+00 1.0000000000000000e+00 1.0783674218556957e+01 1.8697925426017528e+00 5.5633001355973217e+00 
65 1 2 7.9999999999998073e-01 3.3282522306701994e+00 1.0000000000000000e+00 6.9414894512244238e+00 7.2301275844967101e+00 5.3270727063275212e+00 
166 1 2 7.9999999999999916e-01 5.8915433082839447e-02 1.0000000000000000e+00 9.3718985299725119e+00 6.3610521354183647e-01 9.8271141621542561e+00 
229 1 2 7.9999999999999916e-01 6.8345947258109815e-02 1.0000000000000000e+00 9.9614615758994329e+00 1.8397072120893332e-01 9.3473448986017686e+00 
10 1 2 7.9999999999999538e-01 5.4136669083506317e-01 1.0000000000000000e+00 6.6749203918074560e+00 5.5401477256197893e+00 1.1383337494940969e+01 
321 1 2 7.9999999999995886e-01 9.0900909211132919e-01 1.0000000000000000e+00 1.2259830285742803e+01 7.6587062149076957e+00 1.1327784674178991e+01 
2 1 2 7.9999999999999538e-01 4.2817929475069227e-01 1.0000000000000000e+00 6.8491014601364029e+00 4.6793350709481549e+00 1.1487506873946653e+01 
322 1 2 7.9999999999995886e-01 -2.4744602767640079e-03 1.0000000000000000e+00 1.2255692765166305e+01 7.6111793871628777e+00 1.2210911399002551e+01 
105 1 2 8.0000000000000082e-01 -6.5293686680432756e+00 1.0000000000000000e+00 9.9731052050895936e+00 7.9457749257437662e+00 1.3922447032836828e+01 
376 1 2 7.9999999999998639e-01 4.6918293073280948e-01 1.0000000000000000e+00 8.2070550058168656e+00 5.4085764646781920e+00 1.5558902050346360e+01 
40 1 2 8.0000000000000082e-01 5.7013366482501029e+00 1.0000000000000000e+00 1.0131802610238502e+01 8.0946741278456926e+00 1.4779670977755462e+01 
320 1 2 7.9999999999998639e-01 -1.6405861690666106e+00 1.0000000000000000e+00 7.8326397803900214e+00 4.8759700301753970e+00 1.6157510733397555e+01 
213 1 2 7.9999999999999849e-01 5.4344544270776005e+00 1.0000000000000000e+00 7.5660022071511666e+00 1.0809667366918896e+01 7.4105338690086742e-01 
339 1 2 7.9999999999999849e-01 6.9317501080281962e-01 1.0000000000000000e+00 7.4620379675597333e+00 1.0011363546511079e+01 1.1072380093769050e+00 
330 1 2 7.9999999796659482e-01 5.1450896456345285e-01 1.0000000000000000e+00 1.2112716552830907e+01 1.7259270825329789e+01 1.0310890364711576e+00 
284 1 2 8.0000000130138149e-01 1.1510366385263386e+00 1.0000000000000000e+00 1.3132014316939019e+01 1.8033742447956978e+01 1.1873270638714015e+00 
198 1 2 7.9999999570503899e-01 -2.0623687239908861e+00 1.0000000000000000e+00 1.2943434479326163e+01 1.0492543312659500e+01 2.7736161882508839e+00 
317 1 2 7.9999999758273588e-01 3.1417391744971837e+00 1.0000000000000000e+00 1.2437014601926116e+01 1.1636799936976782e+01 2.6108673698146188e+00 
218 1 2 8.0000000110184322e-01 -5.1727525987148599e+00 1.0000000000000000e+00 1.2805618476213594e+01 1.6631546727490957e+01 1.4310949333703424e+00 
86 1 2 8.0000000000000049e-01 2.4589119202095614e-02 1.0000000000000000e+00 8.7281450793527782e+00 1.7143988552350841e+01 2.2652344252633716e+00 
87 1 2 8.0000000000000049e-01 3.5842938477199333e-02 1.0000000000000000e+00 9.4566334614597878e+00 1.7144914721306154e+01 2.7667247540590822e+00 
374 1 2 7.9999999999964211e-01 5.0954259321090004e-02 1.0000000000000000e+00 9.4405587622923477e+00 1.0899533890239864e+01 4.0123136863650153e+00 
287 1 2 8.0000000955565076e-01 5.6937647719169604e-01 1.0000000000000000e+00 1.1910582159301374e+01 1.0679088908560693e+01 3.4719102062651612e+00 
286 1 2 8.0000001054941183e-01 -2.2318443618429473e+00 1.0000000000000000e+00 1.3273771529855004e+01 1.1265909128891588e+01 3.9894024728719932e+00 
373 1 2 7.9999999999964211e-01 5.9296680107919303e-02 1.0000000000000000e+00 9.7450732906127548e+00 1.1476936264574199e+01 3.4156009156909288e+00 
295 1 2 7.9999999626965324e-01 4.5847998405862717e-01 1.0000000000000000e+00 1.1600481744551949e+01 1.2192915423236617e+01 3.1790487268860406e+00 
224 1 2 8.0000000492316814e-01 -1.2813297685094867e+00 1.0000000000000000e+00 1.1834432417925978e+01 1.1645158852217559e+01 4.1646995289431237e+00 
17 1 2 7.9999999999999416e-01 -7.5712281103302526e-02 1.0000000000000000e+00 1.3259910693401881e+01 1.9468490815201342e+01 3.2400352532751686e+00 
84 1 2 8.0000000000000471e-01 -4.4668059798551363e-01 1.0000000000000000e+00 1.0826907786761508e+01 1.2249001608455256e+01 6.9715683249376728e+00 
20 1 2 8.0000000000000471e-01 6.6886596744481386e-01 1.0000000000000000e+00 1.0921887324572184e+01 1.3104148530220169e+01 6.7668945354024652e+00 
45 1 2 7.9999999471066474e-01 3.5633552087731191e-01 1.0000000000000000e+00 1.3161366398077226e+01 1.6818219208266360e+01 7.1253199756822578e+00 
44 1 2 7.9999998536290529e-01 5.7229293362874334e-01 1.0000000000000000e+00 1.3165503706747927e+01 1.7562015430750115e+01 7.8053032206248636e+00 
298 1 2 8.0000000000001059e-01 -3.8209628529857147e+00 1.0000000000000000e+00 1.1461043007739381e+01 1.0499042226225679e+01 9.2476175081036907e+00 
249 1 2 8.0000000000002469e-01 -9.6281274744598977e-01 1.0000000000000000e+00 9.1425904591252092e+00 1.4531056474735681e+01 9.9100380907656476e+00 
299 1 2 8.0000000000001059e-01 -4.7877752581169464e+00 1.0000000000000000e+00 1.1539653575049895e+01 1.0325961652917993e+01 1.0111360655329774e+01 
184 1 2 8.0000000000002469e-01 3.2036111228058735e+00 1.0000000000000000e+00 9.4142289677009927e+00 1.3978371347042478e+01 1.0544813957363331e+01 
214 1 2 7.9999999140047773e-01 3.2700651471717235e+00 1.0000000000000000e+00 7.5637843443249189e+00 1.7961117874044429e+01 1.1369669697659333e+01 
314 1 2 8.0000001370884588e-01 6.9178195149210597e-01 1.0000000000000000e+00 7.4869149002951207e+00 1.7765409706966963e+01 1.2270352253501311e+01 
48 1 2 8.0001063331579558e-01 5.8946426898636206e-01 1.0000000000000000e+00 1.7001438754288891e+01 5.4271647587415881e+00 1.8472980315824314e-01 
5 1 2 8.0000000000000226e-01 -6.2068907185650266e+00 1.0000000000000000e+00 1.9345963773184842e+01 9.5817955933279215e+00 1.7299569590718714e-01 
329 1 2 7.9999999999999649e-01 9.7776762156415925e-02 1.0000000000000000e+00 1.7991796621841587e+01 2.8254080353125741e+00 2.3586374126366625e+00 
337 1 2 7.9999999999999649e-01 8.1320761876279457e-02 1.0000000000000000e+00 1.8455385246162674e+01 3.4238265943976796e+00 1.9012868402394540e+00 
316 1 2 7.9999997049278582e-01 -6.5583711634648543e+00 1.0000000000000000e+00 1.5544664322330481e+01 8.4152120176796714e+00 4.5985916029995044e+00 
308 1 2 8.0000003383749696e-01 3.3949138993392147e-01 1.0000000000000000e+00 1.6224807746115776e+01 8.1311113868173148e+00 5.0913247480167607e+00 
327 1 2 7.9999998567488695e-01 3.6211723566446841e-01 1.0000000000000000e+00 1.4710388860537785e+01 9.9563384282002083e+00 4.3158856613295233e+00 
206 1 2 8.0000000514539016e-01 7.4534318159492396e-01 1.0000000000000000e+00 1.7910545614112891e+01 9.9147877585959492e+00 5.4892165780859923e+00 
111 1 2 7.9999999999999272e-01 -5.6249520010752792e-02 1.0000000000000000e+00 1.8902544794039230e+01 4.8003522882930634e+00 6.2174813249205441e+00 
118 1 2 7.9999999999999272e-01 -3.3058780644523909e+00 1.0000000000000000e+00 1.9672224958680641e+01 5.1125460046332556e+00 5.9136454182789011e+00 
275 1 2 7.9999998699744090e-01 -9.8404055050394540e-02 1.0000000000000000e+00 1.7294650299475716e+01 6.9210118199472817e+00 5.8275944058610119e+00 
267 1 2 8.0000001453535630e-01 1.3037711925578126e+00 1.0000000000000000e+00 1.7303770067679917e+01 6.1168835897010929e+00 6.2182648354024312e+00 
35 1 2 7.9999996366761261e-01 7.6512661463904363e-01 1.0000000000000000e+00 1.6956257582499411e+01 9.2181166788158624e+00 6.8379280247208323e+00 
205 1 2 7.9999998245374582e-01 2.9042138257364232e+00 1.0000000000000000e+00 1.8283807395519453e+01 9.2271895316260348e+00 6.2477952665699021e+00 
333 1 2 7.9999995852945849e-01 1.7097519695427206e+00 1.0000000000000000e+00 1.8467287498288769e+01 3.3659114640658522e-01 8.4621519177581934e+00 
340 1 2 7.9999998612866796e-01 3.6322029027444080e-01 1.0000000000000000e+00 1.9537634357496291e+01 8.8191101656555193e-01 7.9528127866278240e+00 
225 1 2 7.9999999516217313e-01 -3.6825221338172507e+00 1.0000000000000000e+00 1.6938408664287451e+01 4.4026276304622876e+00 8.4124215399765081e+00 
37 1 2 8.0000000260388837e-01 3.4648123139709469e-01 1.0000000000000000e+00 1.6883602759235917e+01 5.5851169007208448e+00 8.2743691521716229e+00 
311 1 2 8.0000012034364099e-01 3.4552070376567832e+00 1.0000000000000000e+00 1.5620465604490594e+01 6.3944644758408939e+00 7.3507035355681021e+00 