LAMMPS data file via write_data, version 30 Jul 2016, timestep = 50000000

294 atoms
2 atom types

0.0000000000000000e+00 2.0000000000000000e+01 xlo xhi
0.0000000000000000e+00 2.0000000000000000e+01 ylo yhi
0.0000000000000000e+00 2.0000000000000000e+01 zlo zhi

Masses

1 3.896
2 4.31

Atoms # meso-molecular

185 1 2 1.0280000145637678e+00 -1.4236163126675729e+02 1.0000000000000000e+00 5.8853511519280701e+00 9.5860014685875043e+00 3.9914169969310881e-01 
170 1 2 1.0280000145621400e+00 -1.0299440413927857e+02 1.0000000000000000e+00 5.8853222394431697e+00 9.5860365118966229e+00 3.9912920533511997e-01 
121 1 2 1.0280000145602008e+00 -9.8021380688402189e+01 1.0000000000000000e+00 5.8852859704467271e+00 9.5860836381258192e+00 3.9911249597611909e-01 
114 1 2 1.0280000145608350e+00 -1.1749025795056190e+02 1.0000000000000000e+00 5.8852980100965313e+00 9.5860677330112498e+00 3.9911812838364719e-01 
163 1 2 1.0280000145603740e+00 -9.9146549724000295e+01 1.0000000000000000e+00 5.8852892758810542e+00 9.5860792620647324e+00 3.9911404543158752e-01 
206 1 2 1.0279999752282749e+00 -1.0781136850447102e+02 1.0000000000000000e+00 3.5553708532433714e+00 3.2371784599721898e+00 1.5316089640683465e+01 
99 1 2 1.0279999268789799e+00 -2.0067658296849032e+02 1.0000000000000000e+00 4.5166670871804033e+00 2.5311883477002866e+00 1.5544109857818666e+01 
213 1 2 1.0279999268789797e+00 -6.8014571271675891e+01 1.0000000000000000e+00 4.5166670869575398e+00 2.5311883484148692e+00 1.5544109857945502e+01 
198 1 2 1.0279999268789797e+00 -1.5536702378823890e+02 1.0000000000000000e+00 4.5166670870149499e+00 2.5311883483067881e+00 1.5544109857956258e+01 
61 1 2 1.0279999268739657e+00 -1.0033668306592992e+02 1.0000000000000000e+00 4.5167030525380216e+00 2.5310809540323120e+00 1.5544093925351953e+01 
184 1 2 1.0279999268468085e+00 -1.3977573548370401e+02 1.0000000000000000e+00 4.5170246551850219e+00 2.5302923919484233e+00 1.5544049824153351e+01 
106 1 2 1.0280003133168882e+00 -2.0884293554625089e+02 1.0000000000000000e+00 5.3280525591399091e+00 1.4466392787502134e+00 1.5677025625923370e+01 
4 1 2 1.0279999197074665e+00 -1.1967893107012787e+02 1.0000000000000000e+00 6.1037841698391722e+00 2.6029152482158013e-01 1.5892253476453121e+01 
54 1 2 1.0279999197074667e+00 -1.4886240874897430e+02 1.0000000000000000e+00 6.1037841698376658e+00 2.6029152485465412e-01 1.5892253476444337e+01 
258 1 2 1.0279999197074667e+00 -1.3378937709440734e+02 1.0000000000000000e+00 6.1037841698377511e+00 2.6029152485326462e-01 1.5892253476444656e+01 
242 1 2 1.0279999197065377e+00 -1.6200905136383844e+02 1.0000000000000000e+00 6.1037838146618277e+00 2.6030010907256906e-01 1.5892251118590702e+01 
109 1 2 1.0279999197074670e+00 -7.4031877933258329e+01 1.0000000000000000e+00 6.1037841698391793e+00 2.6029152482070028e-01 1.5892253476453430e+01 
90 1 2 1.0280000711172770e+00 -1.0564446384481838e+02 1.0000000000000000e+00 2.3275548848153522e+00 4.0534287265184643e+00 1.6259715913791112e+01 
285 1 2 1.0280000717224227e+00 -1.2666641594239057e+02 1.0000000000000000e+00 2.3290648590127834e+00 4.0594170694251419e+00 1.6255447114511604e+01 
284 1 2 1.0280000717225015e+00 -1.6301066012400395e+02 1.0000000000000000e+00 2.3290650204833532e+00 4.0594172448019652e+00 1.6255447157854579e+01 
290 1 2 1.0280000717226629e+00 -1.5347424632898344e+02 1.0000000000000000e+00 2.3290652539855539e+00 4.0594173918174166e+00 1.6255447344411699e+01 
292 1 2 1.0280000717224198e+00 -1.3975274095011162e+02 1.0000000000000000e+00 2.3290648556121050e+00 4.0594170667572804e+00 1.6255447112406788e+01 
291 1 2 1.0280000717224371e+00 -1.4048111943414784e+02 1.0000000000000000e+00 2.3290649045307923e+00 4.0594171053183148e+00 1.6255447142471397e+01 
200 1 2 1.0279998559145926e+00 -4.5353546001985350e+01 1.0000000000000000e+00 4.9109529909986613e-02 5.5113700295257759e+00 1.6979182147201719e+01 
254 1 2 1.0279998559115082e+00 -1.6082449990823736e+02 1.0000000000000000e+00 4.9109011052150105e-02 5.5113708812018611e+00 1.6979180822477254e+01 
260 1 2 1.0279998559114847e+00 -1.6453469720497236e+02 1.0000000000000000e+00 4.9109007632968750e-02 5.5113708872037419e+00 1.6979180812468584e+01 
207 1 2 1.0279998559114898e+00 -5.7215331220440390e+01 1.0000000000000000e+00 4.9109008471985023e-02 5.5113708857266142e+00 1.6979180814938815e+01 
3 1 2 1.0280000084472436e+00 -1.2033198674332704e+02 1.0000000000000000e+00 1.8469573924357188e+00 9.3174110720844610e+00 1.7217183688112769e+01 
25 1 2 1.0280000084474383e+00 -1.3004559501439223e+02 1.0000000000000000e+00 1.8469562427769872e+00 9.3174117665912206e+00 1.7217184430046313e+01 
11 1 2 1.0280000084472418e+00 -1.1964981493208269e+02 1.0000000000000000e+00 1.8469573928902543e+00 9.3174110716873670e+00 1.7217183687725338e+01 
10 1 2 1.0280000084472432e+00 -1.0489760528895391e+02 1.0000000000000000e+00 1.8469573925514862e+00 9.3174110719595280e+00 1.7217183687995817e+01 
111 1 2 1.0280000084472518e+00 -6.2909231636179491e+01 1.0000000000000000e+00 1.8469573921862574e+00 9.3174110722941759e+00 1.7217183688319114e+01 
48 1 2 1.0280000451205074e+00 -1.6156338123588566e+02 1.0000000000000000e+00 2.3696706895097401e+00 7.5433318079295022e+00 1.8853834816139312e+01 
250 1 2 1.0280000451203508e+00 -1.4678007735272996e+02 1.0000000000000000e+00 2.3696713878087889e+00 7.5433319031228114e+00 1.8853835192460441e+01 
252 1 2 1.0280000451205678e+00 -2.3453674688022102e+02 1.0000000000000000e+00 2.3696704330602931e+00 7.5433317724112809e+00 1.8853834677014284e+01 
229 1 2 1.0280000451208069e+00 -1.5276396892198574e+02 1.0000000000000000e+00 2.3696694289879217e+00 7.5433316358535221e+00 1.8853834136434330e+01 
201 1 2 1.0280000221051921e+00 -1.5491845766869369e+02 1.0000000000000000e+00 2.5469368970877500e+00 7.5365186754424993e+00 1.8895330784886387e+01 
272 1 2 1.0279999469573537e+00 -1.0036116812812557e+02 1.0000000000000000e+00 3.6563395990592005e+00 9.0630886565656308e+00 1.8133268420643823e+01 
186 1 2 1.0280000381593692e+00 -1.0599734945569199e+02 1.0000000000000000e+00 4.9372232794889497e+00 7.8827165359994966e+00 1.9190835815830180e+01 
117 1 2 1.0279999469605823e+00 -1.3013103970391776e+02 1.0000000000000000e+00 3.6563295024517695e+00 9.0630990811657171e+00 1.8133266409333817e+01 
273 1 2 1.0279999469574039e+00 -1.6165065248606885e+02 1.0000000000000000e+00 3.6563394628900370e+00 9.0630887908245210e+00 1.8133268384209760e+01 
293 1 2 1.0280000381593624e+00 -6.1867899563232164e+01 1.0000000000000000e+00 4.9372235864773621e+00 7.8827164909036105e+00 1.9190835945357360e+01 
245 1 2 1.0280000381593479e+00 -5.3792641446902358e+01 1.0000000000000000e+00 4.9372236133359335e+00 7.8827164869582109e+00 1.9190835956690211e+01 
133 1 2 1.0280000347833897e+00 -1.2169655600092838e+02 1.0000000000000000e+00 2.6770868070934881e+00 1.0694809970071832e+01 7.1545688676153152e-01 
6 1 2 1.0280000347837419e+00 -1.5388704575329518e+02 1.0000000000000000e+00 2.6770867204475546e+00 1.0694810179841106e+01 7.1545663353166433e-01 
274 1 2 1.0280000347811034e+00 -1.8477871829388658e+02 1.0000000000000000e+00 2.6770873396614587e+00 1.0694808518236963e+01 7.1545855549387505e-01 
76 1 2 1.0280000347833900e+00 -1.5803567224094343e+02 1.0000000000000000e+00 2.6770868070717397e+00 1.0694809970137211e+01 7.1545688668917340e-01 
225 1 2 1.0280000347810812e+00 -1.9091144448590137e+02 1.0000000000000000e+00 2.6770873448598609e+00 1.0694808505082161e+01 7.1545857107942890e-01 
62 1 2 1.0280000347815932e+00 -9.2813851692401727e+01 1.0000000000000000e+00 2.6770872212617189e+00 1.0694808816775764e+01 7.1545820125736126e-01 
38 1 2 1.0280000347833891e+00 -1.4230991241124232e+02 1.0000000000000000e+00 2.6770868074043457e+00 1.0694809969276546e+01 7.1545688769953864e-01 
181 1 2 1.0280000091492374e+00 -1.2059729316452444e+02 1.0000000000000000e+00 6.2452757551151823e+00 1.1499172967010852e+01 3.2306624612239303e+00 
261 1 2 1.0279999859088134e+00 -9.7619903188112502e+01 1.0000000000000000e+00 4.2164222804857472e+00 1.3667751901200264e+01 2.3497477717078796e+00 
108 1 2 1.0279999858917892e+00 -1.2992550793912503e+02 1.0000000000000000e+00 4.2168218098320027e+00 1.3667865360563873e+01 2.3484430668415781e+00 
247 1 2 1.0279999858917888e+00 -1.1583018040220657e+02 1.0000000000000000e+00 4.2168218098330446e+00 1.3667865360564319e+01 2.3484430668384126e+00 
246 1 2 1.0279999858917883e+00 -1.1873399466439955e+02 1.0000000000000000e+00 4.2168218098330925e+00 1.3667865360564438e+01 2.3484430668384220e+00 
219 1 2 1.0279999858917885e+00 -1.3622652179675364e+02 1.0000000000000000e+00 4.2168218098345633e+00 1.3667865360564763e+01 2.3484430668334708e+00 
74 1 2 1.0280000095093147e+00 -8.4562514835371388e+01 1.0000000000000000e+00 4.8663840727079650e+00 1.3541976015647093e+01 1.4506949314435050e-01 
268 1 2 1.0280000095093160e+00 -1.4701291843472148e+02 1.0000000000000000e+00 4.8663840696105245e+00 1.3541976019257705e+01 1.4506950126559043e-01 
204 1 2 1.0280000095093147e+00 -1.5595974010267781e+02 1.0000000000000000e+00 4.8663840804504455e+00 1.3541976006619155e+01 1.4506947284071955e-01 
28 1 2 1.0280000096758217e+00 -1.4914759973099189e+02 1.0000000000000000e+00 4.8674326397249628e+00 1.3539731239347015e+01 1.4100701258850254e-01 
132 1 2 1.0280000098169966e+00 -1.3682436094123128e+02 1.0000000000000000e+00 4.8685517069931228e+00 1.3537835399690065e+01 1.3732745006868702e-01 
217 1 2 1.0279999987092441e+00 -1.3832070444270749e+02 1.0000000000000000e+00 4.4095541299565006e+00 1.2837973660512622e+01 4.6926289785664750e+00 
78 1 2 1.0279999987092443e+00 -1.3580128459063002e+02 1.0000000000000000e+00 4.4095541314711539e+00 1.2837973664018739e+01 4.6926289799115546e+00 
20 1 2 1.0279999987092439e+00 -1.8749506334454355e+02 1.0000000000000000e+00 4.4095541307353763e+00 1.2837973662318202e+01 4.6926289792586742e+00 
235 1 2 1.0279999987092416e+00 -1.6204743110994147e+02 1.0000000000000000e+00 4.4095540922583734e+00 1.2837973573438703e+01 4.6926289451263177e+00 
203 1 2 1.0279999987092650e+00 -2.3600974835702823e+02 1.0000000000000000e+00 4.4095543091338998e+00 1.2837974227847340e+01 4.6926291678608951e+00 
107 1 2 1.0279999991136146e+00 -1.2066505317314727e+02 1.0000000000000000e+00 4.4215779374016213e+00 1.2861983117001618e+01 4.7018454800572753e+00 
118 1 2 1.0280000264073328e+00 -1.0929724640040783e+02 1.0000000000000000e+00 6.0708910220725620e+00 1.5114867859054415e+01 3.7761084221014070e+00 
40 1 2 1.0280000255460793e+00 -2.1662739832392737e+02 1.0000000000000000e+00 6.0808451144049505e+00 1.5115805981563717e+01 3.7838153358216178e+00 
126 1 2 1.0280000226765484e+00 -1.2642751992127114e+02 1.0000000000000000e+00 6.1152491763547445e+00 1.5120770331240767e+01 3.8120352140038127e+00 
50 1 2 1.0279999844656615e+00 -1.1422425679575088e+02 1.0000000000000000e+00 6.3471707186581003e+00 1.6164421216939186e+01 4.2661336305374453e+00 
1 1 2 1.0279999844656604e+00 -1.4662469266444756e+02 1.0000000000000000e+00 6.3471707186575070e+00 1.6164421216939388e+01 4.2661336305373387e+00 
51 1 2 1.0279999844656615e+00 -1.0901828858804956e+02 1.0000000000000000e+00 6.3471707186575621e+00 1.6164421216939378e+01 4.2661336305373201e+00 
8 1 2 1.0279999844656624e+00 -1.5434582628292361e+02 1.0000000000000000e+00 6.3471707186581083e+00 1.6164421216939132e+01 4.2661336305375475e+00 
156 1 2 1.0279999844656551e+00 -1.7721464388291673e+02 1.0000000000000000e+00 6.3471709221379013e+00 1.6164421127822550e+01 4.2661337147426108e+00 
283 1 2 1.0280001061645654e+00 -1.0566099101412155e+02 1.0000000000000000e+00 4.6588785600625569e+00 1.1781248261582533e+01 1.6373627974488986e+01 
289 1 2 1.0280001061645656e+00 -1.3730914006538484e+02 1.0000000000000000e+00 4.6588785600700922e+00 1.1781248261581768e+01 1.6373627974485565e+01 
282 1 2 1.0280001061645647e+00 -1.1091408996961934e+02 1.0000000000000000e+00 4.6588785600670919e+00 1.1781248261582309e+01 1.6373627974486912e+01 
288 1 2 1.0280001061645656e+00 -1.6573638578171605e+02 1.0000000000000000e+00 4.6588785600701108e+00 1.1781248261581755e+01 1.6373627974485558e+01 
234 1 2 1.0280001061645652e+00 -1.3147073551284274e+02 1.0000000000000000e+00 4.6588785600655935e+00 1.1781248261581998e+01 1.6373627974487615e+01 
160 1 2 1.0280000941654799e+00 -9.1714694613657841e+01 1.0000000000000000e+00 4.6634090644112067e+00 1.1787938941494598e+01 1.6371491787302038e+01 
210 1 2 1.0279997651892872e+00 -1.2315828611556461e+02 1.0000000000000000e+00 4.7880102561782314e+00 1.1915454521729739e+01 1.6646619503018105e+01 
55 1 2 1.0279999870040528e+00 -1.2187716315021214e+02 1.0000000000000000e+00 5.7353097885849751e+00 1.2766313609549618e+01 1.8679588051526061e+01 
287 1 2 1.0280001316588474e+00 -1.4857677795099184e+02 1.0000000000000000e+00 6.3787024511220105e+00 1.1392100062205440e+01 1.9691240235143049e+01 
140 1 2 1.0280000055202989e+00 -1.4517133441662276e+02 1.0000000000000000e+00 1.2630437282379317e+01 6.4273403198487067e+00 3.1354552761260459e+00 
91 1 2 1.0280000055194864e+00 -1.8690751807529375e+02 1.0000000000000000e+00 1.2630456163387336e+01 6.4272058696192120e+00 3.1354045445983161e+00 
216 1 2 1.0280000055149763e+00 -1.2504753030955138e+02 1.0000000000000000e+00 1.2630560979307315e+01 6.4264745511646399e+00 3.1351215598657007e+00 
159 1 2 1.0280000014529096e+00 -1.5036020211120012e+02 1.0000000000000000e+00 1.2962439303286729e+01 5.8901225359830534e+00 2.6877865822604874e+00 
257 1 2 1.0279999994123434e+00 -1.7651548065565999e+02 1.0000000000000000e+00 1.3089965573003779e+01 4.5779484090713201e+00 2.8086738544566332e+00 
32 1 2 1.0279999568209826e+00 -1.5808265440592737e+02 1.0000000000000000e+00 1.2904198188307864e+01 9.9192159048648705e+00 1.1572232491868516e-01 
263 1 2 1.0279999568209826e+00 -1.8039875436510886e+02 1.0000000000000000e+00 1.2904198184283251e+01 9.9192158999375319e+00 1.1572233020549996e-01 
34 1 2 1.0279999568209821e+00 -1.4299339420384081e+02 1.0000000000000000e+00 1.2904198184954556e+01 9.9192159007625271e+00 1.1572232931832697e-01 
97 1 2 1.0279999568209832e+00 -1.3516286422598870e+02 1.0000000000000000e+00 1.2904198184885633e+01 9.9192159006768623e+00 1.1572232941106701e-01 
93 1 2 1.0280000002159333e+00 -2.1798088772193444e+02 1.0000000000000000e+00 1.2029834385170469e+01 3.3107264537009788e+00 4.3073296852398970e+00 
144 1 2 1.0280000002159360e+00 -1.1273525681490759e+02 1.0000000000000000e+00 1.2029834599591911e+01 3.3107263453163482e+00 4.3073296180855865e+00 
137 1 2 1.0280000002159335e+00 -8.9348840394549086e+01 1.0000000000000000e+00 1.2029834383888229e+01 3.3107264543495383e+00 4.3073296856400765e+00 
88 1 2 1.0280000002159337e+00 -5.1759737899758569e+01 1.0000000000000000e+00 1.2029834381558265e+01 3.3107264555276950e+00 4.3073296863683961e+00 
45 1 2 1.0280000002159335e+00 -2.2016824790839078e+02 1.0000000000000000e+00 1.2029834387636962e+01 3.3107264524542415e+00 4.3073296844673736e+00 
130 1 2 1.0279999987348907e+00 -8.3439887851519558e+01 1.0000000000000000e+00 1.2389217755741148e+01 4.4463047206568902e+00 5.3198642014360766e+00 
116 1 2 1.0279999987643471e+00 -1.3844819161062247e+02 1.0000000000000000e+00 1.2397174675289705e+01 4.4567849975418996e+00 5.3192060649504391e+00 
123 1 2 1.0279999987698363e+00 -6.8116496626177593e+01 1.0000000000000000e+00 1.2398608637024415e+01 4.4590433835889529e+00 5.3189601384543943e+00 
199 1 2 1.0279999807217555e+00 -6.9787429520003656e+01 1.0000000000000000e+00 1.1412729795323898e+01 9.2118480035308430e+00 5.4115145868018590e+00 
72 1 2 1.0279999807179538e+00 -1.4236853665621561e+02 1.0000000000000000e+00 1.1412521801294904e+01 9.2119319575847811e+00 5.4114075052636066e+00 
15 1 2 1.0279999807181042e+00 -2.3178697834521836e+02 1.0000000000000000e+00 1.1412533000357124e+01 9.2119258928754721e+00 5.4114120146877305e+00 
58 1 2 1.0279999801357489e+00 -7.4800169631082326e+01 1.0000000000000000e+00 1.1324698648300799e+01 9.2595401275767486e+00 5.3572121484302642e+00 
23 1 2 1.0279999807180895e+00 -1.1781022957972269e+02 1.0000000000000000e+00 1.1412532906046643e+01 9.2119254760046392e+00 5.4114115946674506e+00 
9 1 2 1.0279999801373172e+00 -1.0298461556772978e+02 1.0000000000000000e+00 1.1324499913791000e+01 9.2596913987655043e+00 5.3570759068173892e+00 
141 1 2 1.0279999978641035e+00 -1.8440207370460189e+02 1.0000000000000000e+00 1.3032134706870666e+01 7.9301549187329714e+00 3.7972697642785986e+00 
178 1 2 1.0280000010210717e+00 -1.3726829662590566e+02 1.0000000000000000e+00 1.3036944763742660e+01 7.9005284475346524e+00 3.8039975586524153e+00 
161 1 2 1.0280000151411397e+00 -1.2132236244726506e+02 1.0000000000000000e+00 1.3070173496183401e+01 7.7010687724568010e+00 3.8428469745879870e+00 
147 1 2 1.0280000138421359e+00 -1.6930389278445401e+02 1.0000000000000000e+00 7.0185259316230590e+00 9.1367886163226792e+00 1.5454571155236868e+01 
196 1 2 1.0280000138421357e+00 -1.6640904307411739e+02 1.0000000000000000e+00 7.0185259316230413e+00 9.1367886163226810e+00 1.5454571155236865e+01 
43 1 2 1.0280000138421352e+00 -1.8440376905207398e+02 1.0000000000000000e+00 7.0185259312025972e+00 9.1367886163833045e+00 1.5454571155173912e+01 
92 1 2 1.0280000138421355e+00 -1.8125457958695071e+02 1.0000000000000000e+00 7.0185259314901272e+00 9.1367886163416703e+00 1.5454571155216939e+01 
195 1 2 1.0280000138421364e+00 -1.2198012055131124e+02 1.0000000000000000e+00 7.0185259316231159e+00 9.1367886163226650e+00 1.5454571155236875e+01 
44 1 2 1.0280000138421352e+00 -1.7227967601636504e+02 1.0000000000000000e+00 7.0185259312209558e+00 9.1367886163805263e+00 1.5454571155176643e+01 
146 1 2 1.0280000138421359e+00 -1.6680605341507675e+02 1.0000000000000000e+00 7.0185259316231514e+00 9.1367886163226419e+00 1.5454571155236879e+01 
46 1 2 1.0279999798510537e+00 -1.2030683076609031e+02 1.0000000000000000e+00 6.7587385017205142e+00 8.4361157625742305e+00 1.8572385097366084e+01 
64 1 2 1.0279999798509956e+00 -1.1165766598477660e+02 1.0000000000000000e+00 6.7587459249069797e+00 8.4361044374543326e+00 1.8572403896042267e+01 
57 1 2 1.0279999798509967e+00 -1.5168752600700171e+02 1.0000000000000000e+00 6.7587459248998440e+00 8.4361044374652003e+00 1.8572403896024213e+01 
241 1 2 1.0279999798576540e+00 -2.2274567502434169e+02 1.0000000000000000e+00 6.7580504153992234e+00 8.4372604641090714e+00 1.8570591639485745e+01 
113 1 2 1.0279999798509951e+00 -1.2541942230354852e+02 1.0000000000000000e+00 6.7587459248583048e+00 8.4361044375252856e+00 1.8572403895920946e+01 
18 1 2 1.0280000358471415e+00 -7.7831475908492223e+01 1.0000000000000000e+00 1.2276729646899030e+01 1.1457361694586611e+01 1.2938856298655719e+00 
180 1 2 1.0280000358471419e+00 -1.3947273186963525e+02 1.0000000000000000e+00 1.2276729646899089e+01 1.1457361694586480e+01 1.2938856298656831e+00 
2 1 2 1.0280000358471422e+00 -1.1019951267118259e+02 1.0000000000000000e+00 1.2276729646898923e+01 1.1457361694586544e+01 1.2938856298656254e+00 
174 1 2 1.0280000358471428e+00 -1.4988864733424623e+02 1.0000000000000000e+00 1.2276729646898968e+01 1.1457361694586449e+01 1.2938856298657040e+00 
149 1 2 1.0279999988047774e+00 -1.5366562392125076e+02 1.0000000000000000e+00 6.7921251080589489e+00 1.1326800298087418e+01 3.5166831566208652e+00 
101 1 2 1.0279999988060806e+00 -1.0188507869522695e+02 1.0000000000000000e+00 6.7919555509614469e+00 1.1326447833248606e+01 3.5168149745792192e+00 
17 1 2 1.0279999988060808e+00 -9.1497291097412585e+01 1.0000000000000000e+00 6.7919555128192952e+00 1.1326447754186125e+01 3.5168150039355126e+00 
155 1 2 1.0279999988060808e+00 -1.7982804348792371e+02 1.0000000000000000e+00 6.7919555127263340e+00 1.1326447753994247e+01 3.5168150040029160e+00 
66 1 2 1.0279999988060808e+00 -8.2266780399069205e+01 1.0000000000000000e+00 6.7919555127640452e+00 1.1326447754071198e+01 3.5168150039800765e+00 
26 1 2 1.0279999988060808e+00 -7.6524356740407171e+01 1.0000000000000000e+00 6.7919555127424935e+00 1.1326447754026869e+01 3.5168150039949140e+00 
192 1 2 1.0280000247428362e+00 -1.7313211930707956e+02 1.0000000000000000e+00 1.2469307606035288e+01 1.1186808559442595e+01 4.2696925525972720e+00 
179 1 2 1.0280000247385834e+00 -1.5691408030715803e+02 1.0000000000000000e+00 1.2469377529801909e+01 1.1186802191602379e+01 4.2697720505719250e+00 
227 1 2 1.0280000247385837e+00 -7.1325527032026400e+01 1.0000000000000000e+00 1.2469377537688015e+01 1.1186802186503840e+01 4.2697720368676917e+00 
7 1 2 1.0280000247385837e+00 -1.7412383485036707e+02 1.0000000000000000e+00 1.2469377531207023e+01 1.1186802190693950e+01 4.2697720481302097e+00 
63 1 2 1.0280000247385837e+00 -1.4961583593421508e+02 1.0000000000000000e+00 1.2469377531175525e+01 1.1186802190714124e+01 4.2697720481839605e+00 
275 1 2 1.0280000247385850e+00 -1.6693190951790993e+02 1.0000000000000000e+00 1.2469377510330155e+01 1.1186802204205161e+01 4.2697720844812421e+00 
187 1 2 1.0279999639050983e+00 -1.0602350648100109e+02 1.0000000000000000e+00 1.1261491709383545e+01 1.9549407493737164e+01 9.9783586687328309e+00 
138 1 2 1.0279999639177269e+00 -1.1438462973909954e+02 1.0000000000000000e+00 1.1261487766773348e+01 1.9549411522631882e+01 9.9783647105156987e+00 
188 1 2 1.0279999639338795e+00 -1.4634023592597617e+02 1.0000000000000000e+00 1.1261488654937349e+01 1.9549413278206099e+01 9.9783677520161476e+00 
194 1 2 1.0279999639307620e+00 -1.2830192351218798e+02 1.0000000000000000e+00 1.1261488558003078e+01 1.9549412895684835e+01 9.9783671044285978e+00 
120 1 2 1.0279999638535544e+00 -1.4190595029526389e+02 1.0000000000000000e+00 1.1261484554701953e+01 1.9549404368631091e+01 9.9783523821828464e+00 
145 1 2 1.0279999639313948e+00 -1.6562684111049052e+02 1.0000000000000000e+00 1.1261488578735129e+01 1.9549412972913636e+01 9.9783672353540602e+00 
243 1 2 1.0279999638894146e+00 -1.7215944230628597e+02 1.0000000000000000e+00 1.1261485903750575e+01 1.9549408620007927e+01 9.9783596203789742e+00 
168 1 2 1.0279999765597005e+00 -1.1701691263602332e+02 1.0000000000000000e+00 1.0511299299128900e+01 1.6564582659394695e+01 1.1169881426532427e+01 
236 1 2 1.0280000487963228e+00 -1.4916626896887084e+02 1.0000000000000000e+00 1.0520573090457248e+01 1.6560943419642740e+01 1.1176295759298137e+01 
172 1 2 1.0280000949242287e+00 -1.1590062827265440e+02 1.0000000000000000e+00 1.0526853377773795e+01 1.6558952140670606e+01 1.1179833358221492e+01 
122 1 2 1.0280000949235488e+00 -8.7528660501735800e+01 1.0000000000000000e+00 1.0526853296048325e+01 1.6558952160792927e+01 1.1179833297598668e+01 
230 1 2 1.0280000947135133e+00 -1.4915060910861661e+02 1.0000000000000000e+00 1.0526828250771171e+01 1.6558958281119160e+01 1.1179814463456943e+01 
49 1 2 1.0280000949149226e+00 -1.4110290381688259e+02 1.0000000000000000e+00 1.0526852257108562e+01 1.6558952417958618e+01 1.1179832533805472e+01 
47 1 2 1.0280001060766408e+00 -2.0191540162873150e+02 1.0000000000000000e+00 1.0528244387608650e+01 1.6558604267919812e+01 1.1180778410250809e+01 
238 1 2 1.0280000700809215e+00 -7.4682646778574579e+01 1.0000000000000000e+00 1.2731666582446898e+01 1.8595354184532777e+01 1.2981203534509428e+01 
189 1 2 1.0280000700807070e+00 -6.3281634854927219e+01 1.0000000000000000e+00 1.2731666630751855e+01 1.8595354263492542e+01 1.2981203719352129e+01 
191 1 2 1.0280000212581870e+00 -1.2260548903771063e+02 1.0000000000000000e+00 1.2741397964559932e+01 1.8613030782356741e+01 1.3031713288567651e+01 
142 1 2 1.0280001520481996e+00 -1.2080954703118097e+02 1.0000000000000000e+00 1.3088198140340989e+01 1.8331671108528557e+01 1.2597845818543812e+01 
279 1 2 1.0279999852447066e+00 -1.5421256558980343e+02 1.0000000000000000e+00 1.2668819427722550e+01 1.3821300199009313e+01 1.5605740180742687e+01 
278 1 2 1.0279999852489095e+00 -1.2504355453224203e+02 1.0000000000000000e+00 1.2669240108886626e+01 1.3821173247396199e+01 1.5605911092161197e+01 
237 1 2 1.0279999852969526e+00 -1.6920760686346040e+02 1.0000000000000000e+00 1.2673935049983179e+01 1.3819774585505511e+01 1.5607846825534505e+01 
171 1 2 1.0279999853486084e+00 -9.5596523378800526e+01 1.0000000000000000e+00 1.2678778381632892e+01 1.3818365189171102e+01 1.5609902873630157e+01 
73 1 2 1.0279999853665689e+00 -6.7767745029509328e+01 1.0000000000000000e+00 1.2680418633426568e+01 1.3817894836161306e+01 1.5610615062645726e+01 
52 1 2 1.0279999947026204e+00 -1.4489590942710575e+02 1.0000000000000000e+00 1.2698935469121906e+01 1.5696389689465626e+01 1.6118737915537800e+01 
70 1 2 1.0279999945858416e+00 -2.0371362050083974e+02 1.0000000000000000e+00 1.2699682760394372e+01 1.5695759663922363e+01 1.6119131998419476e+01 
83 1 2 1.0279999941587097e+00 -1.3146522302632769e+02 1.0000000000000000e+00 1.2702383683668462e+01 1.5693463996775336e+01 1.6120572730989757e+01 
139 1 2 1.0279999907410293e+00 -1.3123022451274159e+02 1.0000000000000000e+00 1.2723603590395827e+01 1.5674595860273010e+01 1.6132483308216127e+01 
67 1 2 1.0280001161141534e+00 -1.3203366378582541e+02 1.0000000000000000e+00 1.3284494332751555e+01 1.4490078357149830e+01 1.6277882692019180e+01 
22 1 2 1.0280000141350274e+00 -2.2217219233144488e+02 1.0000000000000000e+00 8.1354789711579354e+00 1.9005986359390914e+01 1.6425451441241243e+01 
136 1 2 1.0280000140385654e+00 -9.3238816982971798e+01 1.0000000000000000e+00 8.1358423837437819e+00 1.9006100572591329e+01 1.6424930402482033e+01 
253 1 2 1.0280000140384669e+00 -1.9436290110873918e+02 1.0000000000000000e+00 8.1358427483996412e+00 1.9006100689913847e+01 1.6424929880540510e+01 
5 1 2 1.0280000140384666e+00 -1.2764776517654734e+02 1.0000000000000000e+00 8.1358427484131539e+00 1.9006100689918565e+01 1.6424929880521567e+01 
256 1 2 1.0280000140384666e+00 -6.2576350327006530e+01 1.0000000000000000e+00 8.1358427483989466e+00 1.9006100689913538e+01 1.6424929880541413e+01 
104 1 2 1.0279999738005303e+00 -1.4584886045774513e+02 1.0000000000000000e+00 1.0358434805059723e+01 1.7884989410092949e+01 1.6131847566947023e+01 
153 1 2 1.0279999720579940e+00 -1.1606935865458112e+02 1.0000000000000000e+00 1.0358506438525346e+01 1.7884783879708944e+01 1.6132188075327420e+01 
69 1 2 1.0279999408605558e+00 -2.1986670038742722e+02 1.0000000000000000e+00 1.0367874526174969e+01 1.7890670256173465e+01 1.6129333466742821e+01 
56 1 2 1.0279998169969582e+00 -1.3930841634833274e+02 1.0000000000000000e+00 1.0538248872063683e+01 1.7857776720059707e+01 1.6025380078255417e+01 
231 1 2 1.0280000647698979e+00 -1.3826927820656218e+02 1.0000000000000000e+00 1.1202989027818374e+01 1.7426925391852620e+01 1.5961185086074293e+01 
21 1 2 1.0280000643098575e+00 -2.0259094430573131e+02 1.0000000000000000e+00 1.1203122593264638e+01 1.7426729346811211e+01 1.5961238342216173e+01 
280 1 2 1.0280000640310172e+00 -1.7638316886897874e+02 1.0000000000000000e+00 1.1203201941539870e+01 1.7426612934834491e+01 1.5961270506543952e+01 
59 1 2 1.0280000352960486e+00 -1.0814524947788863e+02 1.0000000000000000e+00 1.3287870740859978e+01 1.7335789548489746e+01 1.3487670856060948e+01 
77 1 2 1.0280000352959782e+00 -1.2618656499675849e+02 1.0000000000000000e+00 1.3287872542789422e+01 1.7335791103627042e+01 1.3487674386742031e+01 
223 1 2 1.0280000352830689e+00 -1.1155765837261761e+02 1.0000000000000000e+00 1.3288220571581705e+01 1.7336091908021665e+01 1.3488355669994363e+01 
134 1 2 1.0280000352791454e+00 -1.2428448374351522e+02 1.0000000000000000e+00 1.3288296986267826e+01 1.7336157273299751e+01 1.3488501353090987e+01 
222 1 2 1.0279998765019935e+00 -1.4736358477054634e+02 1.0000000000000000e+00 1.3293271894811435e+01 1.8595590721366754e+01 1.3444668105028953e+01 
102 1 2 1.0279999831648483e+00 -1.4285615981245616e+02 1.0000000000000000e+00 6.8646186746161311e+00 1.2288070929362435e+01 1.9156540491326009e+01 
53 1 2 1.0279999831648439e+00 -1.3110174638967999e+02 1.0000000000000000e+00 6.8646186829179632e+00 1.2288070916727262e+01 1.9156540517320359e+01 
103 1 2 1.0279999831648450e+00 -1.5564007062444594e+02 1.0000000000000000e+00 6.8646186785580747e+00 1.2288070923447872e+01 1.9156540503660455e+01 
60 1 2 1.0279999831648454e+00 -1.3533625813350801e+02 1.0000000000000000e+00 6.8646186781939420e+00 1.2288070924063254e+01 1.9156540502514265e+01 
110 1 2 1.0279999831648454e+00 -9.3875661073508510e+01 1.0000000000000000e+00 6.8646186830097040e+00 1.2288070916601745e+01 1.9156540517606238e+01 
152 1 2 1.0280000021244904e+00 -2.0338889219446327e+02 1.0000000000000000e+00 1.1691035696270136e+01 1.1275186646329219e+01 1.9607809701157361e+01 
151 1 2 1.0280000021661868e+00 -2.2108268717690527e+02 1.0000000000000000e+00 1.1689659115673706e+01 1.1279961519988845e+01 1.9611218227685661e+01 
193 1 2 1.0280000022633966e+00 -1.6379629208422315e+02 1.0000000000000000e+00 1.1686792653795898e+01 1.1291193298035154e+01 1.9619135922810539e+01 
158 1 2 1.0280000022824980e+00 -1.4257116620413706e+02 1.0000000000000000e+00 1.1686266198416076e+01 1.1293411104237387e+01 1.9620699849269901e+01 
209 1 2 1.0280000080169454e+00 -1.0914197433517214e+02 1.0000000000000000e+00 7.3212381967527165e+00 1.9213484935635631e+01 1.6744722920038992e+01 
232 1 2 1.0279999910117670e+00 -1.2598842260229398e+02 1.0000000000000000e+00 1.4339118029877927e+01 4.4238091193488778e+00 2.4825384925170533e+00 
240 1 2 1.0279999910117670e+00 -1.5182190422873512e+02 1.0000000000000000e+00 1.4339118030041037e+01 4.4238091191696984e+00 2.4825384927179672e+00 
24 1 2 1.0279999910117683e+00 -8.3434235699631387e+01 1.0000000000000000e+00 1.4339118027789668e+01 4.4238091216643083e+00 2.4825384899181793e+00 
65 1 2 1.0280000101115729e+00 -1.9057489997883999e+02 1.0000000000000000e+00 1.5625314122538974e+01 5.3660737063542472e+00 2.8150936955371160e+00 
16 1 2 1.0280000101115874e+00 -1.8582004481942133e+02 1.0000000000000000e+00 1.5625314167458965e+01 5.3660741152264153e+00 2.8150941641255751e+00 
98 1 2 1.0280000101011730e+00 -1.2392407967868638e+02 1.0000000000000000e+00 1.5625294440783334e+01 5.3658639897116585e+00 2.8148654639089736e+00 
86 1 2 1.0280000101011675e+00 -1.5035615835245468e+02 1.0000000000000000e+00 1.5625294410789481e+01 5.3658636074655233e+00 2.8148650691221531e+00 
100 1 2 1.0280000100245132e+00 -1.2507056403024316e+02 1.0000000000000000e+00 1.5625285488423167e+01 5.3646039189381387e+00 2.8138883235645875e+00 