LAMMPS data file via write_data, version 30 Jul 2016, timestep = 50400000

294 atoms
2 atom types

0.0000000000000000e+00 2.0000000000000000e+01 xlo xhi
0.0000000000000000e+00 2.0000000000000000e+01 ylo yhi
0.0000000000000000e+00 2.0000000000000000e+01 zlo zhi

Masses

1 3.896
2 4.31

Atoms # meso-molecular

200 1 2 1.0279998598599107e+00 -4.5353545948218731e+01 1.0000000000000000e+00 5.9314930052174528e+00 9.6493293959616402e+00 6.3811300593467424e-01 
254 1 2 1.0279998598570135e+00 -1.6082449986276262e+02 1.0000000000000000e+00 5.9314924880926299e+00 9.6493302498246560e+00 6.3811168290942399e-01 
260 1 2 1.0279998598569906e+00 -1.6453469715949763e+02 1.0000000000000000e+00 5.9314924846866290e+00 9.6493302558432674e+00 6.3811167291401871e-01 
207 1 2 1.0279998598569955e+00 -5.7215331166673685e+01 1.0000000000000000e+00 5.9314924855224245e+00 9.6493302543619688e+00 6.3811167538104385e-01 
232 1 2 1.0279999913179534e+00 -1.2598842260229398e+02 1.0000000000000000e+00 2.1624778763601557e-01 8.5636004830784689e+00 6.1347586703187824e+00 
240 1 2 1.0279999913179552e+00 -1.5182190422873512e+02 1.0000000000000000e+00 2.1624778779911358e-01 8.5636004828993091e+00 6.1347586705196688e+00 
24 1 2 1.0279999913179529e+00 -8.3434235699631387e+01 1.0000000000000000e+00 2.1624778554789426e-01 8.5636004853938417e+00 6.1347586677200994e+00 
98 1 2 1.0280000097424973e+00 -1.2392407967868638e+02 1.0000000000000000e+00 1.5024904201353240e+00 9.5055987386698479e+00 6.4671168720872476e+00 
86 1 2 1.0280000097424753e+00 -1.5035615835245468e+02 1.0000000000000000e+00 1.5024903900813518e+00 9.5055983564047164e+00 6.4671164772475471e+00 
100 1 2 1.0280000096689146e+00 -1.2507056403024316e+02 1.0000000000000000e+00 1.5024812460836985e+00 9.5043386087273980e+00 6.4661396043085455e+00 
65 1 2 1.0280000097524993e+00 -1.9057489997883999e+02 1.0000000000000000e+00 1.5025101340392797e+00 9.5058084658760986e+00 6.4673451343493600e+00 
16 1 2 1.0280000097525137e+00 -1.8582004481942133e+02 1.0000000000000000e+00 1.5025101790202169e+00 9.5058088747692953e+00 6.4673456030010552e+00 
169 1 2 1.0279999420452073e+00 -1.5609064567353869e+02 1.0000000000000000e+00 5.3948581954590473e+00 1.2647810813374477e+01 1.9394852793722708e+00 
211 1 2 1.0279999420452071e+00 -1.3183135231437896e+02 1.0000000000000000e+00 5.3948581954548755e+00 1.2647810813378209e+01 1.9394852793709538e+00 
218 1 2 1.0279999420452068e+00 -1.3444362310109088e+02 1.0000000000000000e+00 5.3948581954501682e+00 1.2647810813382360e+01 1.9394852793694519e+00 
267 1 2 1.0279999420452071e+00 -1.4527516994145782e+02 1.0000000000000000e+00 5.3948581954618176e+00 1.2647810813372363e+01 1.9394852793732420e+00 
162 1 2 1.0279999420452066e+00 -1.1106808352241468e+02 1.0000000000000000e+00 5.3948581954528363e+00 1.2647810813380080e+01 1.9394852793703223e+00 
277 1 2 1.0280002743385421e+00 -8.2330552478280467e+01 1.0000000000000000e+00 5.5916407659602223e+00 1.0254459484459746e+01 8.5597113232983890e-01 
37 1 2 1.0280002743384784e+00 -1.8372273038645793e+02 1.0000000000000000e+00 5.5916408340237904e+00 1.0254460388051829e+01 8.5597098172998365e-01 
226 1 2 1.0280002743385410e+00 -1.4259725465830428e+02 1.0000000000000000e+00 5.5916407674625122e+00 1.0254459503987238e+01 8.5597112899292971e-01 
29 1 2 1.0280001056042998e+00 -1.4808302355489749e+02 1.0000000000000000e+00 4.6898309682955626e+00 1.3501694719965455e+01 1.3569548375808662e+00 
221 1 2 1.0279999008704075e+00 -1.6823535132125244e+02 1.0000000000000000e+00 3.5402636140657715e+00 1.4539324715713606e+01 1.4812671061670799e+00 
264 1 2 1.0279999008704073e+00 -1.3739386025664507e+02 1.0000000000000000e+00 3.5402636139943096e+00 1.4539324715739824e+01 1.4812671061660678e+00 
233 1 2 1.0279999008704079e+00 -1.2315508243442059e+02 1.0000000000000000e+00 3.5402636094418503e+00 1.4539324717461753e+01 1.4812671061262475e+00 
12 1 2 1.0279999008709200e+00 -1.2445538382015968e+02 1.0000000000000000e+00 3.5402612503309978e+00 1.4539325558068482e+01 1.4812670609440095e+00 
270 1 2 1.0279999008704068e+00 -1.5784409374749825e+02 1.0000000000000000e+00 3.5402636142613946e+00 1.4539324715638198e+01 1.4812671061681171e+00 
214 1 2 1.0279998188592807e+00 -1.4986949830514001e+02 1.0000000000000000e+00 1.7449488576951897e+00 1.2873809306413778e+01 5.3724075068484325e+00 
33 1 2 1.0280000762005519e+00 -1.0361990947030719e+02 1.0000000000000000e+00 3.0523664625721008e+00 1.2535644152066332e+01 5.5278611149535308e+00 
205 1 2 1.0280000782243508e+00 -1.7498598830854567e+02 1.0000000000000000e+00 3.0601041327463205e+00 1.2546572817995767e+01 5.5314811365085816e+00 
249 1 2 1.0280000789367143e+00 -6.6890685371560963e+01 1.0000000000000000e+00 3.0624839886769277e+00 1.2550201010331344e+01 5.5324509840255933e+00 
68 1 2 1.0280000789296222e+00 -1.1674927211423767e+02 1.0000000000000000e+00 3.0624605723024798e+00 1.2550164861756782e+01 5.5324414608289452e+00 
269 1 2 1.0280000789296297e+00 -1.1666748343327095e+02 1.0000000000000000e+00 3.0624605906802902e+00 1.2550164889723263e+01 5.5324414689239809e+00 
19 1 2 1.0280000789296293e+00 -1.1873795605772976e+02 1.0000000000000000e+00 3.0624605906152920e+00 1.2550164889624416e+01 5.5324414688952528e+00 
80 1 2 1.0279999847003087e+00 -1.2781968959829166e+02 1.0000000000000000e+00 5.8455994633653594e+00 1.0275078621892934e+01 4.3203858611261010e+00 
208 1 2 1.0279999847116024e+00 -1.6099473514147078e+02 1.0000000000000000e+00 5.8456021884896581e+00 1.0275073932102190e+01 4.3203837236712372e+00 
262 1 2 1.0279999846726062e+00 -1.4830282214280913e+02 1.0000000000000000e+00 5.8455911704011960e+00 1.0275089321427728e+01 4.3203899587525383e+00 
197 1 2 1.0279999846673331e+00 -1.7274675029091532e+02 1.0000000000000000e+00 5.8455912311797498e+00 1.0275092177632716e+01 4.3203919044877548e+00 
75 1 2 1.0279999846880645e+00 -8.1270324252947489e+01 1.0000000000000000e+00 5.8455967644286959e+00 1.0275083834640023e+01 4.3203883602008339e+00 
14 1 2 1.0279999846886845e+00 -1.5932250613795048e+02 1.0000000000000000e+00 5.8455968947426564e+00 1.0275083567057036e+01 4.3203882288438837e+00 
165 1 2 1.0279999850273673e+00 -1.3298329079185356e+02 1.0000000000000000e+00 5.8456729692456717e+00 1.0274940136054100e+01 4.3203200027450839e+00 
150 1 2 1.0280001361995084e+00 -1.5141579116101886e+02 1.0000000000000000e+00 2.0168893730793864e+00 1.4581091649874775e+01 3.3428988817896421e+00 
35 1 2 1.0280001361995084e+00 -1.3922686355746828e+02 1.0000000000000000e+00 2.0168893730796675e+00 1.4581091649874768e+01 3.3428988817900391e+00 
42 1 2 1.0280001361995084e+00 -1.4285734905511245e+02 1.0000000000000000e+00 2.0168893730794313e+00 1.4581091649874839e+01 3.3428988817896550e+00 
251 1 2 1.0280001362009203e+00 -1.3766836995470663e+02 1.0000000000000000e+00 2.0168910048328441e+00 1.4581093274964180e+01 3.3428998645220567e+00 
175 1 2 1.0280001361996125e+00 -1.0566484076532392e+02 1.0000000000000000e+00 2.0168894931434491e+00 1.4581091769060643e+01 3.3428989544064285e+00 
41 1 2 1.0280001361995084e+00 -1.3555630132738568e+02 1.0000000000000000e+00 2.0168893730793656e+00 1.4581091649874704e+01 3.3428988817896692e+00 
36 1 2 1.0279999804252509e+00 -1.5289877005292982e+02 1.0000000000000000e+00 1.7443186366606356e+00 1.0660265067054551e+01 9.4490701792986673e+00 
81 1 2 1.0279999804252509e+00 -8.0600089366103873e+01 1.0000000000000000e+00 1.7443186378129247e+00 1.0660265066534727e+01 9.4490701788477249e+00 
164 1 2 1.0279999804252506e+00 -8.5874372949336617e+01 1.0000000000000000e+00 1.7443186399173727e+00 1.0660265065734984e+01 9.4490701781466644e+00 
202 1 2 1.0279999804253368e+00 -1.9284397236159089e+02 1.0000000000000000e+00 1.7443179288743815e+00 1.0660265380307868e+01 9.4490704513350288e+00 
148 1 2 1.0279999804252504e+00 -2.3710292374093325e+02 1.0000000000000000e+00 1.7443186410779192e+00 1.0660265065226591e+01 9.4490701777049004e+00 
228 1 2 1.0279999804073585e+00 -7.5508145920800288e+01 1.0000000000000000e+00 1.7444812296818972e+00 1.0660212468957702e+01 9.4490234622774931e+00 
127 1 2 1.0280000286518745e+00 -1.2147743404993977e+02 1.0000000000000000e+00 3.1716146771340221e+00 1.2782002089081933e+01 9.6540297194354778e+00 
266 1 2 1.0280000812601859e+00 -1.1349666800107256e+02 1.0000000000000000e+00 3.1947306329459635e+00 1.3134590050370974e+01 8.0507793400342980e+00 
27 1 2 1.0280000254470554e+00 -1.6297572459296117e+02 1.0000000000000000e+00 3.2348865677136245e+00 1.2685433154701807e+01 9.6576495630544237e+00 
112 1 2 1.0280000254753789e+00 -1.3611847566380749e+02 1.0000000000000000e+00 3.2352901697578393e+00 1.2685330595835429e+01 9.6572900291241712e+00 
119 1 2 1.0280000254753792e+00 -1.2044484826126558e+02 1.0000000000000000e+00 3.2352901701891352e+00 1.2685330595734248e+01 9.6572900287341081e+00 
115 1 2 1.0279999825299246e+00 -1.3482013966882937e+02 1.0000000000000000e+00 2.1481598505331871e+00 1.3740671788211669e+01 8.1663811260160983e+00 
276 1 2 1.0279999825299229e+00 -1.1086197530090878e+02 1.0000000000000000e+00 2.1481598502334220e+00 1.3740671786930351e+01 8.1663811210103940e+00 
131 1 2 1.0279999825299349e+00 -8.1230588111900374e+01 1.0000000000000000e+00 2.1481598610680090e+00 1.3740671832735723e+01 8.1663812995153968e+00 
167 1 2 1.0279999825299386e+00 -1.2389523194226740e+02 1.0000000000000000e+00 2.1481598340843822e+00 1.3740671717027766e+01 8.1663808471632908e+00 
82 1 2 1.0279999825298600e+00 -7.1417316174653195e+01 1.0000000000000000e+00 2.1481596686680118e+00 1.3740670756281588e+01 8.1663768728334905e+00 
239 1 2 1.0279999809759828e+00 -1.4940688387589611e+02 1.0000000000000000e+00 9.6738716379372858e-01 1.7230805527996825e+01 8.0086094255276663e+00 
177 1 2 1.0279999809759830e+00 -1.5032438457758477e+02 1.0000000000000000e+00 9.6738716376191358e-01 1.7230805528032814e+01 8.0086094255745550e+00 
30 1 2 1.0279999809759828e+00 -1.5779260252262091e+02 1.0000000000000000e+00 9.6738716376191047e-01 1.7230805528032818e+01 8.0086094255745621e+00 
183 1 2 1.0279999809759828e+00 -1.1286219244492756e+02 1.0000000000000000e+00 9.6738716379372458e-01 1.7230805527996829e+01 8.0086094255276841e+00 
31 1 2 1.0279999809759830e+00 -1.1206295616401756e+02 1.0000000000000000e+00 9.6738716376131206e-01 1.7230805528033496e+01 8.0086094255753864e+00 
190 1 2 1.0279999809759828e+00 -1.2060804684492217e+02 1.0000000000000000e+00 9.6738716379392220e-01 1.7230805527996601e+01 8.0086094255275029e+00 
154 1 2 1.0279999809759832e+00 -1.2452801314498777e+02 1.0000000000000000e+00 9.6738716305302574e-01 1.7230805528813725e+01 8.0086094272158252e+00 
176 1 2 1.0280000094755604e+00 -1.3725152052296090e+02 1.0000000000000000e+00 4.9685881800767904e+00 1.1533056272847260e+01 1.1397686604382349e+01 
79 1 2 1.0280000094755608e+00 -1.4714282846450106e+02 1.0000000000000000e+00 4.9685881675245023e+00 1.1533056284039878e+01 1.1397686590105907e+01 
129 1 2 1.0280000094755608e+00 -1.6029643449302552e+02 1.0000000000000000e+00 4.9685881675246426e+00 1.1533056284039768e+01 1.1397686590106053e+01 
135 1 2 1.0280000094755606e+00 -2.1270993562858521e+02 1.0000000000000000e+00 4.9685881675247057e+00 1.1533056284039777e+01 1.1397686590106066e+01 
128 1 2 1.0280000094755608e+00 -1.7242829190585439e+02 1.0000000000000000e+00 4.9685881675245147e+00 1.1533056284039857e+01 1.1397686590105931e+01 
286 1 2 1.0280000094755624e+00 -2.1440704316015530e+02 1.0000000000000000e+00 4.9685881964834042e+00 1.1533056258217941e+01 1.1397686623042443e+01 
124 1 2 1.0280000221400549e+00 -1.8487688185830140e+02 1.0000000000000000e+00 4.7384812208409732e+00 1.0711710591844945e+01 1.5865967103119662e+01 
220 1 2 1.0280000221526029e+00 -1.0201686767458068e+02 1.0000000000000000e+00 4.7386640998345433e+00 1.0711343749772647e+01 1.5866320100336923e+01 
265 1 2 1.0280000221540171e+00 -1.0617184082937550e+02 1.0000000000000000e+00 4.7386846917329857e+00 1.0711302413294160e+01 1.5866359919850677e+01 
84 1 2 1.0280000225537613e+00 -1.0365405200012597e+02 1.0000000000000000e+00 4.7517703343729778e+00 1.0696947060652022e+01 1.5876001959338961e+01 
271 1 2 1.0279999902012200e+00 -1.1874122291150951e+02 1.0000000000000000e+00 5.2374645006008897e+00 1.2340135356704598e+01 1.3829892164160286e+01 
143 1 2 1.0279999952925540e+00 -1.3234100541537998e+02 1.0000000000000000e+00 5.2950700114593863e+00 1.2380896960886210e+01 1.3761333350870290e+01 
259 1 2 1.0279999953701420e+00 -1.1499035624743381e+02 1.0000000000000000e+00 5.2966744506544554e+00 1.2381031275081321e+01 1.3760393054865560e+01 
85 1 2 1.0279999953784138e+00 -1.6509105742915045e+02 1.0000000000000000e+00 5.2968476601039107e+00 1.2381043470530253e+01 1.3760293750154419e+01 
281 1 2 1.0279999954003678e+00 -1.7327229418054159e+02 1.0000000000000000e+00 5.2973088839831082e+00 1.2381074408547708e+01 1.3760030581533366e+01 
95 1 2 1.0279999955800414e+00 -7.7757788000234513e+01 1.0000000000000000e+00 5.3005574411702980e+00 1.2381660380998024e+01 1.3757676184126264e+01 
294 1 2 1.0279999747331214e+00 -9.8405162966408312e+01 1.0000000000000000e+00 5.1792157947710269e+00 1.1264988203983878e+01 1.7250665706687844e+01 
89 1 2 1.0279999733718577e+00 -1.6884178062372030e+02 1.0000000000000000e+00 5.1836869341986898e+00 1.1258204032203396e+01 1.7251943267573015e+01 
157 1 2 1.0279999733658167e+00 -1.2099905445235002e+02 1.0000000000000000e+00 5.1837051793722448e+00 1.1258174294041961e+01 1.7251948976524496e+01 
39 1 2 1.0279999733717329e+00 -1.1395717764156353e+02 1.0000000000000000e+00 5.1836872124119973e+00 1.1258203467488237e+01 1.7251943397267262e+01 
244 1 2 1.0279999723873352e+00 -5.9698558921321613e+01 1.0000000000000000e+00 5.1867641399827864e+00 1.1253335217512255e+01 1.7252814461302599e+01 
125 1 2 1.0280001293543490e+00 -1.0866503645801664e+02 1.0000000000000000e+00 2.4331695173266734e+00 1.7114862323886356e+01 1.9942913506496357e+01 
212 1 2 1.0280001293543493e+00 -1.2328550881740907e+02 1.0000000000000000e+00 2.4331695173266890e+00 1.7114862323886314e+01 1.9942913506496279e+01 
173 1 2 1.0280001293543493e+00 -1.8328445355200481e+02 1.0000000000000000e+00 2.4331695173266503e+00 1.7114862323886314e+01 1.9942913506496307e+01 
87 1 2 1.0280001293543493e+00 -1.3354125800075613e+02 1.0000000000000000e+00 2.4331695173267209e+00 1.7114862323886385e+01 1.9942913506496375e+01 
13 1 2 1.0280001293543493e+00 -1.6442220905953533e+02 1.0000000000000000e+00 2.4331695173266512e+00 1.7114862323886332e+01 1.9942913506496335e+01 
94 1 2 1.0280001293543490e+00 -1.4862060595465746e+02 1.0000000000000000e+00 2.4331695173267045e+00 1.7114862323886335e+01 1.9942913506496300e+01 
105 1 2 1.0280001293543490e+00 -1.5231130069233100e+02 1.0000000000000000e+00 2.4331695173266628e+00 1.7114862323886328e+01 1.9942913506496318e+01 
209 1 2 1.0280000070645576e+00 -1.0914197431243477e+02 1.0000000000000000e+00 1.3208972389500557e+01 3.3567147114778799e+00 4.1379878817282850e-01 
8 1 2 1.0279999853181656e+00 -1.5434582628292361e+02 1.0000000000000000e+00 1.2227412358871710e+01 2.9859590721263662e-01 7.9236628692043913e+00 
50 1 2 1.0279999853181649e+00 -1.1422425679575088e+02 1.0000000000000000e+00 1.2227412358871693e+01 2.9859590721268581e-01 7.9236628692043025e+00 
156 1 2 1.0279999853181636e+00 -1.7721464388291673e+02 1.0000000000000000e+00 1.2227412562322073e+01 2.9859581810330404e-01 7.9236629533956755e+00 
1 1 2 1.0279999853181641e+00 -1.4662469266444756e+02 1.0000000000000000e+00 1.2227412358871073e+01 2.9859590721289858e-01 7.9236628692041844e+00 
51 1 2 1.0279999853181649e+00 -1.0901828858804956e+02 1.0000000000000000e+00 1.2227412358871163e+01 2.9859590721287804e-01 7.9236628692041711e+00 
106 1 2 1.0280003037960503e+00 -2.0884293550077615e+02 1.0000000000000000e+00 1.1215013288478179e+01 5.5879905748945076e+00 1.9343420600011559e+01 
109 1 2 1.0279999227332239e+00 -7.4031877899152278e+01 1.0000000000000000e+00 1.1991423867803000e+01 4.4024890739105169e+00 1.9560202606288517e+01 
4 1 2 1.0279999227332242e+00 -1.1967893103602182e+02 1.0000000000000000e+00 1.1991423867802999e+01 4.4024890739113989e+00 1.9560202606288204e+01 
54 1 2 1.0279999227332244e+00 -1.4886240870349957e+02 1.0000000000000000e+00 1.1991423867801478e+01 4.4024890739444436e+00 1.9560202606279418e+01 
258 1 2 1.0279999227332244e+00 -1.3378937704893261e+02 1.0000000000000000e+00 1.1991423867801567e+01 4.4024890739430580e+00 1.9560202606279734e+01 
242 1 2 1.0279999227323446e+00 -1.6200905131836370e+02 1.0000000000000000e+00 1.1991423510146403e+01 4.4024976504636637e+00 1.9560200245794011e+01 
284 1 2 1.0280000700528127e+00 -1.6301066007852921e+02 1.0000000000000000e+00 8.2136640848202074e+00 8.1990152250620358e+00 1.9918193380689836e+01 
285 1 2 1.0280000700527212e+00 -1.2666641589691584e+02 1.0000000000000000e+00 8.2136639232496620e+00 8.1990150495093506e+00 1.9918193337270193e+01 
292 1 2 1.0280000700527181e+00 -1.3975274090463688e+02 1.0000000000000000e+00 8.2136639198468515e+00 8.1990150468385288e+00 1.9918193335162506e+01 
90 1 2 1.0280000694049862e+00 -1.0564446379934364e+02 1.0000000000000000e+00 8.2121532882334396e+00 8.1930221598746922e+00 1.9922466005793403e+01 
291 1 2 1.0280000700527463e+00 -1.4048111938867311e+02 1.0000000000000000e+00 8.2136639687962276e+00 8.1990150854432251e+00 1.9918193365266923e+01 
290 1 2 1.0280000700529532e+00 -1.5347424628350871e+02 1.0000000000000000e+00 8.2136643184681830e+00 8.1990153722615240e+00 1.9918193567478571e+01 
206 1 2 1.0279999764602117e+00 -1.0781136847036497e+02 1.0000000000000000e+00 9.4412625907903021e+00 7.3771486130016939e+00 1.8980160754015888e+01 
198 1 2 1.0279999290516435e+00 -1.5536702374276416e+02 1.0000000000000000e+00 1.0402768635785488e+01 6.6718435215548002e+00 1.9209214160561036e+01 
213 1 2 1.0279999290516433e+00 -6.8014571226201156e+01 1.0000000000000000e+00 1.0402768635728053e+01 6.6718435216627814e+00 1.9209214160550189e+01 
99 1 2 1.0279999290516428e+00 -2.0067658292301559e+02 1.0000000000000000e+00 1.0402768635951080e+01 6.6718435209487907e+00 1.9209214160423908e+01 
61 1 2 1.0279999290471729e+00 -1.0033668302045518e+02 1.0000000000000000e+00 1.0402804629315879e+01 6.6717362190419927e+00 1.9209198317821585e+01 
184 1 2 1.0279999290225952e+00 -1.3977573543822928e+02 1.0000000000000000e+00 1.0403126424211298e+01 6.6709483390556183e+00 1.9209154849438843e+01 
250 1 2 1.0280000430472342e+00 -1.4678007735272996e+02 1.0000000000000000e+00 8.2499208774305828e+00 1.1680041505847123e+01 2.5112225633697656e+00 
48 1 2 1.0280000430473852e+00 -1.6156338123588566e+02 1.0000000000000000e+00 8.2499201790655885e+00 1.1680041410590357e+01 2.5112221872044516e+00 
229 1 2 1.0280000430476774e+00 -1.5276396892198574e+02 1.0000000000000000e+00 8.2499189184249992e+00 1.1680041238399141e+01 2.5112215077799016e+00 
252 1 2 1.0280000430474405e+00 -2.3453674688022102e+02 1.0000000000000000e+00 8.2499199225922730e+00 1.1680041375048258e+01 2.5112220481363585e+00 
201 1 2 1.0280000201065314e+00 -1.5491845766869369e+02 1.0000000000000000e+00 8.4272056393187782e+00 1.1673205770454427e+01 2.5526829360552776e+00 
272 1 2 1.0279999499331176e+00 -1.0036116811675689e+02 1.0000000000000000e+00 9.5364802274949536e+00 1.3199400230170653e+01 1.7905614826565750e+00 
117 1 2 1.0279999499361558e+00 -1.3013103970391776e+02 1.0000000000000000e+00 9.5364701365862388e+00 1.3199410658414386e+01 1.7905594666838935e+00 
273 1 2 1.0279999499331616e+00 -1.6165065248606885e+02 1.0000000000000000e+00 9.5364800914002235e+00 1.3199400364481370e+01 1.7905614461638810e+00 
293 1 2 1.0280000373172085e+00 -6.1867899557547823e+01 1.0000000000000000e+00 1.0817536040503363e+01 1.2018339959471477e+01 2.8480847343160813e+00 
186 1 2 1.0280000373172291e+00 -1.0599734945569199e+02 1.0000000000000000e+00 1.0817535733463663e+01 1.2018340004653718e+01 2.8480846047695900e+00 
245 1 2 1.0280000373172098e+00 -5.3792641441218016e+01 1.0000000000000000e+00 1.0817536067366460e+01 1.2018339955518583e+01 2.8480847456507092e+00 
241 1 2 1.0279999799922033e+00 -2.2274567502434169e+02 1.0000000000000000e+00 1.2638360229316472e+01 1.2572609350149676e+01 2.2278588564297213e+00 
57 1 2 1.0279999799880386e+00 -1.5168752600700171e+02 1.0000000000000000e+00 1.2639055645728327e+01 1.2571453638199179e+01 2.2296708392996480e+00 
113 1 2 1.0279999799880353e+00 -1.2541942230354852e+02 1.0000000000000000e+00 1.2639055645686813e+01 1.2571453638259253e+01 2.2296708391964208e+00 
64 1 2 1.0279999799880375e+00 -1.1165766598477660e+02 1.0000000000000000e+00 1.2639055645735448e+01 1.2571453638188299e+01 2.2296708393176883e+00 
46 1 2 1.0279999799880626e+00 -1.2030683076609031e+02 1.0000000000000000e+00 1.2639048223539417e+01 1.2571464960220403e+01 2.2296520434843758e+00 
25 1 2 1.0280000086631971e+00 -1.3004559501439223e+02 1.0000000000000000e+00 7.7271772768701741e+00 1.3454557168085033e+01 8.7434271913735406e-01 
10 1 2 1.0280000086630332e+00 -1.0489760528895391e+02 1.0000000000000000e+00 7.7271784268109487e+00 1.3454556472857480e+01 8.7434197749637443e-01 
3 1 2 1.0280000086630345e+00 -1.2033198674332704e+02 1.0000000000000000e+00 7.7271784266951364e+00 1.3454556472982482e+01 8.7434197761329391e-01 
111 1 2 1.0280000086630348e+00 -6.2909231630495150e+01 1.0000000000000000e+00 7.7271784264456436e+00 1.3454556473192284e+01 8.7434197781948386e-01 
11 1 2 1.0280000086630334e+00 -1.1964981493208269e+02 1.0000000000000000e+00 7.7271784271497355e+00 1.3454556472585157e+01 8.7434197722604057e-01 
210 1 2 1.0279997794891362e+00 -1.2315828611556461e+02 1.0000000000000000e+00 1.0668085183663470e+01 1.6050730851713812e+01 3.0393863897098505e-01 
102 1 2 1.0279999838361791e+00 -1.4285615981245616e+02 1.0000000000000000e+00 1.2744862351264349e+01 1.6423356768190473e+01 2.8138330222701402e+00 
53 1 2 1.0279999838361871e+00 -1.3110174638967999e+02 1.0000000000000000e+00 1.2744862359569163e+01 1.6423356755557155e+01 2.8138330482596272e+00 
103 1 2 1.0279999838361804e+00 -1.5564007062444594e+02 1.0000000000000000e+00 1.2744862355207713e+01 1.6423356762276761e+01 2.8138330346023102e+00 
60 1 2 1.0279999838361880e+00 -1.3533625813350801e+02 1.0000000000000000e+00 1.2744862354843416e+01 1.6423356762892066e+01 2.8138330334563380e+00 
110 1 2 1.0279999838361882e+00 -9.3875661073508510e+01 1.0000000000000000e+00 1.2744862359660946e+01 1.6423356755431652e+01 2.8138330485454794e+00 
282 1 2 1.0280000998116861e+00 -1.1091408996961934e+02 1.0000000000000000e+00 1.0538898701190723e+01 1.5916670478341457e+01 3.0899124238468498e-02 
289 1 2 1.0280000998116865e+00 -1.3730914006538484e+02 1.0000000000000000e+00 1.0538898701193718e+01 1.5916670478340922e+01 3.0899124237124438e-02 
288 1 2 1.0280000998116865e+00 -1.6573638578171605e+02 1.0000000000000000e+00 1.0538898701193737e+01 1.5916670478340903e+01 3.0899124237114956e-02 
234 1 2 1.0280000998116863e+00 -1.3147073551284274e+02 1.0000000000000000e+00 1.0538898701189215e+01 1.5916670478341144e+01 3.0899124239171627e-02 
283 1 2 1.0280000998116863e+00 -1.0566099101412155e+02 1.0000000000000000e+00 1.0538898701186177e+01 1.5916670478341683e+01 3.0899124240536813e-02 
160 1 2 1.0280000885587841e+00 -9.1714694613657841e+01 1.0000000000000000e+00 1.0543437437755053e+01 1.5923365796389616e+01 2.8768595658153030e-02 
55 1 2 1.0279999891917642e+00 -1.2187716315021214e+02 1.0000000000000000e+00 1.1615593306599397e+01 1.6901546106756903e+01 2.3369995835140536e+00 
62 1 2 1.0280000335068018e+00 -9.2813851692401727e+01 1.0000000000000000e+00 8.5568533839509460e+00 1.4830363814414799e+01 4.3728464082087575e+00 
38 1 2 1.0280000335085522e+00 -1.4230991241124232e+02 1.0000000000000000e+00 8.5568529689894035e+00 1.4830364967781572e+01 4.3728450947345383e+00 
133 1 2 1.0280000335085535e+00 -1.2169655600092838e+02 1.0000000000000000e+00 8.5568529686777648e+00 1.4830364968577499e+01 4.3728450937965997e+00 
6 1 2 1.0280000335088972e+00 -1.5388704575329518e+02 1.0000000000000000e+00 8.5568528818138194e+00 1.4830365178511556e+01 4.3728448405848361e+00 
274 1 2 1.0280000335063249e+00 -1.8477871829388658e+02 1.0000000000000000e+00 8.5568535026533805e+00 1.4830363515644441e+01 4.3728467624205996e+00 
76 1 2 1.0280000335085542e+00 -1.5803567224094343e+02 1.0000000000000000e+00 8.5568529686559618e+00 1.4830364968642936e+01 4.3728450937242407e+00 
225 1 2 1.0280000335063051e+00 -1.9091144448590137e+02 1.0000000000000000e+00 8.5568535078650427e+00 1.4830363502479186e+01 4.3728467780051554e+00 
287 1 2 1.0280001229496964e+00 -1.4857677795099184e+02 1.0000000000000000e+00 1.2259078618198524e+01 1.5527223903163136e+01 3.3486537983664206e+00 
121 1 2 1.0280000146057111e+00 -9.8021380688402189e+01 1.0000000000000000e+00 1.1765619968709027e+01 1.3721362093143707e+01 4.0565122334336614e+00 
163 1 2 1.0280000146058859e+00 -9.9146549724000295e+01 1.0000000000000000e+00 1.1765623274837628e+01 1.3721357716602657e+01 4.0565137836533305e+00 
170 1 2 1.0280000146076838e+00 -1.0299440413927857e+02 1.0000000000000000e+00 1.1765656245289680e+01 1.3721314961726238e+01 4.0565289511848954e+00 
114 1 2 1.0280000146063575e+00 -1.1749025795056190e+02 1.0000000000000000e+00 1.1765632010884284e+01 1.3721346186284771e+01 4.0565178686245291e+00 
185 1 2 1.0280000146093220e+00 -1.4236163126675729e+02 1.0000000000000000e+00 1.1765685163744710e+01 1.3721279914494493e+01 4.0565414522583003e+00 
28 1 2 1.0280000091273707e+00 -1.4914759973099189e+02 1.0000000000000000e+00 1.0747579396711004e+01 1.7674690890983079e+01 3.7984466950349525e+00 
132 1 2 1.0280000092661588e+00 -1.3682436094123128e+02 1.0000000000000000e+00 1.0748698493312489e+01 1.7672795641323816e+01 3.7947664559661791e+00 
74 1 2 1.0280000089640571e+00 -8.4562514835371388e+01 1.0000000000000000e+00 1.0746530824502816e+01 1.7676935005361347e+01 3.8025099259437458e+00 
268 1 2 1.0280000089640575e+00 -1.4701291843472148e+02 1.0000000000000000e+00 1.0746530821405248e+01 1.7676935008970680e+01 3.8025099340664590e+00 
204 1 2 1.0280000089640542e+00 -1.5595974010267781e+02 1.0000000000000000e+00 1.0746530832245696e+01 1.7676934996336804e+01 3.8025099056365415e+00 
219 1 2 1.0279999875585648e+00 -1.3622652179675364e+02 1.0000000000000000e+00 1.0096940272157696e+01 1.7802304625110779e+01 6.0059436711524992e+00 
246 1 2 1.0279999875585653e+00 -1.1873399466439955e+02 1.0000000000000000e+00 1.0096940272156223e+01 1.7802304625110448e+01 6.0059436711574605e+00 
247 1 2 1.0279999875585648e+00 -1.1583018040220657e+02 1.0000000000000000e+00 1.0096940272156179e+01 1.7802304625110342e+01 6.0059436711574481e+00 
108 1 2 1.0279999875585655e+00 -1.2992550793912503e+02 1.0000000000000000e+00 1.0096940272155132e+01 1.7802304625109883e+01 6.0059436711606162e+00 
261 1 2 1.0279999875736499e+00 -9.7619903188112502e+01 1.0000000000000000e+00 1.0096540764504171e+01 1.7802190998156696e+01 6.0072482398134071e+00 
181 1 2 1.0280000105950908e+00 -1.2059729316452444e+02 1.0000000000000000e+00 1.2125322987795407e+01 1.5633319818491655e+01 6.8881322223212775e+00 
101 1 2 1.0279999989200819e+00 -1.0188507869522695e+02 1.0000000000000000e+00 1.2672008968266757e+01 1.5460560376634445e+01 7.1743010026450174e+00 
17 1 2 1.0279999989200825e+00 -9.1497291097412585e+01 1.0000000000000000e+00 1.2672008930125649e+01 1.5460560297572828e+01 7.1743010320010416e+00 
155 1 2 1.0279999989200832e+00 -1.7982804348792371e+02 1.0000000000000000e+00 1.2672008930032682e+01 1.5460560297380942e+01 7.1743010320684419e+00 
66 1 2 1.0279999989200828e+00 -8.2266780399069205e+01 1.0000000000000000e+00 1.2672008930070401e+01 1.5460560297457899e+01 7.1743010320456051e+00 
26 1 2 1.0279999989200828e+00 -7.6524356740407171e+01 1.0000000000000000e+00 1.2672008930048847e+01 1.5460560297413570e+01 7.1743010320604430e+00 
149 1 2 1.0279999989175972e+00 -1.5366562392125076e+02 1.0000000000000000e+00 1.2672178520945254e+01 1.5460912837777895e+01 7.1741691858433612e+00 
118 1 2 1.0280000252090151e+00 -1.0929724640040783e+02 1.0000000000000000e+00 1.1951126305519010e+01 1.9249059668357567e+01 7.4335963529402793e+00 
40 1 2 1.0280000243649619e+00 -2.1662739832392737e+02 1.0000000000000000e+00 1.1961081491668020e+01 1.9249997967275164e+01 7.4413055620944792e+00 
126 1 2 1.0280000215582437e+00 -1.2642751992127114e+02 1.0000000000000000e+00 1.1995488887359777e+01 1.9254963324260096e+01 7.4695331114633632e+00 
107 1 2 1.0279999985232324e+00 -1.2066505317314727e+02 1.0000000000000000e+00 1.0301638334825807e+01 1.6996187883764645e+01 8.3592490678071396e+00 
78 1 2 1.0279999981371930e+00 -1.3580128459063002e+02 1.0000000000000000e+00 1.0289615180720876e+01 1.6972179395016905e+01 8.3500316201241187e+00 
20 1 2 1.0279999981371926e+00 -1.8749506334454355e+02 1.0000000000000000e+00 1.0289615179985166e+01 1.6972179393316438e+01 8.3500316194711814e+00 
217 1 2 1.0279999981371928e+00 -1.3832070444270749e+02 1.0000000000000000e+00 1.0289615179206317e+01 1.6972179391510920e+01 8.3500316187788997e+00 
235 1 2 1.0279999981371899e+00 -1.6204743110994147e+02 1.0000000000000000e+00 1.0289615141510570e+01 1.6972179304440512e+01 8.3500315853354294e+00 
203 1 2 1.0279999981371937e+00 -2.3600974835702823e+02 1.0000000000000000e+00 1.0289615358369232e+01 1.6972179958824377e+01 8.3500318080943181e+00 
196 1 2 1.0280000133308120e+00 -1.6640904307411739e+02 1.0000000000000000e+00 1.2899000399801322e+01 1.3271394719427422e+01 1.9111807780152105e+01 
43 1 2 1.0280000133308114e+00 -1.8440376905207398e+02 1.0000000000000000e+00 1.2899000399380778e+01 1.3271394719488043e+01 1.9111807780089407e+01 
92 1 2 1.0280000133308120e+00 -1.8125457958695071e+02 1.0000000000000000e+00 1.2899000399668378e+01 1.3271394719446409e+01 1.9111807780132263e+01 
195 1 2 1.0280000133308125e+00 -1.2198012055131124e+02 1.0000000000000000e+00 1.2899000399801389e+01 1.3271394719427407e+01 1.9111807780152116e+01 
44 1 2 1.0280000133308114e+00 -1.7227967601636504e+02 1.0000000000000000e+00 1.2899000399399137e+01 1.3271394719485265e+01 1.9111807780092128e+01 
146 1 2 1.0280000133308125e+00 -1.6680605341507675e+02 1.0000000000000000e+00 1.2899000399801428e+01 1.3271394719427382e+01 1.9111807780152123e+01 
147 1 2 1.0280000133308120e+00 -1.6930389278445401e+02 1.0000000000000000e+00 1.2899000399801340e+01 1.3271394719427422e+01 1.9111807780152105e+01 