LAMMPS data file via write_data, version 30 Jul 2016, timestep = 50400000

3696 atoms
8 atom types

0.0000000000000000e+00 1.0000000000000000e+02 xlo xhi
0.0000000000000000e+00 4.0000000000000000e+01 ylo yhi
0.0000000000000000e+00 4.0000000000000000e+01 zlo zhi

Masses

1 3.896
2 5.36
3 20.064
4 8.378
5 8.378
6 8.378
7 8.378
8 8.378

Atoms # meso-molecular

1009 1010 2 1.0280000000000065e+00 -3.8028939064748902e+03 1.0000000000000000e+00 3.2328781477231594e+01 1.6065920197420191e+01 2.8122903287437961e+00 
3495 3496 2 1.0279999999999860e+00 5.8346209460779369e+02 1.0000000000000000e+00 3.3161757833860221e+01 1.6924802007878206e+01 5.3101959228800333e-01 
2875 2876 2 1.0280000000000067e+00 8.4259783276953676e+03 1.0000000000000000e+00 3.3232822362526250e+01 1.6851101405061012e+01 5.7188676436011987e-01 
1516 1517 2 1.0280000000000082e+00 1.9860702752101593e+03 1.0000000000000000e+00 2.6394308942719952e+01 1.9608134354783910e+01 3.4141462625176039e-01 
1978 1979 2 1.0279999999999927e+00 1.9922799534406595e+03 1.0000000000000000e+00 2.6416610006416366e+01 1.9671685500317889e+01 3.7946554466992194e-01 
1461 1462 2 1.0280000000000058e+00 6.2343117616923359e+02 1.0000000000000000e+00 2.6707827344075746e+01 1.9423344584075600e+01 4.4249439396826379e-01 
2034 2035 2 1.0279999999999772e+00 -2.3293492283554669e+03 1.0000000000000000e+00 2.7372835964166629e+01 1.9857287293456338e+01 9.6054512064360642e-01 
1998 1999 2 1.0280000000001603e+00 3.1810645344382192e+03 1.0000000000000000e+00 2.9238422719685570e+01 1.9993452039957727e+01 1.2462600427293846e+00 
3683 3684 2 1.0279999999999876e+00 2.9121342831693261e+02 1.0000000000000000e+00 3.1315267504999071e+01 1.9049004030842941e+01 2.2052090438492105e+00 
3130 3131 2 1.0280000000000067e+00 6.7865371609456097e+03 1.0000000000000000e+00 3.1316115046179270e+01 1.9049129948363213e+01 2.2054128735721208e+00 
886 887 2 1.0279999999999909e+00 1.0108217270443648e+03 1.0000000000000000e+00 3.2435002289598557e+01 1.5965199321158332e+01 2.9250231627686052e+00 
3489 3490 2 1.0280000000000047e+00 4.3449730712220080e+03 1.0000000000000000e+00 3.2437409831504532e+01 1.5962784098062663e+01 2.9372073602849587e+00 
842 843 2 1.0279999999999900e+00 1.8575221346831831e+03 1.0000000000000000e+00 3.2459407450396640e+01 1.5949818274831642e+01 2.9577240963362801e+00 
2269 2270 2 1.0280000000000025e+00 -8.2583051182158342e+03 1.0000000000000000e+00 3.2437083128392743e+01 1.7101352964924374e+01 4.2198143693308907e+00 
1220 1221 2 1.0279999999999856e+00 6.6380301355237941e+02 1.0000000000000000e+00 3.3066549612421476e+01 1.6477484241933926e+01 3.7796104363193517e+00 
130 131 2 1.0280000000000278e+00 6.2758775322971760e+03 1.0000000000000000e+00 2.9556118593712501e+01 1.9934642321548111e+01 2.9838605611220332e+00 
1389 1390 2 1.0280000000000278e+00 1.9562040813261328e+03 1.0000000000000000e+00 2.9640837556826565e+01 1.9950523857723148e+01 3.1606372944493666e+00 
1558 1559 2 1.0280000000000040e+00 -7.6261381979228213e+02 1.0000000000000000e+00 3.0885846483753983e+01 1.8996246366036630e+01 4.3718628440439105e+00 
1851 1852 2 1.0280000000000453e+00 1.9510586858489569e+03 1.0000000000000000e+00 3.1097772343434332e+01 1.9049538374995333e+01 4.5868988093441878e+00 
3364 3365 2 1.0280000000000469e+00 6.2707067337906665e+03 1.0000000000000000e+00 3.1192404311985985e+01 1.9058334579876281e+01 4.6739345359313660e+00 
2455 2456 2 1.0279999999999849e+00 1.5697482262227431e+03 1.0000000000000000e+00 3.2738099999960930e+01 1.8738550252026442e+01 3.1580390660387394e+00 
2154 2155 2 1.0279999999999989e+00 3.9614755119341617e+03 1.0000000000000000e+00 3.3124844292617169e+01 1.7974332520761386e+01 5.6969673606040416e+00 
2601 2602 2 1.0280000000000142e+00 1.7288002991266167e+03 1.0000000000000000e+00 3.1678449297480491e+01 6.8282509923469281e-01 7.6041143774298865e+00 
2517 2518 2 1.0279999999999379e+00 1.7287985285694340e+03 1.0000000000000000e+00 3.1686256743566350e+01 7.0991779905966945e-01 6.0245067664708634e+00 
124 125 2 1.0280000000000078e+00 5.1004426649814686e+03 1.0000000000000000e+00 3.1956499634669811e+01 6.9298021761386941e-01 7.6294948295044032e+00 
376 377 2 1.0280000000000391e+00 5.1004431580009241e+03 1.0000000000000000e+00 3.1966575620072252e+01 7.1744112088307732e-01 6.0088088910587762e+00 
1385 1386 2 1.0279999999998448e+00 -2.1538350370670314e+03 1.0000000000000000e+00 3.3194794841573099e+01 9.2079278024003841e-02 6.3405450682756603e+00 
3482 3483 2 1.0279999999996405e+00 -2.6033099887659628e+03 1.0000000000000000e+00 3.3162193559885495e+01 2.4723559605917060e+00 6.8788137793356912e+00 
965 966 2 1.0280000000000364e+00 -2.1538276133687050e+03 1.0000000000000000e+00 3.3178438166332420e+01 8.9132045708530408e-02 7.3356000962642955e+00 
2518 2519 2 1.0280000000000440e+00 -3.5575566317892144e+03 1.0000000000000000e+00 2.9926247068071550e+01 3.6512985122691424e+00 6.8875182581287753e+00 
2602 2603 2 1.0279999999999880e+00 -3.5575553461675272e+03 1.0000000000000000e+00 2.9926181423120166e+01 3.6512682728224730e+00 6.9075504446484235e+00 
1135 1136 2 1.0280000000000313e+00 -8.2935777878761255e+03 1.0000000000000000e+00 2.9932616319183268e+01 3.6330022990133179e+00 6.8974223785315658e+00 
587 588 2 1.0279999999999503e+00 -5.0685263476317988e+02 1.0000000000000000e+00 3.0016586762180914e+01 3.6764366316411494e+00 6.6112886879075941e+00 
839 840 2 1.0279999999999954e+00 -5.0684934129239673e+02 1.0000000000000000e+00 3.0015094783609854e+01 3.6757886565471138e+00 7.1850407495025728e+00 
125 126 2 1.0280000000000002e+00 -4.9514099550708506e+03 1.0000000000000000e+00 3.1923552871104636e+01 4.5594624132271697e+00 6.7413629940353843e+00 
377 378 2 1.0280000000000571e+00 -4.9514131401308441e+03 1.0000000000000000e+00 3.1925146571055151e+01 4.5581346356961161e+00 7.0718862077291345e+00 
293 294 2 1.0280000000000584e+00 -1.2344043185745282e+04 1.0000000000000000e+00 3.2293463919331536e+01 4.5429819306435766e+00 6.9086844912012175e+00 
209 210 2 1.0280000000001097e+00 -1.2344044812281842e+04 1.0000000000000000e+00 3.2293466133055617e+01 4.5429813422001022e+00 6.9088218034903708e+00 
3236 3237 2 1.0279999999999956e+00 -5.0352689289291429e+03 1.0000000000000000e+00 3.2292597962575748e+01 1.9148149881726450e+01 5.7346334732190973e+00 
227 228 2 1.0280000000000147e+00 -3.3282683094890317e+03 1.0000000000000000e+00 3.2520289732872264e+01 1.9127931055929523e+01 5.9845293588126323e+00 
910 911 2 1.0280000000000271e+00 9.5208268552766494e+03 1.0000000000000000e+00 3.3144621279446973e+01 1.8319734538957754e+01 6.6408736857920285e+00 
3457 3458 2 1.0280000000000398e+00 -7.6745268679171272e+02 1.0000000000000000e+00 3.3212205873877409e+01 1.8417081544104224e+01 6.8516628290529793e+00 
1054 1055 2 1.0279999999999954e+00 2.5063468078423793e+03 1.0000000000000000e+00 3.3053357217243772e+01 1.9417895729357848e+01 1.0486119066789399e+01 
2440 2441 2 1.0280000000000085e+00 2.5063399033756468e+03 1.0000000000000000e+00 3.3140413477276681e+01 1.9597624145631990e+01 1.0537872058230413e+01 
1726 1727 2 1.0279999999999931e+00 9.8456654627653802e+02 1.0000000000000000e+00 3.2271085637235267e+01 1.9467155973238221e+01 1.7519158132058077e+01 
2188 2189 2 1.0280000000000127e+00 9.8456593588665601e+02 1.0000000000000000e+00 3.2269682720103731e+01 1.9489570829131562e+01 1.7520790719381388e+01 
2608 2609 2 1.0279999999999907e+00 2.5062206711443614e+03 1.0000000000000000e+00 3.1953396589697959e+01 1.9668232736520910e+01 1.8258768464000948e+01 
1222 1223 2 1.0279999999999909e+00 2.5062193099139458e+03 1.0000000000000000e+00 3.1947518155773647e+01 1.9506816203369507e+01 1.8221168807470608e+01 
2774 2775 2 1.0280000000000247e+00 3.3149327574786612e+03 1.0000000000000000e+00 3.2842684048935759e+01 1.8447520988427733e+01 1.7801753578529009e+01 
2160 2161 2 1.0279999999999820e+00 1.8270162939261886e+03 1.0000000000000000e+00 3.2587000798173570e+01 1.9942074519440794e+01 1.9992102438405144e+01 
3217 3218 2 1.0279999999999692e+00 4.8246068241034500e+03 1.0000000000000000e+00 3.2910061789894222e+01 1.6584959564639313e+01 2.1242621608757684e+01 
224 225 2 1.0280000000000065e+00 -3.7269442642738059e+03 1.0000000000000000e+00 3.3022863751343920e+01 1.6518997235933270e+01 2.1069355497211514e+01 
2965 2966 2 1.0279999999999980e+00 5.0848985926809910e+03 1.0000000000000000e+00 3.3209555830614221e+01 1.6491161298408343e+01 2.0731233306308916e+01 
2118 2119 2 1.0280000000000058e+00 -2.3303851317659942e+03 1.0000000000000000e+00 3.1579849276107282e+01 1.9780382777831832e+01 2.2188559968064567e+01 
2710 2711 2 1.0279999999998943e+00 5.8381891204462772e+02 1.0000000000000000e+00 3.2237584002061801e+01 1.9033220088848498e+01 2.2462710848692499e+01 
608 609 2 1.0280000000000222e+00 -3.9102314597961067e+03 1.0000000000000000e+00 3.2565829745862736e+01 1.8312828601745387e+01 2.0970257455599075e+01 
1992 1993 2 1.0279999999999780e+00 1.8245133294975296e+03 1.0000000000000000e+00 3.2615852940211184e+01 1.9850442307231834e+01 2.0201481601825503e+01 
2915 2916 2 1.0279999999999836e+00 -2.9618425765264456e+03 1.0000000000000000e+00 3.2771919927270190e+01 1.7144802652489421e+01 2.0343441292280520e+01 
1696 1697 2 1.0280000000000109e+00 5.3143177884593679e+03 1.0000000000000000e+00 3.2525218988823582e+01 1.5899172822786243e+01 2.4069551646884474e+01 
1093 1094 2 1.0280000000000089e+00 -2.0734727523223482e+03 1.0000000000000000e+00 3.2600907738134815e+01 1.5843691498630957e+01 2.4003358735150741e+01 
1682 1683 2 1.0280000000000040e+00 1.0104108457631877e+02 1.0000000000000000e+00 3.2837328114804620e+01 1.5800641195535016e+01 2.3716496524357066e+01 
1933 1934 2 1.0280000000000344e+00 1.8502258835057105e+03 1.0000000000000000e+00 3.3041888706018689e+01 1.5674577242612559e+01 2.3840130780525829e+01 
2121 2122 2 1.0279999999999747e+00 -1.0167568117590813e+03 1.0000000000000000e+00 2.9254036196847633e+01 1.9679469126569220e+01 2.5304022646497362e+01 
1704 1705 2 1.0279999999999807e+00 3.1891224033615208e+03 1.0000000000000000e+00 2.9441696991571707e+01 1.9583535174075553e+01 2.4973733846455598e+01 
1617 1618 2 1.0279999999999654e+00 -9.9700998861119369e+03 1.0000000000000000e+00 3.0328150854672039e+01 1.9468763829138439e+01 2.3792055884665228e+01 
2166 2167 2 1.0279999999999601e+00 3.1928788149748698e+03 1.0000000000000000e+00 3.0452138848761557e+01 1.9340199164172773e+01 2.3788809161606665e+01 
2079 2080 2 1.0279999999999663e+00 -9.9658701555390471e+03 1.0000000000000000e+00 3.0486372838313297e+01 1.9430516947781996e+01 2.3625265878984042e+01 
905 906 2 1.0280000000000380e+00 5.2231752996518208e+03 1.0000000000000000e+00 3.2221275114315596e+01 1.7766477182693411e+01 2.5216772033764677e+01 
2800 2801 2 1.0280000000001626e+00 9.5292034402380832e+03 1.0000000000000000e+00 3.2362433374246841e+01 1.9121602256595370e+01 2.3514375830005459e+01 
432 433 2 1.0279999999999219e+00 -3.1212235865794687e+03 1.0000000000000000e+00 3.2790535298508260e+01 1.7145667240568031e+01 2.3222731256214047e+01 
1479 1480 2 1.0279999999999898e+00 5.2532430962232602e+03 1.0000000000000000e+00 2.9774596708746110e+01 1.6688382338736641e+01 2.8268142399084461e+01 
2619 2620 2 1.0279999999999778e+00 6.0691431534584881e+03 1.0000000000000000e+00 2.9878883201641599e+01 1.6719557451982539e+01 2.8161783527038349e+01 
895 896 2 1.0279999999999996e+00 4.2303042766072176e+03 1.0000000000000000e+00 3.0027666225811878e+01 1.6797253076529120e+01 2.7941490336694894e+01 
1011 1012 2 1.0279999999999234e+00 -5.7669767375709744e+03 1.0000000000000000e+00 3.2542195878613768e+01 1.6899917227862105e+01 2.5789427958310743e+01 
3038 3039 2 1.0279999999999645e+00 1.6396948062832687e+03 1.0000000000000000e+00 3.0796214908712312e+01 1.7014068791485307e+01 2.7730157789311679e+01 
506 507 2 1.0279999999999407e+00 1.8453049078776062e+03 1.0000000000000000e+00 2.6513940255958744e+01 1.8337994383720581e+01 2.7972383442627518e+01 
3405 3406 2 1.0279999999999725e+00 4.3324617304507738e+03 1.0000000000000000e+00 2.6695156121432735e+01 1.8280179505742968e+01 2.7820011877363125e+01 
466 467 2 1.0279999999999896e+00 9.9788276094189314e+02 1.0000000000000000e+00 2.6822467644084103e+01 1.8284062394569716e+01 2.7703318441932073e+01 
1261 1262 2 1.0279999999999763e+00 -3.8174678106820993e+03 1.0000000000000000e+00 2.7490776305390405e+01 1.8276702134443163e+01 2.7418083523507047e+01 
422 423 2 1.0279999999999785e+00 -5.0226346615781686e+03 1.0000000000000000e+00 2.7826682173381773e+01 1.8588546882779614e+01 2.7239754589419121e+01 
1659 1660 2 1.0279999999999749e+00 -9.9627964403767805e+02 1.0000000000000000e+00 2.8786631427588226e+01 1.9807634663019400e+01 2.6646123354667157e+01 
601 602 2 1.0280000000000438e+00 -4.8115780636973068e+03 1.0000000000000000e+00 3.0055756022703424e+01 1.8285293177148869e+01 2.6722271347448551e+01 
490 491 2 1.0280000000000675e+00 9.5128483508592562e+03 1.0000000000000000e+00 3.0292270626528211e+01 1.8474513054688984e+01 2.6413934927365226e+01 
656 657 2 1.0279999999999265e+00 5.4130488227168626e+03 1.0000000000000000e+00 3.1169701199137133e+01 1.9477181900040577e+01 2.8508628037019662e+01 
2749 2750 2 1.0280000000000027e+00 -5.3018367721630402e+03 1.0000000000000000e+00 3.1530083977127159e+01 1.8102999995456447e+01 2.8178181654635143e+01 
1849 1850 2 1.0279999999999510e+00 -8.2548819850452419e+03 1.0000000000000000e+00 3.1910593015669118e+01 1.7398661661349955e+01 2.6576920486401477e+01 
1524 1525 2 1.0280000000000444e+00 3.9517694810023513e+03 1.0000000000000000e+00 3.2065495701340389e+01 1.9779808147535583e+01 2.6913865131610716e+01 
2878 2879 2 1.0279999999999621e+00 6.7968603467757621e+03 1.0000000000000000e+00 3.2514710990094798e+01 1.9269954308409421e+01 2.6487447596872443e+01 
568 569 2 1.0279999999998826e+00 6.7946793076259410e+03 1.0000000000000000e+00 3.2997192271073253e+01 1.9161647615588212e+01 2.6495273543271793e+01 
3411 3412 2 1.0279999999999903e+00 5.7818586531141568e+02 1.0000000000000000e+00 2.7965289046953082e+01 1.6873391022218719e+01 3.0287028077654426e+01 
3127 3128 2 1.0279999999999998e+00 8.4240128909954619e+03 1.0000000000000000e+00 2.8150935855650118e+01 1.6750136197464155e+01 3.0232244017829792e+01 
642 643 2 1.0279999999999807e+00 -2.6919601299913552e+02 1.0000000000000000e+00 2.8641112311061661e+01 1.6595046374984229e+01 2.9348906704410119e+01 
143 144 2 1.0279999999999998e+00 -2.6949595115159653e+01 1.0000000000000000e+00 2.8650553298086827e+01 1.6564631973182376e+01 2.9880118584997593e+01 
2629 2630 2 1.0280000000000749e+00 1.8161564995677329e+03 1.0000000000000000e+00 2.1923829979829637e+01 1.9844144015018440e+01 3.1252832831329947e+01 
1684 1685 2 1.0279999999999758e+00 1.9919156838254794e+03 1.0000000000000000e+00 2.4028111773503070e+01 1.9393991988178779e+01 2.9893302566807595e+01 
3532 3533 2 1.0279999999999798e+00 6.2692791986074790e+03 1.0000000000000000e+00 2.4205227917859311e+01 1.9262372971480332e+01 2.9645552338048258e+01 
2271 2272 2 1.0279999999999623e+00 1.9491575104971757e+03 1.0000000000000000e+00 2.4241673563113370e+01 1.9239623914977170e+01 2.9571405899001252e+01 
1642 1643 2 1.0279999999999938e+00 -7.6655345936663934e+02 1.0000000000000000e+00 2.4678968639214013e+01 1.9131319014800631e+01 2.8973957418526542e+01 
1701 1702 2 1.0279999999999867e+00 5.2426428050318700e+03 1.0000000000000000e+00 2.6914113976895123e+01 1.8658826166272124e+01 2.9109917431141504e+01 
662 663 2 1.0280000000000364e+00 6.8076503420285089e+03 1.0000000000000000e+00 2.8136257403079274e+01 1.8928083189468033e+01 2.9920567349608710e+01 
2957 2958 2 1.0280000000000393e+00 5.4247416619571723e+03 1.0000000000000000e+00 2.9361518471705075e+01 1.9915019619087996e+01 2.9134082036068040e+01 
29 30 2 1.0279999999999574e+00 2.9300412479867384e+02 1.0000000000000000e+00 2.9521759566501387e+01 1.9846126906790712e+01 2.9059740439276776e+01 
3263 3264 2 1.0279999999999339e+00 3.0044507609724388e+02 1.0000000000000000e+00 2.9740240657483774e+01 1.8807447510965645e+01 3.0364705345015821e+01 
3538 3539 2 1.0280000000000895e+00 -1.6000094269983824e+03 1.0000000000000000e+00 3.0860411242219360e+01 1.7544435690495590e+01 3.0178910096398315e+01 
265 266 2 1.0279999999999458e+00 -9.3079295093228720e+03 1.0000000000000000e+00 3.1061059117643065e+01 1.7917219837621669e+01 3.1133861674361555e+01 
572 573 2 1.0280000000000116e+00 1.2249107364709482e+04 1.0000000000000000e+00 3.1547843186851551e+01 1.7311153893068262e+01 3.1193812332457700e+01 
2195 2196 2 1.0279999999999969e+00 5.5394217679848543e+03 1.0000000000000000e+00 3.2108964229770734e+01 1.7435791381584632e+01 3.0808776146341312e+01 
812 813 2 1.0280000000000227e+00 6.1625693737796910e+03 1.0000000000000000e+00 3.2854028229147318e+01 1.8977266184437092e+01 3.1151418898763012e+01 
980 981 2 1.0279999999999752e+00 4.1166449168642412e+03 1.0000000000000000e+00 3.1885004230569596e+01 1.6571307421044047e+01 3.3232854198687214e+01 
1239 1240 2 1.0280000000000069e+00 1.3900482243542124e+03 1.0000000000000000e+00 3.2015200563196863e+01 1.6656815932690542e+01 3.3478127509875698e+01 
1359 1360 2 1.0279999999999994e+00 1.4598177629234697e+03 1.0000000000000000e+00 3.2747760245563839e+01 1.6228741322302330e+01 3.3197813446336774e+01 
2661 2662 2 1.0280000000000304e+00 -2.9419952842714902e+03 1.0000000000000000e+00 3.3290866902197820e+01 1.6376342380293089e+01 3.2751756135816962e+01 
2186 2187 2 1.0279999999999929e+00 -3.9247814642694052e+03 1.0000000000000000e+00 1.4310672505149072e-01 1.9407410531048264e+01 3.3570595536443854e+01 
1724 1725 2 1.0279999999999923e+00 -3.9247813746012953e+03 1.0000000000000000e+00 1.4312665114129716e-01 1.8790124830741817e+01 3.3570593405001560e+01 
1934 1935 2 1.0279999999999940e+00 -3.9247819500036981e+03 1.0000000000000000e+00 1.4308205980141664e-01 1.9407370004818180e+01 3.2432731787545521e+01 
1472 1473 2 1.0279999999999967e+00 -3.9247819490664197e+03 1.0000000000000000e+00 1.4306282481581523e-01 1.8790086664793716e+01 3.2432729374158065e+01 
2295 2296 2 1.0279999999999971e+00 3.3954874742048692e+03 1.0000000000000000e+00 2.1514212976708730e+01 1.8654707725755387e+01 3.2261578949053636e+01 
1238 1239 2 1.0279999999999749e+00 1.8972146168977501e+03 1.0000000000000000e+00 2.1652397208738666e+01 1.8695698478743861e+01 3.2033215991782555e+01 
2618 2619 2 1.0279999999999774e+00 -1.8017914675664525e+02 1.0000000000000000e+00 2.1736749057883788e+01 1.8538631117591937e+01 3.2351387965815540e+01 
3498 3499 2 1.0279999999999534e+00 -6.4371781738097779e+03 1.0000000000000000e+00 2.2726440932178129e+01 1.8753292684267119e+01 3.3261623111414110e+01 
3648 3649 2 1.0280000000000107e+00 -6.9481643919904832e+02 1.0000000000000000e+00 2.4681462015491604e+01 1.8702125074425826e+01 3.3927178973185924e+01 
307 308 2 1.0279999999999796e+00 -2.4700446283984570e+03 1.0000000000000000e+00 2.4831228870922217e+01 1.8665044417163426e+01 3.3792870908066568e+01 
2752 2753 2 1.0280000000000318e+00 1.1516186934075431e+03 1.0000000000000000e+00 2.5969250098887905e+01 1.8312736844875225e+01 3.4086530216807908e+01 
1197 1198 2 1.0279999999999148e+00 -6.0974753398268479e+02 1.0000000000000000e+00 2.6124165865861624e+01 1.9655942685245599e+01 3.3272987323238262e+01 
410 411 2 1.0279999999999754e+00 1.7147452042954760e+03 1.0000000000000000e+00 2.6320075750609039e+01 1.8707387203521964e+01 3.3391849726063114e+01 
1797 1798 2 1.0279999999999609e+00 6.0526979510440424e+02 1.0000000000000000e+00 2.7740845157212568e+01 1.8266425375841422e+01 3.1621590792548009e+01 
1059 1060 2 1.0280000000000036e+00 3.6145241411054822e+03 1.0000000000000000e+00 2.7891653097188176e+01 1.7571831534180998e+01 3.1491203256826967e+01 
2740 2741 2 1.0279999999998843e+00 -2.4039755779372617e+03 1.0000000000000000e+00 2.8233337707266472e+01 1.8341166014561377e+01 3.2174765937408850e+01 
2583 2584 2 1.0280000000000826e+00 -6.1079689210859897e+02 1.0000000000000000e+00 2.8790647094845056e+01 1.8475614182423676e+01 3.2097049401364316e+01 
854 855 2 1.0279999999999860e+00 -2.5896490251561590e+03 1.0000000000000000e+00 3.0037536655002601e+01 1.7874678863627285e+01 3.1532197536115607e+01 
1903 1904 2 1.0279999999999387e+00 5.9560204306140549e+03 1.0000000000000000e+00 3.1018359726311040e+01 1.9949014450234493e+01 3.3625093761127040e+01 
3624 3625 2 1.0280000000000253e+00 3.5128436819607505e+03 1.0000000000000000e+00 3.1700807287604352e+01 1.7226337462199506e+01 3.3359344011807316e+01 
736 737 2 1.0280000000000151e+00 3.5783175908685680e+03 1.0000000000000000e+00 3.1164515550778919e+01 1.9981119241264551e+01 3.3483461678254749e+01 
2824 2825 2 1.0280000000000005e+00 -6.6212184826349003e+03 1.0000000000000000e+00 4.0323807775804186e+00 1.9992346821676932e+00 3.5452565373338913e+01 
3160 3161 2 1.0280000000000058e+00 -6.6210890177469209e+03 1.0000000000000000e+00 4.0365448339694083e+00 2.0019290524515512e+00 3.6947953062630617e+01 
3435 3436 2 1.0279999999999998e+00 -5.0774743165763757e+03 1.0000000000000000e+00 4.1568437741025006e+00 2.7399485460043898e+00 3.4990324108998287e+01 
3412 3413 2 1.0279999999999989e+00 -5.0769722432794952e+03 1.0000000000000000e+00 5.4063104417196532e+00 2.6184494689310713e+00 3.4995576267019018e+01 
3183 3184 2 1.0280000000000009e+00 -6.6204704067051807e+03 1.0000000000000000e+00 5.6312678604714765e+00 2.1491723319400422e+00 3.6998067437569333e+01 
2847 2848 2 1.0280000000000014e+00 -6.6206135109113584e+03 1.0000000000000000e+00 5.6384447330506235e+00 2.1492230684901443e+00 3.5402774579248501e+01 
791 792 2 1.0280000000000022e+00 4.2614139965453342e+03 1.0000000000000000e+00 3.7625178016394769e+00 3.7758904583423281e+00 3.5082638544981442e+01 
3101 3102 2 1.0280000000000009e+00 4.2614097379811892e+03 1.0000000000000000e+00 3.7626889869477007e+00 4.3455270170676741e+00 3.5082511474138968e+01 
201 202 2 1.0280000000000047e+00 -5.0774855561200238e+03 1.0000000000000000e+00 4.1580296418329343e+00 5.3813999396921730e+00 3.4989254207518492e+01 
178 179 2 1.0280000000000014e+00 -5.0769809398682810e+03 1.0000000000000000e+00 5.4055948087047607e+00 5.5024339919654635e+00 3.4994279039730671e+01 
3074 3075 2 1.0279999999999985e+00 4.2607209977607718e+03 1.0000000000000000e+00 5.9146567925516811e+00 4.3743534883400654e+00 3.5126486519260474e+01 
764 765 2 1.0280000000000038e+00 4.2607259748146962e+03 1.0000000000000000e+00 5.9147810426703860e+00 3.7469421938627452e+00 3.5126678165352352e+01 
850 851 2 1.0280000000000000e+00 -6.6210989289209938e+03 1.0000000000000000e+00 4.0392884559229190e+00 6.1194663384133472e+00 3.6950731401745202e+01 
514 515 2 1.0279999999999991e+00 -6.6212277646846924e+03 1.0000000000000000e+00 4.0351685802980439e+00 6.1220887346715402e+00 3.5449901946262777e+01 
1462 1463 2 1.0279999999999982e+00 9.5929662993092097e+02 1.0000000000000000e+00 3.5041457989484845e+00 8.1649341675471394e+00 3.6751671114330712e+01 
1798 1799 2 1.0280000000000018e+00 9.5927861716614279e+02 1.0000000000000000e+00 3.5047677590123407e+00 8.1653342142339493e+00 3.5628259296026620e+01 
873 874 2 1.0279999999999994e+00 -6.6204859153425805e+03 1.0000000000000000e+00 5.6296084690271435e+00 5.9713900271123368e+00 3.7001591334930104e+01 
537 538 2 1.0279999999999996e+00 -6.6206286486029367e+03 1.0000000000000000e+00 5.6367763578320389e+00 5.9713030985887823e+00 3.5399329786394297e+01 
1773 1774 2 1.0279999999999989e+00 9.5949603259954597e+02 1.0000000000000000e+00 6.2041636381776666e+00 8.1216052842710678e+00 3.5656217043652646e+01 
1437 1438 2 1.0280000000000009e+00 9.5951973011169343e+02 1.0000000000000000e+00 6.2043092186345179e+00 8.1213227048204217e+00 3.6723641989256521e+01 
3494 3495 2 1.0279999999999976e+00 -1.1733631939676095e+04 1.0000000000000000e+00 5.2886401777359362e+00 8.7175856650260126e+00 3.5155153864387508e+01 
3521 3522 2 1.0279999999999969e+00 -1.1733218639403622e+04 1.0000000000000000e+00 4.4274236554349429e+00 8.7264265265960290e+00 3.5150773071277861e+01 
2765 2766 2 1.0280000000000002e+00 -3.2285959140887944e+03 1.0000000000000000e+00 3.4224508869309762e+00 8.7381195721861147e+00 3.6289562118924458e+01 
2345 2346 2 1.0279999999999978e+00 -3.2285772094563981e+03 1.0000000000000000e+00 3.4227654268142116e+00 8.7384098227881903e+00 3.6088381066428688e+01 
2738 2739 2 1.0279999999999991e+00 -3.2278247957046297e+03 1.0000000000000000e+00 6.2897102902114899e+00 8.6806931643359171e+00 3.6288716989423790e+01 
2318 2319 2 1.0280000000000005e+00 -3.2278045260115186e+03 1.0000000000000000e+00 6.2894292620144743e+00 8.6810537965987269e+00 3.6089049398539935e+01 
1271 1272 2 1.0279999999999776e+00 -3.7532390617875089e+03 1.0000000000000000e+00 1.5619238382883067e+01 1.6612685683285559e+01 3.5395777940018021e+01 
3680 3681 2 1.0279999999999629e+00 -1.7128226381952682e+03 1.0000000000000000e+00 1.5666239098124185e+01 1.6572348754370573e+01 3.5321498214648514e+01 
2326 2327 2 1.0280000000000373e+00 -7.6907831977913502e+03 1.0000000000000000e+00 1.5673524924030810e+01 1.6565457453258112e+01 3.5317089035221045e+01 
1532 1533 2 1.0279999999999512e+00 2.8241205553162245e+03 1.0000000000000000e+00 1.5689869480370580e+01 1.6554793715247868e+01 3.5297812335757200e+01 
3616 3617 2 1.0280000000000191e+00 -1.2415688542587513e+03 1.0000000000000000e+00 1.5776574000197856e+01 1.7073922626011232e+01 3.6240025855057809e+01 
3285 3286 2 1.0280000000000171e+00 2.8911844613476169e+03 1.0000000000000000e+00 1.6948569891077273e+01 1.7452438303779026e+01 3.4489021795143429e+01 
2788 2789 2 1.0279999999999905e+00 1.6129715791008897e+04 1.0000000000000000e+00 1.7332167745018115e+01 1.7869287678671363e+01 3.4497746204014007e+01 
1687 1688 2 1.0279999999999925e+00 3.3648346235878053e+03 1.0000000000000000e+00 1.7514783788335830e+01 1.8994038829130890e+01 3.4579333625792394e+01 
1182 1183 2 1.0280000000000504e+00 -1.3377788275483108e+03 1.0000000000000000e+00 1.7721319267031507e+01 1.7970326516295398e+01 3.4638167590006802e+01 
463 464 2 1.0279999999999079e+00 1.1513529181092326e+03 1.0000000000000000e+00 1.7942637065856044e+01 1.9641849869583162e+01 3.4532777773240468e+01 
1022 1023 2 1.0280000000000633e+00 -2.2350322668985382e+03 1.0000000000000000e+00 1.8756115457872529e+01 1.8376108996880792e+01 3.5203162736562014e+01 
1921 1922 2 1.0279999999999763e+00 1.6377315141873472e+04 1.0000000000000000e+00 1.8987061797693976e+01 1.9458583663890916e+01 3.6397992051264652e+01 
2257 2258 2 1.0280000000000167e+00 1.6373816885951986e+04 1.0000000000000000e+00 2.0232158069931931e+01 1.8357783318065088e+01 3.5611964214332815e+01 
189 190 2 1.0280000000000091e+00 -4.6073300562398945e+03 1.0000000000000000e+00 2.0886366833733536e+01 1.8223394874432707e+01 3.4969318952251172e+01 
2243 2244 2 1.0279999999999654e+00 2.8609850879870814e+03 1.0000000000000000e+00 2.1002410115077371e+01 1.8158573511538876e+01 3.5063870682093658e+01 
1568 1569 2 1.0280000000000100e+00 -9.7108266947352035e+02 1.0000000000000000e+00 2.1516784355885633e+01 1.9407896431033819e+01 3.4701711623170262e+01 
321 322 2 1.0280000000000280e+00 1.4575217195253388e+03 1.0000000000000000e+00 2.1578250868991304e+01 1.8126806686863159e+01 3.4944797345902153e+01 
2283 2284 2 1.0279999999999960e+00 7.0843386468734461e+03 1.0000000000000000e+00 2.2504641103747737e+01 1.8696742144742039e+01 3.4712338025295310e+01 
1274 1275 2 1.0279999999999849e+00 -2.2456001475450330e+03 1.0000000000000000e+00 2.2512319016493407e+01 1.9158719735240805e+01 3.6669796799031630e+01 
1652 1653 2 1.0279999999999874e+00 -9.7364269941517819e+02 1.0000000000000000e+00 2.3364859257397541e+01 1.9177668855776968e+01 3.6447908090051826e+01 
153 154 2 1.0279999999999685e+00 1.4538288163062530e+03 1.0000000000000000e+00 2.4547863710220664e+01 1.8756962208471524e+01 3.6576593915889966e+01 
771 772 2 1.0279999999999883e+00 -2.5018229921466636e+03 1.0000000000000000e+00 2.5524188241635482e+01 1.8294425212892211e+01 3.4344869089739007e+01 
2320 2321 2 1.0279999999999756e+00 -2.3805380350971645e+03 1.0000000000000000e+00 2.5142588926551795e+01 1.8871875977538949e+01 3.7030806023834813e+01 
1863 1864 2 1.0279999999999254e+00 7.0880676858262414e+03 1.0000000000000000e+00 2.5379994470891628e+01 1.8976161536883950e+01 3.5615317611870353e+01 
2299 2300 2 1.0280000000000598e+00 1.0342143651349872e+03 1.0000000000000000e+00 2.8193489573403809e+01 1.8587005837403410e+01 3.4615183140267604e+01 
2953 2954 2 1.0280000000000404e+00 -1.6184052614283119e+03 1.0000000000000000e+00 2.8274074215091133e+01 1.8490422889198310e+01 3.4703489618358631e+01 
1879 1880 2 1.0280000000000367e+00 1.0334845210819292e+03 1.0000000000000000e+00 2.8724946250616096e+01 1.8120631606868205e+01 3.5268041538048038e+01 
1907 1908 2 1.0279999999999718e+00 2.8591425831681086e+03 1.0000000000000000e+00 2.8917012276010094e+01 1.8286503304208136e+01 3.5912712736589128e+01 
3037 3038 2 1.0279999999999945e+00 -1.6219190087060906e+03 1.0000000000000000e+00 2.8994514163459122e+01 1.8048906952376040e+01 3.5209356790703566e+01 
2332 2333 2 1.0279999999999456e+00 1.1542475934586721e+03 1.0000000000000000e+00 3.0009155787612460e+01 1.8217180508887282e+01 3.5686004129130701e+01 
2499 2500 2 1.0280000000000298e+00 -5.9373437964315826e+02 1.0000000000000000e+00 3.0600376385386930e+01 1.8891356680628441e+01 3.6448770821935405e+01 
1284 1285 2 1.0279999999999720e+00 -7.7726949243346098e+03 1.0000000000000000e+00 3.1664726089771349e+01 1.9279022092075884e+01 3.6612345556934564e+01 
603 604 2 1.0279999999999929e+00 -2.4948888426879412e+03 1.0000000000000000e+00 3.1924789776830263e+01 1.8706468683287554e+01 3.5336173809487278e+01 
1447 1448 2 1.0280000000000036e+00 3.5751912295633192e+03 1.0000000000000000e+00 3.3085039264486639e+01 1.8454554569887097e+01 3.5208156956074291e+01 
560 561 2 1.0279999999999887e+00 6.1727913965213502e+03 1.0000000000000000e+00 3.3106272273665262e+01 1.9204844065866311e+01 3.7090993846666429e+01 
3496 3497 2 1.0279999999999974e+00 -5.0769610106105483e+03 1.0000000000000000e+00 5.4048928487533736e+00 2.6181640907282788e+00 3.7400273756362033e+01 
3519 3520 2 1.0279999999999991e+00 -5.0774717212637697e+03 1.0000000000000000e+00 4.1485030328127621e+00 2.7404411837198999e+00 3.7401902283599142e+01 