LAMMPS data file via write_data, version 30 Jul 2016, timestep = 50000000

3696 atoms
8 atom types

0.0000000000000000e+00 1.0000000000000000e+02 xlo xhi
0.0000000000000000e+00 4.0000000000000000e+01 ylo yhi
0.0000000000000000e+00 4.0000000000000000e+01 zlo zhi

Masses

1 3.896
2 5.36
3 20.064
4 8.378
5 8.378
6 8.378
7 8.378
8 8.378

Atoms # meso-molecular

1009 1010 2 1.0279999999999945e+00 -3.8028939064748902e+03 1.0000000000000000e+00 3.2329499503053178e+01 1.6066442399607617e+01 2.8126265722838131e+00 
3495 3496 2 1.0279999999999834e+00 5.8346209460779369e+02 1.0000000000000000e+00 3.3162475860265353e+01 1.6925324209981486e+01 5.3135583638605111e-01 
2875 2876 2 1.0279999999999792e+00 8.4259783276953676e+03 1.0000000000000000e+00 3.3233540388906270e+01 1.6851623607106394e+01 5.7222300853775820e-01 
1516 1517 2 1.0280000000000460e+00 1.9860702752101593e+03 1.0000000000000000e+00 2.6395026972166292e+01 1.9608656559985118e+01 3.4175085138980310e-01 
1978 1979 2 1.0280000000000569e+00 1.9922799534406595e+03 1.0000000000000000e+00 2.6417328035791918e+01 1.9672207705022441e+01 3.7980177003111498e-01 
1461 1462 2 1.0280000000000076e+00 6.2343117616923359e+02 1.0000000000000000e+00 2.6708545372750848e+01 1.9423866789263208e+01 4.4283062062756534e-01 
2034 2035 2 1.0280000000000027e+00 -2.3293492283554669e+03 1.0000000000000000e+00 2.7373553993261481e+01 1.9857809496961540e+01 9.6088135024496735e-01 
1998 1999 2 1.0280000000001759e+00 3.1810645344382192e+03 1.0000000000000000e+00 2.9239140747496908e+01 1.9993974245017448e+01 1.2465962774813681e+00 
3683 3684 2 1.0279999999999700e+00 2.9121342831693261e+02 1.0000000000000000e+00 3.1315985529733769e+01 1.9049526231973125e+01 2.2055452832909981e+00 
3130 3131 2 1.0279999999999652e+00 6.7865371609456097e+03 1.0000000000000000e+00 3.1316833070999685e+01 1.9049652149515822e+01 2.2057491130158038e+00 
886 887 2 1.0280000000000331e+00 1.0108217270443648e+03 1.0000000000000000e+00 3.2435720315496916e+01 1.5965721523338839e+01 2.9253594063003687e+00 
3489 3490 2 1.0280000000000191e+00 4.3449730712220080e+03 1.0000000000000000e+00 3.2438127857397639e+01 1.5963306300250263e+01 2.9375436038185865e+00 
842 843 2 1.0279999999999911e+00 1.8575221346831831e+03 1.0000000000000000e+00 3.2460125476389543e+01 1.5950340476978942e+01 2.9580603398689007e+00 
2269 2270 2 1.0280000000000031e+00 -8.2583051182158342e+03 1.0000000000000000e+00 3.2437801153103351e+01 1.7101875167967783e+01 4.2201506131283919e+00 
1220 1221 2 1.0279999999999967e+00 6.6380301355237941e+02 1.0000000000000000e+00 3.3067267637589062e+01 1.6478006444084521e+01 3.7799466796678685e+00 
130 131 2 1.0280000000000029e+00 6.2758775322971760e+03 1.0000000000000000e+00 2.9556836620238343e+01 1.9935164523421353e+01 2.9841967964949228e+00 
1389 1390 2 1.0280000000000162e+00 1.9562040813261328e+03 1.0000000000000000e+00 2.9641555583275029e+01 1.9951046059332185e+01 3.1609735301370918e+00 
1558 1559 2 1.0280000000000442e+00 -7.6261381979228213e+02 1.0000000000000000e+00 3.0886564511174686e+01 1.8996768568780887e+01 4.3721990836036078e+00 
1851 1852 2 1.0280000000000780e+00 1.9510586858489569e+03 1.0000000000000000e+00 3.1098490370565983e+01 1.9050060577015351e+01 4.5872350488065772e+00 
3364 3365 2 1.0280000000000717e+00 6.2707067337906665e+03 1.0000000000000000e+00 3.1193122338817549e+01 1.9058856781891244e+01 4.6742707754753550e+00 
2455 2456 2 1.0279999999999665e+00 1.5697482262227431e+03 1.0000000000000000e+00 3.2738818025857306e+01 1.8739072454524063e+01 3.1583753089451982e+00 
2154 2155 2 1.0280000000000020e+00 3.9614755119341617e+03 1.0000000000000000e+00 3.3125562315946851e+01 1.7974854724061654e+01 5.6973036060395232e+00 
2601 2602 2 1.0279999999999812e+00 1.7288002991266167e+03 1.0000000000000000e+00 3.1679167188108387e+01 6.8334729328285759e-01 7.6044512835346163e+00 
2517 2518 2 1.0279999999999800e+00 1.7287985285694340e+03 1.0000000000000000e+00 3.1686974633266221e+01 7.1043999683535142e-01 6.0248436751976371e+00 
124 125 2 1.0280000000000176e+00 5.1004426649814686e+03 1.0000000000000000e+00 3.1957217524847476e+01 6.9350241172954785e-01 7.6298317330128089e+00 
376 377 2 1.0279999999999745e+00 5.1004431580009241e+03 1.0000000000000000e+00 3.1967293510718381e+01 7.1796331910026534e-01 6.0091457968608015e+00 
1385 1386 2 1.0279999999998763e+00 -2.1538350370670314e+03 1.0000000000000000e+00 3.3195512734639948e+01 9.2601473888986527e-02 6.3408819633568791e+00 
3482 3483 2 1.0279999999995988e+00 -2.6033099887659628e+03 1.0000000000000000e+00 3.3162911454022144e+01 2.4728781510054043e+00 6.8791506569218841e+00 
965 966 2 1.0280000000000282e+00 -2.1538276133687050e+03 1.0000000000000000e+00 3.3179156056768996e+01 8.9654242323326333e-02 7.3359369940372803e+00 
2518 2519 2 1.0280000000001079e+00 -3.5575566317892144e+03 1.0000000000000000e+00 2.9926964973625182e+01 3.6518207090809116e+00 6.8878551526770710e+00 
2602 2603 2 1.0280000000000293e+00 -3.5575553461675272e+03 1.0000000000000000e+00 2.9926899328787595e+01 3.6517904696925050e+00 6.9078873391597053e+00 
1135 1136 2 1.0280000000000182e+00 -8.2935777878761255e+03 1.0000000000000000e+00 2.9933334224727204e+01 3.6335244958449375e+00 6.8977592730839632e+00 
587 588 2 1.0279999999999885e+00 -5.0685263476317988e+02 1.0000000000000000e+00 3.0017304666291210e+01 3.6769588281156400e+00 6.6116255814119782e+00 
839 840 2 1.0280000000000440e+00 -5.0684934129239673e+02 1.0000000000000000e+00 3.0015812690237887e+01 3.6763108535569757e+00 7.1853776423626874e+00 
125 126 2 1.0280000000000302e+00 -4.9514099550708506e+03 1.0000000000000000e+00 3.1924270778304226e+01 4.5599846085820683e+00 6.7416998766943443e+00 
377 378 2 1.0280000000000860e+00 -4.9514131401308441e+03 1.0000000000000000e+00 3.1925864477957173e+01 4.5586568304423016e+00 7.0722230896213638e+00 
293 294 2 1.0280000000000438e+00 -1.2344043185745282e+04 1.0000000000000000e+00 3.2294181826619024e+01 4.5435041252487434e+00 6.9090213706089081e+00 
209 210 2 1.0280000000000926e+00 -1.2344044812281842e+04 1.0000000000000000e+00 3.2294184040344376e+01 4.5435035368046144e+00 6.9091586828974858e+00 
3236 3237 2 1.0279999999999794e+00 -5.0352689289291429e+03 1.0000000000000000e+00 3.2293315986656523e+01 1.9148672083715152e+01 5.7349697165712490e+00 
227 228 2 1.0280000000000045e+00 -3.3282683094890317e+03 1.0000000000000000e+00 3.2521007756932953e+01 1.9128453257894712e+01 5.9848656025350548e+00 
910 911 2 1.0280000000000273e+00 9.5208268552766494e+03 1.0000000000000000e+00 3.3145339303192628e+01 1.8320256742960552e+01 6.6412099305029466e+00 
3457 3458 2 1.0280000000000338e+00 -7.6745268679171272e+02 1.0000000000000000e+00 3.3212923898127009e+01 1.8417603747519507e+01 6.8519990736439649e+00 
1054 1055 2 1.0279999999999752e+00 2.5063468078423793e+03 1.0000000000000000e+00 3.3054075239358916e+01 1.9418417931144315e+01 1.0486455313827332e+01 
2440 2441 2 1.0279999999999949e+00 2.5063399033756468e+03 1.0000000000000000e+00 3.3141131499377586e+01 1.9598146347403397e+01 1.0538208305411015e+01 
1726 1727 2 1.0280000000000060e+00 9.8456654627653802e+02 1.0000000000000000e+00 3.2271803659460147e+01 1.9467678175251649e+01 1.7519494378420504e+01 
2188 2189 2 1.0279999999999887e+00 9.8456593588665601e+02 1.0000000000000000e+00 3.2270400742374328e+01 1.9490093031146525e+01 1.7521126965709616e+01 
2608 2609 2 1.0279999999999700e+00 2.5062206711443614e+03 1.0000000000000000e+00 3.1954114612415246e+01 1.9668754938462804e+01 1.8259104709865145e+01 
1222 1223 2 1.0280000000000016e+00 2.5062193099139458e+03 1.0000000000000000e+00 3.1948236178496366e+01 1.9507338405158883e+01 1.8221505053601827e+01 
2774 2775 2 1.0280000000000244e+00 3.3149327574786612e+03 1.0000000000000000e+00 3.2843402072009539e+01 1.8448043190443844e+01 1.7802089826113804e+01 
2160 2161 2 1.0279999999999765e+00 1.8270162939261886e+03 1.0000000000000000e+00 3.2587718821254583e+01 1.9942596721637155e+01 1.9992438684162078e+01 
3217 3218 2 1.0279999999999572e+00 4.8246068241034500e+03 1.0000000000000000e+00 3.2910779812519415e+01 1.6585481764001756e+01 2.1242957855266290e+01 
224 225 2 1.0280000000000251e+00 -3.7269442642738059e+03 1.0000000000000000e+00 3.3023581774560625e+01 1.6519519435330437e+01 2.1069691743986603e+01 
2965 2966 2 1.0280000000000502e+00 5.0848985926809910e+03 1.0000000000000000e+00 3.3210273853873623e+01 1.6491683498262077e+01 2.0731569553461522e+01 
2118 2119 2 1.0280000000000011e+00 -2.3303851317659942e+03 1.0000000000000000e+00 3.1580567299819123e+01 1.9780904979772370e+01 2.2188896210652814e+01 
2710 2711 2 1.0279999999998501e+00 5.8381891204462772e+02 1.0000000000000000e+00 3.2238302027034976e+01 1.9033742287221806e+01 2.2463047093924938e+01 
608 609 2 1.0280000000000229e+00 -3.9102314597961067e+03 1.0000000000000000e+00 3.2566547770294100e+01 1.8313350802338267e+01 2.0970593701582263e+01 
1992 1993 2 1.0279999999999911e+00 1.8245133294975296e+03 1.0000000000000000e+00 3.2616570963443351e+01 1.9850964509246797e+01 2.0201817847596988e+01 
2915 2916 2 1.0280000000000478e+00 -2.9618425765264456e+03 1.0000000000000000e+00 3.2772637950655913e+01 1.7145324853040076e+01 2.0343777539464988e+01 
1696 1697 2 1.0280000000000495e+00 5.3143177884593679e+03 1.0000000000000000e+00 3.2525937011922714e+01 1.5899695022372965e+01 2.4069887891296421e+01 
1093 1094 2 1.0280000000000475e+00 -2.0734727523223482e+03 1.0000000000000000e+00 3.2601625761273560e+01 1.5844213698258532e+01 2.4003694979880631e+01 
1682 1683 2 1.0279999999999996e+00 1.0104108457631877e+02 1.0000000000000000e+00 3.2838046137794990e+01 1.5801163395368691e+01 2.3716832769702805e+01 
1933 1934 2 1.0280000000000027e+00 1.8502258835057105e+03 1.0000000000000000e+00 3.3042606728246035e+01 1.5675099442856995e+01 2.3840467026072336e+01 
2121 2122 2 1.0280000000000016e+00 -1.0167568117590813e+03 1.0000000000000000e+00 2.9254754220292259e+01 1.9679991327705732e+01 2.5304358883580004e+01 
1704 1705 2 1.0279999999999985e+00 3.1891224033615208e+03 1.0000000000000000e+00 2.9442415015038755e+01 1.9584057374736663e+01 2.4974070084315120e+01 
1617 1618 2 1.0279999999999585e+00 -9.9700998861119369e+03 1.0000000000000000e+00 3.0328868877947983e+01 1.9469286028729613e+01 2.3792392124316173e+01 
2166 2167 2 1.0279999999999714e+00 3.1928788149748698e+03 1.0000000000000000e+00 3.0452856872469354e+01 1.9340721363329386e+01 2.3789145401555977e+01 
2079 2080 2 1.0279999999999483e+00 -9.9658701555390471e+03 1.0000000000000000e+00 3.0487090861910801e+01 1.9431039147323524e+01 2.3625602118931454e+01 
905 906 2 1.0279999999999725e+00 5.2231752996518208e+03 1.0000000000000000e+00 3.2221993138187692e+01 1.7766999384162496e+01 2.5217108275201500e+01 
2800 2801 2 1.0280000000001597e+00 9.5292034402380832e+03 1.0000000000000000e+00 3.2363151400050825e+01 1.9122124460706118e+01 2.3514712074234403e+01 
432 433 2 1.0279999999999043e+00 -3.1212235865794687e+03 1.0000000000000000e+00 3.2791253320288881e+01 1.7146189442414570e+01 2.3223067501273302e+01 
1479 1480 2 1.0279999999999785e+00 5.2532430962232602e+03 1.0000000000000000e+00 2.9775314733295001e+01 1.6688904537878081e+01 2.8268478634818159e+01 
2619 2620 2 1.0280000000000000e+00 6.0691431534584881e+03 1.0000000000000000e+00 2.9879601226620135e+01 1.6720079651190712e+01 2.8162119762883194e+01 
895 896 2 1.0279999999999656e+00 4.2303042766072176e+03 1.0000000000000000e+00 3.0028384250762560e+01 1.6797775275896200e+01 2.7941826572631680e+01 
1011 1012 2 1.0279999999999410e+00 -5.7669767375709744e+03 1.0000000000000000e+00 3.2542913901908406e+01 1.6900439425899705e+01 2.5789764201884282e+01 
3038 3039 2 1.0279999999999512e+00 1.6396948062832687e+03 1.0000000000000000e+00 3.0796932934163568e+01 1.7014590990760656e+01 2.7730494027411403e+01 
506 507 2 1.0279999999999951e+00 1.8453049078776062e+03 1.0000000000000000e+00 2.6514658279898455e+01 1.8338516582926097e+01 2.7972719671830941e+01 
3405 3406 2 1.0280000000000331e+00 4.3324617304507738e+03 1.0000000000000000e+00 2.6695874145933363e+01 1.8280701705156030e+01 2.7820348107124474e+01 
466 467 2 1.0279999999999756e+00 9.9788276094189314e+02 1.0000000000000000e+00 2.6823185668548099e+01 1.8284584594326738e+01 2.7703654671996738e+01 
1261 1262 2 1.0279999999999816e+00 -3.8174678106820993e+03 1.0000000000000000e+00 2.7491494330503865e+01 1.8277224334382904e+01 2.7418419754637004e+01 
422 423 2 1.0279999999999956e+00 -5.0226346615781686e+03 1.0000000000000000e+00 2.7827400198334473e+01 1.8589069083014493e+01 2.7240090820415016e+01 
1659 1660 2 1.0279999999999450e+00 -9.9627964403767805e+02 1.0000000000000000e+00 2.8787349451299630e+01 1.9808156864945946e+01 2.6646459588304193e+01 
601 602 2 1.0280000000000307e+00 -4.8115780636973068e+03 1.0000000000000000e+00 3.0056474047536184e+01 1.8285815379228591e+01 2.6722607585205733e+01 
490 491 2 1.0280000000000682e+00 9.5128483508592562e+03 1.0000000000000000e+00 3.0292988650995682e+01 1.8475035256982974e+01 2.6414271166135553e+01 
656 657 2 1.0279999999999356e+00 5.4130488227168626e+03 1.0000000000000000e+00 3.1170419223859124e+01 1.9477704102035691e+01 2.8508964277339700e+01 
2749 2750 2 1.0280000000000051e+00 -5.3018367721630402e+03 1.0000000000000000e+00 3.1530802001008912e+01 1.8103522198481336e+01 2.8178517894348989e+01 
1849 1850 2 1.0279999999999150e+00 -8.2548819850452419e+03 1.0000000000000000e+00 3.1911311039314992e+01 1.7399183860098763e+01 2.6577256727487018e+01 
1524 1525 2 1.0280000000000160e+00 3.9517694810023513e+03 1.0000000000000000e+00 3.2066213724895377e+01 1.9780330349524913e+01 2.6914201373362751e+01 
2878 2879 2 1.0279999999999687e+00 6.7968603467757621e+03 1.0000000000000000e+00 3.2515429014876595e+01 1.9270476510642176e+01 2.6487783839420953e+01 
568 569 2 1.0279999999998612e+00 6.7946793076259410e+03 1.0000000000000000e+00 3.2997910297257540e+01 1.9162169818673537e+01 2.6495609787386087e+01 
3411 3412 2 1.0279999999999991e+00 5.7818586531141568e+02 1.0000000000000000e+00 2.7966007071934207e+01 1.6873913224502285e+01 3.0287364309163671e+01 
3127 3128 2 1.0279999999999947e+00 8.4240128909954619e+03 1.0000000000000000e+00 2.8151653880337104e+01 1.6750658399532661e+01 3.0232580249991770e+01 
642 643 2 1.0279999999999894e+00 -2.6919601299913552e+02 1.0000000000000000e+00 2.8641830335064586e+01 1.6595568575056578e+01 2.9349242938231082e+01 
143 144 2 1.0280000000000182e+00 -2.6949595115159653e+01 1.0000000000000000e+00 2.8651271322769258e+01 1.6565154174096442e+01 2.9880454818612108e+01 
2629 2630 2 1.0280000000000233e+00 1.8161564995677329e+03 1.0000000000000000e+00 2.1924548004256636e+01 1.9844666220280345e+01 3.1253169047237755e+01 
1684 1685 2 1.0279999999999685e+00 1.9919156838254794e+03 1.0000000000000000e+00 2.4028829800271275e+01 1.9394514189781873e+01 2.9893638787699807e+01 
3532 3533 2 1.0279999999999794e+00 6.2692791986074790e+03 1.0000000000000000e+00 2.4205945944926459e+01 1.9262895172463114e+01 2.9645888558889247e+01 
2271 2272 2 1.0279999999999705e+00 1.9491575104971757e+03 1.0000000000000000e+00 2.4242391590278704e+01 1.9240146115746082e+01 2.9571742119718031e+01 
1642 1643 2 1.0279999999999483e+00 -7.6655345936663934e+02 1.0000000000000000e+00 2.4679686665819442e+01 1.9131841214568020e+01 2.8974293639104118e+01 
1701 1702 2 1.0280000000000202e+00 5.2426428050318700e+03 1.0000000000000000e+00 2.6914832004213206e+01 1.8659348368293099e+01 2.9110253660460589e+01 
662 663 2 1.0280000000000393e+00 6.8076503420285089e+03 1.0000000000000000e+00 2.8136975430130306e+01 1.8928605391524528e+01 2.9920903580039596e+01 
2957 2958 2 1.0280000000000826e+00 5.4247416619571723e+03 1.0000000000000000e+00 2.9362236497352942e+01 1.9915541821285977e+01 2.9134418270276992e+01 
29 30 2 1.0280000000000491e+00 2.9300412479867384e+02 1.0000000000000000e+00 2.9522477591751198e+01 1.9846649108978351e+01 2.9060076674199010e+01 
3263 3264 2 1.0279999999999316e+00 3.0044507609724388e+02 1.0000000000000000e+00 2.9740958683570216e+01 1.8807969716650081e+01 3.0365041578332931e+01 
3538 3539 2 1.0280000000000196e+00 -1.6000094269983824e+03 1.0000000000000000e+00 3.0861129266469586e+01 1.7544957893871608e+01 3.0179246334035223e+01 
265 266 2 1.0279999999999980e+00 -9.3079295093228720e+03 1.0000000000000000e+00 3.1061777142865186e+01 1.7917742040095252e+01 3.1134197911603618e+01 
572 573 2 1.0280000000000322e+00 1.2249107364709482e+04 1.0000000000000000e+00 3.1548561212323840e+01 1.7311676097206675e+01 3.1194148572265028e+01 
2195 2196 2 1.0279999999999792e+00 5.5394217679848543e+03 1.0000000000000000e+00 3.2109682253440383e+01 1.7436313583823587e+01 3.0809112386749280e+01 
812 813 2 1.0280000000000362e+00 6.1625693737796910e+03 1.0000000000000000e+00 3.2854746254627443e+01 1.8977788387474881e+01 3.1151755139996123e+01 
980 981 2 1.0279999999999967e+00 4.1166449168642412e+03 1.0000000000000000e+00 3.1885722255659509e+01 1.6571829624968956e+01 3.3233190438699445e+01 
1239 1240 2 1.0279999999999840e+00 1.3900482243542124e+03 1.0000000000000000e+00 3.2015918588291477e+01 1.6657338136284420e+01 3.3478463750352709e+01 
1359 1360 2 1.0279999999999736e+00 1.4598177629234697e+03 1.0000000000000000e+00 3.2748478270517722e+01 1.6229263525496428e+01 3.3198149687525344e+01 
2661 2662 2 1.0279999999999534e+00 -2.9419952842714902e+03 1.0000000000000000e+00 3.3291584928368096e+01 1.6376864582633040e+01 3.2752092377868486e+01 
2186 2187 2 1.0279999999999916e+00 -3.9247814642694052e+03 1.0000000000000000e+00 1.4320638838769448e-01 1.9407420438856171e+01 3.3570582002025823e+01 
1724 1725 2 1.0279999999999996e+00 -3.9247813746012953e+03 1.0000000000000000e+00 1.4322631436237809e-01 1.8790134738030968e+01 3.3570579870583529e+01 
1934 1935 2 1.0279999999999860e+00 -3.9247819500036981e+03 1.0000000000000000e+00 1.4318172314305888e-01 1.9407379912626087e+01 3.2432718253127490e+01 
1472 1473 2 1.0279999999999911e+00 -3.9247819490664197e+03 1.0000000000000000e+00 1.4316248806868984e-01 1.8790096572145057e+01 3.2432715839740034e+01 
2295 2296 2 1.0279999999999945e+00 3.3954874742048692e+03 1.0000000000000000e+00 2.1514931002241298e+01 1.8655229930986991e+01 3.2261915163784202e+01 
1238 1239 2 1.0280000000000258e+00 1.8972146168977501e+03 1.0000000000000000e+00 2.1653115234097832e+01 1.8696220684095294e+01 3.2033552207380744e+01 
2618 2619 2 1.0280000000000156e+00 -1.8017914675664525e+02 1.0000000000000000e+00 2.1737467083349067e+01 1.8539153322790217e+01 3.2351724180639749e+01 
3498 3499 2 1.0279999999999947e+00 -6.4371781738097779e+03 1.0000000000000000e+00 2.2727158960051863e+01 1.8753814889905303e+01 3.3261959326722639e+01 
3648 3649 2 1.0280000000000065e+00 -6.9481643919904832e+02 1.0000000000000000e+00 2.4682180040089115e+01 1.8702647280288200e+01 3.3927515192864519e+01 
307 308 2 1.0280000000000162e+00 -2.4700446283984570e+03 1.0000000000000000e+00 2.4831946895482652e+01 1.8665566623255607e+01 3.3793207128519434e+01 
2752 2753 2 1.0280000000000369e+00 1.1516186934075431e+03 1.0000000000000000e+00 2.5969968124490180e+01 1.8313259050971897e+01 3.4086866440623872e+01 
1197 1198 2 1.0279999999999776e+00 -6.0974753398268479e+02 1.0000000000000000e+00 2.6124883890909089e+01 1.9656464891596702e+01 3.3273323545415444e+01 
410 411 2 1.0279999999999025e+00 1.7147452042954760e+03 1.0000000000000000e+00 2.6320793775930031e+01 1.8707909407173201e+01 3.3392185949146885e+01 
1797 1798 2 1.0279999999999512e+00 6.0526979510440424e+02 1.0000000000000000e+00 2.7741563181632134e+01 1.8266947580781604e+01 3.1621927021563280e+01 
1059 1060 2 1.0279999999999641e+00 3.6145241411054822e+03 1.0000000000000000e+00 2.7892371122653199e+01 1.7572353736862627e+01 3.1491539486688563e+01 
2740 2741 2 1.0279999999999045e+00 -2.4039755779372617e+03 1.0000000000000000e+00 2.8234055734029294e+01 1.8341688219300096e+01 3.2175102170043239e+01 
2583 2584 2 1.0280000000000240e+00 -6.1079689210859897e+02 1.0000000000000000e+00 2.8791365122232875e+01 1.8476136387941011e+01 3.2097385632975360e+01 
854 855 2 1.0280000000000240e+00 -2.5896490251561590e+03 1.0000000000000000e+00 3.0038254681799856e+01 1.7875201067138370e+01 3.1532533769834714e+01 
1903 1904 2 1.0279999999999931e+00 5.9560204306140549e+03 1.0000000000000000e+00 3.1019077751735900e+01 1.9949536653101429e+01 3.3625429995863627e+01 
3624 3625 2 1.0279999999999978e+00 3.5128436819607505e+03 1.0000000000000000e+00 3.1701525312709510e+01 1.7226859665467078e+01 3.3359680251412783e+01 
736 737 2 1.0279999999999037e+00 3.5783175908685680e+03 1.0000000000000000e+00 3.1165233576468513e+01 1.9981641444268284e+01 3.3483797913861146e+01 
2824 2825 2 1.0280000000000034e+00 -6.6212184826349003e+03 1.0000000000000000e+00 3.9781207273070369e+00 1.9598036849445477e+00 3.5427181228419542e+01 
3160 3161 2 1.0280000000000042e+00 -6.6210890177469209e+03 1.0000000000000000e+00 3.9822847836905972e+00 1.9624980552278568e+00 3.6922568917711246e+01 
3435 3436 2 1.0279999999999989e+00 -5.0774743165763757e+03 1.0000000000000000e+00 4.1025837235859539e+00 2.7005175485150139e+00 3.4964939964078916e+01 
3412 3413 2 1.0279999999999956e+00 -5.0769722432794952e+03 1.0000000000000000e+00 5.3520503913041164e+00 2.5790184714416955e+00 3.4970192122099647e+01 
3183 3184 2 1.0280000000000009e+00 -6.6204704067051807e+03 1.0000000000000000e+00 5.5770078099000235e+00 2.1097413346283020e+00 3.6972683292649961e+01 
2847 2848 2 1.0280000000000000e+00 -6.6206135109113584e+03 1.0000000000000000e+00 5.5841846824775674e+00 2.1097920711784042e+00 3.5377390434329129e+01 
791 792 2 1.0280000000000027e+00 4.2614139965453342e+03 1.0000000000000000e+00 3.7082577511461894e+00 3.7364594608227772e+00 3.5057254400062071e+01 
3101 3102 2 1.0280000000000000e+00 4.2614097379811892e+03 1.0000000000000000e+00 3.7084289365049314e+00 4.3060960195782982e+00 3.5057127329219597e+01 
201 202 2 1.0279999999999980e+00 -5.0774855561200238e+03 1.0000000000000000e+00 4.1037695914939754e+00 5.3419689422027972e+00 3.4963870062599121e+01 
178 179 2 1.0279999999999987e+00 -5.0769809398682810e+03 1.0000000000000000e+00 5.3513347583033655e+00 5.4630029944760876e+00 3.4968894894811299e+01 
3074 3075 2 1.0279999999999987e+00 4.2607209977607718e+03 1.0000000000000000e+00 5.8603967421699092e+00 4.3349224908506896e+00 3.5101102374341103e+01 
764 765 2 1.0280000000000014e+00 4.2607259748146962e+03 1.0000000000000000e+00 5.8605209923063715e+00 3.7075111963733693e+00 3.5101294020432981e+01 
850 851 2 1.0279999999999996e+00 -6.6210989289209938e+03 1.0000000000000000e+00 3.9850284054993090e+00 6.0800353409239714e+00 3.6925347256825830e+01 
514 515 2 1.0280000000000000e+00 -6.6212277646846924e+03 1.0000000000000000e+00 3.9809085298739646e+00 6.0826577371821644e+00 3.5424517801343406e+01 
1462 1463 2 1.0280000000000002e+00 9.5929662993092097e+02 1.0000000000000000e+00 3.4498857484891601e+00 8.1255031701345182e+00 3.6726286969411341e+01 
1798 1799 2 1.0279999999999989e+00 9.5927861716614279e+02 1.0000000000000000e+00 3.4505077085528670e+00 8.1259032168212713e+00 3.5602875151107249e+01 
873 874 2 1.0280000000000002e+00 -6.6204859153425805e+03 1.0000000000000000e+00 5.5753484187073648e+00 5.9319590296229610e+00 3.6976207190010733e+01 
537 538 2 1.0280000000000005e+00 -6.6206286486029367e+03 1.0000000000000000e+00 5.5825163075123259e+00 5.9318721010994064e+00 3.5373945641474926e+01 
1773 1774 2 1.0279999999999998e+00 9.5949603259954597e+02 1.0000000000000000e+00 6.1499035878581676e+00 8.0821742866343147e+00 3.5630832898733274e+01 
1437 1438 2 1.0280000000000002e+00 9.5951973011169343e+02 1.0000000000000000e+00 6.1500491683150189e+00 8.0818917071806649e+00 3.6698257844337149e+01 
3494 3495 2 1.0280000000000011e+00 -1.1733631939676095e+04 1.0000000000000000e+00 5.2343801274164372e+00 8.6781546673310253e+00 3.5129769719468136e+01 
3521 3522 2 1.0279999999999976e+00 -1.1733218639403622e+04 1.0000000000000000e+00 4.3731636051135148e+00 8.6869955289512095e+00 3.5125388926358490e+01 
2765 2766 2 1.0279999999999982e+00 -3.2285959140887944e+03 1.0000000000000000e+00 3.3681908364338415e+00 8.6986885743751348e+00 3.6264177974005086e+01 
2345 2346 2 1.0279999999999987e+00 -3.2285772094563981e+03 1.0000000000000000e+00 3.3685053763170769e+00 8.6989788249771838e+00 3.6062996921509317e+01 
2738 2739 2 1.0280000000000040e+00 -3.2278247957046297e+03 1.0000000000000000e+00 6.2354502398398184e+00 8.6412621667846210e+00 3.6263332844504419e+01 
2318 2319 2 1.0280000000000016e+00 -3.2278045260115186e+03 1.0000000000000000e+00 6.2351692116318214e+00 8.6416227990746570e+00 3.6063665253620563e+01 
1271 1272 2 1.0279999999999967e+00 -3.7532390617875089e+03 1.0000000000000000e+00 1.5619956409250214e+01 1.6613207889581528e+01 3.5396114141442794e+01 
3680 3681 2 1.0279999999999916e+00 -1.7128226381952682e+03 1.0000000000000000e+00 1.5666957124455656e+01 1.6572870960686771e+01 3.5321834416180906e+01 
2326 2327 2 1.0280000000000189e+00 -7.6907831977913502e+03 1.0000000000000000e+00 1.5674242950354973e+01 1.6565979659577430e+01 3.5317425236767690e+01 
1532 1533 2 1.0280000000000269e+00 2.8241205553162245e+03 1.0000000000000000e+00 1.5690587506677637e+01 1.6555315921563089e+01 3.5298148537357804e+01 
3616 3617 2 1.0279999999999938e+00 -1.2415688542587513e+03 1.0000000000000000e+00 1.5777292026639650e+01 1.7074444832161959e+01 3.6240362056420679e+01 
3285 3286 2 1.0280000000000342e+00 2.8911844613476169e+03 1.0000000000000000e+00 1.6949287917444995e+01 1.7452960510230330e+01 3.4489357997376345e+01 
2788 2789 2 1.0279999999999754e+00 1.6129715791008897e+04 1.0000000000000000e+00 1.7332885771530457e+01 1.7869809885104821e+01 3.4498082406853499e+01 
1687 1688 2 1.0279999999999909e+00 3.3648346235878053e+03 1.0000000000000000e+00 1.7515501814153161e+01 1.8994561035720690e+01 3.4579669829821555e+01 
1182 1183 2 1.0279999999999581e+00 -1.3377788275483108e+03 1.0000000000000000e+00 1.7722037293583764e+01 1.7970848722684554e+01 3.4638503793623634e+01 
463 464 2 1.0280000000000724e+00 1.1513529181092326e+03 1.0000000000000000e+00 1.7943355091665453e+01 1.9642372076201205e+01 3.4533113978449194e+01 
1022 1023 2 1.0280000000000338e+00 -2.2350322668985382e+03 1.0000000000000000e+00 1.8756833483173047e+01 1.8376631204266076e+01 3.5203498942737234e+01 
1921 1922 2 1.0280000000000122e+00 1.6377315141873472e+04 1.0000000000000000e+00 1.8987779823738244e+01 1.9459105870613921e+01 3.6398328257713949e+01 
2257 2258 2 1.0279999999999794e+00 1.6373816885951986e+04 1.0000000000000000e+00 2.0232876095294603e+01 1.8358305524070019e+01 3.5612300424126623e+01 
189 190 2 1.0279999999999698e+00 -4.6073300562398945e+03 1.0000000000000000e+00 2.0887084859415602e+01 1.8223917079830034e+01 3.4969655162923338e+01 
2243 2244 2 1.0280000000000116e+00 2.8609850879870814e+03 1.0000000000000000e+00 2.1003128141072146e+01 1.8159095717081918e+01 3.5064206893330230e+01 
1568 1569 2 1.0280000000000078e+00 -9.7108266947352035e+02 1.0000000000000000e+00 2.1517502382905331e+01 1.9408418637576268e+01 3.4702047835194612e+01 
321 322 2 1.0280000000000000e+00 1.4575217195253388e+03 1.0000000000000000e+00 2.1578968895671593e+01 1.8127328892725387e+01 3.4945133558270662e+01 
2283 2284 2 1.0280000000000047e+00 7.0843386468734461e+03 1.0000000000000000e+00 2.2505359131260477e+01 1.8697264351360214e+01 3.4712674239331861e+01 
1274 1275 2 1.0279999999999760e+00 -2.2456001475450330e+03 1.0000000000000000e+00 2.2513037043862528e+01 1.9159241941650535e+01 3.6670133013830331e+01 
1652 1653 2 1.0280000000000047e+00 -9.7364269941517819e+02 1.0000000000000000e+00 2.3365577284267282e+01 1.9178191062444551e+01 3.6448244307845918e+01 
153 154 2 1.0279999999999927e+00 1.4538288163062530e+03 1.0000000000000000e+00 2.4548581736198091e+01 1.8757484413634216e+01 3.6576930136287658e+01 
771 772 2 1.0280000000000418e+00 -2.5018229921466636e+03 1.0000000000000000e+00 2.5524906267288074e+01 1.8294947418534978e+01 3.4345205311550934e+01 
2320 2321 2 1.0279999999999794e+00 -2.3805380350971645e+03 1.0000000000000000e+00 2.5143306953408469e+01 1.8872398182465524e+01 3.7031142245482030e+01 
1863 1864 2 1.0279999999999301e+00 7.0880676858262414e+03 1.0000000000000000e+00 2.5380712497883710e+01 1.8976683740338135e+01 3.5615653833749782e+01 
2299 2300 2 1.0280000000000897e+00 1.0342143651349872e+03 1.0000000000000000e+00 2.8194207600806664e+01 1.8587528043831149e+01 3.4615519370807519e+01 
2953 2954 2 1.0280000000000313e+00 -1.6184052614283119e+03 1.0000000000000000e+00 2.8274792242077318e+01 1.8490945095525319e+01 3.4703825848504010e+01 
1879 1880 2 1.0280000000000027e+00 1.0334845210819292e+03 1.0000000000000000e+00 2.8725664275986158e+01 1.8121153812495287e+01 3.5268377767552813e+01 
1907 1908 2 1.0280000000000065e+00 2.8591425831681086e+03 1.0000000000000000e+00 2.8917730301218345e+01 1.8287025508743838e+01 3.5913048966710178e+01 
3037 3038 2 1.0279999999999585e+00 -1.6219190087060906e+03 1.0000000000000000e+00 2.8995232188298985e+01 1.8049429157520787e+01 3.5209693020980481e+01 
2332 2333 2 1.0280000000000149e+00 1.1542475934586721e+03 1.0000000000000000e+00 3.0009873813369438e+01 1.8217702712732113e+01 3.5686340361532224e+01 
2499 2500 2 1.0280000000000136e+00 -5.9373437964315826e+02 1.0000000000000000e+00 3.0601094411674040e+01 1.8891878884800171e+01 3.6449107055825472e+01 
1284 1285 2 1.0280000000000038e+00 -7.7726949243346098e+03 1.0000000000000000e+00 3.1665444115644764e+01 1.9279544294566371e+01 3.6612681794381359e+01 
603 604 2 1.0280000000000147e+00 -2.4948888426879412e+03 1.0000000000000000e+00 3.1925507803391298e+01 1.8706990885525951e+01 3.5336510048486559e+01 
1447 1448 2 1.0279999999999596e+00 3.5751912295633192e+03 1.0000000000000000e+00 3.3085757290696996e+01 1.8455076771795785e+01 3.5208493197686771e+01 
560 561 2 1.0279999999999896e+00 6.1727913965213502e+03 1.0000000000000000e+00 3.3106990299816651e+01 1.9205366267211481e+01 3.7091330087846394e+01 
3496 3497 2 1.0280000000000005e+00 -5.0769610106105483e+03 1.0000000000000000e+00 5.3506327983376281e+00 2.5787330932389030e+00 3.7374889611442661e+01 
3519 3520 2 1.0279999999999989e+00 -5.0774717212637697e+03 1.0000000000000000e+00 4.0942429822975921e+00 2.7010101862305240e+00 3.7376518138679771e+01 