LAMMPS data file via write_data, version 30 Jul 2016, timestep = 100400000

644 atoms
2 atom types

0.0000000000000000e+00 2.0000000000000000e+01 xlo xhi
0.0000000000000000e+00 2.0000000000000000e+01 ylo yhi
0.0000000000000000e+00 2.0000000000000000e+01 zlo zhi

Masses

1 4.31
2 3.896

Atoms # meso-molecular

575 0 1 1.0280122741595648e+00 -4.1987359315247318e+01 1.0000000000000000e+00 6.3364884192636257e+00 6.6882043988726192e+00 2.5757099429051071e+00 
57 0 1 1.0280119116300876e+00 -6.6671397826772861e+01 1.0000000000000000e+00 6.3351054196772445e+00 6.6907789068198618e+00 2.5749518842048542e+00 
323 0 1 1.0280116498327070e+00 -5.2367800117047530e+01 1.0000000000000000e+00 6.3333379396405496e+00 6.6942783303232343e+00 2.5738459745923974e+00 
387 0 1 1.0279966999070780e+00 -1.5127130406961912e+01 1.0000000000000000e+00 6.1488972495428422e+00 7.6185089378854460e+00 2.5728109231775140e+00 
333 0 1 1.0279966462270094e+00 -2.0287249866874834e+01 1.0000000000000000e+00 6.1486796168391216e+00 7.6187196911399484e+00 2.5731880664349109e+00 
192 0 1 1.0279965613301669e+00 -1.3081812526923160e+01 1.0000000000000000e+00 6.1502679505815863e+00 7.6207461213068868e+00 2.5722370165111208e+00 
446 0 1 1.0279856685446265e+00 -1.5312933750840955e+01 1.0000000000000000e+00 6.5015436146693073e+00 8.3650336786167472e+00 2.8674439357413237e+00 
72 0 1 1.0279937577919493e+00 -3.5388273944215889e+01 1.0000000000000000e+00 5.1108373987512632e+00 2.6359205298715493e+00 3.9779774638284158e+00 
463 0 1 1.0279930940946638e+00 -5.0049086775975496e+01 1.0000000000000000e+00 4.9903752384191327e+00 2.6611537590548866e+00 3.9819142275924211e+00 
514 0 1 1.0280002236805481e+00 -3.0151895279674925e+01 1.0000000000000000e+00 4.5729821880745396e+00 3.0620078441394027e+00 4.1295715773027357e+00 
515 0 1 1.0279924644661758e+00 -2.1688536629587468e+01 1.0000000000000000e+00 4.5801255041011935e+00 1.7817896855663338e+00 4.4828357233717382e+00 
301 0 1 1.0279937505199692e+00 -3.8336445763682782e+01 1.0000000000000000e+00 4.3930317594320236e+00 8.9612197875320632e-01 4.9602485431996248e+00 
183 0 1 1.0279890317836142e+00 -2.8512096283840844e+01 1.0000000000000000e+00 4.4166296227514161e+00 1.0083426892636411e+00 4.8500500562779996e+00 
404 0 1 1.0280717070642023e+00 -5.9943916003577078e+00 1.0000000000000000e+00 5.3748107215068091e+00 2.4924895457517100e+00 5.6818064838719691e+00 
240 0 1 1.0281637805153008e+00 -1.5880050027970027e+01 1.0000000000000000e+00 6.2248441277562083e+00 8.8416225877655541e-01 6.4940047926773881e+00 
115 0 1 1.0275371329961493e+00 -2.1353744346486682e+01 1.0000000000000000e+00 6.6313129188208642e+00 2.8071900689836817e+00 6.3739560853885200e+00 
538 0 1 1.0280035948495823e+00 -3.4147841516775557e+01 1.0000000000000000e+00 5.9465446368945036e+00 8.1819661317179215e-02 4.2208890830568642e+00 
644 0 1 1.0280034859353739e+00 -5.8020254567669703e+01 1.0000000000000000e+00 5.9590647162770818e+00 7.0736405031031291e-02 4.2197543147376964e+00 
428 0 1 1.0279971300883541e+00 -2.3113123778772533e+01 1.0000000000000000e+00 4.8838861818331090e+00 4.2872162680879171e+00 4.2747458468919701e+00 
305 0 1 1.0279963552562816e+00 -2.2194297837479038e+01 1.0000000000000000e+00 4.8967956034569156e+00 4.3057124233161659e+00 4.2776047412870453e+00 
550 0 1 1.0279973253388957e+00 -2.6389269600787546e+01 1.0000000000000000e+00 4.8614545172716728e+00 4.2563553316097318e+00 4.2724239401114410e+00 
121 0 1 1.0280202761733268e+00 -2.3003171738378928e+01 1.0000000000000000e+00 6.3020454306916127e+00 4.8763017664421628e+00 4.8265035614986864e+00 
536 0 1 1.0279969068742363e+00 -1.7746988029825097e+01 1.0000000000000000e+00 4.8834596724408277e+00 4.2869868595956158e+00 4.2751155742011466e+00 
444 0 1 1.0278721528785677e+00 -8.8624625500495871e+00 1.0000000000000000e+00 6.3711881933074279e+00 6.3164416652901441e+00 4.7299792012046327e+00 
304 0 1 1.0279909665288425e+00 -1.2321888024746597e+01 1.0000000000000000e+00 5.5219277582270569e+00 5.8859816075991853e+00 5.7435376947374879e+00 
565 0 1 1.0280109042428209e+00 -1.9566456894344601e+01 1.0000000000000000e+00 4.8218452584284028e+00 6.2881795617258520e+00 6.3746976936984732e+00 
93 0 1 1.0281341509809652e+00 -3.0521810166188288e+01 1.0000000000000000e+00 6.6078165294239373e+00 5.1566808637649162e+00 5.8292878471264640e+00 
585 0 1 1.0283002890836777e+00 -3.3026069270176542e+01 1.0000000000000000e+00 6.4139673489798517e+00 8.0316985876687692e+00 5.3090674040203067e+00 
142 0 1 1.0280332191978170e+00 -3.2232132118847773e+01 1.0000000000000000e+00 6.4808914892935858e+00 7.2382142070635931e+00 5.6009804771274192e+00 
234 0 1 1.0279908202594878e+00 -8.5450089224510624e+00 1.0000000000000000e+00 4.2925454915027554e+00 8.9425299065945936e+00 5.4626694237351519e+00 
166 0 1 1.0279907504825521e+00 -1.2723251412681130e+01 1.0000000000000000e+00 4.2756210742578897e+00 8.9411330355892993e+00 5.4702188477428795e+00 
633 0 1 1.0279967728991763e+00 -3.9697295969377187e+01 1.0000000000000000e+00 3.5899393204733485e+00 8.0570141981516201e+00 6.0684929222458930e+00 
92 0 1 1.0279926404177535e+00 -3.8446157320844165e+01 1.0000000000000000e+00 4.1649647324423924e+00 8.8269208623001791e+00 5.4887678911324400e+00 
11 0 1 1.0279954879847732e+00 -3.4461967659810881e+01 1.0000000000000000e+00 4.0549944762124195e+00 8.6626397437337985e+00 5.5133340852702490e+00 
227 0 1 1.0279959772916607e+00 -1.6283002098750089e+01 1.0000000000000000e+00 3.6302020109256272e+00 7.5722564026094821e+00 6.4037792013826449e+00 
21 0 1 1.0278678743500100e+00 -4.0803314606119251e+01 1.0000000000000000e+00 5.5976808355050496e+00 1.1902176312678299e+00 6.7755433714097393e+00 
329 0 1 1.0280081392909923e+00 -1.9169547036918797e+01 1.0000000000000000e+00 4.0857262829482686e+00 5.3438118593965811e-01 8.6132345369097205e+00 
469 0 1 1.0280096576408728e+00 -2.3673961892642694e+01 1.0000000000000000e+00 4.1232762607582840e+00 3.3755420897132621e-01 8.5667900365753393e+00 
213 0 1 1.0280147986492445e+00 -2.1053823283842370e+01 1.0000000000000000e+00 4.8237078932138884e+00 2.3073729948709150e+00 8.2614292867277204e+00 
95 0 1 1.0280105679885319e+00 -1.6568659148183411e+01 1.0000000000000000e+00 4.6861896518661386e+00 1.9936762265486536e+00 8.0906519249695972e+00 
237 0 1 1.0280172892665220e+00 -1.9891658269236647e+01 1.0000000000000000e+00 4.8586962527287589e+00 2.3732382395357368e+00 8.2567773634665702e+00 
600 0 1 1.0279719359565791e+00 -3.6197064918297698e+01 1.0000000000000000e+00 5.1741277065427695e+00 1.4335668671047410e+00 9.7107264959599480e+00 
520 0 1 1.0280110624956751e+00 -3.1112543230787011e+01 1.0000000000000000e+00 4.1504893745958267e+00 2.5718131511281650e-01 8.5264444695569566e+00 
589 0 1 1.0280113471166321e+00 -4.8467745482609729e+01 1.0000000000000000e+00 4.1470033264438984e+00 2.2665763243301137e-01 8.6014986276970919e+00 
641 0 1 1.0279661456139453e+00 -4.6587532366802982e+01 1.0000000000000000e+00 6.5218661145683745e+00 4.8190624322462527e-01 7.8832319346976218e+00 
120 0 1 1.0279969178630628e+00 -3.0952158482631869e+01 1.0000000000000000e+00 5.5972598142602372e+00 3.5537249622821370e+00 9.1164619001889893e+00 
545 0 1 1.0280257849126178e+00 -2.8080092730435958e+01 1.0000000000000000e+00 4.8250761880003328e+00 6.0332621835713436e+00 6.7426825405994064e+00 
173 0 1 1.0280075276867027e+00 -1.0786121664268842e+01 1.0000000000000000e+00 4.9926116408663246e+00 4.6743754710593830e+00 8.1652357540840601e+00 
431 0 1 1.0280080290028502e+00 -2.3377481573567689e+01 1.0000000000000000e+00 5.0157200238626212e+00 4.3188186716814743e+00 8.2714175679891664e+00 
568 0 1 1.0280117094713046e+00 -7.5335560723493941e+01 1.0000000000000000e+00 4.9817886788135795e+00 5.0443926042532929e+00 8.0768258770656463e+00 
453 0 1 1.0279936554411311e+00 -1.3473425261885346e+01 1.0000000000000000e+00 4.5350118735546037e+00 6.4546911893426504e+00 7.9934633487496747e+00 
249 0 1 1.0280107365059867e+00 -6.5158061344874492e+00 1.0000000000000000e+00 5.0298189154996749e+00 4.0969823510151908e+00 8.3033608347325778e+00 
56 0 1 1.0279937192618562e+00 -5.6961458152783273e+01 1.0000000000000000e+00 4.5197886091308481e+00 6.4988441925380789e+00 8.0081546205343628e+00 
119 0 1 1.0281091073457096e+00 -3.5770696755397672e+01 1.0000000000000000e+00 6.6429026226394017e+00 4.7270377528740397e+00 9.1842074277246155e+00 
487 0 1 1.0280091276326608e+00 -2.3709487795049380e+01 1.0000000000000000e+00 5.0095433832634573e+00 8.3888129373382583e+00 8.6354089116978940e+00 
398 0 1 1.0280164856535314e+00 -9.2749933641844358e+00 1.0000000000000000e+00 4.7672629514862956e+00 9.3364372261567858e+00 7.0412759777662384e+00 
76 0 1 1.0280306028301722e+00 -3.1171959826963082e+01 1.0000000000000000e+00 5.6259384002460626e+00 8.5464765413413986e+00 9.6737999859771868e+00 
111 0 1 1.0279956978895017e+00 -4.2579193131391037e+01 1.0000000000000000e+00 3.9631926271665563e+00 8.0937258678727328e+00 7.7513901571914827e+00 
278 0 1 1.0279907828436916e+00 -1.7375068180006625e+01 1.0000000000000000e+00 5.3142168295527341e+00 7.5192736564602694e+00 9.2424456138635964e+00 
616 0 1 1.0280092789345712e+00 -3.8997730807083428e+01 1.0000000000000000e+00 5.4867588607437803e+00 8.2006699573663315e+00 9.5509051973679178e+00 
598 0 1 1.0279945455539217e+00 -3.5920025872160956e+01 1.0000000000000000e+00 3.6190778165385247e+00 7.9040078066979227e+00 7.1712933259407716e+00 
478 0 1 1.0280118184369598e+00 -3.6550012041210920e+01 1.0000000000000000e+00 4.9491791297163807e+00 8.4510756121497330e+00 8.4408183723632249e+00 
401 0 1 1.0279906935784875e+00 -1.2908674688382227e+01 1.0000000000000000e+00 6.1071403481333526e+00 3.4265664354584207e+00 1.1641991590777096e+01 
85 0 1 1.0279893451620816e+00 -5.3453743585357465e+01 1.0000000000000000e+00 6.1092134853321172e+00 3.4190234787014773e+00 1.1633769850619698e+01 
551 0 1 1.0279903642073180e+00 -2.4044824999197207e+01 1.0000000000000000e+00 6.1075300310853375e+00 3.4213135024466355e+00 1.1634214676505954e+01 
98 0 1 1.0279862515698552e+00 -4.8066556196031371e+01 1.0000000000000000e+00 6.1402705852052710e+00 4.5938264610259241e+00 1.2305419052067778e+01 
202 0 1 1.0280016439536206e+00 -2.8030967271897985e+01 1.0000000000000000e+00 6.2465866664661167e+00 5.9367784681584279e+00 1.2038867660442914e+01 
106 0 1 1.0279906094172038e+00 -2.8651737306409579e+01 1.0000000000000000e+00 6.1627311347647513e+00 5.0557716722280359e+00 1.2313905082798588e+01 
363 0 1 1.0280181558781958e+00 -2.4549523932509704e+01 1.0000000000000000e+00 6.1091383272781696e+00 4.8424210512836288e+00 1.0523618220371292e+01 
499 0 1 1.0279906139324653e+00 -3.0926241491983156e+01 1.0000000000000000e+00 6.1046857447594798e+00 3.4256166330837403e+00 1.1635660228338759e+01 
79 0 1 1.0279960540216813e+00 -2.7640676716285114e+01 1.0000000000000000e+00 6.4178004650677973e+00 7.0590749451393293e+00 1.0417755720837006e+01 
27 0 1 1.0280109787725122e+00 -3.8474456508885993e+01 1.0000000000000000e+00 6.5380707081125999e+00 9.2168197417709035e+00 1.1528490328064779e+01 
490 0 1 1.0280111371055549e+00 -2.3253047309540690e+01 1.0000000000000000e+00 6.5459136924397283e+00 9.2300547495825374e+00 1.1532564236076277e+01 
365 0 1 1.0280110513410732e+00 -4.2042974889420321e+01 1.0000000000000000e+00 6.5472156036534637e+00 9.2315262951873152e+00 1.1533900989406787e+01 
87 0 1 1.0280036522431564e+00 -2.7760808180915390e+01 1.0000000000000000e+00 6.4309511203433454e+00 6.9745240623447504e+00 1.0477863183240952e+01 
32 0 1 1.0279938180935495e+00 -3.6728986533471208e+01 1.0000000000000000e+00 4.3986767664376014e+00 1.3931921949286583e+01 3.1161011456686918e+00 
185 0 1 1.0279957878547998e+00 -1.1703224312727050e+01 1.0000000000000000e+00 4.0944983831257487e+00 1.4059217051170284e+01 3.0254957780838692e+00 
59 0 1 1.0279956089117108e+00 -3.6175397583039974e+01 1.0000000000000000e+00 3.9799004411967838e+00 1.4124081142850189e+01 3.0066062450118096e+00 
593 0 1 1.0279981415490747e+00 -3.9700674866156881e+01 1.0000000000000000e+00 3.7354785116504967e+00 1.4222356588454371e+01 3.0462253883358397e+00 
314 0 1 1.0279978222142474e+00 -2.5049434978641266e+01 1.0000000000000000e+00 3.4340052360810573e+00 1.4621627161375381e+01 3.1934209208235114e+00 
161 0 1 1.0279685960669152e+00 -4.2445502065781348e+01 1.0000000000000000e+00 6.5283350003867042e+00 1.3188578652400436e+01 3.4136595722493173e+00 
437 0 1 1.0280103322613006e+00 -4.1543553149779218e+00 1.0000000000000000e+00 6.2877034929159281e+00 1.1908946071857173e+01 3.4735820704523337e+00 
22 0 1 1.0280032841318085e+00 -3.7651465701840728e+01 1.0000000000000000e+00 6.2906034695760500e+00 1.1679313818412991e+01 3.4719284946008626e+00 
53 0 1 1.0280089538273294e+00 -3.3594946589497901e+01 1.0000000000000000e+00 6.2777003106326452e+00 1.1790503171526465e+01 3.4875599505325230e+00 
614 0 1 1.0280127374418231e+00 -4.0295148214036182e+01 1.0000000000000000e+00 6.2762898721649121e+00 1.1822640261556479e+01 3.4897740412297660e+00 
414 0 1 1.0279988827592101e+00 -2.3944994729098234e+01 1.0000000000000000e+00 4.9871582680464366e+00 1.1371117744136445e+01 6.1072505531057546e+00 
625 0 1 1.0279709167873188e+00 -4.5110610264359771e+01 1.0000000000000000e+00 5.0295748077166591e+00 1.0963348581010006e+01 6.2387293592937443e+00 
241 0 1 1.0280293832560490e+00 -1.2966728784990378e+01 1.0000000000000000e+00 5.9788404635050645e+00 1.0239978070689281e+01 6.0025388049954307e+00 
31 0 1 1.0280936787087065e+00 -3.0324671528165680e+01 1.0000000000000000e+00 6.4964445391804126e+00 1.2625507046999306e+01 5.9363490339960503e+00 
579 0 1 1.0279996631304298e+00 -4.1176504465163248e+01 1.0000000000000000e+00 5.1276306587346898e+00 1.5026181027083023e+01 4.6908686221607407e+00 
155 0 1 1.0280018901290071e+00 -5.4554299299432749e+01 1.0000000000000000e+00 3.6384566687733342e+00 1.5437670251656167e+01 4.2018648520108126e+00 
274 0 1 1.0280012845261044e+00 -5.0807915028379441e+01 1.0000000000000000e+00 3.9359173770157714e+00 1.5654519077269425e+01 4.3157124877662190e+00 
170 0 1 1.0280040009827229e+00 -1.5174633454262780e+01 1.0000000000000000e+00 3.7746471139206479e+00 1.5559462196937414e+01 4.2469568881749282e+00 
523 0 1 1.0279999719473072e+00 -1.8788638672732791e+01 1.0000000000000000e+00 3.6140375290358788e+00 1.4438904661101416e+01 4.3852256869239676e+00 
429 0 1 1.0277728217250675e+00 -1.4762679272099085e+01 1.0000000000000000e+00 6.4556430449323656e+00 1.6491446042732104e+01 5.2324809621732689e+00 
197 0 1 1.0280291866877405e+00 -1.5128191558068286e+01 1.0000000000000000e+00 5.3176880713050219e+00 1.4264245610043416e+01 4.4788254356367698e+00 
194 0 1 1.0280084962858080e+00 -1.4469623901721706e+01 1.0000000000000000e+00 4.3988175304285058e+00 1.8068796902253879e+01 5.1252819534747740e+00 
493 0 1 1.0280136840312957e+00 -3.3365143164229750e+01 1.0000000000000000e+00 4.6703855114804798e+00 1.7714543538644488e+01 4.9794965179246500e+00 
525 0 1 1.0280004786047057e+00 -4.6759562962942553e+01 1.0000000000000000e+00 4.2252668039562185e+00 1.9679598344286880e+01 4.7528019973813462e+00 
488 0 1 1.0279987805279693e+00 -1.0518284410361009e+01 1.0000000000000000e+00 4.2256187110800214e+00 1.9789555685501426e+01 4.7728313563371119e+00 
12 0 1 1.0280116850406598e+00 -2.7081322074663674e+01 1.0000000000000000e+00 4.6644636725834809e+00 1.7713833010201313e+01 4.9893785589202322e+00 
328 0 1 1.0280018845753274e+00 -1.8941902461290507e+01 1.0000000000000000e+00 4.1209508302459028e+00 1.9376246343028580e+01 5.3098151108955589e+00 
69 0 1 1.0280098276097827e+00 -3.5606221995651694e+01 1.0000000000000000e+00 4.6918799428734737e+00 1.7710053094210565e+01 4.9537107580654576e+00 
349 0 1 1.0280074466953888e+00 -2.6504657339433859e+01 1.0000000000000000e+00 5.0147920020570069e+00 1.8366066857251159e+01 6.6290841775268596e+00 
136 0 1 1.0280042741248079e+00 -1.8898274070179134e+01 1.0000000000000000e+00 4.3497351369696595e+00 1.2008762298471993e+01 6.6865637595375187e+00 
221 0 1 1.0280051132410015e+00 -2.0470498320902365e+01 1.0000000000000000e+00 4.3451065896545229e+00 1.2023247891447493e+01 6.6938002747782726e+00 
291 0 1 1.0280111780269541e+00 -2.3565254568173518e+01 1.0000000000000000e+00 4.3067551232941801e+00 1.2562979216958915e+01 7.0453487611516827e+00 
215 0 1 1.0280112814829807e+00 -1.5991804544297789e+01 1.0000000000000000e+00 4.2985049324242182e+00 1.2514303482862580e+01 7.0188152351549880e+00 
235 0 1 1.0280138042671829e+00 -1.5756219942301769e+01 1.0000000000000000e+00 4.4247713453705373e+00 1.2933172590972246e+01 7.2107136439431772e+00 
587 0 1 1.0280206844025097e+00 -4.0302872856260421e+01 1.0000000000000000e+00 5.8267827806405244e+00 1.1494772840704194e+01 8.6527157381573545e+00 
50 0 1 1.0281408155473220e+00 -3.9657624903655957e+01 1.0000000000000000e+00 6.3796454345479967e+00 1.1110888174229167e+01 8.9452674623952326e+00 
613 0 1 1.0277757202679552e+00 -3.2079147106447472e+01 1.0000000000000000e+00 6.4689719823311975e+00 1.0548578729743346e+01 9.7599519172160889e+00 
422 0 1 1.0279882784678658e+00 -2.3899131663616412e+01 1.0000000000000000e+00 5.6530314746691674e+00 1.1528071687866035e+01 9.9520112969401762e+00 
107 0 1 1.0279910073031244e+00 -2.4053994674940519e+01 1.0000000000000000e+00 5.6465926770570203e+00 1.1533983111841112e+01 9.9579200052083241e+00 
284 0 1 1.0281113040466954e+00 -1.4657525891347623e+01 1.0000000000000000e+00 6.4637487218425811e+00 1.0009317126173183e+01 8.9964194808734685e+00 
507 0 1 1.0280172736457891e+00 -2.3812352356633642e+01 1.0000000000000000e+00 5.2647489163072487e+00 1.3927515328627255e+01 6.6776464406504870e+00 
618 0 1 1.0280197317962874e+00 -4.2081133811132247e+01 1.0000000000000000e+00 3.8759945714704660e+00 1.6110212983077702e+01 8.2188621114454001e+00 
569 0 1 1.0280194980598591e+00 -6.1368983833147411e+01 1.0000000000000000e+00 3.8759982426445023e+00 1.6111476864798053e+01 8.2203354269018156e+00 
608 0 1 1.0280197840595200e+00 -3.9071876355167007e+01 1.0000000000000000e+00 3.8760349795579043e+00 1.6109687538264794e+01 8.2187907014000157e+00 
273 0 1 1.0278958546121391e+00 -4.0704263594266067e+01 1.0000000000000000e+00 5.6476112539379928e+00 1.4611906038770526e+01 7.5198734410993628e+00 
9 0 1 1.0280185941395985e+00 -3.4694760515636361e+01 1.0000000000000000e+00 3.9296310278860984e+00 1.6214033338065441e+01 8.4291244644278258e+00 
239 0 1 1.0279988093711787e+00 -2.6376349613130508e+01 1.0000000000000000e+00 4.5569012344099349e+00 1.5094916543821723e+01 8.3830275002573913e+00 
420 0 1 1.0280191713632292e+00 -4.9214782432214022e+01 1.0000000000000000e+00 3.8777847039561477e+00 1.6098546511923519e+01 8.1184753511233314e+00 
347 0 1 1.0279538220138571e+00 -1.1487530003854928e+01 1.0000000000000000e+00 5.6333599076285763e+00 1.3670257724547378e+01 7.7618042173594990e+00 
62 0 1 1.0279514387553903e+00 -4.0900061099725626e+01 1.0000000000000000e+00 6.1588011574134374e+00 1.5542313882349569e+01 9.8784209280509803e+00 
451 0 1 1.0280139220710167e+00 -5.2625597128178772e+00 1.0000000000000000e+00 6.5103601478721869e+00 1.6473944059633855e+01 8.0978892819752399e+00 
144 0 1 1.0281791556597779e+00 -1.9013427831732038e+01 1.0000000000000000e+00 6.5047522608570763e+00 1.4638692983963779e+01 7.1980510006064415e+00 
581 0 1 1.0278860133811041e+00 -7.5363453105771185e+01 1.0000000000000000e+00 5.2794086449838495e+00 1.7950826903362056e+01 7.1860712281848818e+00 
596 0 1 1.0279542481579176e+00 -5.8806901778209493e+01 1.0000000000000000e+00 5.4381298020820106e+00 1.7435824825161220e+01 8.5334659818063869e+00 
216 0 1 1.0283403640414741e+00 -2.4818323218953296e+01 1.0000000000000000e+00 6.5589137408150124e+00 1.8412709925838470e+01 7.6612599476108256e+00 
474 0 1 1.0279438756287298e+00 -1.7139209721124974e+01 1.0000000000000000e+00 5.4325117882476226e+00 1.9415098086569756e+01 6.9417753362819372e+00 
605 0 1 1.0280114547171171e+00 -1.8998818128924757e+01 1.0000000000000000e+00 4.7052354162963397e+00 1.7322850389840074e+01 8.2492508293239553e+00 
80 0 1 1.0279942152651278e+00 -3.3174523076991044e+01 1.0000000000000000e+00 4.6754783023770123e+00 1.2651752210097307e+01 1.0478001478413564e+01 
129 0 1 1.0279941716730405e+00 -1.8672505721390777e+01 1.0000000000000000e+00 4.6989868071650225e+00 1.2551949012315250e+01 1.0248053404856304e+01 
293 0 1 1.0279945966721382e+00 -7.9030223549100551e+00 1.0000000000000000e+00 4.6659498597925078e+00 1.2648874845108299e+01 1.0179152610791764e+01 
439 0 1 1.0280016254201307e+00 -9.5106566350018849e+00 1.0000000000000000e+00 4.9229278452688483e+00 1.3755900397333416e+01 1.1055888944566419e+01 
177 0 1 1.0279962821311430e+00 -3.4089661903105466e+01 1.0000000000000000e+00 5.7259802316720041e+00 1.3736558550497815e+01 1.1217345529560507e+01 
556 0 1 1.0280059606233212e+00 -3.0002094287460377e+01 1.0000000000000000e+00 5.3275319077053593e+00 1.4203242235805114e+01 1.1080625576021522e+01 
149 0 1 1.0280013619791100e+00 -1.9892647571237415e+01 1.0000000000000000e+00 5.3730752647220852e+00 1.3938363294593664e+01 1.1203315577486862e+01 
1 0 1 1.0280125093975290e+00 -6.9365496481544639e+01 1.0000000000000000e+00 6.0202863910108064e+00 1.6541828384249389e+01 1.1566036959014896e+01 
617 0 1 1.0280099611060314e+00 -4.2686227328915173e+01 1.0000000000000000e+00 6.0074532495678552e+00 1.6606560894413811e+01 1.1572720522148785e+01 
248 0 1 1.0280101768914687e+00 -1.2601112898652289e+01 1.0000000000000000e+00 6.0048881331495387e+00 1.6620816051558446e+01 1.1574007733787889e+01 
73 0 1 1.0280015602577854e+00 -2.1142972455712670e+01 1.0000000000000000e+00 4.8374478684225464e+00 1.3866068020795026e+01 1.0853966244240508e+01 
331 0 1 1.0279892596304803e+00 -9.5345586008327405e+00 1.0000000000000000e+00 6.0610550031364925e+00 1.7965601759843508e+01 1.1267964676243487e+01 
375 0 1 1.0279882126859050e+00 -1.4630525741745837e+01 1.0000000000000000e+00 6.0728007139965809e+00 1.7968117580734557e+01 1.1274768199160984e+01 
369 0 1 1.0279966820260349e+00 -1.7425462311721443e+01 1.0000000000000000e+00 5.3866088354928339e+00 1.9855257977318505e+01 1.0121138454860400e+01 
540 0 1 1.0279962861290237e+00 -5.5349824584179949e+01 1.0000000000000000e+00 5.3985397284827501e+00 1.9846922904536154e+01 1.0123464012765558e+01 
156 0 1 1.0279966473837956e+00 -3.8653182597075300e+01 1.0000000000000000e+00 5.4081452073412661e+00 1.9834595042174776e+01 1.0124717870176534e+01 
112 0 1 1.0279965186960749e+00 -4.2253270365704232e+01 1.0000000000000000e+00 5.4098734623171447e+00 1.9830112531585648e+01 1.0124700513370970e+01 
612 0 1 1.0280074367865646e+00 -3.9889999491557013e+01 1.0000000000000000e+00 5.9777016032693941e+00 1.6807297568260580e+01 1.1583802753504223e+01 
252 0 1 1.0279917589654053e+00 -3.4702754040769861e+01 1.0000000000000000e+00 5.9487761713813780e+00 1.7648540540461770e+01 1.1394971363276946e+01 
436 0 1 1.0280564348773222e+00 -2.6707939992156803e+01 1.0000000000000000e+00 7.8496372371372640e+00 1.9217087990217956e+00 3.0878060774650287e+00 
222 0 1 1.0280088361532951e+00 -1.1387452593187893e+01 1.0000000000000000e+00 7.2344568618315090e+00 2.4430908757144043e-01 2.5972030548560636e+00 
159 0 1 1.0280082007176281e+00 -2.1288622987890101e+01 1.0000000000000000e+00 7.2354392080915630e+00 2.4121711874806251e-01 2.5957233702673554e+00 
610 0 1 1.0280092545914805e+00 -6.8668154428704440e+01 1.0000000000000000e+00 7.2286891014176060e+00 2.6266391047684778e-01 2.6061186931565952e+00 
504 0 1 1.0279883775208660e+00 -4.7256469559497859e+01 1.0000000000000000e+00 8.6962577077251133e+00 8.2707923473284128e-01 3.2473355497885317e+00 
49 0 1 1.0280073439387662e+00 -3.4321088557444654e+01 1.0000000000000000e+00 7.2392226076283004e+00 1.9229724522829458e-01 2.5770927739336278e+00 
512 0 1 1.0279942976189271e+00 -4.8816766544259018e+01 1.0000000000000000e+00 1.1016274903830750e+01 1.3511374016681137e+00 2.0714920236886276e+00 
454 0 1 1.0280023959929174e+00 -1.6961281600342634e+01 1.0000000000000000e+00 1.1198898256777674e+01 1.9603335691394752e+00 1.8974156665038409e+00 
367 0 1 1.0280028574445599e+00 -8.7025515733108634e+00 1.0000000000000000e+00 1.1200410510851139e+01 1.9642756199327598e+00 1.8969144723189022e+00 
572 0 1 1.0280027340571134e+00 -4.5822626056808510e+01 1.0000000000000000e+00 1.1202141386522847e+01 1.9668283003567306e+00 1.8966840978948347e+00 
383 0 1 1.0280025880785282e+00 -1.8953441196323009e+01 1.0000000000000000e+00 1.1197387530710179e+01 1.9568923956943260e+00 1.8978396477412127e+00 
91 0 1 1.0279944874124580e+00 -4.5515013091091554e+01 1.0000000000000000e+00 1.1055316074586754e+01 1.5350781986536099e+00 1.9995180295729689e+00 
497 0 1 1.0279979463119524e+00 -4.7976741718928821e+01 1.0000000000000000e+00 7.3215641965442151e+00 3.7927797373387899e+00 1.6145054335420954e+00 
311 0 1 1.0279974562937542e+00 -2.2940138723891796e+01 1.0000000000000000e+00 7.3246983860382375e+00 3.7659117405732410e+00 1.6152184488077281e+00 
83 0 1 1.0279979202109029e+00 -4.5286971086988103e+01 1.0000000000000000e+00 7.3241119240288395e+00 3.7766348755849291e+00 1.6146339004907795e+00 
438 0 1 1.0279971234584764e+00 -2.4135553466435651e+00 1.0000000000000000e+00 7.3245377479865912e+00 3.7731323205742648e+00 1.6147396585019440e+00 
482 0 1 1.0279972901976742e+00 -1.0986775871382422e+01 1.0000000000000000e+00 7.3247385603137767e+00 3.7707947037366485e+00 1.6148458042300822e+00 
158 0 1 1.0280453143576744e+00 -2.2008383335833898e+01 1.0000000000000000e+00 7.3874513016108203e+00 5.2918487680412056e+00 2.7520037838820688e+00 
423 0 1 1.0279959862944255e+00 -1.5306359880116654e+01 1.0000000000000000e+00 7.3143678217211328e+00 3.6729444213859033e+00 1.6312148595935216e+00 
353 0 1 1.0280575183986782e+00 -1.6974829667364123e+01 1.0000000000000000e+00 9.2217992702208260e+00 5.9096426808532572e+00 3.0609661341712311e+00 
517 0 1 1.0279812033279954e+00 -2.9188538332329369e+01 1.0000000000000000e+00 1.1342662695901081e+01 5.6271591515227355e+00 1.9266275002669218e+00 
620 0 1 1.0280151426213906e+00 -3.5507281705793389e+01 1.0000000000000000e+00 1.1794684630134585e+01 4.3948820865462963e+00 2.4459693223403027e+00 
131 0 1 1.0280200070044720e+00 -2.9483662673632917e+01 1.0000000000000000e+00 1.1788347709985329e+01 4.3250497488948749e+00 2.4477103515019523e+00 
238 0 1 1.0280236970910057e+00 -2.6480276074779322e+01 1.0000000000000000e+00 1.1782591849894342e+01 4.2215511769025813e+00 2.4505209511892958e+00 
5 0 1 1.0280211123833130e+00 -2.7861268380503024e+01 1.0000000000000000e+00 1.1788224327038197e+01 4.3185951253560662e+00 2.4483929963602353e+00 
242 0 1 1.0279852620231062e+00 -1.4743737227515354e+01 1.0000000000000000e+00 1.1598692086277703e+01 5.3812022275095783e+00 2.0791416980868287e+00 
172 0 1 1.0279902590627954e+00 -1.5272514667498699e+01 1.0000000000000000e+00 1.0630592210484059e+01 6.6506737098979354e+00 1.9865597518816440e+00 
364 0 1 1.0279905698105383e+00 -4.4162746665831051e+01 1.0000000000000000e+00 1.0629410100611368e+01 6.6524942256908215e+00 1.9868751007714429e+00 
226 0 1 1.0279936298724890e+00 -8.2273754670451407e+00 1.0000000000000000e+00 9.6929291735961591e+00 9.9457939969505755e+00 1.3290024032055265e+00 
212 0 1 1.0279884788199223e+00 -2.3651370905240853e+01 1.0000000000000000e+00 9.3495294469980390e+00 8.7368690754259131e+00 1.3586951947737647e+00 
472 0 1 1.0279885596982703e+00 -2.0647519960046090e+01 1.0000000000000000e+00 9.3525530551710521e+00 8.7317233829818726e+00 1.3589690542645203e+00 
635 0 1 1.0279925395523368e+00 -3.7303348802708804e+01 1.0000000000000000e+00 9.6181318222394676e+00 9.8922706053790854e+00 1.3089549615311336e+00 
288 0 1 1.0279914538913715e+00 -4.8828666063384652e+01 1.0000000000000000e+00 9.5305480669567917e+00 9.9353969260731478e+00 1.3797418334631069e+00 
36 0 1 1.0279998368398853e+00 -4.4532423722227534e+01 1.0000000000000000e+00 9.9381129407796891e+00 9.6313061467984156e+00 1.1460240741250252e+00 
224 0 1 1.0277751327971991e+00 -3.3819115102364336e+01 1.0000000000000000e+00 8.3965357659258526e+00 8.0865158696872612e+00 2.9540290906163045e+00 
624 0 1 1.0279983898200076e+00 -6.3491000061727689e+01 1.0000000000000000e+00 1.0547697996276202e+01 6.8599493087660290e+00 2.0202170934338373e+00 
642 0 1 1.0280065633748294e+00 -4.9152995013047544e+01 1.0000000000000000e+00 1.0478785439649261e+01 7.0442872324870072e+00 2.0296050143785811e+00 
130 0 1 1.0280097150744825e+00 -2.6560295827756857e+01 1.0000000000000000e+00 1.0869595363401086e+01 9.1059662930852596e+00 2.1619412484388216e+00 
491 0 1 1.0280046505844327e+00 -3.4219569657719823e+01 1.0000000000000000e+00 1.0706434558234054e+01 9.7565841367738155e+00 1.9152608140157155e+00 
489 0 1 1.0280154555804735e+00 -1.4220760015507112e+01 1.0000000000000000e+00 7.7408406400308643e+00 2.7474484030283493e+00 3.4046843219895635e+00 
334 0 1 1.0279654520713339e+00 -1.3983833457845561e+01 1.0000000000000000e+00 8.3717444069531801e+00 1.4717850855469112e+00 5.0325797019915663e+00 
390 0 1 1.0278293530035352e+00 -1.3375767125871693e+01 1.0000000000000000e+00 8.5112157409943148e+00 1.9859830086443697e+00 3.6756513330204346e+00 
128 0 1 1.0284391592021271e+00 -3.0080857592689391e+01 1.0000000000000000e+00 8.3960779943839725e+00 3.2253277102827487e+00 4.5782670526784441e+00 
191 0 1 1.0281524469519550e+00 -2.2262752075512889e+01 1.0000000000000000e+00 7.5474611476337508e+00 6.5121916930478285e-01 6.2192705952846330e+00 
381 0 1 1.0278066302851854e+00 -1.2766408084792133e+01 1.0000000000000000e+00 8.3919775243216641e+00 2.2234378706959079e+00 6.5994646069293541e+00 
374 0 1 1.0281892521149851e+00 -1.2683770551591239e+01 1.0000000000000000e+00 9.5961299383900567e+00 5.2355583147989659e-01 3.5778519204760215e+00 
247 0 1 1.0281327280801580e+00 -2.0755604441643701e+01 1.0000000000000000e+00 8.4057500923075441e+00 2.3284491729343180e+00 6.6286690224967577e+00 
321 0 1 1.0285084875528689e+00 -2.1426252904131395e+01 1.0000000000000000e+00 6.8724897624095318e+00 2.8928256581133622e+00 6.5029054383044507e+00 
276 0 1 1.0279072050381668e+00 -8.7484604874385106e+00 1.0000000000000000e+00 1.0170939827320078e+01 2.9413671995646662e+00 4.1358090925353217e+00 