LAMMPS data file via write_data, version 30 Jul 2016, timestep = 1000000

1920 atoms
8 atom types

0.0000000000000000e+00 4.0000000000000000e+01 xlo xhi
0.0000000000000000e+00 4.0000000000000000e+01 ylo yhi
0.0000000000000000e+00 1.0000000000000000e+02 zlo zhi

Masses

1 3.896
2 5.36
3 20.064
4 8.378
5 8.378
6 8.378
7 8.378
8 8.378

Atoms # meso-molecular

1 2 4 2.2559723595316457e+00 7.3187639210438721e-02 1.0000000000000000e+00 0.0000000000000000e+00 0.0000000000000000e+00 2.5000000000000000e+00 
21 2 4 2.2559723595316457e+00 0.0000000000000000e+00 1.0000000000000000e+00 2.0000000000000000e+00 0.0000000000000000e+00 2.5000000000000000e+00 
41 2 4 2.2559723595316457e+00 -9.0912300492888601e-05 1.0000000000000000e+00 4.0000000000000000e+00 0.0000000000000000e+00 2.5000000000000000e+00 
61 2 4 2.2559723595316457e+00 8.6443340327437290e-07 1.0000000000000000e+00 6.0000000000000000e+00 0.0000000000000000e+00 2.5000000000000000e+00 
81 2 4 2.2559723595316457e+00 -6.0254517746744518e-01 1.0000000000000000e+00 8.0000000000000000e+00 0.0000000000000000e+00 2.5000000000000000e+00 
101 2 4 2.2559723595316457e+00 -9.4569124609327959e-01 1.0000000000000000e+00 1.0000000000000000e+01 0.0000000000000000e+00 2.5000000000000000e+00 
121 2 4 2.2559723595316457e+00 1.2805843066364182e+00 1.0000000000000000e+00 1.2000000000000000e+01 0.0000000000000000e+00 2.5000000000000000e+00 
141 2 4 2.2559723595316457e+00 -3.0763502200220577e-01 1.0000000000000000e+00 1.4000000000000000e+01 0.0000000000000000e+00 2.5000000000000000e+00 
161 2 4 2.2559723595316457e+00 1.0240029747589894e+00 1.0000000000000000e+00 1.6000000000000000e+01 0.0000000000000000e+00 2.5000000000000000e+00 
181 2 4 2.2559723595316457e+00 -1.3583775198262354e-02 1.0000000000000000e+00 1.8000000000000000e+01 0.0000000000000000e+00 2.5000000000000000e+00 
2 2 4 2.2559723595316457e+00 -9.1810640667925885e+00 1.0000000000000000e+00 0.0000000000000000e+00 2.0000000000000000e+00 2.5000000000000000e+00 
22 2 4 2.2559723595316457e+00 0.0000000000000000e+00 1.0000000000000000e+00 2.0000000000000000e+00 2.0000000000000000e+00 2.5000000000000000e+00 
42 2 4 2.2559723595316457e+00 -5.9935892815793723e-06 1.0000000000000000e+00 4.0000000000000000e+00 2.0000000000000000e+00 2.5000000000000000e+00 
62 2 4 2.2559723595316457e+00 -1.6674548565044964e-04 1.0000000000000000e+00 6.0000000000000000e+00 2.0000000000000000e+00 2.5000000000000000e+00 
82 2 4 2.2559723595316457e+00 -4.8590453830029759e-02 1.0000000000000000e+00 8.0000000000000000e+00 2.0000000000000000e+00 2.5000000000000000e+00 
102 2 4 2.2559723595316457e+00 1.6370431539783962e-07 1.0000000000000000e+00 1.0000000000000000e+01 2.0000000000000000e+00 2.5000000000000000e+00 
122 2 4 2.2559723595316457e+00 2.5609097312477673e+00 1.0000000000000000e+00 1.2000000000000000e+01 2.0000000000000000e+00 2.5000000000000000e+00 
142 2 4 2.2559723595316457e+00 -2.4882552967168396e-02 1.0000000000000000e+00 1.4000000000000000e+01 2.0000000000000000e+00 2.5000000000000000e+00 
162 2 4 2.2559723595316457e+00 -1.2227480221316675e-05 1.0000000000000000e+00 1.6000000000000000e+01 2.0000000000000000e+00 2.5000000000000000e+00 
182 2 4 2.2559723595316457e+00 9.7525573629390194e-03 1.0000000000000000e+00 1.8000000000000000e+01 2.0000000000000000e+00 2.5000000000000000e+00 
3 2 4 2.2559723595316457e+00 2.4361262648376849e-06 1.0000000000000000e+00 0.0000000000000000e+00 4.0000000000000000e+00 2.5000000000000000e+00 
23 2 4 2.2559723595316457e+00 0.0000000000000000e+00 1.0000000000000000e+00 2.0000000000000000e+00 4.0000000000000000e+00 2.5000000000000000e+00 
43 2 4 2.2559723595316457e+00 0.0000000000000000e+00 1.0000000000000000e+00 4.0000000000000000e+00 4.0000000000000000e+00 2.5000000000000000e+00 
63 2 4 2.2559723595316457e+00 0.0000000000000000e+00 1.0000000000000000e+00 6.0000000000000000e+00 4.0000000000000000e+00 2.5000000000000000e+00 
83 2 4 2.2559723595316457e+00 0.0000000000000000e+00 1.0000000000000000e+00 8.0000000000000000e+00 4.0000000000000000e+00 2.5000000000000000e+00 
103 2 4 2.2559723595316457e+00 -6.3729670947101974e-06 1.0000000000000000e+00 1.0000000000000000e+01 4.0000000000000000e+00 2.5000000000000000e+00 
123 2 4 2.2559723595316457e+00 -4.9397835616063487e-08 1.0000000000000000e+00 1.2000000000000000e+01 4.0000000000000000e+00 2.5000000000000000e+00 
143 2 4 2.2559723595316457e+00 -1.2865419894291408e-04 1.0000000000000000e+00 1.4000000000000000e+01 4.0000000000000000e+00 2.5000000000000000e+00 
163 2 4 2.2559723595316457e+00 5.8274542947750740e-08 1.0000000000000000e+00 1.6000000000000000e+01 4.0000000000000000e+00 2.5000000000000000e+00 
183 2 4 2.2559723595316457e+00 5.6617862450605877e-02 1.0000000000000000e+00 1.8000000000000000e+01 4.0000000000000000e+00 2.5000000000000000e+00 
4 2 4 2.2559723595316457e+00 6.8319570964404778e-04 1.0000000000000000e+00 0.0000000000000000e+00 6.0000000000000000e+00 2.5000000000000000e+00 
24 2 4 2.2559723595316457e+00 -2.3359041735146000e-02 1.0000000000000000e+00 2.0000000000000000e+00 6.0000000000000000e+00 2.5000000000000000e+00 
44 2 4 2.2559723595316457e+00 0.0000000000000000e+00 1.0000000000000000e+00 4.0000000000000000e+00 6.0000000000000000e+00 2.5000000000000000e+00 
64 2 4 2.2559723595316457e+00 4.5477111689735130e-05 1.0000000000000000e+00 6.0000000000000000e+00 6.0000000000000000e+00 2.5000000000000000e+00 
84 2 4 2.2559723595316457e+00 2.7673662127929311e-03 1.0000000000000000e+00 8.0000000000000000e+00 6.0000000000000000e+00 2.5000000000000000e+00 
104 2 4 2.2559723595316457e+00 -6.2556496624891619e-03 1.0000000000000000e+00 1.0000000000000000e+01 6.0000000000000000e+00 2.5000000000000000e+00 
124 2 4 2.2559723595316457e+00 7.4943601716362291e-07 1.0000000000000000e+00 1.2000000000000000e+01 6.0000000000000000e+00 2.5000000000000000e+00 
144 2 4 2.2559723595316457e+00 1.1750171809372051e-07 1.0000000000000000e+00 1.4000000000000000e+01 6.0000000000000000e+00 2.5000000000000000e+00 
164 2 4 2.2559723595316457e+00 1.1383521408789953e-07 1.0000000000000000e+00 1.6000000000000000e+01 6.0000000000000000e+00 2.5000000000000000e+00 
184 2 4 2.2559723595316457e+00 -2.0884023124925299e-01 1.0000000000000000e+00 1.8000000000000000e+01 6.0000000000000000e+00 2.5000000000000000e+00 
5 2 4 2.2559723595316457e+00 0.0000000000000000e+00 1.0000000000000000e+00 0.0000000000000000e+00 8.0000000000000000e+00 2.5000000000000000e+00 
25 2 4 2.2559723595316457e+00 -3.2388560149917513e-02 1.0000000000000000e+00 2.0000000000000000e+00 8.0000000000000000e+00 2.5000000000000000e+00 
45 2 4 2.2559723595316457e+00 0.0000000000000000e+00 1.0000000000000000e+00 4.0000000000000000e+00 8.0000000000000000e+00 2.5000000000000000e+00 
65 2 4 2.2559723595316457e+00 2.9252913206972189e-07 1.0000000000000000e+00 6.0000000000000000e+00 8.0000000000000000e+00 2.5000000000000000e+00 
85 2 4 2.2559723595316457e+00 0.0000000000000000e+00 1.0000000000000000e+00 8.0000000000000000e+00 8.0000000000000000e+00 2.5000000000000000e+00 
105 2 4 2.2559723595316457e+00 -2.5150887255618301e-02 1.0000000000000000e+00 1.0000000000000000e+01 8.0000000000000000e+00 2.5000000000000000e+00 
125 2 4 2.2559723595316457e+00 0.0000000000000000e+00 1.0000000000000000e+00 1.2000000000000000e+01 8.0000000000000000e+00 2.5000000000000000e+00 
145 2 4 2.2559723595316457e+00 2.2149225194211644e+00 1.0000000000000000e+00 1.4000000000000000e+01 8.0000000000000000e+00 2.5000000000000000e+00 
165 2 4 2.2559723595316457e+00 3.1018026218897297e+00 1.0000000000000000e+00 1.6000000000000000e+01 8.0000000000000000e+00 2.5000000000000000e+00 
185 2 4 2.2559723595316457e+00 -7.5882243877131939e-01 1.0000000000000000e+00 1.8000000000000000e+01 8.0000000000000000e+00 2.5000000000000000e+00 
6 2 4 2.2559723595316457e+00 -1.0018197936264214e-01 1.0000000000000000e+00 0.0000000000000000e+00 1.0000000000000000e+01 2.5000000000000000e+00 
26 2 4 2.2559723595316457e+00 0.0000000000000000e+00 1.0000000000000000e+00 2.0000000000000000e+00 1.0000000000000000e+01 2.5000000000000000e+00 
46 2 4 2.2559723595316457e+00 0.0000000000000000e+00 1.0000000000000000e+00 4.0000000000000000e+00 1.0000000000000000e+01 2.5000000000000000e+00 
66 2 4 2.2559723595316457e+00 0.0000000000000000e+00 1.0000000000000000e+00 6.0000000000000000e+00 1.0000000000000000e+01 2.5000000000000000e+00 
86 2 4 2.2559723595316457e+00 -7.3777325592599711e-05 1.0000000000000000e+00 8.0000000000000000e+00 1.0000000000000000e+01 2.5000000000000000e+00 
106 2 4 2.2559723595316457e+00 8.4085892576640895e-04 1.0000000000000000e+00 1.0000000000000000e+01 1.0000000000000000e+01 2.5000000000000000e+00 
126 2 4 2.2559723595316457e+00 0.0000000000000000e+00 1.0000000000000000e+00 1.2000000000000000e+01 1.0000000000000000e+01 2.5000000000000000e+00 
146 2 4 2.2559723595316457e+00 4.0661853590251353e-04 1.0000000000000000e+00 1.4000000000000000e+01 1.0000000000000000e+01 2.5000000000000000e+00 
166 2 4 2.2559723595316457e+00 3.8609708858320848e-03 1.0000000000000000e+00 1.6000000000000000e+01 1.0000000000000000e+01 2.5000000000000000e+00 
186 2 4 2.2559723595316457e+00 -9.7050560146375398e-01 1.0000000000000000e+00 1.8000000000000000e+01 1.0000000000000000e+01 2.5000000000000000e+00 
7 2 4 2.2559723595316457e+00 2.7188743673330762e-01 1.0000000000000000e+00 0.0000000000000000e+00 1.2000000000000000e+01 2.5000000000000000e+00 
27 2 4 2.2559723595316457e+00 -1.2305234200503178e-01 1.0000000000000000e+00 2.0000000000000000e+00 1.2000000000000000e+01 2.5000000000000000e+00 
47 2 4 2.2559723595316457e+00 2.7615497595517631e-02 1.0000000000000000e+00 4.0000000000000000e+00 1.2000000000000000e+01 2.5000000000000000e+00 
67 2 4 2.2559723595316457e+00 0.0000000000000000e+00 1.0000000000000000e+00 6.0000000000000000e+00 1.2000000000000000e+01 2.5000000000000000e+00 
87 2 4 2.2559723595316457e+00 1.0119284088503878e-06 1.0000000000000000e+00 8.0000000000000000e+00 1.2000000000000000e+01 2.5000000000000000e+00 
107 2 4 2.2559723595316457e+00 -1.1667418166811157e-02 1.0000000000000000e+00 1.0000000000000000e+01 1.2000000000000000e+01 2.5000000000000000e+00 
127 2 4 2.2559723595316457e+00 4.7563030094705375e-02 1.0000000000000000e+00 1.2000000000000000e+01 1.2000000000000000e+01 2.5000000000000000e+00 
147 2 4 2.2559723595316457e+00 5.5105620602953443e-04 1.0000000000000000e+00 1.4000000000000000e+01 1.2000000000000000e+01 2.5000000000000000e+00 
167 2 4 2.2559723595316457e+00 3.8720000006217563e+00 1.0000000000000000e+00 1.6000000000000000e+01 1.2000000000000000e+01 2.5000000000000000e+00 
187 2 4 2.2559723595316457e+00 -2.8525016728666690e-03 1.0000000000000000e+00 1.8000000000000000e+01 1.2000000000000000e+01 2.5000000000000000e+00 
8 2 4 2.2559723595316457e+00 -7.9612878444697471e-02 1.0000000000000000e+00 0.0000000000000000e+00 1.4000000000000000e+01 2.5000000000000000e+00 
28 2 4 2.2559723595316457e+00 -2.5893271664938472e-01 1.0000000000000000e+00 2.0000000000000000e+00 1.4000000000000000e+01 2.5000000000000000e+00 
48 2 4 2.2559723595316457e+00 0.0000000000000000e+00 1.0000000000000000e+00 4.0000000000000000e+00 1.4000000000000000e+01 2.5000000000000000e+00 
68 2 4 2.2559723595316457e+00 -6.8061215622483164e-05 1.0000000000000000e+00 6.0000000000000000e+00 1.4000000000000000e+01 2.5000000000000000e+00 
88 2 4 2.2559723595316457e+00 -2.3083327005030217e-04 1.0000000000000000e+00 8.0000000000000000e+00 1.4000000000000000e+01 2.5000000000000000e+00 
108 2 4 2.2559723595316457e+00 4.3835863664227256e-03 1.0000000000000000e+00 1.0000000000000000e+01 1.4000000000000000e+01 2.5000000000000000e+00 
128 2 4 2.2559723595316457e+00 -4.0289373142033671e-03 1.0000000000000000e+00 1.2000000000000000e+01 1.4000000000000000e+01 2.5000000000000000e+00 
148 2 4 2.2559723595316457e+00 -3.8068964132201559e-04 1.0000000000000000e+00 1.4000000000000000e+01 1.4000000000000000e+01 2.5000000000000000e+00 
168 2 4 2.2559723595316457e+00 -3.7603869023814152e-01 1.0000000000000000e+00 1.6000000000000000e+01 1.4000000000000000e+01 2.5000000000000000e+00 
188 2 4 2.2559723595316457e+00 1.0750050192155562e-03 1.0000000000000000e+00 1.8000000000000000e+01 1.4000000000000000e+01 2.5000000000000000e+00 
9 2 4 2.2559723595316457e+00 3.7250973554996842e+00 1.0000000000000000e+00 0.0000000000000000e+00 1.6000000000000000e+01 2.5000000000000000e+00 
29 2 4 2.2559723595316457e+00 0.0000000000000000e+00 1.0000000000000000e+00 2.0000000000000000e+00 1.6000000000000000e+01 2.5000000000000000e+00 
49 2 4 2.2559723595316457e+00 0.0000000000000000e+00 1.0000000000000000e+00 4.0000000000000000e+00 1.6000000000000000e+01 2.5000000000000000e+00 
69 2 4 2.2559723595316457e+00 -5.9567247784563330e-06 1.0000000000000000e+00 6.0000000000000000e+00 1.6000000000000000e+01 2.5000000000000000e+00 
89 2 4 2.2559723595316457e+00 -5.3742409396268093e-03 1.0000000000000000e+00 8.0000000000000000e+00 1.6000000000000000e+01 2.5000000000000000e+00 
109 2 4 2.2559723595316457e+00 -3.1927725365549013e-05 1.0000000000000000e+00 1.0000000000000000e+01 1.6000000000000000e+01 2.5000000000000000e+00 
129 2 4 2.2559723595316457e+00 -1.5509953262751766e-02 1.0000000000000000e+00 1.2000000000000000e+01 1.6000000000000000e+01 2.5000000000000000e+00 
149 2 4 2.2559723595316457e+00 -9.2548869596368981e-03 1.0000000000000000e+00 1.4000000000000000e+01 1.6000000000000000e+01 2.5000000000000000e+00 
169 2 4 2.2559723595316457e+00 -2.5936495911619306e-03 1.0000000000000000e+00 1.6000000000000000e+01 1.6000000000000000e+01 2.5000000000000000e+00 
189 2 4 2.2559723595316457e+00 -5.3205187141121409e-05 1.0000000000000000e+00 1.8000000000000000e+01 1.6000000000000000e+01 2.5000000000000000e+00 
10 2 4 2.2559723595316457e+00 0.0000000000000000e+00 1.0000000000000000e+00 0.0000000000000000e+00 1.8000000000000000e+01 2.5000000000000000e+00 
30 2 4 2.2559723595316457e+00 0.0000000000000000e+00 1.0000000000000000e+00 2.0000000000000000e+00 1.8000000000000000e+01 2.5000000000000000e+00 
50 2 4 2.2559723595316457e+00 0.0000000000000000e+00 1.0000000000000000e+00 4.0000000000000000e+00 1.8000000000000000e+01 2.5000000000000000e+00 
70 2 4 2.2559723595316457e+00 3.9917141500204991e+00 1.0000000000000000e+00 6.0000000000000000e+00 1.8000000000000000e+01 2.5000000000000000e+00 
90 2 4 2.2559723595316457e+00 1.6396873546815893e+00 1.0000000000000000e+00 8.0000000000000000e+00 1.8000000000000000e+01 2.5000000000000000e+00 
110 2 4 2.2559723595316457e+00 0.0000000000000000e+00 1.0000000000000000e+00 1.0000000000000000e+01 1.8000000000000000e+01 2.5000000000000000e+00 
130 2 4 2.2559723595316457e+00 -1.7583492570526838e-05 1.0000000000000000e+00 1.2000000000000000e+01 1.8000000000000000e+01 2.5000000000000000e+00 
150 2 4 2.2559723595316457e+00 5.2944304975941351e-05 1.0000000000000000e+00 1.4000000000000000e+01 1.8000000000000000e+01 2.5000000000000000e+00 
170 2 4 2.2559723595316457e+00 9.2251251526320548e-04 1.0000000000000000e+00 1.6000000000000000e+01 1.8000000000000000e+01 2.5000000000000000e+00 
190 2 4 2.2559723595316457e+00 -3.4901915497265179e-03 1.0000000000000000e+00 1.8000000000000000e+01 1.8000000000000000e+01 2.5000000000000000e+00 
436 38 2 1.0279984328481058e+00 2.7712014823983582e+03 1.0000000000000000e+00 1.7087991045843143e+00 3.0886660043255239e+00 5.7019946711808114e+00 
454 56 2 1.0279986060995037e+00 -5.3534534404332135e+03 1.0000000000000000e+00 1.6835804386377724e+00 3.1050606324317553e+00 5.7161953545576933e+00 
1749 1351 2 1.0280001180438083e+00 -1.7280694534739702e+01 1.0000000000000000e+00 1.3119892807025069e+01 1.6136954124851695e+01 5.8386118525179072e+00 
1083 685 2 1.0280012179226850e+00 3.4267653755154715e+03 1.0000000000000000e+00 1.7346973535868344e+00 1.9576552191682413e+00 7.4124721644223763e+00 
1806 1408 2 1.0280020218295214e+00 -6.0189992370683294e+03 1.0000000000000000e+00 1.5337190332237247e+00 1.6831083712741004e+00 6.5514312474651168e+00 
1802 1404 2 1.0279972741302423e+00 -6.0038192750532062e+03 1.0000000000000000e+00 2.0208431653053247e-01 2.4133251750490246e+00 7.6857891908496976e+00 
850 452 2 1.0279964980575707e+00 3.3562706850394729e+03 1.0000000000000000e+00 1.8377985275549824e-01 2.4513381774411909e+00 7.6279722398815242e+00 
1018 620 2 1.0279991739050445e+00 -6.7492795335015044e+03 1.0000000000000000e+00 2.3174792976722753e+00 3.9609211522245946e+00 7.7444780195752028e+00 
731 333 2 1.0279978424204583e+00 -5.7860163787406273e+03 1.0000000000000000e+00 3.7295335058840338e+00 3.9205495308113032e+00 6.0439989809759140e+00 
613 215 2 1.0279990280958451e+00 -8.0932801151350918e+02 1.0000000000000000e+00 2.6072764006315143e+00 5.2092572232195060e+00 6.9555298095508080e+00 
1635 1237 2 1.0280012715164746e+00 1.3335117697338039e+03 1.0000000000000000e+00 4.3001605060841559e+00 4.0719731959886136e+00 6.2258279899384474e+00 
688 290 2 1.0280010351389415e+00 -5.4038321735412296e+02 1.0000000000000000e+00 4.3865338103851590e+00 5.1179167658918052e+00 6.9862323735713012e+00 
841 443 2 1.0279923879204664e+00 2.3289167557063270e+03 1.0000000000000000e+00 7.1787595995803972e+00 5.7425275484305605e+00 7.1997000699121934e+00 
1333 935 2 1.0280031211257536e+00 4.3918743362869063e+03 1.0000000000000000e+00 8.5197333690324175e+00 5.9357273533904440e+00 7.7923591581277929e+00 
870 472 2 1.0280038973540402e+00 -2.6417148043883203e+03 1.0000000000000000e+00 8.5260651652219739e+00 5.9478484593956162e+00 7.7819792484563663e+00 
617 219 2 1.0280000970432763e+00 -1.0239252555170236e+03 1.0000000000000000e+00 4.7350131608675268e+00 7.2613264477772450e+00 7.7501710203205034e+00 
1149 751 2 1.0280027480449239e+00 -2.3912309886505548e+02 1.0000000000000000e+00 5.0523298020999281e+00 6.3519882057407990e+00 6.7686788279453998e+00 
1327 929 2 1.0280048884113022e+00 -1.3431425308113269e+03 1.0000000000000000e+00 6.8343032336454526e+00 6.9572330295423148e+00 7.0534449641970980e+00 
1728 1330 2 1.0279990462640982e+00 1.5793010962565626e+02 1.0000000000000000e+00 5.5812863700783950e+00 8.4140439986407518e+00 6.8027325901355704e+00 
549 151 2 1.0279991460837599e+00 -5.3973707406246640e+03 1.0000000000000000e+00 5.5780041925422843e+00 8.4171631475230715e+00 6.8098633075937292e+00 
1278 880 2 1.0279984475967432e+00 3.3933324806453766e+02 1.0000000000000000e+00 8.4714002655905389e+00 8.6481050212220634e+00 7.0264370969837842e+00 
1239 841 2 1.0280163200028567e+00 2.3815836718319847e+03 1.0000000000000000e+00 8.5587878526521610e+00 8.3767116441948115e+00 7.1310149759173349e+00 
813 415 2 1.0279999841470426e+00 -1.3530385231086889e+03 1.0000000000000000e+00 5.3493765437858674e+00 1.5830934376884404e+01 6.6414048768205109e+00 
1271 873 2 1.0280000036254324e+00 2.7952762587296661e+03 1.0000000000000000e+00 5.8172490450605920e+00 1.5300238721411445e+01 5.9944991419961990e+00 
1573 1175 2 1.0280000089919765e+00 -1.3231384567315079e+03 1.0000000000000000e+00 6.1897354053644085e+00 1.5585627057268722e+01 7.1131985641128361e+00 
833 435 2 1.0279996149506061e+00 7.0430490078901460e+02 1.0000000000000000e+00 1.3637433852918438e+01 1.5409213102452311e+01 6.2463140524354133e+00 
1628 1230 2 1.0280007073070909e+00 2.5397619743524604e+02 1.0000000000000000e+00 1.5176792636945258e+01 1.5082798660303377e+01 6.8319398567387735e+00 
1472 1074 2 1.0280007076074318e+00 8.1976140267639181e+01 1.0000000000000000e+00 1.5176890862944255e+01 1.5082866548854678e+01 6.8318565268701148e+00 
851 453 2 1.0279999749415394e+00 3.3439242305857360e+03 1.0000000000000000e+00 7.1087447043052689e+00 1.6246214776888984e+01 5.9636097473928347e+00 
1611 1213 2 1.0280000296858662e+00 3.3327450757388106e+03 1.0000000000000000e+00 7.1763824678027683e+00 1.7599388698058164e+01 6.2584467117872196e+00 
1610 1212 2 1.0280000220278489e+00 3.3294177582220473e+03 1.0000000000000000e+00 7.2392069747386945e+00 1.7590850104651970e+01 6.2418016033485353e+00 
643 245 2 1.0279993305280959e+00 2.5039128163660348e+03 1.0000000000000000e+00 1.3236978270415575e+01 1.7326429065609911e+01 5.9019928778929787e+00 
1453 1055 2 1.0279996053085891e+00 5.0692914548269264e+03 1.0000000000000000e+00 1.3863545102210491e+01 1.7877646675710750e+01 7.0498027582939340e+00 
1879 1481 2 1.0280010615545609e+00 -8.1439685060177590e+03 1.0000000000000000e+00 1.4492488902589242e+01 1.6916780124145046e+01 7.2764783723036981e+00 
1838 1440 2 1.0280000177673061e+00 -3.4219645195803855e+03 1.0000000000000000e+00 1.4781420094708121e+01 1.6890103013447540e+01 5.9477627097891341e+00 
945 547 2 1.0280005028943928e+00 2.5277147057588695e+03 1.0000000000000000e+00 1.7267098130745115e+01 1.7583632624609326e+01 6.1599921452870623e+00 
767 369 2 1.0279978622591730e+00 -5.6583429947329978e+03 1.0000000000000000e+00 1.7983922456064654e+01 1.7766930894123153e+01 6.0529258514264841e+00 
1860 1462 2 1.0280030064057797e+00 2.7312137537472217e+03 1.0000000000000000e+00 1.4572305501280399e+01 1.8985949380743627e+01 6.1759868244904590e+00 
1857 1459 2 1.0279940863944315e+00 3.0135477218810702e+03 1.0000000000000000e+00 1.5997794870319098e+01 1.8757429704173777e+01 6.2274239399725602e+00 
1126 728 2 1.0280004629833603e+00 4.1156169240140980e+02 1.0000000000000000e+00 1.7079899244153975e+01 1.8903951055754941e+01 6.2655347976231788e+00 
1106 708 2 1.0279998224706188e+00 3.2186150745752966e+03 1.0000000000000000e+00 1.9147990559461899e+01 1.9116205012122442e+01 6.0192119443453835e+00 
1752 1354 2 1.0279993660885620e+00 1.0462120721324349e+02 1.0000000000000000e+00 1.9585418097638183e+01 1.8343417231140336e+01 7.2942941360964602e+00 
1853 1455 2 1.0280011695761559e+00 4.0758321506635280e+03 1.0000000000000000e+00 1.9826101026376008e+01 1.8558417675349066e+01 7.4360811468543124e+00 
554 156 2 1.0280005706288295e+00 8.6228725993842545e+02 1.0000000000000000e+00 2.9368701127590833e+00 3.9850284261926254e+00 7.9077104407621803e+00 
1194 796 2 1.0280009204021017e+00 5.0547698267440813e+02 1.0000000000000000e+00 1.7423356614121543e+00 7.5171862991659024e+00 9.1257641192632111e+00 
737 339 2 1.0280013565757087e+00 -1.3787639998781040e+02 1.0000000000000000e+00 1.6434493368912337e+00 7.4439534436534611e+00 9.0780392517683719e+00 
792 394 2 1.0279998137019617e+00 -2.0059569535442174e+03 1.0000000000000000e+00 2.4815366732180375e+00 6.0452577750207812e+00 7.9482671659765147e+00 
772 374 2 1.0279970739738997e+00 -2.1331853672900424e+03 1.0000000000000000e+00 2.8008958341264947e+00 6.5197396278694928e+00 8.7771352019869191e+00 
1000 602 2 1.0279950352479448e+00 4.9037538492450349e+03 1.0000000000000000e+00 5.8885012676297190e+00 6.3531662094970445e+00 7.9335328969617702e+00 
1773 1375 2 1.0279993838620478e+00 1.7422474318450179e+03 1.0000000000000000e+00 4.7192937356418225e+00 8.1001189298678611e+00 9.4603726485893365e+00 
1132 734 2 1.0279990523949760e+00 -2.6339815117815698e+02 1.0000000000000000e+00 7.4628576096994381e+00 9.3528612363202228e+00 8.4013867283354653e+00 
1861 1463 2 1.0279935801284008e+00 2.8444921532808439e+03 1.0000000000000000e+00 8.9346234818249268e+00 9.1279914879826158e+00 8.4622532789023737e+00 
1596 1198 2 1.0280058369171383e+00 8.7685235071555780e+02 1.0000000000000000e+00 7.5068333531905331e+00 1.0196703102761903e+01 9.0030124984378492e+00 
1606 1208 2 1.0279999564880136e+00 -4.5427883524716981e+03 1.0000000000000000e+00 1.9145901228096491e+01 6.9414383548829295e-01 1.0692169801489962e+01 
1384 986 2 1.0279923033126344e+00 6.1394165990878673e+03 1.0000000000000000e+00 1.9525299692479503e+01 1.0569745648254016e+00 1.0934015574263260e+01 
1161 763 2 1.0280020714197364e+00 -2.1228561120155746e+03 1.0000000000000000e+00 4.4099595505607185e+00 7.2242304339588808e+00 9.9455526443422979e+00 
1319 921 2 1.0279982651009498e+00 -1.2510957815149691e+03 1.0000000000000000e+00 4.0743185720856037e+00 8.0171012678330698e+00 1.0110945108421562e+01 
948 550 2 1.0280007545329737e+00 2.4781701677295523e+03 1.0000000000000000e+00 8.5839551186061094e+00 9.4048366989980305e+00 9.9442427238624518e+00 
1533 1135 2 1.0279974399777405e+00 -1.2105515671532794e+03 1.0000000000000000e+00 8.3500508259611141e+00 1.0170390227970978e+01 1.0035191044735875e+01 
1364 966 2 1.0280072560678968e+00 9.3706085223041500e+03 1.0000000000000000e+00 9.5032802262016194e+00 1.1218067188076112e+01 1.1630656854244835e+01 
865 467 2 1.0279999979599972e+00 5.8039821444250338e+03 1.0000000000000000e+00 1.9761278341271669e+01 1.1704559503089268e+01 1.1700931978345684e+01 
494 96 2 1.0280011993285072e+00 -6.6396283765070402e+03 1.0000000000000000e+00 1.7322305070221468e+01 2.3272828320822217e-01 1.2982454889827686e+01 
846 448 2 1.0280031200716817e+00 -3.6956578408551341e+03 1.0000000000000000e+00 1.8672207707607154e+01 1.3137579354656701e+00 1.1940094980341788e+01 
700 302 2 1.0279951292704903e+00 1.7958599105391140e+03 1.0000000000000000e+00 1.9275530390462652e+01 2.5515060984434821e+00 1.2437043877226087e+01 
798 400 2 1.0279974209077150e+00 -5.4114811471373878e+03 1.0000000000000000e+00 1.9063537418337294e+01 2.8605670499926430e+00 1.2905575758582575e+01 
1735 1337 2 1.0280014776605251e+00 3.2118213344655292e+03 1.0000000000000000e+00 1.8494625448521287e+01 9.1740486807272958e+00 1.2801322383607898e+01 
1734 1336 2 1.0280013413905258e+00 3.2083924416767741e+03 1.0000000000000000e+00 1.8515667593233239e+01 9.1810730365738547e+00 1.2827139980014392e+01 
896 498 2 1.0279889868788801e+00 5.5374711707495571e+03 1.0000000000000000e+00 7.9132403170449672e+00 1.1782311539212920e+01 1.2064193174838758e+01 
1696 1298 2 1.0279890012102664e+00 -9.9406693738311822e+02 1.0000000000000000e+00 7.9142088143342564e+00 1.1786179802635202e+01 1.2062489722181439e+01 
777 379 2 1.0280101089259936e+00 -2.6204783391228966e+03 1.0000000000000000e+00 9.5368881189396557e+00 1.1289725245671811e+01 1.1854507549425291e+01 
658 260 2 1.0280008548978705e+00 2.7973225659058003e+03 1.0000000000000000e+00 1.6943302611854293e+01 1.1596311281795012e+01 1.2983233018429052e+01 
1105 707 2 1.0279990040584435e+00 -2.8321996379906873e+03 1.0000000000000000e+00 1.7861140696977497e+01 1.0956185224884772e+01 1.2380437113708282e+01 
1340 942 2 1.0280019374737897e+00 3.1658402625279027e+03 1.0000000000000000e+00 1.9617223410801117e+01 1.0936804666494693e+01 1.1896847340351909e+01 
1360 962 2 1.0279908097958310e+00 5.0984146956162976e+03 1.0000000000000000e+00 1.9819815844793954e+01 1.1288389935152725e+01 1.3715741815229123e+01 
1117 719 2 1.0280019046241509e+00 -3.5386933500458417e+03 1.0000000000000000e+00 1.8554581867863000e+01 1.2021273750652265e+01 1.2504148555590263e+01 
961 563 2 1.0280068427219988e+00 4.9296101856046744e+03 1.0000000000000000e+00 1.7258540487468736e+01 1.5175161904714708e+01 1.3294490869521516e+01 
1425 1027 2 1.0280068859946609e+00 5.9590078518704868e+03 1.0000000000000000e+00 1.7270658267909546e+01 1.5152038957333611e+01 1.3298944832882530e+01 
678 280 2 1.0280009210034404e+00 1.7170234780612589e+03 1.0000000000000000e+00 1.7432719001217535e+01 2.4679292960413535e-03 1.3830577475979259e+01 
1343 945 2 1.0279967371781671e+00 -1.1278808617359512e+03 1.0000000000000000e+00 1.7503750566722562e+01 3.8424328743838365e+00 1.5017168596236781e+01 
1351 953 2 1.0279921327804808e+00 2.5162303231399419e+03 1.0000000000000000e+00 1.8169704471006426e+01 2.6782313033027605e+00 1.3899821968345524e+01 
1629 1231 2 1.0280069957287215e+00 2.0190203267397603e+03 1.0000000000000000e+00 1.8582178158163888e+01 2.1061298306302803e+00 1.5369190690466349e+01 
1481 1083 2 1.0280069469686586e+00 -2.1908859515796479e+02 1.0000000000000000e+00 1.8581398349457803e+01 2.1084584005896572e+00 1.5372885617881357e+01 
1480 1082 2 1.0279886922799537e+00 1.7742130940544587e+03 1.0000000000000000e+00 1.7697363043102975e+01 4.0661217430986136e+00 1.5025326688934889e+01 
621 223 2 1.0279941340197176e+00 -1.2490306121114309e+03 1.0000000000000000e+00 1.7847780835146324e+01 7.0730825195879001e+00 1.5485239114877407e+01 
422 24 2 1.0279983978525338e+00 -5.5018492191909781e+03 1.0000000000000000e+00 1.8674786550917958e+01 6.3344513490535723e+00 1.5254077036515207e+01 
1518 1120 2 1.0280004889881809e+00 -4.7966211635812970e+03 1.0000000000000000e+00 1.5437895380897761e+01 9.2149038419781828e+00 1.5526440211957199e+01 
1062 664 2 1.0280008570841066e+00 3.3865439628973577e+03 1.0000000000000000e+00 1.5500000334760179e+01 9.2139448771813228e+00 1.5628230682944951e+01 
670 272 2 1.0279971619641779e+00 3.2022182174204049e+03 1.0000000000000000e+00 1.7176549748028727e+01 8.7513137501689275e+00 1.4110127949590545e+01 
671 273 2 1.0280016050510863e+00 3.2018151392518475e+03 1.0000000000000000e+00 1.7138905487841285e+01 8.7764393828006604e+00 1.4075902682973489e+01 
1121 723 2 1.0279972502707551e+00 -2.3707587938974234e+03 1.0000000000000000e+00 1.5744062918594873e+01 1.0731383785994529e+01 1.4553213203854817e+01 
1585 1187 2 1.0279956344223178e+00 -7.5429073242136917e+02 1.0000000000000000e+00 1.6209533807429491e+01 1.1511626308532525e+01 1.3777348241240668e+01 
508 110 2 1.0280033167305558e+00 4.1032317733662921e+03 1.0000000000000000e+00 1.7356568493764950e+01 1.0787289984088178e+01 1.5049038187522020e+01 
781 383 2 1.0280043346717447e+00 -2.5006854914725832e+03 1.0000000000000000e+00 1.9668637853945640e+01 1.0561754201669121e+01 1.5155226691396020e+01 
1295 897 2 1.0280023147063604e+00 2.7516459996432732e+03 1.0000000000000000e+00 1.9673698982622351e+01 1.0593762546454833e+01 1.5169062135642220e+01 
817 419 2 1.0280094127578601e+00 4.6782919878069436e+02 1.0000000000000000e+00 1.7763900624781311e+01 1.2682131851557049e+01 1.4643911577888655e+01 
953 555 2 1.0280102734003085e+00 3.5524656494190840e+03 1.0000000000000000e+00 1.7767144401956312e+01 1.2608538359781221e+01 1.4819514078288005e+01 
1829 1431 2 1.0279879732448214e+00 2.8435564486163330e+03 1.0000000000000000e+00 1.6201501227161732e+01 1.5204062399490761e+01 1.4326956075633726e+01 
1397 999 2 1.0280072354978895e+00 6.3012559249663800e+03 1.0000000000000000e+00 1.6950857439806480e+01 1.4124103551237104e+01 1.5322212148979423e+01 
745 347 2 1.0280109622758067e+00 -1.2285882661151961e+03 1.0000000000000000e+00 1.6340238965954761e+01 1.5261635337220001e+01 1.5672065816313870e+01 