LAMMPS data file via write_data, version 30 Jul 2016, timestep = 50000000

180 atoms
2 atom types

0.0000000000000000e+00 2.0000000000000000e+01 xlo xhi
0.0000000000000000e+00 2.0000000000000000e+01 ylo yhi
0.0000000000000000e+00 2.0000000000000000e+01 zlo zhi

Masses

1 3.896
2 4.31

Atoms # meso-molecular

44 1 2 5.0000005519071355e-01 -7.4421593429489121e+01 1.0000000000000000e+00 4.7981765687871256e+00 1.5989150562040970e+00 2.0160448861917630e+00 
51 1 2 5.0000005502959421e-01 -3.6711977866872893e+01 1.0000000000000000e+00 4.7985253847459646e+00 1.5988305910836913e+00 2.0151604259558491e+00 
58 1 2 5.0000005502981126e-01 -6.4868462343000530e+01 1.0000000000000000e+00 4.7985249066504698e+00 1.5988307196712954e+00 2.0151616079318289e+00 
171 1 2 5.0000000098501340e-01 -9.0697270710586025e+01 1.0000000000000000e+00 4.7252388563013401e+00 4.7642248478977267e+00 2.3021560270876189e+00 
20 1 2 5.0000000098501318e-01 -8.3604498478551236e+01 1.0000000000000000e+00 4.7252388562880148e+00 4.7642248450832021e+00 2.3021560280051840e+00 
99 1 2 5.0000002351013106e-01 -6.4822750654340183e+01 1.0000000000000000e+00 6.4638835982200620e+00 5.6598419772675124e+00 1.8992310137145187e+00 
63 1 2 5.0000002351013095e-01 -9.5233877003251720e+01 1.0000000000000000e+00 6.4638835982206508e+00 5.6598419772677433e+00 1.8992310137148836e+00 
10 1 2 4.9999995306499428e-01 -7.7202642200307324e+01 1.0000000000000000e+00 5.6084615663407815e+00 3.2169209204244371e+00 4.7058197720662855e+00 
142 1 2 4.9999995306495448e-01 -4.9819688009531944e+01 1.0000000000000000e+00 5.6084678539046759e+00 3.2169222778426674e+00 4.7058200437643256e+00 
128 1 2 4.9999995307708417e-01 -4.9613099553547350e+01 1.0000000000000000e+00 5.6084515475158820e+00 3.2169042871419493e+00 4.7058063059265933e+00 
73 1 2 5.0000007559227699e-01 -4.3624885368643945e+01 1.0000000000000000e+00 4.3370009232328339e+00 5.6120259068844724e+00 4.3358322975498051e+00 
79 1 2 5.0000007559227722e-01 -4.7417974967285566e+01 1.0000000000000000e+00 4.3370009232327709e+00 5.6120259068843232e+00 4.3358322975499037e+00 
60 1 2 4.9999998764510190e-01 -5.3470733024503765e+01 1.0000000000000000e+00 6.5770026245943196e+00 5.8232959458758371e+00 3.9300600936369512e+00 
29 1 2 4.9999998762652464e-01 -6.9329186160341905e+01 1.0000000000000000e+00 6.5769369370427491e+00 5.8234228021298415e+00 3.9300268972831689e+00 
104 1 2 5.0000013464620230e-01 -4.2546177089548664e+01 1.0000000000000000e+00 4.7020705582059472e+00 6.1074004613580604e+00 6.8798080157116663e+00 
139 1 2 5.0000013464616289e-01 -5.8005465678566836e+01 1.0000000000000000e+00 4.7020705345429743e+00 6.1074005652334931e+00 6.8798081399118605e+00 
103 1 2 5.0000013464617943e-01 -5.0873431114862882e+01 1.0000000000000000e+00 4.7020705442475643e+00 6.1074005228517159e+00 6.8798080892809814e+00 
31 1 2 4.9999997350658232e-01 -6.9523716546351409e+01 1.0000000000000000e+00 6.0110652666610154e+00 8.6636200858386090e+00 7.0399948022385477e+00 
25 1 2 5.0000002011757094e-01 -8.5466771672057234e+01 1.0000000000000000e+00 6.0092780699773733e+00 8.6667806667259590e+00 7.0498701202420779e+00 
67 1 2 5.0000002472616845e-01 -9.8644026318170006e+01 1.0000000000000000e+00 6.0091364104257696e+00 8.6670845956785278e+00 7.0508693111525993e+00 
101 1 2 5.0000000295538460e-01 -8.4430623171487383e+01 1.0000000000000000e+00 5.5797008021299472e+00 7.4637298113180872e+00 9.4660788237192630e+00 
64 1 2 5.0000000295538483e-01 -7.0921771422543486e+01 1.0000000000000000e+00 5.5797008021299481e+00 7.4637298113180357e+00 9.4660788237191476e+00 
4 1 2 5.0000066137922061e-01 -9.9312255003744681e+01 1.0000000000000000e+00 6.4564573864993564e+00 7.4143519430401232e+00 1.1025083150114060e+01 
39 1 2 5.0000066137918409e-01 -7.6535930005046410e+01 1.0000000000000000e+00 6.4564574448326315e+00 7.4143519079605191e+00 1.1025083160873004e+01 
26 1 2 5.0000000949615619e-01 -5.1497435913611817e+01 1.0000000000000000e+00 1.3609893224623610e+00 1.6948493844183641e+00 1.6576086020630481e+01 
114 1 2 5.0000000949615619e-01 -9.5537282351188921e+01 1.0000000000000000e+00 1.3609893223784442e+00 1.6948493843201633e+00 1.6576086020315252e+01 
33 1 2 5.0000000949616152e-01 -7.2439059915561174e+01 1.0000000000000000e+00 1.3609893306766818e+00 1.6948493940248033e+00 1.6576086051412947e+01 
74 1 2 5.0000008854766353e-01 -1.0419325102142022e+02 1.0000000000000000e+00 9.5911701793904813e-01 4.2684990630892532e+00 1.6623792374330396e+01 
5 1 2 5.0000006828112620e-01 -7.4961313338935057e+01 1.0000000000000000e+00 9.5356065256862721e-01 4.2794454385260998e+00 1.6605305386211768e+01 
11 1 2 5.0000006828112731e-01 -6.5501460203238551e+01 1.0000000000000000e+00 9.5356065284214686e-01 4.2794454382358538e+00 1.6605305386766414e+01 
119 1 2 4.9999968760933167e-01 -6.6215893973574978e+01 1.0000000000000000e+00 3.5624720446729099e+00 5.2600851963823620e+00 1.3816565652401792e+01 
47 1 2 4.9999968761513036e-01 -5.6643845034647903e+01 1.0000000000000000e+00 3.5614219638158597e+00 5.2609320496324354e+00 1.3816116559812720e+01 
143 1 2 4.9999970463103521e-01 -9.5460809282291905e+01 1.0000000000000000e+00 4.7349812082465714e+00 6.0693226669762392e+00 1.5455334638153756e+01 
107 1 2 4.9999970463209337e-01 -9.9827760043090336e+01 1.0000000000000000e+00 4.7349874295767718e+00 6.0693257844117365e+00 1.5455331022960211e+01 
154 1 2 5.0000073466647299e-01 -3.6276772772794601e+01 1.0000000000000000e+00 4.9654168913534447e+00 6.6172159929271341e+00 1.3634985634853615e+01 
153 1 2 5.0000073467607797e-01 -3.7310072529399832e+01 1.0000000000000000e+00 4.9654078162189652e+00 6.6172130469111154e+00 1.3634974607418421e+01 
43 1 2 5.0000036727042685e-01 -4.4843893204122011e+01 1.0000000000000000e+00 2.1300277387114455e+00 6.8749110588896452e+00 1.5383928229054643e+01 
7 1 2 5.0000036727042696e-01 -4.9249027515969431e+01 1.0000000000000000e+00 2.1300277387115765e+00 6.8749110588902687e+00 1.5383928229052939e+01 
115 1 2 5.0000036672654191e-01 -8.1647643526186712e+01 1.0000000000000000e+00 2.1304800971146505e+00 6.8752269707053131e+00 1.5384260775141787e+01 
55 1 2 4.9999995967372513e-01 -7.0134951282989036e+01 1.0000000000000000e+00 7.0323535666420831e+00 2.3084268065755116e+00 2.1762032417157777e+00 
19 1 2 4.9999995981462514e-01 -1.1376856117131227e+02 1.0000000000000000e+00 7.0319856859031411e+00 2.3084262403968130e+00 2.1758126795161301e+00 
38 1 2 5.0000016469023167e-01 -8.7510894038673712e+01 1.0000000000000000e+00 9.2975914042753374e+00 4.3868944541125430e+00 2.6429572179254177e+00 
167 1 2 5.0000016469023134e-01 -5.5315107640804456e+01 1.0000000000000000e+00 9.2975914045460719e+00 4.3868944532796270e+00 2.6429572175582137e+00 
122 1 2 4.9999992913447766e-01 -4.0199111148877940e+01 1.0000000000000000e+00 8.3867596122741741e+00 3.7415173068808611e+00 1.2458687729367630e+00 
116 1 2 4.9999992913439595e-01 -2.0352496964125603e+01 1.0000000000000000e+00 8.3867586432178598e+00 3.7415174609625388e+00 1.2458685400548448e+00 
164 1 2 4.9999992169131513e-01 -8.1251488948171087e+01 1.0000000000000000e+00 8.5310869620999998e+00 4.1563203883804817e-01 3.4753691455092954e+00 
77 1 2 4.9999992169250229e-01 -7.1102440712881105e+01 1.0000000000000000e+00 8.5310662197780101e+00 4.1560813025257870e-01 3.4753717860755140e+00 
163 1 2 4.9999992169131646e-01 -8.5360845788226484e+01 1.0000000000000000e+00 8.5310869207417923e+00 4.1563199291191583e-01 3.4753691500289330e+00 
130 1 2 5.0000001628866075e-01 -7.1339577116597695e+01 1.0000000000000000e+00 8.4309893095207524e+00 8.9983022547546709e-01 6.2072321905185541e+00 
121 1 2 5.0000001628866120e-01 -9.4063838727149104e+01 1.0000000000000000e+00 8.4309892979928023e+00 8.9983022539545332e-01 6.2072321857233890e+00 
147 1 2 5.0000011418932389e-01 -9.5250151049704328e+01 1.0000000000000000e+00 9.8883156525554003e+00 5.2367579547000132e+00 6.5852994947341390e+00 
108 1 2 4.9999986714605499e-01 -6.8734337072488898e+01 1.0000000000000000e+00 8.2944274459833522e+00 6.0239451299912758e+00 6.4908511383853984e+00 
127 1 2 4.9999986714605504e-01 -3.7855301158768128e+01 1.0000000000000000e+00 8.2944274459914258e+00 6.0239451300462150e+00 6.4908511382664527e+00 
42 1 2 4.9999999210494261e-01 -9.1047934349942167e+01 1.0000000000000000e+00 1.0458700839912865e+01 5.2291946567943075e+00 3.8309314959625955e+00 
94 1 2 5.0000018434272508e-01 -6.9286227387798007e+01 1.0000000000000000e+00 1.0326297282124656e+01 4.7974705369314332e+00 4.9613061856660536e+00 
9 1 2 4.9999998826129777e-01 -6.2839413487518705e+01 1.0000000000000000e+00 1.0878759823707828e+01 5.6298967619371760e+00 4.9401076941541708e+00 
134 1 2 5.0000000264777500e-01 -9.7580084035483452e+01 1.0000000000000000e+00 9.7147674289598829e+00 7.3750941665759688e+00 4.8530912124756274e+00 
133 1 2 5.0000000264766165e-01 -1.0293146743908932e+02 1.0000000000000000e+00 9.7147688729496799e+00 7.3750937616861920e+00 4.8530922231906990e+00 
136 1 2 4.9999991411395112e-01 -9.3456142786621228e+01 1.0000000000000000e+00 8.6303156152850864e+00 8.3100186267333331e+00 4.6659147070534921e+00 
57 1 2 4.9999997758411591e-01 -4.4708541562942123e+01 1.0000000000000000e+00 7.3420641111121556e+00 9.2773416972357570e+00 3.8254531332433981e+00 
177 1 2 4.9999997758788911e-01 -7.5791692026303778e+01 1.0000000000000000e+00 7.3420809193740162e+00 9.2773563344517047e+00 3.8254438378549662e+00 
27 1 2 5.0000001712813980e-01 -8.2788224539223052e+01 1.0000000000000000e+00 7.1166836445757866e+00 9.9802826016250510e+00 4.3824786354335554e+00 
72 1 2 5.0000044711009139e-01 -4.5204672900408056e+01 1.0000000000000000e+00 9.1435567328091238e+00 5.7350774266249056e+00 8.3689024466841495e+00 
36 1 2 5.0000044710994251e-01 -6.8559076670903920e+01 1.0000000000000000e+00 9.1435568542189483e+00 5.7350772257543881e+00 8.3689021806959509e+00 
117 1 2 4.9999995744071180e-01 -6.7777881742032903e+01 1.0000000000000000e+00 1.2480775003365371e+01 6.5363645891164479e+00 9.1589380257303148e+00 
146 1 2 5.0000007113685463e-01 -7.8998815562681287e+01 1.0000000000000000e+00 1.2423899964593783e+01 6.5567011674322853e+00 9.2404046092353891e+00 
40 1 2 4.9999972090787781e-01 -8.7301691769607586e+01 1.0000000000000000e+00 7.9257626251919566e+00 6.7485143862702923e+00 9.7357468191915917e+00 
120 1 2 4.9999972090788747e-01 -6.1262352611287994e+01 1.0000000000000000e+00 7.9257626276274360e+00 6.7485143814499153e+00 9.7357468089461179e+00 
1 1 2 5.0000002878506433e-01 -7.4875646536082542e+01 1.0000000000000000e+00 1.3240797270893786e+01 7.7088626920454537e+00 9.9838698748459400e+00 
86 1 2 5.0000005225067379e-01 -3.7255672141703357e+01 1.0000000000000000e+00 1.2296716082270615e+01 4.8858802230167493e+00 1.0870429755627537e+01 
80 1 2 5.0000005225067290e-01 -5.8716298730665343e+01 1.0000000000000000e+00 1.2296716106462027e+01 4.8858802067686931e+00 1.0870429748100397e+01 
141 1 2 5.0000005225037858e-01 -5.7059596327491988e+01 1.0000000000000000e+00 1.2296700246027626e+01 4.8858908562931402e+00 1.0870434676932300e+01 
98 1 2 5.0000015883772919e-01 -8.1522992432696256e+01 1.0000000000000000e+00 7.9090416288199092e+00 1.0212989506227169e+01 5.8661083176973321e+00 
151 1 2 5.0000012578819886e-01 -9.3691590052255236e+01 1.0000000000000000e+00 8.2132589852184772e+00 1.1581902766285667e+01 6.0805080018021611e+00 
83 1 2 5.0000000135393308e-01 -7.3954018113353058e+01 1.0000000000000000e+00 1.0509398922879329e+01 1.1635074762454956e+01 6.5079637677916224e+00 
91 1 2 4.9999999993678784e-01 -6.6502652570249580e+01 1.0000000000000000e+00 8.7906869745050944e+00 1.9598702116553948e+01 6.1159714907716793e+00 
92 1 2 4.9999999993678812e-01 -6.0531353544231514e+01 1.0000000000000000e+00 8.7906869745018028e+00 1.9598702116553092e+01 6.1159714907718419e+00 
152 1 2 4.9999999117836680e-01 -9.2039729327406462e+01 1.0000000000000000e+00 8.5498683958255750e+00 1.2542851524091475e+01 7.1627602896408584e+00 
35 1 2 4.9999994421636734e-01 -5.6903227436296675e+01 1.0000000000000000e+00 9.2532596341595443e+00 1.1264534339416793e+01 7.8989831123932603e+00 
23 1 2 4.9999994805785958e-01 -4.8356699605498854e+01 1.0000000000000000e+00 8.1521645385802000e+00 1.1156134245591169e+01 7.4605043438657370e+00 
69 1 2 5.0000001412977935e-01 -5.8289354760097417e+01 1.0000000000000000e+00 1.0632252145582765e+01 1.2563195937444764e+01 7.0015284742426154e+00 
68 1 2 5.0000001412977846e-01 -3.3448956849836073e+01 1.0000000000000000e+00 1.0632252145582720e+01 1.2563195937444789e+01 7.0015284742432673e+00 
97 1 2 4.9999995382905854e-01 -8.3863690395852856e+01 1.0000000000000000e+00 1.3195845737912251e+01 1.4631917976503347e+01 1.3747886938782065e+01 
61 1 2 4.9999995382905921e-01 -9.3795986639340001e+01 1.0000000000000000e+00 1.3195845737912242e+01 1.4631917976503411e+01 1.3747886938782036e+01 
32 1 2 5.0000010451183419e-01 -8.0960024463387057e+01 1.0000000000000000e+00 1.5484388100357187e+01 6.5855895502244151e+00 9.7152438580766667e+00 
81 1 2 5.0000010451183408e-01 -8.0363962580974615e+01 1.0000000000000000e+00 1.5484388100357537e+01 6.5855895502241060e+00 9.7152438580771463e+00 
166 1 2 5.0000007186774886e-01 -3.4204089081153874e+01 1.0000000000000000e+00 1.3394487642593257e+01 8.0125707620301938e+00 7.2653134574999916e+00 
93 1 2 5.0000007054818330e-01 9.5888175964431124e+00 1.0000000000000000e+00 1.3393429895867179e+01 8.0123933377939736e+00 7.2650366906432309e+00 
129 1 2 5.0000007054818352e-01 2.1555300460036317e+00 1.0000000000000000e+00 1.3393429896051710e+01 8.0123933378253582e+00 7.2650366906910655e+00 
41 1 2 4.9999980294992341e-01 -6.3413233600402400e+01 1.0000000000000000e+00 1.7053237055902525e+01 8.5918668558041240e+00 8.2825826397085187e+00 
46 1 2 4.9999980294992358e-01 -6.9446759856512472e+01 1.0000000000000000e+00 1.7053237055903256e+01 8.5918668558038664e+00 8.2825826397097178e+00 
62 1 2 4.9999980268551447e-01 -8.5200221742075200e+01 1.0000000000000000e+00 1.7049211929385663e+01 8.5921764972251431e+00 8.2768225511899622e+00 
45 1 2 4.9999997805225938e-01 -7.9625064281948156e+01 1.0000000000000000e+00 1.5393620922920547e+01 5.6701962430531809e+00 1.1311977696841947e+01 
169 1 2 4.9999997805220359e-01 -8.1713169122354756e+01 1.0000000000000000e+00 1.5393620824711947e+01 5.6701961479056244e+00 1.1311977689971830e+01 
137 1 2 4.9999990395064048e-01 -6.7886132685665615e+01 1.0000000000000000e+00 1.4604455081351624e+01 8.6561487152678005e+00 1.0536526402682680e+01 
59 1 2 4.9999990395721217e-01 -7.9947653155479202e+01 1.0000000000000000e+00 1.4604400061861455e+01 8.6560974258905894e+00 1.0536511684670682e+01 
145 1 2 4.9999977528400558e-01 -6.8006432726132189e+01 1.0000000000000000e+00 1.7206081272937389e+01 8.5377960041928240e+00 1.2442579237283031e+01 
109 1 2 4.9999977528400558e-01 -6.6384542279035216e+01 1.0000000000000000e+00 1.7206081272937389e+01 8.5377960041928240e+00 1.2442579237283031e+01 
175 1 2 4.9999977528400552e-01 -7.0541650383291056e+01 1.0000000000000000e+00 1.7206081272937375e+01 8.5377960041928223e+00 1.2442579237283020e+01 
71 1 2 5.0000009384495236e-01 -4.2340649210695148e+01 1.0000000000000000e+00 1.8745308451204135e+01 3.5182919601834728e-01 1.6173182063638105e+01 
65 1 2 5.0000009384511801e-01 -3.8775118886621549e+01 1.0000000000000000e+00 1.8745308441841669e+01 3.5182921946577456e-01 1.6173182144942512e+01 
135 1 2 5.0000009370291276e-01 -8.8985614930375320e+01 1.0000000000000000e+00 1.8745316676749976e+01 3.5180881526020669e-01 1.6173112169428808e+01 
12 1 2 5.0000003136561355e-01 -5.9616699544091659e+01 1.0000000000000000e+00 1.4220607181168047e+01 5.3728938751439346e+00 1.3413736539980768e+01 
6 1 2 5.0000003136561444e-01 -1.0747221800889668e+02 1.0000000000000000e+00 1.4220607176842751e+01 5.3728938872823724e+00 1.3413736539659347e+01 
8 1 2 4.9999996062594937e-01 -3.0044997250584874e+01 1.0000000000000000e+00 1.4587187273547356e+01 6.0461949166966935e+00 1.3419574078731653e+01 
88 1 2 5.0000008526112905e-01 -4.6747131100994856e+01 1.0000000000000000e+00 1.8811862552201401e+01 4.5097151102339872e+00 1.3936035208708489e+01 
102 1 2 5.0000010157814534e-01 -8.1067319763947623e+01 1.0000000000000000e+00 1.6723903958183779e+01 5.0129091022625767e+00 1.4029756414515848e+01 
138 1 2 5.0000010157723562e-01 -9.6890991366166162e+01 1.0000000000000000e+00 1.6723898143371780e+01 5.0129126480843311e+00 1.4029751596012435e+01 
70 1 2 4.9999982122471981e-01 -7.2048749303575804e+01 1.0000000000000000e+00 1.9221289592828079e+01 5.0014414218450263e+00 1.4094458512197274e+01 
106 1 2 4.9999982126395504e-01 -8.2349528643596059e+01 1.0000000000000000e+00 1.9221280747693385e+01 5.0014449021805394e+00 1.4094434716413387e+01 
50 1 2 5.0000004917256158e-01 -2.2546113841541658e+01 1.0000000000000000e+00 1.7515840672376754e+01 6.6431235081100146e+00 1.5239306562232949e+01 
132 1 2 5.0000004917256169e-01 -6.5529696268169758e+01 1.0000000000000000e+00 1.7515840672376733e+01 6.6431235081100279e+00 1.5239306562232942e+01 
150 1 2 5.0000000269445699e-01 -6.4843155030955330e+01 1.0000000000000000e+00 1.7639588716177801e+01 8.6035343203417955e+00 1.5279129955691237e+01 
156 1 2 5.0000000269445688e-01 -8.7601954176998504e+01 1.0000000000000000e+00 1.7639588716177784e+01 8.6035343203417973e+00 1.5279129955691275e+01 
13 1 2 4.9999995893100369e-01 -7.0433673663277148e+01 1.0000000000000000e+00 1.5889176821774907e+01 4.4844902422057929e-02 1.6841145380684150e+01 
24 1 2 4.9999995893100430e-01 -7.1530836021447968e+01 1.0000000000000000e+00 1.5889176821775315e+01 4.4844902421806360e-02 1.6841145380684669e+01 
157 1 2 4.9999995893100374e-01 -4.1291226288579871e+01 1.0000000000000000e+00 1.5889176821775042e+01 4.4844902422160451e-02 1.6841145380684214e+01 
90 1 2 4.9999989530925287e-01 -3.6830208153509687e+01 1.0000000000000000e+00 1.5508683967488945e+01 1.5689104509886510e+01 3.1897416195958828e+00 
126 1 2 4.9999989530925304e-01 -3.3294773046497184e+01 1.0000000000000000e+00 1.5508683967489212e+01 1.5689104509886644e+01 3.1897416195959365e+00 
176 1 2 5.0000008082811820e-01 -3.2350028355741266e+01 1.0000000000000000e+00 1.6971107449677934e+01 1.4691070563650658e+01 6.1659622518488688e-01 
140 1 2 5.0000008082811886e-01 -3.0251753803127020e+01 1.0000000000000000e+00 1.6971107439687884e+01 1.4691070561304084e+01 6.1659621866640379e-01 
110 1 2 4.9999987083340858e-01 -4.9639633579001512e+01 1.0000000000000000e+00 1.3566569920646213e+01 1.0203180403936296e+01 5.3258961718034499e+00 
111 1 2 4.9999987096871473e-01 -7.3688932428909041e+01 1.0000000000000000e+00 1.3565236885044108e+01 1.0202786940503220e+01 5.3265671753476047e+00 
89 1 2 5.0000014523959535e-01 -5.2349755457471232e+01 1.0000000000000000e+00 1.4627385370895986e+01 1.1386710019911176e+01 6.2087291226513912e+00 
95 1 2 5.0000014523959246e-01 -5.4077053025186451e+01 1.0000000000000000e+00 1.4627385370613551e+01 1.1386710020371833e+01 6.2087291200426868e+00 
131 1 2 5.0000010475002277e-01 -5.0609962292064210e+01 1.0000000000000000e+00 1.5919402562496533e+01 1.4659137602933384e+01 3.5572549454454250e+00 
18 1 2 5.0000010475002321e-01 -8.4299652495608640e+01 1.0000000000000000e+00 1.5919402562514181e+01 1.4659137602942218e+01 3.5572549454509761e+00 
56 1 2 5.0000004552462729e-01 -3.8602595625935010e+01 1.0000000000000000e+00 1.3383829449399366e+01 1.0919723802041958e+01 6.7053507690320675e+00 
149 1 2 5.0000020283841873e-01 -5.8924743341422868e+01 1.0000000000000000e+00 1.5462169202223517e+01 1.0441350647482050e+01 8.9482097077266438e+00 
113 1 2 5.0000020282190738e-01 -4.4348966660254113e+01 1.0000000000000000e+00 1.5462173603807093e+01 1.0441355744165715e+01 8.9482250258758640e+00 
48 1 2 4.9999999999984118e-01 -5.1298485452825446e+01 1.0000000000000000e+00 1.9625255237319248e+01 1.2905911449313427e+01 9.1755169506370731e+00 
54 1 2 4.9999999999982997e-01 -7.6970284621119674e+01 1.0000000000000000e+00 1.9625255241045561e+01 1.2905911447929350e+01 9.1755169499222298e+00 
174 1 2 4.9999998449869615e-01 -3.5163041708064867e+01 1.0000000000000000e+00 1.5678567050161233e+01 1.8166773496924552e+01 9.6345022822984596e+00 
180 1 2 4.9999998449869865e-01 -3.6399673433409177e+01 1.0000000000000000e+00 1.5678567040478100e+01 1.8166773510745305e+01 9.6345022713796133e+00 
144 1 2 5.0000031530398514e-01 -6.8176848362949798e+01 1.0000000000000000e+00 1.6412475608130148e+01 1.1085011219858060e+01 1.2663252671877933e+01 
66 1 2 5.0000031530381472e-01 -8.2483332211407216e+01 1.0000000000000000e+00 1.6412475496282994e+01 1.1085011148529663e+01 1.2663252479698819e+01 
30 1 2 5.0000031530395883e-01 -7.4669511209090842e+01 1.0000000000000000e+00 1.6412475590501771e+01 1.1085011208617299e+01 1.2663252641599817e+01 
100 1 2 5.0000035158849254e-01 -8.7466181356248711e+01 1.0000000000000000e+00 1.5775960340301950e+01 1.0285398136384099e+01 1.0056319056096182e+01 
105 1 2 5.0000000000004352e-01 -8.2053340925087639e+01 1.0000000000000000e+00 1.9810388443463420e+01 1.2837298851457280e+01 1.0273559374240371e+01 
17 1 2 4.9999999999962763e-01 -1.0153798626231759e+02 1.0000000000000000e+00 1.9810388443405294e+01 1.2837298851456149e+01 1.0273559374253431e+01 
173 1 2 4.9999993265371906e-01 -6.8166917690994055e+01 1.0000000000000000e+00 1.4983044051356734e+01 1.6977145776040356e+01 1.3001245847216147e+01 
172 1 2 4.9999993276539850e-01 -4.0084397527510738e+01 1.0000000000000000e+00 1.4982975311008797e+01 1.6977787775805325e+01 1.3001664438815750e+01 
22 1 2 4.9999999434352249e-01 -7.5689079353196959e+01 1.0000000000000000e+00 1.4688919389601367e+01 1.6673641748167508e+01 1.1044909526757806e+01 
21 1 2 4.9999999434289233e-01 -6.2917146587920030e+01 1.0000000000000000e+00 1.4688903264164162e+01 1.6673640642420430e+01 1.1044944719714955e+01 
179 1 2 5.0000001040642361e-01 -4.5595171520279017e+01 1.0000000000000000e+00 1.4452924558034400e+01 1.8851519689966487e+01 1.0325146075882675e+01 
178 1 2 5.0000001040643205e-01 -5.9816225991344631e+01 1.0000000000000000e+00 1.4452925071757466e+01 1.8851520048749709e+01 1.0325146275564881e+01 
37 1 2 5.0000001762488933e-01 -8.9718337835535337e+01 1.0000000000000000e+00 1.4741506453158063e+01 1.3251571660246155e+01 1.4504665037844404e+01 
124 1 2 5.0000001762467383e-01 -5.8287291130090473e+01 1.0000000000000000e+00 1.4741505629187310e+01 1.3251571690517586e+01 1.4504664885711163e+01 
3 1 2 4.9999997647093053e-01 -3.5579996679183878e+01 1.0000000000000000e+00 1.6770382582950116e+01 1.0316178359991444e+01 1.5899628002876501e+01 
2 1 2 4.9999997652391892e-01 -2.8870763118163190e+01 1.0000000000000000e+00 1.6770307382526081e+01 1.0316244584454049e+01 1.5899673728555200e+01 
49 1 2 4.9999998628063180e-01 -5.9145392316138810e+01 1.0000000000000000e+00 1.8113325557909921e+01 1.2551201057631923e+01 1.4723761898568819e+01 
85 1 2 4.9999998628063164e-01 -9.4280059784878759e+01 1.0000000000000000e+00 1.8113325557910027e+01 1.2551201057632213e+01 1.4723761898568645e+01 
162 1 2 4.9999995235054423e-01 -3.3838254534002878e+01 1.0000000000000000e+00 1.5217279240228025e+01 1.3621960187587124e+01 1.6207991531082730e+01 
168 1 2 4.9999995235054395e-01 -3.3810607785864264e+01 1.0000000000000000e+00 1.5217279240230704e+01 1.3621960187581934e+01 1.6207991531088886e+01 
148 1 2 5.0000004485614202e-01 -5.6625382844571767e+01 1.0000000000000000e+00 1.3638617150924887e+01 1.6094593334991494e+01 1.4503631147584453e+01 
155 1 2 5.0000004485614313e-01 -6.4772818878760404e+01 1.0000000000000000e+00 1.3638617151885983e+01 1.6094593332020743e+01 1.4503631150417560e+01 
112 1 2 5.0000013714561387e-01 -3.2255882425897028e+01 1.0000000000000000e+00 1.9006737570993970e+01 1.3616651340312110e+01 1.5127039416329227e+01 
118 1 2 5.0000013714561375e-01 -5.0416814307580786e+01 1.0000000000000000e+00 1.9006737570993955e+01 1.3616651340312103e+01 1.5127039416329175e+01 
159 1 2 4.9999980117485532e-01 -1.2697360721416571e+01 1.0000000000000000e+00 1.8496855624567242e+01 1.6299655414776566e+01 1.5953514598110152e+01 
125 1 2 4.9999980108190822e-01 -5.9923460316907182e+01 1.0000000000000000e+00 1.8496444640460034e+01 1.6300254417736170e+01 1.5953698746886090e+01 
170 1 2 5.0000011394505617e-01 -8.1467654513383607e+01 1.0000000000000000e+00 1.5593298519468204e+01 1.9170827472747678e+01 1.4282460495630797e+01 
165 1 2 5.0000011394505628e-01 -6.1251915097147275e+01 1.0000000000000000e+00 1.5593298519680584e+01 1.9170827473001832e+01 1.4282460495526843e+01 
96 1 2 4.9999985150937848e-01 -4.7005359584821562e+01 1.0000000000000000e+00 1.7122542053311729e+01 1.8706893529368305e+01 1.4539897247702275e+01 
123 1 2 4.9999985150937853e-01 -1.0254337786194829e+02 1.0000000000000000e+00 1.7122542053367908e+01 1.8706893529701194e+01 1.4539897247537649e+01 
15 1 2 4.9999998214131197e-01 -4.2023241342699997e+01 1.0000000000000000e+00 1.6098737099209199e+01 1.1887580290166918e+01 1.6805799412512396e+01 
158 1 2 4.9999998214207220e-01 -7.1555176208325520e+01 1.0000000000000000e+00 1.6098741711613158e+01 1.1887574128609955e+01 1.6805798430692697e+01 
84 1 2 5.0000012273468641e-01 -6.1457643226333040e+01 1.0000000000000000e+00 1.9757069962330540e+01 1.5366915149370456e+01 1.6996964741066133e+01 
78 1 2 5.0000012273468719e-01 -6.2140603545746778e+01 1.0000000000000000e+00 1.9757069962330139e+01 1.5366915149344866e+01 1.6996964741101550e+01 
87 1 2 5.0000001051651499e-01 -8.0334475534709796e+01 1.0000000000000000e+00 1.6737207026523937e+01 1.4445944752157544e+01 1.9792353962551751e+01 
14 1 2 4.9999995847627593e-01 -9.3288386761810159e+01 1.0000000000000000e+00 1.8706254879533223e+01 1.3889890998595105e+01 1.9018341416635025e+01 
161 1 2 4.9999995847627499e-01 -6.5391378772464691e+01 1.0000000000000000e+00 1.8706254877897553e+01 1.3889890998928118e+01 1.9018341413459158e+01 
53 1 2 4.9999999035227916e-01 -1.0719995925216581e+02 1.0000000000000000e+00 1.9098309400629702e+01 1.5676739102795084e+01 1.9351064354974145e+01 
160 1 2 4.9999999035229004e-01 -2.1150525097999214e+01 1.0000000000000000e+00 1.9098309321778036e+01 1.5676739264753827e+01 1.9351064223067826e+01 
28 1 2 4.9999993918832530e-01 -5.4300538649369720e+01 1.0000000000000000e+00 1.6410144619470454e+01 1.6930354517560954e+01 1.8651962642979704e+01 
75 1 2 5.0000006176501011e-01 -5.8947339654895792e+01 1.0000000000000000e+00 1.4178114061477732e+01 1.6774396615046680e+01 1.8667964355049889e+01 
82 1 2 5.0000006176558254e-01 -5.0208024682373377e+01 1.0000000000000000e+00 1.4178114308995916e+01 1.6774392740361133e+01 1.8667967940821317e+01 
76 1 2 5.0000006176538891e-01 -7.4134638252377130e+01 1.0000000000000000e+00 1.4178114226231196e+01 1.6774394035836369e+01 1.8667966741612421e+01 
34 1 2 4.9999993928653552e-01 -5.4753566768037523e+01 1.0000000000000000e+00 1.6410295143832332e+01 1.6930193283921426e+01 1.8651948940185790e+01 
16 1 2 5.0000021639226988e-01 -4.5627360308196145e+01 1.0000000000000000e+00 1.7844675815256938e+01 1.7734948523384087e+01 1.7371822109429903e+01 
52 1 2 5.0000021639227032e-01 -4.1006660720893215e+01 1.0000000000000000e+00 1.7844675815256902e+01 1.7734948523384066e+01 1.7371822109429957e+01 

Velocities

44 1.1759004707600582e-02 -3.2427101889809379e-01 1.9639190095307077e-01
51 1.1759016285186379e-02 -3.2427101547539933e-01 1.9639189235743407e-01
58 1.1759016269462888e-02 -3.2427101547979753e-01 1.9639189236880131e-01
171 1.1762054519186710e-02 -3.2425876163516970e-01 1.9634770308062799e-01
20 1.1762054519199615e-02 -3.2425876163517431e-01 1.9634770308066141e-01
99 1.1764516846947218e-02 -3.2425649557039249e-01 1.9634381280941307e-01
63 1.1764516846947208e-02 -3.2425649557039238e-01 1.9634381280941290e-01
10 1.1766319801523673e-02 -3.2425566234389552e-01 1.9635339853923259e-01
142 1.1766319725600053e-02 -3.2425566235340808e-01 1.9635339852804054e-01
128 1.1766320003047046e-02 -3.2425566264618666e-01 1.9635339944342323e-01
73 1.1750969958279742e-02 -3.2424742415941676e-01 1.9632833051765133e-01
79 1.1750969958279272e-02 -3.2424742415941726e-01 1.9632833051765100e-01
60 1.1769249679028477e-02 -3.2424869119308825e-01 1.9633741091702522e-01
29 1.1769249194995524e-02 -3.2424869181277360e-01 1.9633740961446533e-01
104 1.1759464128476295e-02 -3.2422249167635647e-01 1.9630321612182022e-01
139 1.1759464128390790e-02 -3.2422249167052575e-01 1.9630321612162485e-01
103 1.1759464128433390e-02 -3.2422249167289774e-01 1.9630321612169943e-01
31 1.1783723111712873e-02 -3.2417409116486817e-01 1.9624220680395721e-01
25 1.1783610366130699e-02 -3.2417272787315959e-01 1.9624196866045715e-01
67 1.1783599145088029e-02 -3.2417259039163249e-01 1.9624195009603340e-01
101 1.1788880720711919e-02 -3.2414286002455139e-01 1.9616990936507575e-01
64 1.1788880720708703e-02 -3.2414286002455112e-01 1.9616990936507600e-01
4 1.1830428168233032e-02 -3.2410173550574006e-01 1.9622250227494564e-01
39 1.1830428177232634e-02 -3.2410173551252730e-01 1.9622250227473534e-01
26 1.1607501761497137e-02 -3.2405482207488584e-01 1.9519130657887335e-01
114 1.1607501761496084e-02 -3.2405482207488295e-01 1.9519130657886669e-01
33 1.1607501761560061e-02 -3.2405482207515501e-01 1.9519130657952138e-01
74 1.1576196542200242e-02 -3.2406237627802414e-01 1.9530851918562619e-01
5 1.1576078832647134e-02 -3.2406276241642845e-01 1.9530810312451011e-01
11 1.1576078832649262e-02 -3.2406276241640652e-01 1.9530810312453553e-01
119 1.1634577375395234e-02 -3.2402617804656353e-01 1.9577396312009002e-01
47 1.1634633049338537e-02 -3.2402623307170592e-01 1.9577396389728896e-01
143 1.1605310361622708e-02 -3.2404972647034813e-01 1.9573527488670917e-01
107 1.1605310123514951e-02 -3.2404972668843579e-01 1.9573527540823882e-01
154 1.1689185061847424e-02 -3.2399899406136584e-01 1.9574813799715135e-01
153 1.1689183970528068e-02 -3.2399899415464112e-01 1.9574813592892640e-01
43 1.1578686713338287e-02 -3.2398075261940540e-01 1.9564913034868400e-01
7 1.1578686713338131e-02 -3.2398075261940507e-01 1.9564913034868400e-01
115 1.1578747037502094e-02 -3.2398074589526088e-01 1.9564918231693551e-01
55 1.1761672664980809e-02 -3.2426431374912501e-01 1.9639418967729988e-01
19 1.1761679689072277e-02 -3.2426431458798699e-01 1.9639418773100353e-01
38 1.1774868018310578e-02 -3.2425867761685967e-01 1.9632854202566485e-01