LAMMPS data file via write_data, version 30 Jul 2016, timestep = 50400000

180 atoms
2 atom types

0.0000000000000000e+00 2.0000000000000000e+01 xlo xhi
0.0000000000000000e+00 2.0000000000000000e+01 ylo yhi
0.0000000000000000e+00 2.0000000000000000e+01 zlo zhi

Masses

1 3.896
2 4.31

Atoms # meso-molecular

84 1 2 5.0000011615826889e-01 -6.1457643209280015e+01 1.0000000000000000e+00 2.2260066934548600e-01 2.4069874396746695e+00 4.7946426690413864e+00 
78 1 2 5.0000011615826900e-01 -6.2140603528693752e+01 1.0000000000000000e+00 2.2260066934509420e-01 2.4069874396490527e+00 4.7946426690768433e+00 
26 1 2 5.0000000609916118e-01 -5.1497435628793205e+01 1.0000000000000000e+00 1.8252646604710656e+00 8.7325506813792071e+00 4.3844090614587632e+00 
114 1 2 5.0000000609916129e-01 -9.5537282066178108e+01 1.0000000000000000e+00 1.8252646603871299e+00 8.7325506812811255e+00 4.3844090611432875e+00 
33 1 2 5.0000000609916395e-01 -7.2439059630550361e+01 1.0000000000000000e+00 1.8252646686880236e+00 8.7325506909748203e+00 4.3844090922660905e+00 
44 1 2 5.0000005123355251e-01 -7.4421593418120437e+01 1.0000000000000000e+00 5.2685355642936837e+00 8.6283970958686638e+00 9.8701748384964301e+00 
51 1 2 5.0000005108342238e-01 -3.6711977861188551e+01 1.0000000000000000e+00 5.2688848275361151e+00 8.6283127633453471e+00 9.8692900470588985e+00 
58 1 2 5.0000005108362511e-01 -6.4868462331631846e+01 1.0000000000000000e+00 5.2688843488339057e+00 8.6283128917628975e+00 9.8692912294732231e+00 
54 1 2 4.9999999999998179e-01 -7.6970284621119674e+01 1.0000000000000000e+00 8.7435628125883180e-02 8.1864299510089264e-02 1.7012753683291095e+01 
48 1 2 5.0000000000014044e-01 -5.1298485452825446e+01 1.0000000000000000e+00 8.7435624392975753e-02 8.1864300891914432e-02 1.7012753684008089e+01 
105 1 2 4.9999999999980038e-01 -8.2053340925087639e+01 1.0000000000000000e+00 2.7256883053344938e-01 1.3251703034926132e-02 1.8110796107613314e+01 
17 1 2 5.0000000000032196e-01 -1.0153798626231759e+02 1.0000000000000000e+00 2.7256883047340924e-01 1.3251703030512554e-02 1.8110796107618988e+01 
119 1 2 4.9999972139545029e-01 -6.6215893939468927e+01 1.0000000000000000e+00 4.0278771324436242e+00 1.2298865590912214e+01 1.6474497035192162e+00 
47 1 2 4.9999972140168591e-01 -5.6643845002279363e+01 1.0000000000000000e+00 4.0268291485558052e+00 1.2299710366613741e+01 1.6470006199422327e+00 
143 1 2 4.9999973381458435e-01 -9.5460809198290988e+01 1.0000000000000000e+00 5.1992761932611593e+00 1.3107214822907649e+01 3.2847549940647229e+00 
107 1 2 4.9999973381559804e-01 -9.9827759959088283e+01 1.0000000000000000e+00 5.1992824056216635e+00 1.3107217932033402e+01 3.2847513988188521e+00 
115 1 2 5.0000033255234499e-01 -8.1647642908117177e+01 1.0000000000000000e+00 2.5937368459642154e+00 1.3915763207241431e+01 3.2103421026915782e+00 
43 1 2 5.0000033306336711e-01 -4.4843892585519072e+01 1.0000000000000000e+00 2.5932821669207997e+00 1.3915447057243592e+01 3.2100075610481729e+00 
7 1 2 5.0000033306336700e-01 -4.9249026897366491e+01 1.0000000000000000e+00 2.5932821669209329e+00 1.3915447057244213e+01 3.2100075610464711e+00 
154 1 2 5.0000065738009003e-01 -3.6276771745241248e+01 1.0000000000000000e+00 5.4329010120799808e+00 1.3657021706398597e+01 1.4649281816283604e+00 
153 1 2 5.0000065738843391e-01 -3.7310071501838834e+01 1.0000000000000000e+00 5.4328918952588161e+00 1.3657018756578108e+01 1.4649170758929453e+00 
74 1 2 5.0000008375242910e-01 -1.0419325042722262e+02 1.0000000000000000e+00 1.4222295753643170e+00 1.1305906674824717e+01 4.4366633302650564e+00 
11 1 2 5.0000006344502967e-01 -6.5501459593668955e+01 1.0000000000000000e+00 1.4166692220178225e+00 1.1316837656693712e+01 4.4181594917058185e+00 
5 1 2 5.0000006344502912e-01 -7.4961312729365460e+01 1.0000000000000000e+00 1.4166692217442662e+00 1.1316837656982942e+01 4.4181594911500612e+00 
10 1 2 4.9999995667892483e-01 -7.7202642188938640e+01 1.0000000000000000e+00 6.0790993504152242e+00 1.0246994012790134e+01 1.2558466913017851e+01 
142 1 2 4.9999995667888414e-01 -4.9819687998163261e+01 1.0000000000000000e+00 6.0791056350603627e+00 1.0246995369839338e+01 1.2558467184285567e+01 
128 1 2 4.9999995669017022e-01 -4.9613099542178666e+01 1.0000000000000000e+00 6.0790893393625520e+00 1.0246977367849381e+01 1.2558453481752942e+01 
73 1 2 5.0000006785934203e-01 -4.3624885333941229e+01 1.0000000000000000e+00 4.8070513815173497e+00 1.2642415292505994e+01 1.2187509949984127e+01 
79 1 2 5.0000006785934192e-01 -4.7417974932582851e+01 1.0000000000000000e+00 4.8070513815172813e+00 1.2642415292505836e+01 1.2187509949984234e+01 
20 1 2 5.0000000121977850e-01 -8.3604498465153114e+01 1.0000000000000000e+00 5.1957129910309705e+00 1.1794180464880457e+01 1.0154580640368243e+01 
171 1 2 5.0000000121977894e-01 -9.0697270697187903e+01 1.0000000000000000e+00 5.1957129910439015e+00 1.1794180467695170e+01 1.0154580639449406e+01 
104 1 2 5.0000012577742858e-01 -4.2546176986361338e+01 1.0000000000000000e+00 5.1724433729594521e+00 1.3138758519688482e+01 1.4730524935339449e+01 
103 1 2 5.0000012577740538e-01 -5.0873431011675557e+01 1.0000000000000000e+00 5.1724433589995575e+00 1.3138758581316244e+01 1.4730525008904117e+01 
139 1 2 5.0000012577739072e-01 -5.8005465575379510e+01 1.0000000000000000e+00 5.1724433492938484e+00 1.3138758623790395e+01 1.4730525059531754e+01 
31 1 2 4.9999996768605420e-01 -6.9523716493921327e+01 1.0000000000000000e+00 6.4823657595955870e+00 1.5696813060639197e+01 1.4888378037172533e+01 
25 1 2 5.0000000908602493e-01 -8.5466771620028069e+01 1.0000000000000000e+00 6.4805743827373385e+00 1.5700024938199865e+01 1.4898243810996970e+01 
67 1 2 5.0000001318136644e-01 -9.8644026266164943e+01 1.0000000000000000e+00 6.4804323051071826e+00 1.5700334042575669e+01 1.4899242244750923e+01 
101 1 2 5.0000001294439411e-01 -8.4430623094865865e+01 1.0000000000000000e+00 6.0511806368351584e+00 1.4498131531169953e+01 1.7311749888765789e+01 
64 1 2 5.0000001294439411e-01 -7.0921771345921968e+01 1.0000000000000000e+00 6.0511806368351575e+00 1.4498131531169903e+01 1.7311749888765679e+01 
164 1 2 4.9999992709619889e-01 -8.1251488923473914e+01 1.0000000000000000e+00 9.0003147091771787e+00 7.4461479445850935e+00 1.1332381323083755e+01 
163 1 2 4.9999992709620100e-01 -8.5360845763529312e+01 1.0000000000000000e+00 9.0003146678587616e+00 7.4461478986999721e+00 1.1332381327601560e+01 
77 1 2 4.9999992709733465e-01 -7.1102440688184814e+01 1.0000000000000000e+00 9.0002939868759793e+00 7.4461240570110041e+00 1.1332383962428271e+01 
55 1 2 4.9999996268687180e-01 -7.0134951211613668e+01 1.0000000000000000e+00 7.5028149702979006e+00 9.3381679452628710e+00 1.0030424610882912e+01 
19 1 2 4.9999996281564613e-01 -1.1376856109996893e+02 1.0000000000000000e+00 7.5024473596632291e+00 9.3381673472149007e+00 1.0030033973419760e+01 
91 1 2 5.0000000010446710e-01 -6.6502652570249580e+01 1.0000000000000000e+00 9.2598456287012141e+00 6.6291073848677327e+00 1.3972892291768538e+01 
92 1 2 5.0000000010446766e-01 -6.0531353544231514e+01 1.0000000000000000e+00 9.2598456286979136e+00 6.6291073848668693e+00 1.3972892291768687e+01 
130 1 2 5.0000001506054725e-01 -7.1339577116597695e+01 1.0000000000000000e+00 8.9001393418008306e+00 7.9302692972984055e+00 1.4064193291561946e+01 
121 1 2 5.0000001506054859e-01 -9.4063838727149104e+01 1.0000000000000000e+00 8.9001393302714327e+00 7.9302692972188726e+00 1.4064193286765653e+01 
122 1 2 4.9999993495809741e-01 -4.0199111110221921e+01 1.0000000000000000e+00 8.8568143353800952e+00 1.0770926258595972e+01 9.0985844729307033e+00 
116 1 2 4.9999993495804834e-01 -2.0352496925250339e+01 1.0000000000000000e+00 8.8568133667030793e+00 1.0770926412631841e+01 9.0985842407243567e+00 
63 1 2 5.0000002058327719e-01 -9.5233876991883037e+01 1.0000000000000000e+00 6.9344525496024785e+00 1.2689882513986007e+01 9.7515051929201846e+00 
99 1 2 5.0000002058327708e-01 -6.4822750642971499e+01 1.0000000000000000e+00 6.9344525496018887e+00 1.2689882513985765e+01 9.7515051929198115e+00 
167 1 2 5.0000015174728696e-01 -5.5315107581155367e+01 1.0000000000000000e+00 9.7685581605368270e+00 1.1416850577527672e+01 1.0494651992693555e+01 
38 1 2 5.0000015174728729e-01 -8.7510893979402553e+01 1.0000000000000000e+00 9.7685581602662044e+00 1.1416850578361815e+01 1.0494651993060883e+01 
60 1 2 4.9999999128400069e-01 -5.3470732978014020e+01 1.0000000000000000e+00 7.0477544076520147e+00 1.2853640699444899e+01 1.1782089261415116e+01 
29 1 2 4.9999999126711703e-01 -6.9329186114867170e+01 1.0000000000000000e+00 7.0476887011622642e+00 1.2853767533362829e+01 1.1782056014963755e+01 
94 1 2 5.0000016735125352e-01 -6.9286227291048505e+01 1.0000000000000000e+00 1.0798283428975269e+01 1.1828245159452157e+01 1.2811636796950905e+01 
42 1 2 4.9999999510188270e-01 -9.1047934291990515e+01 1.0000000000000000e+00 1.0930542493405593e+01 1.2260610725835400e+01 1.1681458740604745e+01 
9 1 2 4.9999998898384568e-01 -6.2839413439541744e+01 1.0000000000000000e+00 1.1350562909452844e+01 1.2661705614774004e+01 1.2790062997741261e+01 
136 1 2 4.9999992438039642e-01 -9.3456142741146493e+01 1.0000000000000000e+00 9.1013145192914369e+00 1.5341839833834571e+01 1.2514359135730180e+01 
57 1 2 4.9999997835165105e-01 -4.4708541527742611e+01 1.0000000000000000e+00 7.8133138150543635e+00 1.6309218506127060e+01 1.1673108544949208e+01 
177 1 2 4.9999997835496701e-01 -7.5791691992197727e+01 1.0000000000000000e+00 7.8133306166349730e+00 1.6309233140331909e+01 1.1673099237347335e+01 
134 1 2 5.0000000079842577e-01 -9.7580084012746084e+01 1.0000000000000000e+00 1.0185761997424450e+01 1.4407182601258695e+01 1.2702356523660102e+01 
133 1 2 5.0000000079831886e-01 -1.0293146741635195e+02 1.0000000000000000e+00 1.0185763441407559e+01 1.4407182196325723e+01 1.2702357534592194e+01 
27 1 2 5.0000001519978388e-01 -8.2788224491429801e+01 1.0000000000000000e+00 7.5877869714979989e+00 1.7012415870837575e+01 1.2229587895959412e+01 
72 1 2 5.0000040650266409e-01 -4.5204672058861263e+01 1.0000000000000000e+00 9.6154855750080088e+00 1.2767950876710774e+01 1.6217908979784891e+01 
36 1 2 5.0000040650254629e-01 -6.8559075829359557e+01 1.0000000000000000e+00 9.6154856966035194e+00 1.2767950675090026e+01 1.6217908712926405e+01 
108 1 2 4.9999988288870045e-01 -6.8734337049751531e+01 1.0000000000000000e+00 8.7656593362843935e+00 1.3056668547573606e+01 1.4338784647943058e+01 
127 1 2 4.9999988288870112e-01 -3.7855301136030761e+01 1.0000000000000000e+00 8.7656593362922415e+00 1.3056668547628433e+01 1.4338784647824216e+01 
147 1 2 5.0000010454832733e-01 -9.5250150936017491e+01 1.0000000000000000e+00 1.0360323859342531e+01 1.2268465705313481e+01 1.4433720608166773e+01 
98 1 2 5.0000015012580190e-01 -8.1522992302552154e+01 1.0000000000000000e+00 8.3804087247598353e+00 1.7246074973063777e+01 1.3712625781678094e+01 
151 1 2 5.0000011378939180e-01 -9.3691589961783990e+01 1.0000000000000000e+00 8.6842998295165650e+00 1.8616478123723450e+01 1.3925208868911811e+01 
23 1 2 4.9999995186887342e-01 -4.8356699530752756e+01 1.0000000000000000e+00 8.6236806846339746e+00 1.8190677321476738e+01 1.5305516119576863e+01 
35 1 2 4.9999994954639920e-01 -5.6903227381943900e+01 1.0000000000000000e+00 9.7245102740948592e+00 1.8299306971107217e+01 1.5742991150698407e+01 
152 1 2 4.9999999268851869e-01 -9.2039729281931727e+01 1.0000000000000000e+00 9.0211739826136093e+00 1.9577501840245276e+01 1.5007166191127926e+01 
83 1 2 5.0000000082306684e-01 -7.3954016722491048e+01 1.0000000000000000e+00 1.0980437496764338e+01 1.8669842261805805e+01 1.4350134104749271e+01 
68 1 2 5.0000001176454967e-01 -3.3448956252558894e+01 1.0000000000000000e+00 1.1103311612953370e+01 1.9598012077068457e+01 1.4844157904700563e+01 
69 1 2 5.0000001176454967e-01 -5.8289354162820239e+01 1.0000000000000000e+00 1.1103311612953410e+01 1.9598012077068443e+01 1.4844157904699909e+01 
80 1 2 5.0000004613485494e-01 -5.8716298719296660e+01 1.0000000000000000e+00 1.2762123887937628e+01 1.1921602265221267e+01 1.8677412996090617e+01 
141 1 2 5.0000004613427929e-01 -5.7059596316123304e+01 1.0000000000000000e+00 1.2762108018876971e+01 1.1921612921420390e+01 1.8677417929779963e+01 
86 1 2 5.0000004613485405e-01 -3.7255672130334673e+01 1.0000000000000000e+00 1.2762123863733018e+01 1.1921602281479595e+01 1.8677413003625333e+01 
120 1 2 4.9999974579425144e-01 -6.1262352523032128e+01 1.0000000000000000e+00 8.3979066699850566e+00 1.3782872815018010e+01 1.7582528284596968e+01 
40 1 2 4.9999974579424350e-01 -8.7301691681793514e+01 1.0000000000000000e+00 8.3979066675463212e+00 1.3782872819832875e+01 1.7582528294812885e+01 
39 1 2 5.0000058733846731e-01 -7.6535929085691151e+01 1.0000000000000000e+00 6.9295299968583057e+00 1.4450312545073416e+01 1.8872728246917525e+01 
4 1 2 5.0000058733849850e-01 -9.9312254084389366e+01 1.0000000000000000e+00 6.9295299381845252e+00 1.4450312580410046e+01 1.8872728236163994e+01 
117 1 2 4.9999996353418208e-01 -6.7777880932459610e+01 1.0000000000000000e+00 1.2946760789690419e+01 1.3572659403097116e+01 1.6966514164508489e+01 
146 1 2 5.0000007378287059e-01 -7.8998814650108386e+01 1.0000000000000000e+00 1.2889682783538897e+01 1.3592957776280498e+01 1.7047921968505907e+01 
37 1 2 5.0000001401710026e-01 -8.9718337801538610e+01 1.0000000000000000e+00 1.5206597811526033e+01 2.9142543494729067e-01 2.3042479008413528e+00 
124 1 2 5.0000001401690797e-01 -5.8287291099409131e+01 1.0000000000000000e+00 1.5206596987525144e+01 2.9142546552230680e-01 2.3042477486740371e+00 
97 1 2 4.9999995620572341e-01 -8.3863690384484173e+01 1.0000000000000000e+00 1.3661328707872849e+01 1.6719717394729350e+00 1.5465315416318024e+00 
61 1 2 4.9999995620572368e-01 -9.3795986627971317e+01 1.0000000000000000e+00 1.3661328707872833e+01 1.6719717394730091e+00 1.5465315416317731e+00 
155 1 2 5.0000004328514547e-01 -6.4772818867391720e+01 1.0000000000000000e+00 1.4103902975309992e+01 3.1346885165175293e+00 2.3019451356681375e+00 
148 1 2 5.0000004328514625e-01 -5.6625382838887425e+01 1.0000000000000000e+00 1.4103902974348022e+01 3.1346885194899756e+00 2.3019451328341205e+00 
112 1 2 5.0000012930031690e-01 -3.2255882396777501e+01 1.0000000000000000e+00 1.9472331784489164e+01 6.5624195519649242e-01 2.9258921115740142e+00 
118 1 2 5.0000012930031690e-01 -5.0416814278461260e+01 1.0000000000000000e+00 1.9472331784489146e+01 6.5624195519648487e-01 2.9258921115739520e+00 
172 1 2 4.9999993704930579e-01 -4.0084397521826396e+01 1.0000000000000000e+00 1.5448030150966215e+01 4.0177223324839675e+00 7.9959828825278301e-01 
173 1 2 4.9999993695608863e-01 -6.8166917679625371e+01 1.0000000000000000e+00 1.5448098690358036e+01 4.0170807004374751e+00 7.9917979162518737e-01 
170 1 2 5.0000010294298525e-01 -8.1467654502014923e+01 1.0000000000000000e+00 1.6057924705224657e+01 6.2107063794387871e+00 2.0809352753585806e+00 
165 1 2 5.0000010294298591e-01 -6.1251915091462934e+01 1.0000000000000000e+00 1.6057924705437234e+01 6.2107063796930753e+00 2.0809352752546095e+00 
123 1 2 4.9999986314172390e-01 -1.0254337783921092e+02 1.0000000000000000e+00 1.7586829794189597e+01 5.7466823191353074e+00 2.3390487316998905e+00 
96 1 2 4.9999986314172407e-01 -4.7005359567310428e+01 1.0000000000000000e+00 1.7586829794133529e+01 5.7466823188027183e+00 2.3390487318642594e+00 
162 1 2 4.9999995715705825e-01 -3.3838254525202132e+01 1.0000000000000000e+00 1.5682563218158547e+01 6.6127651533189968e-01 4.0073314719964088e+00 
168 1 2 4.9999995715705819e-01 -3.3810607777063517e+01 1.0000000000000000e+00 1.5682563218161235e+01 6.6127651532673049e-01 4.0073314720025426e+00 
75 1 2 5.0000005858534935e-01 -5.8947339654895792e+01 1.0000000000000000e+00 1.4642289995254774e+01 3.8137038223994715e+00 6.4654052221180356e+00 
82 1 2 5.0000005858588426e-01 -5.0208024682373377e+01 1.0000000000000000e+00 1.4642290241935331e+01 3.8136999449905260e+00 6.4654088103873697e+00 
76 1 2 5.0000005858570407e-01 -7.4134638252377130e+01 1.0000000000000000e+00 1.4642290159450736e+01 3.8137012413763101e+00 6.4654076103430818e+00 
125 1 2 4.9999981279278810e-01 -5.9923460309014224e+01 1.0000000000000000e+00 1.8961562718164071e+01 3.3401005312618088e+00 3.7518264209068062e+00 
159 1 2 4.9999981288084488e-01 -1.2697360712890058e+01 1.0000000000000000e+00 1.8961973321823681e+01 3.3395023014102980e+00 3.7516424124379144e+00 
28 1 2 4.9999994136740972e-01 -5.4300538643685378e+01 1.0000000000000000e+00 1.6874332981133641e+01 3.9695487257960034e+00 6.4499023271115314e+00 
34 1 2 4.9999994146674731e-01 -5.4753566762353181e+01 1.0000000000000000e+00 1.6874483537201172e+01 3.9693875897261215e+00 6.4498886825366215e+00 
16 1 2 5.0000020320446570e-01 -4.5627360279774436e+01 1.0000000000000000e+00 1.8309334023728915e+01 4.7745314189317298e+00 5.1701239665528211e+00 
52 1 2 5.0000020320446581e-01 -4.1006660692471506e+01 1.0000000000000000e+00 1.8309334023728869e+01 4.7745314189317130e+00 5.1701239665528806e+00 
13 1 2 4.9999996339183433e-01 -7.0433673651908464e+01 1.0000000000000000e+00 1.6353351978428481e+01 7.0847853144979540e+00 4.6398623554042091e+00 
157 1 2 4.9999996339183428e-01 -4.1291226282895529e+01 1.0000000000000000e+00 1.6353351978428623e+01 7.0847853144980499e+00 4.6398623554042846e+00 
24 1 2 4.9999996339183406e-01 -7.1530836010079284e+01 1.0000000000000000e+00 1.6353351978428897e+01 7.0847853144977044e+00 4.6398623554047429e+00 
135 1 2 5.0000008211497582e-01 -8.8985614720803696e+01 1.0000000000000000e+00 1.9209616236307184e+01 7.3916020153953230e+00 3.9736649381350113e+00 
65 1 2 5.0000008224849435e-01 -3.8775118676774674e+01 1.0000000000000000e+00 1.9209608110523600e+01 7.3916225428262941e+00 3.9737349754889815e+00 
71 1 2 5.0000008224833881e-01 -4.2340649000848288e+01 1.0000000000000000e+00 1.9209608119758904e+01 7.3916225192358027e+00 3.9737348941123352e+00 
14 1 2 4.9999995961142690e-01 -9.3288386761810159e+01 1.0000000000000000e+00 1.9171084852921481e+01 9.2976206221686086e-01 6.8159282224507471e+00 
161 1 2 4.9999995961142657e-01 -6.5391378772464691e+01 1.0000000000000000e+00 1.9171084851286302e+01 9.2976206254998250e-01 6.8159282192762971e+00 
160 1 2 4.9999999113915189e-01 -2.1150525092314872e+01 1.0000000000000000e+00 1.9563157502833963e+01 2.7163262343327723e+00 7.1488446465491116e+00 
53 1 2 4.9999999113914656e-01 -1.0719995925033362e+02 1.0000000000000000e+00 1.9563157581671646e+01 2.7163260723862632e+00 7.1488447783960485e+00 
176 1 2 5.0000007574379524e-01 -3.2350028350056924e+01 1.0000000000000000e+00 1.7435572637947867e+01 1.7308299649357684e+00 8.4140228353076125e+00 
140 1 2 5.0000007574379979e-01 -3.0251753800284849e+01 1.0000000000000000e+00 1.7435572627949885e+01 1.7308299625871635e+00 8.4140228287851286e+00 
87 1 2 5.0000001081764833e-01 -8.0334475534709796e+01 1.0000000000000000e+00 1.7201757901517528e+01 1.4856230946127098e+00 7.5894588033603965e+00 
131 1 2 5.0000009860547379e-01 -5.0609962292064210e+01 1.0000000000000000e+00 1.6383476460002505e+01 1.6992025000279087e+00 1.1354402256824692e+01 
18 1 2 5.0000009860547356e-01 -8.4299652495608640e+01 1.0000000000000000e+00 1.6383476460020180e+01 1.6992025000367519e+00 1.1354402256830255e+01 
126 1 2 4.9999990133776351e-01 -3.3294773046497184e+01 1.0000000000000000e+00 1.5972827372949453e+01 2.7291631113089285e+00 1.0986705188789111e+01 
90 1 2 4.9999990133776367e-01 -3.6830208153509687e+01 1.0000000000000000e+00 1.5972827372949181e+01 2.7291631113087913e+00 1.0986705188789060e+01 
180 1 2 4.9999998597820539e-01 -3.6399673433409177e+01 1.0000000000000000e+00 1.6143716846442082e+01 5.2068540925426161e+00 1.7432232178210388e+01 
174 1 2 4.9999998597820344e-01 -3.5163041708064867e+01 1.0000000000000000e+00 1.6143716856123941e+01 5.2068540787234374e+00 1.7432232189128690e+01 
22 1 2 4.9999999426090391e-01 -7.5689079353196959e+01 1.0000000000000000e+00 1.5154155794620747e+01 3.7137915354100532e+00 1.8842893261170552e+01 
21 1 2 4.9999999426027930e-01 -6.2917146587920030e+01 1.0000000000000000e+00 1.5154139671558880e+01 3.7137904304589116e+00 1.8842928456877228e+01 
178 1 2 5.0000000964426283e-01 -5.9816225991344631e+01 1.0000000000000000e+00 1.4918136880544546e+01 5.8916155370381880e+00 1.8122836109956982e+01 
179 1 2 5.0000000964425950e-01 -4.5595171520279017e+01 1.0000000000000000e+00 1.4918136366794817e+01 5.8916151782213237e+00 1.8122835910264161e+01 
12 1 2 5.0000003191728704e-01 -5.9616699532722976e+01 1.0000000000000000e+00 1.4685728734070153e+01 1.2409497092868586e+01 1.2192306391630809e+00 
6 1 2 5.0000003191728737e-01 -1.0747221799752799e+02 1.0000000000000000e+00 1.4685728729744064e+01 1.2409497105010663e+01 1.2192306388425418e+00 
8 1 2 4.9999996057009366e-01 -3.0044997244900532e+01 1.0000000000000000e+00 1.5052451024764764e+01 1.3082816461592707e+01 1.2248270345217303e+00 
88 1 2 5.0000007958668591e-01 -4.6747131033528611e+01 1.0000000000000000e+00 1.9277574787026627e+01 1.1546657949347576e+01 1.7423186505390222e+00 
70 1 2 4.9999983239232904e-01 -7.2048749099383613e+01 1.0000000000000000e+00 1.9686106804064774e+01 1.2038515845097450e+01 1.9012902127124773e+00 
106 1 2 4.9999983242901092e-01 -8.2349528439418791e+01 1.0000000000000000e+00 1.9686098059953988e+01 1.2038519319730881e+01 1.9012663889158845e+00 
138 1 2 5.0000009726781247e-01 -9.6890991343428794e+01 1.0000000000000000e+00 1.7189427416964651e+01 1.2049447804147571e+01 1.8350822464985312e+00 
102 1 2 5.0000009726867201e-01 -8.1067319741210255e+01 1.0000000000000000e+00 1.7189433234135141e+01 1.2049444254112911e+01 1.8350870694716839e+00 
50 1 2 5.0000004552966792e-01 -2.2546113775470054e+01 1.0000000000000000e+00 1.7981534765802515e+01 1.3680685568151416e+01 3.0436376870732849e+00 
132 1 2 5.0000004552966804e-01 -6.5529696200816943e+01 1.0000000000000000e+00 1.7981534765802525e+01 1.3680685568151430e+01 3.0436376870732853e+00 
156 1 2 5.0000000207051543e-01 -8.7601954133991384e+01 1.0000000000000000e+00 1.8104909078273923e+01 1.5641762614557095e+01 3.0812818159079955e+00 
150 1 2 5.0000000207051543e-01 -6.4843154987948211e+01 1.0000000000000000e+00 1.8104909078273941e+01 1.5641762614557088e+01 3.0812818159079645e+00 
175 1 2 4.9999979071326334e-01 -7.0541650383291056e+01 1.0000000000000000e+00 1.7671294989369240e+01 1.5574401733234943e+01 2.4627264705871885e-01 
145 1 2 4.9999979071326339e-01 -6.8006432726132189e+01 1.0000000000000000e+00 1.7671294989369255e+01 1.5574401733234950e+01 2.4627264705872001e-01 
109 1 2 4.9999979071326339e-01 -6.6384542279035216e+01 1.0000000000000000e+00 1.7671294989369255e+01 1.5574401733234950e+01 2.4627264705872001e-01 
144 1 2 5.0000029476905872e-01 -6.8176848265776187e+01 1.0000000000000000e+00 1.6877764934323704e+01 1.8123084158002978e+01 4.6579426401107576e-01 
30 1 2 5.0000029476901664e-01 -7.4669511111917231e+01 1.0000000000000000e+00 1.6877764916660588e+01 1.8123084146695149e+01 4.6579423369293438e-01 
66 1 2 5.0000029476889629e-01 -8.2483332114233605e+01 1.0000000000000000e+00 1.6877764822255994e+01 1.8123084086247761e+01 4.6579407157975428e-01 
49 1 2 4.9999999158372777e-01 -5.9145392261830644e+01 1.0000000000000000e+00 1.8578671450522151e+01 1.9590284042707580e+01 2.5237652431455446e+00 
85 1 2 4.9999999158372777e-01 -9.4280059728470690e+01 1.0000000000000000e+00 1.8578671450522243e+01 1.9590284042707871e+01 2.5237652431453705e+00 
15 1 2 4.9999998142176022e-01 -4.2023241325646971e+01 1.0000000000000000e+00 1.6563997011475319e+01 1.8926870757098328e+01 4.6056399868465645e+00 
158 1 2 4.9999998142248236e-01 -7.1555176190647316e+01 1.0000000000000000e+00 1.6564001623363364e+01 1.8926864594743176e+01 4.6056390094976480e+00 
2 1 2 4.9999997718429473e-01 -2.8870763076212690e+01 1.0000000000000000e+00 1.7235644602221772e+01 1.7355120242086556e+01 3.7008842911061772e+00 
3 1 2 4.9999997713404387e-01 -3.5579996637251774e+01 1.0000000000000000e+00 1.7235719820104205e+01 1.7355054038899041e+01 3.7008385959835097e+00 
111 1 2 4.9999988361852260e-01 -7.3688932220097968e+01 1.0000000000000000e+00 1.4031338297400154e+01 1.7239953814748194e+01 1.3135658246319197e+01 
110 1 2 4.9999988349133734e-01 -4.9639633371469337e+01 1.0000000000000000e+00 1.4032670016680692e+01 1.7240347165690999e+01 1.3134987638000426e+01 
93 1 2 5.0000005698946515e-01 9.5888176214021250e+00 1.0000000000000000e+00 1.3859435131326864e+01 1.5049194702630817e+01 1.5071710634221848e+01 
129 1 2 5.0000005698946548e-01 2.1555300709949061e+00 1.0000000000000000e+00 1.3859435131511564e+01 1.5049194702662140e+01 1.5071710634269436e+01 
166 1 2 5.0000005825134275e-01 -3.4204089056213689e+01 1.0000000000000000e+00 1.3860493769134509e+01 1.5049371713834418e+01 1.5071985973684729e+01 
41 1 2 4.9999981514313807e-01 -6.3413233594718058e+01 1.0000000000000000e+00 1.7519054761635104e+01 1.5627884497847329e+01 1.6087694477109089e+01 
46 1 2 4.9999981514313807e-01 -6.9446759856512472e+01 1.0000000000000000e+00 1.7519054761635839e+01 1.5627884497847074e+01 1.6087694477110290e+01 
62 1 2 4.9999981491809425e-01 -8.5200221742075200e+01 1.0000000000000000e+00 1.7515037792798740e+01 1.5628193881002888e+01 1.6081947021283277e+01 
89 1 2 5.0000013508098706e-01 -5.2349755375578482e+01 1.0000000000000000e+00 1.5093840395291288e+01 1.8424331182645133e+01 1.4016835694320756e+01 
95 1 2 5.0000013508098617e-01 -5.4077052943293701e+01 1.0000000000000000e+00 1.5093840395004515e+01 1.8424331183101959e+01 1.4016835691710449e+01 
56 1 2 5.0000003678854921e-01 -3.8602593365834231e+01 1.0000000000000000e+00 1.3849727902371075e+01 1.7956699245568043e+01 1.4515639687957938e+01 
45 1 2 4.9999997772249005e-01 -7.9625064270579472e+01 1.0000000000000000e+00 1.5859448912968306e+01 1.2706716128168855e+01 1.9117775913782818e+01 
169 1 2 4.9999997772244226e-01 -8.1713169110986072e+01 1.0000000000000000e+00 1.5859448814673872e+01 1.2706716033074620e+01 1.9117775906955256e+01 
32 1 2 5.0000009513035415e-01 -8.0960024452018374e+01 1.0000000000000000e+00 1.5950936284188774e+01 1.3622037363803699e+01 1.7520673131117281e+01 
81 1 2 5.0000009513035437e-01 -8.0363962569605931e+01 1.0000000000000000e+00 1.5950936284189124e+01 1.3622037363803384e+01 1.7520673131117768e+01 
1 1 2 5.0000003106119451e-01 -7.4875646513345174e+01 1.0000000000000000e+00 1.3706806580663168e+01 1.4745421864940807e+01 1.7790681027566862e+01 
59 1 2 4.9999991440001018e-01 -7.9947653155479202e+01 1.0000000000000000e+00 1.5070592925455575e+01 1.5691796370605367e+01 1.8342188521022752e+01 
137 1 2 4.9999991439406616e-01 -6.7886132685665615e+01 1.0000000000000000e+00 1.5070647934084661e+01 1.5691847608764080e+01 1.8342203190229306e+01 
149 1 2 5.0000018940268531e-01 -5.8924743251496366e+01 1.0000000000000000e+00 1.5928392536311963e+01 1.7478176859835767e+01 1.6752840829635812e+01 
113 1 2 5.0000018938709712e-01 -4.4348966570330312e+01 1.0000000000000000e+00 1.5928396950077854e+01 1.7478181928743304e+01 1.6752856164170304e+01 
100 1 2 5.0000032863271182e-01 -8.7466181249843018e+01 1.0000000000000000e+00 1.6242371913087865e+01 1.7322276413522257e+01 1.7861314245474929e+01 

Velocities

84 1.1637014137468394e-02 -3.2400251058874285e-01 1.9496519727349523e-01
78 1.1637014137468621e-02 -3.2400251058874346e-01 1.9496519727349598e-01
26 1.1606509133779294e-02 -3.2405997067508813e-01 1.9522401577323314e-01
114 1.1606509133780739e-02 -3.2405997067508746e-01 1.9522401577322743e-01
33 1.1606509133842124e-02 -3.2405997067534897e-01 1.9522401577381834e-01
44 1.1758851606831695e-02 -3.2425510373031941e-01 1.9631560443187193e-01
51 1.1758862396824934e-02 -3.2425510052308504e-01 1.9631559646183003e-01
58 1.1758862382181195e-02 -3.2425510052720136e-01 1.9631559647237018e-01
54 1.1554510820030936e-02 -3.2060121045672507e-01 1.9593093772902262e-01
48 1.1554510820307238e-02 -3.2060121045683460e-01 1.9593093773066531e-01
105 1.1554510823030785e-02 -3.2060121045782070e-01 1.9593093774682652e-01
17 1.1554510821222162e-02 -3.2060121045715623e-01 1.9593093773608922e-01
119 1.1635791073153616e-02 -3.2403458948192349e-01 1.9576908483909031e-01
47 1.1635840392109919e-02 -3.2403463847167396e-01 1.9576908457336464e-01
143 1.1609504263867677e-02 -3.2405551665586285e-01 1.9573451575728953e-01
107 1.1609504052964376e-02 -3.2405551685351736e-01 1.9573451623363494e-01
115 1.1584204627036011e-02 -3.2399226844890799e-01 1.9565369358020443e-01
43 1.1584148922584246e-02 -3.2399227369034478e-01 1.9565364575816604e-01
7 1.1584148922581181e-02 -3.2399227369034200e-01 1.9565364575816732e-01
154 1.1685234317205230e-02 -3.2401043979483940e-01 1.9574768795725181e-01
153 1.1685233322943354e-02 -3.2401043989123574e-01 1.9574768610605256e-01
74 1.1579595668864531e-02 -3.2406709645400339e-01 1.9533412976303841e-01
11 1.1579512803680563e-02 -3.2406747844395456e-01 1.9533370539927516e-01
5 1.1579512803679417e-02 -3.2406747844397565e-01 1.9533370539924996e-01
10 1.1765469866378910e-02 -3.2424090626054292e-01 1.9627995719073657e-01
142 1.1765469796134222e-02 -3.2424090626867752e-01 1.9627995717925520e-01
128 1.1765470053471873e-02 -3.2424090654011256e-01 1.9627995802917975e-01
73 1.1751428540511104e-02 -3.2423333571826718e-01 1.9625655592896757e-01
79 1.1751428540512672e-02 -3.2423333571826723e-01 1.9625655592896746e-01
20 1.1761547451886909e-02 -3.2424368767363709e-01 1.9627453004776318e-01
171 1.1761547451880891e-02 -3.2424368767363204e-01 1.9627453004773660e-01
104 1.1759032114504122e-02 -3.2420986382892159e-01 1.9623361037082482e-01
103 1.1759032114471277e-02 -3.2420986382568368e-01 1.9623361037071962e-01
139 1.1759032114462898e-02 -3.2420986382342981e-01 1.9623361037063144e-01
31 1.1781170875684057e-02 -3.2416640854072248e-01 1.9617787998690181e-01
25 1.1781074099797688e-02 -3.2416520329972048e-01 1.9617764196096532e-01
67 1.1781064371800371e-02 -3.2416508164361035e-01 1.9617762278633372e-01
101 1.1785012703813552e-02 -3.2413722173431020e-01 1.9611433636211723e-01
64 1.1785012703816202e-02 -3.2413722173431048e-01 1.9611433636211698e-01
164 1.1731641457288479e-02 -3.2423011976887239e-01 1.9638509876618929e-01
163 1.1731641458249623e-02 -3.2423011976789728e-01 1.9638509876613286e-01
77 1.1731641939959741e-02 -3.2423011926274709e-01 1.9638509873607893e-01