LAMMPS data file via write_data, version 30 Jul 2016, timestep = 50400000

2080 atoms
8 atom types

0.0000000000000000e+00 4.0000000000000000e+01 xlo xhi
0.0000000000000000e+00 4.0000000000000000e+01 ylo yhi
0.0000000000000000e+00 1.0000000000000000e+02 zlo zhi

Masses

1 3.896
2 5.36
3 20.064
4 8.378
5 8.378
6 8.378
7 8.378
8 8.378

Atoms # meso-molecular

1 2 4 1.0279191564127410e+00 1.0468913894232161e+02 1.0000000000000000e+00 0.0000000000000000e+00 0.0000000000000000e+00 2.5000000000000000e+00 
2 2 4 1.0292738678275206e+00 1.8398330771224306e+02 1.0000000000000000e+00 0.0000000000000000e+00 2.0000000000000000e+00 2.5000000000000000e+00 
21 2 4 1.0280874788347081e+00 -1.5095329332498119e+02 1.0000000000000000e+00 2.0000000000000000e+00 0.0000000000000000e+00 2.5000000000000000e+00 
22 2 4 1.0269007013785760e+00 -1.5385688559431850e+02 1.0000000000000000e+00 2.0000000000000000e+00 2.0000000000000000e+00 2.5000000000000000e+00 
41 2 4 1.0279210176621898e+00 -9.2078128464063141e+01 1.0000000000000000e+00 4.0000000000000000e+00 0.0000000000000000e+00 2.5000000000000000e+00 
42 2 4 1.0336350135223689e+00 -6.0901377888124739e+02 1.0000000000000000e+00 4.0000000000000000e+00 2.0000000000000000e+00 2.5000000000000000e+00 
61 2 4 1.0279320858174124e+00 -1.3474768727243278e+02 1.0000000000000000e+00 6.0000000000000000e+00 0.0000000000000000e+00 2.5000000000000000e+00 
62 2 4 1.0338251270408112e+00 -6.5654319148052252e+02 1.0000000000000000e+00 6.0000000000000000e+00 2.0000000000000000e+00 2.5000000000000000e+00 
81 2 4 1.0281165948052553e+00 -6.3826644755768797e+01 1.0000000000000000e+00 8.0000000000000000e+00 0.0000000000000000e+00 2.5000000000000000e+00 
82 2 4 1.0273325328295377e+00 -2.6516257429728267e+02 1.0000000000000000e+00 8.0000000000000000e+00 2.0000000000000000e+00 2.5000000000000000e+00 
101 2 4 1.0279606666089993e+00 -1.3449721381001132e+02 1.0000000000000000e+00 1.0000000000000000e+01 0.0000000000000000e+00 2.5000000000000000e+00 
102 2 4 1.0285597340015944e+00 -1.9087231420340629e+02 1.0000000000000000e+00 1.0000000000000000e+01 2.0000000000000000e+00 2.5000000000000000e+00 
121 2 4 1.0280109736594729e+00 -6.9250069482605980e+01 1.0000000000000000e+00 1.2000000000000000e+01 0.0000000000000000e+00 2.5000000000000000e+00 
122 2 4 1.0279842116809901e+00 -3.7182678529372495e+01 1.0000000000000000e+00 1.2000000000000000e+01 2.0000000000000000e+00 2.5000000000000000e+00 
141 2 4 1.0279966634650637e+00 4.6879663635353199e+02 1.0000000000000000e+00 1.4000000000000000e+01 0.0000000000000000e+00 2.5000000000000000e+00 
142 2 4 1.0280051808267046e+00 -2.5180229230524841e+01 1.0000000000000000e+00 1.4000000000000000e+01 2.0000000000000000e+00 2.5000000000000000e+00 
1235 837 2 1.0279986577168929e+00 -4.3379507320192515e+03 1.0000000000000000e+00 1.3173683866093301e+01 2.1184945050443300e+00 3.4761585296027780e-01 
161 2 4 1.0280022525435561e+00 8.5458626483942464e+02 1.0000000000000000e+00 1.6000000000000000e+01 0.0000000000000000e+00 2.5000000000000000e+00 
162 2 4 1.0279972904070227e+00 -2.9895169762941268e+01 1.0000000000000000e+00 1.6000000000000000e+01 2.0000000000000000e+00 2.5000000000000000e+00 
906 508 2 1.0279993463592250e+00 1.7408920965888735e+03 1.0000000000000000e+00 1.6255272166300376e+01 1.3519582394143903e+00 6.8448484185271052e-01 
181 2 4 1.0279980385368002e+00 5.7363650677155533e+02 1.0000000000000000e+00 1.8000000000000000e+01 0.0000000000000000e+00 2.5000000000000000e+00 
182 2 4 1.0280023768554245e+00 -4.4658631362479042e+01 1.0000000000000000e+00 1.8000000000000000e+01 2.0000000000000000e+00 2.5000000000000000e+00 
1591 1193 2 1.0280000165975192e+00 -2.9722169359739951e+03 1.0000000000000000e+00 1.9172433125230128e+01 1.0225913712389099e+00 1.8398865125168992e-01 
1164 766 2 1.0279999566707556e+00 -2.2469089019866119e+03 1.0000000000000000e+00 1.9354037205160374e+01 1.0017919414325234e+00 3.6915903529786132e-01 
585 187 2 1.0279999565885318e+00 -1.3000285802988153e+03 1.0000000000000000e+00 1.9354231123117255e+01 1.0017575690826721e+00 3.6939588387216410e-01 
750 352 2 1.0279999565769147e+00 -2.9990546574815485e+03 1.0000000000000000e+00 1.9354258512317138e+01 1.0017527145857656e+00 3.6942934487040335e-01 
3 2 4 1.0269265197178605e+00 -1.8521218777057342e+01 1.0000000000000000e+00 0.0000000000000000e+00 4.0000000000000000e+00 2.5000000000000000e+00 
23 2 4 1.0279210414676503e+00 -2.4001340813943952e+02 1.0000000000000000e+00 2.0000000000000000e+00 4.0000000000000000e+00 2.5000000000000000e+00 
454 56 2 8.8626604961141320e-01 -6.6462051867135983e+02 1.0000000000000000e+00 5.0181732273822481e+00 2.9462301740932335e+00 2.4999999798797932e+00 
43 2 4 1.0295264445419774e+00 -6.0083049168995240e+02 1.0000000000000000e+00 4.0000000000000000e+00 4.0000000000000000e+00 2.5000000000000000e+00 
63 2 4 1.0307255095529935e+00 -6.7173835592736327e+02 1.0000000000000000e+00 6.0000000000000000e+00 4.0000000000000000e+00 2.5000000000000000e+00 
83 2 4 1.0279506670711585e+00 -2.9360548626718150e+02 1.0000000000000000e+00 8.0000000000000000e+00 4.0000000000000000e+00 2.5000000000000000e+00 
103 2 4 1.0276579882398471e+00 -1.8214389142079841e+02 1.0000000000000000e+00 1.0000000000000000e+01 4.0000000000000000e+00 2.5000000000000000e+00 
514 116 2 1.0281251345178952e+00 -1.0769340915518169e+03 1.0000000000000000e+00 9.5561166500284607e+00 3.0121149990405951e+00 1.2215413836305071e+00 
123 2 4 1.0279919771320993e+00 -1.0480284209830211e+01 1.0000000000000000e+00 1.2000000000000000e+01 4.0000000000000000e+00 2.5000000000000000e+00 
143 2 4 1.0280147592618714e+00 -7.3533390550711999e+01 1.0000000000000000e+00 1.4000000000000000e+01 4.0000000000000000e+00 2.5000000000000000e+00 
1993 1595 2 1.0280001183763186e+00 2.5668109325344649e+03 1.0000000000000000e+00 1.2835923630383959e+01 3.1617711739344783e+00 2.5144055289296763e-01 
509 111 2 1.0280001183763186e+00 2.1323907431738235e+03 1.0000000000000000e+00 1.2835923630383959e+01 3.1617711739344783e+00 2.5144055289296763e-01 
1030 632 2 1.0280001183763186e+00 -3.5918494789177112e+03 1.0000000000000000e+00 1.2835923630383959e+01 3.1617711739344783e+00 2.5144055289296763e-01 
1898 1500 2 1.0280001183763186e+00 -2.5880001528180501e+03 1.0000000000000000e+00 1.2835923630382331e+01 3.1617711739375816e+00 2.5144055289491840e-01 
163 2 4 1.0279956349847015e+00 -1.1908935181988919e+02 1.0000000000000000e+00 1.6000000000000000e+01 4.0000000000000000e+00 2.5000000000000000e+00 
2007 1609 2 1.0279996589933258e+00 -2.6627621953670032e+03 1.0000000000000000e+00 1.5542263601901778e+01 5.3460067265496658e+00 7.1151095686392640e-01 
183 2 4 1.0280117029161473e+00 -3.5680687643838399e+02 1.0000000000000000e+00 1.8000000000000000e+01 4.0000000000000000e+00 2.5000000000000000e+00 
4 2 4 1.0324917812080374e+00 -7.5140132984879813e+02 1.0000000000000000e+00 0.0000000000000000e+00 6.0000000000000000e+00 2.5000000000000000e+00 
5 2 4 1.0288044141627473e+00 -6.8150207479530775e+02 1.0000000000000000e+00 0.0000000000000000e+00 8.0000000000000000e+00 2.5000000000000000e+00 
24 2 4 1.0344610034550199e+00 -6.7294376207921528e+02 1.0000000000000000e+00 2.0000000000000000e+00 6.0000000000000000e+00 2.5000000000000000e+00 
25 2 4 1.0347479304582776e+00 -6.9179590212577159e+02 1.0000000000000000e+00 2.0000000000000000e+00 8.0000000000000000e+00 2.5000000000000000e+00 
1733 1335 2 8.8623724606237397e-01 9.5581406822099489e+03 1.0000000000000000e+00 2.9789098326490997e+00 6.9877097472469574e+00 2.4999999795587340e+00 
44 2 4 1.0343348359710951e+00 -6.5747021092442458e+02 1.0000000000000000e+00 4.0000000000000000e+00 6.0000000000000000e+00 2.5000000000000000e+00 
45 2 4 1.0326579926268351e+00 -6.5516750590071229e+02 1.0000000000000000e+00 4.0000000000000000e+00 8.0000000000000000e+00 2.5000000000000000e+00 
908 510 2 8.8627697776961900e-01 -1.1862644349732318e+03 1.0000000000000000e+00 7.0630445377967837e+00 6.9843125508867763e+00 2.4999999797060695e+00 
64 2 4 1.0325988389025504e+00 -6.8505293849367661e+02 1.0000000000000000e+00 6.0000000000000000e+00 6.0000000000000000e+00 2.5000000000000000e+00 
65 2 4 1.0298420084657078e+00 -6.4976412008759962e+02 1.0000000000000000e+00 6.0000000000000000e+00 8.0000000000000000e+00 2.5000000000000000e+00 
84 2 4 1.0342552505891394e+00 -6.6865543332234051e+02 1.0000000000000000e+00 8.0000000000000000e+00 6.0000000000000000e+00 2.5000000000000000e+00 
85 2 4 1.0350716995355576e+00 -6.5534049536514817e+02 1.0000000000000000e+00 8.0000000000000000e+00 8.0000000000000000e+00 2.5000000000000000e+00 
104 2 4 1.0280346317998814e+00 -2.3082328702193908e+02 1.0000000000000000e+00 1.0000000000000000e+01 6.0000000000000000e+00 2.5000000000000000e+00 
105 2 4 1.0277035572652944e+00 -1.9503211143256189e+02 1.0000000000000000e+00 1.0000000000000000e+01 8.0000000000000000e+00 2.5000000000000000e+00 
669 271 2 1.0279964735696094e+00 -1.3036992319478071e+02 1.0000000000000000e+00 1.1017251687878089e+01 6.9904275847548396e+00 3.0827946436806403e-01 
1546 1148 2 1.0279964735696094e+00 -1.9706080304258455e+03 1.0000000000000000e+00 1.1017251687878089e+01 6.9904275847548396e+00 3.0827946436806403e-01 
917 519 2 1.0279964735696094e+00 7.1744811867207027e+03 1.0000000000000000e+00 1.1017251687878089e+01 6.9904275847548396e+00 3.0827946436806403e-01 
1761 1363 2 1.0279964735696094e+00 -1.6273842207459390e+03 1.0000000000000000e+00 1.1017251687878089e+01 6.9904275847548396e+00 3.0827946436806403e-01 
1770 1372 2 1.0279964735696094e+00 -1.7030787291697418e+03 1.0000000000000000e+00 1.1017251687878089e+01 6.9904275847548396e+00 3.0827946436806403e-01 
124 2 4 1.0280692269790106e+00 -1.4557781149644924e+02 1.0000000000000000e+00 1.2000000000000000e+01 6.0000000000000000e+00 2.5000000000000000e+00 
125 2 4 1.0279199118261864e+00 -1.5120484194821648e+02 1.0000000000000000e+00 1.2000000000000000e+01 8.0000000000000000e+00 2.5000000000000000e+00 
144 2 4 1.0279875366268498e+00 -1.3748173705649376e+02 1.0000000000000000e+00 1.4000000000000000e+01 6.0000000000000000e+00 2.5000000000000000e+00 
145 2 4 1.0279808923576701e+00 -9.6913412144090657e+01 1.0000000000000000e+00 1.4000000000000000e+01 8.0000000000000000e+00 2.5000000000000000e+00 
2026 1628 2 1.0280006179357102e+00 -1.0209906942896786e+03 1.0000000000000000e+00 1.4529602358202903e+01 6.1528666409812232e+00 5.6416810369239034e-01 
164 2 4 1.0280040049309629e+00 -1.6971768382537064e+02 1.0000000000000000e+00 1.6000000000000000e+01 6.0000000000000000e+00 2.5000000000000000e+00 
165 2 4 1.0280259533656511e+00 -2.0470781310070407e+02 1.0000000000000000e+00 1.6000000000000000e+01 8.0000000000000000e+00 2.5000000000000000e+00 
184 2 4 1.0279803444290248e+00 -1.4914365403877335e+02 1.0000000000000000e+00 1.8000000000000000e+01 6.0000000000000000e+00 2.5000000000000000e+00 
185 2 4 1.0336836609190085e+00 -4.6125909054921715e+02 1.0000000000000000e+00 1.8000000000000000e+01 8.0000000000000000e+00 2.5000000000000000e+00 
6 2 4 1.0328221429843554e+00 -6.7217183988096690e+02 1.0000000000000000e+00 0.0000000000000000e+00 1.0000000000000000e+01 2.5000000000000000e+00 
26 2 4 1.0295089656537477e+00 -6.6811983874485361e+02 1.0000000000000000e+00 2.0000000000000000e+00 1.0000000000000000e+01 2.5000000000000000e+00 
46 2 4 1.0316319917767471e+00 -6.2726617219300738e+02 1.0000000000000000e+00 4.0000000000000000e+00 1.0000000000000000e+01 2.5000000000000000e+00 
1412 1014 2 8.8630804917200667e-01 -1.1789216703529482e+03 1.0000000000000000e+00 3.0332223073180553e+00 1.1077304714380617e+01 2.4999999795683574e+00 
66 2 4 1.0240544669276697e+00 -6.0292923414136180e+02 1.0000000000000000e+00 6.0000000000000000e+00 1.0000000000000000e+01 2.5000000000000000e+00 
86 2 4 1.0366933431562324e+00 -6.6169109027395859e+02 1.0000000000000000e+00 8.0000000000000000e+00 1.0000000000000000e+01 2.5000000000000000e+00 
738 340 2 8.8644718710851156e-01 -1.7647417095036562e+03 1.0000000000000000e+00 7.1180122705072710e+00 1.1078923914924300e+01 2.4999999794582588e+00 
1147 749 2 8.8649583626870299e-01 -2.0926485168881698e+02 1.0000000000000000e+00 1.1148399443105683e+01 1.0947934869246037e+01 2.4999999794278684e+00 
106 2 4 1.0279078388423974e+00 -6.0146380845084434e+02 1.0000000000000000e+00 1.0000000000000000e+01 1.0000000000000000e+01 2.5000000000000000e+00 
126 2 4 1.0411739316700874e+00 -6.3210165660140808e+02 1.0000000000000000e+00 1.2000000000000000e+01 1.0000000000000000e+01 2.5000000000000000e+00 
146 2 4 1.0277817418365949e+00 -2.3903785536769070e+02 1.0000000000000000e+00 1.4000000000000000e+01 1.0000000000000000e+01 2.5000000000000000e+00 
1042 644 2 1.0280063153622729e+00 -1.8553567521022458e+03 1.0000000000000000e+00 1.5017637167354879e+01 9.0307169869344417e+00 2.7966679682399315e-01 
1066 668 2 1.0280063153622729e+00 -4.5753444556418958e+02 1.0000000000000000e+00 1.5017637167354879e+01 9.0307169869344417e+00 2.7966679682399315e-01 
507 109 2 1.0280063153622729e+00 -2.4785497113997058e+03 1.0000000000000000e+00 1.5017637167354879e+01 9.0307169869344417e+00 2.7966679682399315e-01 
1855 1457 2 1.0280063153622729e+00 -1.8071042124014637e+03 1.0000000000000000e+00 1.5017637167354879e+01 9.0307169869344417e+00 2.7966679682399315e-01 
166 2 4 1.0278519772794974e+00 -2.2831273334070548e+02 1.0000000000000000e+00 1.6000000000000000e+01 1.0000000000000000e+01 2.5000000000000000e+00 
1606 1208 2 1.0280063153622729e+00 -7.9143630890882434e+01 1.0000000000000000e+00 1.5017637167354879e+01 9.0307169869344417e+00 2.7966679682399315e-01 
186 2 4 1.0332676347204266e+00 -1.3705578678118010e+02 1.0000000000000000e+00 1.8000000000000000e+01 1.0000000000000000e+01 2.5000000000000000e+00 
958 560 2 8.8626015976719807e-01 -2.1676843771472531e+03 1.0000000000000000e+00 1.8958283236077147e+01 8.9692700237509975e+00 2.4999999798479013e+00 
7 2 4 1.0348076165876512e+00 -6.6903188372183331e+02 1.0000000000000000e+00 0.0000000000000000e+00 1.2000000000000000e+01 2.5000000000000000e+00 
8 2 4 1.0295995173609951e+00 3.6702844595729181e+02 1.0000000000000000e+00 0.0000000000000000e+00 1.4000000000000000e+01 2.5000000000000000e+00 
27 2 4 1.0355450964579573e+00 -6.9107742691586907e+02 1.0000000000000000e+00 2.0000000000000000e+00 1.2000000000000000e+01 2.5000000000000000e+00 
28 2 4 1.0267205239473653e+00 2.7531118346795313e+02 1.0000000000000000e+00 2.0000000000000000e+00 1.4000000000000000e+01 2.5000000000000000e+00 
47 2 4 1.0400431235013730e+00 -6.5678610718722734e+02 1.0000000000000000e+00 4.0000000000000000e+00 1.2000000000000000e+01 2.5000000000000000e+00 
48 2 4 1.0098320355623163e+00 -3.7140901909606839e+02 1.0000000000000000e+00 4.0000000000000000e+00 1.4000000000000000e+01 2.5000000000000000e+00 
67 2 4 1.0355631999668820e+00 -5.9503084045847152e+02 1.0000000000000000e+00 6.0000000000000000e+00 1.2000000000000000e+01 2.5000000000000000e+00 
68 2 4 1.0506226930052660e+00 -5.4512030437587225e+02 1.0000000000000000e+00 6.0000000000000000e+00 1.4000000000000000e+01 2.5000000000000000e+00 
87 2 4 1.0430368251193940e+00 -6.0813417805731615e+02 1.0000000000000000e+00 8.0000000000000000e+00 1.2000000000000000e+01 2.5000000000000000e+00 
88 2 4 9.8116495173619678e-01 -3.5764087401887355e+02 1.0000000000000000e+00 8.0000000000000000e+00 1.4000000000000000e+01 2.5000000000000000e+00 
107 2 4 1.0306047515292469e+00 -5.7181144325762773e+02 1.0000000000000000e+00 1.0000000000000000e+01 1.2000000000000000e+01 2.5000000000000000e+00 
108 2 4 1.0680950596538159e+00 -7.6887918935463335e+02 1.0000000000000000e+00 1.0000000000000000e+01 1.4000000000000000e+01 2.5000000000000000e+00 
127 2 4 1.0389656695220477e+00 -6.2786087548330090e+02 1.0000000000000000e+00 1.2000000000000000e+01 1.2000000000000000e+01 2.5000000000000000e+00 
128 2 4 9.7326953381428605e-01 -2.7748431327371657e+02 1.0000000000000000e+00 1.2000000000000000e+01 1.4000000000000000e+01 2.5000000000000000e+00 
147 2 4 1.0368774719530482e+00 -6.2049963686735089e+02 1.0000000000000000e+00 1.4000000000000000e+01 1.2000000000000000e+01 2.5000000000000000e+00 
148 2 4 1.0332574497372955e+00 -3.0845254685547667e+02 1.0000000000000000e+00 1.4000000000000000e+01 1.4000000000000000e+01 2.5000000000000000e+00 
1166 768 2 8.8625719603427522e-01 1.1391115179421303e+02 1.0000000000000000e+00 1.4953491413260755e+01 1.3015803587573057e+01 2.4999999800799495e+00 
167 2 4 1.0260229589406520e+00 -6.3498133325965364e+02 1.0000000000000000e+00 1.6000000000000000e+01 1.2000000000000000e+01 2.5000000000000000e+00 
168 2 4 1.0274344102528723e+00 -4.7599328903753161e+02 1.0000000000000000e+00 1.6000000000000000e+01 1.4000000000000000e+01 2.5000000000000000e+00 
187 2 4 1.0271563768433387e+00 -8.8501848816355249e+01 1.0000000000000000e+00 1.8000000000000000e+01 1.2000000000000000e+01 2.5000000000000000e+00 
188 2 4 1.0292152982864120e+00 -2.4363902594068068e+02 1.0000000000000000e+00 1.8000000000000000e+01 1.4000000000000000e+01 2.5000000000000000e+00 
9 2 4 1.0265700228754184e+00 3.4396962129503379e+02 1.0000000000000000e+00 0.0000000000000000e+00 1.6000000000000000e+01 2.5000000000000000e+00 
29 2 4 1.0303501113058768e+00 3.5260196822622788e+02 1.0000000000000000e+00 2.0000000000000000e+00 1.6000000000000000e+01 2.5000000000000000e+00 
49 2 4 1.0151644926520296e+00 -2.3519270204222821e+02 1.0000000000000000e+00 4.0000000000000000e+00 1.6000000000000000e+01 2.5000000000000000e+00 
1240 842 2 8.8747394450661710e-01 2.0821752382253389e+03 1.0000000000000000e+00 5.3573219861501453e+00 1.5024296684602984e+01 2.4999999798253056e+00 
69 2 4 1.0528508844066158e+00 -1.7857664799558179e+02 1.0000000000000000e+00 6.0000000000000000e+00 1.6000000000000000e+01 2.5000000000000000e+00 
89 2 4 9.7968341537031411e-01 -1.5847861816464984e+02 1.0000000000000000e+00 8.0000000000000000e+00 1.6000000000000000e+01 2.5000000000000000e+00 
109 2 4 1.0621388284764224e+00 -8.8664520815611888e+02 1.0000000000000000e+00 1.0000000000000000e+01 1.6000000000000000e+01 2.5000000000000000e+00 
1432 1034 2 8.9013662748444178e-01 2.9272536738394483e+03 1.0000000000000000e+00 1.0007316430967858e+01 1.4960431432116032e+01 2.4999999796302115e+00 
129 2 4 9.8887875558345417e-01 3.9052114112878336e+01 1.0000000000000000e+00 1.2000000000000000e+01 1.6000000000000000e+01 2.5000000000000000e+00 
149 2 4 1.0487332141399925e+00 1.3830186116039513e+03 1.0000000000000000e+00 1.4000000000000000e+01 1.6000000000000000e+01 2.5000000000000000e+00 
169 2 4 1.0388617198285086e+00 6.8710478583506540e+02 1.0000000000000000e+00 1.6000000000000000e+01 1.6000000000000000e+01 2.5000000000000000e+00 
189 2 4 1.0201698084873856e+00 1.2756152019676804e+01 1.0000000000000000e+00 1.8000000000000000e+01 1.6000000000000000e+01 2.5000000000000000e+00 
10 2 4 1.0265505123078265e+00 -2.2844437494277875e+02 1.0000000000000000e+00 0.0000000000000000e+00 1.8000000000000000e+01 2.5000000000000000e+00 
30 2 4 1.0277843229080756e+00 -2.3590551395850628e+01 1.0000000000000000e+00 2.0000000000000000e+00 1.8000000000000000e+01 2.5000000000000000e+00 
1408 1010 2 1.0267728482887193e+00 2.0458992567867097e+03 1.0000000000000000e+00 3.0315831743507657e+00 1.8521732649012879e+01 1.3214547585875771e+00 
50 2 4 1.0315164504109422e+00 1.0024195521396483e+03 1.0000000000000000e+00 4.0000000000000000e+00 1.8000000000000000e+01 2.5000000000000000e+00 
70 2 4 1.0267170923277813e+00 2.3511938938761004e+03 1.0000000000000000e+00 6.0000000000000000e+00 1.8000000000000000e+01 2.5000000000000000e+00 
90 2 4 1.0372550074437596e+00 1.2169130081276248e+03 1.0000000000000000e+00 8.0000000000000000e+00 1.8000000000000000e+01 2.5000000000000000e+00 
902 504 2 1.0279641282491092e+00 -1.3682660393891779e+03 1.0000000000000000e+00 6.8835612687753036e+00 1.9654019022746468e+01 2.0306081981546431e-01 
899 501 2 1.0268825827656511e+00 7.4082819025621831e+01 1.0000000000000000e+00 7.2131324554563800e+00 1.8406410141411044e+01 5.2570123050333717e-01 
728 330 2 1.0268825827656511e+00 2.9717829723202312e+03 1.0000000000000000e+00 7.2131324554563800e+00 1.8406410141411044e+01 5.2570123050333717e-01 
110 2 4 1.0307615557579690e+00 -2.7496261749538138e+02 1.0000000000000000e+00 1.0000000000000000e+01 1.8000000000000000e+01 2.5000000000000000e+00 
1741 1343 2 8.8639305116518374e-01 3.2886642875359889e+03 1.0000000000000000e+00 1.0973798665471421e+01 1.9119422816404114e+01 2.4999999790553828e+00 
130 2 4 1.0398429062163770e+00 -2.2089178926276364e+01 1.0000000000000000e+00 1.2000000000000000e+01 1.8000000000000000e+01 2.5000000000000000e+00 
150 2 4 1.0322599142489344e+00 1.9349276548197556e+03 1.0000000000000000e+00 1.4000000000000000e+01 1.8000000000000000e+01 2.5000000000000000e+00 
170 2 4 1.0375748791457671e+00 7.6256115150095354e+02 1.0000000000000000e+00 1.6000000000000000e+01 1.8000000000000000e+01 2.5000000000000000e+00 
190 2 4 1.0214870056817278e+00 6.0668887507525949e+02 1.0000000000000000e+00 1.8000000000000000e+01 1.8000000000000000e+01 2.5000000000000000e+00 
1446 1048 2 1.0282660816415579e+00 -3.6987272807476979e+03 1.0000000000000000e+00 1.1190104914496424e+00 2.5591030290316032e+00 3.9594620900964856e+00 
942 544 2 1.0280285309783894e+00 -3.6874323348990870e+03 1.0000000000000000e+00 1.5225550316831435e+00 3.2551087266097696e+00 4.9789661249317518e+00 
1057 659 2 1.0279863444076136e+00 7.1970740501596711e+03 1.0000000000000000e+00 1.0127433303295830e+00 3.7430515974719589e+00 5.3248568568146935e+00 
1561 1163 2 1.0280285309783943e+00 7.2230650211640132e+03 1.0000000000000000e+00 1.5225550316831242e+00 3.2551087266097678e+00 4.9789661249317492e+00 
772 374 2 1.0279863444076136e+00 2.8038465147467332e+03 1.0000000000000000e+00 1.0127433303295605e+00 3.7430515974719647e+00 5.3248568568146988e+00 
1612 1214 2 1.0279863444076138e+00 2.8040893439236861e+03 1.0000000000000000e+00 1.0127433303295639e+00 3.7430515974719651e+00 5.3248568568146961e+00 
455 57 2 1.0280004962549145e+00 -9.7997443980229946e+02 1.0000000000000000e+00 1.9148151303443520e+01 4.9396191977496207e+00 4.7457992625711212e+00 
1986 1588 2 1.0280004962353426e+00 -2.6260719013044300e+03 1.0000000000000000e+00 1.9148148338093769e+01 4.9396247289641178e+00 4.7458068915194556e+00 
463 65 2 1.0279996835481036e+00 -2.3160783906346337e+03 1.0000000000000000e+00 1.7538103651827551e+01 4.9696994068522393e+00 4.9841753209118869e+00 
1975 1577 2 1.0280004962353417e+00 -2.3470826975643704e+03 1.0000000000000000e+00 1.9148148338093723e+01 4.9396247289641941e+00 4.7458068915195764e+00 
1117 719 2 1.0279996835481038e+00 -1.9021304678218826e+03 1.0000000000000000e+00 1.7538103651827569e+01 4.9696994068522455e+00 4.9841753209119171e+00 
1987 1589 2 1.0280004598603154e+00 -2.7482995330694730e+03 1.0000000000000000e+00 1.8015768980765703e+01 5.2557578195988608e+00 5.3403064143770420e+00 
1802 1404 2 1.0279996835481080e+00 -1.7016209649823209e+03 1.0000000000000000e+00 1.7538103652979704e+01 4.9696994083860275e+00 4.9841753230760721e+00 
1749 1351 2 1.0279909990406546e+00 -3.7735199012883622e+03 1.0000000000000000e+00 1.8985110450274110e+01 1.2504117431004852e+01 4.4471943825825857e+00 
1588 1190 2 1.0279909990406546e+00 8.8731798357385615e+03 1.0000000000000000e+00 1.8985110450274110e+01 1.2504117431004852e+01 4.4471943825825857e+00 
1585 1187 2 1.0280462340438303e+00 8.8736419173415925e+03 1.0000000000000000e+00 1.8984651235385776e+01 1.3630577969170227e+01 4.9655397728706721e+00 
482 84 2 1.0280462340438303e+00 3.1502339956783022e+01 1.0000000000000000e+00 1.8984651235385776e+01 1.3630577969170227e+01 4.9655397728706721e+00 
483 85 2 1.0280462340438303e+00 1.9231796591405956e+01 1.0000000000000000e+00 1.8984651235385776e+01 1.3630577969170227e+01 4.9655397728706721e+00 
1752 1354 2 1.0280462340438303e+00 -3.5812120813164565e+03 1.0000000000000000e+00 1.8984651235385776e+01 1.3630577969170227e+01 4.9655397728706721e+00 
579 181 2 1.0277070102420853e+00 5.3973843861667842e+02 1.0000000000000000e+00 9.7800854427174932e-01 1.5004768492332939e+01 4.6813472051552569e+00 
743 345 2 1.0277070102420853e+00 2.5047006978589403e+02 1.0000000000000000e+00 9.7800854427174932e-01 1.5004768492332939e+01 4.6813472051552569e+00 
411 13 2 1.0277070102420853e+00 -1.0389234826799977e+03 1.0000000000000000e+00 9.7800854427174932e-01 1.5004768492332939e+01 4.6813472051552569e+00 
580 182 2 1.0277070102420853e+00 3.1594272229083563e+03 1.0000000000000000e+00 9.7800854427174932e-01 1.5004768492332939e+01 4.6813472051552569e+00 
741 343 2 1.0277070102420853e+00 2.6195175613860965e+03 1.0000000000000000e+00 9.7800854427174932e-01 1.5004768492332939e+01 4.6813472051552569e+00 
424 26 2 1.0218946191039946e+00 3.5088185459123424e+03 1.0000000000000000e+00 1.3806258269847270e+01 1.6919296203384956e+01 4.8340722806314007e+00 
1252 854 2 1.0218946191041063e+00 2.7312363392107613e+03 1.0000000000000000e+00 1.3806258269847145e+01 1.6919296203384739e+01 4.8340722806307799e+00 
913 515 2 1.0218946191041063e+00 3.7110210515043273e+03 1.0000000000000000e+00 1.3806258269847145e+01 1.6919296203384739e+01 4.8340722806307799e+00 
409 11 2 1.0218946191041063e+00 4.2039746930024839e+03 1.0000000000000000e+00 1.3806258269847145e+01 1.6919296203384739e+01 4.8340722806307799e+00 
1577 1179 2 1.0218946191041063e+00 2.5264352322036689e+03 1.0000000000000000e+00 1.3806258269847145e+01 1.6919296203384739e+01 4.8340722806307799e+00 
1757 1359 2 1.0238336465008659e+00 -8.2726804315315542e+02 1.0000000000000000e+00 1.6360335040613680e+01 1.7013593034088572e+01 4.7910689358903040e+00 
425 27 2 1.0262178246503419e+00 1.4059583719414131e+03 1.0000000000000000e+00 1.7054756097140519e+01 1.7016217497747924e+01 4.6464413298287335e+00 
1249 851 2 1.0262178246503419e+00 2.4220539139940734e+03 1.0000000000000000e+00 1.7054756097140519e+01 1.7016217497747924e+01 4.6464413298287335e+00 
1167 769 2 1.0262178246503419e+00 7.5376145379213483e+02 1.0000000000000000e+00 1.7054756097140519e+01 1.7016217497747924e+01 4.6464413298287335e+00 
428 30 2 1.0262178246503419e+00 1.1644556261788214e+03 1.0000000000000000e+00 1.7054756097140519e+01 1.7016217497747924e+01 4.6464413298287335e+00 
1886 1488 2 1.0279999953162313e+00 -1.7962049263408935e+03 1.0000000000000000e+00 1.0243515564278008e+01 5.1835393336385638e-01 8.1174379555293950e+00 
946 548 2 1.0279999971152292e+00 -3.6152285901300165e+03 1.0000000000000000e+00 1.0055286943686459e+01 5.4359116817155095e-01 8.3391362864376024e+00 
1758 1360 2 1.0280000013306156e+00 -2.6213869560648418e+03 1.0000000000000000e+00 9.8419125166598214e+00 4.1575000515030264e-01 8.5160338178235460e+00 
1997 1599 2 1.0280000018306366e+00 2.5436501777536860e+03 1.0000000000000000e+00 1.0556031193401227e+01 1.2371916910767609e-01 8.7169636674411688e+00 
457 59 2 1.0279999975903027e+00 2.1101623906635509e+03 1.0000000000000000e+00 1.0134952909870819e+01 5.4714862167499678e-01 8.4055640652649615e+00 
1150 752 2 1.0279999963636297e+00 -1.2942767335897292e+02 1.0000000000000000e+00 1.7261824592983036e+01 2.5022999018033720e-01 9.4354761033812153e+01 
1318 920 2 1.0279999970175180e+00 -1.2955195411088727e+02 1.0000000000000000e+00 1.7310978252290077e+01 5.1499196572360309e-02 9.4346141433287002e+01 
503 105 2 1.0280000023870619e+00 -1.6962647778280859e+03 1.0000000000000000e+00 1.1423765424098317e+01 1.9728203028664621e+00 9.6547613798856759e+01 
2015 1617 2 1.0280000051874298e+00 -1.6954848264777713e+03 1.0000000000000000e+00 1.0862052996059370e+01 1.4067221666783729e+00 9.6710989371961560e+01 
1857 1459 2 1.0280000001888769e+00 -1.5913993458804705e+03 1.0000000000000000e+00 1.1549532186585346e+01 1.3512814896164698e+00 9.5502754679116009e+01 
681 283 2 1.0279999993944944e+00 -1.5918198970853821e+03 1.0000000000000000e+00 1.1785773434645051e+01 1.9555617188627532e+00 9.5870761802227221e+01 
1006 608 2 1.0280000000582930e+00 -4.5933298252657078e+03 1.0000000000000000e+00 1.2245900673253823e+01 1.7171047573260261e+00 9.5958549742046017e+01 
1510 1112 2 1.0280000023461378e+00 -4.5935044910365923e+03 1.0000000000000000e+00 1.1978580774801266e+01 9.0970542380353558e-01 9.5577761316634266e+01 
1410 1012 2 1.0279999766325500e+00 1.7415405017745804e+03 1.0000000000000000e+00 1.2360847762032773e+01 1.1903583903542576e+00 9.7166856500199174e+01 
1853 1455 2 1.0279999966423743e+00 1.9354032559809423e+03 1.0000000000000000e+00 1.6120683732264602e+01 1.0549686421812356e+00 9.5010654835514856e+01 
1549 1151 2 1.0280000014019044e+00 2.9784135963418007e+03 1.0000000000000000e+00 1.5873224929571876e+01 1.3338707221205846e+00 9.5743003775328305e+01 
511 113 2 1.0280000022836635e+00 -6.2252997735444455e+02 1.0000000000000000e+00 1.5948363320745219e+01 1.4151486354478342e+00 9.6035080184703048e+01 
988 590 2 1.0280000164728227e+00 8.9940009366101476e+03 1.0000000000000000e+00 1.6114976628904380e+01 1.1534795179876005e+00 9.7068787855831431e+01 
1849 1451 2 1.0279999936963007e+00 -1.2853011594555860e+03 1.0000000000000000e+00 1.8536380133377104e+01 7.7583487761003167e-01 9.5935371624185549e+01 
1852 1454 2 1.0279999935909627e+00 -1.2852872661039346e+03 1.0000000000000000e+00 1.7963595898144423e+01 9.2160037777427306e-01 9.5934553684544667e+01 
1570 1172 2 1.0280007934853146e+00 -1.1865989400687981e+03 1.0000000000000000e+00 8.6140470739417712e+00 2.6883169259994686e+00 9.9995072518819555e+01 
1845 1447 2 1.0280000590559517e+00 -1.6046493861475287e+02 1.0000000000000000e+00 1.4090207389644650e+01 4.5643890304279833e-01 9.9693660912813868e+01 
1522 1124 2 1.0280000591423488e+00 -2.4125416326014874e+03 1.0000000000000000e+00 1.4091602316287261e+01 4.5910570079838947e-01 9.9695923453263944e+01 
1018 620 2 1.0280000591434360e+00 -2.4379935736115922e+03 1.0000000000000000e+00 1.4091619818065425e+01 4.5913891618056629e-01 9.9695951862264550e+01 
820 422 2 1.0279999551673600e+00 3.9657536519009900e+03 1.0000000000000000e+00 1.3952445515909107e+01 8.5288509842730939e-02 9.7966780161932107e+01 
1660 1262 2 1.0280000034481775e+00 3.9656289779712365e+03 1.0000000000000000e+00 1.3969687145039325e+01 2.7912604726733629e-02 9.7893085032412486e+01 
1000 602 2 1.0279999902643355e+00 6.3027633047663703e+03 1.0000000000000000e+00 1.5336953442325452e+01 9.5819446168124778e-01 9.7851612138143111e+01 