LAMMPS data file via write_data, version 30 Jul 2016, timestep = 50000000

2080 atoms
8 atom types

0.0000000000000000e+00 4.0000000000000000e+01 xlo xhi
0.0000000000000000e+00 4.0000000000000000e+01 ylo yhi
0.0000000000000000e+00 1.0000000000000000e+02 zlo zhi

Masses

1 3.896
2 5.36
3 20.064
4 8.378
5 8.378
6 8.378
7 8.378
8 8.378

Atoms # meso-molecular

1 2 4 1.0279197251694474e+00 1.0468908636208178e+02 1.0000000000000000e+00 0.0000000000000000e+00 0.0000000000000000e+00 2.5000000000000000e+00 
2 2 4 1.0292736949632169e+00 1.8398354280762459e+02 1.0000000000000000e+00 0.0000000000000000e+00 2.0000000000000000e+00 2.5000000000000000e+00 
21 2 4 1.0280879321265828e+00 -1.5095324739189883e+02 1.0000000000000000e+00 2.0000000000000000e+00 0.0000000000000000e+00 2.5000000000000000e+00 
22 2 4 1.0269006486706826e+00 -1.5385726398379839e+02 1.0000000000000000e+00 2.0000000000000000e+00 2.0000000000000000e+00 2.5000000000000000e+00 
41 2 4 1.0279205746744151e+00 -9.2078394417969761e+01 1.0000000000000000e+00 4.0000000000000000e+00 0.0000000000000000e+00 2.5000000000000000e+00 
42 2 4 1.0336350103742367e+00 -6.0901543872677860e+02 1.0000000000000000e+00 4.0000000000000000e+00 2.0000000000000000e+00 2.5000000000000000e+00 
61 2 4 1.0279326768072587e+00 -1.3474763446483351e+02 1.0000000000000000e+00 6.0000000000000000e+00 0.0000000000000000e+00 2.5000000000000000e+00 
62 2 4 1.0338249544462663e+00 -6.5654227945254343e+02 1.0000000000000000e+00 6.0000000000000000e+00 2.0000000000000000e+00 2.5000000000000000e+00 
81 2 4 1.0281161446023479e+00 -6.3826668379331281e+01 1.0000000000000000e+00 8.0000000000000000e+00 0.0000000000000000e+00 2.5000000000000000e+00 
82 2 4 1.0273327899795919e+00 -2.6516223346833107e+02 1.0000000000000000e+00 8.0000000000000000e+00 2.0000000000000000e+00 2.5000000000000000e+00 
101 2 4 1.0279609256311202e+00 -1.3449722203607988e+02 1.0000000000000000e+00 1.0000000000000000e+01 0.0000000000000000e+00 2.5000000000000000e+00 
102 2 4 1.0285593724987407e+00 -1.9087233283896870e+02 1.0000000000000000e+00 1.0000000000000000e+01 2.0000000000000000e+00 2.5000000000000000e+00 
121 2 4 1.0280107368098357e+00 -6.9250058670875873e+01 1.0000000000000000e+00 1.2000000000000000e+01 0.0000000000000000e+00 2.5000000000000000e+00 
122 2 4 1.0279843601939107e+00 -3.7182677674978379e+01 1.0000000000000000e+00 1.2000000000000000e+01 2.0000000000000000e+00 2.5000000000000000e+00 
141 2 4 1.0279967396534382e+00 4.6879663293023901e+02 1.0000000000000000e+00 1.4000000000000000e+01 0.0000000000000000e+00 2.5000000000000000e+00 
142 2 4 1.0280050803426406e+00 -2.5180226670375944e+01 1.0000000000000000e+00 1.4000000000000000e+01 2.0000000000000000e+00 2.5000000000000000e+00 
1235 837 2 1.0279986793569664e+00 -4.3379507284479023e+03 1.0000000000000000e+00 1.3173468592887346e+01 2.1195108873116193e+00 3.4748202903248598e-01 
161 2 4 1.0280022104334869e+00 8.5458624965055139e+02 1.0000000000000000e+00 1.6000000000000000e+01 0.0000000000000000e+00 2.5000000000000000e+00 
162 2 4 1.0279973608844011e+00 -2.9895161449707906e+01 1.0000000000000000e+00 1.6000000000000000e+01 2.0000000000000000e+00 2.5000000000000000e+00 
906 508 2 1.0279993593847592e+00 1.7408920947869449e+03 1.0000000000000000e+00 1.6252680219162016e+01 1.3476171203924801e+00 6.8455207859818579e-01 
181 2 4 1.0279980583658292e+00 5.7363650657289259e+02 1.0000000000000000e+00 1.8000000000000000e+01 0.0000000000000000e+00 2.5000000000000000e+00 
182 2 4 1.0280023318767233e+00 -4.4658630285927650e+01 1.0000000000000000e+00 1.8000000000000000e+01 2.0000000000000000e+00 2.5000000000000000e+00 
1591 1193 2 1.0280000196152443e+00 -2.9722169356101972e+03 1.0000000000000000e+00 1.9166872949032101e+01 1.0232894888836048e+00 1.8312908741875536e-01 
1164 766 2 1.0279999586982673e+00 -2.2469089016228140e+03 1.0000000000000000e+00 1.9351515772677821e+01 1.0015802215371599e+00 3.7085365579614410e-01 
585 187 2 1.0279999586134891e+00 -1.3000285797531185e+03 1.0000000000000000e+00 1.9351713886497123e+01 1.0015442640008392e+00 3.7109560177850570e-01 
750 352 2 1.0279999586015096e+00 -2.9990546571177506e+03 1.0000000000000000e+00 1.9351741868477472e+01 1.0015391855771731e+00 3.7112978328637547e-01 
3 2 4 1.0269266000440020e+00 -1.8521165316834626e+01 1.0000000000000000e+00 0.0000000000000000e+00 4.0000000000000000e+00 2.5000000000000000e+00 
23 2 4 1.0279211147368574e+00 -2.4001367580171021e+02 1.0000000000000000e+00 2.0000000000000000e+00 4.0000000000000000e+00 2.5000000000000000e+00 
454 56 2 8.8626604920647567e-01 -6.6462051867135983e+02 1.0000000000000000e+00 5.0181688465484164e+00 2.9462290427162232e+00 2.4999999798798047e+00 
43 2 4 1.0295265050026574e+00 -6.0083133466249251e+02 1.0000000000000000e+00 4.0000000000000000e+00 4.0000000000000000e+00 2.5000000000000000e+00 
63 2 4 1.0307252503550421e+00 -6.7173720582284557e+02 1.0000000000000000e+00 6.0000000000000000e+00 4.0000000000000000e+00 2.5000000000000000e+00 
83 2 4 1.0279504577152512e+00 -2.9360541150928532e+02 1.0000000000000000e+00 8.0000000000000000e+00 4.0000000000000000e+00 2.5000000000000000e+00 
103 2 4 1.0276584416152115e+00 -1.8214389223888008e+02 1.0000000000000000e+00 1.0000000000000000e+01 4.0000000000000000e+00 2.5000000000000000e+00 
514 116 2 1.0281250900300385e+00 -1.0769340750091294e+03 1.0000000000000000e+00 9.5561502922313668e+00 3.0121552565561460e+00 1.2214746439856592e+00 
123 2 4 1.0279917861266823e+00 -1.0480284006300574e+01 1.0000000000000000e+00 1.2000000000000000e+01 4.0000000000000000e+00 2.5000000000000000e+00 
143 2 4 1.0280148450035913e+00 -7.3533384316989057e+01 1.0000000000000000e+00 1.4000000000000000e+01 4.0000000000000000e+00 2.5000000000000000e+00 
1993 1595 2 1.0280001133187062e+00 2.5668109305694284e+03 1.0000000000000000e+00 1.2836266870584188e+01 3.1616510531905884e+00 2.5154550994375935e-01 
509 111 2 1.0280001133187062e+00 2.1323907412087869e+03 1.0000000000000000e+00 1.2836266870584188e+01 3.1616510531905884e+00 2.5154550994375935e-01 
1030 632 2 1.0280001133187062e+00 -3.5918494808827477e+03 1.0000000000000000e+00 1.2836266870584188e+01 3.1616510531905884e+00 2.5154550994375935e-01 
1898 1500 2 1.0280001133187058e+00 -2.5880001547830866e+03 1.0000000000000000e+00 1.2836266870583016e+01 3.1616510531928408e+00 2.5154550994516695e-01 
163 2 4 1.0279955310251632e+00 -1.1908934210805300e+02 1.0000000000000000e+00 1.6000000000000000e+01 4.0000000000000000e+00 2.5000000000000000e+00 
2007 1609 2 1.0279997104760674e+00 -2.6627621984461907e+03 1.0000000000000000e+00 1.5543577744826843e+01 5.3470457478057334e+00 7.1061445989584693e-01 
183 2 4 1.0280117582182056e+00 -3.5680687500009992e+02 1.0000000000000000e+00 1.8000000000000000e+01 4.0000000000000000e+00 2.5000000000000000e+00 
4 2 4 1.0324917506745099e+00 -7.5140188505449362e+02 1.0000000000000000e+00 0.0000000000000000e+00 6.0000000000000000e+00 2.5000000000000000e+00 
5 2 4 1.0288044536285221e+00 -6.8150226584279176e+02 1.0000000000000000e+00 0.0000000000000000e+00 8.0000000000000000e+00 2.5000000000000000e+00 
24 2 4 1.0344609538805183e+00 -6.7294393450312407e+02 1.0000000000000000e+00 2.0000000000000000e+00 6.0000000000000000e+00 2.5000000000000000e+00 
25 2 4 1.0347479758589013e+00 -6.9179611416676414e+02 1.0000000000000000e+00 2.0000000000000000e+00 8.0000000000000000e+00 2.5000000000000000e+00 
1733 1335 2 8.8623724616137889e-01 9.5581406822099489e+03 1.0000000000000000e+00 2.9789094681543209e+00 6.9877100066936375e+00 2.4999999795587349e+00 
44 2 4 1.0343348206692231e+00 -6.5747018313796059e+02 1.0000000000000000e+00 4.0000000000000000e+00 6.0000000000000000e+00 2.5000000000000000e+00 
45 2 4 1.0326579751868110e+00 -6.5516740926829050e+02 1.0000000000000000e+00 4.0000000000000000e+00 8.0000000000000000e+00 2.5000000000000000e+00 
908 510 2 8.8627697849831422e-01 -1.1862644349732318e+03 1.0000000000000000e+00 7.0630441723132744e+00 6.9843089384857269e+00 2.4999999797060712e+00 
64 2 4 1.0325990343008482e+00 -6.8505373370677228e+02 1.0000000000000000e+00 6.0000000000000000e+00 6.0000000000000000e+00 2.5000000000000000e+00 
65 2 4 1.0298418273472005e+00 -6.4976333224606390e+02 1.0000000000000000e+00 6.0000000000000000e+00 8.0000000000000000e+00 2.5000000000000000e+00 
84 2 4 1.0342554435408844e+00 -6.6865631839484149e+02 1.0000000000000000e+00 8.0000000000000000e+00 6.0000000000000000e+00 2.5000000000000000e+00 
85 2 4 1.0350714808608166e+00 -6.5533953049503623e+02 1.0000000000000000e+00 8.0000000000000000e+00 8.0000000000000000e+00 2.5000000000000000e+00 
104 2 4 1.0280331443250375e+00 -2.3082337139581401e+02 1.0000000000000000e+00 1.0000000000000000e+01 6.0000000000000000e+00 2.5000000000000000e+00 
105 2 4 1.0277051355013975e+00 -1.9503187441083372e+02 1.0000000000000000e+00 1.0000000000000000e+01 8.0000000000000000e+00 2.5000000000000000e+00 
669 271 2 1.0279963833669092e+00 -1.3036992268029044e+02 1.0000000000000000e+00 1.1017233336331072e+01 6.9904469576216526e+00 3.0827081213740065e-01 
1546 1148 2 1.0279963833669092e+00 -1.9706080298801487e+03 1.0000000000000000e+00 1.1017233336331072e+01 6.9904469576216526e+00 3.0827081213740065e-01 
917 519 2 1.0279963833669092e+00 7.1744811874482984e+03 1.0000000000000000e+00 1.1017233336331072e+01 6.9904469576216526e+00 3.0827081213740065e-01 
1761 1363 2 1.0279963833669092e+00 -1.6273842202002422e+03 1.0000000000000000e+00 1.1017233336331072e+01 6.9904469576216526e+00 3.0827081213740065e-01 
1770 1372 2 1.0279963833669092e+00 -1.7030787286240450e+03 1.0000000000000000e+00 1.1017233336331072e+01 6.9904469576216526e+00 3.0827081213740065e-01 
124 2 4 1.0280708865540478e+00 -1.4557778391311291e+02 1.0000000000000000e+00 1.2000000000000000e+01 6.0000000000000000e+00 2.5000000000000000e+00 
125 2 4 1.0279185054861453e+00 -1.5120481602834894e+02 1.0000000000000000e+00 1.2000000000000000e+01 8.0000000000000000e+00 2.5000000000000000e+00 
144 2 4 1.0279874117520005e+00 -1.3748173007788699e+02 1.0000000000000000e+00 1.4000000000000000e+01 6.0000000000000000e+00 2.5000000000000000e+00 
145 2 4 1.0279801469659142e+00 -9.6913418541604727e+01 1.0000000000000000e+00 1.4000000000000000e+01 8.0000000000000000e+00 2.5000000000000000e+00 
2026 1628 2 1.0280005537691657e+00 -1.0209907018822637e+03 1.0000000000000000e+00 1.4529739983770275e+01 6.1528533438389816e+00 5.6453548667238485e-01 
164 2 4 1.0280041046182202e+00 -1.6971768306043913e+02 1.0000000000000000e+00 1.6000000000000000e+01 6.0000000000000000e+00 2.5000000000000000e+00 
165 2 4 1.0280263967037271e+00 -2.0470784959477919e+02 1.0000000000000000e+00 1.6000000000000000e+01 8.0000000000000000e+00 2.5000000000000000e+00 
184 2 4 1.0279802957496087e+00 -1.4914360733416916e+02 1.0000000000000000e+00 1.8000000000000000e+01 6.0000000000000000e+00 2.5000000000000000e+00 
185 2 4 1.0336836307675519e+00 -4.6125909413721610e+02 1.0000000000000000e+00 1.8000000000000000e+01 8.0000000000000000e+00 2.5000000000000000e+00 
6 2 4 1.0328221429215976e+00 -6.7217183137625182e+02 1.0000000000000000e+00 0.0000000000000000e+00 1.0000000000000000e+01 2.5000000000000000e+00 
26 2 4 1.0295089540235165e+00 -6.6811979401378096e+02 1.0000000000000000e+00 2.0000000000000000e+00 1.0000000000000000e+01 2.5000000000000000e+00 
46 2 4 1.0316319943432088e+00 -6.2726619080372745e+02 1.0000000000000000e+00 4.0000000000000000e+00 1.0000000000000000e+01 2.5000000000000000e+00 
1412 1014 2 8.8630804949493891e-01 -1.1789216703529482e+03 1.0000000000000000e+00 3.0332224389521429e+00 1.1077304850680434e+01 2.4999999795683574e+00 
66 2 4 1.0240544947760806e+00 -6.0292928204797249e+02 1.0000000000000000e+00 6.0000000000000000e+00 1.0000000000000000e+01 2.5000000000000000e+00 
86 2 4 1.0366933924356820e+00 -6.6169119444973728e+02 1.0000000000000000e+00 8.0000000000000000e+00 1.0000000000000000e+01 2.5000000000000000e+00 
738 340 2 8.8644718539991263e-01 -1.7647417095036562e+03 1.0000000000000000e+00 7.1180125947340080e+00 1.1078922383358602e+01 2.4999999794582646e+00 
1147 749 2 8.8649583990758840e-01 -2.0926485168881698e+02 1.0000000000000000e+00 1.1148400822358855e+01 1.0947935474773566e+01 2.4999999794278676e+00 
106 2 4 1.0279077388776838e+00 -6.0146333589638652e+02 1.0000000000000000e+00 1.0000000000000000e+01 1.0000000000000000e+01 2.5000000000000000e+00 
126 2 4 1.0411739765238059e+00 -6.3210180628042951e+02 1.0000000000000000e+00 1.2000000000000000e+01 1.0000000000000000e+01 2.5000000000000000e+00 
146 2 4 1.0277820800725832e+00 -2.3903797459673746e+02 1.0000000000000000e+00 1.4000000000000000e+01 1.0000000000000000e+01 2.5000000000000000e+00 
1042 644 2 1.0280064534211404e+00 -1.8553567493737617e+03 1.0000000000000000e+00 1.5017631611450513e+01 9.0307870348197898e+00 2.7963539393597941e-01 
1066 668 2 1.0280064534211404e+00 -4.5753444289394071e+02 1.0000000000000000e+00 1.5017631611450513e+01 9.0307870348197898e+00 2.7963539393597941e-01 
507 109 2 1.0280064534211404e+00 -2.4785497088531206e+03 1.0000000000000000e+00 1.5017631611450513e+01 9.0307870348197898e+00 2.7963539393597941e-01 
1855 1457 2 1.0280064534211404e+00 -1.8071042096729796e+03 1.0000000000000000e+00 1.5017631611450513e+01 9.0307870348197898e+00 2.7963539393597941e-01 
166 2 4 1.0278513784957937e+00 -2.2831284724060103e+02 1.0000000000000000e+00 1.6000000000000000e+01 1.0000000000000000e+01 2.5000000000000000e+00 
1606 1208 2 1.0280064534211404e+00 -7.9143628220761045e+01 1.0000000000000000e+00 1.5017631611450513e+01 9.0307870348197898e+00 2.7963539393597941e-01 
186 2 4 1.0332677050232031e+00 -1.3705615075957633e+02 1.0000000000000000e+00 1.8000000000000000e+01 1.0000000000000000e+01 2.5000000000000000e+00 
958 560 2 8.8626015985535855e-01 -2.1676843771472531e+03 1.0000000000000000e+00 1.8958282611172724e+01 8.9692707417805906e+00 2.4999999798479027e+00 
7 2 4 1.0348075978243583e+00 -6.6903179991628315e+02 1.0000000000000000e+00 0.0000000000000000e+00 1.2000000000000000e+01 2.5000000000000000e+00 
8 2 4 1.0295995167145382e+00 3.6702846603258104e+02 1.0000000000000000e+00 0.0000000000000000e+00 1.4000000000000000e+01 2.5000000000000000e+00 
27 2 4 1.0355450933111388e+00 -6.9107740985580551e+02 1.0000000000000000e+00 2.0000000000000000e+00 1.2000000000000000e+01 2.5000000000000000e+00 
28 2 4 1.0267205243771764e+00 2.7531115847454015e+02 1.0000000000000000e+00 2.0000000000000000e+00 1.4000000000000000e+01 2.5000000000000000e+00 
47 2 4 1.0400431351647674e+00 -6.5678615009315911e+02 1.0000000000000000e+00 4.0000000000000000e+00 1.2000000000000000e+01 2.5000000000000000e+00 
48 2 4 1.0098320813540915e+00 -3.7140925339060260e+02 1.0000000000000000e+00 4.0000000000000000e+00 1.4000000000000000e+01 2.5000000000000000e+00 
67 2 4 1.0355631023400742e+00 -5.9503043048731911e+02 1.0000000000000000e+00 6.0000000000000000e+00 1.2000000000000000e+01 2.5000000000000000e+00 
68 2 4 1.0506226733914625e+00 -5.4512020272399764e+02 1.0000000000000000e+00 6.0000000000000000e+00 1.4000000000000000e+01 2.5000000000000000e+00 
87 2 4 1.0430367438344201e+00 -6.0813383148588878e+02 1.0000000000000000e+00 8.0000000000000000e+00 1.2000000000000000e+01 2.5000000000000000e+00 
88 2 4 9.8116499719475625e-01 -3.5764108186979354e+02 1.0000000000000000e+00 8.0000000000000000e+00 1.4000000000000000e+01 2.5000000000000000e+00 
107 2 4 1.0306047026212144e+00 -5.7181122958829053e+02 1.0000000000000000e+00 1.0000000000000000e+01 1.2000000000000000e+01 2.5000000000000000e+00 
108 2 4 1.0680950804299747e+00 -7.6887925870302604e+02 1.0000000000000000e+00 1.0000000000000000e+01 1.4000000000000000e+01 2.5000000000000000e+00 
127 2 4 1.0389657658098137e+00 -6.2786125770296564e+02 1.0000000000000000e+00 1.2000000000000000e+01 1.2000000000000000e+01 2.5000000000000000e+00 
128 2 4 9.7326946451824092e-01 -2.7748388961766506e+02 1.0000000000000000e+00 1.2000000000000000e+01 1.4000000000000000e+01 2.5000000000000000e+00 
147 2 4 1.0368774766803952e+00 -6.2049951301461181e+02 1.0000000000000000e+00 1.4000000000000000e+01 1.2000000000000000e+01 2.5000000000000000e+00 
148 2 4 1.0332573844303705e+00 -3.0845225306301450e+02 1.0000000000000000e+00 1.4000000000000000e+01 1.4000000000000000e+01 2.5000000000000000e+00 
1166 768 2 8.8625719495166411e-01 1.1391115179421303e+02 1.0000000000000000e+00 1.4953492446430959e+01 1.3015803502896949e+01 2.4999999800799468e+00 
167 2 4 1.0260230562996087e+00 -6.3498166200306241e+02 1.0000000000000000e+00 1.6000000000000000e+01 1.2000000000000000e+01 2.5000000000000000e+00 
168 2 4 1.0274344698238520e+00 -4.7599356239400140e+02 1.0000000000000000e+00 1.6000000000000000e+01 1.4000000000000000e+01 2.5000000000000000e+00 
187 2 4 1.0271563495235623e+00 -8.8502009430562822e+01 1.0000000000000000e+00 1.8000000000000000e+01 1.2000000000000000e+01 2.5000000000000000e+00 
188 2 4 1.0292153099379646e+00 -2.4363910622677756e+02 1.0000000000000000e+00 1.8000000000000000e+01 1.4000000000000000e+01 2.5000000000000000e+00 
9 2 4 1.0265700241738569e+00 3.4396962150069123e+02 1.0000000000000000e+00 0.0000000000000000e+00 1.6000000000000000e+01 2.5000000000000000e+00 
29 2 4 1.0303501091882925e+00 3.5260195802536350e+02 1.0000000000000000e+00 2.0000000000000000e+00 1.6000000000000000e+01 2.5000000000000000e+00 
49 2 4 1.0151644952750543e+00 -2.3519274732484564e+02 1.0000000000000000e+00 4.0000000000000000e+00 1.6000000000000000e+01 2.5000000000000000e+00 
1240 842 2 8.8747394208293684e-01 2.0821752382253389e+03 1.0000000000000000e+00 5.3573216010606295e+00 1.5024296356642365e+01 2.4999999798253065e+00 
69 2 4 1.0528508514138475e+00 -1.7857648986920103e+02 1.0000000000000000e+00 6.0000000000000000e+00 1.6000000000000000e+01 2.5000000000000000e+00 
89 2 4 9.7968346636481785e-01 -1.5847888996734957e+02 1.0000000000000000e+00 8.0000000000000000e+00 1.6000000000000000e+01 2.5000000000000000e+00 
109 2 4 1.0621388061059962e+00 -8.8664512658361855e+02 1.0000000000000000e+00 1.0000000000000000e+01 1.6000000000000000e+01 2.5000000000000000e+00 
1432 1034 2 8.9013662759372936e-01 2.9272536738394483e+03 1.0000000000000000e+00 1.0007315204741031e+01 1.4960431167285767e+01 2.4999999796302115e+00 
129 2 4 9.8887876094471872e-01 3.9052429620617630e+01 1.0000000000000000e+00 1.2000000000000000e+01 1.6000000000000000e+01 2.5000000000000000e+00 
149 2 4 1.0487332909794682e+00 1.3830186895184891e+03 1.0000000000000000e+00 1.4000000000000000e+01 1.6000000000000000e+01 2.5000000000000000e+00 
169 2 4 1.0388617423495965e+00 6.8710476885898095e+02 1.0000000000000000e+00 1.6000000000000000e+01 1.6000000000000000e+01 2.5000000000000000e+00 
189 2 4 1.0201697867960124e+00 1.2756155963131169e+01 1.0000000000000000e+00 1.8000000000000000e+01 1.6000000000000000e+01 2.5000000000000000e+00 
10 2 4 1.0265505094326917e+00 -2.2844437508620371e+02 1.0000000000000000e+00 0.0000000000000000e+00 1.8000000000000000e+01 2.5000000000000000e+00 
30 2 4 1.0277843321659219e+00 -2.3590552991245872e+01 1.0000000000000000e+00 2.0000000000000000e+00 1.8000000000000000e+01 2.5000000000000000e+00 
1408 1010 2 1.0267728507442431e+00 2.0458992592347929e+03 1.0000000000000000e+00 3.0315827773368711e+00 1.8521733016326387e+01 1.3214551181602532e+00 
50 2 4 1.0315164388161915e+00 1.0024195608283586e+03 1.0000000000000000e+00 4.0000000000000000e+00 1.8000000000000000e+01 2.5000000000000000e+00 
70 2 4 1.0267170871141216e+00 2.3511939394535757e+03 1.0000000000000000e+00 6.0000000000000000e+00 1.8000000000000000e+01 2.5000000000000000e+00 
90 2 4 1.0372550071993238e+00 1.2169129669383658e+03 1.0000000000000000e+00 8.0000000000000000e+00 1.8000000000000000e+01 2.5000000000000000e+00 
902 504 2 1.0279641281660878e+00 -1.3682660385578235e+03 1.0000000000000000e+00 6.8835630600633548e+00 1.9654017949978346e+01 2.0305930993242172e-01 
899 501 2 1.0268825839633948e+00 7.4082818127848498e+01 1.0000000000000000e+00 7.2131320990004024e+00 1.8406409861190184e+01 5.2570129705121427e-01 
728 330 2 1.0268825839633948e+00 2.9717829714958211e+03 1.0000000000000000e+00 7.2131320990004024e+00 1.8406409861190184e+01 5.2570129705121427e-01 
110 2 4 1.0307615505200536e+00 -2.7496260008347355e+02 1.0000000000000000e+00 1.0000000000000000e+01 1.8000000000000000e+01 2.5000000000000000e+00 
1741 1343 2 8.8639305265167645e-01 3.2886642878997868e+03 1.0000000000000000e+00 1.0973798093302628e+01 1.9119423274464371e+01 2.4999999790553806e+00 
130 2 4 1.0398429128004716e+00 -2.2088888989131586e+01 1.0000000000000000e+00 1.2000000000000000e+01 1.8000000000000000e+01 2.5000000000000000e+00 
150 2 4 1.0322599549058300e+00 1.9349277049773805e+03 1.0000000000000000e+00 1.4000000000000000e+01 1.8000000000000000e+01 2.5000000000000000e+00 
170 2 4 1.0375749001339318e+00 7.6256115649675132e+02 1.0000000000000000e+00 1.6000000000000000e+01 1.8000000000000000e+01 2.5000000000000000e+00 
190 2 4 1.0214869846427399e+00 6.0668887836572674e+02 1.0000000000000000e+00 1.8000000000000000e+01 1.8000000000000000e+01 2.5000000000000000e+00 
1446 1048 2 1.0282661522537202e+00 -3.6987274376565106e+03 1.0000000000000000e+00 1.1189436799849746e+00 2.5591560118429952e+00 3.9593569435411804e+00 
942 544 2 1.0280285160389024e+00 -3.6874323596549980e+03 1.0000000000000000e+00 1.5225741915425681e+00 3.2551029834053202e+00 4.9790300058019863e+00 
1057 659 2 1.0279863375984901e+00 7.1970740578383629e+03 1.0000000000000000e+00 1.0128823106757345e+00 3.7430333682579899e+00 5.3249031877537227e+00 
1561 1163 2 1.0280285160389027e+00 7.2230649964115410e+03 1.0000000000000000e+00 1.5225741915425677e+00 3.2551029834053198e+00 4.9790300058019863e+00 
772 374 2 1.0279863375984897e+00 2.8038465224218749e+03 1.0000000000000000e+00 1.0128823106757197e+00 3.7430333682579944e+00 5.3249031877537272e+00 
1612 1214 2 1.0279863375984901e+00 2.8040893515988278e+03 1.0000000000000000e+00 1.0128823106757447e+00 3.7430333682579846e+00 5.3249031877537210e+00 
455 57 2 1.0280004981632542e+00 -9.7997443884691290e+02 1.0000000000000000e+00 1.9148439620911454e+01 4.9397000254257968e+00 4.7458936132099909e+00 
1986 1588 2 1.0280004981408597e+00 -2.6260719002276678e+03 1.0000000000000000e+00 1.9148436215310248e+01 4.9397063786743525e+00 4.7459023744808748e+00 
463 65 2 1.0279996821043675e+00 -2.3160783909984316e+03 1.0000000000000000e+00 1.7538404906904336e+01 4.9696380100345356e+00 4.9841447263346614e+00 
1975 1577 2 1.0280004981408613e+00 -2.3470826964876082e+03 1.0000000000000000e+00 1.9148436215310220e+01 4.9397063786743933e+00 4.7459023744809343e+00 
1117 719 2 1.0279996821043660e+00 -1.9021304681856805e+03 1.0000000000000000e+00 1.7538404906904358e+01 4.9696380100345126e+00 4.9841447263347050e+00 
1987 1589 2 1.0280004583064959e+00 -2.7482995340337725e+03 1.0000000000000000e+00 1.8016221575001364e+01 5.2558607943656694e+00 5.3403527819018386e+00 
1802 1404 2 1.0279996821043698e+00 -1.7016209653461187e+03 1.0000000000000000e+00 1.7538404908148785e+01 4.9696380116920391e+00 4.9841447286730567e+00 
1749 1351 2 1.0279909997132719e+00 -3.7735199012883622e+03 1.0000000000000000e+00 1.8985111047474149e+01 1.2504117654493561e+01 4.4471944701908930e+00 
1588 1190 2 1.0279909997132719e+00 8.8731798357385615e+03 1.0000000000000000e+00 1.8985111047474149e+01 1.2504117654493561e+01 4.4471944701908930e+00 
1585 1187 2 1.0280462349607173e+00 8.8736419173415925e+03 1.0000000000000000e+00 1.8984650916667981e+01 1.3630578120850801e+01 4.9655398381748235e+00 
482 84 2 1.0280462349607173e+00 3.1502339999415586e+01 1.0000000000000000e+00 1.8984650916667981e+01 1.3630578120850801e+01 4.9655398381748235e+00 
483 85 2 1.0280462349607173e+00 1.9231796634038520e+01 1.0000000000000000e+00 1.8984650916667981e+01 1.3630578120850801e+01 4.9655398381748235e+00 
1752 1354 2 1.0280462349607173e+00 -3.5812120813164565e+03 1.0000000000000000e+00 1.8984650916667981e+01 1.3630578120850801e+01 4.9655398381748235e+00 
579 181 2 1.0277070103970636e+00 5.3973843861667842e+02 1.0000000000000000e+00 9.7800851222118612e-01 1.5004768494491284e+01 4.6813472045212432e+00 
743 345 2 1.0277070103970636e+00 2.5047006977748276e+02 1.0000000000000000e+00 9.7800851222118612e-01 1.5004768494491284e+01 4.6813472045212432e+00 
411 13 2 1.0277070103970636e+00 -1.0389234826799977e+03 1.0000000000000000e+00 9.7800851222118612e-01 1.5004768494491284e+01 4.6813472045212432e+00 
580 182 2 1.0277070103970636e+00 3.1594272229083563e+03 1.0000000000000000e+00 9.7800851222118612e-01 1.5004768494491284e+01 4.6813472045212432e+00 
741 343 2 1.0277070103970636e+00 2.6195175613860965e+03 1.0000000000000000e+00 9.7800851222118612e-01 1.5004768494491284e+01 4.6813472045212432e+00 
424 26 2 1.0218945860475566e+00 3.5088185482543136e+03 1.0000000000000000e+00 1.3806257155423287e+01 1.6919296064657626e+01 4.8340718857877940e+00 
1252 854 2 1.0218945860476294e+00 2.7312363415527325e+03 1.0000000000000000e+00 1.3806257155423397e+01 1.6919296064657850e+01 4.8340718857874796e+00 
913 515 2 1.0218945860476294e+00 3.7110210538462984e+03 1.0000000000000000e+00 1.3806257155423397e+01 1.6919296064657850e+01 4.8340718857874796e+00 
409 11 2 1.0218945860476294e+00 4.2039746951852712e+03 1.0000000000000000e+00 1.3806257155423397e+01 1.6919296064657850e+01 4.8340718857874796e+00 
1577 1179 2 1.0218945860476294e+00 2.5264352345456400e+03 1.0000000000000000e+00 1.3806257155423397e+01 1.6919296064657850e+01 4.8340718857874796e+00 
1757 1359 2 1.0238336318439063e+00 -8.2726799438057390e+02 1.0000000000000000e+00 1.6360335614717442e+01 1.7013593033892295e+01 4.7910682734556280e+00 
425 27 2 1.0262178228506758e+00 1.4059583814302225e+03 1.0000000000000000e+00 1.7054755734290776e+01 1.7016217516218763e+01 4.6464414251203685e+00 
1249 851 2 1.0262178228506758e+00 2.4220539234899866e+03 1.0000000000000000e+00 1.7054755734290776e+01 1.7016217516218763e+01 4.6464414251203685e+00 
1167 769 2 1.0262178228506758e+00 7.5376146327747483e+02 1.0000000000000000e+00 1.7054755734290776e+01 1.7016217516218763e+01 4.6464414251203685e+00 
428 30 2 1.0262178228506758e+00 1.1644556356676308e+03 1.0000000000000000e+00 1.7054755734290776e+01 1.7016217516218763e+01 4.6464414251203685e+00 
1886 1488 2 1.0279999954791237e+00 -1.7962049263408935e+03 1.0000000000000000e+00 1.0242479906841421e+01 5.1705570806743884e-01 8.1158974307763234e+00 
946 548 2 1.0279999971199660e+00 -3.6152285901300165e+03 1.0000000000000000e+00 1.0054181254632351e+01 5.4234510799426972e-01 8.3377796039916721e+00 
1758 1360 2 1.0280000012041783e+00 -2.6213869560648418e+03 1.0000000000000000e+00 9.8408700815372416e+00 4.1443585373810465e-01 8.5147036229078310e+00 
1997 1599 2 1.0280000019307616e+00 2.5436501777536860e+03 1.0000000000000000e+00 1.0554945664436746e+01 1.2236615505088930e-01 8.7155844311854178e+00 
457 59 2 1.0279999975820959e+00 2.1101623906635509e+03 1.0000000000000000e+00 1.0133878862650549e+01 5.4588687724490659e-01 8.4042451060962122e+00 
1150 752 2 1.0279999963502089e+00 -1.2942767349539713e+02 1.0000000000000000e+00 1.7259131837025354e+01 2.4947030905563197e-01 9.4354854997035545e+01 
1318 920 2 1.0279999969954474e+00 -1.2955195423290556e+02 1.0000000000000000e+00 1.7308273196760336e+01 5.0645805015633809e-02 9.4346286868162451e+01 
503 105 2 1.0280000023943066e+00 -1.6962647780099849e+03 1.0000000000000000e+00 1.1419782793824258e+01 1.9641690583419877e+00 9.6551756019090490e+01 
2015 1617 2 1.0280000051854314e+00 -1.6954848266596703e+03 1.0000000000000000e+00 1.0858560927295196e+01 1.3978014842388171e+00 9.6715339082611635e+01 
1857 1459 2 1.0280000001828284e+00 -1.5913993460623694e+03 1.0000000000000000e+00 1.1545621644081011e+01 1.3426754322916246e+00 9.5507100039921099e+01 
681 283 2 1.0279999994012021e+00 -1.5918198972672810e+03 1.0000000000000000e+00 1.1781787044955347e+01 1.9471465808803847e+00 9.5874876281187667e+01 
1006 608 2 1.0280000000210718e+00 -4.5933298252657078e+03 1.0000000000000000e+00 1.2241992731180449e+01 1.7087426420777043e+00 9.5962447954365459e+01 
1510 1112 2 1.0280000023044680e+00 -4.5935044910365923e+03 1.0000000000000000e+00 1.1974697423575281e+01 9.0105446863603056e-01 9.5582170544101217e+01 
1410 1012 2 1.0279999766755201e+00 1.7415405012288836e+03 1.0000000000000000e+00 1.2357745968763158e+01 1.1826396579726635e+00 9.7169765451325347e+01 
1853 1455 2 1.0279999966948283e+00 1.9354032557990433e+03 1.0000000000000000e+00 1.6118382998078072e+01 1.0538776862787791e+00 9.5010871176948456e+01 
1549 1151 2 1.0280000013592290e+00 2.9784135959780028e+03 1.0000000000000000e+00 1.5871623036756594e+01 1.3323535797767709e+00 9.5742698544087361e+01 
511 113 2 1.0280000021927178e+00 -6.2252997771824244e+02 1.0000000000000000e+00 1.5946936247463377e+01 1.4136436973208497e+00 9.6034472198217287e+01 
988 590 2 1.0280000155649283e+00 8.9940009336997646e+03 1.0000000000000000e+00 1.6113945880509881e+01 1.1521208884755729e+00 9.7069067687043102e+01 
1849 1451 2 1.0279999936681419e+00 -1.2853011598193839e+03 1.0000000000000000e+00 1.8533913648500654e+01 7.7655384638576874e-01 9.5935638492026087e+01 
1852 1454 2 1.0279999935371822e+00 -1.2852872664677325e+03 1.0000000000000000e+00 1.7961427567813129e+01 9.2182412128288804e-01 9.5934927768932866e+01 
1570 1172 2 1.0280007959016000e+00 -1.1865989352939903e+03 1.0000000000000000e+00 8.6141600674582488e+00 2.6881591590817129e+00 9.9995176610894816e+01 
1845 1447 2 1.0280000569677519e+00 -1.6046494479773722e+02 1.0000000000000000e+00 1.4088931908377509e+01 4.5595360220394765e-01 9.9691258611539425e+01 
1522 1124 2 1.0280000570572008e+00 -2.4125416388218118e+03 1.0000000000000000e+00 1.4090352040266703e+01 4.5865802668480754e-01 9.9693561579856834e+01 
1018 620 2 1.0280000570583478e+00 -2.4379935798323531e+03 1.0000000000000000e+00 1.4090369857272053e+01 4.5869171037637574e-01 9.9693590493557167e+01 
820 422 2 1.0279999562858100e+00 3.9657536519009900e+03 1.0000000000000000e+00 1.3951956640753590e+01 7.6223583197025269e-02 9.7967159527852786e+01 
1660 1262 2 1.0280000027552327e+00 3.9656289776074386e+03 1.0000000000000000e+00 1.3969761293255200e+01 1.8588194491462966e-02 9.7894529222453258e+01 
1000 602 2 1.0279999895047529e+00 6.3027633011283915e+03 1.0000000000000000e+00 1.5336701278272290e+01 9.5643204532939996e-01 9.7852922521516462e+01 