LAMMPS data file via write_data, version 30 Jul 2016, timestep = 50400000

180 atoms
2 atom types

0.0000000000000000e+00 2.0000000000000000e+01 xlo xhi
0.0000000000000000e+00 2.0000000000000000e+01 ylo yhi
0.0000000000000000e+00 2.0000000000000000e+01 zlo zhi

Masses

1 3.896
2 4.31

Atoms # meso-molecular

37 1 2 8.5968019146984509e-01 -4.4357351781383875e+02 1.0000000000000000e+00 7.5345438284970507e+00 2.8469962846431467e+00 2.4435269731358340e+00 
38 1 2 8.5968019146984509e-01 -5.1281584200267844e+02 1.0000000000000000e+00 7.5345438284970507e+00 2.8469962846431462e+00 2.4435269731358340e+00 
44 1 2 8.5968019146984509e-01 -5.7028425817572065e+02 1.0000000000000000e+00 7.5345438284970507e+00 2.8469962846431467e+00 2.4435269731358336e+00 
73 1 2 8.5968019146984509e-01 -3.8833823665283114e+02 1.0000000000000000e+00 7.5345438284970507e+00 2.8469962846431462e+00 2.4435269731358340e+00 
74 1 2 8.5968019146984509e-01 -3.9688845508046512e+02 1.0000000000000000e+00 7.5345438284970507e+00 2.8469962846431458e+00 2.4435269731358344e+00 
9 1 2 8.5968019146984509e-01 -5.7487440357582796e+02 1.0000000000000000e+00 7.5345438284970507e+00 2.8469962846431462e+00 2.4435269731358340e+00 
2 1 2 8.5968019146984509e-01 -6.5504312581874399e+02 1.0000000000000000e+00 7.5345438284970507e+00 2.8469962846431467e+00 2.4435269731358344e+00 
1 1 2 8.5968019146984509e-01 -5.2335589260237180e+02 1.0000000000000000e+00 7.5345438284970507e+00 2.8469962846431458e+00 2.4435269731358340e+00 
7 1 2 8.5968019146984509e-01 -4.2873906142272227e+02 1.0000000000000000e+00 7.5345438284970507e+00 2.8469962846431462e+00 2.4435269731358340e+00 
8 1 2 8.5968019146984509e-01 -4.8264265629399370e+02 1.0000000000000000e+00 7.5345438284970507e+00 2.8469962846431467e+00 2.4435269731358336e+00 
39 1 2 8.5968019146984509e-01 -5.0966458655475765e+02 1.0000000000000000e+00 7.5345438284970507e+00 2.8469962846431462e+00 2.4435269731358340e+00 
33 1 2 8.5968019146984509e-01 -6.0890528888475660e+02 1.0000000000000000e+00 7.5345438284970507e+00 2.8469962846431462e+00 2.4435269731358336e+00 
3 1 2 8.5968019146984509e-01 -5.4658587478686468e+02 1.0000000000000000e+00 7.5345438284970507e+00 2.8469962846431458e+00 2.4435269731358340e+00 
75 1 2 8.5968019146984509e-01 -3.6057755122254997e+02 1.0000000000000000e+00 7.5345438284970507e+00 2.8469962846431462e+00 2.4435269731358344e+00 
43 1 2 8.5968019146984509e-01 -4.7007266040025661e+02 1.0000000000000000e+00 7.5345438284970507e+00 2.8469962846431462e+00 2.4435269731358340e+00 
13 1 2 8.5968019146984509e-01 -4.4835194026387165e+02 1.0000000000000000e+00 7.5345438284970507e+00 2.8469962846431462e+00 2.4435269731358340e+00 
48 1 2 8.5968019146984509e-01 -4.5330241779528887e+02 1.0000000000000000e+00 7.5345438284970507e+00 2.8469962846431462e+00 2.4435269731358331e+00 
12 1 2 8.5968019146984509e-01 -4.8147491128541122e+02 1.0000000000000000e+00 7.5345438284970507e+00 2.8469962846431462e+00 2.4435269731358331e+00 
6 1 2 8.5968019146984509e-01 -6.2514580545192473e+02 1.0000000000000000e+00 7.5345438284970507e+00 2.8469962846431462e+00 2.4435269731358336e+00 
42 1 2 8.5968019146984509e-01 -4.2382950622773990e+02 1.0000000000000000e+00 7.5345438284970507e+00 2.8469962846431462e+00 2.4435269731358340e+00 
160 1 2 1.0280014395447736e+00 -5.5744213931825459e+02 1.0000000000000000e+00 1.3070642067639307e+01 8.1683800930208044e+00 7.0712964112822316e+00 
153 1 2 1.0280014395447736e+00 -4.1191540719412563e+02 1.0000000000000000e+00 1.3070642067639305e+01 8.1683800930208026e+00 7.0712964112822290e+00 
157 1 2 1.0280014395447730e+00 -5.4323919129900435e+02 1.0000000000000000e+00 1.3070642067639305e+01 8.1683800930208008e+00 7.0712964112822387e+00 
31 1 2 1.0280014395447739e+00 -4.8942223970803224e+02 1.0000000000000000e+00 1.3070642067639312e+01 8.1683800930208079e+00 7.0712964112822219e+00 
86 1 2 1.0280014395447741e+00 -4.4618319043980154e+02 1.0000000000000000e+00 1.3070642067639298e+01 8.1683800930208044e+00 7.0712964112822245e+00 
103 1 2 1.0280014395447739e+00 -3.8399666145829121e+02 1.0000000000000000e+00 1.3070642067639298e+01 8.1683800930208008e+00 7.0712964112822219e+00 
159 1 2 1.0280014395447736e+00 -6.0026605432322833e+02 1.0000000000000000e+00 1.3070642067639282e+01 8.1683800930207990e+00 7.0712964112822441e+00 
108 1 2 1.0280014395447727e+00 -4.2100163602372822e+02 1.0000000000000000e+00 1.3070642067639303e+01 8.1683800930207848e+00 7.0712964112822174e+00 
26 1 2 1.0280014395447727e+00 -5.2164610138448802e+02 1.0000000000000000e+00 1.3070642067639303e+01 8.1683800930207848e+00 7.0712964112822174e+00 
25 1 2 1.0280014395447727e+00 -4.0168400900727238e+02 1.0000000000000000e+00 1.3070642067639303e+01 8.1683800930207848e+00 7.0712964112822174e+00 
62 1 2 1.0280014395447727e+00 -4.5693453461962639e+02 1.0000000000000000e+00 1.3070642067639303e+01 8.1683800930207848e+00 7.0712964112822174e+00 
97 1 2 1.0280014395447727e+00 -4.9470449311175389e+02 1.0000000000000000e+00 1.3070642067639303e+01 8.1683800930207848e+00 7.0712964112822174e+00 
67 1 2 1.0280014395447727e+00 -4.6341280083782806e+02 1.0000000000000000e+00 1.3070642067639303e+01 8.1683800930207848e+00 7.0712964112822174e+00 
68 1 2 1.0280014395447727e+00 -4.2469029570483264e+02 1.0000000000000000e+00 1.3070642067639303e+01 8.1683800930207848e+00 7.0712964112822174e+00 
32 1 2 1.0280014395447727e+00 -4.5706911297452876e+02 1.0000000000000000e+00 1.3070642067639303e+01 8.1683800930207848e+00 7.0712964112822174e+00 
45 1 2 1.0280014395447732e+00 -4.9719790993008206e+02 1.0000000000000000e+00 1.3070642067639316e+01 8.1683800930208008e+00 7.0712964112822263e+00 
87 1 2 1.0280014395447736e+00 -4.3476301550696246e+02 1.0000000000000000e+00 1.3070642067639300e+01 8.1683800930207955e+00 7.0712964112822156e+00 
146 1 2 1.0280014395447736e+00 -5.6352748962353314e+02 1.0000000000000000e+00 1.3070642067639307e+01 8.1683800930208008e+00 7.0712964112822227e+00 
127 1 2 1.0280014395447734e+00 -4.4818275764092908e+02 1.0000000000000000e+00 1.3070642067639298e+01 8.1683800930207902e+00 7.0712964112822121e+00 
122 1 2 1.0280014395447739e+00 -4.3285597223478385e+02 1.0000000000000000e+00 1.3070642067639293e+01 8.1683800930207990e+00 7.0712964112822254e+00 
123 1 2 1.0280014395447730e+00 -4.5808198459096150e+02 1.0000000000000000e+00 1.3070642067639300e+01 8.1683800930207955e+00 7.0712964112822325e+00 
163 1 2 1.0280014395447736e+00 -4.0716134604736453e+02 1.0000000000000000e+00 1.3070642067639300e+01 8.1683800930207990e+00 7.0712964112822219e+00 
128 1 2 1.0280014395447739e+00 -3.8673402363834788e+02 1.0000000000000000e+00 1.3070642067639307e+01 8.1683800930208008e+00 7.0712964112822174e+00 
40 1 2 3.4387207658793811e-01 -2.6657072686515176e+02 1.0000000000000000e+00 6.7554724614918156e+00 2.5919951666037457e+00 1.2626734977793687e+01 
41 1 2 3.4387207658793811e-01 -2.7108578083827410e+02 1.0000000000000000e+00 6.7554724614918307e+00 2.5919951666037448e+00 1.2626734977793671e+01 
46 1 2 3.4387207658793811e-01 -3.2866202377359542e+02 1.0000000000000000e+00 6.7554724614918218e+00 2.5919951666037484e+00 1.2626734977793689e+01 
47 1 2 3.4387207658793811e-01 -2.5344618845089065e+02 1.0000000000000000e+00 6.7554724614918191e+00 2.5919951666037431e+00 1.2626734977793687e+01 
11 1 2 3.4387207658793811e-01 -2.5469083624241529e+02 1.0000000000000000e+00 6.7554724614918120e+00 2.5919951666037484e+00 1.2626734977793657e+01 
4 1 2 3.4387207658793811e-01 -2.9147397811211698e+02 1.0000000000000000e+00 6.7554724614918165e+00 2.5919951666037466e+00 1.2626734977793715e+01 
5 1 2 3.4387207658793811e-01 -2.8141412251506699e+02 1.0000000000000000e+00 6.7554724614918156e+00 2.5919951666037431e+00 1.2626734977793687e+01 
10 1 2 3.4387207658793811e-01 -3.9186416752150274e+02 1.0000000000000000e+00 6.7554724614918191e+00 2.5919951666037426e+00 1.2626734977793648e+01 
50 1 2 1.0280150234237100e+00 -3.3769516637120608e+02 1.0000000000000000e+00 9.7278774966495707e+00 1.5658253021575785e+01 3.6538569850956515e+00 
64 1 2 1.0280150234237106e+00 -4.2587975780813002e+02 1.0000000000000000e+00 9.7278774966495618e+00 1.5658253021575758e+01 3.6538569850956417e+00 
27 1 2 1.0280150234237100e+00 -4.5461446048164532e+02 1.0000000000000000e+00 9.7278774966495778e+00 1.5658253021575790e+01 3.6538569850956506e+00 
59 1 2 1.0280150234237106e+00 -3.0515404483779099e+02 1.0000000000000000e+00 9.7278774966495547e+00 1.5658253021575755e+01 3.6538569850956359e+00 
63 1 2 1.0280150234237100e+00 -4.3278848518995227e+02 1.0000000000000000e+00 9.7278774966495849e+00 1.5658253021575792e+01 3.6538569850956399e+00 
20 1 2 1.0280150234237106e+00 -4.1822492025704395e+02 1.0000000000000000e+00 9.7278774966495618e+00 1.5658253021575753e+01 3.6538569850956342e+00 
21 1 2 1.0280150234237106e+00 -3.6658925226990027e+02 1.0000000000000000e+00 9.7278774966495547e+00 1.5658253021575764e+01 3.6538569850956462e+00 
57 1 2 1.0280150234237106e+00 -3.8167138521039197e+02 1.0000000000000000e+00 9.7278774966495583e+00 1.5658253021575760e+01 3.6538569850956364e+00 
15 1 2 1.0280150234237100e+00 -3.4321770085637502e+02 1.0000000000000000e+00 9.7278774966495529e+00 1.5658253021575764e+01 3.6538569850956404e+00 
51 1 2 1.0280150234237106e+00 -3.3757968669758191e+02 1.0000000000000000e+00 9.7278774966495565e+00 1.5658253021575760e+01 3.6538569850956422e+00 
69 1 2 1.0280150234237106e+00 -4.5181274144158419e+02 1.0000000000000000e+00 9.7278774966495689e+00 1.5658253021575762e+01 3.6538569850956328e+00 
93 1 2 1.0280150234237106e+00 -3.1730437294531123e+02 1.0000000000000000e+00 9.7278774966495636e+00 1.5658253021575758e+01 3.6538569850956315e+00 
98 1 2 1.0280150234237106e+00 -3.4529671954783942e+02 1.0000000000000000e+00 9.7278774966495583e+00 1.5658253021575756e+01 3.6538569850956377e+00 
52 1 2 1.0280150234237106e+00 -3.4893438132454190e+02 1.0000000000000000e+00 9.7278774966495529e+00 1.5658253021575758e+01 3.6538569850956382e+00 
92 1 2 1.0280150234237106e+00 -3.1661089350363875e+02 1.0000000000000000e+00 9.7278774966495671e+00 1.5658253021575758e+01 3.6538569850956231e+00 
16 1 2 1.0280150234237106e+00 -3.9351769922713964e+02 1.0000000000000000e+00 9.7278774966495583e+00 1.5658253021575762e+01 3.6538569850956377e+00 
22 1 2 1.0280150234237106e+00 -3.8112198074449537e+02 1.0000000000000000e+00 9.7278774966495511e+00 1.5658253021575760e+01 3.6538569850956426e+00 
23 1 2 1.0280150234237106e+00 -4.6558640569669387e+02 1.0000000000000000e+00 9.7278774966495583e+00 1.5658253021575760e+01 3.6538569850956364e+00 
53 1 2 1.0280150234237106e+00 -3.4062886731359646e+02 1.0000000000000000e+00 9.7278774966495600e+00 1.5658253021575758e+01 3.6538569850956359e+00 
58 1 2 1.0280150234237106e+00 -3.4288488229047960e+02 1.0000000000000000e+00 9.7278774966495600e+00 1.5658253021575755e+01 3.6538569850956319e+00 
17 1 2 1.0280150234237106e+00 -3.6022358058976960e+02 1.0000000000000000e+00 9.7278774966495671e+00 1.5658253021575751e+01 3.6538569850956235e+00 
56 1 2 1.0280150234237106e+00 -3.8719073015684756e+02 1.0000000000000000e+00 9.7278774966495565e+00 1.5658253021575755e+01 3.6538569850956386e+00 
14 1 2 1.0280150234237106e+00 -3.8907256483768248e+02 1.0000000000000000e+00 9.7278774966495565e+00 1.5658253021575755e+01 3.6538569850956413e+00 
110 1 2 1.0279798705950263e+00 -3.9630614407290489e+02 1.0000000000000000e+00 1.1405419875153784e+01 1.1917139030270617e+01 5.3647235683815309e+00 
158 1 2 1.0279798705950263e+00 -4.8393662922427876e+02 1.0000000000000000e+00 1.1405419875153784e+01 1.1917139030270617e+01 5.3647235683815309e+00 
104 1 2 1.0279798705950263e+00 -3.1740916733024096e+02 1.0000000000000000e+00 1.1405419875153784e+01 1.1917139030270617e+01 5.3647235683815309e+00 
170 1 2 1.0279798705950263e+00 -3.6883368554313302e+02 1.0000000000000000e+00 1.1405419875153784e+01 1.1917139030270617e+01 5.3647235683815309e+00 
144 1 2 1.0279798705950263e+00 -5.6637142901258233e+02 1.0000000000000000e+00 1.1405419875153784e+01 1.1917139030270617e+01 5.3647235683815309e+00 
109 1 2 1.0279798705950263e+00 -3.8421766364294808e+02 1.0000000000000000e+00 1.1405419875153784e+01 1.1917139030270617e+01 5.3647235683815309e+00 
176 1 2 1.0279798705950263e+00 -4.5510076453775810e+02 1.0000000000000000e+00 1.1405419875153784e+01 1.1917139030270617e+01 5.3647235683815309e+00 
140 1 2 1.0279798705950263e+00 -3.0380607847956890e+02 1.0000000000000000e+00 1.1405419875153784e+01 1.1917139030270617e+01 5.3647235683815309e+00 
175 1 2 1.0279798705950263e+00 -5.9185357556436873e+02 1.0000000000000000e+00 1.1405419875153784e+01 1.1917139030270617e+01 5.3647235683815309e+00 
133 1 2 1.0279798705950263e+00 -4.9335141354858695e+02 1.0000000000000000e+00 1.1405419875153784e+01 1.1917139030270617e+01 5.3647235683815309e+00 
139 1 2 1.0279798705950263e+00 -4.2552816947793087e+02 1.0000000000000000e+00 1.1405419875153784e+01 1.1917139030270617e+01 5.3647235683815309e+00 
134 1 2 1.0279798705950263e+00 -3.3438608744666220e+02 1.0000000000000000e+00 1.1405419875153784e+01 1.1917139030270617e+01 5.3647235683815309e+00 
147 1 2 1.0279798705950263e+00 -4.3337530500807765e+02 1.0000000000000000e+00 1.1405419875153784e+01 1.1917139030270617e+01 5.3647235683815309e+00 
80 1 2 1.0279798705950263e+00 -4.5467953689003900e+02 1.0000000000000000e+00 1.1405419875153784e+01 1.1917139030270617e+01 5.3647235683815309e+00 
117 1 2 1.0279798705950263e+00 -3.7062108392845380e+02 1.0000000000000000e+00 1.1405419875153784e+01 1.1917139030270617e+01 5.3647235683815309e+00 
124 1 2 1.0279798705950263e+00 -4.8524384541516929e+02 1.0000000000000000e+00 1.1405419875153784e+01 1.1917139030270617e+01 5.3647235683815309e+00 
152 1 2 1.0279798705950263e+00 -5.2364907830653124e+02 1.0000000000000000e+00 1.1405419875153784e+01 1.1917139030270617e+01 5.3647235683815309e+00 
116 1 2 1.0279798705950263e+00 -3.9909429138440612e+02 1.0000000000000000e+00 1.1405419875153784e+01 1.1917139030270617e+01 5.3647235683815309e+00 
81 1 2 1.0279798705950263e+00 -4.4601794995102671e+02 1.0000000000000000e+00 1.1405419875153784e+01 1.1917139030270617e+01 5.3647235683815309e+00 
169 1 2 1.0279798705950263e+00 -3.8590024041887540e+02 1.0000000000000000e+00 1.1405419875153784e+01 1.1917139030270617e+01 5.3647235683815309e+00 
165 1 2 1.0279798705950263e+00 -5.1451057189345079e+02 1.0000000000000000e+00 1.1405419875153784e+01 1.1917139030270617e+01 5.3647235683815309e+00 
164 1 2 1.0279798705950263e+00 -4.0504153307438514e+02 1.0000000000000000e+00 1.1405419875153784e+01 1.1917139030270617e+01 5.3647235683815309e+00 
91 1 2 8.5968019146984509e-01 -4.2532847398426793e+02 1.0000000000000000e+00 7.1747469509573270e+00 1.2486880482486155e+01 1.6606619390764131e+01 
66 1 2 8.5968019146984509e-01 -4.0654419787411422e+02 1.0000000000000000e+00 7.1747469509573252e+00 1.2486880482486152e+01 1.6606619390764134e+01 
34 1 2 8.5968019146984509e-01 -4.7427877863009309e+02 1.0000000000000000e+00 7.1747469509573261e+00 1.2486880482486155e+01 1.6606619390764138e+01 
54 1 2 8.5968019146984509e-01 -4.5992096536259572e+02 1.0000000000000000e+00 7.1747469509573252e+00 1.2486880482486153e+01 1.6606619390764131e+01 
70 1 2 8.5968019146984509e-01 -4.7853684755449729e+02 1.0000000000000000e+00 7.1747469509573270e+00 1.2486880482486157e+01 1.6606619390764138e+01 
28 1 2 8.5968019146984509e-01 -5.5086690251349910e+02 1.0000000000000000e+00 7.1747469509573278e+00 1.2486880482486157e+01 1.6606619390764138e+01 
71 1 2 8.5968019146984509e-01 -4.8986006383762123e+02 1.0000000000000000e+00 7.1747469509573278e+00 1.2486880482486155e+01 1.6606619390764131e+01 
35 1 2 8.5968019146984509e-01 -5.4397995353293891e+02 1.0000000000000000e+00 7.1747469509573270e+00 1.2486880482486155e+01 1.6606619390764131e+01 
29 1 2 8.5968019146984509e-01 -5.2154166076149988e+02 1.0000000000000000e+00 7.1747469509573270e+00 1.2486880482486157e+01 1.6606619390764131e+01 
18 1 2 8.5968019146984509e-01 -5.7238050923987691e+02 1.0000000000000000e+00 7.1747469509573270e+00 1.2486880482486155e+01 1.6606619390764131e+01 
65 1 2 8.5968019146984509e-01 -4.3687386530304514e+02 1.0000000000000000e+00 7.1747469509573270e+00 1.2486880482486155e+01 1.6606619390764131e+01 
36 1 2 8.5968019146984509e-01 -5.1896668307075197e+02 1.0000000000000000e+00 7.1747469509573270e+00 1.2486880482486155e+01 1.6606619390764131e+01 
55 1 2 8.5968019146984509e-01 -4.1002255179963748e+02 1.0000000000000000e+00 7.1747469509573261e+00 1.2486880482486153e+01 1.6606619390764131e+01 
24 1 2 8.5968019146984509e-01 -4.3459860456288732e+02 1.0000000000000000e+00 7.1747469509573261e+00 1.2486880482486157e+01 1.6606619390764131e+01 
49 1 2 8.5968019146984509e-01 -4.2407783947981892e+02 1.0000000000000000e+00 7.1747469509573270e+00 1.2486880482486155e+01 1.6606619390764134e+01 
72 1 2 8.5968019146984509e-01 -3.9970585992221748e+02 1.0000000000000000e+00 7.1747469509573270e+00 1.2486880482486157e+01 1.6606619390764134e+01 
61 1 2 8.5968019146984509e-01 -3.8267255595556975e+02 1.0000000000000000e+00 7.1747469509573270e+00 1.2486880482486155e+01 1.6606619390764134e+01 
60 1 2 8.5968019146984509e-01 -3.9234541337252915e+02 1.0000000000000000e+00 7.1747469509573270e+00 1.2486880482486157e+01 1.6606619390764134e+01 
30 1 2 8.5968019146984509e-01 -4.6439761524054097e+02 1.0000000000000000e+00 7.1747469509573270e+00 1.2486880482486155e+01 1.6606619390764134e+01 
19 1 2 8.5968019146984509e-01 -4.8605254951065456e+02 1.0000000000000000e+00 7.1747469509573270e+00 1.2486880482486157e+01 1.6606619390764134e+01 
83 1 2 1.0279998625777105e+00 -3.8911820718037012e+02 1.0000000000000000e+00 1.8235262637043650e+01 6.0530651018971469e+00 1.4596339258242718e+01 
161 1 2 1.0279998625792444e+00 -4.2313277150907743e+02 1.0000000000000000e+00 1.8236338397817590e+01 6.0535799859060218e+00 1.4596272810116218e+01 
155 1 2 1.0279998625777749e+00 -5.2937481133608549e+02 1.0000000000000000e+00 1.8235773402708801e+01 6.0526859384979517e+00 1.4596232150800439e+01 
112 1 2 1.0279998625787603e+00 -4.7230648140753766e+02 1.0000000000000000e+00 1.8235580385562496e+01 6.0535402388655282e+00 1.4596358634746116e+01 
154 1 2 1.0279998625770153e+00 -5.0091952618427274e+02 1.0000000000000000e+00 1.8235457343628280e+01 6.0533576517282812e+00 1.4596351254834477e+01 
148 1 2 1.0279998625789395e+00 -4.7915876041530578e+02 1.0000000000000000e+00 1.8235460381759129e+01 6.0533126266490820e+00 1.4596345431133972e+01 
149 1 2 1.0279998625790145e+00 -4.3204292094025379e+02 1.0000000000000000e+00 1.8235508885052507e+01 6.0533633977234240e+00 1.4596345757887153e+01 
118 1 2 1.0279998625787867e+00 -3.9144142542053697e+02 1.0000000000000000e+00 1.8235591029918790e+01 6.0536216677895842e+00 1.4596367252961164e+01 
77 1 2 1.0279998625780047e+00 -3.6161331745847929e+02 1.0000000000000000e+00 1.8236140727837380e+01 6.0541965537234512e+00 1.4596371539144146e+01 
76 1 2 1.0279998625776607e+00 -3.4395195501282865e+02 1.0000000000000000e+00 1.8236201472550864e+01 6.0542794132451228e+00 1.4596374424696174e+01 
82 1 2 1.0279998625777718e+00 -3.9012028009071173e+02 1.0000000000000000e+00 1.8236032063572498e+01 6.0540584184281441e+00 1.4596367640767415e+01 
113 1 2 1.0279998625788005e+00 -4.8330643222246601e+02 1.0000000000000000e+00 1.8235996948943985e+01 6.0540235170075114e+00 1.4596367577365037e+01 
119 1 2 1.0279998625783420e+00 -4.2110436467879629e+02 1.0000000000000000e+00 1.8235878849685786e+01 6.0543168841204809e+00 1.4596417567215166e+01 
111 1 2 1.0279998625776634e+00 -3.3477877521483026e+02 1.0000000000000000e+00 1.8234795653649584e+01 6.0538919110180869e+00 1.4596496021750495e+01 
151 1 2 1.0279998625834470e+00 -4.4079864128509689e+02 1.0000000000000000e+00 1.8233732293081488e+01 6.0588384227105445e+00 1.4597243485409342e+01 
84 1 2 1.0280001374219194e+00 -3.7488185323737895e+02 1.0000000000000000e+00 1.8483415666417368e+01 5.8020348348861237e+00 1.6661692596993980e+01 
125 1 2 1.0280001374225247e+00 -3.6317435064935313e+02 1.0000000000000000e+00 1.8483650332735984e+01 5.8006392101914415e+00 1.6661493054725543e+01 
126 1 2 1.0280001374214021e+00 -4.7026693979656397e+02 1.0000000000000000e+00 1.8483659599140033e+01 5.8019602683155007e+00 1.6661654214481793e+01 
121 1 2 1.0280001374211512e+00 -5.2312330523598564e+02 1.0000000000000000e+00 1.8483771231988637e+01 5.8019240719560630e+00 1.6661636369643475e+01 
115 1 2 1.0280001374212175e+00 -5.1035836079586733e+02 1.0000000000000000e+00 1.8483797560122703e+01 5.8019022850711526e+00 1.6661630540750199e+01 
120 1 2 1.0280001374220928e+00 -4.3594308072657958e+02 1.0000000000000000e+00 1.8483572282438882e+01 5.8020086420229697e+00 1.6661670607735783e+01 
156 1 2 1.0280001374214300e+00 -5.0815316017015863e+02 1.0000000000000000e+00 1.8483852336835991e+01 5.8018953609486195e+00 1.6661623099510773e+01 
150 1 2 1.0280001374241892e+00 -4.3927368843712009e+02 1.0000000000000000e+00 1.8483869847926847e+01 5.8019155624161360e+00 1.6661623456840296e+01 
162 1 2 1.0280001374209737e+00 -5.1698513321630060e+02 1.0000000000000000e+00 1.8483898472291749e+01 5.8018731135423689e+00 1.6661614824398622e+01 
114 1 2 1.0280001374212389e+00 -4.0172490304046153e+02 1.0000000000000000e+00 1.8483955852654297e+01 5.8019193579634329e+00 1.6661613555134238e+01 
79 1 2 1.0280001374220462e+00 -3.5575023000988818e+02 1.0000000000000000e+00 1.8483695589679218e+01 5.8019322428398379e+00 1.6661646466802740e+01 
85 1 2 1.0280001374220149e+00 -3.6257411526080625e+02 1.0000000000000000e+00 1.8483694623212209e+01 5.8019364610736206e+00 1.6661647097918326e+01 
145 1 2 1.0280001374219914e+00 -3.9279274707656833e+02 1.0000000000000000e+00 1.8483001703190062e+01 5.8023813639519348e+00 1.6661784310557099e+01 
90 1 2 1.0280001374206951e+00 -3.9818757999571449e+02 1.0000000000000000e+00 1.8483179588233028e+01 5.8021611550588297e+00 1.6661736264305009e+01 
78 1 2 1.0280001374206182e+00 -3.5805359528191121e+02 1.0000000000000000e+00 1.8482033967316550e+01 5.8026590071402389e+00 1.6661932974216075e+01 
167 1 2 1.0279999982607564e+00 -6.0186720821262804e+02 1.0000000000000000e+00 1.3548913629472237e+01 9.8719888076650530e+00 1.5392173086627526e+01 
143 1 2 1.0279999982595449e+00 -5.2287812002681801e+02 1.0000000000000000e+00 1.3548914160311972e+01 9.8719894954864049e+00 1.5392173291493684e+01 
95 1 2 1.0279999982589600e+00 -4.0881266622752969e+02 1.0000000000000000e+00 1.3548914518556833e+01 9.8719897532610652e+00 1.5392173388714957e+01 
101 1 2 1.0279999982588814e+00 -4.1298872379933391e+02 1.0000000000000000e+00 1.3548914559755783e+01 9.8719897822613287e+00 1.5392173399767552e+01 
180 1 2 1.0279999982586074e+00 -6.0917121668469554e+02 1.0000000000000000e+00 1.3548914703522126e+01 9.8719899154865640e+00 1.5392173444703131e+01 
96 1 2 1.0279999982585148e+00 -4.2375376083312972e+02 1.0000000000000000e+00 1.3548914731921391e+01 9.8719899727333011e+00 1.5392173459728511e+01 
132 1 2 1.0279999982584576e+00 -5.2929995350684328e+02 1.0000000000000000e+00 1.3548914740589902e+01 9.8719900037361015e+00 1.5392173467004467e+01 
102 1 2 1.0279999982582850e+00 -4.0175503569193972e+02 1.0000000000000000e+00 1.3548914862613479e+01 9.8719900986766227e+00 1.5392173501538389e+01 
137 1 2 1.0279999982580790e+00 -5.4907940638209482e+02 1.0000000000000000e+00 1.3548914949779610e+01 9.8719901957976148e+00 1.5392173532032674e+01 
138 1 2 1.0279999982576147e+00 -4.9766619085660227e+02 1.0000000000000000e+00 1.3548915181161600e+01 9.8719904182388962e+00 1.5392173605948489e+01 
168 1 2 1.0279999982575989e+00 -5.3153954757180713e+02 1.0000000000000000e+00 1.3548915230329978e+01 9.8719904908798526e+00 1.5392173626699064e+01 
174 1 2 1.0279999982574668e+00 -4.9766306494311101e+02 1.0000000000000000e+00 1.3548915263753299e+01 9.8719905173192046e+00 1.5392173636244905e+01 
131 1 2 1.0279999982561328e+00 -5.0338164065701608e+02 1.0000000000000000e+00 1.3548915972278794e+01 9.8719910186412392e+00 1.5392173826836052e+01 
94 1 2 1.0279999982562773e+00 -4.4008418021845364e+02 1.0000000000000000e+00 1.3548915851599467e+01 9.8719910510303936e+00 1.5392173817787638e+01 
89 1 2 1.0279999982548145e+00 -4.6290812018080271e+02 1.0000000000000000e+00 1.3548916614314509e+01 9.8719917775754542e+00 1.5392174060105789e+01 
179 1 2 1.0279999982547796e+00 -4.0078076498365573e+02 1.0000000000000000e+00 1.3548916644746217e+01 9.8719918073231128e+00 1.5392174069924856e+01 
173 1 2 1.0279999982329526e+00 -5.3353982343000393e+02 1.0000000000000000e+00 1.3548927682546983e+01 9.8720020357134750e+00 1.5392177519694881e+01 
178 1 2 1.0279999982540997e+00 -4.7553939355199401e+02 1.0000000000000000e+00 1.3885142291108068e+01 1.0392845419160624e+01 1.2772111414368284e+01 
130 1 2 1.0279999982592940e+00 -4.2196590068703637e+02 1.0000000000000000e+00 1.3885144289493212e+01 1.0392848324082552e+01 1.2772112248321257e+01 
99 1 2 1.0279999982596324e+00 -3.2944254004500692e+02 1.0000000000000000e+00 1.3885144237488566e+01 1.0392848556233389e+01 1.2772112287799802e+01 
135 1 2 1.0279999982592181e+00 -3.7834090676865344e+02 1.0000000000000000e+00 1.3885143984348504e+01 1.0392848379456741e+01 1.2772112220170344e+01 
177 1 2 1.0279999982592147e+00 -4.5136501944504005e+02 1.0000000000000000e+00 1.3885143977285489e+01 1.0392848379415156e+01 1.2772112219255677e+01 
172 1 2 1.0279999982619046e+00 -5.0454632826952235e+02 1.0000000000000000e+00 1.3885147141338349e+01 1.0392849114273544e+01 1.2772112771398286e+01 
171 1 2 1.0279999982591352e+00 -3.9560773827458968e+02 1.0000000000000000e+00 1.3885143979198721e+01 1.0392848381306248e+01 1.2772112219876773e+01 
105 1 2 1.0279999982591541e+00 -3.5227939232682894e+02 1.0000000000000000e+00 1.3885143993731086e+01 1.0392848372400863e+01 1.2772112219971417e+01 
129 1 2 1.0279999982592787e+00 -3.4231010121577111e+02 1.0000000000000000e+00 1.3885144000297879e+01 1.0392848404695004e+01 1.2772112227234642e+01 
141 1 2 1.0279999982592418e+00 -3.6101442862141744e+02 1.0000000000000000e+00 1.3885143983704795e+01 1.0392848375141757e+01 1.2772112219230046e+01 
88 1 2 1.0279999982592880e+00 -3.6815331390383926e+02 1.0000000000000000e+00 1.3885144650193860e+01 1.0392848177685181e+01 1.2772112265506308e+01 
107 1 2 1.0279999982592698e+00 -4.3102690006210310e+02 1.0000000000000000e+00 1.3885144009315470e+01 1.0392848381869539e+01 1.2772112223854203e+01 
100 1 2 1.0279999982592594e+00 -4.0526032139692410e+02 1.0000000000000000e+00 1.3885144034872807e+01 1.0392848377582432e+01 1.2772112226281623e+01 
142 1 2 1.0279999982591448e+00 -4.2749539798549250e+02 1.0000000000000000e+00 1.3885143996448020e+01 1.0392848370468213e+01 1.2772112219935829e+01 
106 1 2 1.0279999982591781e+00 -4.0237210296597607e+02 1.0000000000000000e+00 1.3885144007926938e+01 1.0392848369272736e+01 1.2772112221171398e+01 
166 1 2 1.0279999982594170e+00 -3.7915741809746976e+02 1.0000000000000000e+00 1.3885144234977824e+01 1.0392848381844511e+01 1.2772112252808785e+01 
136 1 2 1.0279999982591796e+00 -4.4459168851700349e+02 1.0000000000000000e+00 1.3885143990884174e+01 1.0392848380988514e+01 1.2772112221313387e+01 

Velocities

37 -5.1876892813330887e-322 -4.6656712052525886e-14 -1.2278005881778831e-14
38 -5.1876892813330887e-322 2.4555736761265734e-15 -1.2278005881778831e-14
44 -5.1876892813330887e-322 -4.6656712052525886e-14 3.6834279846874303e-14
73 -5.1876892813330887e-322 2.4555736761265734e-15 -1.2278005881778831e-14
74 -5.1876892813330887e-322 5.1567859404779678e-14 -6.1390291610435458e-14
9 -5.1876892813330887e-322 2.4555736761265734e-15 -1.2278005881778831e-14
2 -5.1876892813330887e-322 -4.6656712052525886e-14 -6.1390291610435458e-14
1 -5.1876892813330887e-322 5.1567859404779685e-14 -1.2278005881778831e-14
7 -5.1876892813330887e-322 2.4555736761265734e-15 -1.2278005881778831e-14
8 -5.1876892813330887e-322 -4.6656712052525886e-14 3.6834279846874303e-14
39 -5.1876892813330887e-322 2.4555736761265734e-15 -1.2278005881778831e-14
33 -5.1876892813330887e-322 2.4555736761265734e-15 3.6834279846874303e-14
3 -5.1876892813330887e-322 5.1567859404779685e-14 -1.2278005881778831e-14
75 -5.1876892813330887e-322 2.4555736761265734e-15 -6.1390291610435458e-14
43 -5.1876892813330887e-322 2.4555736761265734e-15 -1.2278005881778831e-14
13 -5.1876892813330887e-322 2.4555736761265734e-15 -1.2278005881778831e-14
48 -5.1876892813330887e-322 2.4555736761265734e-15 8.5946565575532213e-14
12 -5.1876892813330887e-322 2.4555736761265734e-15 8.5946565575532213e-14
6 -5.1876892813330887e-322 2.4555736761265734e-15 3.6834279846874303e-14
42 -5.1876892813330887e-322 2.4555736761265734e-15 -1.2278005881778831e-14
160 5.7319073113501762e-02 5.6124213782885578e-03 -4.7221215580176570e-02
153 5.7319073113501991e-02 5.6124213782880027e-03 -4.7221215580176432e-02
157 5.7319073113495371e-02 5.6124213783026525e-03 -4.7221215580182038e-02
31 5.7319073113501706e-02 5.6124213782874979e-03 -4.7221215580175779e-02
86 5.7319073113501956e-02 5.6124213782876627e-03 -4.7221215580176445e-02
103 5.7319073113501463e-02 5.6124213782892136e-03 -4.7221215580176550e-02
159 5.7319073113503441e-02 5.6124213782865091e-03 -4.7221215580176286e-02
108 5.7319073113501665e-02 5.6124213782892344e-03 -4.7221215580175661e-02
26 5.7319073113501665e-02 5.6124213782892344e-03 -4.7221215580175661e-02
25 5.7319073113501665e-02 5.6124213782892344e-03 -4.7221215580175661e-02
62 5.7319073113501665e-02 5.6124213782892344e-03 -4.7221215580175661e-02
97 5.7319073113501665e-02 5.6124213782892344e-03 -4.7221215580175661e-02
67 5.7319073113501665e-02 5.6124213782892344e-03 -4.7221215580175661e-02
68 5.7319073113501665e-02 5.6124213782892344e-03 -4.7221215580175661e-02
32 5.7319073113501665e-02 5.6124213782892344e-03 -4.7221215580175661e-02
45 5.7319073113498833e-02 5.6124213782948488e-03 -4.7221215580178694e-02
87 5.7319073113500617e-02 5.6124213782910680e-03 -4.7221215580177195e-02
146 5.7319073113501408e-02 5.6124213782896412e-03 -4.7221215580176792e-02
127 5.7319073113502095e-02 5.6124213782894200e-03 -4.7221215580175911e-02
122 5.7319073113502213e-02 5.6124213782875656e-03 -4.7221215580175620e-02
123 5.7319073113496773e-02 5.6124213783002403e-03 -4.7221215580180907e-02
163 5.7319073113502185e-02 5.6124213782873964e-03 -4.7221215580175745e-02