LAMMPS data file via write_data, version 30 Jul 2016, timestep = 50400000

180 atoms
2 atom types

0.0000000000000000e+00 2.0000000000000000e+01 xlo xhi
0.0000000000000000e+00 2.0000000000000000e+01 ylo yhi
0.0000000000000000e+00 2.0000000000000000e+01 zlo zhi

Masses

1 3.896
2 4.31

Atoms # meso-molecular

1 1 2 3.4387207658793817e-01 0.0000000000000000e+00 1.0000000000000000e+00 5.8300000000000001e+00 2.8000000000000003e-01 1.3600000000000001e+00 
7 1 2 3.4387207658793817e-01 0.0000000000000000e+00 1.0000000000000000e+00 4.3300000000000001e+00 4.3200000000000003e+00 1.8300000000000001e+00 
13 1 2 3.4387207658793817e-01 0.0000000000000000e+00 1.0000000000000000e+00 4.2900000000000000e+00 7.6500000000000004e+00 1.2400000000000000e+00 
2 1 2 1.0280000327662289e+00 -1.4913900007168741e+02 1.0000000000000000e+00 4.9614736059292177e+00 2.0112649441673409e+00 5.6587225426132255e+00 
8 1 2 1.0280020460885959e+00 -1.3830771822939172e+02 1.0000000000000000e+00 5.1489024166596069e+00 2.8958015343062717e+00 5.8496983261199711e+00 
14 1 2 6.8774415317587634e-01 -9.1575811056071814e+01 1.0000000000000000e+00 4.8850000000000087e+00 8.3850000000007032e+00 4.5500000000000087e+00 
20 1 2 6.8774415317587634e-01 -9.1575811056071814e+01 1.0000000000000000e+00 4.8849999999999918e+00 8.3850000000007370e+00 4.5499999999999918e+00 
3 1 2 1.0279950710082286e+00 -1.4477490410025840e+02 1.0000000000000000e+00 4.8795541591453482e+00 1.8849795096280533e+00 6.3507029320787884e+00 
154 1 2 1.0279999999999976e+00 -1.1758461145777086e+02 1.0000000000000000e+00 1.8533453085611709e+00 3.4222881789432469e+00 7.9778080003877507e+00 
153 1 2 1.0279999999999976e+00 -1.1761592994681232e+02 1.0000000000000000e+00 1.8533453085611709e+00 3.4222881789432469e+00 7.9778080003877507e+00 
9 1 2 1.0280028049293601e+00 -5.4929645140230654e+01 1.0000000000000000e+00 5.2041123442526809e+00 2.7301778991889925e+00 6.5359770448798926e+00 
147 1 2 1.0279999999999976e+00 -9.5855780591941141e+01 1.0000000000000000e+00 1.0270648445889752e+00 2.5796235537162540e+00 8.2208820165004113e+00 
148 1 2 1.0279999999999976e+00 -9.5836401030345712e+01 1.0000000000000000e+00 1.0270648445889752e+00 2.5796235537162540e+00 8.2208820165004113e+00 
15 1 2 1.0280007478275508e+00 -8.7021023949330029e+01 1.0000000000000000e+00 6.1286429759798589e+00 7.6993504172685299e+00 8.7503017185603227e+00 
51 1 2 1.0279993029342445e+00 -8.2501991371320329e+01 1.0000000000000000e+00 6.1769666989858765e+00 7.7421650123757235e+00 8.7691859741373737e+00 
16 1 2 1.0279990693459817e+00 -8.6953069302498477e+01 1.0000000000000000e+00 5.3338167549520303e+00 8.3411410078783952e+00 9.3853123230618021e+00 
22 1 2 1.0280009814206437e+00 -8.1264804594558740e+01 1.0000000000000000e+00 5.3496822398023252e+00 8.3953167727542795e+00 9.3487314572599995e+00 
10 1 2 3.4387207658793817e-01 0.0000000000000000e+00 1.0000000000000000e+00 4.9100000000000001e+00 4.9500000000000002e+00 1.0760000000000000e+01 
17 1 2 1.0279999999994225e+00 -1.1132959120546744e+02 1.0000000000000000e+00 6.5210196996741150e+00 7.6569199845575504e+00 1.5448212676522070e+01 
53 1 2 1.0279999999995015e+00 -1.2603335866391555e+02 1.0000000000000000e+00 6.5451018220695625e+00 7.6680183287337371e+00 1.5439582666952338e+01 
19 1 2 6.8774415317587634e-01 -9.9370940215843490e+01 1.0000000000000000e+00 4.2899999999999840e+00 1.2864999999999968e+01 9.3000000000005378e-01 
25 1 2 6.8774415317587634e-01 -9.9370940215843490e+01 1.0000000000000000e+00 4.2900000000000160e+00 1.2865000000000032e+01 9.3000000000004979e-01 
31 1 2 3.4387207658793817e-01 0.0000000000000000e+00 1.0000000000000000e+00 4.0000000000000000e+00 1.7820000000000000e+01 8.5999999999999999e-01 
26 1 2 6.8774415317587634e-01 -9.8803957463630809e+01 1.0000000000000000e+00 6.4949999999999841e+00 1.3185000000000000e+01 4.6050000000000004e+00 
62 1 2 6.8774415317587634e-01 -9.8803957463630809e+01 1.0000000000000000e+00 6.4950000000000161e+00 1.3184999999999999e+01 4.6049999999999995e+00 
21 1 2 3.4387207658793817e-01 2.4356203182399172e-01 1.0000000000000000e+00 4.1217412412131624e+00 1.0685605396007379e+01 7.2093502531027962e+00 
33 1 2 1.0280004316115328e+00 -1.0813954573375806e+02 1.0000000000000000e+00 2.5247900641983372e+00 1.6511983551927333e+01 8.9180326476120140e+00 
34 1 2 1.0280004316115328e+00 -1.0919530432899123e+02 1.0000000000000000e+00 2.5247900641983372e+00 1.6511983551927333e+01 8.9180326476120140e+00 
70 1 2 1.0279999876239472e+00 -6.9012157671642981e+01 1.0000000000000000e+00 3.3472176854622413e+00 1.7261109526700981e+01 9.4252505791402896e+00 
35 1 2 1.0279995737047249e+00 -5.4114257415177867e+01 1.0000000000000000e+00 2.8024839291077686e+00 1.6806308085572784e+01 1.0444868911497762e+01 
4 1 2 1.0279996261601256e+00 -1.7129408651390557e+02 1.0000000000000000e+00 3.0071992967194157e+00 1.6950532576341534e+01 1.0441883318928248e+01 
28 1 2 6.8774415317587634e-01 -6.2968799004662245e+01 1.0000000000000000e+00 5.6347410980523804e+00 1.3560237672342213e+01 1.2190065279293528e+01 
29 1 2 6.8774415317587634e-01 -6.1674052874033379e+01 1.0000000000000000e+00 5.6347410980523795e+00 1.3560237672342211e+01 1.2190065279293592e+01 
23 1 2 3.4387207658793817e-01 1.3114468729520570e+00 1.0000000000000000e+00 5.5698924227000717e+00 1.1279691518445198e+01 1.4692092688721660e+01 
24 1 2 6.8774415317587634e-01 -8.3019803378957789e+01 1.0000000000000000e+00 5.0553675857655120e+00 1.2119926851457587e+01 1.7603881123009348e+01 
30 1 2 6.8774415317587634e-01 -8.3030796089173961e+01 1.0000000000000000e+00 5.0553675857655440e+00 1.2119926851457651e+01 1.7603881123009476e+01 
36 1 2 6.8774415317587634e-01 -9.1979795776206828e+01 1.0000000000000000e+00 5.1850000000000085e+00 1.8754999999999733e+01 1.7575000000000063e+01 
6 1 2 6.8774415317587634e-01 -9.1979795776206828e+01 1.0000000000000000e+00 5.1849999999999916e+00 1.8754999999999736e+01 1.7574999999999935e+01 
37 1 2 3.4387207658793817e-01 0.0000000000000000e+00 1.0000000000000000e+00 9.0299999999999994e+00 7.8000000000000003e-01 1.0100000000000000e+00 
73 1 2 1.0279999944974150e+00 -8.7864365305374278e+01 1.0000000000000000e+00 1.2822338460638210e+01 3.3012480148850489e+00 1.0750281690823669e+00 
79 1 2 1.0279999958099248e+00 -9.8542647727301386e+01 1.0000000000000000e+00 1.2801539156965299e+01 3.4077065067901349e+00 1.0844158611797283e+00 
115 1 2 1.0279999959328590e+00 -8.6500350721694488e+01 1.0000000000000000e+00 1.2901872911900801e+01 3.3738691055787866e+00 1.0590720500010711e+00 
43 1 2 3.4387207658793817e-01 3.2831290691506788e-02 1.0000000000000000e+00 7.9514853274058757e+00 4.0671908384679147e+00 1.2740778573033582e+00 
85 1 2 3.4387207658793817e-01 0.0000000000000000e+00 1.0000000000000000e+00 1.1340000000000000e+01 7.1900000000000004e+00 5.4000000000000004e-01 
74 1 2 3.4387207658793817e-01 1.1365685869488378e-02 1.0000000000000000e+00 1.1500211450639739e+01 1.1903779908343484e+00 3.7488045548657043e+00 
49 1 2 1.0279996078167455e+00 -9.6270031589624836e+01 1.0000000000000000e+00 8.6217924458257791e+00 8.7089813698445191e+00 2.4671836080588232e+00 
50 1 2 1.0280091682251165e+00 -1.5448530501701808e+02 1.0000000000000000e+00 8.1684729350226757e+00 8.8924113449776705e+00 3.0497072779371663e+00 
56 1 2 1.0280115175313846e+00 -7.8374970840283765e+01 1.0000000000000000e+00 8.7537548678784063e+00 9.5246625041793678e+00 3.2658093505630177e+00 
86 1 2 1.0279798942204112e+00 -1.2583795690350770e+02 1.0000000000000000e+00 9.2819810829417513e+00 9.1272025009145956e+00 2.8895768505524329e+00 
38 1 2 6.8774415317587634e-01 -1.0038749071924839e+02 1.0000000000000000e+00 7.8796279696812634e+00 2.7614117507789002e+00 4.1400576948336161e+00 
44 1 2 6.8774415317587634e-01 -1.0079073781107969e+02 1.0000000000000000e+00 7.8796279696812954e+00 2.7614117507789162e+00 4.1400576948335841e+00 
45 1 2 1.0292044668992364e+00 -1.0090267969448568e+02 1.0000000000000000e+00 9.9161143113160417e+00 4.6085425298195331e+00 5.5560222465107207e+00 
81 1 2 1.0292044668992364e+00 -1.0146118991876587e+02 1.0000000000000000e+00 9.9161143113160417e+00 4.6085425298195331e+00 5.5560222465107207e+00 
75 1 2 1.0267927040346583e+00 -9.9140271708882906e+01 1.0000000000000000e+00 9.8523761580793288e+00 4.5592349058585393e+00 5.6526056852805269e+00 
39 1 2 3.4387207658793817e-01 8.2352466156048854e-01 1.0000000000000000e+00 7.9906237348162117e+00 3.1188805249767637e-01 6.7321348578631000e+00 
117 1 2 1.0280130346505132e+00 -1.0606428661874311e+02 1.0000000000000000e+00 1.2067209192679185e+01 4.1787460781029317e-01 8.3806715340009248e+00 
111 1 2 1.0280129671040861e+00 -1.2618446924870609e+02 1.0000000000000000e+00 1.2053538997412058e+01 4.0167422461736974e-01 8.3884774788411480e+00 
112 1 2 1.0279871396125193e+00 -1.2287410480609604e+02 1.0000000000000000e+00 1.1938977492471134e+01 1.0060835175234941e+00 9.4244070155347597e+00 
118 1 2 1.0279869129617047e+00 -5.3983725286953131e+01 1.0000000000000000e+00 1.1952235765672960e+01 1.0173558340428024e+00 9.4193331834358123e+00 
57 1 2 1.0280068303537599e+00 -9.5453775345903551e+01 1.0000000000000000e+00 9.3442174693923423e+00 9.8986383623644674e+00 8.6035064425128951e+00 
52 1 2 1.0279903136631980e+00 -7.7781273634283025e+01 1.0000000000000000e+00 9.1365358609625407e+00 9.0071777223265368e+00 9.8115709747464344e+00 
58 1 2 1.0279903460054607e+00 -1.3418783802200466e+02 1.0000000000000000e+00 9.1375329987934872e+00 9.0382501363375329e+00 9.8440306830138873e+00 
93 1 2 1.0280039992936827e+00 -1.4155580727787509e+02 1.0000000000000000e+00 9.8102231592270090e+00 9.9156096656002219e+00 8.6067079856328057e+00 
94 1 2 1.0280048706047016e+00 -1.2624126793693479e+02 1.0000000000000000e+00 1.0123489750539573e+01 9.7842650764172507e+00 9.5627424152553022e+00 
41 1 2 1.0280795737380362e+00 -1.2027851856839358e+02 1.0000000000000000e+00 7.5034443266388617e+00 2.1434434053604399e+00 1.1815926930162570e+01 
5 1 2 1.0280797370830481e+00 -1.3579177511695238e+02 1.0000000000000000e+00 7.5034981712398308e+00 2.1435444489218130e+00 1.1815900506884244e+01 
12 1 2 1.0279362945513639e+00 -5.3291371756099629e+01 1.0000000000000000e+00 8.0246892318184013e+00 1.8384343997267745e+00 1.3001911790707387e+01 
47 1 2 1.0279170699861551e+00 -1.7707101834778967e+02 1.0000000000000000e+00 7.8898589074634824e+00 1.7316478213598760e+00 1.2958779405166760e+01 
40 1 2 1.0280127184003454e+00 -1.0984071379336332e+02 1.0000000000000000e+00 9.3826567251537103e+00 3.0843580783010225e+00 1.2139321582991199e+01 
46 1 2 1.0280127184003454e+00 -1.1173724145844521e+02 1.0000000000000000e+00 9.3826567251537103e+00 3.0843580783010225e+00 1.2139321582991199e+01 
82 1 2 1.0280012347741947e+00 -1.8145322590608680e+02 1.0000000000000000e+00 1.0388561559651061e+01 3.1974016071196716e+00 1.3136429819742130e+01 
76 1 2 1.0280026996903093e+00 -1.7347379383918144e+02 1.0000000000000000e+00 1.0054303531951946e+01 4.1478181717545093e+00 1.3332350142588927e+01 
83 1 2 1.0279938104925403e+00 -5.1162192211214560e+01 1.0000000000000000e+00 1.0210151591093309e+01 4.1016672590048744e+00 1.3356539266793856e+01 
88 1 2 6.8774415317587634e-01 -6.6201341088547352e+01 1.0000000000000000e+00 1.0858685128687540e+01 7.6779280967794437e+00 1.2164496912172174e+01 
89 1 2 6.8774415317587634e-01 -6.6705638292770956e+01 1.0000000000000000e+00 1.0858685128687604e+01 7.6779280967794445e+00 1.2164496912172238e+01 
84 1 2 3.4387207658793817e-01 1.6040951350429661e-01 1.0000000000000000e+00 1.0795999523816834e+01 4.4156398846521849e+00 1.7955220267854358e+01 
54 1 2 1.0280000000000951e+00 -1.4328714570731088e+02 1.0000000000000000e+00 6.7994427737663505e+00 7.2985588930654863e+00 1.6556494184274481e+01 
18 1 2 1.0279999999970784e+00 -1.2703232028056652e+02 1.0000000000000000e+00 6.9004672056846275e+00 8.4653811185642169e+00 1.6816276173264743e+01 
60 1 2 1.0279999999985356e+00 -8.5673750127549866e+01 1.0000000000000000e+00 6.9136294508781617e+00 8.4685262160601944e+00 1.6808856218589522e+01 
96 1 2 3.4387207658793817e-01 7.0252987576942846e-04 1.0000000000000000e+00 1.1710015757214180e+01 9.6200126096651655e+00 1.7089995667419696e+01 
91 1 2 3.4387207658793817e-01 0.0000000000000000e+00 1.0000000000000000e+00 1.1940000000000000e+01 1.1000000000000000e+01 1.0000000000000001e-01 
61 1 2 1.0280000000000755e+00 -1.3790635145352550e+02 1.0000000000000000e+00 9.0189501493047892e+00 1.2564737355417293e+01 7.0007765090721186e-01 
55 1 2 1.0279999999999510e+00 -1.3889873496207028e+02 1.0000000000000000e+00 9.0657853728462499e+00 1.2475241958225112e+01 7.4071221174995550e-01 
97 1 2 1.0280000000000276e+00 -8.1437630396371532e+01 1.0000000000000000e+00 8.9652644773789607e+00 1.2470020789303749e+01 6.9921015412010101e-01 
67 1 2 6.8774415317587634e-01 -1.0215578374355719e+02 1.0000000000000000e+00 7.8030719868824105e+00 1.6201099955732257e+01 2.2659485927166974e+00 
68 1 2 6.8774415317587634e-01 -1.0192229065375165e+02 1.0000000000000000e+00 7.8030719868824425e+00 1.6201099955732385e+01 2.2659485927167058e+00 
103 1 2 6.8774415317587634e-01 -9.2172174274633988e+01 1.0000000000000000e+00 1.1459999999999999e+01 1.6850000000000065e+01 2.8299999999999783e+00 
104 1 2 6.8774415317587634e-01 -9.2172174274633988e+01 1.0000000000000000e+00 1.1460000000000001e+01 1.6849999999999937e+01 2.8299999999999867e+00 
128 1 2 6.8774415317587634e-01 -9.9210387155828371e+01 1.0000000000000000e+00 1.2799864831803259e+01 1.0371052644863319e+01 4.1298761530808807e+00 
92 1 2 6.8774415317587634e-01 -9.9191528685881551e+01 1.0000000000000000e+00 1.2799864831803257e+01 1.0371052644863321e+01 4.1298761530808816e+00 
98 1 2 3.4387207658793817e-01 1.8858469945181568e-02 1.0000000000000000e+00 1.1660270336393525e+01 1.3527894710274071e+01 4.5502476938382133e+00 
69 1 2 6.8774415317587634e-01 -1.0121054376849887e+02 1.0000000000000000e+00 6.7992323818876557e+00 1.7326852387316166e+01 5.7731800120610517e+00 
32 1 2 6.8774415317587634e-01 -1.0160328695250433e+02 1.0000000000000000e+00 6.7992323818876388e+00 1.7326852387316162e+01 5.7731800120610348e+00 
63 1 2 6.8774415317587634e-01 -9.1286117099507265e+01 1.0000000000000000e+00 7.1469138889439856e+00 1.4193592497285421e+01 7.7008503501037335e+00 
27 1 2 6.8774415317587634e-01 -9.0220787106786659e+01 1.0000000000000000e+00 7.1469138889440336e+00 1.4193592497285380e+01 7.7008503501037424e+00 
99 1 2 3.4387207658793817e-01 1.3320188399262256e+00 1.0000000000000000e+00 1.2415065576154706e+01 1.3280002581834060e+01 8.0869774359397937e+00 
105 1 2 1.0280001046221525e+00 -1.0413233320453918e+02 1.0000000000000000e+00 1.1007207466320892e+01 1.7913593412244364e+01 9.2903399850348531e+00 
106 1 2 1.0280001046221525e+00 -1.0236550798123754e+02 1.0000000000000000e+00 1.1007207466320892e+01 1.7913593412244364e+01 9.2903399850348531e+00 
100 1 2 1.0279998916627637e+00 -1.1017504680584445e+02 1.0000000000000000e+00 1.0293397467990838e+01 1.4066293889150307e+01 1.1560157962228192e+01 
101 1 2 1.0280001089086284e+00 -8.4667608722568303e+01 1.0000000000000000e+00 1.0293381327306376e+01 1.4061414347576646e+01 1.1565345675882549e+01 
65 1 2 1.0279999029156657e+00 -1.0838285240579083e+02 1.0000000000000000e+00 9.0962202650294639e+00 1.4167303424674408e+01 1.1651842944819627e+01 
64 1 2 1.0280000976464365e+00 -1.0255289722457516e+02 1.0000000000000000e+00 9.0964793554597438e+00 1.4164439922145466e+01 1.1658358757528623e+01 
42 1 2 1.0280000551522643e+00 -1.3652409909186784e+02 1.0000000000000000e+00 1.0591252254885529e+01 1.7566423729403887e+01 1.0362091052814964e+01 
48 1 2 1.0279998876798113e+00 -1.9442649678717999e+02 1.0000000000000000e+00 1.0258351497387595e+01 1.8711701662788709e+01 1.0500219996782862e+01 
11 1 2 1.0279998876790384e+00 -6.0388164318364964e+01 1.0000000000000000e+00 1.0258232191185911e+01 1.8711715796842270e+01 1.0500108431569240e+01 
95 1 2 6.8774415317587634e-01 -7.3767434269124664e+01 1.0000000000000000e+00 9.9191937855748176e+00 1.1049701914972813e+01 1.4284220464265985e+01 
59 1 2 6.8774415317587634e-01 -7.5600627244747045e+01 1.0000000000000000e+00 9.9191937855747536e+00 1.1049701914972811e+01 1.4284220464265987e+01 
102 1 2 3.4387207658793817e-01 3.4105823179379885e-01 1.0000000000000000e+00 1.1256384201536703e+01 1.3516509179750450e+01 1.6178393065172855e+01 
66 1 2 6.8774415317587634e-01 -9.8736383813835815e+01 1.0000000000000000e+00 8.5118078992312629e+00 1.4986745410124856e+01 1.7125803467412727e+01 
72 1 2 6.8774415317587634e-01 -9.9077442045623414e+01 1.0000000000000000e+00 8.5118078992311990e+00 1.4986745410124920e+01 1.7125803467412855e+01 
145 1 2 3.4387207658793817e-01 0.0000000000000000e+00 1.0000000000000000e+00 1.7899999999999999e+01 1.4099999999999999e+00 0.0000000000000000e+00 
151 1 2 3.4387207658793817e-01 0.0000000000000000e+00 1.0000000000000000e+00 1.7460000000000001e+01 3.7500000000000000e+00 1.9299999999999999e+00 
157 1 2 3.4387207658793817e-01 0.0000000000000000e+00 1.0000000000000000e+00 1.8500000000000000e+01 6.8799999999999999e+00 9.2000000000000004e-01 
121 1 2 1.0279999999997624e+00 -9.8447033971371582e+01 1.0000000000000000e+00 1.5660961675098667e+01 8.9120991027542118e+00 4.1437298348975943e-01 
127 1 2 1.0279999999999454e+00 -1.5037742962754297e+02 1.0000000000000000e+00 1.5615235872179355e+01 9.0107520927387235e+00 4.0881687573090680e-01 
163 1 2 1.0280000000000988e+00 -1.1743433947717506e+02 1.0000000000000000e+00 1.5722609542194165e+01 9.0013047892272624e+00 4.2417185084100073e-01 
146 1 2 3.4387207658793817e-01 0.0000000000000000e+00 1.0000000000000000e+00 1.8500000000000000e+01 6.3000000000000000e-01 4.7100000000000000e+00 
110 1 2 1.0280000000001015e+00 -1.3033630619423397e+02 1.0000000000000000e+00 1.4119737699171562e+01 3.3177213745232259e+00 4.3913799642119562e+00 
116 1 2 1.0279999999999609e+00 -1.2822635078939800e+02 1.0000000000000000e+00 1.4163515110599711e+01 3.4173347233509399e+00 4.3952336379441892e+00 
80 1 2 1.0279999999999445e+00 -7.7877343349897330e+01 1.0000000000000000e+00 1.4057282214439473e+01 3.4037619588669235e+00 4.4148418927353985e+00 
122 1 2 3.4387207658793817e-01 6.0502261682891623e-01 1.0000000000000000e+00 1.4154583328851654e+01 6.9759202021763027e+00 4.2570181048471074e+00 
152 1 2 6.8774415317587634e-01 -8.5253318472211944e+01 1.0000000000000000e+00 1.7122262340938804e+01 6.0126455604277522e+00 4.3210014732942179e+00 
158 1 2 6.8774415317587634e-01 -8.6765521291783728e+01 1.0000000000000000e+00 1.7122262340938676e+01 6.0126455604277842e+00 4.3210014732941859e+00 
164 1 2 3.4387207658793817e-01 0.0000000000000000e+00 1.0000000000000000e+00 1.8340000000000000e+01 9.6300000000000008e+00 4.4699999999999998e+00 
123 1 2 1.0279999999999907e+00 -1.4618625991026377e+02 1.0000000000000000e+00 1.3732207558771877e+01 8.3835441749381641e+00 7.1966200559922937e+00 
129 1 2 1.0279999999999081e+00 -1.3424411686301636e+02 1.0000000000000000e+00 1.3697664739826335e+01 8.4800302839582713e+00 7.1598592583459171e+00 
87 1 2 1.0280000000000502e+00 -8.9452341078904482e+01 1.0000000000000000e+00 1.3634924436249369e+01 8.3917853110804987e+00 7.1484307463421146e+00 
159 1 2 1.0279999999999974e+00 -8.7486136721605035e+01 1.0000000000000000e+00 1.7131855968016083e+01 7.4055999002826942e+00 9.5177557110471582e+00 
160 1 2 1.0280000000000413e+00 -1.2985683480298195e+02 1.0000000000000000e+00 1.7129316413349965e+01 7.4395878102402104e+00 9.6211602779504855e+00 
124 1 2 1.0280000000000395e+00 -1.1662561276926829e+02 1.0000000000000000e+00 1.7038212677669755e+01 7.4040698033483823e+00 9.5732780020134260e+00 
119 1 2 6.8774415317587634e-01 -8.5823508206644732e+01 1.0000000000000000e+00 1.4834999999999999e+01 2.6700000000000004e+00 1.3829999999999968e+01 
113 1 2 6.8774415317587634e-01 -8.5823508206644732e+01 1.0000000000000000e+00 1.4835000000000001e+01 2.6699999999999844e+00 1.3830000000000032e+01 
125 1 2 3.4387207658793817e-01 1.5546914798337721e-03 1.0000000000000000e+00 1.5080023631375473e+01 7.3899967085934621e+00 1.3189868901437119e+01 
167 1 2 1.0279999999998339e+00 -1.2141682047880896e+02 1.0000000000000000e+00 1.7629406206905703e+01 9.8358827055061742e+00 1.2839339418464636e+01 
161 1 2 1.0279999999998877e+00 -8.9076199853372287e+01 1.0000000000000000e+00 1.7634525800359636e+01 9.7313132709301478e+00 1.2809453720649048e+01 
166 1 2 1.0280000000000151e+00 -1.0560283995192763e+02 1.0000000000000000e+00 1.7591596583908931e+01 9.8051805386800286e+00 1.2741964158881965e+01 
149 1 2 6.8774415317587634e-01 -1.0083875546490694e+02 1.0000000000000000e+00 1.8139936931245444e+01 1.9944704979931890e-01 1.5489665624454636e+01 
150 1 2 6.8774415317587634e-01 -1.0089068102320715e+02 1.0000000000000000e+00 1.8139936931245316e+01 1.9944704979931893e-01 1.5489665624454638e+01 
155 1 2 3.4387207658793817e-01 0.0000000000000000e+00 1.0000000000000000e+00 1.6930000000000000e+01 4.9500000000000002e+00 1.4460000000000001e+01 
120 1 2 1.0280000000000460e+00 -1.2901515997117355e+02 1.0000000000000000e+00 1.3667776505072833e+01 5.9135270289666781e+00 1.7360810244386116e+01 
156 1 2 3.4387207658793817e-01 0.0000000000000000e+00 1.0000000000000000e+00 1.8379999999999999e+01 4.6200000000000001e+00 1.7949999999999999e+01 
126 1 2 1.0280000000000804e+00 -9.5935347763734740e+01 1.0000000000000000e+00 1.3704017798014997e+01 6.0120560787454114e+00 1.7389667251385450e+01 
90 1 2 1.0280000000000462e+00 -1.1099135080141353e+02 1.0000000000000000e+00 1.3603077510176972e+01 6.0004900619340829e+00 1.7350533923343040e+01 
162 1 2 3.4387207658793817e-01 3.0235878984881230e+00 1.0000000000000000e+00 1.6724713696460871e+01 7.2596137646850298e+00 1.7590001788203502e+01 
109 1 2 1.0267926956879987e+00 -5.1945114437633407e+01 1.0000000000000000e+00 1.3379446409152175e+01 5.2306630847492719e-01 1.9658325066495351e+01 
114 1 2 1.0292044627259065e+00 -1.4368344197156210e+02 1.0000000000000000e+00 1.3374275579958610e+01 6.1457317968003988e-01 1.9744475731421545e+01 
78 1 2 1.0292044627259065e+00 -1.4368344197156230e+02 1.0000000000000000e+00 1.3374275579958610e+01 6.1457317968003988e-01 1.9744475731421545e+01 
133 1 2 1.0279840137011760e+00 -5.3234447995374261e+01 1.0000000000000000e+00 1.4967289062727506e+01 1.4561119025180846e+01 4.7648500549451400e-01 
139 1 2 1.0280192624760069e+00 -1.2682714875235315e+02 1.0000000000000000e+00 1.5805635565970226e+01 1.5281149984708026e+01 9.4608106776592449e-01 
175 1 2 1.0280192624760069e+00 -1.2683848564878984e+02 1.0000000000000000e+00 1.5805635565970226e+01 1.5281149984708026e+01 9.4608106776592449e-01 
170 1 2 6.8774415317587634e-01 -9.9342968897738842e+01 1.0000000000000000e+00 1.8249630983658001e+01 1.3885744374046853e+01 2.5400182540650871e+00 
169 1 2 6.8774415317587634e-01 -9.9330396859987161e+01 1.0000000000000000e+00 1.8249630983658005e+01 1.3885744374046917e+01 2.5400182540650711e+00 
140 1 2 6.8774415317587634e-01 -8.0509448920103551e+01 1.0000000000000000e+00 1.4889865930924854e+01 1.5075145526020183e+01 3.8105706183929353e+00 
134 1 2 6.8774415317587634e-01 -8.0479999178800696e+01 1.0000000000000000e+00 1.4889865930924852e+01 1.5075145526020181e+01 3.8105706183929513e+00 
165 1 2 3.4387207658793817e-01 0.0000000000000000e+00 1.0000000000000000e+00 1.7340000000000000e+01 1.0990000000000000e+01 7.5099999999999998e+00 
135 1 2 1.0279999999996825e+00 -9.4765784918602151e+01 1.0000000000000000e+00 1.5955380994880208e+01 1.5345075589684175e+01 6.8158488598952642e+00 
141 1 2 1.0279999999987071e+00 -9.5070335521011344e+01 1.0000000000000000e+00 1.5955380994850801e+01 1.5345075589815620e+01 6.8158488599100480e+00 
171 1 2 1.0280000000007685e+00 -9.1431386082283453e+01 1.0000000000000000e+00 1.7134894583323721e+01 1.5130006049235616e+01 6.7490075434397401e+00 
176 1 2 1.0280000000013141e+00 -1.4353931468593476e+02 1.0000000000000000e+00 1.7176878113341175e+01 1.6081386071897054e+01 6.0212020831605919e+00 
177 1 2 1.0280000000024929e+00 -1.4277518159537013e+02 1.0000000000000000e+00 1.7169823348074623e+01 1.6087576381884610e+01 6.0217427386317963e+00 
130 1 2 3.4387207658793817e-01 4.6375890688602994e-01 1.0000000000000000e+00 1.3717573338426224e+01 1.1075945208941613e+01 1.0234511780325692e+01 
172 1 2 1.0279998098157612e+00 -9.6832868974518362e+01 1.0000000000000000e+00 1.6947763666433890e+01 1.3258367516846622e+01 1.1954822662330256e+01 
136 1 2 1.0280001935591596e+00 -1.1370718340289757e+02 1.0000000000000000e+00 1.6954391213058585e+01 1.3258674628850654e+01 1.1956016377312402e+01 
142 1 2 1.0280000000003116e+00 -9.9086896169518255e+01 1.0000000000000000e+00 1.6932570340530319e+01 1.7473270389018758e+01 1.1307886907920960e+01 
178 1 2 1.0280000000000884e+00 -1.3755158943138989e+02 1.0000000000000000e+00 1.7036796310050061e+01 1.7460177811875138e+01 1.1279257141630701e+01 
179 1 2 1.0280000000000293e+00 -1.0965868890864458e+02 1.0000000000000000e+00 1.7010764803822028e+01 1.7477657832301304e+01 1.1383520948331208e+01 
131 1 2 3.4387207658793817e-01 2.7299215361724549e-01 1.0000000000000000e+00 1.4721229555853286e+01 1.0596063477097847e+01 1.3481891505615856e+01 
173 1 2 1.0280003084324019e+00 -1.3161459889643268e+02 1.0000000000000000e+00 1.6739897575399549e+01 1.3283028066433408e+01 1.3141446052959255e+01 
137 1 2 1.0279996951634731e+00 -1.3137470640759437e+02 1.0000000000000000e+00 1.6733319039492997e+01 1.3282136228545578e+01 1.3140275405645061e+01 
143 1 2 6.8774415317587634e-01 -9.4823760298418421e+01 1.0000000000000000e+00 1.6335002845737705e+01 1.6394975533190788e+01 1.5274999399259276e+01 
180 1 2 6.8774415317587634e-01 -9.4823786414864742e+01 1.0000000000000000e+00 1.6335002845737773e+01 1.6394975533190870e+01 1.5274999399259340e+01 
168 1 2 3.4387207658793817e-01 0.0000000000000000e+00 1.0000000000000000e+00 1.8609999999999999e+01 1.0390000000000001e+01 1.7460000000000001e+01 
174 1 2 1.0280000000001743e+00 -8.6383052485240910e+01 1.0000000000000000e+00 1.5195414565257170e+01 1.2770912528864278e+01 1.7124529729312805e+01 
132 1 2 1.0279999999999729e+00 -1.1077545464591347e+02 1.0000000000000000e+00 1.5126402271179403e+01 1.2695443897322232e+01 1.7087167706659180e+01 
138 1 2 1.0280000000000957e+00 -1.2608401446927020e+02 1.0000000000000000e+00 1.5088164358912673e+01 1.2783630735468776e+01 1.7138305515188573e+01 
71 1 2 1.0267927038815756e+00 -9.0147699861500556e+01 1.0000000000000000e+00 1.5360322246315986e+01 1.9609876412950968e+01 1.7473644613789642e+01 
77 1 2 1.0292044668226950e+00 -1.4789540123045128e+02 1.0000000000000000e+00 1.5477387991230295e+01 1.9655317701545776e+01 1.7466374416721951e+01 
107 1 2 1.0292044668226950e+00 -1.4790524887144042e+02 1.0000000000000000e+00 1.5477387991230295e+01 1.9655317701545776e+01 1.7466374416721951e+01 
144 1 2 1.0279912744178010e+00 -1.3225302830117832e+02 1.0000000000000000e+00 1.4749492076171277e+01 1.5465019380456448e+01 1.9716466643015213e+01 
108 1 2 1.0279912744178010e+00 -1.3225302830117823e+02 1.0000000000000000e+00 1.4749492076171277e+01 1.5465019380456448e+01 1.9716466643015213e+01 

Velocities

1 0.0000000000000000e+00 0.0000000000000000e+00 0.0000000000000000e+00
7 0.0000000000000000e+00 0.0000000000000000e+00 0.0000000000000000e+00
13 0.0000000000000000e+00 0.0000000000000000e+00 0.0000000000000000e+00
2 1.0936555823912646e-05 2.7708613587487615e-05 -2.0489835080464478e-05
8 7.7700602893456121e-06 6.2883500705087561e-06 2.8071203461115624e-05
14 -1.3441679320096530e-12 2.6883358640193061e-12 -1.3441679320096530e-12
20 1.3441679320096530e-12 -2.6883358640193061e-12 1.3441679320096530e-12
3 -1.2793293689099930e-05 -3.4799933357883383e-05 4.9249360796263351e-05
154 -5.1088651827013807e-13 -5.2101679178033998e-13 1.5029187205530140e-13
153 -5.1088651827013807e-13 -5.2101679178033998e-13 1.5029187205530140e-13
9 -5.9133225004073302e-06 8.0296959810282791e-07 -5.6830728730976451e-05
147 5.1088651827013807e-13 5.2101679178033998e-13 -1.5029187205530140e-13
148 5.1088651827013807e-13 5.2101679178033998e-13 -1.5029187205530140e-13
15 3.3742931503731476e-06 -3.0597457626894385e-06 -2.5769051000394088e-06
51 -3.5773521393051927e-06 2.5062896143314184e-06 2.6392248473957987e-06
16 4.8162893431710481e-06 -3.4939803889051575e-06 -3.5588392667534020e-06
22 -4.6132303565864210e-06 4.0474365286455204e-06 3.4965195198644277e-06
10 0.0000000000000000e+00 0.0000000000000000e+00 0.0000000000000000e+00
17 -2.3374954737659585e-11 3.5641958955976694e-12 -5.9326147988226741e-11
53 -8.7277422379349623e-12 9.8535059832393641e-12 -6.7695366541688863e-11
19 2.5468445530158031e-12 5.0936891060316061e-12 -3.1835556912697538e-13
25 -2.5468445530158031e-12 -5.0936891060316061e-12 3.1835556912697538e-13
31 0.0000000000000000e+00 0.0000000000000000e+00 0.0000000000000000e+00
26 2.5468445530157930e-12 -1.4149136126567539e-13 -7.0745680632837695e-14
62 -2.5468445530157930e-12 1.4149136126567539e-13 7.0745680632837695e-14
21 4.9406564584124654e-324 -4.9406564584124654e-324 4.9406564584124654e-324
33 3.4586789450751189e-06 3.1645637705746409e-06 3.4615091491096758e-06
34 3.4586789450751189e-06 3.1645637705746409e-06 3.4615091491096758e-06
70 -1.7979981592457401e-06 -1.8318563709737308e-06 -1.3423546987650732e-05
35 -6.3793208376305899e-06 -4.9073133985073822e-06 3.8309116539287935e-06
4 1.2599611047848876e-06 4.1004222512846415e-07 2.6696170427779964e-06
28 -7.0745680632837884e-14 -1.4149136126567577e-13 5.0936891060316013e-12
29 7.0745680632837884e-14 1.4149136126567577e-13 -5.0936891060316013e-12
23 -4.9406564584124654e-324 4.9406564584124654e-324 4.9406564584124654e-324
24 2.5468445530158212e-12 5.0936891060316425e-12 1.0187378212063285e-11
30 -2.5468445530158212e-12 -5.0936891060316425e-12 -1.0187378212063285e-11
36 -1.3441679320096646e-12 2.8298272253135346e-13 -1.0187378212063270e-11
6 1.3441679320096646e-12 -2.8298272253135346e-13 1.0187378212063270e-11
37 0.0000000000000000e+00 0.0000000000000000e+00 0.0000000000000000e+00
73 1.2477455087770757e-09 4.6773217939848397e-09 -1.0540723134463867e-10
79 -2.2588448148580774e-09 -2.0445195827196876e-09 4.5175245531625399e-10
115 9.5217806196379435e-10 -2.6483787875627348e-09 -3.3942180394879652e-10
43 -9.8813129168249309e-324 -9.8813129168249309e-324 9.8813129168249309e-324