LAMMPS data file via write_data, version 30 Jul 2016, timestep = 600000

2080 atoms
8 atom types

0.0000000000000000e+00 4.0000000000000000e+01 xlo xhi
0.0000000000000000e+00 4.0000000000000000e+01 ylo yhi
0.0000000000000000e+00 1.0000000000000000e+02 zlo zhi

Masses

1 3.896
2 21.44
3 1058.08
4 8.378
5 8.378
6 8.378
7 8.378
8 8.378

Atoms # meso-molecular

1 2 4 2.2559723595316457e+00 5.6993865462115821e+01 4.2000000000000000e+03 0.0000000000000000e+00 0.0000000000000000e+00 2.5000000000000000e+00 
2 2 4 2.2559723595316457e+00 1.5219493567386071e+01 4.2000000000000000e+03 0.0000000000000000e+00 2.0000000000000000e+00 2.5000000000000000e+00 
3 2 4 2.2559723595316457e+00 -5.9805336354078262e+00 4.2000000000000000e+03 0.0000000000000000e+00 4.0000000000000000e+00 2.5000000000000000e+00 
4 2 4 2.2559723595316457e+00 -9.6107865051815551e+01 4.2000000000000000e+03 0.0000000000000000e+00 6.0000000000000000e+00 2.5000000000000000e+00 
21 2 4 2.2559723595316457e+00 2.6115855330682159e+01 4.2000000000000000e+03 2.0000000000000000e+00 0.0000000000000000e+00 2.5000000000000000e+00 
22 2 4 2.2559723595316457e+00 -5.2195524781982002e+01 4.2000000000000000e+03 2.0000000000000000e+00 2.0000000000000000e+00 2.5000000000000000e+00 
23 2 4 2.2559723595316457e+00 -6.3998895578827792e+01 4.2000000000000000e+03 2.0000000000000000e+00 4.0000000000000000e+00 2.5000000000000000e+00 
24 2 4 2.2559723595316457e+00 -1.2194546359700739e+02 4.2000000000000000e+03 2.0000000000000000e+00 6.0000000000000000e+00 2.5000000000000000e+00 
41 2 4 2.2559723595316457e+00 -7.0760538496992936e+01 4.2000000000000000e+03 4.0000000000000000e+00 0.0000000000000000e+00 2.5000000000000000e+00 
42 2 4 2.2559723595316457e+00 -1.9833804482613397e+02 4.2000000000000000e+03 4.0000000000000000e+00 2.0000000000000000e+00 2.5000000000000000e+00 
43 2 4 2.2559723595316457e+00 -2.2122116552982158e+02 4.2000000000000000e+03 4.0000000000000000e+00 4.0000000000000000e+00 2.5000000000000000e+00 
44 2 4 2.2559723595316457e+00 -1.2427168189236642e+02 4.2000000000000000e+03 4.0000000000000000e+00 6.0000000000000000e+00 2.5000000000000000e+00 
61 2 4 2.2559723595316457e+00 -1.6889092028062407e+02 4.2000000000000000e+03 6.0000000000000000e+00 0.0000000000000000e+00 2.5000000000000000e+00 
62 2 4 2.2559723595316457e+00 -2.1577341136718246e+02 4.2000000000000000e+03 6.0000000000000000e+00 2.0000000000000000e+00 2.5000000000000000e+00 
63 2 4 2.2559723595316457e+00 -1.8065777881357357e+02 4.2000000000000000e+03 6.0000000000000000e+00 4.0000000000000000e+00 2.5000000000000000e+00 
64 2 4 2.2559723595316457e+00 -3.5555009444203563e+01 4.2000000000000000e+03 6.0000000000000000e+00 6.0000000000000000e+00 2.5000000000000000e+00 
81 2 4 2.2559723595316457e+00 -1.8418647152769489e+02 4.2000000000000000e+03 8.0000000000000000e+00 0.0000000000000000e+00 2.5000000000000000e+00 
82 2 4 2.2559723595316457e+00 -1.9423458129305867e+01 4.2000000000000000e+03 8.0000000000000000e+00 2.0000000000000000e+00 2.5000000000000000e+00 
83 2 4 2.2559723595316457e+00 9.0113054499540908e+01 4.2000000000000000e+03 8.0000000000000000e+00 4.0000000000000000e+00 2.5000000000000000e+00 
84 2 4 2.2559723595316457e+00 1.3521922270577380e+02 4.2000000000000000e+03 8.0000000000000000e+00 6.0000000000000000e+00 2.5000000000000000e+00 
101 2 4 2.2559723595316457e+00 -8.0010541671338473e+01 4.2000000000000000e+03 1.0000000000000000e+01 0.0000000000000000e+00 2.5000000000000000e+00 
102 2 4 2.2559723595316457e+00 1.4916428488759522e+02 4.2000000000000000e+03 1.0000000000000000e+01 2.0000000000000000e+00 2.5000000000000000e+00 
103 2 4 2.2559723595316457e+00 2.5912872702242373e+02 4.2000000000000000e+03 1.0000000000000000e+01 4.0000000000000000e+00 2.5000000000000000e+00 
104 2 4 2.2559723595316457e+00 1.0979340388638323e+02 4.2000000000000000e+03 1.0000000000000000e+01 6.0000000000000000e+00 2.5000000000000000e+00 
121 2 4 2.2559723595316457e+00 1.4333987246321442e+02 4.2000000000000000e+03 1.2000000000000000e+01 0.0000000000000000e+00 2.5000000000000000e+00 
122 2 4 2.2559723595316457e+00 2.4575200599314016e+02 4.2000000000000000e+03 1.2000000000000000e+01 2.0000000000000000e+00 2.5000000000000000e+00 
123 2 4 2.2559723595316457e+00 2.9115295420952589e+02 4.2000000000000000e+03 1.2000000000000000e+01 4.0000000000000000e+00 2.5000000000000000e+00 
124 2 4 2.2559723595316457e+00 6.8017782164802071e+01 4.2000000000000000e+03 1.2000000000000000e+01 6.0000000000000000e+00 2.5000000000000000e+00 
141 2 4 2.2559723595316457e+00 3.4906577879573683e+02 4.2000000000000000e+03 1.4000000000000000e+01 0.0000000000000000e+00 2.5000000000000000e+00 
142 2 4 2.2559723595316457e+00 2.2104490008782557e+02 4.2000000000000000e+03 1.4000000000000000e+01 2.0000000000000000e+00 2.5000000000000000e+00 
143 2 4 2.2559723595316457e+00 2.6835175287224365e+02 4.2000000000000000e+03 1.4000000000000000e+01 4.0000000000000000e+00 2.5000000000000000e+00 
144 2 4 2.2559723595316457e+00 -4.7258036829172420e+02 4.2000000000000000e+03 1.4000000000000000e+01 6.0000000000000000e+00 2.5000000000000000e+00 
161 2 4 2.2559723595316457e+00 4.2503564513549509e+02 4.2000000000000000e+03 1.6000000000000000e+01 0.0000000000000000e+00 2.5000000000000000e+00 
162 2 4 2.2559723595316457e+00 2.3385430249228364e+02 4.2000000000000000e+03 1.6000000000000000e+01 2.0000000000000000e+00 2.5000000000000000e+00 
163 2 4 2.2559723595316457e+00 4.2095304903188816e+02 4.2000000000000000e+03 1.6000000000000000e+01 4.0000000000000000e+00 2.5000000000000000e+00 
164 2 4 2.2559723595316457e+00 -1.5359908101356798e+03 4.2000000000000000e+03 1.6000000000000000e+01 6.0000000000000000e+00 2.5000000000000000e+00 
181 2 4 2.2559723595316457e+00 3.2750987972228143e+02 4.2000000000000000e+03 1.8000000000000000e+01 0.0000000000000000e+00 2.5000000000000000e+00 
182 2 4 2.2559723595316457e+00 3.3494837754308855e+02 4.2000000000000000e+03 1.8000000000000000e+01 2.0000000000000000e+00 2.5000000000000000e+00 
183 2 4 2.2559723595316457e+00 6.7466060653858835e+02 4.2000000000000000e+03 1.8000000000000000e+01 4.0000000000000000e+00 2.5000000000000000e+00 
184 2 4 2.2559723595316457e+00 -2.1739346342199788e+03 4.2000000000000000e+03 1.8000000000000000e+01 6.0000000000000000e+00 2.5000000000000000e+00 
5 2 4 2.2559723595316457e+00 -1.8834790378592757e+02 4.2000000000000000e+03 0.0000000000000000e+00 8.0000000000000000e+00 2.5000000000000000e+00 
6 2 4 2.2559723595316457e+00 -8.2586804354262412e+01 4.2000000000000000e+03 0.0000000000000000e+00 1.0000000000000000e+01 2.5000000000000000e+00 
7 2 4 2.2559723595316457e+00 3.5743363058948336e+00 4.2000000000000000e+03 0.0000000000000000e+00 1.2000000000000000e+01 2.5000000000000000e+00 
25 2 4 2.2559723595316457e+00 -2.1484342280849950e+02 4.2000000000000000e+03 2.0000000000000000e+00 8.0000000000000000e+00 2.5000000000000000e+00 
26 2 4 2.2559723595316457e+00 -1.1574692488347006e+02 4.2000000000000000e+03 2.0000000000000000e+00 1.0000000000000000e+01 2.5000000000000000e+00 
27 2 4 2.2559723595316457e+00 -5.8317142684054577e+00 4.2000000000000000e+03 2.0000000000000000e+00 1.2000000000000000e+01 2.5000000000000000e+00 
45 2 4 2.2559723595316457e+00 -5.5416692303308707e+01 4.2000000000000000e+03 4.0000000000000000e+00 8.0000000000000000e+00 2.5000000000000000e+00 
46 2 4 2.2559723595316457e+00 8.7527479489028678e+01 4.2000000000000000e+03 4.0000000000000000e+00 1.0000000000000000e+01 2.5000000000000000e+00 
47 2 4 2.2559723595316457e+00 2.6044844833065429e+02 4.2000000000000000e+03 4.0000000000000000e+00 1.2000000000000000e+01 2.5000000000000000e+00 
65 2 4 2.2559723595316457e+00 2.8294575164723449e+02 4.2000000000000000e+03 6.0000000000000000e+00 8.0000000000000000e+00 2.5000000000000000e+00 
66 2 4 2.2559723595316457e+00 5.8356289262759469e+02 4.2000000000000000e+03 6.0000000000000000e+00 1.0000000000000000e+01 2.5000000000000000e+00 
67 2 4 2.2559723595316457e+00 8.7522813284436506e+02 4.2000000000000000e+03 6.0000000000000000e+00 1.2000000000000000e+01 2.5000000000000000e+00 
85 2 4 2.2559723595316457e+00 3.4657941930377751e+02 4.2000000000000000e+03 8.0000000000000000e+00 8.0000000000000000e+00 2.5000000000000000e+00 
86 2 4 2.2559723595316457e+00 6.0572145611653104e+02 4.2000000000000000e+03 8.0000000000000000e+00 1.0000000000000000e+01 2.5000000000000000e+00 
87 2 4 2.2559723595316457e+00 8.0069827847730312e+02 4.2000000000000000e+03 8.0000000000000000e+00 1.2000000000000000e+01 2.5000000000000000e+00 
105 2 4 2.2559723595316457e+00 -6.2850964254348405e+01 4.2000000000000000e+03 1.0000000000000000e+01 8.0000000000000000e+00 2.5000000000000000e+00 
106 2 4 2.2559723595316457e+00 -1.3234363339130405e+02 4.2000000000000000e+03 1.0000000000000000e+01 1.0000000000000000e+01 2.5000000000000000e+00 
107 2 4 2.2559723595316457e+00 -1.1054736609374680e+02 4.2000000000000000e+03 1.0000000000000000e+01 1.2000000000000000e+01 2.5000000000000000e+00 
125 2 4 2.2559723595316457e+00 -1.0311564112367012e+03 4.2000000000000000e+03 1.2000000000000000e+01 8.0000000000000000e+00 2.5000000000000000e+00 
126 2 4 2.2559723595316457e+00 -2.6281655879373920e+03 4.2000000000000000e+03 1.2000000000000000e+01 1.0000000000000000e+01 2.5000000000000000e+00 
127 2 4 2.2559723595316457e+00 -3.4351222782007953e+03 4.2000000000000000e+03 1.2000000000000000e+01 1.2000000000000000e+01 2.5000000000000000e+00 
145 2 4 2.2559723595316457e+00 -4.2945056773722681e+03 4.2000000000000000e+03 1.4000000000000000e+01 8.0000000000000000e+00 2.5000000000000000e+00 
146 2 4 2.2559723595316457e+00 -1.0137523877667581e+04 4.2000000000000000e+03 1.4000000000000000e+01 1.0000000000000000e+01 2.5000000000000000e+00 
147 2 4 2.2559723595316457e+00 -1.3829625554281969e+04 4.2000000000000000e+03 1.4000000000000000e+01 1.2000000000000000e+01 2.5000000000000000e+00 
165 2 4 2.2559723595316457e+00 -9.7835515835571023e+03 4.2000000000000000e+03 1.6000000000000000e+01 8.0000000000000000e+00 2.5000000000000000e+00 
166 2 4 2.2559723595316457e+00 -2.2332529542387452e+04 4.2000000000000000e+03 1.6000000000000000e+01 1.0000000000000000e+01 2.5000000000000000e+00 
167 2 4 2.2559723595316457e+00 -3.1108823463587370e+04 4.2000000000000000e+03 1.6000000000000000e+01 1.2000000000000000e+01 2.5000000000000000e+00 
185 2 4 2.2559723595316457e+00 -1.3832638142545595e+04 4.2000000000000000e+03 1.8000000000000000e+01 8.0000000000000000e+00 2.5000000000000000e+00 
186 2 4 2.2559723595316457e+00 -3.1730260044788483e+04 4.2000000000000000e+03 1.8000000000000000e+01 1.0000000000000000e+01 2.5000000000000000e+00 
187 2 4 2.2559723595316457e+00 -4.4588235525245858e+04 4.2000000000000000e+03 1.8000000000000000e+01 1.2000000000000000e+01 2.5000000000000000e+00 
8 2 4 2.2559723595316457e+00 -6.3538529986868966e+01 4.2000000000000000e+03 0.0000000000000000e+00 1.4000000000000000e+01 2.5000000000000000e+00 
9 2 4 2.2559723595316457e+00 -6.4859405484856882e+02 4.2000000000000000e+03 0.0000000000000000e+00 1.6000000000000000e+01 2.5000000000000000e+00 
10 2 4 2.2559723595316457e+00 -1.5822312039728772e+03 4.2000000000000000e+03 0.0000000000000000e+00 1.8000000000000000e+01 2.5000000000000000e+00 
28 2 4 2.2559723595316457e+00 -5.7166181682478388e+01 4.2000000000000000e+03 2.0000000000000000e+00 1.4000000000000000e+01 2.5000000000000000e+00 
29 2 4 2.2559723595316457e+00 -6.8687561688484061e+02 4.2000000000000000e+03 2.0000000000000000e+00 1.6000000000000000e+01 2.5000000000000000e+00 
30 2 4 2.2559723595316457e+00 -1.3795413943475353e+03 4.2000000000000000e+03 2.0000000000000000e+00 1.8000000000000000e+01 2.5000000000000000e+00 
48 2 4 2.2559723595316457e+00 3.8887233272924198e+02 4.2000000000000000e+03 4.0000000000000000e+00 1.4000000000000000e+01 2.5000000000000000e+00 
49 2 4 2.2559723595316457e+00 -4.5301372826448855e+01 4.2000000000000000e+03 4.0000000000000000e+00 1.6000000000000000e+01 2.5000000000000000e+00 
50 2 4 2.2559723595316457e+00 -7.7237771567207301e+02 4.2000000000000000e+03 4.0000000000000000e+00 1.8000000000000000e+01 2.5000000000000000e+00 
68 2 4 2.2559723595316457e+00 1.0601640069343380e+03 4.2000000000000000e+03 6.0000000000000000e+00 1.4000000000000000e+01 2.5000000000000000e+00 
69 2 4 2.2559723595316457e+00 7.1336254284384472e+02 4.2000000000000000e+03 6.0000000000000000e+00 1.6000000000000000e+01 2.5000000000000000e+00 
70 2 4 2.2559723595334011e+00 1.2472839368143190e+02 4.2000000000000000e+03 6.0000000000000000e+00 1.8000000000000000e+01 2.5000000000000000e+00 
88 2 4 2.2559723595316457e+00 8.8646308118338152e+02 4.2000000000000000e+03 8.0000000000000000e+00 1.4000000000000000e+01 2.5000000000000000e+00 
89 2 4 2.2559723595316457e+00 4.8567601915420926e+02 4.2000000000000000e+03 8.0000000000000000e+00 1.6000000000000000e+01 2.5000000000000000e+00 
90 2 4 2.2559723604844817e+00 6.3570097401833976e+01 4.2000000000000000e+03 8.0000000000000000e+00 1.8000000000000000e+01 2.5000000000000000e+00 
108 2 4 2.2559723595316457e+00 -7.6899882057397036e+01 4.2000000000000000e+03 1.0000000000000000e+01 1.4000000000000000e+01 2.5000000000000000e+00 
109 2 4 2.2559723595316457e+00 -2.2525472489101935e+02 4.2000000000000000e+03 1.0000000000000000e+01 1.6000000000000000e+01 2.5000000000000000e+00 
110 2 4 2.2559723595316457e+00 -3.9625922503525697e+02 4.2000000000000000e+03 1.0000000000000000e+01 1.8000000000000000e+01 2.5000000000000000e+00 
128 2 4 2.2559723595316457e+00 -3.2734728820692535e+03 4.2000000000000000e+03 1.2000000000000000e+01 1.4000000000000000e+01 2.5000000000000000e+00 
129 2 4 2.2559723595316457e+00 -3.1396141335301163e+03 4.2000000000000000e+03 1.2000000000000000e+01 1.6000000000000000e+01 2.5000000000000000e+00 
130 2 4 2.2559723595316457e+00 -3.2440400143111901e+03 4.2000000000000000e+03 1.2000000000000000e+01 1.8000000000000000e+01 2.5000000000000000e+00 
148 2 4 2.2559723595316457e+00 -1.4198094686988967e+04 4.2000000000000000e+03 1.4000000000000000e+01 1.4000000000000000e+01 2.5000000000000000e+00 
149 2 4 2.2559723595316457e+00 -1.4220419210879565e+04 4.2000000000000000e+03 1.4000000000000000e+01 1.6000000000000000e+01 2.5000000000000000e+00 
150 2 4 2.2559723595316457e+00 -1.4831580084616056e+04 4.2000000000000000e+03 1.4000000000000000e+01 1.8000000000000000e+01 2.5000000000000000e+00 
168 2 4 2.2559723595316457e+00 -3.3218931197888007e+04 4.2000000000000000e+03 1.6000000000000000e+01 1.4000000000000000e+01 2.5000000000000000e+00 
169 2 4 2.2559723595316457e+00 -3.3675548288808532e+04 4.2000000000000000e+03 1.6000000000000000e+01 1.6000000000000000e+01 2.5000000000000000e+00 
170 2 4 2.2559723595316457e+00 -3.4639623375281641e+04 4.2000000000000000e+03 1.6000000000000000e+01 1.8000000000000000e+01 2.5000000000000000e+00 
188 2 4 2.2559723595316457e+00 -4.7692037629723818e+04 4.2000000000000000e+03 1.8000000000000000e+01 1.4000000000000000e+01 2.5000000000000000e+00 
189 2 4 2.2559723595316457e+00 -4.8197890473497071e+04 4.2000000000000000e+03 1.8000000000000000e+01 1.6000000000000000e+01 2.5000000000000000e+00 
190 2 4 2.2559723595316457e+00 -4.9216771174658723e+04 4.2000000000000000e+03 1.8000000000000000e+01 1.8000000000000000e+01 2.5000000000000000e+00 
1681 1283 2 1.0279951505307563e+00 4.6867139854447189e+04 4.2000000000000000e+03 1.9711711257160530e+01 1.8566985237471076e+00 5.7015304078649869e+01 
1936 1538 2 1.0279942063248046e+00 2.1296214700842995e+05 4.2000000000000000e+03 1.9738120682715110e+01 1.6367264182052661e+00 5.6988279086293019e+01 
1737 1339 2 1.0279965677081055e+00 3.3429341927408945e+05 4.2000000000000000e+03 1.9665605930299972e+01 2.5822298095176239e+00 5.7109359141064530e+01 
901 503 2 1.0279981542205938e+00 6.3944071381101478e+05 4.2000000000000000e+03 1.9745871464103846e+01 3.5524812856201673e+00 5.7306970897304360e+01 
1861 1463 2 1.0280172479353396e+00 1.8293948191656554e+05 4.2000000000000000e+03 1.8631024303741384e+01 1.0592729330300286e+00 6.0252746633253778e+01 
488 90 2 1.0280189517274654e+00 2.7892368797524995e+05 4.2000000000000000e+03 1.8776623791815325e+01 1.1739929715568482e+00 6.0428164527540368e+01 
1529 1131 2 1.0280148709166212e+00 1.6188181616061510e+05 4.2000000000000000e+03 1.8512717300304057e+01 1.9446667768731942e+00 6.0844994333953878e+01 
660 262 2 1.0279983904383296e+00 2.9477466483132943e+05 4.2000000000000000e+03 1.9793754320906899e+01 4.0533497542241772e+00 5.7476656827840586e+01 
842 444 2 1.0279984104892017e+00 -3.0302925797461602e+05 4.2000000000000000e+03 1.9800714302885261e+01 3.8359930519373573e+00 5.7394707789973268e+01 
666 268 2 1.0280064677647602e+00 -1.8804646125944113e+05 4.2000000000000000e+03 1.8237630489170009e+01 2.9129849961049397e+00 6.1343924287020791e+01 
1334 936 2 1.0280067222416567e+00 -4.9429576909720787e+05 4.2000000000000000e+03 1.8203996891117775e+01 3.0543155206654919e+00 6.1392372997527005e+01 
950 552 2 1.0279883795377447e+00 -3.9753864490548149e+05 4.2000000000000000e+03 1.9556473930885712e+01 5.9424496838698477e+00 6.5650095224944764e+01 
1102 704 2 1.0280035544065576e+00 -2.1883944407651998e+05 4.2000000000000000e+03 1.9017276630395461e+01 5.0304556831663128e+00 6.4951884760430332e+01 
665 267 2 1.0280040737562417e+00 1.5902992914705924e+05 4.2000000000000000e+03 1.8386180346321591e+01 4.4729513795639919e+00 6.2949571047357544e+01 
479 81 2 1.0280047348442347e+00 2.3895754984047709e+05 4.2000000000000000e+03 1.8411106840781816e+01 4.2818172348944969e+00 6.3030787214419071e+01 
662 264 2 1.0279947467148016e+00 -1.0187509092303189e+05 4.2000000000000000e+03 1.9223457972160219e+01 5.9957082402517177e+00 6.4358465907077530e+01 
1840 1442 2 1.0280007600549359e+00 2.6862757044839219e+05 4.2000000000000000e+03 1.8872955349928326e+01 5.1300146361810333e+00 6.4490776646445013e+01 
1964 1566 2 1.0280020994284540e+00 3.3004762353333598e+05 4.2000000000000000e+03 1.8868619123973762e+01 5.0686545705776345e+00 6.4515700086378274e+01 
1684 1286 2 1.0280019399232507e+00 5.4178074565989533e+04 4.2000000000000000e+03 1.9053087355559828e+01 5.1036031171280305e+00 6.5018438480657608e+01 
1772 1374 2 1.0279952367047116e+00 2.2149223376923069e+05 4.2000000000000000e+03 3.8776957446542393e-01 3.9786641815915962e+00 7.0513752541721004e+01 
1863 1465 2 1.0279991430221800e+00 -3.1888871729286975e+05 4.2000000000000000e+03 6.3483095746957674e-01 2.9364363690116635e+00 7.0162624592015973e+01 
1564 1166 2 1.0279992341710658e+00 -2.2404262200437686e+04 4.2000000000000000e+03 7.8557039528919492e-01 3.1281269402863976e+00 7.0304109274542085e+01 
930 532 2 1.0280026448258368e+00 -2.9442683464227064e+05 4.2000000000000000e+03 2.9212705034586119e+00 4.2881313075113994e+00 7.1430652333164105e+01 
931 533 2 1.0280021430601238e+00 -2.7386234886586503e+05 4.2000000000000000e+03 2.8185823848636762e+00 5.0076076097832560e+00 7.1525721661288586e+01 
1338 940 2 1.0280021786361815e+00 -4.6836746194198402e+05 4.2000000000000000e+03 3.0051554339059967e+00 5.0332558872670825e+00 7.1598866695122894e+01 
1694 1296 2 1.0280064236196251e+00 -1.6424368511956613e+05 4.2000000000000000e+03 1.1927485661444346e+00 1.8850227400321358e+00 7.1351527333341679e+01 
1878 1480 2 1.0280035920374280e+00 -2.5344331740021388e+05 4.2000000000000000e+03 1.5921451566633926e+00 5.6675459503721806e+00 7.1652561796356480e+01 
1521 1123 2 1.0280106833989022e+00 8.7968177449208932e+04 4.2000000000000000e+03 1.1151257007979936e+00 1.6461470947618708e+00 7.1684285967038761e+01 
1249 851 2 1.0279935438096197e+00 1.4245850594874757e+05 4.2000000000000000e+03 5.7317858310018712e+00 2.3390726579237695e+00 7.2087014715876322e+01 
1233 835 2 1.0279885200269701e+00 1.4078518324161961e+05 4.2000000000000000e+03 6.9730078937752396e+00 5.7268408695156436e-01 7.0016264183820866e+01 
1302 904 2 1.0279895584721412e+00 -1.1985781430810819e+05 4.2000000000000000e+03 7.2179626124042535e+00 9.3972905643184912e-01 6.9633239146658283e+01 
1814 1416 2 1.0280025495563387e+00 -2.5755717350426404e+05 4.2000000000000000e+03 8.6220546146581238e+00 2.9764536479130060e-01 6.6887233765465751e+01 
1506 1108 2 1.0280044877574221e+00 -4.3274107285528223e+05 4.2000000000000000e+03 9.0928486572489913e+00 9.8061460680486723e-01 6.7581403679160005e+01 
475 77 2 1.0279990843460152e+00 3.6312586925497319e+05 4.2000000000000000e+03 8.4513392982596969e+00 1.3591279281998725e+00 6.8636307590162190e+01 
947 549 2 1.0279945255306202e+00 -4.1686146143228118e+05 4.2000000000000000e+03 7.5935333989870468e+00 1.0643284407812774e+00 6.9075041398199787e+01 
674 276 2 1.0280207120140654e+00 -2.5026904517923336e+05 4.2000000000000000e+03 1.1415817719684664e+01 2.1874034313392535e-01 6.7518844661769990e+01 
1707 1309 2 1.0279831919267872e+00 -3.4391216792015993e+05 4.2000000000000000e+03 7.5994659283608170e+00 2.6108123518469433e+00 7.1322168425568577e+01 
1048 650 2 1.0279962176399249e+00 1.9211276306423548e+04 4.2000000000000000e+03 1.7042503338271466e+01 1.1885542356606492e-01 6.8353721548013752e+01 
1609 1211 2 1.0280004147291539e+00 1.4528439449467507e+05 4.2000000000000000e+03 1.6869697560324486e+01 2.1609699801026799e-01 6.8583154327344701e+01 
1745 1347 2 1.0280026819577028e+00 2.4867779850746563e+05 4.2000000000000000e+03 1.6634713503328729e+01 3.1148477168007976e-01 6.8664904590414039e+01 
1706 1308 2 1.0280053148615902e+00 -3.4822922453311324e+05 4.2000000000000000e+03 1.5039182730375471e+01 2.8307437582152528e-01 6.8472884361373886e+01 
1444 1046 2 1.0280157771640321e+00 -1.3944394429107071e+05 4.2000000000000000e+03 1.5320262802312476e+01 8.2808765688164154e-01 7.0182158381888527e+01 
823 425 2 1.0280231620540483e+00 -2.5552657858181195e+05 4.2000000000000000e+03 1.5801994844425783e+01 9.7539884220125517e-01 7.0758302333776641e+01 
1821 1423 2 1.0280163483859470e+00 9.7817011294192314e+04 4.2000000000000000e+03 1.4323724952329187e+01 2.6792659193727832e+00 7.1945445547774625e+01 
1235 837 2 1.0280345464010734e+00 -7.5460520194832701e+04 4.2000000000000000e+03 1.9927064244092538e+01 4.5166298066102524e+00 7.1097814317727128e+01 
861 463 2 1.0280283619043227e+00 -3.2331601961899482e+03 4.2000000000000000e+03 1.9936323668992291e+01 4.7211585999165280e+00 7.1512399117359280e+01 
1776 1378 2 1.0280012278578461e+00 2.3153159095251583e+05 4.2000000000000000e+03 1.9749142981452120e+01 1.4677878064022766e+01 7.1543535553710313e+01 
1919 1521 2 1.0280003783779927e+00 1.8375213141939920e+05 4.2000000000000000e+03 1.9869435940270087e+01 1.4819272697247346e+01 7.1052119992316506e+01 
1649 1251 2 1.0279996502240512e+00 1.7911550657077873e+05 4.2000000000000000e+03 1.9830469333267647e+01 1.4772276543483066e+01 7.1006297228894880e+01 
708 310 2 1.0279969536290277e+00 3.4188886631194933e+05 4.2000000000000000e+03 1.9651195094943475e+01 1.4507578576057297e+01 7.0866055882698774e+01 
968 570 2 1.0279966359377775e+00 -9.0030051963712700e+04 4.2000000000000000e+03 1.9703455279756689e+01 1.4572983179476191e+01 7.0794448673578103e+01 
1402 1004 2 1.0279890449939253e+00 -6.2019354935510863e+04 4.2000000000000000e+03 1.9740512240368840e+01 1.4028222779183555e+01 6.9781929265251208e+01 
932 534 2 1.0279888062677789e+00 -7.9971815345918396e+04 4.2000000000000000e+03 1.9836833691021049e+01 1.4084921260201765e+01 6.9674214044877246e+01 
1290 892 2 1.0279946296785132e+00 -2.5537497733379333e+05 4.2000000000000000e+03 1.9993384761337097e+01 1.4695472493234229e+01 7.0312261485572023e+01 
1485 1087 2 1.0279975420355765e+00 9.1273809323281603e+04 4.2000000000000000e+03 5.2063468095730558e-01 5.8084668156050352e+00 7.2299855860970041e+01 
1312 914 2 1.0279944310966058e+00 2.5440671605648033e+04 4.2000000000000000e+03 3.7314694547944383e-01 6.1711354431905283e+00 7.2969131412064243e+01 
1087 689 2 1.0279846621629427e+00 -4.8353275696952693e+05 4.2000000000000000e+03 5.3488553914203250e+00 4.8811971557386657e+00 7.2649199304935976e+01 
1347 949 2 1.0280153647889785e+00 -2.6572450758688984e+05 4.2000000000000000e+03 3.8263865305838860e+00 3.7280155154725581e-01 7.3817214376445918e+01 
686 288 2 1.0280102957068724e+00 -3.1240605722329713e+05 4.2000000000000000e+03 2.0449413088788431e+00 2.0128128363906422e-01 7.4246539378546643e+01 
641 243 2 1.0280064237813380e+00 1.7525870207008600e+05 4.2000000000000000e+03 3.0912405549048061e+00 3.0748352966874415e-01 7.6899315683064856e+01 
525 127 2 1.0279924183350653e+00 2.5305163699610674e+05 4.2000000000000000e+03 6.3326870471138017e+00 6.2422356667490364e+00 7.5548504720488083e+01 
1874 1476 2 1.0280060735688417e+00 -2.1302144660353250e+05 4.2000000000000000e+03 1.1787752722995897e+01 3.1164524693101678e+00 7.2396437439429235e+01 
1421 1023 2 1.0280012247002797e+00 -1.6594858411988193e+04 4.2000000000000000e+03 9.7073023511854188e+00 4.7150731053325075e+00 7.2987849208855266e+01 
1644 1246 2 1.0280148141325152e+00 2.2098110232839038e+05 4.2000000000000000e+03 1.2029109970878231e+01 3.9141008876562693e+00 7.3034861305142115e+01 
1658 1260 2 1.0280151974460037e+00 -3.0532043091903540e+05 4.2000000000000000e+03 1.2124695931842885e+01 3.7926282159080369e+00 7.2941516445563693e+01 
1241 843 2 1.0279834948047304e+00 3.5653481049317232e+05 4.2000000000000000e+03 7.0852443335027671e+00 4.6601808786335486e+00 7.2838154000832176e+01 
2024 1626 2 1.0279906032799502e+00 2.8548482318244962e+05 4.2000000000000000e+03 7.8993646544011469e+00 5.2257019248907923e+00 7.2969039621567674e+01 
815 417 2 1.0279982751038392e+00 -2.1877432139211145e+05 4.2000000000000000e+03 1.2032211285447914e+01 5.1342941786393648e-01 7.3542357612909299e+01 
730 332 2 1.0280012574976316e+00 3.1215598455350861e+04 4.2000000000000000e+03 1.2074496457775176e+01 5.3398314781045098e-01 7.3452596907231865e+01 
1079 681 2 1.0279508931363113e+00 -1.5501669805798936e+05 4.2000000000000000e+03 1.1348164151910584e+01 5.5282416169429638e+00 7.6360290631348974e+01 
854 456 2 1.0279932105536180e+00 -1.8732361418268958e+05 4.2000000000000000e+03 8.4322270206204397e+00 5.9875235437933725e+00 7.3401778370615759e+01 
1713 1315 2 1.0279873087967164e+00 3.4640660753805554e+04 4.2000000000000000e+03 6.9641943360813343e+00 5.7467251080437238e+00 7.3080425223458107e+01 
1809 1411 2 1.0280811852779690e+00 1.4927905813556846e+05 4.2000000000000000e+03 9.9400640531129962e+00 5.7111512576596990e-01 7.4288764730396025e+01 
1076 678 2 1.0280004285391569e+00 3.7860644089048466e+05 4.2000000000000000e+03 1.0626401355316776e+01 6.1838664387412372e+00 7.5930996238762845e+01 
1986 1588 2 1.0280134050204159e+00 3.3861657805337413e+05 4.2000000000000000e+03 1.2865191864128844e+01 4.1680425790746076e+00 7.3800706465534589e+01 
612 214 2 1.0280157858875902e+00 8.1821166989076053e+04 4.2000000000000000e+03 1.3095623522623526e+01 4.0541239286368365e+00 7.3683625906956152e+01 
855 457 2 1.0279708232865499e+00 -1.6839219950059764e+05 4.2000000000000000e+03 1.3242066923954347e+01 1.1048120131126871e+00 7.7573598261272281e+01 
1044 646 2 1.0280177330939919e+00 2.0295703737911396e+05 4.2000000000000000e+03 1.4223733645185836e+01 3.0055247710944650e+00 7.2246519629985741e+01 
1531 1133 2 1.0279830730280639e+00 -4.8393604440193286e+05 4.2000000000000000e+03 1.6624643850037220e+01 1.7508114862498778e+00 7.2527153233657145e+01 
751 353 2 1.0279804350247173e+00 -2.3542503135401997e+05 4.2000000000000000e+03 1.6713858389604354e+01 1.7716246339933623e+00 7.2736131788340941e+01 
1783 1385 2 1.0280032797522707e+00 -4.2130352670477565e+04 4.2000000000000000e+03 1.8262872640698991e+01 4.7235806140639323e+00 7.3492231673804682e+01 
510 112 2 1.0279829915776861e+00 1.1425095818663259e+05 4.2000000000000000e+03 1.8654971183276576e+01 5.7022306707832424e+00 7.4814882969043182e+01 
485 87 2 1.0279836404621625e+00 2.8891116086557921e+05 4.2000000000000000e+03 1.8181134920592676e+01 5.0508150932373699e+00 7.5012298181655339e+01 
1366 968 2 1.0279848120225143e+00 -4.6029510785897233e+05 4.2000000000000000e+03 1.7415299226891729e+01 4.4001037326277972e+00 7.4653209485582337e+01 
1619 1221 2 1.0281127469237319e+00 -3.8533071101800055e+05 4.2000000000000000e+03 1.7925512438483327e+01 2.0518343442346514e+00 7.6050502498968314e+01 
767 369 2 1.0280080798845976e+00 -4.6114511194886325e+05 4.2000000000000000e+03 1.5031088015362153e+01 3.4849055056301821e+00 7.5330945493432267e+01 
1647 1249 2 1.0279494801564455e+00 -1.1168975364863094e+05 4.2000000000000000e+03 1.7928922944655916e+01 1.8646936086279213e+00 7.3997544152974129e+01 
1565 1167 2 1.0279734333890704e+00 2.4034594134517550e+05 4.2000000000000000e+03 1.9178281561911806e+01 5.9607052132292315e+00 7.6791610526041680e+01 
445 47 2 1.0280013910536270e+00 3.5996795451490523e+05 4.2000000000000000e+03 3.8536486899746292e+00 7.6884116887471592e+00 7.4315469989529518e+01 
1284 886 2 1.0280038448160931e+00 6.1625317276659458e+04 4.2000000000000000e+03 4.3397560314927572e+00 7.9278181057118475e+00 7.5206438205618369e+01 
1464 1066 2 1.0280030952417587e+00 1.7781010646440107e+04 4.2000000000000000e+03 4.9752757078095549e+00 8.0753346939154262e+00 7.5927020158234612e+01 
1579 1181 2 1.0279940135906656e+00 1.8074157187621918e+05 4.2000000000000000e+03 5.4524647492521510e+00 6.8604068629335275e+00 7.3608727075583872e+01 
2010 1612 2 1.0279852954561715e+00 1.2378337674444911e+05 4.2000000000000000e+03 5.7626248469787784e+00 8.3033870564558203e+00 7.6121734919515816e+01 
1611 1213 2 1.0279849287512430e+00 -4.0153095745503140e+05 4.2000000000000000e+03 6.0023843347118193e+00 9.0059691118022993e+00 7.7265780649388802e+01 
706 308 2 1.0280056528544061e+00 -5.6922863120091213e+04 4.2000000000000000e+03 7.3123670558607079e-01 6.8259577004831486e+00 7.5203397648902140e+01 
582 184 2 1.0280075349687179e+00 -2.7153820683072100e+05 4.2000000000000000e+03 7.3447912709017682e-01 7.3965368874231148e+00 7.5739009718994424e+01 
1897 1499 2 1.0279849942149417e+00 4.2405254009686597e+05 4.2000000000000000e+03 7.8235331265081953e-01 1.0288563778427797e+01 7.7727730242625128e+01 
1047 649 2 1.0279999804660187e+00 -3.8470198346671485e+05 4.2000000000000000e+03 3.0055492703669706e-01 6.8437930332396615e+00 7.4770046497669483e+01 
1920 1522 2 1.0279929992378485e+00 4.5190038346182666e+05 4.2000000000000000e+03 2.9178770197262327e-01 6.8887722244541623e+00 7.3768447372130950e+01 