LAMMPS data file via write_data, version 30 Jul 2016, timestep = 50000000

1520 atoms
8 atom types

0.0000000000000000e+00 4.0000000000000000e+01 xlo xhi
0.0000000000000000e+00 4.0000000000000000e+01 ylo yhi
0.0000000000000000e+00 1.0000000000000000e+02 zlo zhi

Masses

1 3.896
2 5.36
3 20.064
4 8.378
5 8.378
6 8.378
7 8.378
8 8.378

Atoms # meso-molecular

270 271 2 1.0279999802993682e+00 3.2149343186529004e+03 1.0000000000000000e+00 1.1695518855026373e+01 4.9458429908083605e+00 2.2556125613135272e+01 
271 272 2 1.0279999802993562e+00 3.2149324439734273e+03 1.0000000000000000e+00 1.1695918235269806e+01 4.9460583959570847e+00 2.2556163042363508e+01 
1334 1335 2 1.0280000197006431e+00 3.2152186371847056e+03 1.0000000000000000e+00 1.0869750444066481e+01 6.4170279127189120e+00 2.2903401922331231e+01 
1335 1336 2 1.0280000197006376e+00 3.2152308494718636e+03 1.0000000000000000e+00 1.0869751014362153e+01 6.4170282989359908e+00 2.2903401642684749e+01 
112 113 2 1.0280000000310883e+00 2.9016062281326003e+03 1.0000000000000000e+00 8.6063681449093554e-01 2.9139214953852126e+00 3.5669051858830947e+01 
725 726 2 1.0279999999698315e+00 -1.2415183326647875e+03 1.0000000000000000e+00 6.5083713026167070e-02 3.3164458742211202e+00 3.5882918135045060e+01 
567 568 2 1.0279999999817269e+00 3.5133090281088653e+02 1.0000000000000000e+00 3.1258392549670305e-01 2.4315158524985327e+00 3.6059780094973256e+01 
1165 1166 2 1.0279999999873255e+00 -8.8763972356794329e+02 1.0000000000000000e+00 5.7484255934396256e+00 4.9227280826167359e+00 3.6836226126520934e+01 
1095 1096 2 1.0279999999946652e+00 -3.5271525912155994e+03 1.0000000000000000e+00 6.3640171393824003e+00 4.4123657598881243e+00 3.6963051591935056e+01 
677 678 2 1.0279999998878586e+00 -3.1123189584674556e+03 1.0000000000000000e+00 6.3402033739536470e-02 6.1863048147024626e+00 3.7225410564521383e+01 
1015 1016 2 1.0279999999639160e+00 2.8141295125783390e+03 1.0000000000000000e+00 1.4870525505576162e+00 4.9190867723139293e+00 3.8786989628305385e+01 
125 126 2 1.0279999999513090e+00 5.5629669182927573e+03 1.0000000000000000e+00 2.8396025955174120e+00 5.1586321945976668e+00 3.8717022618324954e+01 
295 296 2 1.0280000001242893e+00 1.8339870471068771e+03 1.0000000000000000e+00 4.9560602361071426e+00 5.3430412977992763e+00 3.8248752554048245e+01 
108 109 2 1.0279999998192235e+00 4.1115776957683229e+03 1.0000000000000000e+00 4.5444526087751429e+00 5.3113536512063062e+00 3.8318904537610564e+01 
1187 1188 2 1.0279999999017375e+00 -3.8054366633965565e+03 1.0000000000000000e+00 7.1464380140474937e+00 5.0507770803244068e+00 3.7339926851860270e+01 
996 997 2 1.0280000000401721e+00 5.8147129461920940e+03 1.0000000000000000e+00 5.4323252891706746e+00 7.4270430038284871e+00 3.8861528640966988e+01 
794 795 2 1.0280000000165024e+00 6.1945742876783402e+02 1.0000000000000000e+00 4.4817274581269073e+00 7.7440921341372722e+00 3.8873255789056152e+01 
914 915 2 1.0280000001614686e+00 -1.2159632421373026e+03 1.0000000000000000e+00 7.5005097462534973e+00 7.6228086747722132e+00 3.7588546053331065e+01 
552 553 2 1.0279999999947160e+00 7.3920393000456879e+03 1.0000000000000000e+00 7.3832320023882625e+00 6.1312681849426411e+00 3.8344140092790468e+01 
458 459 2 1.0279999999729896e+00 -1.2133137038171126e+03 1.0000000000000000e+00 8.0175617378805271e+00 7.6758387830195876e+00 3.7515967569860891e+01 
1475 1476 2 1.0279999998895715e+00 -7.2131503583851372e+03 1.0000000000000000e+00 8.4584588444882431e+00 6.2032348087125788e+00 3.7799778771372139e+01 
240 241 2 1.0280000000020821e+00 -6.1329793265378589e+02 1.0000000000000000e+00 9.9031402272661513e+00 7.0700051360605851e+00 3.8994684147345147e+01 
729 730 2 1.0280000000097416e+00 -2.9479941668337381e+02 1.0000000000000000e+00 5.5363697248347998e+00 8.5239494103165558e+00 3.8111136542363390e+01 
377 378 2 1.0279999999892706e+00 -2.6843923088257343e+03 1.0000000000000000e+00 4.7066627820082223e+00 9.8217583470501921e+00 3.8619024421135109e+01 
243 244 2 1.0279999999311853e+00 2.2572141875795146e+03 1.0000000000000000e+00 6.6927090138199385e-01 1.0197352027036921e+01 3.7635172898169778e+01 
450 451 2 1.0280000000677731e+00 3.5330543620436210e+03 1.0000000000000000e+00 1.1537058676674046e-01 1.0323565173117901e+01 3.8188901008999487e+01 
1020 1021 2 1.0279999999971623e+00 4.8792602214207509e+03 1.0000000000000000e+00 1.1989439906661468e+00 1.0558543905350964e+01 3.8911993988335716e+01 
373 374 2 1.0280000000094573e+00 -1.1231391009500476e+03 1.0000000000000000e+00 2.2947723474642778e+00 1.0755304051104018e+01 3.7383826142904262e+01 
278 279 2 1.0279999999955256e+00 1.7054953027087131e+03 1.0000000000000000e+00 2.9324684372119814e+00 1.0974016217414166e+01 3.7478465181653164e+01 
275 276 2 1.0279999999853848e+00 2.1424302843042801e+03 1.0000000000000000e+00 3.7475950766897808e+00 1.0414880766329706e+01 3.8150910781865591e+01 
219 220 2 1.0279999998283482e+00 1.6299715878362431e+03 1.0000000000000000e+00 5.3382270495957913e+00 1.6159934653170582e-01 4.1132320728058914e+01 
491 492 2 1.0279999999472789e+00 3.1499286270311336e+02 1.0000000000000000e+00 1.1030950871541300e+01 5.2991636510665696e-01 4.0921356381585525e+01 
704 705 2 1.0280000002263894e+00 -3.5688946662176886e+03 1.0000000000000000e+00 1.3648630861198031e+01 2.4843915570861436e-02 3.9630546397958909e+01 
346 347 2 1.0280000000002463e+00 -5.5828448527613109e+03 1.0000000000000000e+00 1.2307390699883449e+01 8.5088447105982767e-01 4.1063567623163678e+01 
213 214 2 1.0279999994724989e+00 -7.9943447861837558e+02 1.0000000000000000e+00 7.3743747022208872e+00 2.4114882417782342e+00 4.0299299229095993e+01 
242 243 2 1.0280000005174990e+00 2.3801631420570147e+03 1.0000000000000000e+00 7.2964983614939296e+00 3.6218183659970489e+00 4.0395355642606184e+01 
248 249 2 1.0280000006175520e+00 -1.2541817861675810e+02 1.0000000000000000e+00 7.2494352975556584e+00 2.3328865114141450e+00 4.0845215176953431e+01 
554 555 2 1.0279999999769525e+00 1.7242922913865600e+03 1.0000000000000000e+00 1.8214329901289183e+00 4.5459556131165835e+00 4.0203219280452103e+01 
798 799 2 1.0279999999806930e+00 1.9078528526727564e+03 1.0000000000000000e+00 3.0214688077116447e+00 4.3951623460214142e+00 3.9610924510138233e+01 
49 50 2 1.0280000000606313e+00 3.2646049309049477e+03 1.0000000000000000e+00 4.5866919877916885e+00 5.1674236876957940e+00 4.0327093340021442e+01 
446 447 2 1.0279999999825709e+00 -4.6411839331792016e+03 1.0000000000000000e+00 4.5043645584294456e+00 4.6871128202572256e+00 4.0979011958476271e+01 
198 199 2 1.0279999998990264e+00 2.7297639480555918e+03 1.0000000000000000e+00 7.5325563742173820e+00 5.4573072748399678e+00 4.0629350003194858e+01 
184 185 2 1.0280000000153753e+00 -1.7456578131125984e+03 1.0000000000000000e+00 1.3484316955175458e+01 4.5768096593245673e+00 4.0158666468215323e+01 
421 422 2 1.0279999998821374e+00 9.3109634838725697e+02 1.0000000000000000e+00 1.3445074574046549e+01 4.3552604397956109e+00 4.0476094297136868e+01 
480 481 2 1.0280000000081546e+00 3.1957180099021307e+03 1.0000000000000000e+00 1.5217963115018566e+01 5.0617319918630841e+00 4.0283579783519102e+01 
926 927 2 1.0279999999171072e+00 -2.0762438867862884e+03 1.0000000000000000e+00 1.5255441468940505e+01 4.7891970632217182e+00 4.0363543556205016e+01 
753 754 2 1.0280000000625653e+00 9.3878502314880890e+01 1.0000000000000000e+00 1.2967315626989604e+00 6.0717384562435823e+00 4.0016778674347790e+01 
394 395 2 1.0280000000624279e+00 -5.8814781134372624e+03 1.0000000000000000e+00 1.8467966948554280e+00 6.1277831746009435e+00 4.0212234395869459e+01 
118 119 2 1.0280000000264662e+00 -6.1313176090753877e+03 1.0000000000000000e+00 9.0216386308716601e+00 7.3478852387233697e+00 3.9258042128271185e+01 
199 200 2 1.0279999999241811e+00 2.9063172394989333e+03 1.0000000000000000e+00 8.5219138099793117e+00 6.0981292529398861e+00 3.9882497289400128e+01 
114 115 2 1.0279999999358251e+00 -6.0447376185648500e+03 1.0000000000000000e+00 9.8707585216234008e+00 6.1785179805079329e+00 4.0725740669904056e+01 
709 710 2 1.0280000000142226e+00 -3.0067431802107612e+03 1.0000000000000000e+00 1.0846997754990175e+01 6.5743252859513293e+00 3.9805821511488439e+01 
693 694 2 1.0279999999051637e+00 -3.4383789638813059e+03 1.0000000000000000e+00 1.1436587382107930e+01 7.4801323969604008e+00 4.0767990476157529e+01 
424 425 2 1.0279999998592784e+00 9.2961741526398441e+02 1.0000000000000000e+00 1.2442793357858706e+01 6.8717034866306044e+00 4.0845051351574327e+01 
441 442 2 1.0280000000756642e+00 2.7193156839410603e+03 1.0000000000000000e+00 5.6253172681913162e+00 9.9911578265062282e+00 3.9853048991859069e+01 
1055 1056 2 1.0280000000233160e+00 -4.0642877947326947e+03 1.0000000000000000e+00 4.2835477174635406e+00 8.3753386829090477e+00 4.0195898893984165e+01 
622 623 2 1.0279999999370812e+00 2.0474254364833150e+03 1.0000000000000000e+00 4.1845456141601627e+00 9.4368530510809414e+00 4.0632314114959982e+01 
1004 1005 2 1.0279999999450666e+00 2.7615934448750031e+03 1.0000000000000000e+00 6.2057677103988409e+00 8.9961688853566830e+00 3.9319194584329381e+01 
821 822 2 1.0279999997788851e+00 -2.5893325734438076e+03 1.0000000000000000e+00 6.9043902958340722e+00 9.8741191032387299e+00 4.0970841690965528e+01 
182 183 2 1.0279999999812515e+00 2.1485164154609365e+03 1.0000000000000000e+00 2.4519918805923342e+00 1.0492125674696105e+01 3.9763135705506023e+01 
179 180 2 1.0280000000016514e+00 1.7068664774691561e+03 1.0000000000000000e+00 2.7576874106339946e+00 1.0278076842514031e+01 3.9836824121325684e+01 
258 259 2 1.0279999999376597e+00 2.9456956698934623e+03 1.0000000000000000e+00 8.2594995490767200e+00 1.0031925522056296e+01 4.0514697696691840e+01 
855 856 2 1.0280000000813330e+00 4.3386898751386207e+03 1.0000000000000000e+00 8.8119228361863584e+00 1.0401535457296587e+01 4.0939330242569795e+01 
11 12 2 1.0280000005384518e+00 -2.2512222520772311e+03 1.0000000000000000e+00 6.6674874574330030e+00 5.9892762775598074e-01 4.1325048167757629e+01 
716 717 2 1.0279999995427929e+00 -2.6329033454509126e+03 1.0000000000000000e+00 6.3954422009492449e+00 1.1428331273927816e-01 4.3054945373111899e+01 
109 110 2 1.0280000000419665e+00 2.8914239158794262e+03 1.0000000000000000e+00 6.2497762994959176e+00 4.3161279284860216e-02 4.3126422870095773e+01 
1446 1447 2 1.0280000002986696e+00 -5.9505789590897693e+03 1.0000000000000000e+00 9.8288616506168474e+00 1.2549270277345308e+00 4.1510623769553234e+01 
25 26 2 1.0280000000991791e+00 5.4799377805520235e+03 1.0000000000000000e+00 9.1593186878188746e+00 3.9379715151390812e-02 4.2203099779530689e+01 
357 358 2 1.0279999996766698e+00 -1.3688033295506066e+03 1.0000000000000000e+00 1.0157716313441609e+01 1.8867026081237408e+00 4.2656394254962230e+01 
212 213 2 1.0279999999600311e+00 -5.0348389140277774e+01 1.0000000000000000e+00 1.2494031952237190e+01 5.7078860941183118e-01 4.1914856813762810e+01 
1505 1506 2 1.0279999997994160e+00 -1.1418708912533839e+03 1.0000000000000000e+00 1.4846085806114875e+01 7.3412461288692865e-01 4.1795291866766362e+01 
137 138 2 1.0279999997943188e+00 -1.1578714331568954e+03 1.0000000000000000e+00 1.4845477228844565e+01 7.2491981861091737e-01 4.1798045296411722e+01 
984 985 2 1.0279999998411755e+00 6.2139648782990535e+03 1.0000000000000000e+00 1.7659575312591695e+01 1.8927889362227328e+00 4.2109486960266231e+01 
325 326 2 1.0279999997934086e+00 7.9572228884208857e+02 1.0000000000000000e+00 1.6894944652130008e+01 2.8582052206253822e-01 4.2172581077070426e+01 
1466 1467 2 1.0280000003770404e+00 -6.2602394905927376e+03 1.0000000000000000e+00 1.6102101411112876e+01 1.8786604018739674e+00 4.2373747755950248e+01 
51 52 2 1.0280000003864780e+00 -7.1849639197994511e+03 1.0000000000000000e+00 1.0696913619854312e+01 2.5478114624305026e+00 4.1616059019185087e+01 
363 364 2 1.0280000002047671e+00 -5.4786527075094345e+03 1.0000000000000000e+00 1.1050089396288993e+01 3.0592320579229888e+00 4.2402615554181544e+01 
181 182 2 1.0280000003054948e+00 -1.7356303791776859e+03 1.0000000000000000e+00 1.5718627952793554e+01 3.7415922790427936e+00 4.2883695956395485e+01 
1233 1234 2 1.0279999998515073e+00 -3.9917538495805707e+02 1.0000000000000000e+00 1.7419324106056557e+01 2.0711434932429276e+00 4.1574706634595969e+01 
300 301 2 1.0279999998452221e+00 1.3082861535638144e+03 1.0000000000000000e+00 5.5715988468096764e+00 4.5600255656849598e+00 4.1382725869184121e+01 
690 691 2 1.0280000001019320e+00 5.0596959685146758e+03 1.0000000000000000e+00 7.0005296994657966e+00 4.7342141768023582e+00 4.1308536690257164e+01 
262 263 2 1.0279999998534759e+00 2.2495468174446219e+03 1.0000000000000000e+00 1.1836322765701974e+01 4.8148873508864058e+00 4.2019402152826522e+01 
263 264 2 1.0280000005410270e+00 2.2475209191282493e+03 1.0000000000000000e+00 1.1796268935996004e+01 4.6918736971732073e+00 4.2072620089866376e+01 
265 266 2 1.0280000001271881e+00 -5.0268154985206354e+02 1.0000000000000000e+00 1.4038879313855332e+01 5.5538726228143585e+00 4.1791786861380182e+01 
222 223 2 1.0279999998892009e+00 9.6232702523533317e+02 1.0000000000000000e+00 1.5092466804407307e+01 4.5376474023668587e+00 4.2647992386991739e+01 
129 130 2 1.0280000001398162e+00 4.1270701054604724e+03 1.0000000000000000e+00 1.7568332710046626e+01 4.0835010136943248e+00 4.1996028185973017e+01 
287 288 2 1.0280000001467060e+00 7.4227330826818161e+02 1.0000000000000000e+00 1.7572761578920918e+01 4.0714210239621647e+00 4.1997109258364851e+01 
527 528 2 1.0279999999416525e+00 8.7061550019188189e+02 1.0000000000000000e+00 1.6185251436105268e+01 5.4382377718523518e+00 4.2883609142652766e+01 
1490 1491 2 1.0280000000743363e+00 -7.5017674873903752e+03 1.0000000000000000e+00 3.5793784737390273e+00 7.0807181571518107e+00 4.1676445424833126e+01 
695 696 2 1.0279999999567835e+00 5.5343604438428038e+03 1.0000000000000000e+00 3.0392370429163122e+00 7.4746432974660166e+00 4.2097034499206814e+01 
128 129 2 1.0280000002511389e+00 5.5763012636284438e+03 1.0000000000000000e+00 5.8978081518492376e+00 6.3475442937046811e+00 4.1467082774410422e+01 
847 848 2 1.0280000000882017e+00 5.4867013570015433e+03 1.0000000000000000e+00 4.2648586904472472e+00 7.8233665117185573e+00 4.2215851975339028e+01 
97 98 2 1.0279999999446867e+00 4.4830932081959963e+03 1.0000000000000000e+00 6.0579139564895073e+00 7.0637644607512540e+00 4.1335488527921868e+01 
131 132 2 1.0279999996147708e+00 -5.4313801538551434e+03 1.0000000000000000e+00 7.5680389874815770e+00 6.9551239417906316e+00 4.2504210123965827e+01 
1093 1094 2 1.0280000006774788e+00 -8.8161723540899106e+02 1.0000000000000000e+00 8.1945034545937823e+00 6.7414227210062698e+00 4.1782600484709342e+01 
747 748 2 1.0279999995679125e+00 2.0329421260916711e+03 1.0000000000000000e+00 9.5607143063688937e+00 7.2323906951770205e+00 4.2761539037338302e+01 
745 746 2 1.0279999998222609e+00 4.4028367601770469e+03 1.0000000000000000e+00 1.0348753151892797e+01 6.8111289404257214e+00 4.1894151523008780e+01 
945 946 2 1.0280000001703342e+00 6.6757215942785188e+03 1.0000000000000000e+00 1.1876319317771888e+01 7.7791521670237778e+00 4.2678912020953476e+01 
339 340 2 1.0280000002224765e+00 -5.3604792258948928e+03 1.0000000000000000e+00 1.3962341272981448e+01 6.7030506680080055e+00 4.1205000887919859e+01 
681 682 2 1.0279999998184131e+00 -2.9879640429984593e+03 1.0000000000000000e+00 1.3393606451419670e+01 6.9570742552995437e+00 4.2441825193958870e+01 
923 924 2 1.0279999999856781e+00 -3.9964117633815613e+03 1.0000000000000000e+00 5.8318388210331760e+00 8.8134301553026617e+00 4.1313766984875159e+01 
531 532 2 1.0280000002354659e+00 2.1902634983547691e+03 1.0000000000000000e+00 7.9046525498955482e+00 9.1779457225321561e+00 4.2028541227575062e+01 
469 470 2 1.0280000003126759e+00 4.8648557241139288e+03 1.0000000000000000e+00 7.0607706518753037e+00 8.2050895742605157e+00 4.2390924314888089e+01 
596 597 2 1.0280000000231571e+00 4.8498061690860031e+03 1.0000000000000000e+00 9.8183492895865765e+00 9.4966523311331628e+00 4.1552082408921841e+01 
854 855 2 1.0280000001823686e+00 4.3073602903860119e+03 1.0000000000000000e+00 1.0390132122842946e+01 9.2683698651438284e+00 4.1940806686059048e+01 
503 504 2 1.0280000000212313e+00 -2.6788823110148087e+01 1.0000000000000000e+00 1.1627089609179849e+01 9.2730132964743355e+00 4.2509941828506577e+01 
499 500 2 1.0280000001028613e+00 1.2900829507833004e+02 1.0000000000000000e+00 1.3320375987742732e+01 8.1974887007471988e+00 4.1540692885471103e+01 
44 45 2 1.0280000000617044e+00 2.8152060545705372e+03 1.0000000000000000e+00 1.2476063372877418e+01 9.0939555092280564e+00 4.1872697723594442e+01 
34 35 2 1.0279999998987028e+00 -6.0774172820132699e+03 1.0000000000000000e+00 3.7533693444783962e+00 1.0637167800777872e+01 4.2654988914948824e+01 
1514 1515 2 1.0280000001877425e+00 4.8934275062671668e+02 1.0000000000000000e+00 4.6732388911421152e+00 1.0295301147203977e+01 4.2045935894248942e+01 
800 801 2 1.0280000000454455e+00 -2.5038541320406575e+03 1.0000000000000000e+00 7.4342662776541539e+00 1.0757561327473637e+01 4.2971843058689466e+01 
1379 1380 2 1.0280000001484173e+00 -2.2130122592659236e+03 1.0000000000000000e+00 8.0072976025628968e+00 1.0885742850224977e+01 4.3035818278792874e+01 
524 525 2 1.0279999999501106e+00 6.3633136737356963e+03 1.0000000000000000e+00 3.6395042228005452e+00 1.2025750519184983e+01 4.1775518625363979e+01 
478 479 2 1.0280000000599039e+00 9.7860573276762602e+02 1.0000000000000000e+00 3.9502406240924790e+00 1.3953963948401819e+01 4.2650558385484707e+01 
1156 1157 2 1.0280000001372351e+00 -2.9878015419609170e+01 1.0000000000000000e+00 4.3522574323549810e+00 1.2032956508455678e+01 4.1510076136219247e+01 
1248 1249 2 1.0280000000016101e+00 -1.7352905570176304e+03 1.0000000000000000e+00 4.2287711075897629e+00 1.3513073731679581e+01 4.1562502042139457e+01 
963 964 2 1.0280000000034613e+00 3.1551409173330567e+03 1.0000000000000000e+00 7.9761800360462214e+00 1.2775132372704311e+01 4.2232053748284606e+01 
640 641 2 1.0279999999744140e+00 -2.3979023512367462e+02 1.0000000000000000e+00 8.7093642215264016e+00 1.2938035180934078e+01 4.2187150147458453e+01 
1245 1246 2 1.0279999999417468e+00 -1.7430762222915077e+03 1.0000000000000000e+00 5.5894297131030717e+00 1.4409271895602698e+01 4.1756434362940858e+01 
343 344 2 1.0280000000086245e+00 -5.6190995582556425e+03 1.0000000000000000e+00 5.6761606710770556e+00 1.4797025170321428e+01 4.2197507371523024e+01 
1089 1090 2 1.0280000000705025e+00 5.1416564191281248e+02 1.0000000000000000e+00 2.6592067594531876e+00 1.4734202388081239e+00 4.4089427080070898e+01 
329 330 2 1.0280000000705001e+00 5.1416607871495410e+02 1.0000000000000000e+00 2.6591993418010591e+00 1.4734227904496000e+00 4.4089431164451810e+01 
1014 1015 2 1.0279999999098366e+00 2.7784789041023387e+03 1.0000000000000000e+00 3.2233607527825079e+00 2.4699092498970840e-01 4.4975361974988672e+01 
566 567 2 1.0280000000208291e+00 3.1837851252872736e+02 1.0000000000000000e+00 9.6636675250278881e+00 2.3891569647272440e-01 4.4968527136770810e+01 
235 236 2 1.0280000000197635e+00 9.9766086476350574e+02 1.0000000000000000e+00 1.0318172390834553e+01 5.3203595126815340e-01 4.3837805052369575e+01 
354 355 2 1.0280000005025396e+00 -4.2804261376397189e+03 1.0000000000000000e+00 1.2536052736844521e+01 1.0962730195113555e+00 4.4429400142351639e+01 
415 416 2 1.0279999998496487e+00 -5.5800113455928513e+03 1.0000000000000000e+00 1.4878905815236683e+01 1.0807722255154144e+00 4.3973084318528343e+01 
738 739 2 1.0279999994564366e+00 1.2182407429125574e+03 1.0000000000000000e+00 1.4444914628067076e+01 7.7411607694067130e-01 4.4706891228540520e+01 
1351 1352 2 1.0279999998667770e+00 7.5089811010101675e+02 1.0000000000000000e+00 1.1984868319126758e+00 3.7237407034177288e+00 4.4188525692497628e+01 
244 245 2 1.0279999998253264e+00 -7.8262805270869501e+02 1.0000000000000000e+00 1.2619620761856057e+01 2.1799273191827941e+00 4.3435456504691047e+01 
1306 1307 2 1.0280000002334224e+00 2.3847424060888770e+03 1.0000000000000000e+00 1.2100843453455772e+01 2.7240264797507341e+00 4.4048214550155436e+01 
202 203 2 1.0280000000848348e+00 2.4582875181846825e+03 1.0000000000000000e+00 1.3181764993167292e+01 2.6295473160158731e+00 4.4790028119940906e+01 
1029 1030 2 1.0279999998335705e+00 6.7403710604655007e+03 1.0000000000000000e+00 1.5766665948840613e+01 2.2954838119741310e+00 4.4276019733015787e+01 
119 120 2 1.0280000007166248e+00 -6.1123015577126898e+03 1.0000000000000000e+00 1.4550584783415754e+01 3.6575353758493079e+00 4.4771334898069391e+01 
746 747 2 1.0279999987601043e+00 2.1298756084967322e+03 1.0000000000000000e+00 1.2628882791721113e+01 5.5550926852100666e+00 4.3873201758033254e+01 
586 587 2 1.0280000012763773e+00 1.1799802918843748e+03 1.0000000000000000e+00 1.2295904712766013e+01 4.9767013979409818e+00 4.4695842355337000e+01 
105 106 2 1.0279999997021945e+00 4.1061462389758644e+03 1.0000000000000000e+00 1.4039753270574009e+01 4.1378885829780483e+00 4.5094324888994954e+01 
78 79 2 1.0279999999123961e+00 -5.8942764249594611e+03 1.0000000000000000e+00 1.6690099817032863e+01 4.9986156674618938e+00 4.3366047877719197e+01 
1310 1311 2 1.0279999999713674e+00 2.1338593032564513e+03 1.0000000000000000e+00 9.1653260686054416e+00 6.9820264333477136e+00 4.4207706938510555e+01 
294 295 2 1.0280000010633432e+00 1.8163302161930906e+03 1.0000000000000000e+00 1.1708193796669413e+01 6.1567827623930338e+00 4.3268039529902850e+01 
1054 1055 2 1.0280000000367242e+00 -4.1373114277091699e+03 1.0000000000000000e+00 1.0127571871089252e+01 7.4520143129664165e+00 4.4331557008373018e+01 
1036 1037 2 1.0280000000357576e+00 2.7509516412383255e+03 1.0000000000000000e+00 1.0066145573530379e+01 6.3631297413763468e+00 4.4726944431188230e+01 
676 677 2 1.0280000000791409e+00 -3.4906845406405737e+03 1.0000000000000000e+00 2.9780244877992152e+00 8.9647732917447662e+00 4.3254691419821128e+01 
673 674 2 1.0280000000637191e+00 -3.5111491276422712e+03 1.0000000000000000e+00 2.7803446222333283e+00 9.1946853897120242e+00 4.3367400422720330e+01 
703 704 2 1.0280000002230820e+00 4.3275851165804988e+03 1.0000000000000000e+00 5.5590875710165202e+00 9.2975491017317111e+00 4.3373952025497680e+01 
1359 1360 2 1.0280000000466356e+00 1.8074380128558023e+03 1.0000000000000000e+00 6.1181126182115007e+00 9.7098279152586962e+00 4.4387886182775333e+01 
1052 1053 2 1.0280000000432521e+00 4.9569099146061380e+03 1.0000000000000000e+00 2.1509958383413408e+00 1.1002712585126462e+01 4.4463673540206564e+01 
702 703 2 1.0280000000420031e+00 4.3140286105162022e+03 1.0000000000000000e+00 2.0293774453893687e+00 1.0665587009995592e+01 4.4566965879759323e+01 
1332 1333 2 1.0279999999054135e+00 -5.7618359999372137e+02 1.0000000000000000e+00 3.4666379528553790e+00 1.0678084548572540e+01 4.4609749580167325e+01 
1283 1284 2 1.0279999998640303e+00 1.6390098933107706e+03 1.0000000000000000e+00 5.8086287592495118e+00 1.0686943906889637e+01 4.3413504680689414e+01 
845 846 2 1.0279999998575886e+00 -3.4427832814556041e+03 1.0000000000000000e+00 4.6404880928736230e+00 1.0085951538649155e+01 4.4543618800598317e+01 
808 809 2 1.0280000000303526e+00 -2.6406456297216482e+03 1.0000000000000000e+00 9.3622819448655381e+00 1.1821566474167554e+01 4.4634349138714995e+01 
1287 1288 2 1.0279999999983138e+00 9.7328575558360671e+02 1.0000000000000000e+00 8.8256932030129605e+00 1.1196229130406675e+01 4.4745572273487142e+01 
1337 1338 2 1.0279999999190490e+00 -1.7355164387311756e+03 1.0000000000000000e+00 6.6858196582614307e+00 1.3278022132576805e+01 4.3977185857043402e+01 
1341 1342 2 1.0280000000116047e+00 1.9834508431561862e+03 1.0000000000000000e+00 7.5763834497309954e+00 1.3428148030487366e+01 4.4528430053691174e+01 
1050 1051 2 1.0280000000848921e+00 -2.1496027411478872e+03 1.0000000000000000e+00 8.2438163829510778e+00 1.3742264028823516e+01 4.3308753687877484e+01 
792 793 2 1.0279999999118217e+00 -2.9885329766280665e+02 1.0000000000000000e+00 9.3080447396890111e+00 1.2276125484958570e+01 4.3519787687787151e+01 
1492 1493 2 1.0279999999794354e+00 3.1384347566310112e+03 1.0000000000000000e+00 5.9020604140293953e+00 1.4131429800559024e+01 4.3462105383666042e+01 
1353 1354 2 1.0279999999836558e+00 2.0031786811691377e+03 1.0000000000000000e+00 4.1672539326741012e+00 1.4285553031516228e+01 4.4195353785007910e+01 
1197 1198 2 1.0279999999782610e+00 -2.1916121725623321e+02 1.0000000000000000e+00 4.1621989045235015e+00 1.4239935713694269e+01 4.4201309073578990e+01 
21 22 2 1.0280000001799676e+00 4.2475630652870141e+03 1.0000000000000000e+00 1.3175694529465880e+00 1.5029995499866583e-01 4.5424723986094335e+01 
201 202 2 1.0280000003964858e+00 -3.4849745472181360e+02 1.0000000000000000e+00 1.1128936388300821e+00 8.5259552038533237e-01 4.6693877409976437e+01 
791 792 2 1.0279999998588765e+00 1.0748345091238828e+03 1.0000000000000000e+00 4.4423717977318011e+00 1.2277392186339604e+00 4.6688805735130167e+01 
1428 1429 2 1.0279999998614557e+00 2.8589644611052227e+03 1.0000000000000000e+00 4.4452180145298934e+00 1.2301471206324994e+00 4.6693104508661314e+01 
1275 1276 2 1.0279999998336804e+00 2.3720530429258706e+03 1.0000000000000000e+00 1.2411923503677620e+01 4.7147229868505537e-02 4.5312677132981449e+01 
113 114 2 1.0280000011489756e+00 4.1223632117310553e+03 1.0000000000000000e+00 1.5952025067526202e+01 1.1872262943185681e+00 4.5349317657281524e+01 
1497 1498 2 1.0279999998732867e+00 4.1455532307333642e+03 1.0000000000000000e+00 1.2465595310870465e+00 2.9519740625328841e+00 4.5576792526838808e+01 
368 369 2 1.0279999996363451e+00 1.5513182607927966e+01 1.0000000000000000e+00 1.1253602262973325e-01 2.6299260393389594e+00 4.6554023716336438e+01 
728 729 2 1.0279999997896516e+00 -1.2390222868235105e+03 1.0000000000000000e+00 1.5782185552636772e+01 2.2599485189523527e+00 4.5615317550189580e+01 
249 250 2 1.0280000003976222e+00 -6.0306321906655057e+02 1.0000000000000000e+00 1.4243265512786142e+01 3.8822707320256598e+00 4.6563952926141774e+01 
98 99 2 1.0280000002829721e+00 -6.2947822605426682e+03 1.0000000000000000e+00 7.1896755802115753e-01 4.4002370422414874e+00 4.5140987051719513e+01 
1218 1219 2 1.0280000002972340e+00 6.0617211203655188e+02 1.0000000000000000e+00 1.5480036140664288e+00 5.4559487358935463e+00 4.6828138197340991e+01 
1043 1044 2 1.0279999994830815e+00 1.1942038214660879e+03 1.0000000000000000e+00 1.1422250639404501e+01 5.8401366446668277e+00 4.5231904422916507e+01 
592 593 2 1.0279999997767513e+00 3.9021516736354579e+03 1.0000000000000000e+00 1.1841691111018701e+01 5.4152607203220544e+00 4.6448993659144286e+01 
981 982 2 1.0280000000539340e+00 6.0141462838995421e+03 1.0000000000000000e+00 1.2494996151391624e+00 6.4773191816743028e+00 4.6366879654480286e+01 
62 63 2 1.0280000003598535e+00 -5.5561025906936920e+03 1.0000000000000000e+00 3.9959171882920348e+00 9.5212499509367134e+00 4.6922011000623954e+01 
307 308 2 1.0280000003760579e+00 -1.5024893610372583e+03 1.0000000000000000e+00 3.9927846588350553e+00 9.5271003369270666e+00 4.6922989051676197e+01 
1442 1443 2 1.0280000001807712e+00 -5.1518387413951241e+03 1.0000000000000000e+00 1.3628586099783174e+01 8.8662333929455670e+00 4.6797997485158625e+01 
1137 1138 2 1.0280000002043541e+00 -2.4530732965141597e+03 1.0000000000000000e+00 1.4283060675131846e+01 8.4179860451970221e+00 4.6894851170782076e+01 
1327 1328 2 1.0280000000604856e+00 2.2424646808616949e+03 1.0000000000000000e+00 5.9079368058212758e+00 1.0748240219900804e+01 4.6049475377791033e+01 
1326 1327 2 1.0280000001205130e+00 2.2447122715604619e+03 1.0000000000000000e+00 5.9173830776935032e+00 1.0732052319525504e+01 4.6062754267003854e+01 
1329 1330 2 1.0280000001215310e+00 -5.1952762356947051e+02 1.0000000000000000e+00 7.4957818806381091e+00 1.1730259251467730e+01 4.6357819504432172e+01 
1010 1011 2 1.0280000000730127e+00 1.7075450924092529e+03 1.0000000000000000e+00 7.5543283480219872e+00 1.2081517379755280e+01 4.5192019191260989e+01 
322 323 2 1.0280000002090846e+00 -4.3821297771951395e+03 1.0000000000000000e+00 4.2199232128584535e-01 1.0875826091084126e+00 4.7400126584154187e+01 
479 480 2 1.0280000002332927e+00 9.4742859662430578e+02 1.0000000000000000e+00 2.9809992415038153e+00 9.3304901908108612e-02 4.7302546609768008e+01 
284 285 2 1.0280000001477536e+00 4.1891735455272292e+03 1.0000000000000000e+00 3.0608855238947155e+00 5.7092533451671090e-01 4.7716558107505577e+01 
120 121 2 1.0280000005873577e+00 2.5053862207335997e+03 1.0000000000000000e+00 4.4758782903530294e+00 1.4399011142765765e+00 4.8634438990396852e+01 
1315 1316 2 1.0280000003515406e+00 1.5085952669556527e+03 1.0000000000000000e+00 1.5136563664227152e+01 1.9887902894690475e+00 4.7148649814539766e+01 
1471 1472 2 1.0280000002010186e+00 -7.3438511834934998e+03 1.0000000000000000e+00 1.4245527577969959e+01 1.6744873530345776e+00 4.7168966504645695e+01 
340 341 2 1.0279999999337572e+00 5.3840635404406407e+02 1.0000000000000000e+00 1.4460089477948756e+01 9.1035548502440677e-03 4.8052521020265409e+01 
594 595 2 1.0280000002681686e+00 -2.1415052190087390e+03 1.0000000000000000e+00 1.4017283748477942e+01 1.8769517790723382e+00 4.8535396083256288e+01 
700 701 2 1.0280000001236205e+00 -2.6595124303964958e+03 1.0000000000000000e+00 2.0510573739726299e+00 3.0293647758044866e+00 4.7326553411648668e+01 
823 824 2 1.0280000002391310e+00 3.4912887780690726e+03 1.0000000000000000e+00 2.5702436590071716e+00 2.5601382866901043e+00 4.8776587961384458e+01 
379 380 2 1.0280000002072298e+00 -6.3028378227735702e+03 1.0000000000000000e+00 6.0963303012916299e+00 2.6728938869809364e+00 4.8964295425999566e+01 
1311 1312 2 1.0279999999189671e+00 2.1118157590786382e+03 1.0000000000000000e+00 1.4263614806344913e+01 3.9517882176020089e+00 4.7598530149759647e+01 
611 612 2 1.0279999997217040e+00 -6.5124811311482290e+02 1.0000000000000000e+00 1.4369600559306011e+01 3.0314730303664850e+00 4.8492346943550643e+01 
520 521 2 1.0279999999938334e+00 2.2194763606751949e+03 1.0000000000000000e+00 5.0761351327082893e-01 5.7305677089058813e+00 4.7286102749856411e+01 