LAMMPS data file via write_data, version 30 Jul 2016, timestep = 50400000

1520 atoms
8 atom types

0.0000000000000000e+00 4.0000000000000000e+01 xlo xhi
0.0000000000000000e+00 4.0000000000000000e+01 ylo yhi
0.0000000000000000e+00 1.0000000000000000e+02 zlo zhi

Masses

1 3.896
2 5.36
3 20.064
4 8.378
5 8.378
6 8.378
7 8.378
8 8.378

Atoms # meso-molecular

270 271 2 1.0279999804573807e+00 3.2149343186529004e+03 1.0000000000000000e+00 1.2710050072641868e+01 3.3314257639049534e+00 2.1332889721566499e+01 
271 272 2 1.0279999804573816e+00 3.2149324439734273e+03 1.0000000000000000e+00 1.2710447847959070e+01 3.3316403034378892e+00 2.1332927000389006e+01 
1334 1335 2 1.0280000195426200e+00 3.2152186371847056e+03 1.0000000000000000e+00 1.1884280857878535e+01 4.8026102527072414e+00 2.1680165956229590e+01 
1335 1336 2 1.0280000195426249e+00 3.2152308494718636e+03 1.0000000000000000e+00 1.1884281430305835e+01 4.8026106403939304e+00 2.1680165675427482e+01 
112 113 2 1.0280000000249905e+00 2.9016062281326003e+03 1.0000000000000000e+00 8.5774812436953851e-01 2.9175512834274988e+00 3.3697443967004432e+01 
725 726 2 1.0279999999770730e+00 -1.2415183326647875e+03 1.0000000000000000e+00 6.2195750250576429e-02 3.3200766712031635e+00 3.3911312443838433e+01 
567 568 2 1.0279999999844629e+00 3.5133090281088653e+02 1.0000000000000000e+00 3.0969447750919926e-01 2.4351477077583814e+00 3.4088172970041903e+01 
1165 1166 2 1.0279999999887672e+00 -8.8763972356794329e+02 1.0000000000000000e+00 5.7456271138326347e+00 4.9262840027816086e+00 3.4864596339634375e+01 
1095 1096 2 1.0279999999957836e+00 -3.5271525912155994e+03 1.0000000000000000e+00 6.3612194718369093e+00 4.4159242064873503e+00 3.4991421964823083e+01 
677 678 2 1.0279999999092384e+00 -3.1123189584674556e+03 1.0000000000000000e+00 6.0573138006105871e-02 6.1899169621657144e+00 3.5253783356014466e+01 
1015 1016 2 1.0279999999714402e+00 2.8141295125783390e+03 1.0000000000000000e+00 1.4842379520268596e+00 4.9226710960416726e+00 3.6815366148928867e+01 
125 126 2 1.0279999999596643e+00 5.5629669182927573e+03 1.0000000000000000e+00 2.8367908560238040e+00 5.1622012009897498e+00 3.6745392278777857e+01 
295 296 2 1.0280000001047089e+00 1.8339870471068771e+03 1.0000000000000000e+00 4.9532510523021180e+00 5.3465960746448431e+00 3.6277117233402890e+01 
108 109 2 1.0279999998489602e+00 4.1115776957683229e+03 1.0000000000000000e+00 4.5416430070963161e+00 5.3149093368772871e+00 3.6347270362072457e+01 
1187 1188 2 1.0279999999192777e+00 -3.8054366633965565e+03 1.0000000000000000e+00 7.1436368189232535e+00 5.0543371069646073e+00 3.5368298798033940e+01 
996 997 2 1.0280000000327179e+00 5.8147129461920940e+03 1.0000000000000000e+00 5.4295320334619745e+00 7.4305910186052051e+00 3.6889872535039331e+01 
794 795 2 1.0280000000140708e+00 6.1945742876783402e+02 1.0000000000000000e+00 4.4789328181857755e+00 7.7476397477079209e+00 3.6901594888933374e+01 
914 915 2 1.0280000001333143e+00 -1.2159632421373026e+03 1.0000000000000000e+00 7.4977106519830414e+00 7.6263702876832431e+00 3.5616911038609544e+01 
552 553 2 1.0279999999955705e+00 7.3920393000456879e+03 1.0000000000000000e+00 7.3804365178648492e+00 6.1348261563233253e+00 3.6372512755260466e+01 
458 459 2 1.0279999999769887e+00 -1.2133137038171126e+03 1.0000000000000000e+00 8.0147670574441268e+00 7.6793962938628315e+00 3.5544338959754079e+01 
1475 1476 2 1.0279999999096139e+00 -7.2131503583851372e+03 1.0000000000000000e+00 8.4556546132919923e+00 6.2067993518487352e+00 3.5828159105650045e+01 
240 241 2 1.0280000000016718e+00 -6.1329793265378589e+02 1.0000000000000000e+00 9.9003362868524754e+00 7.0735927751334433e+00 3.7023083595768334e+01 
729 730 2 1.0280000000077854e+00 -2.9479941668337381e+02 1.0000000000000000e+00 5.5335772212937302e+00 8.5275005801565573e+00 3.6139476134612849e+01 
377 378 2 1.0279999999894760e+00 -2.6843923088257343e+03 1.0000000000000000e+00 4.7038723443232664e+00 9.8253049867725295e+00 3.6647357627353514e+01 
243 244 2 1.0279999999431251e+00 2.2572141875795146e+03 1.0000000000000000e+00 6.6647466805243327e-01 1.0200912828232864e+01 3.5663504772505242e+01 
450 451 2 1.0280000000549867e+00 3.5330543620436210e+03 1.0000000000000000e+00 1.1257091324892500e-01 1.0327130754418555e+01 3.6217232783995918e+01 
1020 1021 2 1.0279999999977503e+00 4.8792602214207509e+03 1.0000000000000000e+00 1.1961517372193431e+00 1.0562094717251417e+01 3.6940321334680320e+01 
373 374 2 1.0280000000066978e+00 -1.1231391009500476e+03 1.0000000000000000e+00 2.2919782491355636e+00 1.0758848576753316e+01 3.5412153534942050e+01 
278 279 2 1.0279999999962968e+00 1.7054953027087131e+03 1.0000000000000000e+00 2.9296754806127288e+00 1.0977558367965802e+01 3.5506792962519995e+01 
275 276 2 1.0279999999884601e+00 2.1424302843042801e+03 1.0000000000000000e+00 3.7448032012261514e+00 1.0418423175715763e+01 3.6179239570307722e+01 
219 220 2 1.0279999998594551e+00 1.6299715878362431e+03 1.0000000000000000e+00 5.3353785175714297e+00 1.6534509127856592e-01 3.9160947142340419e+01 
491 492 2 1.0279999999539073e+00 3.1499286270311336e+02 1.0000000000000000e+00 1.1028054347007663e+01 5.3367927471655119e-01 3.8950029880650149e+01 
704 705 2 1.0280000001877059e+00 -3.5688946662176886e+03 1.0000000000000000e+00 1.3645743363992747e+01 2.8652168465000589e-02 3.7659263891343151e+01 
346 347 2 1.0279999999993319e+00 -5.5828448527613109e+03 1.0000000000000000e+00 1.2304498332994296e+01 8.5466389419623412e-01 3.9092258219756701e+01 
213 214 2 1.0279999995690030e+00 -7.9943447861837558e+02 1.0000000000000000e+00 7.3715829392582135e+00 2.4151104545966864e+00 3.8327730256058572e+01 
242 243 2 1.0280000004233134e+00 2.3801631420570147e+03 1.0000000000000000e+00 7.2937115621244653e+00 3.6254357261419399e+00 3.8423736543068820e+01 
248 249 2 1.0280000005026870e+00 -1.2541817861675810e+02 1.0000000000000000e+00 7.2466457121288421e+00 2.3364974838105059e+00 3.8873661258055996e+01 
554 555 2 1.0279999999809653e+00 1.7242922913865600e+03 1.0000000000000000e+00 1.8186185174286940e+00 4.5495331678189332e+00 3.8231586694848041e+01 
798 799 2 1.0279999999831837e+00 1.9078528526727564e+03 1.0000000000000000e+00 3.0186552042854253e+00 4.3987348549139860e+00 3.7639289482510669e+01 
49 50 2 1.0280000000517810e+00 3.2646049309049477e+03 1.0000000000000000e+00 4.5838818761374354e+00 5.1709873254657781e+00 3.8355459330662164e+01 
446 447 2 1.0279999999842013e+00 -4.6411839331792016e+03 1.0000000000000000e+00 4.5015571320896361e+00 4.6906782604925725e+00 3.9007381404314728e+01 
198 199 2 1.0279999999157079e+00 2.7297639480555918e+03 1.0000000000000000e+00 7.5297602315754828e+00 5.4609031147846654e+00 3.8657726505873995e+01 
184 185 2 1.0280000000124927e+00 -1.7456578131125984e+03 1.0000000000000000e+00 1.3481490997118422e+01 4.5804686902747216e+00 3.8187155516262287e+01 
421 422 2 1.0279999999054650e+00 9.3109634838725697e+02 1.0000000000000000e+00 1.3442252621394765e+01 4.3589247323172096e+00 3.8504583561869147e+01 
480 481 2 1.0280000000075760e+00 3.1957180099021307e+03 1.0000000000000000e+00 1.5215131479569523e+01 5.0653917479366344e+00 3.8312074554853865e+01 
926 927 2 1.0279999999325802e+00 -2.0762438867862884e+03 1.0000000000000000e+00 1.5252605251842041e+01 4.7928599834986185e+00 3.8392040945918325e+01 
753 754 2 1.0280000000508158e+00 9.3878502314880890e+01 1.0000000000000000e+00 1.2939123306975928e+00 6.0753198661180265e+00 3.8045149219941237e+01 
394 395 2 1.0280000000516309e+00 -5.8814781134372624e+03 1.0000000000000000e+00 1.8439835914623299e+00 6.1313617845621211e+00 3.8240604096493421e+01 
118 119 2 1.0280000000207834e+00 -6.1313176090753877e+03 1.0000000000000000e+00 9.0188375733673514e+00 7.3514652999691075e+00 3.7286432747508741e+01 
199 200 2 1.0279999999380121e+00 2.9063172394989333e+03 1.0000000000000000e+00 8.5191182279929052e+00 6.1017141175228744e+00 3.7910877183587282e+01 
114 115 2 1.0279999999464293e+00 -6.0447376185648500e+03 1.0000000000000000e+00 9.8679604872463766e+00 6.1821319229381393e+00 3.8754151401763835e+01 
709 710 2 1.0280000000100027e+00 -3.0067431802107612e+03 1.0000000000000000e+00 1.0844190662649410e+01 6.5779364156191305e+00 3.7834243789195909e+01 
693 694 2 1.0279999999248202e+00 -3.4383789638813059e+03 1.0000000000000000e+00 1.1433769355766572e+01 7.4837570618781353e+00 3.8796424225980864e+01 
424 425 2 1.0279999998815215e+00 9.2961741526398441e+02 1.0000000000000000e+00 1.2439964803355588e+01 6.8753533693232383e+00 3.8873503142351751e+01 
441 442 2 1.0280000000637848e+00 2.7193156839410603e+03 1.0000000000000000e+00 5.6225362593451154e+00 9.9947132565017345e+00 3.7881386034375893e+01 
1055 1056 2 1.0280000000216878e+00 -4.0642877947326947e+03 1.0000000000000000e+00 4.2807584889321353e+00 8.3788885374750777e+00 3.8224234288916392e+01 
622 623 2 1.0279999999465004e+00 2.0474254364833150e+03 1.0000000000000000e+00 4.1817624802565723e+00 9.4404001511768421e+00 3.8660642686068030e+01 
1004 1005 2 1.0279999999551694e+00 2.7615934448750031e+03 1.0000000000000000e+00 6.2029779993595948e+00 8.9997226470887597e+00 3.7347536218130749e+01 
821 822 2 1.0279999998163230e+00 -2.5893325734438076e+03 1.0000000000000000e+00 6.9016057710393675e+00 9.8776851890698776e+00 3.8999178438759820e+01 
182 183 2 1.0279999999848402e+00 2.1485164154609365e+03 1.0000000000000000e+00 2.4492039856052061e+00 1.0495667662055927e+01 3.7791460837269412e+01 
179 180 2 1.0279999999993810e+00 1.7068664774691561e+03 1.0000000000000000e+00 2.7548997895614535e+00 1.0281618998408620e+01 3.7865150064918261e+01 
258 259 2 1.0279999999486926e+00 2.9456956698934623e+03 1.0000000000000000e+00 8.2566989528120622e+00 1.0035508899768518e+01 3.8543042223573281e+01 
855 856 2 1.0280000000689140e+00 4.3386898751386207e+03 1.0000000000000000e+00 8.8091264178319317e+00 1.0405128469569258e+01 3.8967672955658479e+01 
11 12 2 1.0280000004390881e+00 -2.2512222520772311e+03 1.0000000000000000e+00 6.6646503451978312e+00 6.0266283333569171e-01 3.9353650627782265e+01 
716 717 2 1.0279999996265603e+00 -2.6329033454509126e+03 1.0000000000000000e+00 6.3925875539281636e+00 1.1801636727028897e-01 4.1083575195917533e+01 
109 110 2 1.0280000000357883e+00 2.8914239158794262e+03 1.0000000000000000e+00 6.2469287125215631e+00 4.6905694914560252e-02 4.1155058725594465e+01 
1446 1447 2 1.0280000002459218e+00 -5.9505789590897693e+03 1.0000000000000000e+00 9.8259444534161098e+00 1.2586698514748575e+00 3.9539265033573741e+01 
25 26 2 1.0280000000814380e+00 5.4799377805520235e+03 1.0000000000000000e+00 9.1564166999321746e+00 4.3124306627135983e-02 4.0231766666637874e+01 
357 358 2 1.0279999997342482e+00 -1.3688033295506066e+03 1.0000000000000000e+00 1.0154818354213740e+01 1.8904339552776510e+00 4.0685033870072068e+01 
212 213 2 1.0279999999736062e+00 -5.0348389140277774e+01 1.0000000000000000e+00 1.2491140670857872e+01 5.7456959250132511e-01 3.9943547747880459e+01 
1505 1506 2 1.0279999998385621e+00 -1.1418708912533839e+03 1.0000000000000000e+00 1.4843176061977619e+01 7.3789385758128911e-01 3.9824003420238562e+01 
137 138 2 1.0279999998344391e+00 -1.1578714331568954e+03 1.0000000000000000e+00 1.4842567594233479e+01 7.2868943150482635e-01 3.9826756866193726e+01 
984 985 2 1.0279999998691978e+00 6.2139648782990535e+03 1.0000000000000000e+00 1.7656697746803161e+01 1.8965410797086391e+00 4.0138146171974640e+01 
325 326 2 1.0279999998287239e+00 7.9572228884208857e+02 1.0000000000000000e+00 1.6892045839638541e+01 2.8960063584389023e-01 4.0201299158560758e+01 
1466 1467 2 1.0280000003122287e+00 -6.2602394905927376e+03 1.0000000000000000e+00 1.6099204177257967e+01 1.8824286135690274e+00 4.0402426126861414e+01 
51 52 2 1.0280000003180532e+00 -7.1849639197994511e+03 1.0000000000000000e+00 1.0694014428023783e+01 2.5515508092279848e+00 3.9644667875884132e+01 
363 364 2 1.0280000001660321e+00 -5.4786527075094345e+03 1.0000000000000000e+00 1.1047198803020690e+01 3.0629545405955971e+00 4.0431230241910733e+01 
181 182 2 1.0280000002501271e+00 -1.7356303791776859e+03 1.0000000000000000e+00 1.5715756853583711e+01 3.7453361854838016e+00 4.0912287489484996e+01 
1233 1234 2 1.0279999998779552e+00 -3.9917538495805707e+02 1.0000000000000000e+00 1.7416454280262791e+01 2.0748913820768946e+00 3.9603373679432330e+01 
300 301 2 1.0279999998707756e+00 1.3082861535638144e+03 1.0000000000000000e+00 5.5687857611294209e+00 4.5636075665420321e+00 3.9411096689903793e+01 
690 691 2 1.0280000000842435e+00 5.0596959685146758e+03 1.0000000000000000e+00 6.9977270137302261e+00 4.7378143155024697e+00 3.9336927181259377e+01 
262 263 2 1.0279999998842824e+00 2.2495468174446219e+03 1.0000000000000000e+00 1.1833491246873235e+01 4.8185652023568153e+00 4.0047905644415259e+01 
263 264 2 1.0280000004417780e+00 2.2475209191282493e+03 1.0000000000000000e+00 1.1793431421884973e+01 4.6955475011298873e+00 4.0101122641703526e+01 
265 266 2 1.0280000001010070e+00 -5.0268154985206354e+02 1.0000000000000000e+00 1.4036046614499172e+01 5.5575429018732407e+00 3.9820293475916309e+01 
222 223 2 1.0279999999060132e+00 9.6232702523533317e+02 1.0000000000000000e+00 1.5089614403495760e+01 4.5413870041606161e+00 4.0676554329100085e+01 
129 130 2 1.0280000001128782e+00 4.1270701054604724e+03 1.0000000000000000e+00 1.7565486806207964e+01 4.0872475096444250e+00 4.0024627156925604e+01 
287 288 2 1.0280000001184153e+00 7.4227330826818161e+02 1.0000000000000000e+00 1.7569915898006077e+01 4.0751672883351784e+00 4.0025708346906001e+01 
527 528 2 1.0279999999530112e+00 8.7061550019188189e+02 1.0000000000000000e+00 1.6182392651508820e+01 5.4419812317675635e+00 4.0912190410533604e+01 
1490 1491 2 1.0280000000621692e+00 -7.5017674873903752e+03 1.0000000000000000e+00 3.5765850782008743e+00 7.0842588264130582e+00 3.9704784831438424e+01 
695 696 2 1.0279999999642162e+00 5.5343604438428038e+03 1.0000000000000000e+00 3.0364499149249111e+00 7.4781850411341644e+00 4.0125372300857826e+01 
128 129 2 1.0280000002074683e+00 5.5763012636284438e+03 1.0000000000000000e+00 5.8950036596606408e+00 6.3511192965601682e+00 3.9495456334497611e+01 
847 848 2 1.0280000000737801e+00 5.4867013570015433e+03 1.0000000000000000e+00 4.2620751628336659e+00 7.8269122636374746e+00 4.0244194178055793e+01 
97 98 2 1.0279999999526503e+00 4.4830932081959963e+03 1.0000000000000000e+00 6.0551170233797391e+00 7.0673398987286964e+00 3.9363855587998337e+01 
131 132 2 1.0279999996790530e+00 -5.4313801538551434e+03 1.0000000000000000e+00 7.5652474884450216e+00 6.9587162097259707e+00 4.0532602176686005e+01 
1093 1094 2 1.0280000005610619e+00 -8.8161723540899106e+02 1.0000000000000000e+00 8.1917239105626809e+00 6.7450147168290329e+00 3.9811001598834906e+01 
747 748 2 1.0279999996451021e+00 2.0329421260916711e+03 1.0000000000000000e+00 9.5579018604482613e+00 7.2360156678855345e+00 4.0789969650113491e+01 
745 746 2 1.0279999998552163e+00 4.4028367601770469e+03 1.0000000000000000e+00 1.0345928729597450e+01 6.8147699190878548e+00 3.9922575661760668e+01 
945 946 2 1.0280000001377858e+00 6.6757215942785188e+03 1.0000000000000000e+00 1.1873499214458068e+01 7.7828138884334139e+00 4.0707355470060676e+01 
339 340 2 1.0280000001827001e+00 -5.3604792258948928e+03 1.0000000000000000e+00 1.3959519626152067e+01 6.7067159845776319e+00 3.9233467330156579e+01 
681 682 2 1.0279999998531624e+00 -2.9879640429984593e+03 1.0000000000000000e+00 1.3390780068025357e+01 6.9607315799882370e+00 4.0470290880981111e+01 
923 924 2 1.0279999999854901e+00 -3.9964117633815613e+03 1.0000000000000000e+00 5.8290547695675370e+00 8.8169930917354762e+00 3.9342102484243483e+01 
531 532 2 1.0280000001935778e+00 2.1902634983547691e+03 1.0000000000000000e+00 7.9018719545702707e+00 9.1815227222275748e+00 4.0056896411359006e+01 
469 470 2 1.0280000002597833e+00 4.8648557241139288e+03 1.0000000000000000e+00 7.0579814132956349e+00 8.2086621054551170e+00 4.0419306956139813e+01 
596 597 2 1.0280000000175649e+00 4.8498061690860031e+03 1.0000000000000000e+00 9.8155458785251781e+00 9.5002587655558752e+00 3.9580457738670361e+01 
854 855 2 1.0280000001488565e+00 4.3073602903860119e+03 1.0000000000000000e+00 1.0387322152762131e+01 9.2719890970027503e+00 3.9969205376079906e+01 
503 504 2 1.0280000000175726e+00 -2.6788823110148087e+01 1.0000000000000000e+00 1.1624280563188693e+01 9.2766614084894261e+00 4.0538366683728363e+01 
499 500 2 1.0280000000840281e+00 1.2900829507833004e+02 1.0000000000000000e+00 1.3317562902686038e+01 8.2011445455635474e+00 3.9569136315855260e+01 
44 45 2 1.0280000000510423e+00 2.8152060545705372e+03 1.0000000000000000e+00 1.2473255095473954e+01 9.0976105204547082e+00 3.9901126186734750e+01 
34 35 2 1.0279999999162450e+00 -6.0774172820132699e+03 1.0000000000000000e+00 3.7506142863566994e+00 1.0640717900727903e+01 4.0683323041285234e+01 
1514 1515 2 1.0280000001570597e+00 4.8934275062671668e+02 1.0000000000000000e+00 4.6704778528306621e+00 1.0298852566949439e+01 4.0074265516368364e+01 
800 801 2 1.0280000000430682e+00 -2.5038541320406575e+03 1.0000000000000000e+00 7.4315093837103881e+00 1.0761131521650919e+01 4.1000180063812202e+01 
1379 1380 2 1.0280000001152421e+00 -2.2130122592659236e+03 1.0000000000000000e+00 8.0045530451951166e+00 1.0889311730689387e+01 4.1064153241017280e+01 
524 525 2 1.0279999999568930e+00 6.3633136737356963e+03 1.0000000000000000e+00 3.6367512170351994e+00 1.2029291066664314e+01 3.9803838668364527e+01 
478 479 2 1.0280000000505509e+00 9.7860573276762602e+02 1.0000000000000000e+00 3.9475010387899516e+00 1.3957498449644428e+01 4.0678869659367209e+01 
1156 1157 2 1.0280000001142635e+00 -2.9878015419609170e+01 1.0000000000000000e+00 4.3495090978590722e+00 1.2036498401967798e+01 3.9538390049406637e+01 
1248 1249 2 1.0280000000005918e+00 -1.7352905570176304e+03 1.0000000000000000e+00 4.2260298040328284e+00 1.3516611823272475e+01 3.9590812877393553e+01 
963 964 2 1.0280000000028453e+00 3.1551409173330567e+03 1.0000000000000000e+00 7.9734559082576961e+00 1.2778690800330926e+01 4.0260371279024504e+01 
640 641 2 1.0279999999792748e+00 -2.3979023512367462e+02 1.0000000000000000e+00 8.7066419758651410e+00 1.2941591389174919e+01 4.0215468858201618e+01 
1245 1246 2 1.0279999999516027e+00 -1.7430762222915077e+03 1.0000000000000000e+00 5.5866946663635009e+00 1.4412803868804961e+01 3.9784747317522573e+01 
343 344 2 1.0280000000079887e+00 -5.6190995582556425e+03 1.0000000000000000e+00 5.6734279074421350e+00 1.4800556622368143e+01 4.0225817369084318e+01 
1089 1090 2 1.0280000000591329e+00 5.1416564191281248e+02 1.0000000000000000e+00 2.6563971421268424e+00 1.4772355811226658e+00 4.2117982181247505e+01 
329 330 2 1.0280000000591358e+00 5.1416607871495410e+02 1.0000000000000000e+00 2.6563897244455990e+00 1.4772381329958397e+00 4.2117986265521580e+01 
1014 1015 2 1.0279999999226115e+00 2.7784789041023387e+03 1.0000000000000000e+00 3.2205461256007832e+00 2.5080466341470015e-01 4.3003925597140793e+01 
566 567 2 1.0280000000165916e+00 3.1837851252872736e+02 1.0000000000000000e+00 9.6607741029148126e+00 2.4270978020843301e-01 4.2997216310961704e+01 
235 236 2 1.0280000000155967e+00 9.9766086476350574e+02 1.0000000000000000e+00 1.0315269244607359e+01 5.3581391560098901e-01 4.1866481064511078e+01 
354 355 2 1.0280000004069452e+00 -4.2804261376397189e+03 1.0000000000000000e+00 1.2533149731219888e+01 1.1000507794460468e+00 4.2458090886471837e+01 
415 416 2 1.0279999998825331e+00 -5.5800113455928513e+03 1.0000000000000000e+00 1.4875991595694330e+01 1.0845581847547532e+00 4.2001770140527711e+01 
738 739 2 1.0279999995531941e+00 1.2182407429125574e+03 1.0000000000000000e+00 1.4442010167150061e+01 7.7792147234414455e-01 4.2735577188803973e+01 
1351 1352 2 1.0279999998897609e+00 7.5089811010101675e+02 1.0000000000000000e+00 1.1957289820168850e+00 3.7275649495707421e+00 4.2217031443191829e+01 
244 245 2 1.0279999998616165e+00 -7.8262805270869501e+02 1.0000000000000000e+00 1.2616727404986063e+01 2.1836894278376722e+00 4.1464100648598986e+01 
1306 1307 2 1.0280000001884373e+00 2.3847424060888770e+03 1.0000000000000000e+00 1.2097939850087604e+01 2.7277845454695773e+00 4.2076849359614066e+01 
202 203 2 1.0280000000730458e+00 2.4582875181846825e+03 1.0000000000000000e+00 1.3178882875145026e+01 2.6333018002208699e+00 4.2818670462571077e+01 
1029 1030 2 1.0279999998601208e+00 6.7403710604655007e+03 1.0000000000000000e+00 1.5763771226471937e+01 2.2992598449094124e+00 4.2304681355840842e+01 
119 120 2 1.0280000005891985e+00 -6.1123015577126898e+03 1.0000000000000000e+00 1.4547732657638711e+01 3.6613052713131684e+00 4.2799935945768688e+01 
746 747 2 1.0279999989881179e+00 2.1298756084967322e+03 1.0000000000000000e+00 1.2626014833258207e+01 5.5587835803927614e+00 4.1901702320366439e+01 
586 587 2 1.0280000010469619e+00 1.1799802918843748e+03 1.0000000000000000e+00 1.2293060058950340e+01 4.9803837591162337e+00 4.2724367977203215e+01 
105 106 2 1.0279999997470268e+00 4.1061462389758644e+03 1.0000000000000000e+00 1.4036891014889884e+01 4.1416440408403590e+00 4.3122924039757066e+01 
78 79 2 1.0279999999296392e+00 -5.8942764249594611e+03 1.0000000000000000e+00 1.6687237246862331e+01 5.0023665314670014e+00 4.1394630482554462e+01 
1310 1311 2 1.0279999999751464e+00 2.1338593032564513e+03 1.0000000000000000e+00 9.1624971532622119e+00 6.9856718723579085e+00 4.2236137032381244e+01 
294 295 2 1.0280000008668813e+00 1.8163302161930906e+03 1.0000000000000000e+00 1.1705356238733893e+01 6.1604704126895236e+00 4.1296533514481062e+01 
1054 1055 2 1.0280000000332012e+00 -4.1373114277091699e+03 1.0000000000000000e+00 1.0124730730195919e+01 7.4556670509860874e+00 4.2360004137814698e+01 
1036 1037 2 1.0280000000256408e+00 2.7509516412383255e+03 1.0000000000000000e+00 1.0063306084406356e+01 6.3667862743085823e+00 4.2755415741666752e+01 
676 677 2 1.0280000000660183e+00 -3.4906845406405737e+03 1.0000000000000000e+00 2.9752613048627219e+00 8.9683194291820776e+00 4.1283025836461164e+01 
673 674 2 1.0280000000554039e+00 -3.5111491276422712e+03 1.0000000000000000e+00 2.7775840642872129e+00 9.1982335826463402e+00 4.1395733771062268e+01 
703 704 2 1.0280000001907381e+00 4.3275851165804988e+03 1.0000000000000000e+00 5.5563303377092623e+00 9.3011025493877018e+00 4.1402299460787049e+01 
1359 1360 2 1.0280000000421006e+00 1.8074380128558023e+03 1.0000000000000000e+00 6.1153752014378577e+00 9.7133929510332369e+00 4.2416230382019975e+01 
1052 1053 2 1.0280000000359562e+00 4.9569099146061380e+03 1.0000000000000000e+00 2.1482576112185829e+00 1.1006265154742595e+01 4.2492000524104974e+01 
702 703 2 1.0280000000358511e+00 4.3140286105162022e+03 1.0000000000000000e+00 2.0266373641114290e+00 1.0669137669312359e+01 4.2595294238644044e+01 
1332 1333 2 1.0279999999188452e+00 -5.7618359999372137e+02 1.0000000000000000e+00 3.4639036460413948e+00 1.0681637224216276e+01 4.2638072734370816e+01 
1283 1284 2 1.0279999998821197e+00 1.6390098933107706e+03 1.0000000000000000e+00 5.8058769570590592e+00 1.0690502237598000e+01 4.1441848595075328e+01 
845 846 2 1.0279999998792815e+00 -3.4427832814556041e+03 1.0000000000000000e+00 4.6377537496883496e+00 1.0089519787252048e+01 4.2571949260475783e+01 
808 809 2 1.0280000000259699e+00 -2.6406456297216482e+03 1.0000000000000000e+00 9.3595746440617784e+00 1.1825128924746828e+01 4.2662669066273480e+01 
1287 1288 2 1.0280000000035090e+00 9.7328575558360671e+02 1.0000000000000000e+00 8.8229858161415446e+00 1.1199791296170643e+01 4.2773895574000321e+01 
1337 1338 2 1.0279999999300073e+00 -1.7355164387311756e+03 1.0000000000000000e+00 6.6830990858267079e+00 1.3281575294126654e+01 4.2005498088908688e+01 
1341 1342 2 1.0280000000102267e+00 1.9834508431561862e+03 1.0000000000000000e+00 7.5736645754323373e+00 1.3431705703359878e+01 4.2556744898027681e+01 
1050 1051 2 1.0280000000709499e+00 -2.1496027411478872e+03 1.0000000000000000e+00 8.2410973440983533e+00 1.3745823694445185e+01 4.1337069355196903e+01 
792 793 2 1.0279999999260190e+00 -2.9885329766280665e+02 1.0000000000000000e+00 9.3053234013096606e+00 1.2279685825011518e+01 4.1548108061002843e+01 
1492 1493 2 1.0279999999808989e+00 3.1384347566310112e+03 1.0000000000000000e+00 5.8993321331189339e+00 1.4134966353419918e+01 4.1490416067775527e+01 
1353 1354 2 1.0279999999859555e+00 2.0031786811691377e+03 1.0000000000000000e+00 4.1645230165874834e+00 1.4289083327975536e+01 4.2223663735169652e+01 
1197 1198 2 1.0279999999815264e+00 -2.1916121725623321e+02 1.0000000000000000e+00 4.1594680705946736e+00 1.4243466149018383e+01 4.2229618881356977e+01 
21 22 2 1.0280000001594642e+00 4.2475630652870141e+03 1.0000000000000000e+00 1.3147592176044742e+00 1.5412039244162842e-01 4.3453269611845194e+01 
201 202 2 1.0280000003335035e+00 -3.4849745472181360e+02 1.0000000000000000e+00 1.1101195391582268e+00 8.5640917006131911e-01 4.4722415413023242e+01 
791 792 2 1.0279999998830929e+00 1.0748345091238828e+03 1.0000000000000000e+00 4.4396268611457081e+00 1.2314954241338845e+00 4.4717321496149268e+01 
1428 1429 2 1.0279999998853191e+00 2.8589644611052227e+03 1.0000000000000000e+00 4.4424731200993328e+00 1.2339032825627165e+00 4.4721620111043592e+01 
1275 1276 2 1.0279999998629465e+00 2.3720530429258706e+03 1.0000000000000000e+00 1.2409026241122955e+01 5.0956515891747003e-02 4.3341441228329430e+01 
113 114 2 1.0280000009406214e+00 4.1223632117310553e+03 1.0000000000000000e+00 1.5949163621569841e+01 1.1910080595720267e+00 4.3378032212466202e+01 
1497 1498 2 1.0279999998981220e+00 4.1455532307333642e+03 1.0000000000000000e+00 1.2438060315119586e+00 2.9557928949589924e+00 4.3605310912390209e+01 
368 369 2 1.0279999996951448e+00 1.5513182607927966e+01 1.0000000000000000e+00 1.0979355419040257e-01 2.6337450362742896e+00 4.4582544086439889e+01 
728 729 2 1.0279999998307570e+00 -1.2390222868235105e+03 1.0000000000000000e+00 1.5779303830444860e+01 2.2637463154551201e+00 4.3643980107737178e+01 
249 250 2 1.0280000003400331e+00 -6.0306321906655057e+02 1.0000000000000000e+00 1.4240409687257491e+01 3.8860300740099398e+00 4.4592570169751433e+01 
98 99 2 1.0280000002340006e+00 -6.2947822605426682e+03 1.0000000000000000e+00 7.1622769505422101e-01 4.4040684463659048e+00 4.3169491198948450e+01 
1218 1219 2 1.0280000002473546e+00 6.0617211203655188e+02 1.0000000000000000e+00 1.5453439959446043e+00 5.4597105697673092e+00 4.4856589432814083e+01 
1043 1044 2 1.0279999995743132e+00 1.1942038214660879e+03 1.0000000000000000e+00 1.1419399349000466e+01 5.8438308978406566e+00 4.3260419439479598e+01 
592 593 2 1.0279999998182561e+00 3.9021516736354579e+03 1.0000000000000000e+00 1.1838821259302794e+01 5.4189776466172743e+00 4.4477517878612154e+01 
981 982 2 1.0280000000434495e+00 6.0141462838995421e+03 1.0000000000000000e+00 1.2468438192715392e+00 6.4810972843573040e+00 4.4395316558675106e+01 
62 63 2 1.0280000003089649e+00 -5.5561025906936920e+03 1.0000000000000000e+00 3.9933176407331579e+00 9.5248951563482365e+00 4.4950390098118191e+01 
307 308 2 1.0280000003227490e+00 -1.5024893610372583e+03 1.0000000000000000e+00 3.9901849353481165e+00 9.5307460309064957e+00 4.4951367990097062e+01 
1442 1443 2 1.0280000001523788e+00 -5.1518387413951241e+03 1.0000000000000000e+00 1.3626020373255647e+01 8.8698981504711654e+00 4.4826339968040230e+01 
1137 1138 2 1.0280000001740242e+00 -2.4530732965141597e+03 1.0000000000000000e+00 1.4280509017243942e+01 8.4216445503898196e+00 4.4923200332887127e+01 
1327 1328 2 1.0280000000546119e+00 2.2424646808616949e+03 1.0000000000000000e+00 5.9052519681031921e+00 1.0751818353208842e+01 4.4077814064692674e+01 
1326 1327 2 1.0280000001058403e+00 2.2447122715604619e+03 1.0000000000000000e+00 5.9146981226147766e+00 1.0735630447977025e+01 4.4091093808149424e+01 
1329 1330 2 1.0280000001074538e+00 -5.1952762356947051e+02 1.0000000000000000e+00 7.4931113544183505e+00 1.1733830288647043e+01 4.4386161285672053e+01 
1010 1011 2 1.0280000000583134e+00 1.7075450924092529e+03 1.0000000000000000e+00 7.5516274501533402e+00 1.2085083811995640e+01 4.3220341924327641e+01 
322 323 2 1.0280000001749006e+00 -4.3821297771951395e+03 1.0000000000000000e+00 4.1921766130380456e-01 1.0913935548573537e+00 4.5428673369215161e+01 
479 480 2 1.0280000001934892e+00 9.4742859662430578e+02 1.0000000000000000e+00 2.9782434989420481e+00 9.7066702794383009e-02 4.5331091589342890e+01 
284 285 2 1.0280000001226943e+00 4.1891735455272292e+03 1.0000000000000000e+00 3.0581401541042688e+00 5.7468721623303443e-01 4.5745092792191869e+01 
120 121 2 1.0280000004909180e+00 2.5053862207335997e+03 1.0000000000000000e+00 4.4731861385913749e+00 1.4436367263170020e+00 4.6662954301032201e+01 
1315 1316 2 1.0280000002953422e+00 1.5085952669556527e+03 1.0000000000000000e+00 1.5133712799890343e+01 1.9925695733694095e+00 4.5177327276764665e+01 
1471 1472 2 1.0280000001646126e+00 -7.3438511834934998e+03 1.0000000000000000e+00 1.4242638566360204e+01 1.6782579830852369e+00 4.5197636835604840e+01 
340 341 2 1.0279999999369018e+00 5.3840635404406407e+02 1.0000000000000000e+00 1.4457192249261190e+01 1.2959068969896051e-02 4.6081263709728802e+01 
594 595 2 1.0280000002237457e+00 -2.1415052190087390e+03 1.0000000000000000e+00 1.4014400384727761e+01 1.8807215191794877e+00 4.6564081641832253e+01 
700 701 2 1.0280000000958203e+00 -2.6595124303964958e+03 1.0000000000000000e+00 2.0483342273083678e+00 3.0331257041531106e+00 4.5355037975206692e+01 
823 824 2 1.0280000002043532e+00 3.4912887780690726e+03 1.0000000000000000e+00 2.5675274886039574e+00 2.5638824897905765e+00 4.6805087294268610e+01 
379 380 2 1.0280000001740599e+00 -6.3028378227735702e+03 1.0000000000000000e+00 6.0936673768186678e+00 2.6766078952992207e+00 4.6992769927346970e+01 
1311 1312 2 1.0279999999251035e+00 2.1118157590786382e+03 1.0000000000000000e+00 1.4260760184247566e+01 3.9555303443528813e+00 4.5627159725266516e+01 
611 612 2 1.0279999997659879e+00 -6.5124811311482290e+02 1.0000000000000000e+00 1.4366741640200143e+01 3.0352307197328914e+00 4.6520996879633792e+01 
520 521 2 1.0279999999961196e+00 2.2194763606751949e+03 1.0000000000000000e+00 5.0494569768517883e-01 5.7343546476495497e+00 4.5314556982928714e+01 