LAMMPS data file via write_data, version 30 Jul 2016, timestep = 50000000

384 atoms
2 atom types

0.0000000000000000e+00 2.0000000000000000e+01 xlo xhi
0.0000000000000000e+00 2.0000000000000000e+01 ylo yhi
0.0000000000000000e+00 2.0000000000000000e+01 zlo zhi

Masses

1 3.89
2 8.38

Atoms # meso-molecular

128 1 2 2.2565109062873230e+00 3.3150694088850841e+01 1.0000000000000000e+00 2.2142994277230672e+00 6.9269298411312130e+00 1.3177078601826990e+00 
6 1 2 2.2565109062873230e+00 7.8024949671630761e-01 1.0000000000000000e+00 5.2317218429139114e+00 6.2682202724170386e+00 1.6267866002869125e-01 
338 1 2 2.2565109062873230e+00 -2.7219720530221286e+02 1.0000000000000000e+00 1.4382544720530785e+00 2.1599556768348216e+00 1.5381944099523550e+00 
168 1 2 2.2566832789902320e+00 1.2138851792729154e-01 1.0000000000000000e+00 8.7857132179139585e-01 4.6965281658566944e+00 2.7650871532053465e+00 
78 1 2 2.2565109062873230e+00 1.5646089309951879e+01 1.0000000000000000e+00 5.3202200227827463e+00 5.3699376867626425e+00 2.5784554700006215e+00 
104 1 2 2.2565109062873230e+00 2.6148231956435538e+01 1.0000000000000000e+00 4.1476901523683090e+00 8.3145863736295063e+00 1.5980457006668776e+00 
238 1 2 2.2565109062873230e+00 -8.1214039883187894e+01 1.0000000000000000e+00 1.4516562910900008e+00 2.4420597058621820e+00 4.1678574353947493e+00 
382 1 2 2.2565109062873230e+00 2.6490429039287669e+01 1.0000000000000000e+00 6.3271987077013359e+00 2.3287552578391155e+00 3.3604957905921338e+00 
264 1 2 2.2566832789902320e+00 2.1562241430917343e+01 1.0000000000000000e+00 2.7411346005786421e+00 4.7586218645585721e+00 3.1563877138178831e+00 
54 1 2 2.2565109062873230e+00 2.3766285981054423e+01 1.0000000000000000e+00 1.3935535701030479e+00 6.8013671717101936e+00 3.4852611220997187e+00 
319 1 2 2.2565109062873230e+00 -3.1854682748221855e+01 1.0000000000000000e+00 6.3580539957872961e+00 6.9024997167534305e+00 3.3711034087592884e+00 
250 1 2 2.2565109062873230e+00 4.1141217751958010e+01 1.0000000000000000e+00 4.3862696914366621e+00 8.0611283213391722e+00 4.2127171169985482e+00 
325 1 2 2.2565109062873230e+00 -8.7018282387317640e+01 1.0000000000000000e+00 3.9392376651556997e+00 7.5992036490014492e-01 5.0512119777878164e+00 
308 1 2 2.2565109062873230e+00 2.7677971078582644e+01 1.0000000000000000e+00 5.6830880231285521e+00 2.0611153976956555e+00 6.1310063057888904e+00 
223 1 2 2.2565109062873230e+00 3.0334507496353226e+01 1.0000000000000000e+00 1.7850981132270181e+00 4.2313005881615116e+00 5.8433693398146609e+00 
330 1 2 2.2565109062873230e+00 -5.7317350807597464e+01 1.0000000000000000e+00 4.3078231851192168e+00 3.8325460168448453e+00 6.6895519703176429e+00 
203 1 2 2.2565109062873230e+00 3.1536764075738240e+01 1.0000000000000000e+00 1.4866952367787003e+00 6.0938039615622950e+00 6.9996070591167152e+00 
29 1 2 2.2565109062873230e+00 -3.5882614055636083e+01 1.0000000000000000e+00 5.4668602137568252e+00 6.4524467306198989e+00 5.7532663236133850e+00 
42 1 2 2.2565109062873230e+00 -1.9322107841646434e+00 1.0000000000000000e+00 6.6227848182139448e+00 8.9973265301884311e+00 6.6871620387946216e+00 
306 1 2 2.2565109062873230e+00 -1.2439798344439495e+01 1.0000000000000000e+00 4.5123644863519186e+00 7.7561195579105346e-01 7.7568852768837280e+00 
156 1 2 2.2565109062873230e+00 2.8467220739081696e+01 1.0000000000000000e+00 6.4059230461790246e+00 4.1302329100753522e-02 8.4269611116212726e+00 
357 1 2 2.2565109062873230e+00 2.1650417159035676e+01 1.0000000000000000e+00 1.0916041659929276e+00 3.4963128863940325e+00 7.9802674379727154e+00 
277 1 2 2.2565109062873230e+00 -2.1989537968229122e+01 1.0000000000000000e+00 6.4011428153225953e+00 5.3659558774014151e+00 8.1656995242443813e+00 
180 1 2 2.2565109062873230e+00 2.0307564086819795e+01 1.0000000000000000e+00 2.6454684763027876e+00 2.1205581716812922e+00 9.6065265788172720e+00 
191 1 2 2.2565109062873230e+00 -5.4847122022141317e+00 1.0000000000000000e+00 5.4463734368013563e+00 2.4878985864276095e+00 9.1231147644469104e+00 
67 1 2 2.2565109062873230e+00 -1.3442065560722460e+02 1.0000000000000000e+00 3.5885761485445737e+00 6.7929696172494642e+00 8.7140417001348851e+00 
381 1 2 2.2565109062873230e+00 -2.3861428908662958e+01 1.0000000000000000e+00 1.7468871636343786e+00 7.9689674947675124e+00 8.7045215805851974e+00 
239 1 2 2.2565109062873230e+00 2.3529225486775999e+01 1.0000000000000000e+00 5.1271742375548861e+00 9.1822960134536249e+00 9.1005185002571753e+00 
225 1 2 2.2565109062873230e+00 1.2867923642682204e+01 1.0000000000000000e+00 1.6864480707328047e+00 3.8473990942971188e+00 1.0395738452356444e+01 
309 1 2 2.2565109062873230e+00 2.0978970352560211e+01 1.0000000000000000e+00 6.1348352215990598e+00 4.3915958424702746e+00 1.0871494070828017e+01 
136 1 2 2.2565109062873230e+00 -6.9292756014137638e+01 1.0000000000000000e+00 2.6751513258245012e+00 6.1593125026374347e+00 1.1367802118641288e+01 
183 1 2 2.2565109062873230e+00 2.7426094297902942e+01 1.0000000000000000e+00 4.1936894511889067e+00 8.3795100689289228e+00 1.0975756895740323e+01 
202 1 2 2.2565109062873230e+00 2.3890405491932611e+01 1.0000000000000000e+00 2.4479719761736809e+00 1.0755592647400720e+00 1.2556663499213050e+01 
106 1 2 2.2565109062873230e+00 2.3930852949161313e+01 1.0000000000000000e+00 5.6084073297244084e+00 6.5066014137684531e+00 1.2717641705459842e+01 
342 1 2 2.2565110009858516e+00 2.1601963002885132e+01 1.0000000000000000e+00 1.2494908858496119e+00 9.3447934517442004e+00 1.1839192076565833e+01 
228 1 2 2.2565109062873230e+00 1.8563097194504905e+01 1.0000000000000000e+00 6.3510424375433816e+00 8.6424629278098699e+00 1.1665300552630871e+01 
241 1 2 2.2565109062873230e+00 1.3230457758413721e+01 1.0000000000000000e+00 4.3326369397124296e+00 1.1558126533466180e+00 1.3406665173042546e+01 
140 1 2 2.2565109062873230e+00 -7.4699114879448160e+01 1.0000000000000000e+00 1.4619250951803325e-01 1.7804220791369849e+00 1.3163530197405988e+01 
233 1 2 2.2565109062873230e+00 1.0047843794757227e+01 1.0000000000000000e+00 5.6281601685075451e+00 3.1945198076017438e+00 1.3035856790777764e+01 
46 1 2 2.2565109062873230e+00 1.4958884695406692e+01 1.0000000000000000e+00 1.2882882445639852e+00 5.8877363610185967e+00 1.3780587147140668e+01 
171 1 2 2.2565109062873230e+00 2.2438725481665116e+01 1.0000000000000000e+00 2.1867873460889603e-01 7.6062451151217259e+00 1.3117399558319830e+01 
105 1 2 2.2565183409650214e+00 1.7698392915419344e+01 1.0000000000000000e+00 2.9899503682177944e+00 8.6578071190284405e+00 1.3542240326040833e+01 
187 1 2 2.2565109062873230e+00 6.6150641700452741e+00 1.0000000000000000e+00 6.0577524114152546e+00 2.9802832958976233e+00 1.5569371811273255e+01 
16 1 2 2.2565183409650214e+00 3.3154445671572311e+01 1.0000000000000000e+00 2.2925311447045189e+00 7.8820558927790545e+00 1.5197892555375367e+01 
263 1 2 2.2565109299742687e+00 2.1787611498439553e+01 1.0000000000000000e+00 6.5297439660669028e+00 9.1357899704791183e+00 1.4596375388296053e+01 
13 1 2 2.2565109062873230e+00 2.0912333744681234e+01 1.0000000000000000e+00 3.8979286728116240e+00 4.4398154330672090e-01 1.6867877072826325e+01 
129 1 2 2.2565109062873230e+00 -2.5638218275056381e+01 1.0000000000000000e+00 1.4855463599439049e+00 1.5841410094345436e+00 1.5909551340770724e+01 
138 1 2 2.2565109062873230e+00 2.6497057780297034e+01 1.0000000000000000e+00 4.5249486874835085e+00 5.1706636881914543e+00 1.6490198542266167e+01 
190 1 2 2.2565109073916148e+00 -1.4260050861454408e+01 1.0000000000000000e+00 6.4528842805388438e+00 8.9916442870103097e+00 1.6806643737559739e+01 
237 1 2 2.2565109062873230e+00 1.0251788451223799e+01 1.0000000000000000e+00 7.8252579090856741e-02 3.3706028582554244e+00 1.8074388726523516e+01 
246 1 2 2.2565109062873230e+00 2.4271431110533840e+01 1.0000000000000000e+00 2.6590711588846272e+00 3.3597833314613128e+00 1.7582124441028675e+01 
77 1 2 2.2565109062873230e+00 1.9354992774788705e+01 1.0000000000000000e+00 5.7473299352223082e+00 4.6808381283304508e+00 1.8502236542031628e+01 
146 1 2 2.2565109073916148e+00 -5.2352174538182702e+01 1.0000000000000000e+00 5.2078496182607292e+00 7.4746446117336820e+00 1.7172455600854271e+01 
17 1 2 2.2565109062873230e+00 2.2057282833938913e+01 1.0000000000000000e+00 2.2272110794817950e+00 9.7027274679935136e+00 1.8391719576105469e+01 
135 1 2 2.2565109062873230e+00 2.7183845015692441e+01 1.0000000000000000e+00 8.7278181750192940e-01 8.2866110580221564e-01 1.9824907422377215e+01 
142 1 2 2.2565109062873230e+00 3.0077331347833244e+01 1.0000000000000000e+00 4.8227239204061387e+00 2.1422524593351091e+00 1.9818017762022794e+01 
58 1 2 2.2565109062873230e+00 2.8613358216876513e+01 1.0000000000000000e+00 8.9133417715244634e-01 4.9495477453771564e+00 1.9248795672340364e+01 
365 1 2 2.2565109062873230e+00 -5.1070011382328914e+01 1.0000000000000000e+00 2.7840633095563554e+00 4.4634763621538918e+00 1.9777574285928694e+01 
52 1 2 2.2565109062873230e+00 1.0736568849112540e+01 1.0000000000000000e+00 2.8147150163840684e+00 6.8839840829299970e+00 1.9351571599201819e+01 
376 1 2 2.2565109062873230e+00 2.2816527155815947e+01 1.0000000000000000e+00 5.7578448909815707e+00 8.5279031072303049e+00 1.9685451823127202e+01 
349 1 2 2.2565109062873230e+00 2.3738952561107226e+01 1.0000000000000000e+00 4.0295339671339819e-01 1.1240020091948566e+01 5.9383219496959894e-01 
289 1 2 2.2565109062873230e+00 1.9142862907375402e+01 1.0000000000000000e+00 3.4527501100656490e+00 1.1862172468698477e+01 5.6242324182501957e-01 
174 1 2 2.2565109062873230e+00 1.9123281346544708e+01 1.0000000000000000e+00 5.9091827210141776e+00 1.8110233184611509e+01 9.4558683602432761e-02 
331 1 2 2.2565109062873230e+00 2.1981190323765425e+01 1.0000000000000000e+00 2.2420539858547728e+00 1.1521205931054237e+01 2.7754557149453030e+00 
118 1 2 2.2565109062873230e+00 2.0989067454922420e+01 1.0000000000000000e+00 6.2743343102676494e+00 1.2654615490504350e+01 2.1094179364479770e+00 
269 1 2 2.2565109062873230e+00 -6.3092073474501156e+00 1.0000000000000000e+00 4.2855486985687588e+00 1.3481649373642922e+01 1.8654817512018205e+00 
267 1 2 2.2565109062873230e+00 2.1075337108375713e+01 1.0000000000000000e+00 2.1107199898350312e-01 1.5348376349639485e+01 2.4415298576623647e+00 
231 1 2 2.2565109062873230e+00 -1.4384233043623610e+01 1.0000000000000000e+00 2.4163996214485373e+00 1.5248102845815897e+01 2.6363362958741550e+00 
115 1 2 2.2565109062873230e+00 3.0671105234360986e+01 1.0000000000000000e+00 3.2150357095852038e+00 1.7187033164796357e+01 2.3772587127801343e+00 
182 1 2 2.2565109062873230e+00 2.2872315353141808e+01 1.0000000000000000e+00 1.2524676612348919e+00 1.9106823619785590e+01 1.7293435946768569e+00 
26 1 2 2.2565109062873230e+00 9.2475447025851381e+00 1.0000000000000000e+00 4.6172932342095390e+00 1.9515159897188379e+01 2.1322657948794079e+00 
282 1 2 2.2565110058741533e+00 2.8137128035317932e+01 1.0000000000000000e+00 5.7278035372328677e+00 1.6471566431695106e+01 4.0981154902193015e+00 
37 1 2 2.2565109062873230e+00 3.1189850715238840e+01 1.0000000000000000e+00 2.0898603037202759e+00 1.1421874912608040e+01 4.9285807153791525e+00 
249 1 2 2.2565109062873230e+00 -1.9156413652846189e+00 1.0000000000000000e+00 5.7109547038739512e+00 1.1798064932709730e+01 4.4570265082514915e+00 
186 1 2 2.2565490137865232e+00 2.0176216688819434e+01 1.0000000000000000e+00 1.1700649586195176e-01 1.5145205486929559e+01 4.5390980310748121e+00 
355 1 2 2.2565109062873230e+00 1.6014573007773397e+01 1.0000000000000000e+00 1.0505264129002208e-01 1.9018158288274041e+01 4.4943229715270308e+00 
110 1 2 2.2565109062873230e+00 1.7178726563684371e+01 1.0000000000000000e+00 2.1578260322244676e+00 1.9925651975406893e+01 5.4282941223898185e+00 
14 1 2 2.2565109062873230e+00 1.9665591022581268e+01 1.0000000000000000e+00 5.9729699961184970e+00 1.8623096999977729e+01 4.4153473548179871e+00 
57 1 2 2.2565109062873230e+00 2.6717028126286053e+01 1.0000000000000000e+00 2.5286201546175828e+00 1.3238841893569491e+01 6.8682897799090403e+00 
217 1 2 2.2565109062873230e+00 -2.4501309398955435e+01 1.0000000000000000e+00 1.5028378576223413e+00 1.6793506665193490e+01 5.9122810429640440e+00 
205 1 2 2.2565110058741533e+00 1.6632244568790352e+01 1.0000000000000000e+00 4.6568300901757977e+00 1.6686635617624137e+01 5.7560196972270496e+00 
362 1 2 2.2565109062873230e+00 2.5019335983617303e+01 1.0000000000000000e+00 3.6942297873822566e-01 1.2064148787530824e+01 8.3475683694570435e+00 
280 1 2 2.2565109062873230e+00 3.2705994668165999e+01 1.0000000000000000e+00 5.7250032721756172e+00 1.3517128252456612e+01 7.4725790328818595e+00 
91 1 2 2.2565132819339788e+00 1.6646063689575225e+01 1.0000000000000000e+00 3.1449607281727521e-01 1.5198614944510158e+01 7.3008838478861335e+00 
335 1 2 2.2565237488181191e+00 1.9577837086381901e+01 1.0000000000000000e+00 1.8590469944670920e+00 1.5222161554868197e+01 8.5197146826937669e+00 
133 1 2 2.2565213731714633e+00 1.9545672667838176e+01 1.0000000000000000e+00 3.6653777771578264e+00 1.5183523063090252e+01 7.7780373414994122e+00 
83 1 2 2.2565109062873230e+00 -3.2478904463689105e+02 1.0000000000000000e+00 2.6807308077656202e+00 1.7976727534440194e+01 7.4645586217106619e+00 
216 1 2 2.2565109062873230e+00 2.0896490590973947e+01 1.0000000000000000e+00 5.6077256895875145e+00 1.7952323037890665e+01 7.1599348441695438e+00 
276 1 2 2.2565109062873230e+00 -2.0566846643742298e+02 1.0000000000000000e+00 2.8896543306417786e+00 1.0085868450112589e+01 9.7429535016260918e+00 
272 1 2 2.2565109062873230e+00 3.0996744509383880e+01 1.0000000000000000e+00 3.5051318538410685e+00 1.2624925179923212e+01 9.4149704136245820e+00 
369 1 2 2.2565109062873230e+00 1.5679506787882531e+01 1.0000000000000000e+00 1.9040734624574138e-01 1.6393075718411534e+01 9.4913092914686974e+00 
265 1 2 2.2565109062873230e+00 -4.0041024646207376e+01 1.0000000000000000e+00 5.0990200310203209e+00 1.7589404075488186e+01 9.5285978611091569e+00 
55 1 2 2.2565109062873230e+00 6.6482024928734340e+00 1.0000000000000000e+00 1.6186786421529493e+00 1.1601742806906861e+01 1.0867000160102073e+01 
40 1 2 2.2565109062873230e+00 1.9835051129217509e+00 1.0000000000000000e+00 3.5211935360299695e+00 1.5495476195641263e+01 1.0083603417700855e+01 
290 1 2 2.2565109062873230e+00 3.9592346581298221e+00 1.0000000000000000e+00 7.5441705501859257e-01 1.9159386503193808e+01 1.0629941273417534e+01 
10 1 2 2.2565109062873230e+00 2.2487582381132057e+01 1.0000000000000000e+00 2.7438363308269431e+00 1.9530498851472665e+01 1.0975976836276486e+01 
96 1 2 2.2565109062873230e+00 2.5386524662262495e+01 1.0000000000000000e+00 4.9319364009074089e+00 1.9860410480704388e+01 1.0679731351626312e+01 
20 1 2 2.2565861616490994e+00 2.1251452286108208e+01 1.0000000000000000e+00 2.8654025774155985e+00 1.3207165478788339e+01 1.1580814382863160e+01 
113 1 2 2.2565109062873230e+00 1.1573379577401809e+01 1.0000000000000000e+00 6.6392315665346251e+00 1.3757886795730613e+01 1.2431573754622914e+01 
198 1 2 2.2565109062873230e+00 3.1487792345948243e+01 1.0000000000000000e+00 8.2695486886015113e-01 1.4357505124880118e+01 1.2040977945461050e+01 
74 1 2 2.2565109062873230e+00 2.5813283744632606e+01 1.0000000000000000e+00 5.3712381195350272e+00 1.6234922909716598e+01 1.2325316913705326e+01 
318 1 2 2.2565109062873230e+00 2.9332434423019627e+01 1.0000000000000000e+00 8.6261980070493605e-01 1.7180846083430083e+01 1.1708747889300177e+01 
323 1 2 2.2565110009858516e+00 1.5497823632598706e+01 1.0000000000000000e+00 9.4402067023873215e-01 1.0064462334584215e+01 1.3664428957671955e+01 
76 1 2 2.2565109062873230e+00 9.4638306065183606e+00 1.0000000000000000e+00 5.7460867098715145e+00 1.0390317524749850e+01 1.3031507171544263e+01 
278 1 2 2.2565861616490994e+00 2.2336118527352429e+01 1.0000000000000000e+00 3.5344016538337590e+00 1.3593513706948730e+01 1.3341285176751850e+01 
111 1 2 2.2565109062873230e+00 2.8439714163657193e+01 1.0000000000000000e+00 1.1975739059871922e+00 1.5423095446027538e+01 1.3895349266256913e+01 
328 1 2 2.2565109062873230e+00 2.4565724842514236e+01 1.0000000000000000e+00 3.1351924741866646e+00 1.5893579545178435e+01 1.3271428805977676e+01 
8 1 2 2.2565109062873230e+00 3.4475496552282365e+01 1.0000000000000000e+00 1.7510406130189073e+00 1.8052420717943225e+01 1.3421144296072887e+01 
270 1 2 2.2565109299742687e+00 2.5627204101248246e+01 1.0000000000000000e+00 5.3193700985725156e+00 1.0424340037260809e+01 1.5509269646843617e+01 
322 1 2 2.2565175369740982e+00 1.3027301642361907e+01 1.0000000000000000e+00 2.1913789640584946e+00 1.7105643050211619e+01 1.5329573539426145e+01 
32 1 2 2.2565109062873230e+00 -9.9932086256225183e+00 1.0000000000000000e+00 4.6916260177734372e+00 1.7028831090326683e+01 1.4566884277370541e+01 
361 1 2 2.2565109062873230e+00 2.8374833165087743e+01 1.0000000000000000e+00 3.7830100360266354e+00 1.8754123641736133e+01 1.5177769271851679e+01 
145 1 2 2.2565109062873230e+00 -4.9389230643912384e+01 1.0000000000000000e+00 3.2682850549160958e+00 1.1213528264221525e+01 1.5948439362065058e+01 
367 1 2 2.2565109062873230e+00 2.9732392916426114e+01 1.0000000000000000e+00 1.5722777332683853e+00 1.2269368574162948e+01 1.6931031510974670e+01 
51 1 2 2.2565109062873230e+00 1.6351921425613035e+01 1.0000000000000000e+00 4.9575662024874747e+00 1.4157833314148080e+01 1.6446194036008983e+01 
188 1 2 2.2565176471409516e+00 8.2752965028032186e+00 1.0000000000000000e+00 3.2247639650093589e+00 1.7465288233413894e+01 1.6953513637015522e+01 
137 1 2 2.2565109062873230e+00 2.7052582571214273e+01 1.0000000000000000e+00 5.8547444436826384e+00 1.9668053262487213e+01 1.5867691907131178e+01 
235 1 2 2.2565109609455911e+00 1.5662973495992897e+01 1.0000000000000000e+00 3.3366592500858561e-01 1.1085257011278449e+01 1.8187658366742774e+01 
7 1 2 2.2565109062873230e+00 2.7177320486006444e+01 1.0000000000000000e+00 5.9937091942193073e+00 1.3747777579756116e+01 1.8174292985443575e+01 
114 1 2 2.2565109384621640e+00 3.2459790720704248e+01 1.0000000000000000e+00 1.8488500502673801e+00 1.4459226716802529e+01 1.8058054631157585e+01 
143 1 2 2.2565110164541764e+00 -6.6237129128480055e+00 1.0000000000000000e+00 2.1263049902317630e+00 1.6547752996395896e+01 1.8328711217679277e+01 
81 1 2 2.2565109062873230e+00 2.4853671445896367e+01 1.0000000000000000e+00 6.5460051691795194e+00 1.7162609056407465e+01 1.7152805795996795e+01 
366 1 2 2.2565109062873230e+00 3.3106451456397465e+01 1.0000000000000000e+00 6.6285029439940120e+00 1.9426307230213080e+01 1.7895224754737335e+01 
206 1 2 2.2565109062873230e+00 2.4496686616711891e+01 1.0000000000000000e+00 4.5684384629849761e+00 1.5423007277177678e+01 1.9033714227894013e+01 
88 1 2 2.2565109062873230e+00 1.3139265231820200e+01 1.0000000000000000e+00 2.5313917212534531e+00 1.9396543608225272e+01 1.9973661562286804e+01 
359 1 2 2.2565109062873230e+00 3.5225063831189360e+01 1.0000000000000000e+00 7.0353540942792820e+00 1.5404045778770852e+00 1.0799476531982979e+00 
291 1 2 2.2565109062873230e+00 1.9478979769329236e+01 1.0000000000000000e+00 1.1764353266294760e+01 5.0426491351345808e+00 7.3037899578941301e-01 
340 1 2 2.2565109487158646e+00 3.0181657077396338e+01 1.0000000000000000e+00 8.4623270563912687e+00 6.9951970684067595e+00 1.6857200861018551e-02 
298 1 2 2.2565109062873230e+00 -1.7092742720618563e+00 1.0000000000000000e+00 1.0477639216822789e+01 6.7439804840341813e+00 1.1312327268814595e+00 
354 1 2 2.2565109062873230e+00 3.0975173593361959e+01 1.0000000000000000e+00 9.8328397638509788e+00 8.9634023178364703e+00 5.3884867412801474e-01 
339 1 2 2.2565109062873230e+00 -2.0835767335643084e+02 1.0000000000000000e+00 7.3311420684426274e+00 3.5992274069118063e-02 2.4287165648556805e+00 
48 1 2 2.2565109062873230e+00 2.2570757358713259e+01 1.0000000000000000e+00 8.7691501459330077e+00 2.3288121287292745e+00 1.9170328919907498e+00 
210 1 2 2.2565109062873230e+00 2.0771968802161147e+01 1.0000000000000000e+00 1.3110888660588490e+01 1.8040771608244048e+00 1.6346296853940152e+00 
127 1 2 2.2565353773398726e+00 2.6791234359906674e+01 1.0000000000000000e+00 6.9755068593056704e+00 4.2378990154260006e+00 1.8251700000445361e+00 
215 1 2 2.2565118535658195e+00 1.4299989182231542e+01 1.0000000000000000e+00 8.4012066828748075e+00 5.5611985125697121e+00 1.4870796059670697e+00 
211 1 2 2.2565109062873230e+00 2.8568605572591721e+01 1.0000000000000000e+00 6.8577414528818563e+00 9.4480068104251984e+00 2.7656192696506654e+00 
285 1 2 2.2565109062873230e+00 -3.1531614969767105e+01 1.0000000000000000e+00 1.1230755462725748e+01 1.7908319343874144e+00 3.1770701248232127e+00 
1 1 2 2.2565109062873230e+00 2.4346766150720399e+01 1.0000000000000000e+00 8.8384495276036716e+00 4.1205006444766159e+00 4.1306503514923181e+00 
175 1 2 2.2565109062873230e+00 4.3462231034975645e+00 1.0000000000000000e+00 1.0498003361687456e+01 4.5548414026055735e+00 2.9815975883627717e+00 
30 1 2 2.2565109062873230e+00 2.2962903611943318e+01 1.0000000000000000e+00 1.1696444256304460e+01 6.4634575888407015e+00 4.0199982761215010e+00 
256 1 2 2.2565109062873230e+00 2.5423627608271943e+01 1.0000000000000000e+00 9.1312473270433010e+00 7.9267344578022234e+00 3.1346501496762516e+00 
38 1 2 2.2565109062873230e+00 1.3370192345525222e+01 1.0000000000000000e+00 1.1160895076652421e+01 7.2972646693793197e-01 5.1467486074109061e+00 
245 1 2 2.2565109062873230e+00 2.6631875681033399e+01 1.0000000000000000e+00 1.0587929147093885e+01 4.1134644176772737e+00 5.1669320249450301e+00 
220 1 2 2.2565109062873230e+00 2.2147151470558136e+01 1.0000000000000000e+00 1.2217117017245613e+01 8.2341444357083216e+00 5.2888274114420453e+00 
234 1 2 2.2565109062873230e+00 1.8397590558286510e+01 1.0000000000000000e+00 1.0487167730188991e+01 9.8030825766805396e+00 4.5844004131998961e+00 
283 1 2 2.2565109062873230e+00 1.8435902986270008e+01 1.0000000000000000e+00 9.2885453967386855e+00 2.8010640173963162e+00 6.3302060135431226e+00 
167 1 2 2.2565109062873230e+00 5.7373751202786920e+00 1.0000000000000000e+00 8.7964870506529245e+00 5.1334892123478886e+00 6.6539241637254287e+00 
56 1 2 2.2565109062873230e+00 3.6899194888567990e+01 1.0000000000000000e+00 1.1117566545734778e+01 6.7318873394957386e+00 6.6522454675341560e+00 
314 1 2 2.2565109062873230e+00 1.9314244449352913e+01 1.0000000000000000e+00 7.2738832680965251e+00 3.4238018643910504e+00 8.3064101244346489e+00 
117 1 2 2.2565109062873230e+00 2.1857875413686905e+01 1.0000000000000000e+00 1.0372202221874769e+01 3.0304576518377582e+00 8.4141804850710393e+00 
352 1 2 2.2565109062873230e+00 2.0949572689874266e+01 1.0000000000000000e+00 7.9100018102895433e+00 6.9419963438029475e+00 7.8553264358149546e+00 
219 1 2 2.2565109062873230e+00 2.5948736039535270e+01 1.0000000000000000e+00 1.3230180214221582e+01 6.9518329391810729e+00 7.6716480142534644e+00 
161 1 2 2.2565109062873230e+00 -2.9536542962999853e+01 1.0000000000000000e+00 8.7290461105765171e+00 9.9159410341359120e+00 7.6844022966460290e+00 
47 1 2 2.2565109062873230e+00 2.5249930353858446e+01 1.0000000000000000e+00 1.1844996904781565e+01 8.7574146248580931e+00 7.8714034344037120e+00 
321 1 2 2.2565109062873230e+00 2.8333377900015442e+01 1.0000000000000000e+00 1.2765859210334300e+01 5.1126583516931374e+00 8.9374704838515378e+00 
229 1 2 2.2565116526205604e+00 2.4558354966764174e+01 1.0000000000000000e+00 9.9671862361115480e+00 6.6538181303431871e+00 9.9193360264255332e+00 
184 1 2 2.2565109062873230e+00 2.2487125143033829e+01 1.0000000000000000e+00 1.0274674850113009e+01 2.8368682439175710e+00 1.0868718717485502e+01 
251 1 2 2.2565116526205604e+00 2.8077778079459211e+01 1.0000000000000000e+00 8.0090660724519473e+00 6.4593532236986961e+00 1.0098689830333264e+01 
358 1 2 2.2565109062873230e+00 2.6686744695836317e+01 1.0000000000000000e+00 1.2871464295408902e+01 6.4798089842877458e+00 1.1306326423440984e+01 
144 1 2 2.2565368857508812e+00 1.2438902155095114e+01 1.0000000000000000e+00 1.2345150482373787e+01 9.8383216625994994e+00 1.0173408716074890e+01 
87 1 2 2.2565109062873230e+00 1.9062427588585336e+01 1.0000000000000000e+00 8.0283592829031463e+00 2.5002787411864169e+00 1.2353393660781288e+01 
53 1 2 2.2565138119909092e+00 1.4432849337554929e+01 1.0000000000000000e+00 1.1469512587324898e+01 3.2798206024186007e+00 1.2718434699870844e+01 
50 1 2 2.2565109062873230e+00 2.7571932847286448e+01 1.0000000000000000e+00 9.0604107048860403e+00 6.7953987092496755e+00 1.1778180170288469e+01 
9 1 2 2.2565109062873230e+00 2.6669168128658654e+01 1.0000000000000000e+00 9.5554759505320686e+00 1.2229240550306522e+00 1.3780202211603358e+01 
126 1 2 2.2565676383664202e+00 -4.1176037214078923e+02 1.0000000000000000e+00 1.2819950779904847e+01 1.0926669210240895e-01 1.3539529866381574e+01 
173 1 2 2.2565676383664202e+00 1.9574197655745426e+01 1.0000000000000000e+00 1.1619606246817675e+01 1.5934134656428869e+00 1.3810214353932748e+01 
337 1 2 2.2565109062873230e+00 -2.5379281402440093e+01 1.0000000000000000e+00 7.4220501733130213e+00 3.5546034554343420e+00 1.4135434704026672e+01 
155 1 2 2.2565138119909092e+00 1.1337090714578940e+01 1.0000000000000000e+00 1.1913080480428446e+01 5.1654136157676538e+00 1.3054560915540453e+01 
172 1 2 2.2565109062873230e+00 2.4265066625025874e+01 1.0000000000000000e+00 1.0992813069373414e+01 6.9710978177607901e+00 1.2979854547072341e+01 
279 1 2 2.2565109062873230e+00 3.2860349531255096e+01 1.0000000000000000e+00 9.2347766104446354e+00 8.4499383440027795e+00 1.2893709614706466e+01 
121 1 2 2.2565109062873230e+00 -2.4296923053054303e+02 1.0000000000000000e+00 1.3233345080824339e+01 7.5606374832549772e+00 1.3276237811181922e+01 
384 1 2 2.2565576300324275e+00 2.7388066334375811e+01 1.0000000000000000e+00 1.1936495321957585e+01 9.4573920185657521e+00 1.4111353857964779e+01 
22 1 2 2.2565109062873230e+00 2.0412366050887172e+01 1.0000000000000000e+00 7.7511184489146796e+00 9.6536609609861296e-02 1.4706623973716253e+01 
130 1 2 2.2565109062873230e+00 -1.2662580747860765e+01 1.0000000000000000e+00 1.1560932432627302e+01 5.9076761018359875e-02 1.5487308354220803e+01 
119 1 2 2.2565109062873230e+00 2.2981157352579480e+01 1.0000000000000000e+00 8.3742917346234247e+00 5.6246990403301043e+00 1.5483613433991543e+01 
101 1 2 2.2565576300324275e+00 1.5415329568045586e+01 1.0000000000000000e+00 1.0577048956045475e+01 8.3421776759185509e+00 1.4910217862651125e+01 
288 1 2 2.2565109062873230e+00 2.1519155321128160e+01 1.0000000000000000e+00 8.5935753956408725e+00 9.8762347318854431e+00 1.4896848321960100e+01 
100 1 2 2.2565109062873230e+00 2.9142652388048688e+01 1.0000000000000000e+00 8.9774087421077127e+00 1.5104358646604411e-02 1.7015072602743032e+01 
286 1 2 2.2565109062873230e+00 2.1262456237449761e+01 1.0000000000000000e+00 1.1386809732134536e+01 3.1544966857368806e+00 1.6139680221460214e+01 
141 1 2 2.2565109454684342e+00 -1.0430807989416837e+02 1.0000000000000000e+00 1.1047086668455050e+01 5.2802384959082920e+00 1.7045314162929426e+01 
268 1 2 2.2565109454684342e+00 2.9226510928882934e+01 1.0000000000000000e+00 1.1939740737448240e+01 6.4589585402508547e+00 1.5715043473155136e+01 
125 1 2 2.2565109062873230e+00 -4.0165599854913057e+02 1.0000000000000000e+00 8.2319934344633179e+00 7.7326696754841864e+00 1.5912074211739226e+01 
371 1 2 2.2565109062873230e+00 -6.5060128087327662e+00 1.0000000000000000e+00 1.2988856893581469e+01 8.4070016898331748e+00 1.5797685805303393e+01 
327 1 2 2.2565109062873230e+00 -3.9449682425643985e+01 1.0000000000000000e+00 1.0034873864941288e+01 2.0580749379788044e+00 1.8034398678668751e+01 
356 1 2 2.2565109062873230e+00 3.2576864577492586e+01 1.0000000000000000e+00 1.2571044484693497e+01 3.5992963766090438e+00 1.7981603664492766e+01 
344 1 2 2.2565109487158646e+00 -3.3412558661626619e+01 1.0000000000000000e+00 7.3872714753246038e+00 6.5425015536339961e+00 1.8406835314004343e+01 
152 1 2 2.2565109062873230e+00 2.7774919695928347e+01 1.0000000000000000e+00 1.0372076228620980e+01 6.8606870216749556e+00 1.8253600228081144e+01 
293 1 2 2.2565109062873230e+00 2.3451739439982390e+01 1.0000000000000000e+00 1.2733890599239821e+01 7.6600875437858322e+00 1.8456412912350757e+01 
284 1 2 2.2565109062873230e+00 2.6377091421738939e+01 1.0000000000000000e+00 1.1630518527640309e+01 3.4450337609112613e-01 1.9113481092853668e+01 
379 1 2 2.2565344300613761e+00 2.5123642417037257e+01 1.0000000000000000e+00 7.1928368977793147e+00 4.7227742730861797e+00 1.9956824043201692e+01 
92 1 2 2.2565109062873230e+00 1.7068249596941818e+01 1.0000000000000000e+00 8.5872199203609885e+00 1.0358766949974697e+01 1.3716500754430685e+00 
301 1 2 2.2565109062873230e+00 2.1547558989761256e+01 1.0000000000000000e+00 1.1244805104338166e+01 1.1341460591865960e+01 1.6188013677352944e-01 
36 1 2 2.2565109062873230e+00 2.4380995951500637e+01 1.0000000000000000e+00 1.0942971133655570e+01 1.3613159401935670e+01 2.3575554575606898e-02 
316 1 2 2.2565109062873230e+00 2.0012038565519241e+01 1.0000000000000000e+00 7.9787121846619078e+00 1.9291607965486008e+01 1.1355262359266796e-01 
341 1 2 2.2567911718731475e+00 2.7651003835715628e+01 1.0000000000000000e+00 1.1397834914453448e+01 1.8635060534877013e+01 7.2587751556567426e-01 
213 1 2 2.2567911718731475e+00 -2.3660424774241844e+00 1.0000000000000000e+00 1.2794544008712926e+01 1.9805279054650153e+01 1.2333536294744998e+00 
45 1 2 2.2565109062873230e+00 2.3779876400563737e+01 1.0000000000000000e+00 1.0311275228009720e+01 1.2254786712310777e+01 2.5997487629435714e+00 
383 1 2 2.2565109062873230e+00 3.0309247950239097e+01 1.0000000000000000e+00 8.3344794188452873e+00 1.3623413542614802e+01 2.0563831703813049e+00 
102 1 2 2.2565109062873230e+00 2.5105821267679168e+01 1.0000000000000000e+00 1.1333069323073547e+01 1.4464605322007706e+01 1.8407991607356546e+00 
166 1 2 2.2565163636240673e+00 -1.7777239623147375e+02 1.0000000000000000e+00 1.1390692288103921e+01 1.7355980810690554e+01 2.3970647165520718e+00 
108 1 2 2.2565109062873230e+00 -4.7235907402401679e+01 1.0000000000000000e+00 1.0618228848110004e+01 1.9332688340230913e+01 2.4865010270794197e+00 
303 1 2 2.2565109062873230e+00 2.8523917142287551e+01 1.0000000000000000e+00 6.7814593418704563e+00 1.5205923057481305e+01 2.9043681603511593e+00 