LAMMPS data file via write_data, version 30 Jul 2016, timestep = 50400000

384 atoms
2 atom types

0.0000000000000000e+00 2.0000000000000000e+01 xlo xhi
0.0000000000000000e+00 2.0000000000000000e+01 ylo yhi
0.0000000000000000e+00 2.0000000000000000e+01 zlo zhi

Masses

1 3.89
2 8.38

Atoms # meso-molecular

142 1 2 2.2565109093058240e+00 3.0078225885508211e+01 1.0000000000000000e+00 3.5445145079808666e+00 5.8294295281533404e-01 1.1281243974989552e+00 
78 1 2 2.2565109062873230e+00 1.5646612487777549e+01 1.0000000000000000e+00 5.1091589387082541e+00 3.7938031505496981e+00 3.9427323135941023e-01 
365 1 2 2.2565109062873230e+00 -5.1069063561265665e+01 1.0000000000000000e+00 3.2048391830901224e+00 3.2658635095977626e+00 1.7845111202897375e+00 
104 1 2 2.2565109062873230e+00 2.6148863752209238e+01 1.0000000000000000e+00 1.4982569572570306e+00 6.0960481754378870e+00 2.0367226296964547e+00 
128 1 2 2.2565109062873230e+00 3.3151017940931212e+01 1.0000000000000000e+00 4.5214065982359797e+00 5.8403120587683004e+00 2.1269645328680702e+00 
289 1 2 2.2565910873627018e+00 1.9177488718850050e+01 1.0000000000000000e+00 3.5746982661085784e+00 8.1516610918370915e+00 2.6323436389658479e+00 
238 1 2 2.2565109062873230e+00 -8.1212614503249540e+01 1.0000000000000000e+00 8.0205005534411611e-01 8.6945023110097850e+00 1.9760502759416019e+00 
269 1 2 2.2565910873627018e+00 -6.2759100711976368e+00 1.0000000000000000e+00 5.1187003092248489e+00 9.2920667209604328e+00 2.7140596339163916e+00 
168 1 2 2.2565109062873230e+00 6.4189234496543124e-02 1.0000000000000000e+00 1.6829909284569478e+00 1.0520251789203590e+00 3.8725979498051823e+00 
26 1 2 2.2565109062873230e+00 9.2477412249023665e+00 1.0000000000000000e+00 5.9054542689262846e+00 2.1902684761671933e+00 3.6588647940821417e+00 
203 1 2 2.2565109062873230e+00 3.1537962203613795e+01 1.0000000000000000e+00 1.1767124419131496e+00 9.5030468144250300e+00 3.8528056513515754e+00 
182 1 2 2.2565109062873230e+00 2.2872635883996331e+01 1.0000000000000000e+00 4.0231795578979703e+00 7.1441813413276423e-01 4.6381254993681660e+00 
215 1 2 2.2565372826823271e+00 1.4313866379673780e+01 1.0000000000000000e+00 6.0755953533814164e+00 4.6692559080126710e+00 4.5764346343729727e+00 
264 1 2 2.2565109062813202e+00 2.1505399867157294e+01 1.0000000000000000e+00 3.7188888114845775e+00 6.3975482970175754e+00 4.6704821020787275e+00 
29 1 2 2.2565109062813202e+00 -3.5881306250257758e+01 1.0000000000000000e+00 1.9934585102751339e+00 7.3419594108858650e+00 5.0183662507186479e+00 
325 1 2 2.2565109062873230e+00 -8.7018060499962786e+01 1.0000000000000000e+00 2.4314881005254763e+00 1.7403942439799125e+00 6.3263802247988865e+00 
308 1 2 2.2565123045663906e+00 2.7680473065522882e+01 1.0000000000000000e+00 4.4247314040530243e+00 3.5819220142036445e+00 6.2112570761358858e+00 
164 1 2 2.2565573813984940e+00 1.8445831806752853e+01 1.0000000000000000e+00 1.1281584473336923e+00 4.4979869318253050e+00 6.6000559025292889e+00 
167 1 2 2.2565372826823271e+00 5.7534759258381030e+00 1.0000000000000000e+00 5.3757198809768516e+00 5.6917940046299371e+00 6.0699809098716875e+00 
352 1 2 2.2565109062873230e+00 2.0950139408715465e+01 1.0000000000000000e+00 4.0641763925024987e+00 9.2290610336743963e+00 6.6782439514520124e+00 
216 1 2 2.2565109062873230e+00 2.0896820298095619e+01 1.0000000000000000e+00 6.6277214635212314e+00 4.7325285405513934e-01 8.4024402639496998e+00 
357 1 2 2.2565109062873230e+00 2.1651461428045188e+01 1.0000000000000000e+00 4.9294823657133102e-01 1.4515797822381749e+00 7.4559550207036480e+00 
306 1 2 2.2565109062873230e+00 -1.2438688273816918e+01 1.0000000000000000e+00 4.5518795861763381e+00 2.1632549519380850e+00 8.4583360376074630e+00 
338 1 2 2.2565587796775621e+00 -2.7217379790274367e+02 1.0000000000000000e+00 2.7232573356002239e+00 3.5940693676434932e+00 7.2075781969713546e+00 
191 1 2 2.2565109062873230e+00 -5.4840051071231457e+00 1.0000000000000000e+00 4.4753815284486471e+00 4.2194897616571065e+00 8.5466524128097952e+00 
381 1 2 2.2565109062873230e+00 -2.3860875582152353e+01 1.0000000000000000e+00 7.6519489052543299e-01 8.2625566630688070e+00 8.5190899526131503e+00 
161 1 2 2.2565109062873230e+00 -2.9535341312503213e+01 1.0000000000000000e+00 5.8991874612425104e+00 9.1821010233158837e+00 7.8550847505395796e+00 
330 1 2 2.2565109062873230e+00 -5.7316885316775526e+01 1.0000000000000000e+00 1.9798808239458083e+00 1.8425737917809235e+00 8.8144926816997700e+00 
277 1 2 2.2565109062873230e+00 -2.1989058750312097e+01 1.0000000000000000e+00 6.1970844494908066e+00 7.1547217150578373e+00 9.4794443772149783e+00 
180 1 2 2.2565109062873230e+00 2.0308241014780386e+01 1.0000000000000000e+00 1.7558884504544121e+00 2.3798027028247559e-01 1.1070132052455719e+01 
233 1 2 2.2565109062873230e+00 1.0049143280599431e+01 1.0000000000000000e+00 3.6404957272001459e+00 8.4176599736428193e-01 1.1371813186331918e+01 
96 1 2 2.2565109062873230e+00 2.5388415989405260e+01 1.0000000000000000e+00 5.5012216905277445e+00 1.8316851454112417e+00 1.1342187517998724e+01 
266 1 2 2.2565109062873230e+00 3.8653567157107620e+00 1.0000000000000000e+00 5.8591352644027495e-01 3.2102223599814721e+00 1.0935127564630395e+01 
106 1 2 2.2565109062873230e+00 2.3931216858246245e+01 1.0000000000000000e+00 2.2006839863472067e+00 4.3706689679159743e+00 1.0658763411621891e+01 
124 1 2 2.2565109062873230e+00 2.4336773135299239e+01 1.0000000000000000e+00 6.2379638483790520e+00 9.0308238653123354e+00 1.1111113802688687e+01 
136 1 2 2.2565109062873230e+00 -6.9292453452251237e+01 1.0000000000000000e+00 5.0592252944545946e+00 3.9513673905010531e+00 1.1510826379101459e+01 
225 1 2 2.2565109062873230e+00 1.2868653717702230e+01 1.0000000000000000e+00 5.7436985121282298e+00 6.7329188127149635e+00 1.1777964128148060e+01 
171 1 2 2.2565109062873230e+00 2.2439722904645919e+01 1.0000000000000000e+00 7.0710228547167264e-01 9.4531420457975166e+00 1.2170685385289360e+01 
10 1 2 2.2565109062873230e+00 2.2488763741352813e+01 1.0000000000000000e+00 2.8568449669420555e+00 1.9889283885520606e+00 1.3615358045164246e+01 
80 1 2 2.2565109062873230e+00 1.6745053090415063e+01 1.0000000000000000e+00 1.5442142478859182e+00 4.0058067518029610e+00 1.3433694727516770e+01 
87 1 2 2.2565109062873230e+00 1.9063127151395143e+01 1.0000000000000000e+00 5.4348409281084882e+00 3.0366701570928964e+00 1.4162784452480008e+01 
309 1 2 2.2565109062873230e+00 2.0979918860669898e+01 1.0000000000000000e+00 5.8086927354200846e+00 5.2510164829189323e+00 1.3125145007893110e+01 
163 1 2 2.2565109062873230e+00 2.3091439118828525e+01 1.0000000000000000e+00 3.7542719361918847e-01 5.7306506865539584e+00 1.3191280689555054e+01 
46 1 2 2.2565109062873230e+00 1.4958953892660475e+01 1.0000000000000000e+00 2.6655424232131102e+00 5.7385767729536106e+00 1.3053338073361839e+01 
323 1 2 2.2565109062873230e+00 1.5499942654136902e+01 1.0000000000000000e+00 4.4966473949851293e+00 9.0969613693198372e+00 1.3115367205432470e+01 
202 1 2 2.2565109062873230e+00 2.3891062363646718e+01 1.0000000000000000e+00 4.0503301210090648e+00 1.0662390361490470e+00 1.5187036561871903e+01 
138 1 2 2.2565109062873230e+00 2.6497905714658671e+01 1.0000000000000000e+00 4.1326458768711944e+00 5.9332459949633938e+00 1.5452097774316670e+01 
129 1 2 2.2565109062873230e+00 -2.5637787322996580e+01 1.0000000000000000e+00 9.2998230849704488e-01 1.9698371917297051e+00 1.6465196448400757e+01 
187 1 2 2.2565109062873230e+00 6.6161788218493562e+00 1.0000000000000000e+00 3.8905832026012557e+00 3.9082359433820972e+00 1.6368749339786270e+01 
16 1 2 2.2565109062873230e+00 3.3149205706882881e+01 1.0000000000000000e+00 2.0372542504805633e+00 7.8602599854379811e+00 1.5795232624662439e+01 
13 1 2 2.2565109062873230e+00 2.0912418464753912e+01 1.0000000000000000e+00 6.3876855636803320e+00 1.3900872408714404e+00 1.7547604214581291e+01 
246 1 2 2.2565109062873230e+00 2.4272612054166721e+01 1.0000000000000000e+00 3.7656597379141332e+00 5.0386768731787095e+00 1.8238191378471747e+01 
77 1 2 2.2565109062873230e+00 1.9355538854902221e+01 1.0000000000000000e+00 6.4166759481727293e+00 5.6147882499104771e+00 1.7875339080690903e+01 
148 1 2 2.2565571017752508e+00 3.1270787465931921e+01 1.0000000000000000e+00 2.1325773271475534e+00 6.1694327720515059e+00 1.7292787846829334e+01 
139 1 2 2.2565109062873230e+00 2.9738486761382813e+01 1.0000000000000000e+00 4.0958090349207671e-01 7.1881091922436982e+00 1.7267369876703921e+01 
316 1 2 2.2565109062873230e+00 2.0013115161194342e+01 1.0000000000000000e+00 4.8922961858093013e+00 3.0775336897742761e-01 1.9620245190063539e+01 
334 1 2 2.2565109062873230e+00 1.9758037712170591e+01 1.0000000000000000e+00 3.0098742376202181e+00 2.9469077621479292e+00 1.8598800767592437e+01 
227 1 2 2.2565109062873230e+00 1.9743655694271901e+01 1.0000000000000000e+00 1.1012941096339171e+00 5.8129862877609213e+00 1.9559436098867572e+01 
52 1 2 2.2565571017752508e+00 1.0758200480809318e+01 1.0000000000000000e+00 3.3150110606566865e+00 6.9958954176196801e+00 1.8577170944255524e+01 
6 1 2 2.2565109062873230e+00 7.8045581808866493e-01 1.0000000000000000e+00 4.8334841383052876e+00 5.8373400837995373e+00 1.9781565758361122e+01 
146 1 2 2.2565109062873230e+00 -5.2351480700783725e+01 1.0000000000000000e+00 5.3670775554557535e+00 7.6522360148947337e+00 1.8598611394022587e+01 
296 1 2 2.2565109062873230e+00 2.4796501532253210e+01 1.0000000000000000e+00 2.9471823863445907e+00 9.5118380625467562e+00 1.9463244082464836e+01 
17 1 2 2.2565109062873230e+00 2.2058394947038444e+01 1.0000000000000000e+00 2.9183560685987961e+00 1.0759270965898668e+01 1.3539686411652412e+00 
350 1 2 2.2565109062873230e+00 3.0537726663227637e+01 1.0000000000000000e+00 7.6838125963658233e-01 1.1776468731612239e+01 1.3350543708847622e+00 
73 1 2 2.2565109062873230e+00 2.7315697304531341e+01 1.0000000000000000e+00 8.4702091084643127e-01 1.3874279795599760e+01 6.6538088214142110e-01 
303 1 2 2.2565109062873230e+00 2.8525342900959515e+01 1.0000000000000000e+00 3.5938692954254119e+00 1.6316460270298265e+01 6.8963250326344094e-01 
231 1 2 2.2565109093058240e+00 -1.4383905507841405e+01 1.0000000000000000e+00 3.1212046797274762e+00 1.8640492206021563e+01 9.7060682160321821e-01 
42 1 2 2.2565109062873230e+00 -1.9307363676910798e+00 1.0000000000000000e+00 6.2690795593156246e+00 1.1271364031121498e+01 1.5687204084958319e+00 
135 1 2 2.2565109062873230e+00 2.7184431268846225e+01 1.0000000000000000e+00 1.7104149952769987e-01 1.7957718148099225e+01 2.1649681937461840e+00 
115 1 2 2.2565109062873230e+00 3.0672156263657598e+01 1.0000000000000000e+00 4.9244222040675423e+00 1.9182614378313893e+01 2.2244900780666979e+00 
271 1 2 2.2565109062873230e+00 2.6582873240817243e+01 1.0000000000000000e+00 1.8442055938598072e+00 1.1430032396467233e+01 3.8166207836816959e+00 
65 1 2 2.2565109062873230e+00 3.1313572374947675e+01 1.0000000000000000e+00 5.4070720275307060e+00 1.1691103883599434e+01 4.0416573694264635e+00 
331 1 2 2.2565109062873230e+00 2.1981660838940776e+01 1.0000000000000000e+00 1.6356084319779352e+00 1.3636370802598289e+01 2.8641747671047946e+00 
205 1 2 2.2565109062873230e+00 1.6632490857867502e+01 1.0000000000000000e+00 3.8523962533603826e+00 1.7827519440271690e+01 3.2483238108885621e+00 
355 1 2 2.2565109062873230e+00 1.6015137298302246e+01 1.0000000000000000e+00 5.4972322378928976e-02 1.4117356577782667e+01 4.9780226446639899e+00 
57 1 2 2.2565109062873230e+00 2.6718662582438789e+01 1.0000000000000000e+00 3.4111143332031486e+00 1.3000206248026336e+01 4.8953145394493855e+00 
383 1 2 2.2565109062873230e+00 3.0310254786356772e+01 1.0000000000000000e+00 5.0130396187342852e+00 1.4375175179043415e+01 4.5959912066095914e+00 
11 1 2 2.2565109062873230e+00 -2.8332874837265263e+02 1.0000000000000000e+00 3.9922962258269751e-01 1.7228754916878156e+01 5.4602209661061014e+00 
110 1 2 2.2565109062873230e+00 1.7178794932050387e+01 1.0000000000000000e+00 2.9786007295615635e-01 1.9222914806980697e+01 4.2971787183674968e+00 
14 1 2 2.2565109062873230e+00 1.9666095387860800e+01 1.0000000000000000e+00 2.6647895330321316e+00 1.8922966332884204e+01 4.4923763721694270e+00 
37 1 2 2.2565109062873230e+00 3.1190695790400589e+01 1.0000000000000000e+00 3.9337749217168767e+00 1.1369378751023708e+01 6.5764609706544013e+00 
217 1 2 2.2565109062873230e+00 -2.4500304332396190e+01 1.0000000000000000e+00 4.6889438156313785e+00 1.4831528046875288e+01 6.8090278153321409e+00 
83 1 2 2.2565109062873230e+00 -3.2478890631969591e+02 1.0000000000000000e+00 3.8559699196331678e+00 1.7126257969025851e+01 5.7631080530474295e+00 
258 1 2 2.2565109062873230e+00 2.5797759679099855e+01 1.0000000000000000e+00 2.9396146023687195e+00 1.9473235749115087e+01 6.5264359573728363e+00 
239 1 2 2.2565109065862639e+00 2.3530041555053572e+01 1.0000000000000000e+00 5.6406342638863656e+00 1.2549810957817256e+01 7.9312278681661841e+00 
74 1 2 2.2565109064063167e+00 2.5814751583051518e+01 1.0000000000000000e+00 3.7474383661382822e+00 1.3185521539613950e+01 7.9547021956720059e+00 
133 1 2 2.2565109062873230e+00 1.9539074298051972e+01 1.0000000000000000e+00 5.6031523044537925e+00 1.7231601694528521e+01 8.1835103010667698e+00 
369 1 2 2.2565109062873230e+00 1.5680784081026342e+01 1.0000000000000000e+00 1.4149476636979386e+00 1.8684489354004267e+01 7.8072078417729962e+00 
318 1 2 2.2565492473252400e+00 2.9352475689058057e+01 1.0000000000000000e+00 4.2518103274316799e+00 1.8846094429784831e+01 8.4101831295439080e+00 
276 1 2 2.2565109062873230e+00 -2.0566631966683298e+02 1.0000000000000000e+00 2.7462690858381387e+00 1.2083468190897156e+01 9.4614388792150148e+00 
20 1 2 2.2565109062873230e+00 2.1222128677660507e+01 1.0000000000000000e+00 1.4779943005182394e+00 1.4845241873488453e+01 8.7863594385805790e+00 
86 1 2 2.2565109062873230e+00 2.9605870882371853e+01 1.0000000000000000e+00 6.4840255482213403e+00 1.4728598985862977e+01 9.1437643445971997e+00 
328 1 2 2.2565109062873230e+00 2.4566311439149217e+01 1.0000000000000000e+00 7.4248000604332565e-01 1.6702057235142348e+01 9.0114658038107613e+00 
183 1 2 2.2565109062873230e+00 2.7426880325998553e+01 1.0000000000000000e+00 1.5857033610508697e+00 1.0808095652317776e+01 1.0930613918940313e+01 
149 1 2 2.2565109062873230e+00 2.4032310942515920e+01 1.0000000000000000e+00 4.7483550338478882e+00 1.7188934042878181e+01 1.0621298269529317e+01 
265 1 2 2.2565492473252400e+00 -4.0019754627931945e+01 1.0000000000000000e+00 4.7137119165850425e+00 1.9474987078612791e+01 1.0180568513463699e+01 
76 1 2 2.2565109062873230e+00 9.4646105507780867e+00 1.0000000000000000e+00 3.7191895467974985e+00 1.1185761933091628e+01 1.2816732097185325e+01 
111 1 2 2.2565110214405917e+00 2.8440371460116893e+01 1.0000000000000000e+00 1.9423342328051731e+00 1.5033475677257032e+01 1.2182293166753484e+01 
361 1 2 2.2565109062873230e+00 2.8375486166584615e+01 1.0000000000000000e+00 3.8781244234298295e+00 1.6809583490586142e+01 1.2654613527611311e+01 
8 1 2 2.2565109062873230e+00 3.4475920102804793e+01 1.0000000000000000e+00 1.7487244026143227e+00 1.7687026224505058e+01 1.1428718595581206e+01 
329 1 2 2.2565109062873230e+00 -3.7172587757245310e+01 1.0000000000000000e+00 5.3475609923069909e+00 1.9233686667280477e+01 1.2095792834618727e+01 
270 1 2 2.2565109062873230e+00 2.5628830760137753e+01 1.0000000000000000e+00 1.6159482157324649e+00 1.0609532575369379e+01 1.3913073640241391e+01 
198 1 2 2.2565109062873230e+00 3.1487888512912441e+01 1.0000000000000000e+00 2.5165981649404072e+00 1.2931157612746940e+01 1.2964453452902516e+01 
40 1 2 2.2565109062873230e+00 1.9844558911048500e+00 1.0000000000000000e+00 5.1852905199752186e+00 1.5303040820958643e+01 1.3244171076607218e+01 
18 1 2 2.2565110214405917e+00 4.9503722264370191e+00 1.0000000000000000e+00 9.2639716364824587e-01 1.6571393041625139e+01 1.2918549503653377e+01 
322 1 2 2.2565109062873230e+00 1.3023881769522415e+01 1.0000000000000000e+00 3.1014051582019424e+00 1.8740624758850089e+01 1.4284395040176147e+01 
55 1 2 2.2565109062873230e+00 6.6488449038098665e+00 1.0000000000000000e+00 3.7087343069713312e+00 1.2883245675192226e+01 1.5082471368347603e+01 
346 1 2 2.2565109062873230e+00 1.9715166304523287e+01 1.0000000000000000e+00 2.1058470766062896e+00 1.4391304586178732e+01 1.4940612029998782e+01 
22 1 2 2.2565112376310168e+00 2.0413460502217426e+01 1.0000000000000000e+00 5.4759864804995386e+00 1.7094997350203393e+01 1.4553210997885987e+01 
137 1 2 2.2565112376310168e+00 2.7053842363538102e+01 1.0000000000000000e+00 6.5588099891506531e+00 1.8578545201708213e+01 1.5294099166002930e+01 
103 1 2 2.2565109062873230e+00 2.4323797900487499e+01 1.0000000000000000e+00 6.1901680175409157e-01 1.0743929504516341e+01 1.6156663073046850e+01 
69 1 2 2.2565109062873230e+00 2.7046032269437170e+01 1.0000000000000000e+00 3.2893674753829365e+00 1.1260957984865211e+01 1.6811979872421905e+01 
278 1 2 2.2565109062873230e+00 2.2306131412450441e+01 1.0000000000000000e+00 6.0557633230220089e+00 1.0886011746376610e+01 1.6014193581892911e+01 
114 1 2 2.2565109062873230e+00 3.2460330374160840e+01 1.0000000000000000e+00 2.1979092924079850e+00 1.4040555918735246e+01 1.6983596231329102e+01 
81 1 2 2.2565109062873230e+00 2.4855482494363017e+01 1.0000000000000000e+00 5.4595458498538472e+00 1.4920264177811264e+01 1.6650309836746029e+01 
88 1 2 2.2565109062873230e+00 1.3139602897978374e+01 1.0000000000000000e+00 1.8158763359876335e+00 1.8795505543316629e+01 1.5839533330045583e+01 
188 1 2 2.2565109062873230e+00 8.2709870398579426e+00 1.0000000000000000e+00 4.7683065690828048e+00 1.9264209090150253e+01 1.5906545584053379e+01 
145 1 2 2.2565109062873230e+00 -4.9388943014765488e+01 1.0000000000000000e+00 4.5577841006155007e+00 1.3077433060575606e+01 1.7995383478357763e+01 
32 1 2 2.2565109062873230e+00 -9.9923533677725587e+00 1.0000000000000000e+00 2.6258825673118333e+00 1.6755873438748864e+01 1.7436007030895517e+01 
143 1 2 2.2565109062873230e+00 -6.6228106669219509e+00 1.0000000000000000e+00 5.6135328733971246e+00 1.7735461574385276e+01 1.8235596492672013e+01 
51 1 2 2.2565109062873230e+00 1.6352698528386696e+01 1.0000000000000000e+00 5.6845666449977701e+00 1.1194306774104419e+01 1.8731005295553725e+01 
206 1 2 2.2565109062873230e+00 2.4498436725960737e+01 1.0000000000000000e+00 4.9157922063413366e+00 1.4850013123036911e+01 1.9972349053190285e+01 
213 1 2 2.2565109062873230e+00 -2.4485975553335830e+00 1.0000000000000000e+00 1.1933875718762259e+01 1.0371576994702758e+00 1.0900513598908717e+00 
379 1 2 2.2565109062873230e+00 2.5112412856878603e+01 1.0000000000000000e+00 6.7586554533955336e+00 1.6840993866842262e+00 1.1058885787770139e+00 
344 1 2 2.2565109062873230e+00 -3.3412298729366739e+01 1.0000000000000000e+00 8.2772237059512168e+00 3.3163969030322935e+00 3.0509727304762818e-01 
340 1 2 2.2565962712831498e+00 3.0216869220311580e+01 1.0000000000000000e+00 7.2584478417353653e+00 6.0773380690214749e+00 4.2024812671049194e-01 
293 1 2 2.2565109062873230e+00 2.3452016325946211e+01 1.0000000000000000e+00 1.0617859800051731e+01 6.9937389545804258e+00 3.4816481874936689e-01 
376 1 2 2.2565109062873230e+00 2.2817957399293753e+01 1.0000000000000000e+00 7.2853342536376653e+00 8.8308412680292054e+00 2.6171511041997114e-01 
92 1 2 2.2565109062873230e+00 1.7068770650722314e+01 1.0000000000000000e+00 1.0233152420563693e+01 9.1774347848031343e+00 7.0014286980086893e-01 
354 1 2 2.2565109062873230e+00 3.0975313019810301e+01 1.0000000000000000e+00 1.2652422931567495e+01 8.6026174893946550e+00 1.1416645668088909e+00 
359 1 2 2.2565109062873230e+00 3.5227061648790695e+01 1.0000000000000000e+00 7.7944991904632905e+00 1.0904647769799887e+00 2.7750005353019183e+00 
327 1 2 2.2565109062873230e+00 -3.9449041029644064e+01 1.0000000000000000e+00 9.5951489970910817e+00 2.5430828974685543e-01 2.0992407681881220e+00 
48 1 2 2.2565109062873230e+00 2.2572017564376459e+01 1.0000000000000000e+00 9.4719366139652355e+00 2.7525374946977386e+00 2.7555445564159937e+00 
210 1 2 2.2565109062873230e+00 2.0773041984297116e+01 1.0000000000000000e+00 1.2262425943689788e+01 3.4239181756463100e+00 1.9425872327578588e+00 
298 1 2 2.2565962712831498e+00 -1.6743853933314210e+00 1.0000000000000000e+00 6.8372819510348020e+00 4.5392304732792068e+00 1.4893980135489537e+00 
319 1 2 2.2565109062873230e+00 -3.1853195735177685e+01 1.0000000000000000e+00 7.6771680229508172e+00 7.4234290187211620e+00 2.7576474610714570e+00 
127 1 2 2.2565109062873230e+00 2.6779071636845785e+01 1.0000000000000000e+00 8.2985986006086723e+00 4.1842799767049890e+00 3.9499615392578851e+00 
175 1 2 2.2565109129641288e+00 4.3472683019395673e+00 1.0000000000000000e+00 1.2672643916502086e+01 3.6390853650009598e+00 4.1998258866995162e+00 
250 1 2 2.2565109062873230e+00 4.1143449279271920e+01 1.0000000000000000e+00 6.6690492216833741e+00 8.6121000359337518e+00 4.1993432087867744e+00 
30 1 2 2.2565109062873230e+00 2.2963835294991732e+01 1.0000000000000000e+00 1.0338391821211600e+01 9.1679080449531565e+00 3.3312415425055200e+00 
275 1 2 2.2565109062873230e+00 -2.9097294005956307e+01 1.0000000000000000e+00 1.2591723292704588e+01 8.8294607942839143e+00 3.3978275862564753e+00 
245 1 2 2.2565109129641288e+00 2.6633768401142685e+01 1.0000000000000000e+00 1.1656835592776652e+01 2.7978430486354338e+00 5.6934336312433027e+00 
169 1 2 2.2565109062873230e+00 -1.9143091205649306e+01 1.0000000000000000e+00 8.3702088760690057e+00 9.5295726498885891e+00 5.0494198134996013e+00 
99 1 2 2.2565109062873230e+00 3.0328610755317897e+01 1.0000000000000000e+00 7.9459075998799147e+00 1.9753955086864922e-02 6.9570161580414220e+00 
297 1 2 2.2565109062873230e+00 1.5399794496690738e+01 1.0000000000000000e+00 7.9637525207205453e+00 2.1218465351628382e+00 6.5940591292052906e+00 
256 1 2 2.2565779391046341e+00 2.5452813031618561e+01 1.0000000000000000e+00 6.8374942508524734e+00 7.8764019306281545e+00 6.1150040596780357e+00 
253 1 2 2.2565779391046341e+00 2.7377062205910729e+01 1.0000000000000000e+00 8.5890437869946261e+00 8.2192208202303956e+00 6.8354889150955547e+00 
283 1 2 2.2565109062873230e+00 1.8436256260030035e+01 1.0000000000000000e+00 1.0077734266326775e+01 4.1395294083115680e-01 7.4009686475140652e+00 
44 1 2 2.2565109062873230e+00 -3.3463143572006061e+01 1.0000000000000000e+00 1.2329462105751190e+01 2.5283145163143139e+00 7.6002202949136475e+00 
1 1 2 2.2565109062873230e+00 2.4347584615259585e+01 1.0000000000000000e+00 7.0259650067488302e+00 4.7845865035498001e+00 7.4545585881175827e+00 
56 1 2 2.2565109062873230e+00 3.6899896000554691e+01 1.0000000000000000e+00 1.2756773726954620e+01 5.2446517540862176e+00 8.2452285793167057e+00 
47 1 2 2.2565109062873230e+00 2.5251228240993932e+01 1.0000000000000000e+00 1.1103949637701627e+01 7.7644289937744153e+00 8.3315023289559527e+00 
156 1 2 2.2565109062873230e+00 2.8468870993216271e+01 1.0000000000000000e+00 1.1726546847913978e+01 9.2395044481177313e-01 9.2419522492843331e+00 
321 1 2 2.2565109062873230e+00 2.8334356647031221e+01 1.0000000000000000e+00 1.1010354606970999e+01 3.5591239646478101e+00 9.3234183531999300e+00 
229 1 2 2.2565109062873230e+00 2.4558143749150044e+01 1.0000000000000000e+00 8.8116543654374588e+00 6.0147341537702976e+00 8.5988107259574473e+00 
236 1 2 2.2565109062873230e+00 1.7938580139056477e+01 1.0000000000000000e+00 1.2943136231498471e+01 8.3731591445406934e+00 9.6380462520751742e+00 
184 1 2 2.2565109062873230e+00 2.2488868207806945e+01 1.0000000000000000e+00 9.7805337216638026e+00 8.5192807387125935e-01 1.0493475872207339e+01 
314 1 2 2.2565109062873230e+00 1.9314545362650421e+01 1.0000000000000000e+00 7.7358805498988126e+00 3.9061399734243292e+00 1.0631747906022021e+01 
117 1 2 2.2565109062873230e+00 2.1859595696503042e+01 1.0000000000000000e+00 1.0073727752305366e+01 5.2302507337808786e+00 1.0995326774761665e+01 
219 1 2 2.2565109062873230e+00 2.5949231520533139e+01 1.0000000000000000e+00 1.3225950896441983e+01 6.0643069329414425e+00 1.0367768631599587e+01 
358 1 2 2.2565109062873230e+00 2.6687512264768486e+01 1.0000000000000000e+00 1.0860095459822791e+01 7.1652728368513703e+00 1.0355730674340405e+01 
172 1 2 2.2565109062873230e+00 2.4267129123814641e+01 1.0000000000000000e+00 1.0689294329780783e+01 2.1691806590068730e-01 1.2397867509507435e+01 
53 1 2 2.2565109062873230e+00 1.4430731878899309e+01 1.0000000000000000e+00 9.6771070598483124e+00 3.4381394313111304e+00 1.1911853058505740e+01 
251 1 2 2.2565448038069662e+00 2.8094274623336869e+01 1.0000000000000000e+00 8.1270529770679971e+00 6.1115997003271474e+00 1.2433049226653152e+01 
279 1 2 2.2565109062873230e+00 3.2861169499492618e+01 1.0000000000000000e+00 1.2193204290688938e+01 8.2840037671293061e+00 1.2466320961606611e+01 
50 1 2 2.2565109062873230e+00 2.7572468724367965e+01 1.0000000000000000e+00 9.0551637886375360e+00 9.2676823955334360e+00 1.1728765454274052e+01 
337 1 2 2.2565109062873230e+00 -2.5378899757586673e+01 1.0000000000000000e+00 7.7693689734026723e+00 3.1282816456135731e+00 1.3236740334195522e+01 
263 1 2 2.2565448038069662e+00 2.1805903039089642e+01 1.0000000000000000e+00 7.7919650170416048e+00 7.9254142369239604e+00 1.3023682292444605e+01 
288 1 2 2.2565109062873230e+00 2.1520352602365392e+01 1.0000000000000000e+00 9.7363986435812091e+00 7.4439571317339484e+00 1.3375209085709196e+01 
9 1 2 2.2565109062873230e+00 2.6670953366169023e+01 1.0000000000000000e+00 7.5811976591693542e+00 6.6317916971633373e-01 1.4975002482363291e+01 
130 1 2 2.2565324442143684e+00 -1.2650163113639112e+01 1.0000000000000000e+00 1.1304227567882657e+01 3.1453136457059944e-01 1.5185997163645077e+01 
286 1 2 2.2565109062873230e+00 2.1262723074523720e+01 1.0000000000000000e+00 1.2727075437151230e+01 2.0550378433293752e+00 1.4405329302420785e+01 
356 1 2 2.2565109062873230e+00 3.2576997644696974e+01 1.0000000000000000e+00 1.1892584057981965e+01 4.0658489003472251e+00 1.4631312884108690e+01 
105 1 2 2.2565109062873230e+00 1.7694241805176638e+01 1.0000000000000000e+00 8.0396480674126316e+00 8.2678362926284397e+00 1.5551969271130053e+01 
300 1 2 2.2565109062873230e+00 2.0297711542874552e+01 1.0000000000000000e+00 1.3010129042119940e+01 7.6209218808390400e+00 1.4566338992070650e+01 
12 1 2 2.2565109145342404e+00 -2.8530250050936979e+02 1.0000000000000000e+00 9.2714716896191973e+00 9.9980893135754485e+00 1.5569276370793268e+01 
173 1 2 2.2565109062873230e+00 1.9551237470849355e+01 1.0000000000000000e+00 8.4460158796653566e+00 2.6469257695391257e+00 1.6350277480239818e+01 
68 1 2 2.2565109062873230e+00 3.2295457832679389e+01 1.0000000000000000e+00 1.1173858564160806e+01 2.3229864356742662e+00 1.6793628727405970e+01 
141 1 2 2.2565109062873230e+00 -1.0430761594308566e+02 1.0000000000000000e+00 7.7916275888579545e+00 4.6224794723848399e+00 1.5936262208117416e+01 
152 1 2 2.2565109062873230e+00 2.7775620472919208e+01 1.0000000000000000e+00 1.0287492429527326e+01 4.6004439313605383e+00 1.6698336038644559e+01 
284 1 2 2.2565109062873230e+00 2.6377740502673262e+01 1.0000000000000000e+00 1.2601755569144073e+01 1.3370959162264557e+00 1.8528667070076448e+01 
125 1 2 2.2565109062873230e+00 -4.0165519666107184e+02 1.0000000000000000e+00 9.1098929705166363e+00 7.6319934992289387e+00 1.7196982572210857e+01 
119 1 2 2.2565109062873230e+00 2.2981917982426793e+01 1.0000000000000000e+00 1.2767857874080185e+01 7.7412099987802137e+00 1.8450489149120834e+01 
190 1 2 2.2565109062873230e+00 -1.4258086197776709e+01 1.0000000000000000e+00 9.4508165584151342e+00 9.9602490386268450e+00 1.7707407415172874e+01 
291 1 2 2.2565110972175462e+00 1.9480830817132002e+01 1.0000000000000000e+00 1.0193766855051548e+01 2.4745669657276324e+00 1.9556501825654198e+01 
181 1 2 2.2565110972175462e+00 3.0897887920982697e+01 1.0000000000000000e+00 1.2110698941511750e+01 2.9812872064982354e+00 1.9558732682495602e+01 
273 1 2 2.2565109062873230e+00 -4.1365860551821100e+01 1.0000000000000000e+00 1.3248616240137178e+01 1.0329537079017562e+01 2.0517522817683964e-01 
118 1 2 2.2565109062873230e+00 2.0990372793053069e+01 1.0000000000000000e+00 7.9112449016360653e+00 1.2950435058265933e+01 9.2790044888636647e-01 
36 1 2 2.2565189082012198e+00 2.4387287232714687e+01 1.0000000000000000e+00 1.0470455130086995e+01 1.3459364881991139e+01 2.7650177808165183e-01 
102 1 2 2.2565109062873230e+00 2.5106435326743437e+01 1.0000000000000000e+00 1.2872660042839096e+01 1.3967742015365806e+01 1.3915091411055733e+00 
108 1 2 2.2565109062873230e+00 -4.7235298660879067e+01 1.0000000000000000e+00 6.9810575448545009e+00 1.8777037161231046e+01 9.3345609432888077e-01 
301 1 2 2.2565109062873230e+00 2.1548784105940406e+01 1.0000000000000000e+00 1.1413892783045519e+01 1.0415092158620947e+01 2.1433877230862834e+00 
211 1 2 2.2565109062873230e+00 2.8569623623516783e+01 1.0000000000000000e+00 9.3175387613198737e+00 1.2787264768598130e+01 2.6779336426253071e+00 
19 1 2 2.2565109062873230e+00 2.7794095769286272e+01 1.0000000000000000e+00 6.8944365698775743e+00 1.7084917326908649e+01 2.5216755218992426e+00 
212 1 2 2.2565109062873230e+00 -1.9665958499128774e+02 1.0000000000000000e+00 1.0082261693505874e+01 1.6419929906356234e+01 2.5217248421523597e+00 
158 1 2 2.2565109062873230e+00 -1.6863375139418906e+02 1.0000000000000000e+00 1.0903924447659962e+01 1.8114792180312477e+01 1.8069210490693839e+00 
166 1 2 2.2565142478427105e+00 -1.7777262844102250e+02 1.0000000000000000e+00 1.3288833874676023e+01 1.8845851815384982e+01 1.6677266481301780e+00 
282 1 2 2.2565109062873230e+00 2.8138011231757645e+01 1.0000000000000000e+00 7.2503016619797584e+00 1.4235822188246907e+01 3.1182494321865124e+00 
24 1 2 2.2565109062873230e+00 2.3981966657035109e+01 1.0000000000000000e+00 1.0910185044775995e+01 1.5683954661124389e+01 4.2692751875617452e+00 
339 1 2 2.2565109062873230e+00 -2.0835683866164089e+02 1.0000000000000000e+00 7.9152814167582539e+00 1.8934914700265811e+01 3.1997519323401962e+00 
285 1 2 2.2565261123067071e+00 -3.1521913483725722e+01 1.0000000000000000e+00 1.2484761656472333e+01 1.9653841115508691e+01 4.1948804182223229e+00 
249 1 2 2.2565109062873230e+00 -1.9145817376347729e+00 1.0000000000000000e+00 7.5880586491070625e+00 1.1411744116149260e+01 5.1124519207239194e+00 