LAMMPS data file via write_data, version 30 Jul 2016, timestep = 50000000

384 atoms
2 atom types

0.0000000000000000e+00 2.0000000000000000e+01 xlo xhi
0.0000000000000000e+00 2.0000000000000000e+01 ylo yhi
0.0000000000000000e+00 2.0000000000000000e+01 zlo zhi

Masses

1 3.896
2 4.31

Atoms # meso-molecular

176 1 2 9.2845460678743308e+00 1.4004435293504517e+06 1.0000000000000000e+00 4.5112723830027237e+00 8.2051555553905542e-01 1.9812432249551253e-02 
192 1 2 9.2845460678743308e+00 1.4289319095330234e+06 1.0000000000000000e+00 4.5182274865791126e+00 4.4381634324640702e+00 1.2478993203251265e-01 
108 1 2 9.2845460678743308e+00 1.4019585993018402e+06 1.0000000000000000e+00 5.5093759292618554e+00 5.9261916019578367e+00 1.2163168634275632e+00 
131 1 2 9.2845460678743308e+00 1.4239816099334131e+06 1.0000000000000000e+00 2.4017837632814509e+00 3.8800705847314618e+00 1.8412076284253802e+00 
13 1 2 9.2845460678743308e+00 1.3871446412768182e+06 1.0000000000000000e+00 4.7780003044683586e+00 9.7048786615869602e+00 1.9938050678791113e+00 
266 1 2 9.2845460678743308e+00 1.4063673917547436e+06 1.0000000000000000e+00 1.9297522820458113e+00 7.8168227320067860e+00 2.3313553515727055e+00 
258 1 2 9.2845460678743308e+00 1.4006033725603279e+06 1.0000000000000000e+00 3.9361140893776714e+00 3.2793080172811764e+00 3.2916576239091477e+00 
327 1 2 9.2845460678743308e+00 1.4090712305836640e+06 1.0000000000000000e+00 7.5848820650031268e-01 5.0745948975747091e+00 3.0711448158967252e+00 
81 1 2 9.2845460678743308e+00 1.4079288966518212e+06 1.0000000000000000e+00 2.4568641973866976e+00 5.8652642285559171e+00 3.8531175979742169e+00 
84 1 2 9.2845460678743308e+00 1.4191152681784690e+06 1.0000000000000000e+00 1.3285969601081229e+00 9.7480006780434945e+00 3.4989194512144124e+00 
105 1 2 9.2845460678743308e+00 1.4203509522074754e+06 1.0000000000000000e+00 2.1803941709701475e+00 3.2790857728270546e+00 4.8349903589279632e+00 
288 1 2 9.2845460678743308e+00 1.4198166440028404e+06 1.0000000000000000e+00 1.6243633700493387e+00 5.3619601378235542e+00 5.0101145439460701e+00 
113 1 2 9.2845460678743308e+00 1.4347562090328611e+06 1.0000000000000000e+00 1.6374745938115245e+00 9.1238683171482986e+00 5.2339414626254719e+00 
5 1 2 9.2845460678743308e+00 1.4182503950683610e+06 1.0000000000000000e+00 4.1227244529031122e+00 8.9893858006513678e+00 6.6154380634160850e+00 
314 1 2 9.2845460678743308e+00 1.4262666668028804e+06 1.0000000000000000e+00 1.4179478318922828e-01 9.7898408757313984e+00 6.3817392375857631e+00 
222 1 2 9.2845460678743308e+00 1.4165828462357945e+06 1.0000000000000000e+00 6.5302033226308636e+00 4.0065502610191475e+00 6.8981339629234562e+00 
231 1 2 9.2845460678743308e+00 1.4122314565995154e+06 1.0000000000000000e+00 3.4034867704524059e+00 2.6860296833134543e+00 7.6102054501655969e+00 
103 1 2 9.2845460678743308e+00 1.4022211960934987e+06 1.0000000000000000e+00 4.1716060650516855e+00 8.9144379996183112e+00 7.9346213585969796e+00 
316 1 2 9.2845460678743308e+00 1.4170376196884969e+06 1.0000000000000000e+00 3.1743640239146714e-01 3.4139671378912633e+00 8.1754275762447826e+00 
28 1 2 9.2845460678743308e+00 1.4116128591405614e+06 1.0000000000000000e+00 5.7617115773784100e+00 5.1126400666987326e+00 8.1928820874510553e+00 
354 1 2 9.2845460678743308e+00 1.4085333147224993e+06 1.0000000000000000e+00 3.4212067100280477e+00 5.5169720029393741e+00 8.4398100847455062e+00 
358 1 2 9.2845460678743308e+00 1.3865343535746061e+06 1.0000000000000000e+00 2.8314562885043735e+00 6.3989653740788217e+00 8.0238734161862588e+00 
297 1 2 9.2845460678743308e+00 1.4353851689397176e+06 1.0000000000000000e+00 2.6364767489392569e+00 7.7997022766678965e+00 8.0938375359859673e+00 
304 1 2 9.2845460678743308e+00 1.4166908743658168e+06 1.0000000000000000e+00 3.9010856171957604e+00 6.5788549024350651e+00 9.0956057153590510e+00 
63 1 2 9.2845460678743308e+00 1.4202031933250865e+06 1.0000000000000000e+00 2.8963702199246928e+00 8.8483063518166229e+00 9.8932088558341533e+00 
10 1 2 9.2845460678743308e+00 1.4184084388302872e+06 1.0000000000000000e+00 2.2391786031682850e+00 1.4500263867365102e+00 1.0358335812089827e+01 
330 1 2 9.2845460678743308e+00 1.4256108921117564e+06 1.0000000000000000e+00 4.7524908467038269e+00 1.4644600395451601e+00 1.0641528775292473e+01 
89 1 2 9.2845460678743308e+00 1.3905562200126462e+06 1.0000000000000000e+00 5.4180272091903392e-01 8.3320056807200302e+00 1.0352835522686338e+01 
132 1 2 9.2845460678743308e+00 1.4164897199985301e+06 1.0000000000000000e+00 2.6087633423861338e+00 2.1653867431050355e+00 1.1119821943608942e+01 
190 1 2 9.2845460678743308e+00 1.3969565397031428e+06 1.0000000000000000e+00 4.7013065158383727e+00 3.1852570331940191e+00 1.0802204789633599e+01 
142 1 2 9.2845460678743308e+00 1.4122136204817947e+06 1.0000000000000000e+00 9.5056440404790576e-01 8.4106348257874455e+00 1.1481721028417850e+01 
357 1 2 9.2845460678743308e+00 1.4161108676444865e+06 1.0000000000000000e+00 3.2028496680373162e+00 4.4511486288699711e+00 1.2622988882785450e+01 
72 1 2 9.2845460678743308e+00 1.4174625584552526e+06 1.0000000000000000e+00 4.2592638403785399e+00 6.0739810756941965e+00 1.2579784984650892e+01 
376 1 2 9.2845460678743308e+00 1.3880228353935387e+06 1.0000000000000000e+00 2.9051637980860421e+00 2.6742408122693506e-01 1.2711408891961229e+01 
299 1 2 9.2845460678743308e+00 1.4100329402280035e+06 1.0000000000000000e+00 2.0439350993783822e+00 2.8340151768100412e+00 1.3145278869824139e+01 
100 1 2 9.2845460678743308e+00 1.3821324592447937e+06 1.0000000000000000e+00 8.8444108676750743e-01 4.1717432268470152e+00 1.2966280694464364e+01 
223 1 2 9.2845460678743308e+00 1.4245751538730236e+06 1.0000000000000000e+00 4.4637327351602245e+00 4.3978972307163620e+00 1.2794782234846583e+01 
165 1 2 9.2845460678743308e+00 1.4042757352926498e+06 1.0000000000000000e+00 4.2900175829137126e+00 9.2204254929874041e-01 1.3497967645112128e+01 
335 1 2 9.2845460678743308e+00 1.4264285284265988e+06 1.0000000000000000e+00 7.9859499421056412e-01 2.9329938318216837e+00 1.3797827259274982e+01 
246 1 2 9.2845460678743308e+00 1.4337290986744282e+06 1.0000000000000000e+00 5.8005084986243087e+00 9.6745352901080466e+00 1.3438664100519222e+01 
184 1 2 9.2845460678743308e+00 1.4140107676041150e+06 1.0000000000000000e+00 7.5732888959361968e-03 3.0955118843709690e+00 1.4471601973124368e+01 
272 1 2 9.2845460678743308e+00 1.4181285454731579e+06 1.0000000000000000e+00 4.1391703466198564e+00 6.3024952669093945e+00 1.4589111593342844e+01 
40 1 2 9.2845460678743308e+00 1.4236295186244803e+06 1.0000000000000000e+00 6.1910160786680413e-01 2.2933586068379279e+00 1.5301411376384001e+01 
88 1 2 9.2845460678743308e+00 1.4265891077315188e+06 1.0000000000000000e+00 4.8079216449095492e+00 4.9114979239705399e+00 1.4984035545909023e+01 
302 1 2 9.2845460678743308e+00 1.4251060493046287e+06 1.0000000000000000e+00 6.2583258688836159e+00 8.0910985805582616e+00 1.5267370936498169e+01 
351 1 2 9.2845460678743308e+00 1.3955438153939592e+06 1.0000000000000000e+00 5.2769988013829945e+00 1.4359777825134707e+00 1.6463759201081228e+01 
206 1 2 9.2845460678743308e+00 1.4291446478543966e+06 1.0000000000000000e+00 2.4172224913531126e-01 4.5263033931650796e+00 1.6133631325882288e+01 
212 1 2 9.2845460678743308e+00 1.4132999984210897e+06 1.0000000000000000e+00 2.7107169590823599e+00 6.1525983545655194e+00 1.6372283288630985e+01 
280 1 2 9.2845460678743308e+00 1.4315481782726073e+06 1.0000000000000000e+00 8.4476009731977908e-01 1.9318789651030193e+00 1.7269734088533202e+01 
26 1 2 9.2845460678743308e+00 1.4068800719664712e+06 1.0000000000000000e+00 6.3832819981655824e+00 2.8141426865267101e+00 1.7110155464121636e+01 
209 1 2 9.2845460678743308e+00 1.4142233454918889e+06 1.0000000000000000e+00 4.0388329991667442e+00 5.8984719363110543e+00 1.7264286417072874e+01 
300 1 2 9.2845460678743308e+00 1.3937506168104177e+06 1.0000000000000000e+00 5.5946537820455022e+00 6.6149704599650123e+00 1.6903151684477375e+01 
96 1 2 9.2845460678743308e+00 1.4298722519373982e+06 1.0000000000000000e+00 9.4448187204537215e-01 7.0351837878657202e+00 1.6891555535896011e+01 
340 1 2 9.2845460678743308e+00 1.4005523484714008e+06 1.0000000000000000e+00 4.6247623630335450e+00 7.8722020364078222e+00 1.6989021178631813e+01 
126 1 2 9.2845460678743308e+00 1.4294489831415690e+06 1.0000000000000000e+00 2.6608984699568206e+00 8.6956661667617396e+00 1.7204453261585051e+01 
291 1 2 9.2845460678743308e+00 1.4129403105859375e+06 1.0000000000000000e+00 5.1461880340055588e-01 9.5967945336291187e+00 1.7227080725354501e+01 
140 1 2 9.2845460678743308e+00 1.4073171361270505e+06 1.0000000000000000e+00 4.7316953096832757e+00 3.8712310961545349e+00 1.7723266607595349e+01 
90 1 2 9.2845460678743308e+00 1.4175471519098487e+06 1.0000000000000000e+00 6.5254947868176956e+00 9.5142934073839172e+00 1.7372071768161426e+01 
374 1 2 9.2845460678743308e+00 1.4215995765022836e+06 1.0000000000000000e+00 5.1470119614742336e+00 2.3480226383388394e+00 1.8560672662043203e+01 
1 1 2 9.2845460678743308e+00 1.4263694787437287e+06 1.0000000000000000e+00 2.2607275163603884e+00 8.9215877233999628e+00 1.8443261702365806e+01 
22 1 2 9.2845460678743308e+00 1.4238309317318159e+06 1.0000000000000000e+00 4.7412553685535856e+00 5.8093647506092569e+00 1.9048505855280897e+01 
226 1 2 9.2845460678743308e+00 1.4066636992313024e+06 1.0000000000000000e+00 3.1227398811242408e+00 3.2430128458664003e+00 1.9927360781168701e+01 
287 1 2 9.2845460678743308e+00 1.4414034034110722e+06 1.0000000000000000e+00 6.5807347536997485e+00 4.2476699043562300e+00 1.9799660589669255e+01 
18 1 2 9.2845460678743308e+00 1.4239752027609460e+06 1.0000000000000000e+00 6.4414614685173355e+00 7.8975775196272888e+00 1.9727344532724025e+01 
243 1 2 9.2845460678743308e+00 1.4172591267191223e+06 1.0000000000000000e+00 6.2967618982699705e+00 1.1725597120479669e+01 4.9589777255793765e-01 
369 1 2 9.2845460678743308e+00 1.1476525705860266e+06 1.0000000000000000e+00 4.2465833414924630e+00 1.6540116794850494e+01 6.0797031547389313e-01 
380 1 2 9.2845460678743308e+00 1.3879739481828869e+06 1.0000000000000000e+00 1.6271648171738597e+00 1.7012896838293873e+01 5.9120416914689011e-01 
261 1 2 9.2845460678743308e+00 1.4073049896929637e+06 1.0000000000000000e+00 6.3606332521363651e+00 1.7534267322831436e+01 2.2653821494700577e-02 
264 1 2 9.2845460678743308e+00 1.4223154365034215e+06 1.0000000000000000e+00 5.5082140930533781e+00 1.3116699216338507e+01 1.1105832720015456e+00 
281 1 2 9.2845460678743308e+00 1.4020743405224131e+06 1.0000000000000000e+00 1.1340954249795883e+00 1.0377893618194497e+01 1.4948793323252199e+00 
124 1 2 9.2845460678743308e+00 1.4272563164556851e+06 1.0000000000000000e+00 6.4673464699798293e+00 1.3898853950703993e+01 1.7352666456804511e+00 
225 1 2 9.2845460678743308e+00 1.4190934501278559e+06 1.0000000000000000e+00 2.9381101759780357e+00 1.5462502295563242e+01 1.4199276578464037e+00 
249 1 2 9.2845460678743308e+00 1.4195570588979181e+06 1.0000000000000000e+00 1.9240983816643353e+00 1.5367737493152518e+01 2.5501946048887616e+00 
188 1 2 9.2845460678743308e+00 1.4106574849491534e+06 1.0000000000000000e+00 5.6931206253004989e+00 1.5997970370138802e+01 2.5216395341095219e+00 
236 1 2 9.2845460678743308e+00 1.4468270544340899e+06 1.0000000000000000e+00 1.3411697438514871e+00 1.9244529411131438e+01 2.2390558283368622e+00 
117 1 2 9.2845460678743308e+00 1.3854438215582063e+06 1.0000000000000000e+00 4.4832691370895317e+00 1.9492337952388816e+01 2.0998279638787185e+00 
19 1 2 9.2845460678743308e+00 1.3941559797782530e+06 1.0000000000000000e+00 4.7974614081851321e+00 1.0367130427852844e+01 2.9701756854217125e+00 
367 1 2 9.2845460678743308e+00 1.4104645781721533e+06 1.0000000000000000e+00 6.2712916250322959e-01 1.2952770111865439e+01 3.2510222752047140e+00 
332 1 2 9.2845460678743308e+00 1.4214452468277733e+06 1.0000000000000000e+00 3.2056808333658680e+00 1.5213715629332460e+01 3.1117770038291628e+00 
276 1 2 9.2845460678743308e+00 1.4185045044213226e+06 1.0000000000000000e+00 2.2529047287692450e+00 1.4443116280647255e+01 3.6923415227517351e+00 
167 1 2 9.2845460678743308e+00 1.4102852743555009e+06 1.0000000000000000e+00 3.3310664647513670e+00 1.1727153996089349e+01 4.3096226146355274e+00 
227 1 2 9.2845460678743308e+00 1.4318740443430147e+06 1.0000000000000000e+00 5.5621119289969547e+00 1.3588509779619889e+01 4.2091174324376599e+00 
133 1 2 9.2845460678743308e+00 1.3851481458900543e+06 1.0000000000000000e+00 5.5330926372224845e+00 1.8253591901223874e+01 4.7110527031079696e+00 
94 1 2 9.2845460678743308e+00 1.4028696427475237e+06 1.0000000000000000e+00 4.6953353516451903e+00 1.8900519924385566e+01 5.0771593125454944e+00 
104 1 2 9.2845460678743308e+00 1.4210119737219019e+06 1.0000000000000000e+00 3.2810405861457865e+00 1.0352560342501006e+01 5.9228706397400384e+00 
205 1 2 9.2845460678743308e+00 1.4084580463787117e+06 1.0000000000000000e+00 6.1156650802327501e+00 1.8419783490007678e+01 5.9320587022033822e+00 
290 1 2 9.2845460678743308e+00 1.4185539933750313e+06 1.0000000000000000e+00 3.5067181957360427e+00 1.3058757063413289e+01 6.0826109013834566e+00 
7 1 2 9.2845460678743308e+00 1.4236048011663524e+06 1.0000000000000000e+00 4.7569914200067744e+00 1.3613405581263020e+01 6.3372705461526309e+00 
172 1 2 9.2845460678743308e+00 1.0498941372911963e+06 1.0000000000000000e+00 5.4476838813518729e+00 1.6241093839482389e+01 6.4356529314279349e+00 
48 1 2 9.2845460678743308e+00 1.3618997747530639e+06 1.0000000000000000e+00 4.4565897714814122e+00 1.1088415301719809e+01 7.1297101881056086e+00 
242 1 2 9.2845460678743308e+00 1.4299706907612216e+06 1.0000000000000000e+00 2.2979856131517784e-01 1.3409398181439853e+01 7.0842197312022348e+00 
2 1 2 9.2845460678743308e+00 1.4056874434992997e+06 1.0000000000000000e+00 7.2359163648691494e-01 1.6919051288985401e+01 7.2121776626361980e+00 
349 1 2 9.2845460678743308e+00 1.4062141054056473e+06 1.0000000000000000e+00 4.8400643665620278e+00 1.5324444799537700e+01 7.9040207524849571e+00 
217 1 2 9.2845460678743308e+00 1.4168022961034095e+06 1.0000000000000000e+00 1.4032842039240931e-01 1.0684444987344891e+01 8.5042370593137697e+00 
267 1 2 9.2845460678743308e+00 1.3731693164662900e+06 1.0000000000000000e+00 2.0164248906807063e+00 1.2579482550506501e+01 8.2354948173333558e+00 
183 1 2 9.2845460678743308e+00 1.4354021827077447e+06 1.0000000000000000e+00 3.9759924122019967e+00 1.7361443087641849e+01 8.0519835259127639e+00 
61 1 2 9.2845460678743308e+00 1.3912470083834869e+06 1.0000000000000000e+00 3.5373389425822017e+00 1.4414468557799291e+01 8.8817344487164256e+00 
362 1 2 9.2845460678743308e+00 1.4367157297629216e+06 1.0000000000000000e+00 6.2529652721473061e+00 1.5178605556430860e+01 9.2631753830406289e+00 
234 1 2 9.2845460678743308e+00 1.3943717837084886e+06 1.0000000000000000e+00 2.4602115759341503e+00 1.8753540938283400e+01 9.0541881530318911e+00 
298 1 2 9.2845460678743308e+00 1.4020657841722462e+06 1.0000000000000000e+00 1.0929777761810797e+00 1.9155930511433954e+01 9.6566506793899247e+00 
255 1 2 9.2845460678743308e+00 1.3996096854570382e+06 1.0000000000000000e+00 8.8860460163917543e-01 1.4052148745174106e+01 1.0282287674515230e+01 
163 1 2 9.2845460678743308e+00 1.4045642716651340e+06 1.0000000000000000e+00 1.0619597976062833e+00 1.5390290828434566e+01 1.0532966960616205e+01 
375 1 2 9.2845460678743308e+00 1.4011766052076849e+06 1.0000000000000000e+00 1.3179870622614220e+00 1.6644710768171624e+01 1.0255577994382255e+01 
306 1 2 9.2845460678743308e+00 1.4005305244254093e+06 1.0000000000000000e+00 6.1962666053176569e+00 1.3214319698967708e+01 1.1141547759229635e+01 
213 1 2 9.2845460678743308e+00 1.4213186635083808e+06 1.0000000000000000e+00 4.4378775801667594e+00 1.6733311351506071e+01 1.1135546469277854e+01 
138 1 2 9.2845460678743308e+00 1.4186758167151357e+06 1.0000000000000000e+00 2.3036025305091581e+00 1.7803503802289821e+01 1.1255321944968200e+01 
323 1 2 9.2845460678743308e+00 1.3919024266242539e+06 1.0000000000000000e+00 5.1308212802549260e+00 1.0466075429938964e+01 1.1917582107964996e+01 
25 1 2 9.2845460678743308e+00 1.4147513637942136e+06 1.0000000000000000e+00 8.0626831620128536e-01 1.4311264038760680e+01 1.1397993666807794e+01 
20 1 2 9.2845460678743308e+00 1.3764816266733343e+06 1.0000000000000000e+00 6.8730203622871056e-01 1.6039516896219347e+01 1.1578990966593205e+01 
159 1 2 9.2845460678743308e+00 1.4255950003402298e+06 1.0000000000000000e+00 3.8150533590065741e+00 1.3255503145906220e+01 1.2547192613034529e+01 
221 1 2 9.2845460678743308e+00 1.4515026835630368e+06 1.0000000000000000e+00 5.1440661883030101e+00 1.3970571744961015e+01 1.2061192594511345e+01 
71 1 2 9.2845460678743308e+00 1.4040192648242409e+06 1.0000000000000000e+00 7.9403997660759229e-01 1.7125672652504345e+01 1.2589923998710400e+01 
341 1 2 9.2845460678743308e+00 1.4415425464319768e+06 1.0000000000000000e+00 1.7829250947567754e+00 1.6687925270716431e+01 1.2437583133400357e+01 
219 1 2 9.2845460678743308e+00 1.4415187499753656e+06 1.0000000000000000e+00 1.6475211930926654e+00 1.4537454212864001e+01 1.3833008301377044e+01 
166 1 2 9.2845460678743308e+00 1.3874418179551437e+06 1.0000000000000000e+00 6.4330733562139244e+00 1.4447831847887048e+01 1.3778210760105413e+01 
134 1 2 9.2845460678743308e+00 1.4185172646708465e+06 1.0000000000000000e+00 5.0968306276357316e+00 1.6001892257329580e+01 1.3590494772452363e+01 
196 1 2 9.2845460678743308e+00 1.4052566654382474e+06 1.0000000000000000e+00 5.2242622480021881e+00 1.7265048433831122e+01 1.3945791765639182e+01 
154 1 2 9.2845460678743308e+00 1.4113996157054929e+06 1.0000000000000000e+00 2.7757806887885463e+00 1.3969800508671709e+01 1.4104440258338439e+01 
228 1 2 9.2845460678743308e+00 1.4360676961460710e+06 1.0000000000000000e+00 8.1830507265023833e-01 1.6356678392946517e+01 1.5122322340325448e+01 
56 1 2 9.2845460678743308e+00 1.4167543501153151e+06 1.0000000000000000e+00 2.1977218553155571e+00 1.6494611503438730e+01 1.5040513305528805e+01 
363 1 2 9.2845460678743308e+00 1.4192431245526383e+06 1.0000000000000000e+00 4.5043642858314508e+00 1.5228572846321592e+01 1.5484448929695018e+01 
111 1 2 9.2845460678743308e+00 1.4166179032032141e+06 1.0000000000000000e+00 4.2498802681601564e+00 1.7302405881592801e+01 1.5559666594973963e+01 
325 1 2 9.2845460678743308e+00 1.4103847038451163e+06 1.0000000000000000e+00 5.8083604082240550e+00 1.0380872256420229e+01 1.6460456585311523e+01 
36 1 2 9.2845460678743308e+00 1.4313584520336743e+06 1.0000000000000000e+00 6.0833795494667733e+00 1.8951876649684888e+01 1.6627382493347511e+01 
350 1 2 9.2845460678743308e+00 1.4174997160894270e+06 1.0000000000000000e+00 1.1326733710212977e-03 1.1924729659351044e+01 1.7134901951021323e+01 
339 1 2 9.2845460678743308e+00 1.3911039849644098e+06 1.0000000000000000e+00 3.1350668378770168e+00 1.4479983639479615e+01 1.6842941331854320e+01 
153 1 2 9.2845460678743308e+00 1.4129339061379661e+06 1.0000000000000000e+00 1.6917724869744504e+00 1.6860725062364438e+01 1.7095300137804053e+01 
116 1 2 9.2845460678743308e+00 1.4340360666959351e+06 1.0000000000000000e+00 2.9889700102196977e+00 1.7264839447613362e+01 1.6793311941448444e+01 
97 1 2 9.2845460678743308e+00 1.4365878471244737e+06 1.0000000000000000e+00 3.5276343576941738e+00 1.7232538499126726e+01 1.7926697909332347e+01 
87 1 2 9.2845460678743308e+00 1.4229369311325070e+06 1.0000000000000000e+00 5.3745371564274338e+00 1.8919041335823639e+01 1.7363569045962834e+01 
49 1 2 9.2845460678743308e+00 1.4154227292542863e+06 1.0000000000000000e+00 2.9104461874213255e-01 1.3993017658024579e+01 1.8470221804501708e+01 
30 1 2 9.2845460678743308e+00 1.4188511314768544e+06 1.0000000000000000e+00 5.3518808942561877e+00 1.2760347101400226e+01 1.8724458658551089e+01 
202 1 2 9.2845460678743308e+00 1.4251908951320592e+06 1.0000000000000000e+00 9.2678455162945905e-01 1.3672729777141203e+01 1.9247847692641994e+01 
129 1 2 9.2845460678743308e+00 1.4212142041873666e+06 1.0000000000000000e+00 8.6708561479356583e-01 1.6009644796682437e+01 1.9044810227748563e+01 
373 1 2 9.2845460678743308e+00 1.4349423423469551e+06 1.0000000000000000e+00 3.9804542609009390e+00 1.8107435351802867e+01 1.8840124758117170e+01 
256 1 2 9.2845460678743308e+00 1.4132707497024201e+06 1.0000000000000000e+00 4.0288777639327051e+00 1.4144245650494465e+01 1.9376240273975643e+01 
60 1 2 9.2845460678743308e+00 1.4314247060132166e+06 1.0000000000000000e+00 5.0323071920377602e+00 1.9394254503932128e+01 1.9388159845252691e+01 
37 1 2 9.2845460678743308e+00 1.3904942938935189e+06 1.0000000000000000e+00 6.6591120503903234e+00 1.9394335071352629e+01 1.9926354753222153e+01 
284 1 2 9.2845460678743308e+00 1.4098991856777691e+06 1.0000000000000000e+00 9.7416126977673816e+00 1.6961825870217526e+00 5.6627926255020222e-02 
238 1 2 9.2845460678743308e+00 1.3962865545577724e+06 1.0000000000000000e+00 1.2893559116584727e+01 1.7713164674562942e+00 1.9903634274809145e-01 
382 1 2 9.2845460678743308e+00 1.4126359514668854e+06 1.0000000000000000e+00 1.1304219533504746e+01 2.3081096286550791e+00 3.2244434318939874e-01 
313 1 2 9.2845460678743308e+00 1.4207746267973492e+06 1.0000000000000000e+00 1.0218241211996590e+01 4.9303394977679815e+00 1.1058806411105758e-01 
107 1 2 9.2845460678743308e+00 1.4048479120506430e+06 1.0000000000000000e+00 1.3204863858940534e+01 5.8917187742082144e-01 7.8615609259723773e-01 
169 1 2 9.2845460678743308e+00 1.3986777272197893e+06 1.0000000000000000e+00 7.4615140232396060e+00 8.1671330809390827e+00 1.3841233693779795e+00 
68 1 2 9.2845460678743308e+00 1.4160839003588283e+06 1.0000000000000000e+00 1.0202455245298935e+01 6.6393367449694756e+00 2.3569059105064181e+00 
342 1 2 9.2845460678743308e+00 1.4243209743816089e+06 1.0000000000000000e+00 1.1639512956637603e+01 2.7800391874043178e+00 3.2928219893801742e+00 
229 1 2 9.2845460678743308e+00 1.4129487422826993e+06 1.0000000000000000e+00 1.1692145375222172e+01 7.1714092273195593e+00 3.0726003338776451e+00 
233 1 2 9.2845460678743308e+00 1.4109703717217227e+06 1.0000000000000000e+00 1.1405621276246976e+01 1.5586229176734343e+00 3.9953742698210073e+00 
182 1 2 9.2845460678743308e+00 1.4073858299564417e+06 1.0000000000000000e+00 8.2517472403691503e+00 2.8053442680063889e+00 3.6982188054475773e+00 
15 1 2 9.2845460678743308e+00 1.3880919056020533e+06 1.0000000000000000e+00 1.3111022990112627e+01 4.6022602666868524e+00 3.5118660842554599e+00 
315 1 2 9.2845460678743308e+00 1.4121305398009359e+06 1.0000000000000000e+00 9.5972730312620165e+00 5.1228107216174701e+00 3.9929225620717990e+00 
59 1 2 9.2845460678743308e+00 1.4252271940553458e+06 1.0000000000000000e+00 1.0015260717804997e+01 8.0639230120148664e+00 3.3778878782193824e+00 
137 1 2 9.2845460678743308e+00 1.4212640040709246e+06 1.0000000000000000e+00 1.2267884323189005e+01 3.1480473989755202e+00 4.1121049584101428e+00 
346 1 2 9.2845460678743308e+00 1.4068883994945278e+06 1.0000000000000000e+00 8.0689600481361659e+00 5.9912945349438855e+00 4.3335778972500680e+00 
371 1 2 9.2845460678743308e+00 1.4170254178030319e+06 1.0000000000000000e+00 1.1268125025828844e+01 5.7193949952548060e+00 5.2809587998191025e+00 
65 1 2 9.2845460678743308e+00 1.4138050100591513e+06 1.0000000000000000e+00 1.2930827319507477e+01 2.3042070045603855e-01 6.1365752629686572e+00 
372 1 2 9.2845460678743308e+00 1.4471764102100232e+06 1.0000000000000000e+00 1.0767903713595173e+01 1.1860451381865880e+00 6.6103205310577353e+00 
58 1 2 9.2845460678743308e+00 1.4302140300854365e+06 1.0000000000000000e+00 1.1633550513183341e+01 9.2052896838838616e-01 6.0634663376505689e+00 
254 1 2 9.2845460678743308e+00 1.4153573818697757e+06 1.0000000000000000e+00 1.0921173176898302e+01 8.9976040007452678e+00 7.3066822407888488e+00 
92 1 2 9.2845460678743308e+00 1.4164016611142419e+06 1.0000000000000000e+00 1.0401286819927618e+01 2.0921974645325179e+00 7.6665958279538184e+00 
114 1 2 9.2845460678743308e+00 1.4189136793637904e+06 1.0000000000000000e+00 7.2585392507656383e+00 8.6249542017693965e+00 7.4163850222353807e+00 
324 1 2 9.2845460678743308e+00 1.4228031916598682e+06 1.0000000000000000e+00 1.0173746491620960e+01 4.4123163085816826e+00 8.2386504374336607e+00 
46 1 2 9.2845460678743308e+00 1.4119693587110238e+06 1.0000000000000000e+00 8.7824969956425694e+00 1.0217016784112893e+00 8.9835051441422706e+00 
174 1 2 9.2845460678743308e+00 1.4350943065390731e+06 1.0000000000000000e+00 1.1165145142471395e+01 4.2966160202645334e+00 8.8904003098543001e+00 
52 1 2 9.2845460678743308e+00 1.4033909135190402e+06 1.0000000000000000e+00 9.3323735664941747e+00 6.9066792762283686e+00 9.3068928871083436e+00 
164 1 2 9.2845460678743308e+00 1.4047210571864177e+06 1.0000000000000000e+00 1.2715657696010549e+01 8.8124823783350834e+00 9.3292824660262941e+00 
125 1 2 9.2845460678743308e+00 1.4085952833037879e+06 1.0000000000000000e+00 8.8402333899942249e+00 1.7731037462792907e+00 9.9539677482922304e+00 
237 1 2 9.2845460678743308e+00 1.4166123013386121e+06 1.0000000000000000e+00 7.7341530728636210e+00 2.8839888221431949e+00 9.5173328589003443e+00 
121 1 2 9.2845460678743308e+00 1.4280310885297018e+06 1.0000000000000000e+00 8.0877212684312365e+00 6.8632419032783964e+00 9.9237165618573808e+00 
39 1 2 9.2845460678743308e+00 1.4273849282234916e+06 1.0000000000000000e+00 1.0655700200404716e+01 2.3612071229158187e+00 1.0572242289773586e+01 
80 1 2 9.2845460678743308e+00 1.4174487391806701e+06 1.0000000000000000e+00 9.0566538623677548e+00 5.6713948001896517e+00 1.0594732679451369e+01 
147 1 2 9.2845460678743308e+00 1.4111134618415623e+06 1.0000000000000000e+00 1.0204438896363865e+01 9.4481116469887656e+00 1.0136932787809524e+01 
251 1 2 9.2845460678743308e+00 1.4248596691780873e+06 1.0000000000000000e+00 1.0644545710288028e+01 3.5147561808389721e-01 1.1133432082274037e+01 
293 1 2 9.2845460678743308e+00 1.4007872502649198e+06 1.0000000000000000e+00 7.5117789988065100e+00 2.1102566990661233e+00 1.1885328694074520e+01 
270 1 2 9.2845460678743308e+00 1.4264869262613142e+06 1.0000000000000000e+00 1.1636534629277341e+01 5.4044919099859623e+00 1.1694548184370856e+01 
123 1 2 9.2845460678743308e+00 1.4065387688818756e+06 1.0000000000000000e+00 1.2640008662921622e+01 9.6759621007310397e+00 1.1657068615126049e+01 
338 1 2 9.2845460678743308e+00 1.4178469124980196e+06 1.0000000000000000e+00 8.0254212521135617e+00 3.4448443402916680e+00 1.2580676612339353e+01 
303 1 2 9.2845460678743308e+00 1.4097133461459698e+06 1.0000000000000000e+00 1.1233731815943001e+01 6.4896640436755622e+00 1.2640819781293764e+01 
145 1 2 9.2845460678743308e+00 1.4068169573481148e+06 1.0000000000000000e+00 6.7487679666917790e+00 3.4854308549275470e+00 1.2970491070912768e+01 
216 1 2 9.2845460678743308e+00 1.4011633434957704e+06 1.0000000000000000e+00 1.2597012499188230e+01 3.1568358128639287e+00 1.3557304438727661e+01 
16 1 2 9.2845460678743308e+00 1.3945562867073701e+06 1.0000000000000000e+00 7.5581593749136058e+00 2.3736515638622677e+00 1.5009281643489327e+01 
141 1 2 9.2845460678743308e+00 1.4209248901426285e+06 1.0000000000000000e+00 8.3842344518985161e+00 5.6532005025127798e+00 1.4835306682290369e+01 
34 1 2 9.2845460678743308e+00 1.4150550884891036e+06 1.0000000000000000e+00 1.2119624863059148e+01 6.6388966091919608e+00 1.4687768485117539e+01 
295 1 2 9.2845460678743308e+00 1.4420885945103494e+06 1.0000000000000000e+00 7.4632830255750706e+00 9.2609046391279879e+00 1.4825781370078726e+01 
24 1 2 9.2845460678743308e+00 1.4365845969911795e+06 1.0000000000000000e+00 1.0262556102897275e+01 2.2245624559943367e+00 1.5484922359771840e+01 
292 1 2 9.2845460678743308e+00 1.4217618026706469e+06 1.0000000000000000e+00 1.1895730961111074e+01 5.5644750121408757e+00 1.5755603185204595e+01 
265 1 2 9.2845460678743308e+00 1.4234086332327658e+06 1.0000000000000000e+00 6.8295107087153823e+00 8.8300237155450976e+00 1.5938563752669809e+01 
289 1 2 9.2845460678743308e+00 1.4032869349218905e+06 1.0000000000000000e+00 7.1406980418818584e+00 6.5286202787510899e+00 1.6302828877692811e+01 
230 1 2 9.2845460678743308e+00 1.4126157464336799e+06 1.0000000000000000e+00 1.1064419377639924e+01 6.7236646494773691e+00 1.6572505206742022e+01 
79 1 2 9.2845460678743308e+00 1.3814640787410405e+06 1.0000000000000000e+00 8.3869005127576930e+00 4.2670930652578498e+00 1.7828967867343383e+01 
75 1 2 9.2845460678743308e+00 1.4108104254355324e+06 1.0000000000000000e+00 1.0556159010654278e+01 5.2837862024254374e+00 1.7912365353641668e+01 
106 1 2 9.2845460678743308e+00 1.4182314089367236e+06 1.0000000000000000e+00 1.0821224793370039e+01 6.7386548308125809e+00 1.7634921580016911e+01 
109 1 2 9.2845460678743308e+00 1.4231962769267256e+06 1.0000000000000000e+00 1.0004179271949809e+01 9.9159183899726209e+00 1.7770005913391714e+01 
150 1 2 9.2845460678743308e+00 1.3984502916744687e+06 1.0000000000000000e+00 1.2818615469025049e+01 7.2642432926561815e+00 1.8261215528884961e+01 
27 1 2 9.2845460678743308e+00 1.4251100576270539e+06 1.0000000000000000e+00 1.1710799410815147e+01 8.0466136125778558e+00 1.8522704093984835e+01 
17 1 2 9.2845460678743308e+00 1.4270953176178657e+06 1.0000000000000000e+00 1.1840935246335057e+01 8.9910921889609625e+00 1.8132823288657768e+01 
130 1 2 9.2845460678743308e+00 1.4011130096840654e+06 1.0000000000000000e+00 1.1311919370714273e+01 1.4088178674288823e+00 1.8695871860575913e+01 
214 1 2 9.2845460678743308e+00 1.4149239750249032e+06 1.0000000000000000e+00 7.7734784941531387e+00 5.5439810740419420e+00 1.9237446764006666e+01 
41 1 2 9.2845460678743308e+00 1.4369112392061646e+06 1.0000000000000000e+00 1.0425483237885967e+01 7.3049638865190198e+00 1.8897986097946024e+01 
139 1 2 9.2845460678743308e+00 1.4125526196473720e+06 1.0000000000000000e+00 9.9766379117164075e+00 8.6009956439017028e+00 1.8687891823377505e+01 
318 1 2 9.2845460678743308e+00 1.4221881374590402e+06 1.0000000000000000e+00 8.4321938154043679e+00 9.2174635269413994e+00 1.9263084131245162e+01 
377 1 2 9.2845460678743308e+00 1.4166190039014122e+06 1.0000000000000000e+00 8.3142069682393291e+00 1.7362858458839832e+00 1.9923689521755158e+01 