LAMMPS data file via write_data, version 30 Jul 2016, timestep = 600000

2080 atoms
8 atom types

0.0000000000000000e+00 4.0000000000000000e+01 xlo xhi
0.0000000000000000e+00 4.0000000000000000e+01 ylo yhi
0.0000000000000000e+00 1.0000000000000000e+02 zlo zhi

Masses

1 3.896
2 5.36
3 1058.08
4 8.378
5 8.378
6 8.378
7 8.378
8 8.378

Atoms # meso-molecular

1 2 4 2.2559723595316457e+00 1.0000000000000000e+00 4.2000000000000000e+03 0.0000000000000000e+00 0.0000000000000000e+00 2.5000000000000000e+00 
2 2 4 2.2559723595316457e+00 1.0000000000000000e+00 4.2000000000000000e+03 0.0000000000000000e+00 2.0000000000000000e+00 2.5000000000000000e+00 
3 2 4 2.2559723595316457e+00 1.0000000000000000e+00 4.2000000000000000e+03 0.0000000000000000e+00 4.0000000000000000e+00 2.5000000000000000e+00 
4 2 4 2.2559723595316457e+00 1.0000000000000000e+00 4.2000000000000000e+03 0.0000000000000000e+00 6.0000000000000000e+00 2.5000000000000000e+00 
21 2 4 2.2559723595316457e+00 1.0000000000000000e+00 4.2000000000000000e+03 2.0000000000000000e+00 0.0000000000000000e+00 2.5000000000000000e+00 
22 2 4 2.2559723595316457e+00 1.0000000000000000e+00 4.2000000000000000e+03 2.0000000000000000e+00 2.0000000000000000e+00 2.5000000000000000e+00 
23 2 4 2.2559723595316457e+00 1.0000000000000000e+00 4.2000000000000000e+03 2.0000000000000000e+00 4.0000000000000000e+00 2.5000000000000000e+00 
24 2 4 2.2559723595316457e+00 1.0000000000000000e+00 4.2000000000000000e+03 2.0000000000000000e+00 6.0000000000000000e+00 2.5000000000000000e+00 
41 2 4 2.2559723595316457e+00 1.0000000000000000e+00 4.2000000000000000e+03 4.0000000000000000e+00 0.0000000000000000e+00 2.5000000000000000e+00 
42 2 4 2.2559723595316457e+00 1.0000000000000000e+00 4.2000000000000000e+03 4.0000000000000000e+00 2.0000000000000000e+00 2.5000000000000000e+00 
43 2 4 2.2559723595316457e+00 1.0000000000000000e+00 4.2000000000000000e+03 4.0000000000000000e+00 4.0000000000000000e+00 2.5000000000000000e+00 
44 2 4 2.2559723595316457e+00 1.0000000000000000e+00 4.2000000000000000e+03 4.0000000000000000e+00 6.0000000000000000e+00 2.5000000000000000e+00 
61 2 4 2.2559723595316457e+00 1.0000000000000000e+00 4.2000000000000000e+03 6.0000000000000000e+00 0.0000000000000000e+00 2.5000000000000000e+00 
62 2 4 2.2559723595316457e+00 1.0000000000000000e+00 4.2000000000000000e+03 6.0000000000000000e+00 2.0000000000000000e+00 2.5000000000000000e+00 
63 2 4 2.2559723595316457e+00 1.0000000000000000e+00 4.2000000000000000e+03 6.0000000000000000e+00 4.0000000000000000e+00 2.5000000000000000e+00 
64 2 4 2.2559723595316457e+00 1.0000000000000000e+00 4.2000000000000000e+03 6.0000000000000000e+00 6.0000000000000000e+00 2.5000000000000000e+00 
81 2 4 2.2559723595316457e+00 1.0000000000000000e+00 4.2000000000000000e+03 8.0000000000000000e+00 0.0000000000000000e+00 2.5000000000000000e+00 
82 2 4 2.2559723595316457e+00 1.0000000000000000e+00 4.2000000000000000e+03 8.0000000000000000e+00 2.0000000000000000e+00 2.5000000000000000e+00 
83 2 4 2.2559723595316457e+00 1.0000000000000000e+00 4.2000000000000000e+03 8.0000000000000000e+00 4.0000000000000000e+00 2.5000000000000000e+00 
84 2 4 2.2559723595316457e+00 1.0000000000000000e+00 4.2000000000000000e+03 8.0000000000000000e+00 6.0000000000000000e+00 2.5000000000000000e+00 
101 2 4 2.2559723595316457e+00 1.0000000000000000e+00 4.2000000000000000e+03 1.0000000000000000e+01 0.0000000000000000e+00 2.5000000000000000e+00 
102 2 4 2.2559723595316457e+00 1.0000000000000000e+00 4.2000000000000000e+03 1.0000000000000000e+01 2.0000000000000000e+00 2.5000000000000000e+00 
103 2 4 2.2559723595316457e+00 1.0000000000000000e+00 4.2000000000000000e+03 1.0000000000000000e+01 4.0000000000000000e+00 2.5000000000000000e+00 
104 2 4 2.2559723595316457e+00 -1.0506807304611023e+00 4.2000000000000000e+03 1.0000000000000000e+01 6.0000000000000000e+00 2.5000000000000000e+00 
121 2 4 2.2559723595316457e+00 1.0000000000000000e+00 4.2000000000000000e+03 1.2000000000000000e+01 0.0000000000000000e+00 2.5000000000000000e+00 
122 2 4 2.2559723595316457e+00 1.0000000000000000e+00 4.2000000000000000e+03 1.2000000000000000e+01 2.0000000000000000e+00 2.5000000000000000e+00 
123 2 4 2.2559723595316457e+00 -1.0507292930923597e+00 4.2000000000000000e+03 1.2000000000000000e+01 4.0000000000000000e+00 2.5000000000000000e+00 
124 2 4 2.2559723595316457e+00 -8.8013046413099232e+01 4.2000000000000000e+03 1.2000000000000000e+01 6.0000000000000000e+00 2.5000000000000000e+00 
141 2 4 2.2559723595316457e+00 1.0000000000000000e+00 4.2000000000000000e+03 1.4000000000000000e+01 0.0000000000000000e+00 2.5000000000000000e+00 
142 2 4 2.2559723595316457e+00 1.0000000000000000e+00 4.2000000000000000e+03 1.4000000000000000e+01 2.0000000000000000e+00 2.5000000000000000e+00 
143 2 4 2.2559723595316457e+00 -3.0918908057742996e+01 4.2000000000000000e+03 1.4000000000000000e+01 4.0000000000000000e+00 2.5000000000000000e+00 
144 2 4 2.2559723595316457e+00 -4.2208080634096780e+02 4.2000000000000000e+03 1.4000000000000000e+01 6.0000000000000000e+00 2.5000000000000000e+00 
161 2 4 2.2559723595316457e+00 1.0000000000000000e+00 4.2000000000000000e+03 1.6000000000000000e+01 0.0000000000000000e+00 2.5000000000000000e+00 
162 2 4 2.2559723595316457e+00 1.0000000000000000e+00 4.2000000000000000e+03 1.6000000000000000e+01 2.0000000000000000e+00 2.5000000000000000e+00 
163 2 4 2.2559723595316457e+00 -8.7342390138159331e+01 4.2000000000000000e+03 1.6000000000000000e+01 4.0000000000000000e+00 2.5000000000000000e+00 
164 2 4 2.2559723595316457e+00 -9.3483796745059158e+02 4.2000000000000000e+03 1.6000000000000000e+01 6.0000000000000000e+00 2.5000000000000000e+00 
181 2 4 2.2559723595316457e+00 1.0000000000000000e+00 4.2000000000000000e+03 1.8000000000000000e+01 0.0000000000000000e+00 2.5000000000000000e+00 
182 2 4 2.2559723595316457e+00 1.0000000000000000e+00 4.2000000000000000e+03 1.8000000000000000e+01 2.0000000000000000e+00 2.5000000000000000e+00 
183 2 4 2.2559723595316457e+00 -1.2456429187919193e+02 4.2000000000000000e+03 1.8000000000000000e+01 4.0000000000000000e+00 2.5000000000000000e+00 
184 2 4 2.2559723595316457e+00 -1.3078272417473304e+03 4.2000000000000000e+03 1.8000000000000000e+01 6.0000000000000000e+00 2.5000000000000000e+00 
5 2 4 2.2559723595316457e+00 1.0000000000000000e+00 4.2000000000000000e+03 0.0000000000000000e+00 8.0000000000000000e+00 2.5000000000000000e+00 
6 2 4 2.2559723595316457e+00 1.0000000000000000e+00 4.2000000000000000e+03 0.0000000000000000e+00 1.0000000000000000e+01 2.5000000000000000e+00 
7 2 4 2.2559723595316457e+00 1.0000000000000000e+00 4.2000000000000000e+03 0.0000000000000000e+00 1.2000000000000000e+01 2.5000000000000000e+00 
25 2 4 2.2559723595316457e+00 1.0000000000000000e+00 4.2000000000000000e+03 2.0000000000000000e+00 8.0000000000000000e+00 2.5000000000000000e+00 
26 2 4 2.2559723595316457e+00 1.0000000000000000e+00 4.2000000000000000e+03 2.0000000000000000e+00 1.0000000000000000e+01 2.5000000000000000e+00 
27 2 4 2.2559723595316457e+00 1.0000000000000000e+00 4.2000000000000000e+03 2.0000000000000000e+00 1.2000000000000000e+01 2.5000000000000000e+00 
45 2 4 2.2559723595316457e+00 1.0000000000000000e+00 4.2000000000000000e+03 4.0000000000000000e+00 8.0000000000000000e+00 2.5000000000000000e+00 
46 2 4 2.2559723595316457e+00 1.0000000000000000e+00 4.2000000000000000e+03 4.0000000000000000e+00 1.0000000000000000e+01 2.5000000000000000e+00 
47 2 4 2.2559723595316457e+00 1.0000000000000000e+00 4.2000000000000000e+03 4.0000000000000000e+00 1.2000000000000000e+01 2.5000000000000000e+00 
65 2 4 2.2559723595316457e+00 1.0000000000000000e+00 4.2000000000000000e+03 6.0000000000000000e+00 8.0000000000000000e+00 2.5000000000000000e+00 
66 2 4 2.2559723595316457e+00 1.0000000000000000e+00 4.2000000000000000e+03 6.0000000000000000e+00 1.0000000000000000e+01 2.5000000000000000e+00 
67 2 4 2.2559723595316457e+00 1.0000000000000000e+00 4.2000000000000000e+03 6.0000000000000000e+00 1.2000000000000000e+01 2.5000000000000000e+00 
85 2 4 2.2559723595316457e+00 1.0000000000000000e+00 4.2000000000000000e+03 8.0000000000000000e+00 8.0000000000000000e+00 2.5000000000000000e+00 
86 2 4 2.2559723595316457e+00 1.0000000000000000e+00 4.2000000000000000e+03 8.0000000000000000e+00 1.0000000000000000e+01 2.5000000000000000e+00 
87 2 4 2.2559723595316457e+00 1.0000003492878073e+00 4.2000000000000000e+03 8.0000000000000000e+00 1.2000000000000000e+01 2.5000000000000000e+00 
105 2 4 2.2559723595316457e+00 -3.0929903853762593e+01 4.2000000000000000e+03 1.0000000000000000e+01 8.0000000000000000e+00 2.5000000000000000e+00 
106 2 4 2.2559723595316457e+00 -8.7675493160696846e+01 4.2000000000000000e+03 1.0000000000000000e+01 1.0000000000000000e+01 2.5000000000000000e+00 
107 2 4 2.2559723595316457e+00 -1.2696413979400013e+02 4.2000000000000000e+03 1.0000000000000000e+01 1.2000000000000000e+01 2.5000000000000000e+00 
125 2 4 2.2559723595316457e+00 -4.2250080917533671e+02 4.2000000000000000e+03 1.2000000000000000e+01 8.0000000000000000e+00 2.5000000000000000e+00 
126 2 4 2.2559723595316457e+00 -9.4079405742678398e+02 4.2000000000000000e+03 1.2000000000000000e+01 1.0000000000000000e+01 2.5000000000000000e+00 
127 2 4 2.2559723595316457e+00 -1.3423725296956575e+03 4.2000000000000000e+03 1.2000000000000000e+01 1.2000000000000000e+01 2.5000000000000000e+00 
145 2 4 2.2559723595316457e+00 -1.6041933202984346e+03 4.2000000000000000e+03 1.4000000000000000e+01 8.0000000000000000e+00 2.5000000000000000e+00 
146 2 4 2.2559723595316457e+00 -3.3228510794991935e+03 4.2000000000000000e+03 1.4000000000000000e+01 1.0000000000000000e+01 2.5000000000000000e+00 
147 2 4 2.2559723595316457e+00 -4.7001727209330265e+03 4.2000000000000000e+03 1.4000000000000000e+01 1.2000000000000000e+01 2.5000000000000000e+00 
165 2 4 2.2559723595316457e+00 -3.3042180134787041e+03 4.2000000000000000e+03 1.6000000000000000e+01 8.0000000000000000e+00 2.5000000000000000e+00 
166 2 4 2.2559723595316457e+00 -6.6925485047862749e+03 4.2000000000000000e+03 1.6000000000000000e+01 1.0000000000000000e+01 2.5000000000000000e+00 
167 2 4 2.2559723595316457e+00 -9.4504896552172449e+03 4.2000000000000000e+03 1.6000000000000000e+01 1.2000000000000000e+01 2.5000000000000000e+00 
185 2 4 2.2559723595316457e+00 -4.5691095043436580e+03 4.2000000000000000e+03 1.8000000000000000e+01 8.0000000000000000e+00 2.5000000000000000e+00 
186 2 4 2.2559723595316457e+00 -9.2300924282380947e+03 4.2000000000000000e+03 1.8000000000000000e+01 1.0000000000000000e+01 2.5000000000000000e+00 
187 2 4 2.2559723595316457e+00 -1.3049840725075959e+04 4.2000000000000000e+03 1.8000000000000000e+01 1.2000000000000000e+01 2.5000000000000000e+00 
8 2 4 2.2559723595316457e+00 1.0000000000000000e+00 4.2000000000000000e+03 0.0000000000000000e+00 1.4000000000000000e+01 2.5000000000000000e+00 
9 2 4 2.2559723595316457e+00 1.0000000000000000e+00 4.2000000000000000e+03 0.0000000000000000e+00 1.6000000000000000e+01 2.5000000000000000e+00 
10 2 4 2.2559723595316457e+00 1.0000000000000000e+00 4.2000000000000000e+03 0.0000000000000000e+00 1.8000000000000000e+01 2.5000000000000000e+00 
28 2 4 2.2559723595316457e+00 1.0000000000000000e+00 4.2000000000000000e+03 2.0000000000000000e+00 1.4000000000000000e+01 2.5000000000000000e+00 
29 2 4 2.2559723595316457e+00 1.0000000000000000e+00 4.2000000000000000e+03 2.0000000000000000e+00 1.6000000000000000e+01 2.5000000000000000e+00 
30 2 4 2.2559723595316457e+00 1.0000000000000000e+00 4.2000000000000000e+03 2.0000000000000000e+00 1.8000000000000000e+01 2.5000000000000000e+00 
48 2 4 2.2559723595316457e+00 1.0000000000000000e+00 4.2000000000000000e+03 4.0000000000000000e+00 1.4000000000000000e+01 2.5000000000000000e+00 
49 2 4 2.2559723595316457e+00 1.0000000000000000e+00 4.2000000000000000e+03 4.0000000000000000e+00 1.6000000000000000e+01 2.5000000000000000e+00 
50 2 4 2.2559723595316457e+00 1.0000000000000000e+00 4.2000000000000000e+03 4.0000000000000000e+00 1.8000000000000000e+01 2.5000000000000000e+00 
68 2 4 2.2559723595316457e+00 1.0000000000000000e+00 4.2000000000000000e+03 6.0000000000000000e+00 1.4000000000000000e+01 2.5000000000000000e+00 
69 2 4 2.2559723595316457e+00 1.0000231523165470e+00 4.2000000000000000e+03 6.0000000000000000e+00 1.6000000000000000e+01 2.5000000000000000e+00 
70 2 4 2.2559723595316457e+00 1.0009647744064822e+00 4.2000000000000000e+03 6.0000000000000000e+00 1.8000000000000000e+01 2.5000000000000000e+00 
88 2 4 2.2559723595316457e+00 9.9955745518394834e-01 4.2000000000000000e+03 8.0000000000000000e+00 1.4000000000000000e+01 2.5000000000000000e+00 
89 2 4 2.2559723595316457e+00 9.9904320570958238e-01 4.2000000000000000e+03 8.0000000000000000e+00 1.6000000000000000e+01 2.5000000000000000e+00 
90 2 4 2.2559723595316457e+00 1.0060093168335609e+00 4.2000000000000000e+03 8.0000000000000000e+00 1.8000000000000000e+01 2.5000000000000000e+00 
108 2 4 2.2559723595316457e+00 -1.3613055272064909e+02 4.2000000000000000e+03 1.0000000000000000e+01 1.4000000000000000e+01 2.5000000000000000e+00 
109 2 4 2.2559723595316457e+00 -1.3791537053836083e+02 4.2000000000000000e+03 1.0000000000000000e+01 1.6000000000000000e+01 2.5000000000000000e+00 
110 2 4 2.2559723595316457e+00 -1.3800653375785944e+02 4.2000000000000000e+03 1.0000000000000000e+01 1.8000000000000000e+01 2.5000000000000000e+00 
128 2 4 2.2559723595316457e+00 -1.4908025828074822e+03 4.2000000000000000e+03 1.2000000000000000e+01 1.4000000000000000e+01 2.5000000000000000e+00 
129 2 4 2.2559723595316457e+00 -1.5166263625909296e+03 4.2000000000000000e+03 1.2000000000000000e+01 1.6000000000000000e+01 2.5000000000000000e+00 
130 2 4 2.2559723595316457e+00 -1.5197932848704804e+03 4.2000000000000000e+03 1.2000000000000000e+01 1.8000000000000000e+01 2.5000000000000000e+00 
148 2 4 2.2559723595316457e+00 -5.2725245471661428e+03 4.2000000000000000e+03 1.4000000000000000e+01 1.4000000000000000e+01 2.5000000000000000e+00 
149 2 4 2.2559723595316457e+00 -5.3779493813418239e+03 4.2000000000000000e+03 1.4000000000000000e+01 1.6000000000000000e+01 2.5000000000000000e+00 
150 2 4 2.2559723595316457e+00 -5.3911378792195574e+03 4.2000000000000000e+03 1.4000000000000000e+01 1.8000000000000000e+01 2.5000000000000000e+00 
168 2 4 2.2559723595316457e+00 -1.0638693008874448e+04 4.2000000000000000e+03 1.6000000000000000e+01 1.4000000000000000e+01 2.5000000000000000e+00 
169 2 4 2.2559723595316457e+00 -1.0854915456447145e+04 4.2000000000000000e+03 1.6000000000000000e+01 1.6000000000000000e+01 2.5000000000000000e+00 
170 2 4 2.2559723595316457e+00 -1.0878287959944004e+04 4.2000000000000000e+03 1.6000000000000000e+01 1.8000000000000000e+01 2.5000000000000000e+00 
188 2 4 2.2559723595316457e+00 -1.4696624576986604e+04 4.2000000000000000e+03 1.8000000000000000e+01 1.4000000000000000e+01 2.5000000000000000e+00 
189 2 4 2.2559723595316457e+00 -1.4982304945584969e+04 4.2000000000000000e+03 1.8000000000000000e+01 1.6000000000000000e+01 2.5000000000000000e+00 
190 2 4 2.2559723595316457e+00 -1.5009687614640487e+04 4.2000000000000000e+03 1.8000000000000000e+01 1.8000000000000000e+01 2.5000000000000000e+00 
598 200 2 1.0279972438996177e+00 2.5154041454255898e+03 4.2000000000000000e+03 1.3541369875697558e+01 6.1143433529291933e+00 7.3316784055545256e+01 
438 40 2 1.0279971701851605e+00 3.1607899179110132e+03 4.2000000000000000e+03 1.3700113975974340e+01 6.1318595180683353e+00 7.3302966766082235e+01 
1598 1200 2 1.0279959578330984e+00 6.4707921712730422e+03 4.2000000000000000e+03 1.4348707547275438e+01 6.3018475331938122e+00 7.3314169609555705e+01 
1274 876 2 1.0279961649507374e+00 4.8367425406474795e+03 4.2000000000000000e+03 1.2795187529294729e+01 7.4029110106631872e+00 7.3055331111419363e+01 
1136 738 2 1.0279959514891399e+00 3.8194430786086718e+03 4.2000000000000000e+03 1.2710733537311944e+01 7.6342670740715768e+00 7.3126886045831341e+01 
779 381 2 1.0279984161669893e+00 2.8939889923651663e+03 4.2000000000000000e+03 1.2621003430358515e+01 7.0082412537789764e+00 7.3216302134275367e+01 
1997 1599 2 1.0279975185905941e+00 6.0841921225556369e+01 4.2000000000000000e+03 1.9165022909043302e+01 1.2348898057032482e+01 7.0162386974759542e+01 
1021 623 2 1.0280022940566311e+00 5.4653214150532031e+03 4.2000000000000000e+03 1.6642723140329878e+01 1.3234186938754464e+01 7.0327467379760350e+01 
985 587 2 1.0280009531828074e+00 9.5422326594140286e+03 4.2000000000000000e+03 1.9204403934294255e+01 1.1597274569527611e+01 7.0463654384856085e+01 
502 104 2 1.0279992970796050e+00 -5.5248503135988176e+03 4.2000000000000000e+03 1.9209453617756974e+01 1.1512423140937672e+01 7.0507165327235427e+01 
1080 682 2 1.0279996681274095e+00 -7.6478527485823379e+03 4.2000000000000000e+03 1.6446641979373826e+01 1.2510061409132238e+01 7.0613450338774200e+01 
503 105 2 1.0279985186550531e+00 -5.5269942833379209e+03 4.2000000000000000e+03 1.6569524603969839e+01 1.2219523618928267e+01 7.0652588816892987e+01 
1317 919 2 1.0279983411327134e+00 -2.0999133114358347e+01 4.2000000000000000e+03 1.9544658639383528e+01 1.1296279834019234e+01 7.0604104375185543e+01 
1320 922 2 1.0279967756274222e+00 -2.3951582943780632e+01 4.2000000000000000e+03 1.6520195278951100e+01 1.2145953707872497e+01 7.0705907483438608e+01 
1625 1227 2 1.0280020770043945e+00 -4.5750110402443312e+02 4.2000000000000000e+03 1.9332518288983419e+01 1.1277959435100973e+01 7.0630499259128726e+01 
1336 938 2 1.0280004342965439e+00 2.6558984451823749e+03 4.2000000000000000e+03 1.7416467894258314e+01 1.1517887375844781e+01 7.0699963106572298e+01 
617 219 2 1.0280002237779033e+00 -2.9055181602660679e+02 4.2000000000000000e+03 1.5968220747585541e+01 1.3134869042473207e+01 7.0813717907109435e+01 
1628 1230 2 1.0279975864652107e+00 -4.6007095115090499e+02 4.2000000000000000e+03 1.6798967555647668e+01 1.1691159462641032e+01 7.0776068881017750e+01 
1948 1550 2 1.0280001062779214e+00 -2.7239538345840829e+03 4.2000000000000000e+03 1.6757998813930410e+01 1.1535010924600654e+01 7.0866708835991133e+01 
794 396 2 1.0279995016588006e+00 7.6854967915991901e+03 4.2000000000000000e+03 1.9945898896046060e+01 1.0911568357969390e+01 7.0833132818802426e+01 
2000 1602 2 1.0279975001844532e+00 5.6087456524997499e+01 4.2000000000000000e+03 1.6080397373009944e+01 1.2501528473008241e+01 7.0903539611007702e+01 
1212 814 2 1.0279984424182760e+00 3.1290862473665366e+03 4.2000000000000000e+03 1.6132681813620486e+01 1.2359510069110952e+01 7.0902624503608081e+01 
1945 1547 2 1.0280000599775181e+00 -2.7222701476045663e+03 4.2000000000000000e+03 1.8436769010538388e+01 1.0960815841499295e+01 7.0921448709585775e+01 
988 590 2 1.0279973852260695e+00 9.5392867448403067e+03 4.2000000000000000e+03 1.6041047119719199e+01 1.2188499194221386e+01 7.1067196184055931e+01 
1333 935 2 1.0280001450535576e+00 2.6561866945381107e+03 4.2000000000000000e+03 1.8778403872835426e+01 1.0808574914584447e+01 7.1008739239959297e+01 
795 397 2 1.0279966489315162e+00 7.6811499584209769e+03 4.2000000000000000e+03 1.6083497302495790e+01 1.1941635311705973e+01 7.1116798501049274e+01 
1994 1596 2 1.0279983179024395e+00 -8.5831282121801598e+02 4.2000000000000000e+03 1.6190294947747898e+01 1.1722791291303642e+01 7.1105992121571859e+01 
1479 1081 2 1.0279978530167599e+00 5.0281366897981443e+03 4.2000000000000000e+03 1.6041979345158477e+01 1.2040579296519532e+01 7.1123802670037406e+01 
964 566 2 1.0279946099481543e+00 7.0810667434354627e+03 4.2000000000000000e+03 1.5931373008938166e+01 1.2162993256838972e+01 7.1225538280744686e+01 
1905 1507 2 1.0280001347098719e+00 -3.8386481112866882e+03 4.2000000000000000e+03 1.6500403883084246e+01 1.0877844105292336e+01 7.1334844564898091e+01 
1885 1487 2 1.0279973183084812e+00 -2.9621010835975690e+03 4.2000000000000000e+03 1.5842625308044273e+01 1.2211189131396834e+01 7.1368690115707608e+01 
945 547 2 1.0279958097073785e+00 3.6108837340025443e+03 4.2000000000000000e+03 1.5852550448803518e+01 1.1969407636507164e+01 7.1431179868328016e+01 
1126 728 2 1.0279965444713848e+00 2.4559277187043776e+03 4.2000000000000000e+03 1.5819607570506786e+01 1.1963483960429121e+01 7.1500305656520737e+01 
1242 844 2 1.0280021088234299e+00 1.5341394517926254e+04 4.2000000000000000e+03 1.6904531814003899e+01 1.0504674917892464e+01 7.1473685620578181e+01 
1995 1597 2 1.0279938997532385e+00 -8.5567680926845549e+02 4.2000000000000000e+03 1.9922950965313113e+01 1.0149303802583681e+01 7.1508774869552894e+01 
1280 882 2 1.0279955995570098e+00 3.0569124695123292e+03 4.2000000000000000e+03 1.5803635842386516e+01 1.1787144733186299e+01 7.1586696917449700e+01 
1062 664 2 1.0279983004462137e+00 8.7584386467533914e+03 4.2000000000000000e+03 1.5801647084183928e+01 1.1576055611300035e+01 7.1647291819418157e+01 
1979 1581 2 1.0279978446067741e+00 -8.4234541961145587e+03 4.2000000000000000e+03 1.5893087105544113e+01 1.1078491402550643e+01 7.1660816996020102e+01 
725 327 2 1.0279965276993561e+00 -3.7450913342887529e+03 4.2000000000000000e+03 1.5908553523173147e+01 1.0843255644646275e+01 7.1725066315670148e+01 
518 120 2 1.0279945961182053e+00 -2.1025294977320705e+03 4.2000000000000000e+03 1.5764276623718128e+01 1.1586896061616576e+01 7.1721055798102370e+01 
1592 1194 2 1.0279955232248430e+00 2.0513494303039129e+03 4.2000000000000000e+03 1.5910943873246451e+01 1.0737451976042415e+01 7.1760252300941687e+01 
1893 1495 2 1.0279997762242281e+00 1.0307934805457564e+04 4.2000000000000000e+03 1.5739552033040230e+01 1.1808649979415955e+01 7.1742603053129969e+01 
521 123 2 1.0279985824872357e+00 -1.6389477160964361e+03 4.2000000000000000e+03 1.7002820842653691e+01 1.0225558880954292e+01 7.1714589262142326e+01 
1442 1044 2 1.0279992799833868e+00 1.1537191288065746e+04 4.2000000000000000e+03 1.5773730190713586e+01 1.1103335830901404e+01 7.1804213047289309e+01 
1164 766 2 1.0279945746533832e+00 9.0765957208019586e+01 4.2000000000000000e+03 1.5634829171158689e+01 1.1114699452249454e+01 7.2045277136394475e+01 
1852 1454 2 1.0279894268796157e+00 -6.0625786835300087e+03 4.2000000000000000e+03 1.5577868325359342e+01 1.0606717341941042e+01 7.2115851267025917e+01 
1386 988 2 1.0280004258307787e+00 7.6065823692291542e+03 4.2000000000000000e+03 1.6038344626213124e+01 9.8117519070364825e+00 7.2116583673877003e+01 
657 259 2 1.0279908342929045e+00 -3.7523781697089260e+02 4.2000000000000000e+03 1.5533248933150549e+01 1.0860092522262658e+01 7.2214067658980056e+01 
1243 845 2 1.0280017452344719e+00 1.5345147394749078e+04 4.2000000000000000e+03 1.9147884355105035e+01 9.8346466648373774e+00 7.2225970064116979e+01 
801 403 2 1.0279940089557820e+00 -4.8475234124546438e+02 4.2000000000000000e+03 1.5148278011535540e+01 9.3791672472836165e+00 7.2339194724928262e+01 
535 137 2 1.0279983921990783e+00 -6.5035436475470897e+03 4.2000000000000000e+03 1.5688312507148494e+01 1.2091307885870737e+01 7.2306939260268990e+01 
463 65 2 1.0279886658459418e+00 -5.2226107781757437e+03 4.2000000000000000e+03 1.5267132687712026e+01 1.0196316806959745e+01 7.2378490066926929e+01 
892 494 2 1.0279911790431389e+00 -1.6397906824599380e+02 4.2000000000000000e+03 1.5045457158625659e+01 9.6881046350777034e+00 7.2398876904678247e+01 
1287 889 2 1.0279895478733345e+00 8.4006414308675187e+02 4.2000000000000000e+03 1.4885928085774200e+01 9.2692909814741320e+00 7.2395222477367440e+01 
1365 967 2 1.0279920432686951e+00 2.0544489282873915e+03 4.2000000000000000e+03 1.4816277567856519e+01 9.1752488713642979e+00 7.2404398359590076e+01 
837 439 2 1.0279936932056921e+00 -4.5110632509434690e+03 4.2000000000000000e+03 1.4999182385717511e+01 9.6653007469268317e+00 7.2416499754511960e+01 
2059 1661 2 1.0279981816577970e+00 -1.2000326956300494e+03 4.2000000000000000e+03 1.4018555136757247e+01 8.6870399405074519e+00 7.2583170825198124e+01 
1930 1532 2 1.0279969418116017e+00 4.5754207348811782e+01 4.2000000000000000e+03 1.4162969617226691e+01 8.9816303426618482e+00 7.2601326023687719e+01 
1340 942 2 1.0280026443468615e+00 3.4180585260401785e+03 4.2000000000000000e+03 1.5944433396399315e+01 1.2969253441755434e+01 7.2835190400565338e+01 
1290 892 2 1.0279910771635241e+00 -1.6227772625034356e+03 4.2000000000000000e+03 1.4705808110773111e+01 1.0015010287842660e+01 7.2873667568321480e+01 
771 373 2 1.0279937351042145e+00 4.0500888034127702e+03 4.2000000000000000e+03 1.4244911842363766e+01 6.8814097494575561e+00 7.2885739438071383e+01 
1450 1052 2 1.0279999269893754e+00 7.4889881314596169e+03 4.2000000000000000e+03 1.3310721241016141e+01 1.8753330681328364e+01 6.6943836401252014e+01 
1367 969 2 1.0280040319355037e+00 1.8190017337895792e+03 4.2000000000000000e+03 1.2809973956169067e+01 1.9361497342410850e+01 6.7660531735807425e+01 
1591 1193 2 1.0279970636491738e+00 2.3474393933264291e+03 4.2000000000000000e+03 1.2880939131387438e+01 1.9903585112263251e+01 6.8009581612310868e+01 
1768 1370 2 1.0280000456548326e+00 -5.6642092437554868e+02 4.2000000000000000e+03 1.2676062470129203e+01 1.8410697630001547e+01 6.8472107008075227e+01 
972 574 2 1.0279927451921211e+00 9.0944114376349735e+03 4.2000000000000000e+03 1.2723694227669588e+01 1.8442971961021783e+01 6.8953632182978822e+01 
1518 1120 2 1.0279977774860578e+00 8.2328214220281989e+03 4.2000000000000000e+03 1.3210768314510519e+01 1.7262577311838516e+01 6.9399920470749521e+01 
1143 745 2 1.0280026923929411e+00 2.7307005676075109e+03 4.2000000000000000e+03 1.3309267260590524e+01 1.7867722514675201e+01 7.0275806370202304e+01 
1203 805 2 1.0280005337607230e+00 2.9244222071608624e+03 4.2000000000000000e+03 1.3345279469550928e+01 1.8867912825779857e+01 6.6911634874960058e+01 
1097 699 2 1.0280005935022616e+00 -1.1943385910509610e+02 4.2000000000000000e+03 1.3533748070130439e+01 1.8747968740499424e+01 6.6813685961896653e+01 
1378 980 2 1.0279988100760344e+00 2.5022415884024817e+03 4.2000000000000000e+03 1.4638465974008600e+01 1.9856247306795048e+01 6.6802709196880286e+01 
1786 1388 2 1.0280029127880126e+00 3.0224310375353680e+03 4.2000000000000000e+03 1.4199309651144842e+01 1.7906951918559162e+01 6.6885333773423071e+01 
1482 1084 2 1.0280048191518787e+00 4.9329913513211795e+03 4.2000000000000000e+03 1.3450820363814353e+01 1.8971324487314000e+01 6.6845060933504215e+01 
1371 973 2 1.0279988676267839e+00 2.9210517551995945e+03 4.2000000000000000e+03 1.3419144232032616e+01 1.9297451701173564e+01 6.6889084261808620e+01 
978 580 2 1.0280029359925813e+00 4.9251429976134841e+03 4.2000000000000000e+03 1.3570583018823065e+01 1.9625919856041861e+01 6.6878645007587025e+01 
946 548 2 1.0280041465811673e+00 7.4831112966090577e+03 4.2000000000000000e+03 1.3535762980568943e+01 1.9680013219604206e+01 6.6914128408729908e+01 
610 212 2 1.0279934502139287e+00 3.0105889976454177e+03 4.2000000000000000e+03 1.4926252712207909e+01 1.7958695401676227e+01 6.6999409420555878e+01 
451 53 2 1.0280003417028079e+00 -7.4200958473186593e+03 4.2000000000000000e+03 1.3884230475267856e+01 1.7413143376820383e+01 6.7227015461462614e+01 
1746 1348 2 1.0280024105146224e+00 9.6174087336133780e+03 4.2000000000000000e+03 1.3405932151624999e+01 1.7702059736920340e+01 6.7285687354703242e+01 
885 487 2 1.0279986190335082e+00 1.6516267920754402e+04 4.2000000000000000e+03 1.4128941968274994e+01 1.7192417628774344e+01 6.7336912104975283e+01 
1989 1591 2 1.0279991023140296e+00 -4.7966384514113779e+03 4.2000000000000000e+03 1.3722395934613651e+01 1.7329748063621995e+01 6.7369263192334145e+01 
1014 616 2 1.0279994451721723e+00 8.2406338454373581e+03 4.2000000000000000e+03 1.3822953730601730e+01 1.7245351082599662e+01 6.7392817132674182e+01 
572 174 2 1.0279959178028826e+00 1.7462627623603730e+04 4.2000000000000000e+03 1.3651194878914568e+01 1.7320220530858705e+01 6.7422164832219067e+01 
1874 1476 2 1.0280007769114758e+00 -7.3396127927025987e+02 4.2000000000000000e+03 1.3952239003868199e+01 1.7099602398139677e+01 6.7474105942633386e+01 
1260 862 2 1.0279983722501973e+00 -5.2788093421968597e+03 4.2000000000000000e+03 1.3943262120287510e+01 1.7014321928523845e+01 6.7566177222351911e+01 
1679 1281 2 1.0280024118186881e+00 1.0798631597865867e+03 4.2000000000000000e+03 1.3906470853293976e+01 1.7022787818464291e+01 6.7575032025677359e+01 
825 427 2 1.0280025903793719e+00 -5.7916216720283355e+03 4.2000000000000000e+03 1.3615027888325699e+01 1.7106693845691765e+01 6.7683753944889702e+01 
1188 790 2 1.0279979496633598e+00 4.3565941023816149e+03 4.2000000000000000e+03 1.4651489128067244e+01 1.6724198153451038e+01 6.7750250069792074e+01 
1553 1155 2 1.0279978078148355e+00 8.8515539022683515e+03 4.2000000000000000e+03 1.4145326799720735e+01 1.6735570680745521e+01 6.7804956760306766e+01 
1302 904 2 1.0279960672813977e+00 1.3426974376054841e+03 4.2000000000000000e+03 1.4102151703998105e+01 1.6637167760219040e+01 6.7958722225712023e+01 
647 249 2 1.0279999615645414e+00 -4.2940871676746847e+03 4.2000000000000000e+03 1.3964585875703934e+01 1.6681391664831409e+01 6.7983512781045505e+01 
1917 1519 2 1.0279975952584972e+00 -1.2085497152801496e+04 4.2000000000000000e+03 1.4039702226588830e+01 1.6620490185602872e+01 6.8023223982601635e+01 
1284 886 2 1.0279999284787296e+00 3.1493919161013346e+03 4.2000000000000000e+03 1.3880910792141609e+01 1.6652653901326435e+01 6.8107104823236440e+01 
916 518 2 1.0279957330566574e+00 -1.5165108821840633e+03 4.2000000000000000e+03 1.4025595590069711e+01 1.6550284973572015e+01 6.8150655796215887e+01 
1343 945 2 1.0279977614620324e+00 7.6858670280041315e+03 4.2000000000000000e+03 1.3497244004065438e+01 1.6914774409090192e+01 6.8158126097406054e+01 
755 357 2 1.0280009558107037e+00 5.1048390687056462e+03 4.2000000000000000e+03 1.3782998449851489e+01 1.6673439167025606e+01 6.8186123149984155e+01 
746 348 2 1.0280018453999606e+00 -3.8296172452508526e+03 4.2000000000000000e+03 1.3859696027961146e+01 1.6609791697009868e+01 6.8213507760511987e+01 
2066 1668 2 1.0279986758751640e+00 -3.8323832727570702e+03 4.2000000000000000e+03 1.3619761793376066e+01 1.6737702003813499e+01 6.8325979149846617e+01 
674 276 2 1.0279960093819771e+00 -5.6357439203733211e+03 4.2000000000000000e+03 1.3993116378284993e+01 1.6457258398906223e+01 6.8366926891288657e+01 