LAMMPS data file via write_data, version 30 Jul 2016, timestep = 1000000

2080 atoms
8 atom types

0.0000000000000000e+00 4.0000000000000000e+01 xlo xhi
0.0000000000000000e+00 4.0000000000000000e+01 ylo yhi
0.0000000000000000e+00 1.0000000000000000e+02 zlo zhi

Masses

1 3.896
2 5.36
3 1058.08
4 8.378
5 8.378
6 8.378
7 8.378
8 8.378

Atoms # meso-molecular

1 2 4 2.2559723595316457e+00 1.0000000000000000e+00 4.2000000000000000e+03 0.0000000000000000e+00 0.0000000000000000e+00 2.5000000000000000e+00 
2 2 4 2.2559723595316457e+00 1.0000000000000000e+00 4.2000000000000000e+03 0.0000000000000000e+00 2.0000000000000000e+00 2.5000000000000000e+00 
3 2 4 2.2559723595316457e+00 1.0000000000000000e+00 4.2000000000000000e+03 0.0000000000000000e+00 4.0000000000000000e+00 2.5000000000000000e+00 
4 2 4 2.2559723595316457e+00 1.0000000000000000e+00 4.2000000000000000e+03 0.0000000000000000e+00 6.0000000000000000e+00 2.5000000000000000e+00 
21 2 4 2.2559723595316457e+00 1.0000000000000000e+00 4.2000000000000000e+03 2.0000000000000000e+00 0.0000000000000000e+00 2.5000000000000000e+00 
22 2 4 2.2559723595316457e+00 1.0000000000000000e+00 4.2000000000000000e+03 2.0000000000000000e+00 2.0000000000000000e+00 2.5000000000000000e+00 
23 2 4 2.2559723595316457e+00 1.0000000000000000e+00 4.2000000000000000e+03 2.0000000000000000e+00 4.0000000000000000e+00 2.5000000000000000e+00 
24 2 4 2.2559723595316457e+00 1.0000000000000000e+00 4.2000000000000000e+03 2.0000000000000000e+00 6.0000000000000000e+00 2.5000000000000000e+00 
41 2 4 2.2559723595316457e+00 1.0000000000000000e+00 4.2000000000000000e+03 4.0000000000000000e+00 0.0000000000000000e+00 2.5000000000000000e+00 
42 2 4 2.2559723595316457e+00 1.0000000000000000e+00 4.2000000000000000e+03 4.0000000000000000e+00 2.0000000000000000e+00 2.5000000000000000e+00 
43 2 4 2.2559723595316457e+00 1.0000000000000000e+00 4.2000000000000000e+03 4.0000000000000000e+00 4.0000000000000000e+00 2.5000000000000000e+00 
44 2 4 2.2559723595316457e+00 1.0000000000000000e+00 4.2000000000000000e+03 4.0000000000000000e+00 6.0000000000000000e+00 2.5000000000000000e+00 
61 2 4 2.2559723595316457e+00 1.0000000000000000e+00 4.2000000000000000e+03 6.0000000000000000e+00 0.0000000000000000e+00 2.5000000000000000e+00 
62 2 4 2.2559723595316457e+00 1.0000000000000000e+00 4.2000000000000000e+03 6.0000000000000000e+00 2.0000000000000000e+00 2.5000000000000000e+00 
63 2 4 2.2559723595316457e+00 1.0000000000000000e+00 4.2000000000000000e+03 6.0000000000000000e+00 4.0000000000000000e+00 2.5000000000000000e+00 
64 2 4 2.2559723595316457e+00 1.0000000000000000e+00 4.2000000000000000e+03 6.0000000000000000e+00 6.0000000000000000e+00 2.5000000000000000e+00 
81 2 4 2.2559723595316457e+00 1.0000000000000000e+00 4.2000000000000000e+03 8.0000000000000000e+00 0.0000000000000000e+00 2.5000000000000000e+00 
82 2 4 2.2559723595316457e+00 1.0000000000000000e+00 4.2000000000000000e+03 8.0000000000000000e+00 2.0000000000000000e+00 2.5000000000000000e+00 
83 2 4 2.2559723595316457e+00 1.0000000000000000e+00 4.2000000000000000e+03 8.0000000000000000e+00 4.0000000000000000e+00 2.5000000000000000e+00 
84 2 4 2.2559723595316457e+00 1.0000000000000000e+00 4.2000000000000000e+03 8.0000000000000000e+00 6.0000000000000000e+00 2.5000000000000000e+00 
101 2 4 2.2559723595316457e+00 1.0000000000000000e+00 4.2000000000000000e+03 1.0000000000000000e+01 0.0000000000000000e+00 2.5000000000000000e+00 
102 2 4 2.2559723595316457e+00 1.0000000000000000e+00 4.2000000000000000e+03 1.0000000000000000e+01 2.0000000000000000e+00 2.5000000000000000e+00 
103 2 4 2.2559723595316457e+00 1.0000000000000000e+00 4.2000000000000000e+03 1.0000000000000000e+01 4.0000000000000000e+00 2.5000000000000000e+00 
104 2 4 2.2559723595316457e+00 -1.0506807304611023e+00 4.2000000000000000e+03 1.0000000000000000e+01 6.0000000000000000e+00 2.5000000000000000e+00 
121 2 4 2.2559723595316457e+00 1.0000000000000000e+00 4.2000000000000000e+03 1.2000000000000000e+01 0.0000000000000000e+00 2.5000000000000000e+00 
122 2 4 2.2559723595316457e+00 1.0000000000000000e+00 4.2000000000000000e+03 1.2000000000000000e+01 2.0000000000000000e+00 2.5000000000000000e+00 
123 2 4 2.2559723595316457e+00 -1.0507292930923597e+00 4.2000000000000000e+03 1.2000000000000000e+01 4.0000000000000000e+00 2.5000000000000000e+00 
124 2 4 2.2559723595316457e+00 -8.8013046413099232e+01 4.2000000000000000e+03 1.2000000000000000e+01 6.0000000000000000e+00 2.5000000000000000e+00 
141 2 4 2.2559723595316457e+00 1.0000000000000000e+00 4.2000000000000000e+03 1.4000000000000000e+01 0.0000000000000000e+00 2.5000000000000000e+00 
142 2 4 2.2559723595316457e+00 1.0000000000000000e+00 4.2000000000000000e+03 1.4000000000000000e+01 2.0000000000000000e+00 2.5000000000000000e+00 
143 2 4 2.2559723595316457e+00 -3.0918908057742996e+01 4.2000000000000000e+03 1.4000000000000000e+01 4.0000000000000000e+00 2.5000000000000000e+00 
144 2 4 2.2559723595316457e+00 -4.2208080634096780e+02 4.2000000000000000e+03 1.4000000000000000e+01 6.0000000000000000e+00 2.5000000000000000e+00 
161 2 4 2.2559723595316457e+00 1.0000000000000000e+00 4.2000000000000000e+03 1.6000000000000000e+01 0.0000000000000000e+00 2.5000000000000000e+00 
162 2 4 2.2559723595316457e+00 1.0000000000000000e+00 4.2000000000000000e+03 1.6000000000000000e+01 2.0000000000000000e+00 2.5000000000000000e+00 
163 2 4 2.2559723595316457e+00 -8.7342390138159331e+01 4.2000000000000000e+03 1.6000000000000000e+01 4.0000000000000000e+00 2.5000000000000000e+00 
164 2 4 2.2559723595316457e+00 -9.3483796745059158e+02 4.2000000000000000e+03 1.6000000000000000e+01 6.0000000000000000e+00 2.5000000000000000e+00 
181 2 4 2.2559723595316457e+00 1.0000000000000000e+00 4.2000000000000000e+03 1.8000000000000000e+01 0.0000000000000000e+00 2.5000000000000000e+00 
182 2 4 2.2559723595316457e+00 1.0000000000000000e+00 4.2000000000000000e+03 1.8000000000000000e+01 2.0000000000000000e+00 2.5000000000000000e+00 
183 2 4 2.2559723595316457e+00 -1.2456429187919193e+02 4.2000000000000000e+03 1.8000000000000000e+01 4.0000000000000000e+00 2.5000000000000000e+00 
184 2 4 2.2559723595316457e+00 -1.3078272417473304e+03 4.2000000000000000e+03 1.8000000000000000e+01 6.0000000000000000e+00 2.5000000000000000e+00 
5 2 4 2.2559723595316457e+00 1.0000000000000000e+00 4.2000000000000000e+03 0.0000000000000000e+00 8.0000000000000000e+00 2.5000000000000000e+00 
6 2 4 2.2559723595316457e+00 1.0000000000000000e+00 4.2000000000000000e+03 0.0000000000000000e+00 1.0000000000000000e+01 2.5000000000000000e+00 
7 2 4 2.2559723595316457e+00 1.0000000000000000e+00 4.2000000000000000e+03 0.0000000000000000e+00 1.2000000000000000e+01 2.5000000000000000e+00 
25 2 4 2.2559723595316457e+00 1.0000000000000000e+00 4.2000000000000000e+03 2.0000000000000000e+00 8.0000000000000000e+00 2.5000000000000000e+00 
26 2 4 2.2559723595316457e+00 1.0000000000000000e+00 4.2000000000000000e+03 2.0000000000000000e+00 1.0000000000000000e+01 2.5000000000000000e+00 
27 2 4 2.2559723595316457e+00 1.0000000000000000e+00 4.2000000000000000e+03 2.0000000000000000e+00 1.2000000000000000e+01 2.5000000000000000e+00 
45 2 4 2.2559723595316457e+00 1.0000000000000000e+00 4.2000000000000000e+03 4.0000000000000000e+00 8.0000000000000000e+00 2.5000000000000000e+00 
46 2 4 2.2559723595316457e+00 1.0000000000000000e+00 4.2000000000000000e+03 4.0000000000000000e+00 1.0000000000000000e+01 2.5000000000000000e+00 
47 2 4 2.2559723595316457e+00 1.0000000000000000e+00 4.2000000000000000e+03 4.0000000000000000e+00 1.2000000000000000e+01 2.5000000000000000e+00 
65 2 4 2.2559723595316457e+00 1.0000000000000000e+00 4.2000000000000000e+03 6.0000000000000000e+00 8.0000000000000000e+00 2.5000000000000000e+00 
66 2 4 2.2559723595316457e+00 1.0000000000000000e+00 4.2000000000000000e+03 6.0000000000000000e+00 1.0000000000000000e+01 2.5000000000000000e+00 
67 2 4 2.2559723595316457e+00 1.0000000000000000e+00 4.2000000000000000e+03 6.0000000000000000e+00 1.2000000000000000e+01 2.5000000000000000e+00 
85 2 4 2.2559723595316457e+00 1.0000000000000000e+00 4.2000000000000000e+03 8.0000000000000000e+00 8.0000000000000000e+00 2.5000000000000000e+00 
86 2 4 2.2559723595316457e+00 1.0000000000000000e+00 4.2000000000000000e+03 8.0000000000000000e+00 1.0000000000000000e+01 2.5000000000000000e+00 
87 2 4 2.2559723595316457e+00 1.0000003492878073e+00 4.2000000000000000e+03 8.0000000000000000e+00 1.2000000000000000e+01 2.5000000000000000e+00 
105 2 4 2.2559723595316457e+00 -3.0929903853762593e+01 4.2000000000000000e+03 1.0000000000000000e+01 8.0000000000000000e+00 2.5000000000000000e+00 
106 2 4 2.2559723595316457e+00 -8.7675493160696846e+01 4.2000000000000000e+03 1.0000000000000000e+01 1.0000000000000000e+01 2.5000000000000000e+00 
107 2 4 2.2559723595316457e+00 -1.2696413979400013e+02 4.2000000000000000e+03 1.0000000000000000e+01 1.2000000000000000e+01 2.5000000000000000e+00 
125 2 4 2.2559723595316457e+00 -4.2250080917533671e+02 4.2000000000000000e+03 1.2000000000000000e+01 8.0000000000000000e+00 2.5000000000000000e+00 
126 2 4 2.2559723595316457e+00 -9.4079405742678398e+02 4.2000000000000000e+03 1.2000000000000000e+01 1.0000000000000000e+01 2.5000000000000000e+00 
127 2 4 2.2559723595316457e+00 -1.3423725296956575e+03 4.2000000000000000e+03 1.2000000000000000e+01 1.2000000000000000e+01 2.5000000000000000e+00 
145 2 4 2.2559723595316457e+00 -1.6041933202984346e+03 4.2000000000000000e+03 1.4000000000000000e+01 8.0000000000000000e+00 2.5000000000000000e+00 
146 2 4 2.2559723595316457e+00 -3.3228510794991935e+03 4.2000000000000000e+03 1.4000000000000000e+01 1.0000000000000000e+01 2.5000000000000000e+00 
147 2 4 2.2559723595316457e+00 -4.7001727209330265e+03 4.2000000000000000e+03 1.4000000000000000e+01 1.2000000000000000e+01 2.5000000000000000e+00 
165 2 4 2.2559723595316457e+00 -3.3042180134787041e+03 4.2000000000000000e+03 1.6000000000000000e+01 8.0000000000000000e+00 2.5000000000000000e+00 
166 2 4 2.2559723595316457e+00 -6.6925485047862749e+03 4.2000000000000000e+03 1.6000000000000000e+01 1.0000000000000000e+01 2.5000000000000000e+00 
167 2 4 2.2559723595316457e+00 -9.4504896552172449e+03 4.2000000000000000e+03 1.6000000000000000e+01 1.2000000000000000e+01 2.5000000000000000e+00 
185 2 4 2.2559723595316457e+00 -4.5691095043436580e+03 4.2000000000000000e+03 1.8000000000000000e+01 8.0000000000000000e+00 2.5000000000000000e+00 
186 2 4 2.2559723595316457e+00 -9.2300924282380947e+03 4.2000000000000000e+03 1.8000000000000000e+01 1.0000000000000000e+01 2.5000000000000000e+00 
187 2 4 2.2559723595316457e+00 -1.3049840725075959e+04 4.2000000000000000e+03 1.8000000000000000e+01 1.2000000000000000e+01 2.5000000000000000e+00 
8 2 4 2.2559723595316457e+00 1.0000000000000000e+00 4.2000000000000000e+03 0.0000000000000000e+00 1.4000000000000000e+01 2.5000000000000000e+00 
9 2 4 2.2559723595316457e+00 1.0000000000000000e+00 4.2000000000000000e+03 0.0000000000000000e+00 1.6000000000000000e+01 2.5000000000000000e+00 
10 2 4 2.2559723595316457e+00 1.0000000000000000e+00 4.2000000000000000e+03 0.0000000000000000e+00 1.8000000000000000e+01 2.5000000000000000e+00 
28 2 4 2.2559723595316457e+00 1.0000000000000000e+00 4.2000000000000000e+03 2.0000000000000000e+00 1.4000000000000000e+01 2.5000000000000000e+00 
29 2 4 2.2559723595316457e+00 1.0000000000000000e+00 4.2000000000000000e+03 2.0000000000000000e+00 1.6000000000000000e+01 2.5000000000000000e+00 
30 2 4 2.2559723595316457e+00 1.0000000000000000e+00 4.2000000000000000e+03 2.0000000000000000e+00 1.8000000000000000e+01 2.5000000000000000e+00 
48 2 4 2.2559723595316457e+00 1.0000000000000000e+00 4.2000000000000000e+03 4.0000000000000000e+00 1.4000000000000000e+01 2.5000000000000000e+00 
49 2 4 2.2559723595316457e+00 1.0000000000000000e+00 4.2000000000000000e+03 4.0000000000000000e+00 1.6000000000000000e+01 2.5000000000000000e+00 
50 2 4 2.2559723595316457e+00 1.0000000000000000e+00 4.2000000000000000e+03 4.0000000000000000e+00 1.8000000000000000e+01 2.5000000000000000e+00 
68 2 4 2.2559723595316457e+00 1.0000000000000000e+00 4.2000000000000000e+03 6.0000000000000000e+00 1.4000000000000000e+01 2.5000000000000000e+00 
69 2 4 2.2559723595316457e+00 1.0000231523165470e+00 4.2000000000000000e+03 6.0000000000000000e+00 1.6000000000000000e+01 2.5000000000000000e+00 
70 2 4 2.2559723595316457e+00 1.0009647744064822e+00 4.2000000000000000e+03 6.0000000000000000e+00 1.8000000000000000e+01 2.5000000000000000e+00 
88 2 4 2.2559723595316457e+00 9.9955745518394834e-01 4.2000000000000000e+03 8.0000000000000000e+00 1.4000000000000000e+01 2.5000000000000000e+00 
89 2 4 2.2559723595316457e+00 9.9904320570958238e-01 4.2000000000000000e+03 8.0000000000000000e+00 1.6000000000000000e+01 2.5000000000000000e+00 
90 2 4 2.2559723595316457e+00 1.0060093168335609e+00 4.2000000000000000e+03 8.0000000000000000e+00 1.8000000000000000e+01 2.5000000000000000e+00 
108 2 4 2.2559723595316457e+00 -1.3613055272064909e+02 4.2000000000000000e+03 1.0000000000000000e+01 1.4000000000000000e+01 2.5000000000000000e+00 
109 2 4 2.2559723595316457e+00 -1.3791537053836083e+02 4.2000000000000000e+03 1.0000000000000000e+01 1.6000000000000000e+01 2.5000000000000000e+00 
110 2 4 2.2559723595316457e+00 -1.3800653375785944e+02 4.2000000000000000e+03 1.0000000000000000e+01 1.8000000000000000e+01 2.5000000000000000e+00 
128 2 4 2.2559723595316457e+00 -1.4908025828074822e+03 4.2000000000000000e+03 1.2000000000000000e+01 1.4000000000000000e+01 2.5000000000000000e+00 
129 2 4 2.2559723595316457e+00 -1.5166263625909296e+03 4.2000000000000000e+03 1.2000000000000000e+01 1.6000000000000000e+01 2.5000000000000000e+00 
130 2 4 2.2559723595316457e+00 -1.5197932848704804e+03 4.2000000000000000e+03 1.2000000000000000e+01 1.8000000000000000e+01 2.5000000000000000e+00 
148 2 4 2.2559723595316457e+00 -5.2725245471661428e+03 4.2000000000000000e+03 1.4000000000000000e+01 1.4000000000000000e+01 2.5000000000000000e+00 
149 2 4 2.2559723595316457e+00 -5.3779493813418239e+03 4.2000000000000000e+03 1.4000000000000000e+01 1.6000000000000000e+01 2.5000000000000000e+00 
150 2 4 2.2559723595316457e+00 -5.3911378792195574e+03 4.2000000000000000e+03 1.4000000000000000e+01 1.8000000000000000e+01 2.5000000000000000e+00 
168 2 4 2.2559723595316457e+00 -1.0638693008874448e+04 4.2000000000000000e+03 1.6000000000000000e+01 1.4000000000000000e+01 2.5000000000000000e+00 
169 2 4 2.2559723595316457e+00 -1.0854915456447145e+04 4.2000000000000000e+03 1.6000000000000000e+01 1.6000000000000000e+01 2.5000000000000000e+00 
170 2 4 2.2559723595316457e+00 -1.0878287959944004e+04 4.2000000000000000e+03 1.6000000000000000e+01 1.8000000000000000e+01 2.5000000000000000e+00 
188 2 4 2.2559723595316457e+00 -1.4696624576986604e+04 4.2000000000000000e+03 1.8000000000000000e+01 1.4000000000000000e+01 2.5000000000000000e+00 
189 2 4 2.2559723595316457e+00 -1.4982304945584969e+04 4.2000000000000000e+03 1.8000000000000000e+01 1.6000000000000000e+01 2.5000000000000000e+00 
190 2 4 2.2559723595316457e+00 -1.5009687614640487e+04 4.2000000000000000e+03 1.8000000000000000e+01 1.8000000000000000e+01 2.5000000000000000e+00 
1367 969 2 1.0280000106818898e+00 1.8190005600278500e+03 4.2000000000000000e+03 1.2923300132994523e+01 1.9191688839034516e+01 5.3223576299827634e+01 
1378 980 2 1.0279999297929914e+00 2.5022358961066661e+03 4.2000000000000000e+03 1.4703327412040119e+01 1.9693619157733355e+01 5.2356707196797842e+01 
1097 699 2 1.0280000165216940e+00 -1.1943482926422114e+02 4.2000000000000000e+03 1.3623338580888321e+01 1.8565163061196138e+01 5.2384929223681965e+01 
1482 1084 2 1.0280000196820942e+00 4.9329902861512574e+03 4.2000000000000000e+03 1.3545978315249718e+01 1.8791849990237296e+01 5.2413987695699831e+01 
978 580 2 1.0279999842896757e+00 4.9251410293169047e+03 4.2000000000000000e+03 1.3676679621073161e+01 1.9454823079766644e+01 5.2446042515626807e+01 
1786 1388 2 1.0279999813345786e+00 3.0224296300039814e+03 4.2000000000000000e+03 1.4249021475137241e+01 1.7716733931649621e+01 5.2465949374128705e+01 
1371 973 2 1.0280000070751949e+00 2.9210504054013591e+03 4.2000000000000000e+03 1.3521266672565961e+01 1.9122808735725872e+01 5.2456147977079034e+01 
1203 805 2 1.0280000210647171e+00 2.9244213166017835e+03 4.2000000000000000e+03 1.3440669887724264e+01 1.8686726261201979e+01 5.2481618462041801e+01 
946 548 2 1.0279999796693571e+00 7.4831093026108092e+03 4.2000000000000000e+03 1.3644132181617184e+01 1.9509330934878164e+01 5.2481443659717783e+01 
1450 1052 2 1.0280000217660519e+00 7.4889873432923396e+03 4.2000000000000000e+03 1.3404961712553073e+01 1.8570346693328517e+01 5.2515280663396425e+01 
610 212 2 1.0280000066996002e+00 3.0105854401978577e+03 4.2000000000000000e+03 1.4938932758701435e+01 1.7765922669309358e+01 5.2546784008604945e+01 
1016 618 2 1.0279999490666882e+00 1.6095047602707682e+03 4.2000000000000000e+03 1.3491525287109262e+01 1.9893995592204440e+01 5.2785382225330295e+01 
451 53 2 1.0279999105002657e+00 -7.4200967301740857e+03 4.2000000000000000e+03 1.3944890768358835e+01 1.7226543722610089e+01 5.2833813421811314e+01 
1746 1348 2 1.0279999390638601e+00 9.6174081587465553e+03 4.2000000000000000e+03 1.3490857780311277e+01 1.7513706442255355e+01 5.2882455734819388e+01 
885 487 2 1.0279998764725891e+00 1.6516266732811389e+04 4.2000000000000000e+03 1.4172651505525824e+01 1.7008078389793745e+01 5.2951506184857948e+01 
1989 1591 2 1.0279998856743422e+00 -4.7966392508086165e+03 4.2000000000000000e+03 1.3793001439640872e+01 1.7145741348641366e+01 5.2980926226841035e+01 
1014 616 2 1.0279998708568086e+00 8.2406329534414654e+03 4.2000000000000000e+03 1.3887668452819590e+01 1.7062702019092104e+01 5.3008085936736293e+01 
572 174 2 1.0279998798036851e+00 1.7462626845495899e+04 4.2000000000000000e+03 1.3726300499090595e+01 1.7136850224001947e+01 5.3034220198069526e+01 
1874 1476 2 1.0279998410250502e+00 -7.3396233173495625e+02 4.2000000000000000e+03 1.4008762531154973e+01 1.6920132664057515e+01 5.3096000039342897e+01 
1260 862 2 1.0279998144312772e+00 -5.2788104426139607e+03 4.2000000000000000e+03 1.4001297846193754e+01 1.6838190430688741e+01 5.3192599609769822e+01 
1679 1281 2 1.0279998153054628e+00 1.0798620860535900e+03 4.2000000000000000e+03 1.3967316439261664e+01 1.6846733955062373e+01 5.3201058273151681e+01 
825 427 2 1.0279998156916195e+00 -5.7916226205432986e+03 4.2000000000000000e+03 1.3696692404016249e+01 1.6929958365520399e+01 5.3303994465816992e+01 
1176 778 2 1.0279999826270385e+00 -2.8625744259761808e+02 4.2000000000000000e+03 1.2699101559298107e+01 6.4181231858264987e+00 5.9431005002075317e+01 
1004 606 2 1.0279999784634528e+00 2.3296013373061278e+03 4.2000000000000000e+03 1.2919439589375608e+01 6.0306265975826658e+00 5.9462934323263561e+01 
1395 997 2 1.0279999853942494e+00 4.8903879841987673e+03 4.2000000000000000e+03 1.2747920180836987e+01 6.2137062443703162e+00 5.9474908459985556e+01 
1642 1244 2 1.0279999675491887e+00 3.4423334204240896e+03 4.2000000000000000e+03 1.3211623229341757e+01 5.7413708598488116e+00 5.9529765053190822e+01 
1686 1288 2 1.0279999783350124e+00 2.1057562752645026e+02 4.2000000000000000e+03 1.2908252748700406e+01 5.9288843014217898e+00 5.9530444031164159e+01 
1617 1219 2 1.0279999702716671e+00 -3.1625600033291475e+03 4.2000000000000000e+03 1.3124975274128373e+01 5.7585302621622381e+00 5.9547823841913250e+01 
748 350 2 1.0279999789805123e+00 -3.5995744308869166e+03 4.2000000000000000e+03 1.2901896711556290e+01 5.9050367893004925e+00 5.9549413197371578e+01 
1269 871 2 1.0279999714930244e+00 7.6393426908375000e+02 4.2000000000000000e+03 1.3096559129020557e+01 5.7385304749702382e+00 5.9574752859932758e+01 
1703 1305 2 1.0279999871987024e+00 -2.0918734320287140e+03 4.2000000000000000e+03 1.2672308502091042e+01 5.7124950305798654e+00 5.9845075163948735e+01 
512 114 2 1.0279999857778266e+00 -6.4619030809759315e+03 4.2000000000000000e+03 1.2691140849226231e+01 5.6906382348137425e+00 5.9849234183286733e+01 
1988 1590 2 1.0280000162505512e+00 -7.8908597766748326e+03 4.2000000000000000e+03 1.2129153396358159e+01 6.6619333340836295e+00 5.9965369467233124e+01 
771 373 2 1.0279999157062618e+00 4.0500898935564164e+03 4.2000000000000000e+03 1.4336885392471777e+01 6.5936054780128792e+00 5.8971662915228592e+01 
438 40 2 1.0279999515103961e+00 3.1607906498574685e+03 4.2000000000000000e+03 1.3826251549988038e+01 5.8132354836426279e+00 5.9391274220203123e+01 
1598 1200 2 1.0279999493953920e+00 6.4707931071624189e+03 4.2000000000000000e+03 1.4443404896480512e+01 5.9888452022028913e+00 5.9394573814708295e+01 
598 200 2 1.0279999537540523e+00 2.5154048356645894e+03 4.2000000000000000e+03 1.3674664043894584e+01 5.7934063220096599e+00 5.9405606989677501e+01 
1008 610 2 1.0279999521814365e+00 1.9560899050516728e+03 4.2000000000000000e+03 1.3976409729760213e+01 5.6770786103804616e+00 5.9523264169893309e+01 
977 579 2 1.0279999589075348e+00 -3.4900293245133926e+03 4.2000000000000000e+03 1.4688933554312875e+01 5.9494361618484106e+00 5.9553417929641228e+01 
529 131 2 1.0279999570568603e+00 -2.5337436533277182e+03 4.2000000000000000e+03 1.3777211672572548e+01 5.5959756516338448e+00 5.9575703462079176e+01 
922 524 2 1.0279999612761419e+00 7.5745924763929963e+02 4.2000000000000000e+03 1.3530272496863123e+01 5.5739038786889985e+00 5.9602935854419833e+01 
1477 1079 2 1.0279999580323274e+00 8.4345395184167216e+02 4.2000000000000000e+03 1.4411080119137120e+01 5.7119431609774898e+00 5.9628332403029070e+01 
422 24 2 1.0279999639050650e+00 -1.7800164117674483e+03 4.2000000000000000e+03 1.3394749999233714e+01 5.4844255898520613e+00 5.9710759548581720e+01 
550 152 2 1.0279999643790834e+00 -2.3447634633017014e+03 4.2000000000000000e+03 1.4661398010829785e+01 5.7307517911822101e+00 5.9751289542220128e+01 
1081 683 2 1.0279999668594626e+00 -5.9483974868395433e+02 4.2000000000000000e+03 1.4715401827821715e+01 5.7555105198293699e+00 5.9762163369620097e+01 
541 143 2 1.0279999611296917e+00 -4.7020330510951553e+03 4.2000000000000000e+03 1.4322192581852564e+01 5.4733636153545735e+00 5.9845105905168069e+01 
1096 698 2 1.0279999789482153e+00 2.5747548829488792e+03 4.2000000000000000e+03 1.4955293576441594e+01 5.7366019350333062e+00 5.9984023216276334e+01 
1274 876 2 1.0279999378032454e+00 4.8367432883441643e+03 4.2000000000000000e+03 1.2969061108208001e+01 7.0926450334180391e+00 5.9136933782453852e+01 
1136 738 2 1.0279999362552625e+00 3.8194438507963218e+03 4.2000000000000000e+03 1.2890658115488630e+01 7.3220032505602592e+00 5.9204701738150121e+01 
779 381 2 1.0279999710572367e+00 2.8939896035999031e+03 4.2000000000000000e+03 1.2793580450670323e+01 6.6870769874573366e+00 5.9295803428484902e+01 
958 560 2 1.0279998078082480e+00 1.3019998320213692e+03 4.2000000000000000e+03 1.3315088157727644e+01 8.5548216586307113e+00 5.9411786813206660e+01 
1971 1573 2 1.0279998902196072e+00 -6.3255090025494719e+03 4.2000000000000000e+03 1.2933719170431875e+01 8.2469244048525550e+00 5.9578759134279160e+01 
667 269 2 1.0279999299362272e+00 -2.2468540940962394e+03 4.2000000000000000e+03 1.2705702157477464e+01 8.0182501338561600e+00 5.9677082796340947e+01 
1180 782 2 1.0280002064623126e+00 1.8592321912181794e+03 4.2000000000000000e+03 1.7479899735438636e+01 1.3204455800968679e+01 5.5862714855206221e+01 
1997 1599 2 1.0280001940317616e+00 6.0843085040760919e+01 4.2000000000000000e+03 1.9088462808712421e+01 1.2114080711477264e+01 5.5873563943625115e+01 
1021 623 2 1.0279998098903216e+00 5.4653207279517237e+03 4.2000000000000000e+03 1.6541168060315357e+01 1.2983903399585333e+01 5.6161822719821181e+01 
985 587 2 1.0280002789349516e+00 9.5422335680246761e+03 4.2000000000000000e+03 1.9112025509187198e+01 1.1372118731136974e+01 5.6173227243218840e+01 
502 104 2 1.0280002914637514e+00 -5.5248494230041424e+03 4.2000000000000000e+03 1.9115212995849774e+01 1.1286284501233165e+01 5.6216282054498379e+01 
1317 919 2 1.0280002777660406e+00 -2.0998308414786585e+01 4.2000000000000000e+03 1.9459666781210050e+01 1.1077071394384420e+01 5.6314322476042065e+01 
1625 1227 2 1.0280003132907132e+00 -4.5750025647743269e+02 4.2000000000000000e+03 1.9237747772454107e+01 1.1050320994812106e+01 5.6338624435996273e+01 
1080 682 2 1.0279998215548225e+00 -7.6478536515957021e+03 4.2000000000000000e+03 1.6351609892593086e+01 1.2284208276861554e+01 5.6482864847576543e+01 
1336 938 2 1.0280002807850765e+00 2.6558986850060055e+03 4.2000000000000000e+03 1.7273319720182261e+01 1.1283427467638774e+01 5.6479789264647941e+01 
503 105 2 1.0279999258276860e+00 -5.5269949775016203e+03 4.2000000000000000e+03 1.6458196982973387e+01 1.1999722155998645e+01 5.6512933085311424e+01 
1320 922 2 1.0279999119379457e+00 -2.3952329483421259e+01 4.2000000000000000e+03 1.6411965042357810e+01 1.1929346641569214e+01 5.6572334849203529e+01 
794 396 2 1.0280002781401303e+00 7.6854974914813138e+03 4.2000000000000000e+03 1.9866137837869779e+01 1.0697884006672378e+01 5.6549067153953310e+01 
1628 1230 2 1.0280000896016623e+00 -4.6007128812891182e+02 4.2000000000000000e+03 1.6667222725470033e+01 1.1474743955649345e+01 5.6615530425092977e+01 
1945 1547 2 1.0280004431809024e+00 -2.7222692954595532e+03 4.2000000000000000e+03 1.8304280340301244e+01 1.0698005232979476e+01 5.6642975113493101e+01 
617 219 2 1.0279994046568666e+00 -2.9055370356195414e+02 4.2000000000000000e+03 1.5965131028550884e+01 1.2895973444171135e+01 5.6693855570646797e+01 
1948 1550 2 1.0280000910541125e+00 -2.7239541737246359e+03 4.2000000000000000e+03 1.6626783245450778e+01 1.1321026843716936e+01 5.6711456998935120e+01 
1333 935 2 1.0280004655095547e+00 2.6561876290796331e+03 4.2000000000000000e+03 1.8652224332996560e+01 1.0540077979399486e+01 5.6721748089969523e+01 
1212 814 2 1.0279996604523258e+00 3.1290848530075687e+03 4.2000000000000000e+03 1.6077964710845279e+01 1.2141174631591104e+01 5.6798296598153250e+01 
2000 1602 2 1.0279996098160187e+00 5.6085921806320442e+01 4.2000000000000000e+03 1.6037985928310281e+01 1.2278081340324835e+01 5.6798176631241397e+01 
988 590 2 1.0279996336090482e+00 9.5392852218561511e+03 4.2000000000000000e+03 1.5998683137687904e+01 1.1974327049179871e+01 5.6968780433636489e+01 
1994 1596 2 1.0279997741561480e+00 -8.5831389024753196e+02 4.2000000000000000e+03 1.6114524562826698e+01 1.1522666702532192e+01 5.7008991623202576e+01 
795 397 2 1.0279996857293137e+00 7.6811486188142799e+03 4.2000000000000000e+03 1.6028768940882070e+01 1.1735760644391746e+01 5.7022369500313829e+01 
1479 1081 2 1.0279996508829381e+00 5.0281352287546733e+03 4.2000000000000000e+03 1.5996459113156844e+01 1.1831080316558976e+01 5.7028566957416572e+01 
964 566 2 1.0279995808786613e+00 7.0810649813455839e+03 4.2000000000000000e+03 1.5908953754063642e+01 1.1945885482876571e+01 5.7126294731003526e+01 
1905 1507 2 1.0280000483139293e+00 -3.8386483961014433e+03 4.2000000000000000e+03 1.6382388213289019e+01 1.0671603547560919e+01 5.7211910474319808e+01 
1885 1487 2 1.0279995418461629e+00 -2.9621031252604175e+03 4.2000000000000000e+03 1.5837604492736958e+01 1.1986857347749330e+01 5.7260980398865797e+01 
1995 1597 2 1.0280004813752006e+00 -8.5567596841673321e+02 4.2000000000000000e+03 1.9812614909078626e+01 9.8759370412876457e+00 5.7231701895038846e+01 
945 547 2 1.0279995663071784e+00 3.6108818748189260e+03 4.2000000000000000e+03 1.5841366873630498e+01 1.1753967708463712e+01 5.7333042177617877e+01 
1242 844 2 1.0280002957929641e+00 1.5341394775915769e+04 4.2000000000000000e+03 1.6772250463429746e+01 1.0258963096887333e+01 5.7304186749363694e+01 
1126 728 2 1.0279995559221720e+00 2.4559257668482396e+03 4.2000000000000000e+03 1.5814376619980198e+01 1.1745594879492899e+01 5.7399126846999927e+01 
1280 882 2 1.0279995591349569e+00 3.0569106146170493e+03 4.2000000000000000e+03 1.5798825911320726e+01 1.1573868397936712e+01 5.7491375820401359e+01 
521 123 2 1.0280004062211003e+00 -1.6389471677311928e+03 4.2000000000000000e+03 1.6877861703499686e+01 9.9511218742241816e+00 5.7536865286811135e+01 
1062 664 2 1.0279995650872160e+00 8.7584369847882608e+03 4.2000000000000000e+03 1.5794584321337686e+01 1.1369613001514905e+01 5.7561798344323627e+01 
1979 1581 2 1.0279996276731069e+00 -8.4234552036915302e+03 4.2000000000000000e+03 1.5860407403987466e+01 1.0889797253258603e+01 5.7598084955667012e+01 
518 120 2 1.0279995490233675e+00 -2.1025312658642420e+03 4.2000000000000000e+03 1.5764603888348875e+01 1.1376629778586842e+01 5.7631764357097140e+01 
1893 1495 2 1.0279995431340212e+00 1.0307932718702676e+04 4.2000000000000000e+03 1.5745806929467884e+01 1.1587514951280022e+01 5.7637149625053368e+01 
725 327 2 1.0279996453172477e+00 -3.7450920824399473e+03 4.2000000000000000e+03 1.5869360394428124e+01 1.0658339219951673e+01 5.7670287970357521e+01 
1592 1194 2 1.0279996494990045e+00 2.0513487967796978e+03 4.2000000000000000e+03 1.5869773198340063e+01 1.0553542192732969e+01 5.7709102924766349e+01 
1442 1044 2 1.0279995455349156e+00 1.1537190096414639e+04 4.2000000000000000e+03 1.5767066338916926e+01 1.0908806238546870e+01 5.7743354030785575e+01 
1164 766 2 1.0279994628975342e+00 9.0764512180919425e+01 4.2000000000000000e+03 1.5658999509512132e+01 1.0905799206959188e+01 5.7977568204280828e+01 
1243 845 2 1.0280008502241000e+00 1.5345149322791554e+04 4.2000000000000000e+03 1.8998277316763819e+01 9.4346627974203141e+00 5.7985229041354508e+01 
1386 988 2 1.0279998181298973e+00 7.6065827584225171e+03 4.2000000000000000e+03 1.5972168294771732e+01 9.6084312605498052e+00 5.8066891324752469e+01 
1852 1454 2 1.0279993427843581e+00 -6.0625793639927269e+03 4.2000000000000000e+03 1.5610252350176935e+01 1.0409972840736200e+01 5.8095714236239274e+01 
535 137 2 1.0279996599962715e+00 -6.5035467042890941e+03 4.2000000000000000e+03 1.5682211960842219e+01 1.1841570291704878e+01 5.8151988721583820e+01 
657 259 2 1.0279993533576635e+00 -3.7523899418107487e+02 4.2000000000000000e+03 1.5579832950985164e+01 1.0646958647225233e+01 5.8164999689002912e+01 
801 403 2 1.0279992090780412e+00 -4.8475120987601900e+02 4.2000000000000000e+03 1.5186217239392477e+01 9.1697371372300456e+00 5.8433199900292024e+01 