LAMMPS data file via write_data, version 30 Jul 2016, timestep = 30300000

1920 atoms
8 atom types

0.0000000000000000e+00 4.0000000000000000e+01 xlo xhi
0.0000000000000000e+00 4.0000000000000000e+01 ylo yhi
0.0000000000000000e+00 1.0000000000000000e+02 zlo zhi

Masses

1 3.896
2 5.36
3 20.064
4 8.378
5 8.378
6 8.378
7 8.378
8 8.378

Atoms # meso-molecular

1 2 4 8.3445033784257294e-01 -2.2955661295223426e+03 1.0000000000000000e+00 0.0000000000000000e+00 0.0000000000000000e+00 2.5000000000000000e+00 
2 2 4 8.2992782184005798e-01 -9.4869318062491548e+03 1.0000000000000000e+00 0.0000000000000000e+00 2.0000000000000000e+00 2.5000000000000000e+00 
21 2 4 8.3936477014292554e-01 4.4269256654935100e+02 1.0000000000000000e+00 2.0000000000000000e+00 0.0000000000000000e+00 2.5000000000000000e+00 
22 2 4 8.3097800960332813e-01 6.1150320578492319e+03 1.0000000000000000e+00 2.0000000000000000e+00 2.0000000000000000e+00 2.5000000000000000e+00 
545 147 2 1.1555854395052012e+00 -6.4122744777234493e+03 1.0000000000000000e+00 1.0230019534837236e+00 3.0981630955071533e+00 1.7825149779522786e+00 
1613 1215 2 1.1583411937581054e+00 -9.3812775865315634e+03 1.0000000000000000e+00 2.5660496968862012e+00 7.0918648106896298e-01 1.8083831100042664e+00 
581 183 2 1.1480757703638347e+00 -3.5285759120585399e+03 1.0000000000000000e+00 3.0702720546779081e+00 2.8615117461670896e+00 3.2342305141341501e+00 
1840 1442 2 1.1655996796729280e+00 2.4841567053629733e+03 1.0000000000000000e+00 9.0831911262294729e-02 9.4034558345515973e-01 3.1551693750118832e+00 
41 2 4 8.2207606963402780e-01 6.2578919895329254e+03 1.0000000000000000e+00 4.0000000000000000e+00 0.0000000000000000e+00 2.5000000000000000e+00 
42 2 4 8.3613988809832418e-01 6.7497397359754659e+03 1.0000000000000000e+00 4.0000000000000000e+00 2.0000000000000000e+00 2.5000000000000000e+00 
61 2 4 8.2820738265385563e-01 -8.6387057168524098e+03 1.0000000000000000e+00 6.0000000000000000e+00 0.0000000000000000e+00 2.5000000000000000e+00 
62 2 4 8.1772438061614250e-01 -2.4963452840078357e+01 1.0000000000000000e+00 6.0000000000000000e+00 2.0000000000000000e+00 2.5000000000000000e+00 
1136 738 2 1.1643024390838630e+00 -3.5065243222060581e+03 1.0000000000000000e+00 4.8082945280386209e+00 7.3460072938490251e-01 3.1923302517048233e+00 
1831 1433 2 1.1661272860459257e+00 -1.0117114596696594e+04 1.0000000000000000e+00 5.1900494310080045e+00 3.0463587144601973e+00 1.8039544405526051e+00 
1406 1008 2 1.1648855323739651e+00 -2.8428190991839610e+03 1.0000000000000000e+00 7.0614048043663713e+00 1.1287269582578126e+00 1.8033248265935524e+00 
570 172 2 1.1606987521016376e+00 -6.8735049556855597e+02 1.0000000000000000e+00 7.4638802846540271e+00 3.4305698811868517e+00 3.1805928183838743e+00 
81 2 4 8.2618794895902803e-01 -1.2432454713942112e+04 1.0000000000000000e+00 8.0000000000000000e+00 0.0000000000000000e+00 2.5000000000000000e+00 
82 2 4 8.2502825719365869e-01 1.0132142078310193e+04 1.0000000000000000e+00 8.0000000000000000e+00 2.0000000000000000e+00 2.5000000000000000e+00 
101 2 4 8.1475670034897951e-01 -8.2412516524809382e+02 1.0000000000000000e+00 1.0000000000000000e+01 0.0000000000000000e+00 2.5000000000000000e+00 
102 2 4 8.3800754041103742e-01 -1.0901841709856203e+03 1.0000000000000000e+00 1.0000000000000000e+01 2.0000000000000000e+00 2.5000000000000000e+00 
837 439 2 1.1582783292060757e+00 -2.9484330037580230e+03 1.0000000000000000e+00 9.4456804717999159e+00 2.4202027786272025e+00 1.8188689759440395e+00 
1612 1214 2 1.1661023889786488e+00 -2.5614177119353690e+03 1.0000000000000000e+00 1.1528240548830626e+01 1.0738321063793312e+00 3.1801596861627988e+00 
1402 1004 2 1.1637308606914918e+00 -3.2424163192123806e+03 1.0000000000000000e+00 1.1059510966751203e+01 3.8134253139423921e+00 3.1670775576985650e+00 
1760 1362 2 1.1738059175677069e+00 -2.8283505689055119e+03 1.0000000000000000e+00 9.1598244532318063e+00 6.6278945147782237e-02 3.1449980051990210e+00 
701 303 2 1.1720950434145929e+00 3.8635958151141704e+03 1.0000000000000000e+00 1.3317200114672863e+01 2.4889666706091984e+00 1.8250775583500467e+00 
121 2 4 8.2538312146595216e-01 -8.2927229141779098e+03 1.0000000000000000e+00 1.2000000000000000e+01 0.0000000000000000e+00 2.5000000000000000e+00 
122 2 4 8.2303339827201860e-01 1.3081106275563386e+03 1.0000000000000000e+00 1.2000000000000000e+01 2.0000000000000000e+00 2.5000000000000000e+00 
141 2 4 8.4504350603769984e-01 1.3920550431943950e+03 1.0000000000000000e+00 1.4000000000000000e+01 0.0000000000000000e+00 2.5000000000000000e+00 
142 2 4 7.9895250766570780e-01 9.7578213928240439e+03 1.0000000000000000e+00 1.4000000000000000e+01 2.0000000000000000e+00 2.5000000000000000e+00 
1765 1367 2 1.1572335942222673e+00 5.3777274308231899e+03 1.0000000000000000e+00 1.5089707840334352e+01 3.6694323366782235e+00 3.1866677965051160e+00 
567 169 2 1.1717791126562822e+00 -1.2797410193503181e+04 1.0000000000000000e+00 1.5971187654439623e+01 1.5391334616474137e+00 1.8670613887277463e+00 
1735 1337 2 1.1617502923642544e+00 -3.8430392133595930e+01 1.0000000000000000e+00 1.3470097472848451e+01 4.1339379831973562e-02 1.8279476436909021e+00 
161 2 4 8.2867042185626294e-01 -2.9367454089411067e+03 1.0000000000000000e+00 1.6000000000000000e+01 0.0000000000000000e+00 2.5000000000000000e+00 
162 2 4 8.3430370940831566e-01 1.4833835511852521e+04 1.0000000000000000e+00 1.6000000000000000e+01 2.0000000000000000e+00 2.5000000000000000e+00 
181 2 4 8.1959343725063993e-01 5.7181313665192265e+03 1.0000000000000000e+00 1.8000000000000000e+01 0.0000000000000000e+00 2.5000000000000000e+00 
182 2 4 7.9244782367607114e-01 1.0105331805586466e+04 1.0000000000000000e+00 1.8000000000000000e+01 2.0000000000000000e+00 2.5000000000000000e+00 
1885 1487 2 1.1863091705754440e+00 -1.3740814339441349e+03 1.0000000000000000e+00 1.8704396904649609e+01 1.8822814569486921e+00 1.8797429750838199e+00 
3 2 4 8.3472973232955094e-01 1.2339893781840983e+04 1.0000000000000000e+00 0.0000000000000000e+00 4.0000000000000000e+00 2.5000000000000000e+00 
4 2 4 8.1790948230217875e-01 1.0162816067949610e+04 1.0000000000000000e+00 0.0000000000000000e+00 6.0000000000000000e+00 2.5000000000000000e+00 
23 2 4 8.2841384527514306e-01 2.8495757678659879e+03 1.0000000000000000e+00 2.0000000000000000e+00 4.0000000000000000e+00 2.5000000000000000e+00 
24 2 4 8.2064791066106868e-01 -1.7866987618537332e+03 1.0000000000000000e+00 2.0000000000000000e+00 6.0000000000000000e+00 2.5000000000000000e+00 
1003 605 2 1.1638000345264135e+00 -3.1513999160807361e+03 1.0000000000000000e+00 3.1012692939786755e+00 4.8895430878477786e+00 1.7969630275201818e+00 
1159 761 2 1.1654580016604079e+00 -4.1256969774827921e+03 1.0000000000000000e+00 2.1508870224096239e+00 7.3219995948756216e+00 1.8402265246067950e+00 
1162 764 2 1.1717331775816335e+00 -5.6751976888871013e+03 1.0000000000000000e+00 6.4396333033653808e-01 5.5768313421566527e+00 3.1547933511837911e+00 
1374 976 2 1.1556919104700041e+00 -3.7020496412214397e+03 1.0000000000000000e+00 4.4379270666970809e+00 6.7244647565740632e+00 3.1903832524901885e+00 
43 2 4 8.1930189075375603e-01 -5.8076489724564653e+03 1.0000000000000000e+00 4.0000000000000000e+00 4.0000000000000000e+00 2.5000000000000000e+00 
44 2 4 8.4015216603512466e-01 2.1696321884791514e+03 1.0000000000000000e+00 4.0000000000000000e+00 6.0000000000000000e+00 2.5000000000000000e+00 
63 2 4 8.2593383882923432e-01 3.3127411623025546e+02 1.0000000000000000e+00 6.0000000000000000e+00 4.0000000000000000e+00 2.5000000000000000e+00 
64 2 4 8.4254735698569216e-01 -1.4895432900779875e+02 1.0000000000000000e+00 6.0000000000000000e+00 6.0000000000000000e+00 2.5000000000000000e+00 
1289 891 2 1.1598768144305316e+00 -2.8895887916126976e+03 1.0000000000000000e+00 6.3604789271993436e+00 5.4001297764264429e+00 1.8230389295241249e+00 
784 386 2 1.1619232361282164e+00 -4.0080060578166235e+03 1.0000000000000000e+00 7.4681333113818029e+00 7.2683728550806972e+00 3.1866611556440412e+00 
811 413 2 1.1756526255037696e+00 -6.4313802422332428e+03 1.0000000000000000e+00 9.0671567186559106e+00 5.3235673530088032e+00 1.8311103247682499e+00 
83 2 4 8.2743599520699540e-01 1.2217195542259222e+04 1.0000000000000000e+00 8.0000000000000000e+00 4.0000000000000000e+00 2.5000000000000000e+00 
84 2 4 8.1198866904273692e-01 -1.2009007769220569e+04 1.0000000000000000e+00 8.0000000000000000e+00 6.0000000000000000e+00 2.5000000000000000e+00 
103 2 4 8.1946035806068440e-01 2.9336076666324188e+03 1.0000000000000000e+00 1.0000000000000000e+01 4.0000000000000000e+00 2.5000000000000000e+00 
104 2 4 8.2386635089052207e-01 1.6649759161510228e+03 1.0000000000000000e+00 1.0000000000000000e+01 6.0000000000000000e+00 2.5000000000000000e+00 
689 291 2 1.1663482058497290e+00 8.5400393647556245e+02 1.0000000000000000e+00 1.1108662167664392e+01 6.5036419522314564e+00 3.1777862505258825e+00 
752 354 2 1.1710240414382225e+00 -8.6118860696436263e+02 1.0000000000000000e+00 1.2963321594152504e+01 5.0760290793723781e+00 1.8057985480874916e+00 
123 2 4 8.3329223955398979e-01 6.2663349050531961e+03 1.0000000000000000e+00 1.2000000000000000e+01 4.0000000000000000e+00 2.5000000000000000e+00 
124 2 4 8.3413860000139572e-01 4.3030256855084253e+03 1.0000000000000000e+00 1.2000000000000000e+01 6.0000000000000000e+00 2.5000000000000000e+00 
143 2 4 8.3195372696128400e-01 -1.9855479132625874e+03 1.0000000000000000e+00 1.4000000000000000e+01 4.0000000000000000e+00 2.5000000000000000e+00 
144 2 4 7.9791844529623168e-01 7.8034883802912791e+03 1.0000000000000000e+00 1.4000000000000000e+01 6.0000000000000000e+00 2.5000000000000000e+00 
517 119 2 1.1854393621487114e+00 8.0000287539186399e+02 1.0000000000000000e+00 1.3403723633338725e+01 7.6046225007220798e+00 1.8615491106746955e+00 
686 288 2 1.1690354354936752e+00 -6.9294987408974612e+02 1.0000000000000000e+00 1.5349368753800507e+01 5.9127767125154103e+00 1.8446348563927397e+00 
842 444 2 1.1811049447425437e+00 -7.4172003569185936e+03 1.0000000000000000e+00 1.7473556571105654e+01 4.0909846927349243e+00 1.8773981315772323e+00 
163 2 4 8.2964766162749093e-01 8.9056739350812149e+03 1.0000000000000000e+00 1.6000000000000000e+01 4.0000000000000000e+00 2.5000000000000000e+00 
164 2 4 8.4133633502568639e-01 -4.1786180197252779e+03 1.0000000000000000e+00 1.6000000000000000e+01 6.0000000000000000e+00 2.5000000000000000e+00 
183 2 4 8.0533961818644306e-01 4.2881997371639618e+03 1.0000000000000000e+00 1.8000000000000000e+01 4.0000000000000000e+00 2.5000000000000000e+00 
184 2 4 8.3038902497250588e-01 -2.9182870924273320e+03 1.0000000000000000e+00 1.8000000000000000e+01 6.0000000000000000e+00 2.5000000000000000e+00 
420 22 2 1.1603874015889961e+00 -2.4139067800913353e+03 1.0000000000000000e+00 1.7551020573534213e+01 6.5525900165833280e+00 3.1753708153491353e+00 
1007 609 2 1.1769411662813438e+00 -2.6803910868334679e+03 1.0000000000000000e+00 1.9772746882601453e+01 5.4958074254401854e+00 1.8625210579452698e+00 
5 2 4 8.0955040448664961e-01 -2.6774999084868214e+03 1.0000000000000000e+00 0.0000000000000000e+00 8.0000000000000000e+00 2.5000000000000000e+00 
6 2 4 8.4503631849676331e-01 -2.0499176786105772e+03 1.0000000000000000e+00 0.0000000000000000e+00 1.0000000000000000e+01 2.5000000000000000e+00 
25 2 4 8.3030551259542718e-01 1.3431839648652434e+04 1.0000000000000000e+00 2.0000000000000000e+00 8.0000000000000000e+00 2.5000000000000000e+00 
26 2 4 8.3711895967645100e-01 -2.4570887025710113e+02 1.0000000000000000e+00 2.0000000000000000e+00 1.0000000000000000e+01 2.5000000000000000e+00 
1155 757 2 1.1608024896313018e+00 -2.3370359259439206e+03 1.0000000000000000e+00 1.0358421004917557e+00 9.7775972084916933e+00 1.8252769751485607e+00 
1228 830 2 1.1671301458262799e+00 -5.6865500308812479e+03 1.0000000000000000e+00 2.9265039031882267e+00 1.1616892669253044e+01 1.8299254352781493e+00 
1459 1061 2 1.1624425270521299e+00 9.8127336907664343e+01 1.0000000000000000e+00 3.2699330731204941e+00 9.2582583445385236e+00 3.1952084135646790e+00 
862 464 2 1.1614964881975181e+00 1.5224774518899580e+03 1.0000000000000000e+00 5.4802756555108774e+00 8.6114113963532510e+00 1.8182995696195445e+00 
45 2 4 8.2780779706379104e-01 -1.0575483024664911e+03 1.0000000000000000e+00 4.0000000000000000e+00 8.0000000000000000e+00 2.5000000000000000e+00 
46 2 4 8.1931010901514645e-01 8.0999843043916862e+03 1.0000000000000000e+00 4.0000000000000000e+00 1.0000000000000000e+01 2.5000000000000000e+00 
65 2 4 8.2723260571190504e-01 -1.0628653479972647e+03 1.0000000000000000e+00 6.0000000000000000e+00 8.0000000000000000e+00 2.5000000000000000e+00 
66 2 4 8.2992163076082126e-01 -1.6981530667054722e+03 1.0000000000000000e+00 6.0000000000000000e+00 1.0000000000000000e+01 2.5000000000000000e+00 
533 135 2 1.1642358143869669e+00 -4.0132185772570115e+03 1.0000000000000000e+00 5.2548306098786028e+00 1.0930899825192684e+01 3.1943376698157482e+00 
917 519 2 1.1799649667671486e+00 -1.2851489576559734e+03 1.0000000000000000e+00 7.5833055148707009e+00 1.0240079857047698e+01 1.8754196964985563e+00 
1404 1006 2 1.1609123472604812e+00 1.3180511486889168e+03 1.0000000000000000e+00 9.4231988206197332e+00 8.1940897154509411e+00 1.8357328579931560e+00 
1824 1426 2 1.1659267441041412e+00 1.6227842194571044e+03 1.0000000000000000e+00 1.0099620695388699e+01 1.0784615602095803e+01 1.8396392435394249e+00 
85 2 4 8.2848009457832328e-01 8.6186274009607350e+03 1.0000000000000000e+00 8.0000000000000000e+00 8.0000000000000000e+00 2.5000000000000000e+00 
86 2 4 8.1170374998173667e-01 5.2214264515861514e+03 1.0000000000000000e+00 8.0000000000000000e+00 1.0000000000000000e+01 2.5000000000000000e+00 
105 2 4 8.4293035520702819e-01 1.0499881224257946e+04 1.0000000000000000e+00 1.0000000000000000e+01 8.0000000000000000e+00 2.5000000000000000e+00 
106 2 4 8.1982471825916381e-01 1.9495765659474173e+03 1.0000000000000000e+00 1.0000000000000000e+01 1.0000000000000000e+01 2.5000000000000000e+00 
415 17 2 1.1613512931141132e+00 -1.0961928490350824e+03 1.0000000000000000e+00 1.1603738501238512e+01 9.0905898119169244e+00 3.1822498460734483e+00 
821 423 2 1.1574954402802213e+00 -1.7106919428662441e+03 1.0000000000000000e+00 1.3662014101366749e+01 1.0120390364267605e+01 1.8312199572284400e+00 
125 2 4 8.2135028472935645e-01 -1.2078425717950777e+03 1.0000000000000000e+00 1.2000000000000000e+01 8.0000000000000000e+00 2.5000000000000000e+00 
126 2 4 8.3353298154035727e-01 4.1447418303819086e+03 1.0000000000000000e+00 1.2000000000000000e+01 1.0000000000000000e+01 2.5000000000000000e+00 
145 2 4 7.9703504301091577e-01 1.4971844369435289e+03 1.0000000000000000e+00 1.4000000000000000e+01 8.0000000000000000e+00 2.5000000000000000e+00 
146 2 4 8.4184889559825093e-01 -2.1155422791639112e+03 1.0000000000000000e+00 1.4000000000000000e+01 1.0000000000000000e+01 2.5000000000000000e+00 
1914 1516 2 1.1628916513402106e+00 -6.1245757274532989e+03 1.0000000000000000e+00 1.5676925695273967e+01 1.0984369324574160e+01 3.1763252016926797e+00 
853 455 2 1.1490997311689508e+00 -9.3407557578555170e+03 1.0000000000000000e+00 1.2126831207147625e+01 1.1780719914391780e+01 3.1773335913807288e+00 
890 492 2 1.1760999965591432e+00 -2.2851374066624421e+03 1.0000000000000000e+00 1.5939704610977193e+01 8.5254901451857119e+00 1.8718000108363093e+00 
824 426 2 1.1506210935595402e+00 -3.3411902340791671e+03 1.0000000000000000e+00 1.9153916718116125e+01 8.0063002005088570e+00 1.8050808341914797e+00 
979 581 2 1.1513402051243664e+00 -2.5085756692895211e+03 1.0000000000000000e+00 1.7952577585088676e+01 9.6966984325131431e+00 3.1779469011861536e+00 
165 2 4 8.1782550590446645e-01 7.5918343859327933e+01 1.0000000000000000e+00 1.6000000000000000e+01 8.0000000000000000e+00 2.5000000000000000e+00 
166 2 4 8.2266659023837407e-01 1.1104813716489440e+04 1.0000000000000000e+00 1.6000000000000000e+01 1.0000000000000000e+01 2.5000000000000000e+00 
185 2 4 8.3052856337469261e-01 1.1814666228795586e+04 1.0000000000000000e+00 1.8000000000000000e+01 8.0000000000000000e+00 2.5000000000000000e+00 
186 2 4 8.4936056387948689e-01 3.1635384973774362e+03 1.0000000000000000e+00 1.8000000000000000e+01 1.0000000000000000e+01 2.5000000000000000e+00 
901 503 2 1.1733604339359469e+00 2.1202211004209553e+03 1.0000000000000000e+00 5.2585227398838252e-01 1.2078644296600599e+01 3.1345015124132520e+00 
7 2 4 8.1312014418740941e-01 4.4046040798045706e+03 1.0000000000000000e+00 0.0000000000000000e+00 1.2000000000000000e+01 2.5000000000000000e+00 
8 2 4 8.2300455015210161e-01 1.1631714768999105e+04 1.0000000000000000e+00 0.0000000000000000e+00 1.4000000000000000e+01 2.5000000000000000e+00 
27 2 4 8.1591294636144174e-01 -2.5053514578467866e+03 1.0000000000000000e+00 2.0000000000000000e+00 1.2000000000000000e+01 2.5000000000000000e+00 
28 2 4 8.3119399783054904e-01 6.0469262059835910e+02 1.0000000000000000e+00 2.0000000000000000e+00 1.4000000000000000e+01 2.5000000000000000e+00 
1776 1378 2 1.1657429986839676e+00 3.1299727437549063e+03 1.0000000000000000e+00 1.6819773593730203e+00 1.4108539937164869e+01 1.8580932181460483e+00 
691 293 2 1.1580201414374043e+00 -1.2969358007468654e+03 1.0000000000000000e+00 4.1100412492888525e+00 1.3496680823448527e+01 3.1636177649900228e+00 
863 465 2 1.1543419362012377e+00 4.3710210358721594e+02 1.0000000000000000e+00 6.4444066345497255e+00 1.2850289600429903e+01 1.8027557675039165e+00 
47 2 4 8.3039817708259589e-01 2.7509011997197367e+03 1.0000000000000000e+00 4.0000000000000000e+00 1.2000000000000000e+01 2.5000000000000000e+00 
48 2 4 8.4045475883286302e-01 3.0197056387383091e+03 1.0000000000000000e+00 4.0000000000000000e+00 1.4000000000000000e+01 2.5000000000000000e+00 
67 2 4 8.3945739042475298e-01 -1.6281301717040151e+03 1.0000000000000000e+00 6.0000000000000000e+00 1.2000000000000000e+01 2.5000000000000000e+00 
68 2 4 8.3698749130102801e-01 5.2960902184263987e+03 1.0000000000000000e+00 6.0000000000000000e+00 1.4000000000000000e+01 2.5000000000000000e+00 
1186 788 2 1.1478227867854360e+00 3.8545426700661628e+03 1.0000000000000000e+00 4.6503484801151318e+00 1.5666627327866497e+01 1.8020879065109865e+00 
1915 1517 2 1.1468925590841399e+00 -4.5846525190891716e+03 1.0000000000000000e+00 6.6600378704562546e+00 1.4993118926086181e+01 3.2309080342416849e+00 
541 143 2 1.1636716074171989e+00 -1.1466402426079741e+04 1.0000000000000000e+00 1.0621095708378478e+01 1.3501121412963034e+01 1.8196940860554063e+00 
1011 613 2 1.1617312569407199e+00 -1.3047135154854577e+03 1.0000000000000000e+00 8.5995055113763232e+00 1.2597569190436404e+01 3.1839204598875610e+00 
1027 629 2 1.1634331102748983e+00 -4.3492690968606194e+03 1.0000000000000000e+00 8.6128689452464826e+00 1.5070970907592796e+01 1.7992550982639468e+00 
87 2 4 8.2625616835374971e-01 -4.0321191896905839e+03 1.0000000000000000e+00 8.0000000000000000e+00 1.2000000000000000e+01 2.5000000000000000e+00 
88 2 4 8.2655376945222803e-01 8.4860654736370234e+03 1.0000000000000000e+00 8.0000000000000000e+00 1.4000000000000000e+01 2.5000000000000000e+00 
107 2 4 8.2819997547552282e-01 -1.7950048646418081e+03 1.0000000000000000e+00 1.0000000000000000e+01 1.2000000000000000e+01 2.5000000000000000e+00 
108 2 4 8.1625723278716689e-01 -4.9256060369588104e+03 1.0000000000000000e+00 1.0000000000000000e+01 1.4000000000000000e+01 2.5000000000000000e+00 
737 339 2 1.1539958324157329e+00 -3.5270581288199392e+03 1.0000000000000000e+00 1.2661404006653639e+01 1.4519306236338679e+01 3.1956640830809828e+00 
553 155 2 1.1540336921946672e+00 -4.6700064381698903e+03 1.0000000000000000e+00 1.4144701304183169e+01 1.2785752850457039e+01 1.8176188911347888e+00 
127 2 4 8.5278808789810279e-01 5.4946343644929675e+03 1.0000000000000000e+00 1.2000000000000000e+01 1.2000000000000000e+01 2.5000000000000000e+00 
128 2 4 8.4003976115996126e-01 9.5994673128145635e+01 1.0000000000000000e+00 1.2000000000000000e+01 1.4000000000000000e+01 2.5000000000000000e+00 
147 2 4 8.3584294159081884e-01 3.1245971123869822e+03 1.0000000000000000e+00 1.4000000000000000e+01 1.2000000000000000e+01 2.5000000000000000e+00 
148 2 4 8.3376129455649284e-01 -4.3838740068952648e+03 1.0000000000000000e+00 1.4000000000000000e+01 1.4000000000000000e+01 2.5000000000000000e+00 
1315 917 2 1.1596253375657011e+00 -1.0135034568112355e+01 1.0000000000000000e+00 1.4568146709713211e+01 1.5580121721978323e+01 1.8241696829764729e+00 
437 39 2 1.1671009353001274e+00 1.4567947422965526e+03 1.0000000000000000e+00 1.7739660243071565e+01 1.2077604252852520e+01 1.8575051143480328e+00 
1012 614 2 1.1456334495815299e+00 4.6249846530648540e+02 1.0000000000000000e+00 1.6080865829258851e+01 1.3675420000608925e+01 3.1913752515272740e+00 
167 2 4 8.2604511814710690e-01 7.1318640769902242e+02 1.0000000000000000e+00 1.6000000000000000e+01 1.2000000000000000e+01 2.5000000000000000e+00 
168 2 4 8.5777680743423756e-01 1.5632525338356818e+03 1.0000000000000000e+00 1.6000000000000000e+01 1.4000000000000000e+01 2.5000000000000000e+00 
187 2 4 8.2957921403726953e-01 1.3454370233323702e+03 1.0000000000000000e+00 1.8000000000000000e+01 1.2000000000000000e+01 2.5000000000000000e+00 
188 2 4 8.1839012609236583e-01 2.0007189594074557e+03 1.0000000000000000e+00 1.8000000000000000e+01 1.4000000000000000e+01 2.5000000000000000e+00 
578 180 2 1.1512473722460297e+00 -8.4754477180290132e+02 1.0000000000000000e+00 1.7821624249024492e+01 1.4739830484843937e+01 1.7990578974883369e+00 
1009 611 2 1.1493267613934046e+00 -3.0104363080282656e+03 1.0000000000000000e+00 1.9573208042782685e+01 1.5796735313637436e+01 3.1880496164280228e+00 
539 141 2 1.1500414610825631e+00 -4.7105331902529033e+03 1.0000000000000000e+00 2.5258039720111483e+00 1.6362548371603737e+01 3.1901309163517140e+00 
9 2 4 8.2534527478531550e-01 -8.3973406938749067e+03 1.0000000000000000e+00 0.0000000000000000e+00 1.6000000000000000e+01 2.5000000000000000e+00 
10 2 4 8.1850338079662199e-01 1.2951994798495631e+04 1.0000000000000000e+00 0.0000000000000000e+00 1.8000000000000000e+01 2.5000000000000000e+00 
29 2 4 8.4828916056875370e-01 3.6184391821211489e+03 1.0000000000000000e+00 2.0000000000000000e+00 1.6000000000000000e+01 2.5000000000000000e+00 
30 2 4 8.3110895589666267e-01 7.3951373281274646e+03 1.0000000000000000e+00 2.0000000000000000e+00 1.8000000000000000e+01 2.5000000000000000e+00 
1306 908 2 1.1572225417991697e+00 -4.3458630164898932e+03 1.0000000000000000e+00 4.0191492783631355e-01 1.6762158146705275e+01 1.8041804380509336e+00 
467 69 2 1.1636169767060256e+00 -6.0180870679260661e+03 1.0000000000000000e+00 2.4231891120333100e+00 1.8630217711358608e+01 1.8278589117631363e+00 
1846 1448 2 1.1721901816606097e+00 -6.8746024374804983e+03 1.0000000000000000e+00 7.4416034502100367e-02 1.9262329388556068e+01 3.1385888834518512e+00 
49 2 4 8.5164869659491882e-01 3.0970809421922968e+03 1.0000000000000000e+00 4.0000000000000000e+00 1.6000000000000000e+01 2.5000000000000000e+00 
50 2 4 8.2607781428612703e-01 6.4223561133699059e+03 1.0000000000000000e+00 4.0000000000000000e+00 1.8000000000000000e+01 2.5000000000000000e+00 
69 2 4 8.4109592525761978e-01 4.4716566320424585e+02 1.0000000000000000e+00 6.0000000000000000e+00 1.6000000000000000e+01 2.5000000000000000e+00 
70 2 4 8.2476598354954900e-01 1.6214354724227187e+03 1.0000000000000000e+00 6.0000000000000000e+00 1.8000000000000000e+01 2.5000000000000000e+00 
1320 922 2 1.1668397779279078e+00 -5.2251317868937986e+03 1.0000000000000000e+00 4.7469889147490809e+00 1.8018258955680572e+01 3.1531884551098686e+00 
406 8 2 1.1647279901641834e+00 -1.2662738659412482e+04 1.0000000000000000e+00 6.8890659767077524e+00 1.7322450734882025e+01 1.8101243475405238e+00 
1269 871 2 1.1554380338261363e+00 -4.8263957008273119e+03 1.0000000000000000e+00 1.1011099245079849e+01 1.6205874237193768e+01 1.8139404965315153e+00 
965 567 2 1.1579886552055829e+00 5.5544550803674374e+03 1.0000000000000000e+00 9.2342864346988627e+00 1.7374534187941187e+01 3.1993725225203264e+00 
89 2 4 8.2678148823032971e-01 3.5640456386792212e+03 1.0000000000000000e+00 8.0000000000000000e+00 1.6000000000000000e+01 2.5000000000000000e+00 
90 2 4 8.3511143937153942e-01 8.2821620915226376e+03 1.0000000000000000e+00 8.0000000000000000e+00 1.8000000000000000e+01 2.5000000000000000e+00 
109 2 4 8.3204685145281376e-01 -1.1298006499724388e+03 1.0000000000000000e+00 1.0000000000000000e+01 1.6000000000000000e+01 2.5000000000000000e+00 
110 2 4 8.2376125198595873e-01 2.5387520495962608e+03 1.0000000000000000e+00 1.0000000000000000e+01 1.8000000000000000e+01 2.5000000000000000e+00 
1444 1046 2 1.1518050416240941e+00 2.6457111368996544e+02 1.0000000000000000e+00 8.5090104612798854e+00 1.9425513315537192e+01 1.7956062263291501e+00 
1522 1124 2 1.1717479907369905e+00 -6.6489364225545414e+03 1.0000000000000000e+00 1.1134067506434555e+01 1.9009517319120686e+01 1.8169245171902819e+00 
1161 763 2 1.1576815907301845e+00 -7.6259735288686388e+03 1.0000000000000000e+00 1.2845948700480191e+01 1.7319907816640139e+01 3.2025006393564510e+00 
129 2 4 8.4584407889242252e-01 -3.1866707862960639e+03 1.0000000000000000e+00 1.2000000000000000e+01 1.6000000000000000e+01 2.5000000000000000e+00 
130 2 4 8.2632270924820983e-01 3.1769614572591790e+03 1.0000000000000000e+00 1.2000000000000000e+01 1.8000000000000000e+01 2.5000000000000000e+00 
149 2 4 8.3279403345389891e-01 1.1069954364576079e+03 1.0000000000000000e+00 1.4000000000000000e+01 1.6000000000000000e+01 2.5000000000000000e+00 
150 2 4 8.4506562425378029e-01 8.6861578865904921e+03 1.0000000000000000e+00 1.4000000000000000e+01 1.8000000000000000e+01 2.5000000000000000e+00 
851 453 2 1.1572433933483048e+00 -2.7475876474611259e+03 1.0000000000000000e+00 1.4909408226750893e+01 1.8260482898518191e+01 1.8204998883990788e+00 
405 7 2 1.1666666146562119e+00 -2.0848449301797564e+02 1.0000000000000000e+00 1.3198904202403270e+01 1.9996828351686144e+01 3.1529063216320790e+00 
705 307 2 1.1592871040756907e+00 -8.4495386002419491e+02 1.0000000000000000e+00 1.6642581385488288e+01 1.6568049692387653e+01 3.1879578062942202e+00 
169 2 4 8.3515047719220903e-01 -6.4626353490049070e+01 1.0000000000000000e+00 1.6000000000000000e+01 1.6000000000000000e+01 2.5000000000000000e+00 
170 2 4 8.3795352832254255e-01 3.4583710955579736e+03 1.0000000000000000e+00 1.6000000000000000e+01 1.8000000000000000e+01 2.5000000000000000e+00 
189 2 4 8.3777557427645688e-01 1.7930617244452644e+03 1.0000000000000000e+00 1.8000000000000000e+01 1.6000000000000000e+01 2.5000000000000000e+00 
190 2 4 8.3905997277542865e-01 -1.5237321093542932e+03 1.0000000000000000e+00 1.8000000000000000e+01 1.8000000000000000e+01 2.5000000000000000e+00 
1230 832 2 1.1597623927094505e+00 3.5777668178664026e+03 1.0000000000000000e+00 1.8781700674065341e+01 1.7855582897768333e+01 1.8316601636334275e+00 
554 156 2 1.1498769434666996e+00 -2.1628611097816761e+03 1.0000000000000000e+00 1.6936186033439490e+01 1.9199260004775383e+01 3.2213557118514768e+00 
1227 829 2 1.0280000000000016e+00 5.7379248266912346e+03 1.0000000000000000e+00 1.8566585557667675e+01 1.4723176726768610e+00 1.2827143654383944e+01 
492 94 2 1.0279999999999998e+00 3.1044845733493094e+03 1.0000000000000000e+00 1.8635956764993093e+01 1.4294748098767596e+00 1.2815165783815505e+01 
1443 1045 2 1.0279999999999938e+00 1.0670920258997519e+03 1.0000000000000000e+00 1.9367917017577689e+01 2.8050012405932430e+00 1.3981554368332040e+01 
1569 1171 2 1.0279999999999978e+00 9.6623358904889571e+01 1.0000000000000000e+00 1.8783033147477763e+01 3.5745793097695278e+00 1.4251271167576061e+01 
1321 923 2 1.0279999999999958e+00 4.8221370889132168e+03 1.0000000000000000e+00 1.9088705499829651e+01 1.4760448470814291e+00 1.4295814778901393e+01 
1079 681 2 1.0279999999999991e+00 6.2966097560360577e+03 1.0000000000000000e+00 1.6964960539073434e+01 3.1502698509729794e+00 1.4585075049093202e+01 
1530 1132 2 1.0279999999999989e+00 -2.7592716802596433e+03 1.0000000000000000e+00 1.6964649224167498e+01 3.1799109535277221e+00 1.4602980382795428e+01 
1495 1097 2 1.0280000000000002e+00 -3.5964345837984820e+03 1.0000000000000000e+00 1.9036034789068200e+01 1.0747716057288512e+01 1.4047182525847655e+01 
735 337 2 1.0280000000000002e+00 -3.5946506788929159e+03 1.0000000000000000e+00 1.9037719305262232e+01 1.0748554167969143e+01 1.4049396264496684e+01 
782 384 2 1.0280000000000005e+00 -4.8571532653227277e+03 1.0000000000000000e+00 1.9711409294425032e+01 9.4942783755612368e+00 1.4058637147733071e+01 
790 392 2 1.0279999999999969e+00 -3.6785699804461146e+03 1.0000000000000000e+00 1.9310029368061560e+01 8.5756597744915073e+00 1.4405119972131040e+01 
1148 750 2 1.0280000000000071e+00 4.2920308551648877e+03 1.0000000000000000e+00 1.8224362528198629e+01 2.7288975190112534e+00 1.5767755927701623e+01 
1024 626 2 1.0279999999999967e+00 4.2583359161501357e+03 1.0000000000000000e+00 1.8351959585984691e+01 1.9732102781909018e+00 1.5485800658766980e+01 
653 255 2 1.0279999999999982e+00 -4.6493235395911972e+02 1.0000000000000000e+00 1.8675439219772869e+01 5.0899205474367539e+00 1.5483750009692768e+01 
1266 868 2 1.0279999999999978e+00 2.6358599421573035e+03 1.0000000000000000e+00 1.8679417730497661e+01 5.0937326700494898e+00 1.5499757425712792e+01 
1704 1306 2 1.0280000000000007e+00 -6.3563792566878305e+02 1.0000000000000000e+00 1.8687560648509614e+01 7.0130063724096940e+00 1.4947840551758286e+01 
1110 712 2 1.0279999999999956e+00 2.3211674698569086e+03 1.0000000000000000e+00 1.8891932030306766e+01 7.4923723544901772e+00 1.6312279163539692e+01 
796 398 2 1.0279999999999994e+00 -1.0544061923034774e+02 1.0000000000000000e+00 1.9370140262022591e+01 6.6056973464040452e+00 1.6111078048466158e+01 
1678 1280 2 1.0279999999999971e+00 2.4738750033356673e+03 1.0000000000000000e+00 1.8656882490355219e+01 8.4389579208901537e+00 1.5382314344493771e+01 
1562 1164 2 1.0280000195162984e+00 -4.7668763158766760e+03 1.0000000000000000e+00 1.6554401247223893e+01 1.9972468306935390e+01 1.5156455315947488e+01 
984 586 2 1.0280000172350410e+00 2.6522907742963366e+03 1.0000000000000000e+00 9.4499746132823326e+00 3.0434734247563222e-01 2.1359152586162804e+01 