LAMMPS data file via write_data, version 30 Jul 2016, timestep = 50400000

4620 atoms
8 atom types

0.0000000000000000e+00 1.0000000000000000e+02 xlo xhi
0.0000000000000000e+00 4.0000000000000000e+01 ylo yhi
0.0000000000000000e+00 4.0000000000000000e+01 zlo zhi

Masses

1 3.896
2 5.36
3 20.064
4 8.378
5 8.378
6 8.378
7 8.378
8 8.378

Atoms # meso-molecular

1860 1861 2 1.0280000000020255e+00 -2.1612064315230036e+01 1.0000000000000000e+00 1.0511154936323002e+00 1.8724116530793264e+01 1.4378822783108622e+00 
1936 1937 2 1.0279999999919387e+00 -6.5882315223984271e+00 1.0000000000000000e+00 8.1803224950956188e-01 1.7834190241611115e+01 2.1896240832434253e+00 
2322 2323 2 1.0279999999923100e+00 -2.0239218106382534e+01 1.0000000000000000e+00 1.3759811910830870e+00 1.9955969184773029e+01 2.0163373618447538e+00 
2446 2447 2 1.0280000000146841e+00 1.1009485950303670e+03 1.0000000000000000e+00 1.1092967995186391e+00 1.9081774586549681e+01 3.0413363902644246e+00 
48 49 2 1.0280000000070573e+00 -3.9505729768163314e+02 1.0000000000000000e+00 9.5887780755959873e-01 1.9846930398799433e+01 5.9541478401337464e+00 
1984 1985 2 1.0279999999937373e+00 1.1027016814765395e+03 1.0000000000000000e+00 1.2351025285707231e+00 1.9998871827743166e+01 5.0796226608610704e+00 
63 64 2 1.0279999999984637e+00 -8.6524975275171414e+02 1.0000000000000000e+00 1.9574356463495253e+00 1.9024697878564215e+01 7.2880467463809397e+00 
2 3 2 1.0280000000277323e+00 -1.5091179286555603e+03 1.0000000000000000e+00 8.2592483768791125e-01 1.9504963861753879e+01 8.8649692667994184e+00 
188 189 2 1.0279999999976863e+00 8.0734790566977813e+02 1.0000000000000000e+00 2.0592796071053292e+00 1.8825776721687433e+01 8.3487042756124197e+00 
4216 4217 2 1.0279999999899301e+00 -8.4717669385505258e+02 1.0000000000000000e+00 1.4357438564810241e+00 8.3854604806249677e-01 1.1143490179457279e+01 
3506 3507 2 1.0280000000233169e+00 -1.0725519312377169e+03 1.0000000000000000e+00 2.0159260200886364e+00 1.7666162260300422e+00 1.1702295822764187e+01 
766 767 2 1.0279999999854694e+00 -1.2947304609215398e+03 1.0000000000000000e+00 3.6344057692322682e+00 2.0569444378337007e-01 1.1641506374813106e+01 
3422 3423 2 1.0280000000228773e+00 -1.0707878778657009e+03 1.0000000000000000e+00 4.9258430399911646e-01 5.3215314349933429e+00 1.1318409685120306e+01 
3338 3339 2 1.0279999999958751e+00 1.0297213425185425e+03 1.0000000000000000e+00 5.2887145852907325e-01 6.4754319216537644e+00 1.1121344018611287e+01 
1953 1954 2 1.0280000000086646e+00 -3.5819861757086319e+03 1.0000000000000000e+00 3.7585089843136381e+00 1.7743302329296469e+01 1.1654356056144209e+01 
1974 1975 2 1.0280000000072664e+00 6.4532597350168055e+02 1.0000000000000000e+00 1.3131747469751436e+00 1.8792008166734412e+01 1.0955199113032542e+01 
175 176 2 1.0279999999837464e+00 -3.9773408411994876e+02 1.0000000000000000e+00 2.0789290161361960e+00 1.9134952972514863e+01 1.0397479965689115e+01 
2415 2416 2 1.0279999999890854e+00 -3.5823320258683107e+03 1.0000000000000000e+00 3.7739509860619442e+00 1.9320294539859646e+01 1.1831473175642158e+01 
4552 4553 2 1.0279999999965406e+00 -8.4623446899816986e+02 1.0000000000000000e+00 1.4032712012549884e+00 3.5003919799501954e-01 1.2119647063223757e+01 
729 730 2 1.0280000000510483e+00 -2.1387691134422030e+03 1.0000000000000000e+00 1.7893823223786685e+00 3.2892858266113900e+00 1.3314255118634804e+01 
3590 3591 2 1.0280000000120646e+00 1.0300106983562096e+03 1.0000000000000000e+00 2.1601465202450800e+00 2.8503628045218323e+00 1.2652111321837724e+01 
645 646 2 1.0279999999898413e+00 -2.1398292925566084e+03 1.0000000000000000e+00 5.5062902887925103e-01 5.4302099059777014e+00 1.2932151760918785e+01 
390 391 2 1.0279999999556928e+00 -1.7322766593868155e+03 1.0000000000000000e+00 1.7185844370960404e+00 4.8588763054712851e+00 1.3914682277370510e+01 
1280 1281 2 1.0280000000013982e+00 1.0376113497336248e+03 1.0000000000000000e+00 1.8156098624167785e+00 6.7807113826548582e+00 1.2028935142157106e+01 
1196 1197 2 1.0280000000022078e+00 -1.0640335338950122e+03 1.0000000000000000e+00 1.5094275050927892e+00 7.3874452688132894e+00 1.2596194754029785e+01 
2205 2206 2 1.0279999999949629e+00 -3.5844658103423280e+03 1.0000000000000000e+00 3.4180587601984374e+00 1.7541814164388843e+01 1.2546035660590229e+01 
466 467 2 1.0280000000225082e+00 -4.5570003036516295e+02 1.0000000000000000e+00 1.0294483323883736e+00 1.9205321929932936e+01 1.2566737392041201e+01 
2667 2668 2 1.0280000000058536e+00 -3.5831450936790252e+03 1.0000000000000000e+00 3.2537407424247795e+00 1.8961527472026241e+01 1.2778792142009610e+01 
2116 2117 2 1.0280000000120040e+00 2.1869442928821945e+03 1.0000000000000000e+00 5.3794972161061250e-01 1.6184657468355828e+00 1.5299800595360606e+01 
2032 2033 2 1.0279999999882625e+00 2.1857204089056913e+03 1.0000000000000000e+00 4.0205078337941590e-02 2.0493195737146199e+00 1.4289477716698686e+01 
932 933 2 1.0280000000477758e+00 -3.2047816466708741e+02 1.0000000000000000e+00 1.2586232215081861e-02 3.9736525820633788e+00 1.5576928362731453e+01 
305 306 2 1.0280000000608338e+00 -1.0836394707755480e+03 1.0000000000000000e+00 1.2338599269671240e+00 4.4403248962979083e+00 1.4660200272595445e+01 
1105 1106 2 1.0279999999884262e+00 -1.3341856339235114e+03 1.0000000000000000e+00 6.2633221400193631e-02 1.6207934417208950e+01 1.4777518433755926e+01 
2079 2080 2 1.0279999999800638e+00 1.1170362036643387e+03 1.0000000000000000e+00 8.6609087343397584e-01 1.8302852255942110e+01 1.5110054019302670e+01 
4388 4389 2 1.0280000000114129e+00 -2.3648048461771223e+03 1.0000000000000000e+00 1.8374534868964143e+00 1.9782317522268706e+01 1.5346432218088173e+01 
230 231 2 1.0280000000135703e+00 -2.3650481460793917e+03 1.0000000000000000e+00 2.0171236505283878e+00 1.8538825617433435e+01 1.5160443407403584e+01 
263 264 2 1.0279999999874825e+00 5.7107990335763270e+02 1.0000000000000000e+00 6.0120347472431013e-01 2.1030017748817578e+00 1.6672028360773727e+01 
468 469 2 1.0280000000074383e+00 -3.4199395769139812e+02 1.0000000000000000e+00 1.0017934429689834e+00 1.7457717054473779e+01 1.7210948780207431e+01 
1937 1938 2 1.0280000000030263e+00 -2.9192582696844220e+03 1.0000000000000000e+00 1.4509012049056618e+00 1.7439297493997415e+01 1.6650910767695567e+01 
2226 2227 2 1.0279999999996878e+00 6.5511406863462366e+02 1.0000000000000000e+00 1.7140825267874877e+00 1.8552879843169162e+01 1.9359929357583272e+01 
886 887 2 1.0279999999849700e+00 -4.5040430024410125e+02 1.0000000000000000e+00 1.4548914477171808e+00 1.9003815820854662e+01 1.8343921293382795e+01 
2147 2148 2 1.0280000000066443e+00 -1.8536357138961466e+03 1.0000000000000000e+00 2.1480756662211173e-01 1.8645655701513853e+01 2.1519177532963081e+01 
422 423 2 1.0280000000101870e+00 -1.4945293327769318e+03 1.0000000000000000e+00 1.4537072303597218e+00 1.9328551255556796e+01 2.1255395136190177e+01 
259 260 2 1.0279999999971186e+00 -4.0879652989441922e+02 1.0000000000000000e+00 2.2914928588338519e+00 1.9291549749587240e+01 2.0411964503273740e+01 
272 273 2 1.0279999999824123e+00 8.0885232007981608e+02 1.0000000000000000e+00 1.6182494909652978e+00 1.9191191441452098e+01 2.3057518965003464e+01 
399 400 2 1.0279999999987728e+00 -8.6526221625221137e+02 1.0000000000000000e+00 1.2917035091684312e+00 1.9306366732415007e+01 2.4313841345724136e+01 
2614 2615 2 1.0280000000123952e+00 1.1007918398952145e+03 1.0000000000000000e+00 1.1348110914685099e+00 1.9905427489638331e+01 2.6833765449952470e+01 
2188 2189 2 1.0279999999884768e+00 -7.1498589796276732e+00 1.0000000000000000e+00 4.7815481230953066e-01 1.9184182033885765e+01 2.8227882435704913e+01 
316 317 2 1.0279999999993601e+00 -2.3499325416170796e+03 1.0000000000000000e+00 3.2994352006457599e+00 1.8995427968178618e+01 3.1900905408210946e+01 
315 316 2 1.0280000000210139e+00 -2.3287834893918307e+03 1.0000000000000000e+00 1.6317702595726933e+00 1.9326580089878821e+01 3.2047814900681047e+01 
147 148 2 1.0279999999888252e+00 -2.3258810018963914e+03 1.0000000000000000e+00 1.6201987068230477e+00 1.9415989063817488e+01 3.2969793176654449e+01 
148 149 2 1.0279999999992331e+00 -2.3490739742181422e+03 1.0000000000000000e+00 3.2840284631091303e+00 1.9007954832825387e+01 3.3301384924404481e+01 
2398 2399 2 1.0280000000085812e+00 -5.6074412700352294e+00 1.0000000000000000e+00 7.3827883310001363e-01 2.0999213255766445e+01 2.8074008852112162e+00 
4160 4161 2 1.0279999999846092e+00 -1.4931084910508080e+03 1.0000000000000000e+00 2.3560572592296206e-01 2.0655209575545570e+01 7.8494283242034930e+00 
4221 4222 2 1.0280000000108329e+00 -8.6434053702793153e+02 1.0000000000000000e+00 2.0677032454699535e+00 2.0542348083256375e+01 7.2972487671594646e+00 
4333 4334 2 1.0280000000164153e+00 -4.0731597973259375e+02 1.0000000000000000e+00 1.0990972466023703e+00 2.1719161612985665e+01 8.2987028252313877e+00 
4346 4347 2 1.0279999999820018e+00 8.0899387117002607e+02 1.0000000000000000e+00 2.3485882336729169e+00 2.0714116693485156e+01 8.5980025704614427e+00 
2363 2364 2 1.0279999999975573e+00 8.0714497738696821e+02 1.0000000000000000e+00 1.9974169322428961e+00 3.7326137513582410e+01 9.1835593699950220e+00 
3797 3798 2 1.0279999999954512e+00 1.6536404567732889e+03 1.0000000000000000e+00 3.7954818805484241e+00 3.7202960436845707e+01 9.6510275599729454e+00 
3832 3833 2 1.0279999999847442e+00 -1.2924334377880559e+03 1.0000000000000000e+00 4.4410511574061227e+00 3.6746985409931924e+01 9.9218078890463239e+00 
1901 1902 2 1.0280000000009009e+00 8.0871515778437242e+02 1.0000000000000000e+00 2.1393127902225277e+00 3.8142070966643224e+01 8.9461005565053870e+00 
563 564 2 1.0279999999885505e+00 1.6503362559341736e+03 1.0000000000000000e+00 3.7113632535255388e+00 3.9055789653378355e+01 9.6147580882693280e+00 
4244 4245 2 1.0280000000589409e+00 -1.3644803091715357e+03 1.0000000000000000e+00 2.0932316434829301e-01 2.1433641884890353e+01 1.1338269459550695e+01 
86 87 2 1.0279999999765641e+00 -1.3615831528887952e+03 1.0000000000000000e+00 1.1486978068620917e+00 2.0521003738796960e+01 1.1892926505287639e+01 
2019 2020 2 1.0280000000056551e+00 -2.9512704946154590e+03 1.0000000000000000e+00 2.3971751582075678e+00 2.1004034777956537e+01 1.0140776689884008e+01 
2481 2482 2 1.0280000000107399e+00 -2.9351833194258897e+03 1.0000000000000000e+00 2.6950215664426329e+00 2.0478621079369731e+01 1.1272246064274416e+01 
2436 2437 2 1.0279999999895635e+00 6.3367124122467771e+02 1.0000000000000000e+00 1.3724573055337064e+00 2.2308138911345058e+01 1.0296947577369618e+01 
3700 3701 2 1.0279999999938321e+00 -4.4549448530853590e+02 1.0000000000000000e+00 1.5679531195769039e+00 2.2339617698807874e+01 1.1370734254397167e+01 
3367 3368 2 1.0280000000445499e+00 1.5692447218205214e+03 1.0000000000000000e+00 2.2513736550509594e-01 2.4210747199421277e+01 1.1407777365821172e+01 
3879 3880 2 1.0279999999982190e+00 -2.1433057725158942e+03 1.0000000000000000e+00 5.6929788326260171e+00 3.5986208369881787e+01 1.0856582712294054e+01 
4000 4001 2 1.0280000000309371e+00 -1.2925792077307156e+03 1.0000000000000000e+00 3.8434089475940669e+00 3.7310706207052149e+01 1.1937710433570436e+01 
3963 3964 2 1.0280000000074663e+00 -2.1443932254228848e+03 1.0000000000000000e+00 5.3785797409299301e+00 3.6088712761840192e+01 1.1399003612442398e+01 
394 395 2 1.0280000000335208e+00 -8.4891038112226147e+02 1.0000000000000000e+00 1.4638313758195998e+00 3.8101274563572709e+01 1.1523877413963186e+01 
58 59 2 1.0280000000298672e+00 -8.4714428973269719e+02 1.0000000000000000e+00 1.6732352738591878e+00 3.8132306385303323e+01 1.0585096712749856e+01 
598 599 2 1.0280000000135916e+00 -1.2947330094419931e+03 1.0000000000000000e+00 3.9077943928525425e+00 3.9598788697344602e+01 1.0040111492213983e+01 
2829 2830 2 1.0279999999464435e+00 -2.1637620281121190e+03 1.0000000000000000e+00 2.7109368248094370e+00 2.2466242791532647e+01 1.3103634103596560e+01 
2830 2831 2 1.0280000000440637e+00 -2.3469828011008426e+03 1.0000000000000000e+00 3.0193613561035941e+00 2.2572212379583714e+01 1.2843062425547064e+01 
4049 4050 2 1.0279999999945721e+00 1.6529132054705328e+03 1.0000000000000000e+00 3.4557712412824149e+00 3.7604848991667168e+01 1.2160467476161571e+01 
2699 2700 2 1.0280000000392666e+00 8.0723376226775622e+02 1.0000000000000000e+00 1.4526297417236484e+00 3.8160610426879174e+01 1.3071427921069610e+01 
2237 2238 2 1.0279999999716654e+00 8.0874430558253357e+02 1.0000000000000000e+00 1.7985630965646153e+00 3.9050778380487614e+01 1.3169085464088687e+01 
815 816 2 1.0280000000390983e+00 1.6507268445448806e+03 1.0000000000000000e+00 3.3590133784585703e+00 3.9675199887091829e+01 1.2030456925501746e+01 
2541 2542 2 1.0279999999762786e+00 1.1165701735500152e+03 1.0000000000000000e+00 7.3953345809014326e-01 2.0342922865172383e+01 1.5249293999684248e+01 
4511 4512 2 1.0280000000518483e+00 9.4716880241608322e+01 1.0000000000000000e+00 1.2746828979897848e+00 3.8073203563493699e+01 1.5059384375170676e+01 
353 354 2 1.0280000000874039e+00 9.4919745771265269e+01 1.0000000000000000e+00 1.2276831414020541e+00 3.8616259903192415e+01 1.5110039936700618e+01 
4337 4338 2 1.0280000000649461e+00 5.6675509170906207e+02 1.0000000000000000e+00 9.8947519724462596e-01 3.5042078457363331e+01 1.7003039760492570e+01 
4295 4296 2 1.0279999999200893e+00 -1.0876622327469418e+03 1.0000000000000000e+00 1.8731206986806623e+00 3.4451570019210976e+01 1.7605260723237738e+01 
2949 2950 2 1.0279999999984346e+00 2.6635643665262592e+03 1.0000000000000000e+00 1.4716118736903452e-01 3.6988656860393533e+01 1.7171101429908411e+01 
338 339 2 1.0280000000006118e+00 -1.3681993181252024e+03 1.0000000000000000e+00 1.8416168201817682e+00 2.0314162119259628e+01 1.8818181995901782e+01 
2565 2566 2 1.0280000000070708e+00 -2.9622829478466692e+03 1.0000000000000000e+00 2.3768083703698668e+00 2.1070970515698360e+01 1.9924672832873920e+01 
3535 3536 2 1.0280000000040792e+00 1.5607972934642037e+03 1.0000000000000000e+00 1.2360172022447693e+00 2.2049942824323161e+01 1.8454258995101821e+01 
4495 4496 2 1.0280000000103502e+00 -2.2698543447488573e+03 1.0000000000000000e+00 6.2831273708119251e-02 2.2615378938135802e+01 1.9477091276791437e+01 
4120 4121 2 1.0279999999906100e+00 -4.4805693820397539e+02 1.0000000000000000e+00 2.2227573659061268e+00 2.2167845525376311e+01 1.9260010370401726e+01 
4212 4213 2 1.0280000000332079e+00 -1.7306937993121646e+03 1.0000000000000000e+00 2.8349070763380002e+00 3.3999094547018132e+01 1.8282147585339750e+01 
4421 4422 2 1.0280000000205778e+00 5.6649363573703624e+02 1.0000000000000000e+00 5.1396887256070645e-01 3.4957072629347763e+01 1.9774032322032973e+01 
4463 4464 2 1.0280000000463885e+00 -1.0878381003449535e+03 1.0000000000000000e+00 1.6260229911470938e+00 3.4512913363005246e+01 1.9793559441518436e+01 
4548 4549 2 1.0279999999829839e+00 -1.7332073291507209e+03 1.0000000000000000e+00 2.8107539770287109e+00 3.4384216800532734e+01 1.9344732734835443e+01 
4544 4545 2 1.0280000000592664e+00 3.3122047988047093e+03 1.0000000000000000e+00 8.4659751233084640e-02 3.6421189175951802e+01 1.9410123151485280e+01 
3033 3034 2 1.0279999999185065e+00 2.6652442172240353e+03 1.0000000000000000e+00 2.4368972278693446e-01 3.7530156788046696e+01 1.9189287834362386e+01 
2821 2822 2 1.0279999999749063e+00 -2.2215844971602664e+03 1.0000000000000000e+00 1.1525027011746052e-01 2.0845186665587075e+01 2.0667475137600640e+01 
2688 2689 2 1.0280000000170753e+00 6.4666941415301130e+02 1.0000000000000000e+00 1.0093146337805738e+00 2.1886462346300977e+01 2.0695535626674847e+01 
4487 4488 2 1.0279999999711611e+00 8.9737780409504239e+01 1.0000000000000000e+00 2.0143633772677960e+00 3.7748576503648607e+01 2.0543810212823068e+01 
764 765 2 1.0279999999936926e+00 -2.4019622917436163e+03 1.0000000000000000e+00 1.6924859391619740e+00 3.8649875034813164e+01 2.1761620686478807e+01 
791 792 2 1.0279999999991070e+00 -2.4114946774193722e+03 1.0000000000000000e+00 3.1007955445426334e+00 3.8057428293883049e+01 2.1535881355349627e+01 
4460 4461 2 1.0280000000189102e+00 1.2443550552389962e+02 1.0000000000000000e+00 2.7540380332188361e+00 3.8680996664580682e+01 2.0410315261685014e+01 
4430 4431 2 1.0280000000075500e+00 8.0742753711911291e+02 1.0000000000000000e+00 1.4001225951457430e+00 2.0681944002617318e+01 2.3124502113224278e+01 
596 597 2 1.0279999999880187e+00 -2.4035588846865212e+03 1.0000000000000000e+00 1.7991481370912599e+00 3.9117694447006599e+01 2.3066018008310607e+01 
623 624 2 1.0279999999981113e+00 -2.4092417825636867e+03 1.0000000000000000e+00 3.5057141165608696e+00 3.8719189502317462e+01 2.3245109884018227e+01 
4557 4558 2 1.0279999999979208e+00 -8.6474825504346927e+02 1.0000000000000000e+00 1.2378807355684889e+00 2.0740738355745592e+01 2.4396784618393596e+01 
4292 4293 2 1.0280000000021368e+00 1.2371051991995748e+02 1.0000000000000000e+00 3.3808341667154354e+00 3.9445160307780299e+01 2.4051554908603816e+01 
4319 4320 2 1.0280000000036471e+00 8.9980446743357305e+01 1.0000000000000000e+00 2.2280272421666396e+00 3.8772063326061350e+01 2.4210650425229474e+01 
2152 2153 2 1.0279999999918041e+00 1.1004195792598082e+03 1.0000000000000000e+00 1.1933774234712631e+00 2.0886183203020959e+01 2.6778046273136329e+01 
2564 2565 2 1.0279999999908436e+00 1.5376148398827982e+03 1.0000000000000000e+00 6.2181488752213432e-01 2.3131204989370485e+01 2.6910610570076432e+01 
2650 2651 2 1.0279999999894101e+00 -5.8242342499944861e+00 1.0000000000000000e+00 1.0249984072386118e+00 2.1966232755506052e+01 2.8061977448237265e+01 
2742 2743 2 1.0280000000007379e+00 -2.1146093685565461e+01 1.0000000000000000e+00 1.0102811534290703e+00 2.0986613589003177e+01 2.9266661279523181e+01 
2280 2281 2 1.0280000000005283e+00 -2.1573986870043115e+01 1.0000000000000000e+00 5.8050264907697080e-01 2.0045668220547231e+01 2.9364482832361329e+01 
4429 4430 2 1.0279999999963461e+00 1.1997858464214314e+03 1.0000000000000000e+00 3.7047975889728424e-01 2.3295304976507570e+01 2.8060286214965924e+01 
1444 1445 2 1.0279999999837850e+00 -2.3468399322217847e+03 1.0000000000000000e+00 2.8417324766008791e+00 2.1825567579921753e+01 3.0690078374342733e+01 
4474 4475 2 1.0280000000048510e+00 -2.3488434132187176e+03 1.0000000000000000e+00 3.3789278212421898e+00 2.0362597214238175e+01 3.1907666610685862e+01 
1443 1444 2 1.0280000000089238e+00 -2.1625562295597501e+03 1.0000000000000000e+00 2.7987029074912209e+00 2.2061833862407809e+01 3.1102245933453204e+01 
4306 4307 2 1.0279999999983565e+00 -2.3487210712596843e+03 1.0000000000000000e+00 3.2556497537911779e+00 2.0288270181194587e+01 3.3236381470579147e+01 
1274 1275 2 1.0279999999999976e+00 2.9117109465126186e+03 1.0000000000000000e+00 5.9346995402171409e+01 5.1227470870826961e+00 3.2297275575786299e+00 
2241 2242 2 1.0279999999999976e+00 -8.8895485727391929e+02 1.0000000000000000e+00 5.9456992005373785e+01 4.8527175767852615e+00 3.3064108547488535e+00 
817 818 2 1.0280000000447620e+00 2.3056355251543023e+03 1.0000000000000000e+00 5.5176126490231262e+01 1.1224566095988515e+00 7.6652934477788017e+00 
2110 2111 2 1.0279999999368914e+00 1.0088153199204457e+03 1.0000000000000000e+00 5.5735799467243659e+01 2.4220611785449625e-01 7.3380368798331599e+00 
1736 1737 2 1.0280000000671268e+00 2.4700796051481425e+03 1.0000000000000000e+00 5.7054157160676489e+01 7.6148979538642447e-01 7.5971116899843354e+00 
3413 3414 2 1.0279999999787084e+00 3.7148836947450172e+03 1.0000000000000000e+00 5.5464363699361840e+01 3.1424647140982156e+00 6.8235694664688884e+00 
1192 1193 2 1.0280000000166487e+00 -8.6891481000832755e+02 1.0000000000000000e+00 5.4882861013788208e+01 2.4934468719180538e+00 7.7617496511046395e+00 
396 397 2 1.0279999999905010e+00 -1.3933724097801542e+02 1.0000000000000000e+00 5.6663162105318079e+01 2.1977980731789155e+00 6.3390936339133814e+00 
940 941 2 1.0280000000178247e+00 -1.1684093090254451e+03 1.0000000000000000e+00 5.7100767174810478e+01 2.3271459798755201e+00 7.1133928693181012e+00 
1905 1906 2 1.0280000000437288e+00 -8.8847245039850031e+02 1.0000000000000000e+00 5.4543447333245354e+01 4.1904226867698462e+00 7.4740452310161283e+00 
4301 4302 2 1.0279999999988716e+00 3.2998915220093828e+01 1.0000000000000000e+00 6.4650020203109591e+01 1.5032843544423354e+01 7.8468171912004419e+00 
1360 1361 2 1.0279999998483764e+00 -1.1629101040339542e+03 1.0000000000000000e+00 5.8260834462285267e+01 2.5251278006062283e-01 8.3039788530737884e+00 
986 987 2 1.0279999999689755e+00 9.7616291430730780e+02 1.0000000000000000e+00 6.6486160093749476e+01 7.6283494487919523e-01 8.1280908790778064e+00 
255 256 2 1.0279999999075171e+00 -9.5760070623653382e+02 1.0000000000000000e+00 5.3257905061826726e+01 3.0011963895118723e+00 8.6176847738229352e+00 
256 257 2 1.0280000000699496e+00 -6.0178573032040845e+02 1.0000000000000000e+00 5.2932715133768554e+01 3.5392643636445662e+00 8.6209988614424873e+00 
172 173 2 1.0279999999770062e+00 -6.0231489613707663e+02 1.0000000000000000e+00 6.4456481181543325e+01 2.9959080971792309e+00 8.7399643817657058e+00 
171 172 2 1.0279999999725686e+00 -9.5753511805218932e+02 1.0000000000000000e+00 6.4746373940649889e+01 3.4510434983097453e+00 8.5516536127914886e+00 
565 566 2 1.0280000000096849e+00 2.3053730847167380e+03 1.0000000000000000e+00 5.3555889181531086e+01 5.7208512579369639e+00 9.0731265095207707e+00 
1022 1023 2 1.0279999999917451e+00 2.9112541499919857e+03 1.0000000000000000e+00 5.3979777891551116e+01 4.9983817029201836e+00 8.0030067989089400e+00 
1108 1109 2 1.0280000000077398e+00 -8.6897261932187303e+02 1.0000000000000000e+00 5.3160009071621253e+01 6.3165928122046022e+00 9.7474422313034328e+00 
1111 1112 2 1.0279999999348410e+00 -1.2223810409334292e+03 1.0000000000000000e+00 5.7083191456346619e+01 1.1318531983106162e+01 9.8523246987945523e+00 
1569 1570 2 1.0280000000125238e+00 2.5643227368962880e+03 1.0000000000000000e+00 6.5972666435345005e+01 1.1654363228184023e+01 9.5674854744035063e+00 
1570 1571 2 1.0279999999895979e+00 2.2257099995532735e+03 1.0000000000000000e+00 6.5059790319735342e+01 1.1878811956850749e+01 9.7514085728506341e+00 
480 481 2 1.0280000000106051e+00 -1.2616973290109004e+02 1.0000000000000000e+00 5.6001603751229752e+01 1.3962941529138559e+01 9.3560565254247816e+00 
650 651 2 1.0279999999380824e+00 -1.5343379557356157e+03 1.0000000000000000e+00 5.7753601811592034e+01 1.3264545280628353e+01 9.4981830407388514e+00 
976 977 2 1.0279999999651557e+00 2.9196353434396337e+02 1.0000000000000000e+00 6.0803893157415402e+01 1.3237809770408111e+01 9.2013833602463180e+00 
106 107 2 1.0280000000124820e+00 -3.9068922149225455e+02 1.0000000000000000e+00 6.1562872935326304e+01 1.3302554250074811e+01 9.2308875685463914e+00 
1482 1483 2 1.0279999999937386e+00 1.7129745623929939e+03 1.0000000000000000e+00 6.5487369726005440e+01 1.3450301657346893e+01 9.4519995320405119e+00 
2859 2860 2 1.0280000000843910e+00 1.1338896716003685e+03 1.0000000000000000e+00 4.9117674736800190e+01 1.5334508889415281e+01 9.0085882887806985e+00 
2483 2484 2 1.0279999998890932e+00 1.3600859484201692e+03 1.0000000000000000e+00 4.9282121238859666e+01 1.4985450593794155e+01 9.1766011462169708e+00 
146 147 2 1.0280000000068044e+00 -6.8881648200159020e+02 1.0000000000000000e+00 5.2767838838047822e+01 1.4523389404339332e+01 8.6028691720684112e+00 
3309 3310 2 1.0280000000297320e+00 2.9992505996947551e+02 1.0000000000000000e+00 5.3108548257697414e+01 1.5918877113852043e+01 8.6448806014998052e+00 
186 187 2 1.0279999999821270e+00 2.3583654137818414e+02 1.0000000000000000e+00 5.3971050106537604e+01 1.4409879805615248e+01 8.2005474121270598e+00 
3887 3888 2 1.0279999999877945e+00 -1.5086746057613213e+03 1.0000000000000000e+00 5.5145087506025732e+01 1.5165553053805249e+01 8.0968112621421575e+00 
4304 4305 2 1.0280000000077176e+00 -6.8643851253399498e+02 1.0000000000000000e+00 5.6088539306608276e+01 1.4786500940551345e+01 8.3512112711821000e+00 
2497 2498 2 1.0279999999068088e+00 2.6804571735075333e+03 1.0000000000000000e+00 5.8767690026089340e+01 1.4185646467168036e+01 9.4996259506740799e+00 
3421 3422 2 1.0279999999934293e+00 -1.2212514169952683e+03 1.0000000000000000e+00 5.8682165100511860e+01 1.5504385347070979e+01 8.9635604088988234e+00 
143 144 2 1.0280000000066423e+00 3.5075385430198004e+01 1.0000000000000000e+00 6.4653329241073294e+01 1.4190072402070005e+01 8.1972617668054273e+00 
4236 4237 2 1.0279999999870348e+00 -1.9534395415375729e+03 1.0000000000000000e+00 6.6060871784025906e+01 1.5402108384571825e+01 8.1250866703413784e+00 
78 79 2 1.0280000000076359e+00 -1.9489659118060270e+03 1.0000000000000000e+00 6.6657685742657293e+01 1.4594898904798384e+01 8.1109488047576672e+00 
2416 2417 2 1.0279999999739222e+00 -3.5832820529488035e+03 1.0000000000000000e+00 5.0901035383705967e+01 1.6057738420169663e+01 9.9768036683014323e+00 
4184 4185 2 1.0280000000283744e+00 -3.6467505095807746e+03 1.0000000000000000e+00 5.1995208452322785e+01 1.6326785061762731e+01 9.3425171094014541e+00 
2778 2779 2 1.0280000000414686e+00 -2.2860841270005899e+03 1.0000000000000000e+00 5.9534392861014751e+01 1.6474729332212991e+01 8.1327578080239089e+00 
4334 4335 2 1.0279999998488629e+00 1.3579500158470426e+03 1.0000000000000000e+00 5.9626607120181298e+01 1.6689119259427592e+01 9.7395154266387465e+00 
3237 3238 2 1.0279999999830112e+00 -2.4169339069998941e+03 1.0000000000000000e+00 6.0712839599995249e+01 1.6026747081544119e+01 8.0353972594541148e+00 
4336 4337 2 1.0280000000443306e+00 1.2058384711702738e+03 1.0000000000000000e+00 6.1148159183678395e+01 1.6522414381669822e+01 8.9214563001070744e+00 
2956 2957 2 1.0280000001533085e+00 2.2270146138845826e+03 1.0000000000000000e+00 6.4194648362622772e+01 1.6906138829544037e+01 9.4571779725959271e+00 
2955 2956 2 1.0279999998014573e+00 2.5650653735862425e+03 1.0000000000000000e+00 6.5014593014371826e+01 1.7505881343913220e+01 9.6888124451697841e+00 
3798 3799 2 1.0280000000521301e+00 1.8826284396637152e+03 1.0000000000000000e+00 5.9403126927148605e+01 1.8787263030610507e+01 9.9419266801050767e+00 
2961 2962 2 1.0280000000718790e+00 2.6284935039309003e+03 1.0000000000000000e+00 6.3870973395019007e+01 1.9024095584719898e+01 8.8402412869835771e+00 
3843 3844 2 1.0280000000074510e+00 -1.3437065155499356e+03 1.0000000000000000e+00 6.4400187555772561e+01 1.9208045139032532e+01 8.9623592205504092e+00 
313 314 2 1.0280000000152090e+00 -3.1168921223657953e+03 1.0000000000000000e+00 6.5057267201024288e+01 6.6047068345920319e-03 1.1391781574649370e+01 
1362 1363 2 1.0280000000057417e+00 -4.8357515273683077e+02 1.0000000000000000e+00 6.2383358918943429e+01 2.0109242624236185e+00 1.1639393652487591e+01 
3423 3424 2 1.0280000000879363e+00 -1.9344119867076224e+03 1.0000000000000000e+00 6.2961817241086997e+01 3.5964247515604488e+00 1.1720402035477447e+01 
4470 4471 2 1.0280000000127119e+00 -2.6214462197850899e+03 1.0000000000000000e+00 6.3861174925363478e+01 2.0366167433096285e+00 1.1282723433717265e+01 
145 146 2 1.0280000000508496e+00 -3.1149502561882359e+03 1.0000000000000000e+00 6.5495013423275182e+01 2.6227207061551474e+00 1.0306317379499474e+01 
992 993 2 1.0279999998750420e+00 2.1102862397253330e+03 1.0000000000000000e+00 6.6384471888172641e+01 2.7899542230322978e+00 1.1326970190744705e+01 
102 103 2 1.0280000000240541e+00 3.9628074301829304e+02 1.0000000000000000e+00 6.5850917122927783e+01 3.8563090758820313e+00 1.0105665940912312e+01 
942 943 2 1.0280000000534235e+00 -4.8759023412799667e+02 1.0000000000000000e+00 6.3102205172533537e+01 4.9350933864812978e+00 1.1400053118794299e+01 
1320 1321 2 1.0279999998962468e+00 5.0179091847379152e+02 1.0000000000000000e+00 6.4831305427633481e+01 5.2237803757950436e+00 1.1368809294973701e+01 
982 983 2 1.0280000000065974e+00 1.9654759629192138e+03 1.0000000000000000e+00 6.5912214784056360e+01 5.4938238927457110e+00 1.0170814804146595e+01 
1328 1329 2 1.0280000000008116e+00 2.1094520125385684e+03 1.0000000000000000e+00 6.6446752576134827e+01 4.5773371159961291e+00 1.1872912570287577e+01 
1147 1148 2 1.0280000000004528e+00 3.6180412805146238e+03 1.0000000000000000e+00 5.1177615960557446e+01 7.6178927981842604e+00 1.1363984416398830e+01 
2026 2027 2 1.0279999999945348e+00 1.0110202663161156e+03 1.0000000000000000e+00 5.2556771968435839e+01 7.0701871927019191e+00 1.0709485852223091e+01 
686 687 2 1.0280000000011460e+00 -7.5047943163868040e+03 1.0000000000000000e+00 5.2015859879942987e+01 7.9150707959971793e+00 1.1996582010617763e+01 
1907 1908 2 1.0280000000893810e+00 -3.1008063054694014e+02 1.0000000000000000e+00 6.2641873226417218e+01 6.5051506469346849e+00 1.0737212503289493e+01 
983 984 2 1.0280000000021510e+00 2.0818669423191809e+03 1.0000000000000000e+00 6.2181000070363133e+01 7.8609688139542202e+00 1.1572985318133240e+01 
939 940 2 1.0279999999577909e+00 -1.3847235088066795e+03 1.0000000000000000e+00 6.3040763309661635e+01 7.6040847222581665e+00 1.0746643353468972e+01 
1327 1328 2 1.0279999999831850e+00 5.1732377644193480e+02 1.0000000000000000e+00 6.5367925261299959e+01 6.6891968789441005e+00 1.1950471294142426e+01 
952 953 2 1.0280000000200742e+00 -1.3912330157578126e+03 1.0000000000000000e+00 6.5663715730682554e+01 7.8451840126420160e+00 1.1243518436009138e+01 
2027 2028 2 1.0280000000090739e+00 2.4800983670382411e+03 1.0000000000000000e+00 5.1272248687200289e+01 9.1111444170403555e+00 1.1015253483358137e+01 
522 523 2 1.0280000000229363e+00 2.4457149662073293e+03 1.0000000000000000e+00 5.3370201617857816e+01 8.4085614651985239e+00 1.0545471038601395e+01 
1107 1108 2 1.0279999999870091e+00 -1.6531402220654900e+03 1.0000000000000000e+00 5.2572200494205191e+01 9.7128896842505803e+00 1.1062494868707867e+01 
523 524 2 1.0279999999842708e+00 1.3701357558957779e+03 1.0000000000000000e+00 5.4450838038971369e+01 9.0234730452713627e+00 1.0637100847427700e+01 
57 58 2 1.0279999999727609e+00 -1.1385884196602301e+03 1.0000000000000000e+00 5.4966143661875769e+01 9.0438431401860022e+00 1.1686688891147917e+01 
564 565 2 1.0279999999970124e+00 1.8832238910291348e+03 1.0000000000000000e+00 6.4982415661498990e+01 9.3896960703521781e+00 1.0847860209845502e+01 