LAMMPS data file via write_data, version 30 Jul 2016, timestep = 600000

2080 atoms
8 atom types

0.0000000000000000e+00 4.0000000000000000e+01 xlo xhi
0.0000000000000000e+00 4.0000000000000000e+01 ylo yhi
0.0000000000000000e+00 1.0000000000000000e+02 zlo zhi

Masses

1 3.896
2 4.306
3 20.064
4 8.378
5 8.378
6 8.378
7 8.378
8 8.378

Atoms # meso-molecular

1 2 4 2.2559723595316457e+00 0.0000000000000000e+00 1.0000000000000000e+00 0.0000000000000000e+00 0.0000000000000000e+00 2.5000000000000000e+00 
2 2 4 2.2559723595316457e+00 0.0000000000000000e+00 1.0000000000000000e+00 0.0000000000000000e+00 2.0000000000000000e+00 2.5000000000000000e+00 
3 2 4 2.2559723595316457e+00 0.0000000000000000e+00 1.0000000000000000e+00 0.0000000000000000e+00 4.0000000000000000e+00 2.5000000000000000e+00 
4 2 4 2.2559723595316457e+00 0.0000000000000000e+00 1.0000000000000000e+00 0.0000000000000000e+00 6.0000000000000000e+00 2.5000000000000000e+00 
21 2 4 2.2559723595316457e+00 0.0000000000000000e+00 1.0000000000000000e+00 2.0000000000000000e+00 0.0000000000000000e+00 2.5000000000000000e+00 
22 2 4 2.2559723595316457e+00 0.0000000000000000e+00 1.0000000000000000e+00 2.0000000000000000e+00 2.0000000000000000e+00 2.5000000000000000e+00 
23 2 4 2.2559723595316457e+00 0.0000000000000000e+00 1.0000000000000000e+00 2.0000000000000000e+00 4.0000000000000000e+00 2.5000000000000000e+00 
24 2 4 2.2559723595316457e+00 0.0000000000000000e+00 1.0000000000000000e+00 2.0000000000000000e+00 6.0000000000000000e+00 2.5000000000000000e+00 
41 2 4 2.2559723595316457e+00 0.0000000000000000e+00 1.0000000000000000e+00 4.0000000000000000e+00 0.0000000000000000e+00 2.5000000000000000e+00 
42 2 4 2.2559723595316457e+00 0.0000000000000000e+00 1.0000000000000000e+00 4.0000000000000000e+00 2.0000000000000000e+00 2.5000000000000000e+00 
43 2 4 2.2559723595316457e+00 0.0000000000000000e+00 1.0000000000000000e+00 4.0000000000000000e+00 4.0000000000000000e+00 2.5000000000000000e+00 
44 2 4 2.2559723595316457e+00 0.0000000000000000e+00 1.0000000000000000e+00 4.0000000000000000e+00 6.0000000000000000e+00 2.5000000000000000e+00 
61 2 4 2.2559723595316457e+00 0.0000000000000000e+00 1.0000000000000000e+00 6.0000000000000000e+00 0.0000000000000000e+00 2.5000000000000000e+00 
62 2 4 2.2559723595316457e+00 0.0000000000000000e+00 1.0000000000000000e+00 6.0000000000000000e+00 2.0000000000000000e+00 2.5000000000000000e+00 
63 2 4 2.2559723595316457e+00 0.0000000000000000e+00 1.0000000000000000e+00 6.0000000000000000e+00 4.0000000000000000e+00 2.5000000000000000e+00 
64 2 4 2.2559723595316457e+00 0.0000000000000000e+00 1.0000000000000000e+00 6.0000000000000000e+00 6.0000000000000000e+00 2.5000000000000000e+00 
81 2 4 2.2559723595316457e+00 0.0000000000000000e+00 1.0000000000000000e+00 8.0000000000000000e+00 0.0000000000000000e+00 2.5000000000000000e+00 
82 2 4 2.2559723595316457e+00 0.0000000000000000e+00 1.0000000000000000e+00 8.0000000000000000e+00 2.0000000000000000e+00 2.5000000000000000e+00 
83 2 4 2.2559723595316457e+00 0.0000000000000000e+00 1.0000000000000000e+00 8.0000000000000000e+00 4.0000000000000000e+00 2.5000000000000000e+00 
84 2 4 2.2559723595316457e+00 0.0000000000000000e+00 1.0000000000000000e+00 8.0000000000000000e+00 6.0000000000000000e+00 2.5000000000000000e+00 
101 2 4 2.2559723595316457e+00 0.0000000000000000e+00 1.0000000000000000e+00 1.0000000000000000e+01 0.0000000000000000e+00 2.5000000000000000e+00 
102 2 4 2.2559723595316457e+00 0.0000000000000000e+00 1.0000000000000000e+00 1.0000000000000000e+01 2.0000000000000000e+00 2.5000000000000000e+00 
103 2 4 2.2559723595316457e+00 0.0000000000000000e+00 1.0000000000000000e+00 1.0000000000000000e+01 4.0000000000000000e+00 2.5000000000000000e+00 
104 2 4 2.2559723595316457e+00 -1.3765077732299629e+00 1.0000000000000000e+00 1.0000000000000000e+01 6.0000000000000000e+00 2.5000000000000000e+00 
121 2 4 2.2559723595316457e+00 0.0000000000000000e+00 1.0000000000000000e+00 1.2000000000000000e+01 0.0000000000000000e+00 2.5000000000000000e+00 
122 2 4 2.2559723595316457e+00 0.0000000000000000e+00 1.0000000000000000e+00 1.2000000000000000e+01 2.0000000000000000e+00 2.5000000000000000e+00 
123 2 4 2.2559723595316457e+00 -1.3765249227827776e+00 1.0000000000000000e+00 1.2000000000000000e+01 4.0000000000000000e+00 2.5000000000000000e+00 
124 2 4 2.2559723595316457e+00 -6.0161391336998356e+01 1.0000000000000000e+00 1.2000000000000000e+01 6.0000000000000000e+00 2.5000000000000000e+00 
141 2 4 2.2559723595316457e+00 0.0000000000000000e+00 1.0000000000000000e+00 1.4000000000000000e+01 0.0000000000000000e+00 2.5000000000000000e+00 
142 2 4 2.2559723595316457e+00 0.0000000000000000e+00 1.0000000000000000e+00 1.4000000000000000e+01 2.0000000000000000e+00 2.5000000000000000e+00 
143 2 4 2.2559723595316457e+00 -2.1549960430747696e+01 1.0000000000000000e+00 1.4000000000000000e+01 4.0000000000000000e+00 2.5000000000000000e+00 
144 2 4 2.2559723595316457e+00 -2.9411561555755776e+02 1.0000000000000000e+00 1.4000000000000000e+01 6.0000000000000000e+00 2.5000000000000000e+00 
161 2 4 2.2559723595316457e+00 0.0000000000000000e+00 1.0000000000000000e+00 1.6000000000000000e+01 0.0000000000000000e+00 2.5000000000000000e+00 
162 2 4 2.2559723595316457e+00 0.0000000000000000e+00 1.0000000000000000e+00 1.6000000000000000e+01 2.0000000000000000e+00 2.5000000000000000e+00 
163 2 4 2.2559723595316457e+00 -6.1325294929350243e+01 1.0000000000000000e+00 1.6000000000000000e+01 4.0000000000000000e+00 2.5000000000000000e+00 
164 2 4 2.2559723595316457e+00 -6.6631853980688004e+02 1.0000000000000000e+00 1.6000000000000000e+01 6.0000000000000000e+00 2.5000000000000000e+00 
181 2 4 2.2559723595316457e+00 0.0000000000000000e+00 1.0000000000000000e+00 1.8000000000000000e+01 0.0000000000000000e+00 2.5000000000000000e+00 
182 2 4 2.2559723595316457e+00 0.0000000000000000e+00 1.0000000000000000e+00 1.8000000000000000e+01 2.0000000000000000e+00 2.5000000000000000e+00 
183 2 4 2.2559723595316457e+00 -8.9328601874133483e+01 1.0000000000000000e+00 1.8000000000000000e+01 4.0000000000000000e+00 2.5000000000000000e+00 
184 2 4 2.2559723595316457e+00 -9.4395254441442228e+02 1.0000000000000000e+00 1.8000000000000000e+01 6.0000000000000000e+00 2.5000000000000000e+00 
5 2 4 2.2559723595316457e+00 0.0000000000000000e+00 1.0000000000000000e+00 0.0000000000000000e+00 8.0000000000000000e+00 2.5000000000000000e+00 
6 2 4 2.2559723595316457e+00 0.0000000000000000e+00 1.0000000000000000e+00 0.0000000000000000e+00 1.0000000000000000e+01 2.5000000000000000e+00 
7 2 4 2.2559723595316457e+00 0.0000000000000000e+00 1.0000000000000000e+00 0.0000000000000000e+00 1.2000000000000000e+01 2.5000000000000000e+00 
25 2 4 2.2559723595316457e+00 0.0000000000000000e+00 1.0000000000000000e+00 2.0000000000000000e+00 8.0000000000000000e+00 2.5000000000000000e+00 
26 2 4 2.2559723595316457e+00 0.0000000000000000e+00 1.0000000000000000e+00 2.0000000000000000e+00 1.0000000000000000e+01 2.5000000000000000e+00 
27 2 4 2.2559723595316457e+00 0.0000000000000000e+00 1.0000000000000000e+00 2.0000000000000000e+00 1.2000000000000000e+01 2.5000000000000000e+00 
45 2 4 2.2559723595316457e+00 0.0000000000000000e+00 1.0000000000000000e+00 4.0000000000000000e+00 8.0000000000000000e+00 2.5000000000000000e+00 
46 2 4 2.2559723595316457e+00 0.0000000000000000e+00 1.0000000000000000e+00 4.0000000000000000e+00 1.0000000000000000e+01 2.5000000000000000e+00 
47 2 4 2.2559723595316457e+00 0.0000000000000000e+00 1.0000000000000000e+00 4.0000000000000000e+00 1.2000000000000000e+01 2.5000000000000000e+00 
65 2 4 2.2559723595316457e+00 0.0000000000000000e+00 1.0000000000000000e+00 6.0000000000000000e+00 8.0000000000000000e+00 2.5000000000000000e+00 
66 2 4 2.2559723595316457e+00 0.0000000000000000e+00 1.0000000000000000e+00 6.0000000000000000e+00 1.0000000000000000e+01 2.5000000000000000e+00 
67 2 4 2.2559723595316457e+00 -1.1659126386525834e-05 1.0000000000000000e+00 6.0000000000000000e+00 1.2000000000000000e+01 2.5000000000000000e+00 
85 2 4 2.2559723595316457e+00 0.0000000000000000e+00 1.0000000000000000e+00 8.0000000000000000e+00 8.0000000000000000e+00 2.5000000000000000e+00 
86 2 4 2.2559723595316457e+00 0.0000000000000000e+00 1.0000000000000000e+00 8.0000000000000000e+00 1.0000000000000000e+01 2.5000000000000000e+00 
87 2 4 2.2559723595316457e+00 -1.1645479600213748e-05 1.0000000000000000e+00 8.0000000000000000e+00 1.2000000000000000e+01 2.5000000000000000e+00 
105 2 4 2.2559723595316457e+00 -2.1562726242257845e+01 1.0000000000000000e+00 1.0000000000000000e+01 8.0000000000000000e+00 2.5000000000000000e+00 
106 2 4 2.2559723595316457e+00 -6.1686652891331313e+01 1.0000000000000000e+00 1.0000000000000000e+01 1.0000000000000000e+01 2.5000000000000000e+00 
107 2 4 2.2559723595316457e+00 -9.1933241097769056e+01 1.0000000000000000e+00 1.0000000000000000e+01 1.2000000000000000e+01 2.5000000000000000e+00 
125 2 4 2.2559723595316457e+00 -2.9460327545566815e+02 1.0000000000000000e+00 1.2000000000000000e+01 8.0000000000000000e+00 2.5000000000000000e+00 
126 2 4 2.2559723595316457e+00 -6.7287395567067642e+02 1.0000000000000000e+00 1.2000000000000000e+01 1.0000000000000000e+01 2.5000000000000000e+00 
127 2 4 2.2559723595316457e+00 -9.8072636701675924e+02 1.0000000000000000e+00 1.2000000000000000e+01 1.2000000000000000e+01 2.5000000000000000e+00 
145 2 4 2.2559723595316457e+00 -1.1483928356234994e+03 1.0000000000000000e+00 1.4000000000000000e+01 8.0000000000000000e+00 2.5000000000000000e+00 
146 2 4 2.2559723595316457e+00 -2.4298139926685431e+03 1.0000000000000000e+00 1.4000000000000000e+01 1.0000000000000000e+01 2.5000000000000000e+00 
147 2 4 2.2559723595316457e+00 -3.4900205318468593e+03 1.0000000000000000e+00 1.4000000000000000e+01 1.2000000000000000e+01 2.5000000000000000e+00 
165 2 4 2.2559723595316457e+00 -2.4095600863595073e+03 1.0000000000000000e+00 1.6000000000000000e+01 8.0000000000000000e+00 2.5000000000000000e+00 
166 2 4 2.2559723595316457e+00 -4.9629733518829289e+03 1.0000000000000000e+00 1.6000000000000000e+01 1.0000000000000000e+01 2.5000000000000000e+00 
167 2 4 2.2559723595316457e+00 -7.0893638697577762e+03 1.0000000000000000e+00 1.6000000000000000e+01 1.2000000000000000e+01 2.5000000000000000e+00 
185 2 4 2.2559723595316457e+00 -3.3622981350780069e+03 1.0000000000000000e+00 1.8000000000000000e+01 8.0000000000000000e+00 2.5000000000000000e+00 
186 2 4 2.2559723595316457e+00 -6.8914113073871968e+03 1.0000000000000000e+00 1.8000000000000000e+01 1.0000000000000000e+01 2.5000000000000000e+00 
187 2 4 2.2559723595316457e+00 -9.8374790867055763e+03 1.0000000000000000e+00 1.8000000000000000e+01 1.2000000000000000e+01 2.5000000000000000e+00 
8 2 4 2.2559723595316457e+00 0.0000000000000000e+00 1.0000000000000000e+00 0.0000000000000000e+00 1.4000000000000000e+01 2.5000000000000000e+00 
9 2 4 2.2559723595316457e+00 0.0000000000000000e+00 1.0000000000000000e+00 0.0000000000000000e+00 1.6000000000000000e+01 2.5000000000000000e+00 
10 2 4 2.2559723595316457e+00 0.0000000000000000e+00 1.0000000000000000e+00 0.0000000000000000e+00 1.8000000000000000e+01 2.5000000000000000e+00 
28 2 4 2.2559723595316457e+00 0.0000000000000000e+00 1.0000000000000000e+00 2.0000000000000000e+00 1.4000000000000000e+01 2.5000000000000000e+00 
29 2 4 2.2559723595316457e+00 0.0000000000000000e+00 1.0000000000000000e+00 2.0000000000000000e+00 1.6000000000000000e+01 2.5000000000000000e+00 
30 2 4 2.2559723595316457e+00 0.0000000000000000e+00 1.0000000000000000e+00 2.0000000000000000e+00 1.8000000000000000e+01 2.5000000000000000e+00 
48 2 4 2.2559723595316457e+00 0.0000000000000000e+00 1.0000000000000000e+00 4.0000000000000000e+00 1.4000000000000000e+01 2.5000000000000000e+00 
49 2 4 2.2559723595316457e+00 0.0000000000000000e+00 1.0000000000000000e+00 4.0000000000000000e+00 1.6000000000000000e+01 2.5000000000000000e+00 
50 2 4 2.2559723595316457e+00 0.0000000000000000e+00 1.0000000000000000e+00 4.0000000000000000e+00 1.8000000000000000e+01 2.5000000000000000e+00 
68 2 4 2.2559723595316457e+00 1.1774370162041770e-05 1.0000000000000000e+00 6.0000000000000000e+00 1.4000000000000000e+01 2.5000000000000000e+00 
69 2 4 2.2559723595316457e+00 0.0000000000000000e+00 1.0000000000000000e+00 6.0000000000000000e+00 1.6000000000000000e+01 2.5000000000000000e+00 
70 2 4 2.2559723595316457e+00 0.0000000000000000e+00 1.0000000000000000e+00 6.0000000000000000e+00 1.8000000000000000e+01 2.5000000000000000e+00 
88 2 4 2.2559723595316457e+00 -5.3463018486818670e-05 1.0000000000000000e+00 8.0000000000000000e+00 1.4000000000000000e+01 2.5000000000000000e+00 
89 2 4 2.2559723595316457e+00 -1.0904707212943459e-09 1.0000000000000000e+00 8.0000000000000000e+00 1.6000000000000000e+01 2.5000000000000000e+00 
90 2 4 2.2559723595316457e+00 1.2488600980018470e-07 1.0000000000000000e+00 8.0000000000000000e+00 1.8000000000000000e+01 2.5000000000000000e+00 
108 2 4 2.2559723595316457e+00 -1.0093770577944406e+02 1.0000000000000000e+00 1.0000000000000000e+01 1.4000000000000000e+01 2.5000000000000000e+00 
109 2 4 2.2559723595316457e+00 -1.0283538821095591e+02 1.0000000000000000e+00 1.0000000000000000e+01 1.6000000000000000e+01 2.5000000000000000e+00 
110 2 4 2.2559723595316457e+00 -1.0289282018149802e+02 1.0000000000000000e+00 1.0000000000000000e+01 1.8000000000000000e+01 2.5000000000000000e+00 
128 2 4 2.2559723595316457e+00 -1.1061032955443982e+03 1.0000000000000000e+00 1.2000000000000000e+01 1.4000000000000000e+01 2.5000000000000000e+00 
129 2 4 2.2559723595316457e+00 -1.1327186425513928e+03 1.0000000000000000e+00 1.2000000000000000e+01 1.6000000000000000e+01 2.5000000000000000e+00 
130 2 4 2.2559723595316457e+00 -1.1355155663721162e+03 1.0000000000000000e+00 1.2000000000000000e+01 1.8000000000000000e+01 2.5000000000000000e+00 
148 2 4 2.2559723595316457e+00 -3.9546424730226709e+03 1.0000000000000000e+00 1.4000000000000000e+01 1.4000000000000000e+01 2.5000000000000000e+00 
149 2 4 2.2559723595316457e+00 -4.0524863983209470e+03 1.0000000000000000e+00 1.4000000000000000e+01 1.6000000000000000e+01 2.5000000000000000e+00 
150 2 4 2.2559723595316457e+00 -4.0646298244162526e+03 1.0000000000000000e+00 1.4000000000000000e+01 1.8000000000000000e+01 2.5000000000000000e+00 
168 2 4 2.2559723595316457e+00 -8.0380259577539055e+03 1.0000000000000000e+00 1.6000000000000000e+01 1.4000000000000000e+01 2.5000000000000000e+00 
169 2 4 2.2559723595316457e+00 -8.2269573990882400e+03 1.0000000000000000e+00 1.6000000000000000e+01 1.6000000000000000e+01 2.5000000000000000e+00 
170 2 4 2.2559723595316457e+00 -8.2476781201873528e+03 1.0000000000000000e+00 1.6000000000000000e+01 1.8000000000000000e+01 2.5000000000000000e+00 
188 2 4 2.2559723595316457e+00 -1.1141553346437970e+04 1.0000000000000000e+00 1.8000000000000000e+01 1.4000000000000000e+01 2.5000000000000000e+00 
189 2 4 2.2559723595316457e+00 -1.1383794627608611e+04 1.0000000000000000e+00 1.8000000000000000e+01 1.6000000000000000e+01 2.5000000000000000e+00 
190 2 4 2.2559723595316457e+00 -1.1406723018683817e+04 1.0000000000000000e+00 1.8000000000000000e+01 1.8000000000000000e+01 2.5000000000000000e+00 
966 568 2 1.0280154300878550e+00 1.1366305941612760e+04 1.0000000000000000e+00 1.7988931658831582e+01 1.2458004141403210e+01 7.6506941605385862e+01 
820 422 2 1.0280187920989698e+00 -3.7979998453125299e+03 1.0000000000000000e+00 1.8612371490742614e+01 1.2527999524863077e+01 7.6132943284772523e+01 
1536 1138 2 1.0280178727440730e+00 1.6312324494166915e+03 1.0000000000000000e+00 1.7738932437894331e+01 1.2461529437500777e+01 7.6654149868165248e+01 
1946 1548 2 1.0280162513433695e+00 2.7383548446928335e+03 1.0000000000000000e+00 1.8046936942857002e+01 1.2357537141041259e+01 7.6687408289373195e+01 
1867 1469 2 1.0280214084329939e+00 -1.2481378299618248e+03 1.0000000000000000e+00 1.8089690606739989e+01 1.2342924352678907e+01 7.6696663361349763e+01 
1647 1249 2 1.0280190273722662e+00 9.7514800689012282e+02 1.0000000000000000e+00 1.8595659100788662e+01 1.2556107472163248e+01 7.6110266991125542e+01 
1374 976 2 1.0280207487934681e+00 5.0669675572451450e+02 1.0000000000000000e+00 1.9558026570447080e+01 1.2545043957426623e+01 7.5821650793664091e+01 
1340 942 2 1.0280207825469874e+00 -2.5770592244252057e+03 1.0000000000000000e+00 1.7424191802902708e+01 1.2634722324507354e+01 7.6549709968538352e+01 
1908 1510 2 1.0280171138175831e+00 -2.1244389352864077e+03 1.0000000000000000e+00 1.6930210607538047e+01 1.2643413078176888e+01 7.6910388564680389e+01 
702 304 2 1.0280144805847544e+00 -1.1920850666856843e+03 1.0000000000000000e+00 1.6929946801292409e+01 1.2673776985666736e+01 7.6843030140547000e+01 
715 317 2 1.0280191996351580e+00 3.3857423875707141e+03 1.0000000000000000e+00 1.6745249330842899e+01 1.2704703351226401e+01 7.6960763107164425e+01 
1592 1194 2 1.0280167823626261e+00 -7.1660865491400418e+03 1.0000000000000000e+00 1.7389156771514408e+01 1.2692319908559913e+01 7.6491523277011126e+01 
825 427 2 1.0280202747120921e+00 -4.1387749829605491e+03 1.0000000000000000e+00 1.6909377109855438e+01 1.2717367445972943e+01 7.6777851264606127e+01 
1920 1522 2 1.0280119781255521e+00 -1.7591687376153401e+04 1.0000000000000000e+00 1.6804125063635180e+01 1.2720232193581426e+01 7.6866069193562438e+01 
1757 1359 2 1.0280142491003648e+00 -8.5330608485535831e+03 1.0000000000000000e+00 1.6607108941823888e+01 1.2738421820719060e+01 7.7041890094597278e+01 
1401 1003 2 1.0280159867249694e+00 -4.5936117114526235e+02 1.0000000000000000e+00 1.6728274808978053e+01 1.2778606388832351e+01 7.6827163692798763e+01 
727 329 2 1.0280230524788698e+00 3.9312826201800578e+02 1.0000000000000000e+00 1.6687566427347083e+01 1.2620137578671988e+01 7.7448705305517905e+01 
1899 1501 2 1.0280188803568573e+00 6.9917961242956255e+02 1.0000000000000000e+00 1.7256666619059114e+01 1.2791957520172232e+01 7.6447620289309171e+01 
469 71 2 1.0280168854809466e+00 -5.4582519105716510e+03 1.0000000000000000e+00 1.6684946532269745e+01 1.2618737141721917e+01 7.7525757254657947e+01 
1840 1442 2 1.0280180940701646e+00 -7.1999342199609746e+03 1.0000000000000000e+00 1.8517832831360451e+01 1.2803871496853850e+01 7.5941032833764226e+01 
519 121 2 1.0280194191508947e+00 -4.3376025846002212e+03 1.0000000000000000e+00 1.6595355672104127e+01 1.2841541542391260e+01 7.6842263590856419e+01 
1605 1207 2 1.0280134934228558e+00 -3.1703715350290522e+03 1.0000000000000000e+00 1.6381611009777757e+01 1.2741100843298565e+01 7.7682364578772138e+01 
1465 1067 2 1.0280174342495179e+00 3.8161865749921758e+03 1.0000000000000000e+00 1.7348034662837808e+01 1.2832941445773171e+01 7.6360194162069917e+01 
1389 991 2 1.0280179579419175e+00 1.1038028433389292e+04 1.0000000000000000e+00 1.7775478639340221e+01 1.2843853971899698e+01 7.6167783518548234e+01 
927 529 2 1.0280164527669646e+00 9.4586067295095327e+03 1.0000000000000000e+00 1.7099815981676773e+01 1.2852145033993631e+01 7.6470049219035218e+01 
1825 1427 2 1.0280153935081451e+00 -6.8955180852916410e+03 1.0000000000000000e+00 1.6758108918302916e+01 1.2881073978143824e+01 7.6653070561309761e+01 
1924 1526 2 1.0280169267084571e+00 -5.2333468091478626e+03 1.0000000000000000e+00 1.6137095591186032e+01 1.2903986274715221e+01 7.7330161519924658e+01 
748 350 2 1.0280179551424875e+00 -3.2665229069672359e+03 1.0000000000000000e+00 1.6798431072538694e+01 1.2935981979231311e+01 7.6563444601828806e+01 
2007 1609 2 1.0280137559591778e+00 -8.2793192042323312e+01 1.0000000000000000e+00 1.5987655861351215e+01 1.3023100649925325e+01 7.8260807303926455e+01 
751 353 2 1.0280169864554181e+00 -8.2824389882436958e+02 1.0000000000000000e+00 1.6912677577258442e+01 1.2991047983749580e+01 7.6443642110551679e+01 
1370 972 2 1.0280168625598562e+00 -7.7623129698915784e+02 1.0000000000000000e+00 1.6096426011204858e+01 1.3002754218283071e+01 7.7130449923209412e+01 
1256 858 2 1.0280191680657309e+00 -2.9618221099357820e+03 1.0000000000000000e+00 1.8983960791277248e+01 1.3011859127901497e+01 7.5713214746205125e+01 
1619 1221 2 1.0280163884210343e+00 8.0445429860829317e+03 1.0000000000000000e+00 1.5813174850737450e+01 1.3056600051128497e+01 7.7807309413445083e+01 
981 583 2 1.0280102127942128e+00 1.6378139047725629e+03 1.0000000000000000e+00 1.6588694269347876e+01 1.3061470988297225e+01 7.6578036541993868e+01 
1171 773 2 1.0280095759274672e+00 3.8333493716773896e+03 1.0000000000000000e+00 1.6114689372047785e+01 1.3172098669462388e+01 7.6850146906659560e+01 
1475 1077 2 1.0280185041573038e+00 1.0910608053648191e+04 1.0000000000000000e+00 1.6796834481522243e+01 1.3190233800888317e+01 7.6361089668055328e+01 
2062 1664 2 1.0280108088853981e+00 6.5783826645567815e+03 1.0000000000000000e+00 1.5462790036528878e+01 1.4302835080067881e+01 7.6929160370191369e+01 
1656 1258 2 1.0280209092251433e+00 -4.6999891138805197e+03 1.0000000000000000e+00 1.8248116506637363e+01 1.6875565801377324e+01 7.6889650375497979e+01 
2080 1682 2 1.0280185264102377e+00 -1.8484090363913492e+04 1.0000000000000000e+00 1.5303228803546581e+01 1.4198028361277240e+01 7.7126596159209896e+01 
408 10 2 1.0280148013340102e+00 -1.7584097234080957e+04 1.0000000000000000e+00 1.6857558021184001e+01 1.6228499583102778e+01 7.7133004416310783e+01 
1405 1007 2 1.0280089619291355e+00 -3.2518852176744540e+03 1.0000000000000000e+00 1.5170523218186668e+01 1.4046388841643823e+01 7.7402963531203284e+01 
1421 1023 2 1.0280091128502653e+00 4.8361281153817083e+02 1.0000000000000000e+00 1.5426471640417899e+01 1.3509748300780355e+01 7.7416533594061207e+01 
1483 1085 2 1.0280146110449573e+00 3.3682179619031090e+03 1.0000000000000000e+00 1.7866036458888875e+01 1.7475911783234732e+01 7.7376281519991394e+01 
568 170 2 1.0280127251812889e+00 -1.8479433866577547e+04 1.0000000000000000e+00 1.5542303879838279e+01 1.5506714805926576e+01 7.7436968354549663e+01 
810 412 2 1.0280112344060637e+00 -1.7743208195694306e+03 1.0000000000000000e+00 1.5489127158640626e+01 1.3415237888307777e+01 7.7445015720600722e+01 
1248 850 2 1.0280087175820867e+00 -3.0019563555969007e+03 1.0000000000000000e+00 1.6335788659716265e+01 1.6266115577278779e+01 7.7527347705143754e+01 
700 302 2 1.0280115840835069e+00 8.0090587368629776e+03 1.0000000000000000e+00 1.5185517762690198e+01 1.5157582585249118e+01 7.7636089535506542e+01 
1467 1069 2 1.0280155379930158e+00 5.2752954736329757e+03 1.0000000000000000e+00 1.6312482421793010e+01 1.6295289330464335e+01 7.7586781519357345e+01 
770 372 2 1.0280192126658410e+00 2.6865713306612629e+03 1.0000000000000000e+00 1.6487285048137171e+01 1.6439057457430277e+01 7.7609772025605054e+01 
1718 1320 2 1.0280138602191840e+00 4.0919576268284468e+03 1.0000000000000000e+00 1.5109996325123165e+01 1.5041251347293594e+01 7.7690979180397903e+01 
1190 792 2 1.0280125115721050e+00 2.8017857068798767e+03 1.0000000000000000e+00 1.5359549619653214e+01 1.5495367439432435e+01 7.7698780614009891e+01 
1249 851 2 1.0280094604419003e+00 -5.4572579328004940e+03 1.0000000000000000e+00 1.4992119534202564e+01 1.4659357216488591e+01 7.7757970670140097e+01 
1925 1527 2 1.0280110773663180e+00 -6.6342489668088792e+03 1.0000000000000000e+00 1.5031140690218827e+01 1.4874091528135692e+01 7.7758242000451432e+01 
1573 1175 2 1.0280125972806489e+00 -7.4124158526576084e+03 1.0000000000000000e+00 1.5121318582899962e+01 1.5141438809830277e+01 7.7766133343162892e+01 
1208 810 2 1.0280071513038425e+00 4.2248901899665489e+03 1.0000000000000000e+00 1.4972584103476811e+01 1.4481810340012609e+01 7.7798718609874996e+01 
1900 1502 2 1.0280120287401673e+00 -3.6012316339393674e+03 1.0000000000000000e+00 1.5351914636788951e+01 1.5561268360933658e+01 7.7811071094510623e+01 
659 261 2 1.0280103237128981e+00 -1.9928711635418840e+03 1.0000000000000000e+00 1.5019130728150081e+01 1.4908523106825854e+01 7.7824032056339632e+01 
724 326 2 1.0280071438269696e+00 -3.5896571899220526e+03 1.0000000000000000e+00 1.5055957097305768e+01 1.5079771708398910e+01 7.7883755986574300e+01 
1257 859 2 1.0280096225794653e+00 1.8703333730865347e+02 1.0000000000000000e+00 1.4966951996627147e+01 1.4717481409081010e+01 7.7878038589838567e+01 
1081 683 2 1.0280115236344205e+00 -5.4635311545541172e+03 1.0000000000000000e+00 1.5253048900008157e+01 1.5457852071915987e+01 7.7871958852084063e+01 
1312 914 2 1.0280129626004981e+00 -4.3856069659447821e+03 1.0000000000000000e+00 1.5031727909098816e+01 1.5017985337923980e+01 7.7892817610268253e+01 
1876 1478 2 1.0280090971342979e+00 8.0086578577673636e+03 1.0000000000000000e+00 1.5282567393802228e+01 1.5549578039638325e+01 7.7957840558589268e+01 
878 480 2 1.0280095570634000e+00 4.0930964563560478e+03 1.0000000000000000e+00 1.5088826403589486e+01 1.5221750414911828e+01 7.7974599790890849e+01 
949 551 2 1.0280099532812419e+00 4.9574376192810550e+03 1.0000000000000000e+00 1.5001126080194071e+01 1.5042166080265151e+01 7.8056444119497030e+01 
1459 1061 2 1.0280103160580405e+00 7.7751646025715008e+03 1.0000000000000000e+00 1.4929587085935749e+01 1.4710246291139832e+01 7.8084022394814070e+01 
451 53 2 1.0280100105339058e+00 -1.0765185155064685e+02 1.0000000000000000e+00 1.8350205020780315e+01 1.9664303719954386e+01 7.7083748915712619e+01 
1418 1020 2 1.0280039383351223e+00 6.5443061940333637e+03 1.0000000000000000e+00 1.5052136798442277e+01 1.5204661576603902e+01 7.8099439503742715e+01 
795 397 2 1.0280088116613575e+00 7.1496733449880094e+02 1.0000000000000000e+00 1.5211255973204787e+01 1.5517378513669435e+01 7.8121423532676317e+01 
1251 853 2 1.0280083086304173e+00 1.3003335088789722e+03 1.0000000000000000e+00 1.5023183318208712e+01 1.5141889848218895e+01 7.8122786575600571e+01 
1835 1437 2 1.0280102328754352e+00 -1.9903430549998893e+03 1.0000000000000000e+00 1.5079988204721101e+01 1.5278846641349352e+01 7.8123965508052166e+01 
1687 1289 2 1.0280104083491497e+00 -2.3996864107551928e+03 1.0000000000000000e+00 1.4980478426765199e+01 1.5041519196572141e+01 7.8188222855150983e+01 
550 152 2 1.0280086967144777e+00 6.5748754001934631e+03 1.0000000000000000e+00 1.4931678101545815e+01 1.4364806142425774e+01 7.8218236077862528e+01 
1080 682 2 1.0280105432963635e+00 -3.0116233744942369e+03 1.0000000000000000e+00 1.5114767609766538e+01 1.5391106971786964e+01 7.8237744127190609e+01 
1449 1051 2 1.0280099823394273e+00 4.8991381618694431e+03 1.0000000000000000e+00 1.4996959417998157e+01 1.5120498132839428e+01 7.8262024578643377e+01 
1083 685 2 1.0280064892360525e+00 1.3055699578329140e+03 1.0000000000000000e+00 1.4940871094791067e+01 1.4920006819559685e+01 7.8320964271004783e+01 
945 547 2 1.0280081258332723e+00 4.9033803832609947e+03 1.0000000000000000e+00 1.4956416020256604e+01 1.5003723128874768e+01 7.8427524514796360e+01 
847 449 2 1.0280142572576039e+00 -2.4041305891816978e+03 1.0000000000000000e+00 1.5331092795358691e+01 1.5779550649147289e+01 7.8444707266395540e+01 
1963 1565 2 1.0280074997498905e+00 -1.0202394853352007e+02 1.0000000000000000e+00 1.4921718313742261e+01 1.4752558373658365e+01 7.8470359632945815e+01 
1022 624 2 1.0280149459141377e+00 1.6918592900913104e+03 1.0000000000000000e+00 1.7847366316531879e+01 1.9316747462341866e+01 7.8434127197559093e+01 
1118 720 2 1.0280065416931932e+00 2.2146815441071017e+03 1.0000000000000000e+00 1.4982281077709596e+01 1.5097205197263076e+01 7.8560540740175057e+01 
1286 888 2 1.0280072489720189e+00 2.2165671776938052e+03 1.0000000000000000e+00 1.4966197755767283e+01 1.5029465643248864e+01 7.8568040454517586e+01 
1845 1447 2 1.0280060531616870e+00 -9.4437203653370834e+03 1.0000000000000000e+00 1.4948527392586765e+01 1.4916315294057691e+01 7.8606270870405879e+01 
2074 1676 2 1.0280045431885767e+00 -1.1652626574731091e+03 1.0000000000000000e+00 1.5553573111832058e+01 1.3442222953538749e+01 7.8622607189651845e+01 
1357 959 2 1.0280081152208009e+00 6.2937209505063101e+03 1.0000000000000000e+00 1.5117633507761244e+01 1.5451186527519269e+01 7.8652839381869157e+01 
963 565 2 1.0280048823118719e+00 5.2692882674151315e+03 1.0000000000000000e+00 1.5239602315447488e+01 1.5669794758087031e+01 7.8730286425242994e+01 
1610 1212 2 1.0280058880534133e+00 2.6904178297373701e+03 1.0000000000000000e+00 1.5002877790157536e+01 1.5114162509124043e+01 7.8757109702957734e+01 
669 271 2 1.0280094517244664e+00 -9.4436923527733416e+03 1.0000000000000000e+00 1.5046955435261820e+01 1.5192697977554769e+01 7.8919632778480619e+01 
1026 628 2 1.0280132216933542e+00 9.4535944331072722e+02 1.0000000000000000e+00 1.5227202385995476e+01 1.5621918651397772e+01 7.8961091710310200e+01 
1358 960 2 1.0280104561174153e+00 2.8011985953037265e+03 1.0000000000000000e+00 1.5130368212079985e+01 1.5405770223270554e+01 7.8996030428884367e+01 
1453 1055 2 1.0280017775337491e+00 4.9666289357880069e+03 1.0000000000000000e+00 1.5210104143978482e+01 1.5534702370860165e+01 7.9134550552065861e+01 
779 381 2 1.0280136715237809e+00 8.0040452441196458e+03 1.0000000000000000e+00 1.9481049163328723e+01 1.9854241790653504e+01 7.6206916287694739e+01 
1499 1101 2 1.0280082487332807e+00 2.7167427341476596e+03 1.0000000000000000e+00 1.5208024655914597e+01 1.5502128992590347e+01 7.9193899597543563e+01 
955 557 2 1.0280036830695847e+00 7.7872216633645330e+03 1.0000000000000000e+00 1.5125329379899950e+01 1.5229522718168777e+01 7.9224824648379652e+01 
1609 1211 2 1.0280095127231670e+00 -1.8245311116614653e+03 1.0000000000000000e+00 1.5253794619650066e+01 1.4322726485911579e+01 7.9330230646421555e+01 
723 325 2 1.0280063861214221e+00 6.9981918868671971e+02 1.0000000000000000e+00 1.5226031956277540e+01 1.4615514987729082e+01 7.9473379727833503e+01 
1530 1132 2 1.0280205249727938e+00 9.8034466508347123e+02 1.0000000000000000e+00 1.7514799177873705e+01 1.8127549263850714e+01 7.9590102582883802e+01 
2040 1642 2 1.0280169236694676e+00 1.2080956013579832e+03 1.0000000000000000e+00 1.8712258092769275e+01 1.4337347392168905e+01 7.9825035204370991e+01 
1258 860 2 1.0280027166677421e+00 3.5774116718873934e+03 1.0000000000000000e+00 1.3313555881825879e+01 1.2824588583324436e+01 8.6485679138381101e+01 
1105 707 2 1.0280099785028876e+00 2.7301930950806936e+03 1.0000000000000000e+00 1.3267037113350566e+01 1.3153822401583160e+01 8.6529190609809973e+01 