LAMMPS data file via write_data, version 30 Jul 2016, timestep = 50000000

4620 atoms
8 atom types

0.0000000000000000e+00 1.0000000000000000e+02 xlo xhi
0.0000000000000000e+00 4.0000000000000000e+01 ylo yhi
0.0000000000000000e+00 4.0000000000000000e+01 zlo zhi

Masses

1 3.896
2 5.36
3 20.064
4 8.378
5 8.378
6 8.378
7 8.378
8 8.378

Atoms # meso-molecular

301 302 2 1.0280000000000005e+00 -7.5021438773030354e+02 1.0000000000000000e+00 1.7446101479857020e+01 1.3943248863013498e+01 3.5481338933267494e+00 
1186 1187 2 1.0280000000000005e+00 1.6126474487246819e+03 1.0000000000000000e+00 1.8143340528531194e+01 1.3303865922758725e+01 3.6165656469421057e+00 
3317 3318 2 1.0279999999999998e+00 -2.8076829764604986e+02 1.0000000000000000e+00 2.8630775919661634e+01 1.7630095906984966e+01 6.9786143272165271e+00 
1007 1008 2 1.0279999999999998e+00 -2.8061687230849668e+02 1.0000000000000000e+00 2.8785163254819434e+01 1.8565834151945456e+01 6.9925508923929423e+00 
3199 3200 2 1.0279999999999996e+00 -1.7028292393599595e+03 1.0000000000000000e+00 1.9835002276092833e+01 1.0196295762062373e+01 8.8470853475900686e+00 
3614 3615 2 1.0279999999999996e+00 -2.8330251928958489e+02 1.0000000000000000e+00 2.0103002886412611e+01 1.0990392811659630e+01 8.4029893119435641e+00 
165 166 2 1.0280000000000022e+00 7.2862977591946219e+01 1.0000000000000000e+00 2.2607629945103714e+01 1.0217578766168465e+01 1.2718179097687784e+01 
4323 4324 2 1.0280000000000022e+00 7.3843937053264995e+01 1.0000000000000000e+00 2.3483651929481351e+01 1.0170748662609899e+01 1.2357584915156325e+01 
2393 2394 2 1.0280000000000011e+00 -5.8197334562791025e+02 1.0000000000000000e+00 9.8750467516460514e+00 1.8198756469873057e+01 1.1911312135913143e+01 
2354 2355 2 1.0280000000000011e+00 -5.9435350860871449e+02 1.0000000000000000e+00 1.0391070146361979e+01 1.8873594974992272e+01 1.1489472606824073e+01 
3943 3944 2 1.0279999999999998e+00 1.7213657453180526e+03 1.0000000000000000e+00 2.8708143407525647e+01 1.0602119456566713e+01 1.4049853337342809e+01 
4403 4404 2 1.0279999999999998e+00 -9.4895547423414905e+02 1.0000000000000000e+00 2.9518636844187494e+01 1.0147996976468953e+01 1.3858780308409605e+01 
2857 2858 2 1.0280000000000007e+00 -8.9619564324349767e+02 1.0000000000000000e+00 4.9386859642885419e+00 1.0343829180350944e+01 1.6281350979983966e+01 
3109 3110 2 1.0279999999999998e+00 -8.9591008325452026e+02 1.0000000000000000e+00 5.8523722327407786e+00 1.0047057162491141e+01 1.5959635866210519e+01 
1255 1256 2 1.0280000000000014e+00 -1.9391123077599292e+02 1.0000000000000000e+00 2.1145676604121864e+01 1.7380448894453721e+01 1.5836905796044920e+01 
3122 3123 2 1.0280000000000020e+00 -8.9324536541704276e+01 1.0000000000000000e+00 6.7699213109709282e+00 9.0509110267506685e+00 1.7962419708849712e+01 
4169 4170 2 1.0279999999999987e+00 4.3642528014891730e+02 1.0000000000000000e+00 5.8873700277460657e+00 9.8450022784163931e+00 1.7849317258449673e+01 
2764 2765 2 1.0280000000000018e+00 -1.3828558091243508e+02 1.0000000000000000e+00 8.3995201987077337e+00 1.1832024071998813e+01 1.6607128678327175e+01 
3684 3685 2 1.0279999999999971e+00 -1.6756858818634364e+03 1.0000000000000000e+00 7.4302316613279187e+00 1.2024255008406717e+01 1.6543685837067063e+01 
1845 1846 2 1.0280000000000014e+00 2.1065338104884796e+02 1.0000000000000000e+00 2.1556539541224971e+01 1.7239522548814314e+01 1.6680094477306419e+01 
3412 3413 2 1.0280000000000002e+00 1.6237010613167799e+03 1.0000000000000000e+00 5.9634851878536370e+00 9.7954473971308733e+00 1.9956165669001845e+01 
4254 4255 2 1.0279999999999987e+00 -1.3589017552948308e+03 1.0000000000000000e+00 7.3964309612682708e+00 9.8616093658869506e+00 1.9126759791786000e+01 
3496 3497 2 1.0280000000000027e+00 1.6193979874626834e+03 1.0000000000000000e+00 6.9411880556431829e+00 1.1394043081483064e+01 1.8392673877508628e+01 
4585 4586 2 1.0279999999999960e+00 -2.6701703931395656e+01 1.0000000000000000e+00 8.2033498450799236e+00 1.1405721496854392e+01 1.8541475358392557e+01 
2141 2142 2 1.0280000000000002e+00 3.2072565857577638e+02 1.0000000000000000e+00 8.6784164853055312e+00 1.3668382041216672e+01 1.8836749998983901e+01 
2102 2103 2 1.0280000000000018e+00 3.3883600448529359e+02 1.0000000000000000e+00 9.5038910359514777e+00 1.3954343117599626e+01 1.9394497297393691e+01 
552 553 2 1.0280000000000016e+00 1.4502218429513152e+03 1.0000000000000000e+00 8.6148756798902077e+00 1.5766736639093930e+01 1.9529643794186921e+01 
553 554 2 1.0279999999999967e+00 -1.3226192603272558e+01 1.0000000000000000e+00 7.8483774050743360e+00 1.5239929525973443e+01 1.9867708624156592e+01 
4212 4213 2 1.0280000000000002e+00 -6.3866126969852576e+02 1.0000000000000000e+00 6.5138185368257657e+00 9.9689313113008300e+00 2.1419874313412407e+01 
640 641 2 1.0279999999999985e+00 2.9403232455276122e+02 1.0000000000000000e+00 7.8099913344825236e+00 1.0092496953802231e+01 2.1714537505827359e+01 
3958 3959 2 1.0280000000000005e+00 2.9712491469529687e+02 1.0000000000000000e+00 1.0003483542255337e+01 1.0418493571480793e+01 2.1704833070114887e+01 
54 55 2 1.0280000000000016e+00 -6.3462192239174101e+02 1.0000000000000000e+00 6.5474391088577697e+00 1.1043722189126166e+01 2.0109598840704873e+01 
4548 4549 2 1.0280000000000020e+00 -6.3958520558737655e+02 1.0000000000000000e+00 8.3065643603645221e+00 1.2026802973714982e+01 2.0062159932953925e+01 
724 725 2 1.0279999999999998e+00 2.9307422366887204e+02 1.0000000000000000e+00 9.6611417341778552e+00 1.2111773949611120e+01 2.1652985161905999e+01 
2533 2534 2 1.0279999999999967e+00 -3.1065453791056534e+03 1.0000000000000000e+00 1.3699920802833963e+01 1.1547455898728083e+01 2.0873108878219739e+01 
2995 2996 2 1.0280000000000029e+00 2.8137234543306336e+03 1.0000000000000000e+00 1.3231541487249739e+01 1.2342398412704947e+01 2.1175760624723914e+01 
390 391 2 1.0279999999999978e+00 -6.4068027417876283e+02 1.0000000000000000e+00 8.3976355046793394e+00 1.3017116887095829e+01 2.0759690537164087e+01 
2869 2870 2 1.0279999999999996e+00 -2.2693865733390123e+02 1.0000000000000000e+00 8.8625487152069908e+00 1.0187747063847331e+01 2.2614158684790752e+01 
3119 3120 2 1.0280000000000002e+00 -4.9598222907692542e+02 1.0000000000000000e+00 1.1125102564497082e+01 1.0547534648101326e+01 2.2718566077728049e+01 
3459 3460 2 1.0279999999999951e+00 2.2940831376027199e+03 1.0000000000000000e+00 1.3148619375985486e+01 1.0445905276731118e+01 2.2632763505318284e+01 
1526 1527 2 1.0280000000000000e+00 -1.0018249727836243e+03 1.0000000000000000e+00 9.7437085764968039e+00 1.1611000683570520e+01 2.3137517409362971e+01 
307 308 2 1.0279999999999996e+00 -1.6260789221690293e+03 1.0000000000000000e+00 1.1174827062102034e+01 1.1918260131779761e+01 2.2666914674889711e+01 
2997 2998 2 1.0280000000000060e+00 2.7218564892741806e+03 1.0000000000000000e+00 1.3232530380106114e+01 1.1360058016238103e+01 2.3017646381623553e+01 
3121 3122 2 1.0280000000000000e+00 -2.3664510158203251e+02 1.0000000000000000e+00 1.0194465734866334e+01 1.3619699039120274e+01 2.2378169138746244e+01 
1182 1183 2 1.0280000000000009e+00 6.5065429842464903e+02 1.0000000000000000e+00 9.0880014921016290e+00 1.3759874405042277e+01 2.2278953050264963e+01 
73 74 2 1.0279999999999998e+00 -6.1786928044814499e+02 1.0000000000000000e+00 2.6092621852102138e+01 4.8087925735642828e-01 2.3992830474507926e+01 
3439 3440 2 1.0279999999999998e+00 6.4086350609754743e+02 1.0000000000000000e+00 2.7008084561982731e+01 6.4870115362093606e-01 2.3810074959844080e+01 
972 973 2 1.0280000000000000e+00 1.0427405821753632e+03 1.0000000000000000e+00 2.3679903345615408e+01 1.1761380413647098e+01 2.4705940248078811e+01 
5 6 2 1.0280000000000000e+00 7.1456003832542660e+02 1.0000000000000000e+00 2.3360496788718002e+01 1.2462563825572461e+01 2.4152806435661390e+01 
3450 3451 2 1.0279999999999998e+00 -1.3143050526337484e+02 1.0000000000000000e+00 1.0174367415515404e+01 7.1177085143289034e+00 2.6487889390886910e+01 
2987 2988 2 1.0279999999999998e+00 2.8062572370127214e+02 1.0000000000000000e+00 1.0549522227076707e+01 6.6682496839363186e+00 2.5741644546795968e+01 
1924 1925 2 1.0280000000000007e+00 3.9289241063431376e+02 1.0000000000000000e+00 1.0226109937463162e+01 4.4951766581173800e+00 2.8865545255422290e+01 
1507 1508 2 1.0280000000000007e+00 -6.7936819616606863e+02 1.0000000000000000e+00 1.0657370737916921e+01 4.2905665408419109e+00 2.8045920608350059e+01 
4506 4507 2 1.0280000000000005e+00 -1.3451925363634066e+03 1.0000000000000000e+00 2.2514213029271691e+01 4.2509314842781567e+00 2.8264162242251693e+01 
4087 4088 2 1.0280000000000005e+00 5.1108495078942121e+02 1.0000000000000000e+00 2.3212056833699570e+01 4.2338098229795040e+00 2.7622012249240889e+01 
925 926 2 1.0279999999999998e+00 -1.4101143043344682e+03 1.0000000000000000e+00 2.6018667722289994e+01 1.9280514766464140e+01 3.0314548032222049e+01 
1345 1346 2 1.0279999999999998e+00 -1.4100108254506731e+03 1.0000000000000000e+00 2.6432829972975096e+01 1.9502666725566868e+01 2.9490682826401308e+01 
1768 1769 2 1.0280000000000005e+00 -1.2708915219092248e+03 1.0000000000000000e+00 3.1716730517233076e+00 1.0790265096875752e+01 3.2364236849315290e+01 
1686 1687 2 1.0280000000000005e+00 1.7278521557938748e+03 1.0000000000000000e+00 3.8793110689307984e+00 1.0180263592407576e+01 3.2200583736491268e+01 
4372 4373 2 1.0279999999999994e+00 2.3885165892565840e+02 1.0000000000000000e+00 1.9001160057563197e+01 3.6576037887496078e+01 5.3705403388378015e+00 
3449 3450 2 1.0279999999999994e+00 1.7288590637701168e+03 1.0000000000000000e+00 1.8237550807570457e+01 3.6083663138869859e+01 5.6427603976662741e+00 
2474 2475 2 1.0280000000000007e+00 1.6893994385833145e+02 1.0000000000000000e+00 1.5583493361927965e+00 2.0540433019519561e+01 8.6811001833683132e+00 
4130 4131 2 1.0279999999986886e+00 -1.2003716012621667e+03 1.0000000000000000e+00 1.3809799928424228e+01 2.6986415913416312e+01 7.4069780789493365e+00 
4145 4146 2 1.0280000000037401e+00 -1.1819416658574855e+03 1.0000000000000000e+00 1.3928460229907310e+01 2.8299145979106697e+01 7.3221574265160072e+00 
3003 3004 2 1.0280000000129177e+00 2.2453155208939784e+03 1.0000000000000000e+00 1.3276676312464163e+01 2.9062078334805197e+01 8.7775782465415340e+00 
2659 2660 2 1.0279999999955221e+00 1.5616437457579045e+02 1.0000000000000000e+00 1.5086780751487565e+01 2.7310168307195262e+01 7.8417111360029841e+00 
3925 3926 2 1.0279999999852736e+00 8.9957359894655826e+02 1.0000000000000000e+00 1.2017243165004995e+01 2.9508767031256657e+01 8.8998940494885481e+00 
3456 3457 2 1.0279999999785845e+00 1.2863996705414158e+03 1.0000000000000000e+00 1.3181585879926111e+01 3.0267674952721059e+01 7.8390885351331132e+00 
2528 2529 2 1.0279999999901539e+00 -1.0626451832418529e+03 1.0000000000000000e+00 1.4419507828498675e+01 3.0277423741167198e+01 7.2798250121493107e+00 
2527 2528 2 1.0280000000223397e+00 -5.1824593774571476e+03 1.0000000000000000e+00 1.5298592565580625e+01 3.0923028948662321e+01 8.1443287392814980e+00 
956 957 2 1.0279999999971430e+00 -1.3127211293592791e+03 1.0000000000000000e+00 2.1171454590777969e+01 3.1123861987540394e+01 9.0240838232459311e+00 
3314 3315 2 1.0280000000000007e+00 1.2808493122226298e+03 1.0000000000000000e+00 1.5686932213829827e+00 2.1165884765711493e+01 9.3940790451955163e+00 
2572 2573 2 1.0280000000097500e+00 5.7425398882321952e+02 1.0000000000000000e+00 1.0936902037590750e+01 2.8186815750736976e+01 9.2415716152889473e+00 
2573 2574 2 1.0279999999914955e+00 7.5229346026616417e+02 1.0000000000000000e+00 1.0781981019674514e+01 2.8943912532068737e+01 9.9891420885333204e+00 
3666 3667 2 1.0280000000094129e+00 -1.3059244720145211e+03 1.0000000000000000e+00 1.5321716241638523e+01 2.8198203729345551e+01 9.1274084158139335e+00 
3665 3666 2 1.0279999999771137e+00 -1.3153193046108754e+03 1.0000000000000000e+00 1.5507467848597713e+01 2.9303298872382463e+01 9.5201806689927047e+00 
2431 2432 2 1.0279999999920415e+00 -6.8570577397761622e+02 1.0000000000000000e+00 1.6636308341101333e+01 3.0640504872669421e+01 9.5773174808811454e+00 
2676 2677 2 1.0280000000015217e+00 1.4751763826572034e+02 1.0000000000000000e+00 1.7906489176342738e+01 3.0558055857739511e+01 1.0145178165371142e+01 
935 936 2 1.0279999999898011e+00 -1.3091476600047386e+03 1.0000000000000000e+00 1.9351776059866502e+01 3.0429153301957648e+01 1.0142741982641258e+01 
3922 3923 2 1.0280000000017231e+00 -2.0957463058849970e+02 1.0000000000000000e+00 1.5583607567281620e+01 3.1802200901073185e+01 9.1853620404265577e+00 
3279 3280 2 1.0280000000352529e+00 1.6153350112118628e+03 1.0000000000000000e+00 1.5247399377104937e+01 3.1417314189717924e+01 1.0744836273689600e+01 
146 147 2 1.0280000000062064e+00 -1.7924870342684567e+03 1.0000000000000000e+00 2.0807398738623469e+01 3.1211889094509580e+01 1.0447822137469574e+01 
936 937 2 1.0279999999956806e+00 -1.3050236436370224e+03 1.0000000000000000e+00 1.9666033231212019e+01 3.1956818911423408e+01 9.5349238114717956e+00 
955 956 2 1.0280000000002039e+00 -1.2994488536345057e+03 1.0000000000000000e+00 2.1068349212720822e+01 3.2462615996422677e+01 9.2940190621966270e+00 
2512 2513 2 1.0279999999893625e+00 5.0103800945214101e+02 1.0000000000000000e+00 1.7182532991664026e+01 3.2742059368629491e+01 9.8470021066338269e+00 
2470 2471 2 1.0280000000046408e+00 1.0326212949928276e+03 1.0000000000000000e+00 1.8167564890514935e+01 3.3246016491651446e+01 9.8535442404440872e+00 
2994 2995 2 1.0280000000414875e+00 1.9471821175861942e+03 1.0000000000000000e+00 1.5097241948098020e+01 2.8611532502069831e+01 1.1260523486569323e+01 
2996 2997 2 1.0279999999628384e+00 2.4949336796540019e+03 1.0000000000000000e+00 1.4618931155309431e+01 2.9509188410309189e+01 1.1300643950298349e+01 
2442 2443 2 1.0279999999783913e+00 2.6510493946471429e+03 1.0000000000000000e+00 1.6010151546834024e+01 3.1172305304455435e+01 1.1640498445511282e+01 
3004 3005 2 1.0280000000083818e+00 2.3101932774031411e+03 1.0000000000000000e+00 1.6939061272700219e+01 3.2473836441641531e+01 1.1857309943680830e+01 
3685 3686 2 1.0280000000141141e+00 -1.3047690908221348e+03 1.0000000000000000e+00 1.9055498267528506e+01 3.0924435694614942e+01 1.1782587581523536e+01 
3316 3317 2 1.0280000000088063e+00 1.6043151371038339e+03 1.0000000000000000e+00 1.8373199469857774e+01 3.2064722166868840e+01 1.1135817123699834e+01 
3686 3687 2 1.0279999999906799e+00 -1.3329335123099463e+03 1.0000000000000000e+00 1.9968418822475652e+01 3.1653288822048406e+01 1.2617443499865848e+01 
1937 1938 2 1.0280000000000005e+00 -3.6708644671296770e+02 1.0000000000000000e+00 5.5967824365032355e+00 2.1592605398236003e+01 1.3116356226341365e+01 
2399 2400 2 1.0280000000000005e+00 -3.7135570438057300e+02 1.0000000000000000e+00 5.9139634701845925e+00 2.2422733731806336e+01 1.2784816060050238e+01 
2683 2684 2 1.0280000000000000e+00 -6.8311387449198037e+02 1.0000000000000000e+00 7.7082338280298632e+00 2.5265471420302767e+01 1.4203930720380150e+01 
3652 3653 2 1.0280000000000000e+00 1.6017310780044750e+03 1.0000000000000000e+00 8.4899786910455468e+00 2.5741817101381379e+01 1.3955726164712605e+01 
4286 4287 2 1.0280000000940801e+00 -4.4795180788331243e+02 1.0000000000000000e+00 2.1362734759542732e+01 3.0866142984198042e+01 1.4389288761663600e+01 
2610 2611 2 1.0280000000096201e+00 2.6639641280256137e+03 1.0000000000000000e+00 1.7040141953510187e+01 3.1916087982436526e+01 1.3189093903914062e+01 
3463 3464 2 1.0280000000116567e+00 2.8715564825943775e+03 1.0000000000000000e+00 1.6482250449433209e+01 3.3216516724789727e+01 1.3573282707630831e+01 
4138 4139 2 1.0279999999698166e+00 1.7764024556304767e+02 1.0000000000000000e+00 1.7777151869157194e+01 3.3399021246061174e+01 1.3710398218588026e+01 
2407 2408 2 1.0280000000060432e+00 1.6653674934921375e+02 1.0000000000000000e+00 2.0547092010456346e+01 3.2733404348379807e+01 1.3323685468646461e+01 
3718 3719 2 1.0280000000035963e+00 1.7054940125697283e+02 1.0000000000000000e+00 1.9301720510175702e+01 3.3118861670688538e+01 1.3384157989846766e+01 
1821 1822 2 1.0280000000000020e+00 -1.1385864305943824e+03 1.0000000000000000e+00 1.8465595634412804e+01 2.5579142324029291e+01 1.5087907831911227e+01 
2281 2282 2 1.0280000000000020e+00 -1.0880891179690543e+03 1.0000000000000000e+00 1.8045479536072868e+01 2.6327941262210963e+01 1.5490944249969697e+01 
2993 2994 2 1.0279999999999998e+00 2.1830773111371836e+03 1.0000000000000000e+00 6.4683121790962170e+00 2.9720707622011140e+01 1.6302447899084200e+01 
2364 2365 2 1.0279999999191669e+00 2.5562913479317729e+02 1.0000000000000000e+00 2.1563642837183064e+01 3.0750499032254499e+01 1.5320658206943595e+01 
2353 2354 2 1.0280000000533531e+00 6.6789697168623798e+02 1.0000000000000000e+00 1.9097286270364812e+01 3.2615516503734177e+01 1.5402315383210738e+01 
4287 4288 2 1.0279999999513409e+00 -1.1967206007130421e+03 1.0000000000000000e+00 1.9998359036942180e+01 3.2251299931101691e+01 1.5459879617858201e+01 
4083 4084 2 1.0280000000000005e+00 9.5950219006444445e+02 1.0000000000000000e+00 1.5096371851354856e+01 2.8224794499436179e+01 1.7574444280081934e+01 
2529 2530 2 1.0280000000000009e+00 -2.1699474991615371e+03 1.0000000000000000e+00 6.0915662009850760e+00 2.9637416508949705e+01 1.7182188775909278e+01 
1975 1976 2 1.0279999999999894e+00 -1.0435468332603546e+03 1.0000000000000000e+00 8.2440779060415625e+00 2.9911670099498096e+01 1.7678070353038191e+01 
2016 2017 2 1.0280000000000105e+00 -1.0508649833456270e+03 1.0000000000000000e+00 7.9830179035462283e+00 3.0820205420937597e+01 1.7507101944585489e+01 
4461 4462 2 1.0280000000000005e+00 -1.0549673774490998e+03 1.0000000000000000e+00 1.4662424693753351e+01 2.8447608133285719e+01 1.8387881240865077e+01 
1928 1929 2 1.0279999999999982e+00 -2.2474361643616180e+02 1.0000000000000000e+00 1.8715543389586049e+01 3.6045567134712051e+01 2.0569908609310424e+01 
1427 1428 2 1.0279999999999982e+00 -4.2012096790001567e+02 1.0000000000000000e+00 1.9639063652277116e+01 3.5937090405553263e+01 2.0756934981295291e+01 
169 170 2 1.0279999999999989e+00 2.3284389059646873e+02 1.0000000000000000e+00 6.2922949581047796e+00 2.1375366076651204e+01 2.5267096548380756e+01 
1892 1893 2 1.0279999999999989e+00 -5.7495919989978711e+02 1.0000000000000000e+00 6.9520057231374199e+00 2.1960104822145297e+01 2.4917099339526416e+01 
1340 1341 2 1.0280000000000005e+00 1.2996778127476482e+03 1.0000000000000000e+00 2.1765479568230102e+01 2.1815239030408726e+01 2.8869621479364138e+01 
2180 2181 2 1.0280000000000005e+00 1.6998210393239719e+02 1.0000000000000000e+00 2.1831505441979708e+01 2.2652034118144570e+01 2.9311266478571127e+01 
3752 3753 2 1.0279999999999991e+00 6.2483580761452436e+02 1.0000000000000000e+00 2.9736059619064857e+01 2.8900450334804383e+01 2.9471950500267937e+01 
4088 4089 2 1.0279999999999991e+00 5.9212488056281836e+02 1.0000000000000000e+00 3.0651385952950491e+01 2.8760193299751275e+01 2.9266666777578145e+01 
2188 2189 2 1.0280000000000014e+00 -5.0496211289731411e+02 1.0000000000000000e+00 1.2899233050830322e+01 2.8771030635241125e+01 3.1117801415802639e+01 
842 843 2 1.0280000000000014e+00 5.0234416522735194e+02 1.0000000000000000e+00 1.3698759014497568e+01 2.9240711646737715e+01 3.0918317779758787e+01 
3945 3946 2 1.0280000000000071e+00 -1.9061388364969321e+03 1.0000000000000000e+00 2.5562074899866996e+01 3.4709933808184594e+01 3.4137814083106932e+01 
2769 2770 2 1.0279999999999991e+00 -7.0823947634953788e+02 1.0000000000000000e+00 2.4238083569596792e+01 2.2904938240948258e+01 3.5059796054065011e+01 
2728 2729 2 1.0279999999999991e+00 1.5436802613832988e+03 1.0000000000000000e+00 2.5096070797008547e+01 2.3121203798466201e+01 3.4718148770426566e+01 
811 812 2 1.0280000000000016e+00 -1.8934169928420329e+02 1.0000000000000000e+00 2.0436528093075694e+01 3.6271520181708588e+01 3.5615444723663124e+01 
711 712 2 1.0280000000000071e+00 -1.8927420180179906e+03 1.0000000000000000e+00 2.5251184520688756e+01 3.5425775430596694e+01 3.4676844401312295e+01 
2185 2186 2 1.0280000000000016e+00 -2.0208706723951509e+03 1.0000000000000000e+00 2.1227498089038917e+01 3.6758322445707677e+01 3.5423023931026066e+01 
1854 1855 2 1.0280000012277595e+00 -3.6791383369367520e+02 1.0000000000000000e+00 4.4085805429261782e+01 1.7001232641744497e+00 5.3175660032893013e-01 
3870 3871 2 1.0280000001595575e+00 3.0535617377306960e+02 1.0000000000000000e+00 4.5708022192946984e+01 1.9584541606512595e-01 8.5787908874216057e-01 
3789 3790 2 1.0280000000534770e+00 1.1036194939400771e+03 1.0000000000000000e+00 4.6664197360766494e+01 1.1867617309633004e-01 1.4892975927059089e+00 
2576 2577 2 1.0280000003412684e+00 4.7259607316711913e+02 1.0000000000000000e+00 4.8409160690682313e+01 5.2733282084089998e-02 4.5663070700690345e-01 
2689 2690 2 1.0279999985457442e+00 6.7132255223010475e+02 1.0000000000000000e+00 4.9786574975273119e+01 1.7484819232074185e+00 1.3786508413049963e+00 
4258 4259 2 1.0280000008155652e+00 -1.1590103510479648e+03 1.0000000000000000e+00 5.5999814931650143e+01 1.1977296565218560e+00 5.8814478192752517e-01 
3753 3754 2 1.0279999998276252e+00 5.1101779785449355e+02 1.0000000000000000e+00 5.5153531015775833e+01 4.8748642534082919e-02 1.2535570059817820e+00 
3839 3840 2 1.0279999995632347e+00 1.4178168428722900e+03 1.0000000000000000e+00 5.8496562694850503e+01 1.2584495348081555e+00 1.6321337564501102e+00 
3879 3880 2 1.0279999996600979e+00 4.3249781409061443e+00 1.0000000000000000e+00 5.8024614864571497e+01 6.9732820691103897e-02 7.4674196453600439e-01 
4259 4260 2 1.0280000004567329e+00 -1.5172773062990109e+03 1.0000000000000000e+00 5.9681647487264186e+01 1.5723699640467175e+00 9.6269473548404882e-01 
3802 3803 2 1.0280000004604131e+00 9.1495310617069026e+02 1.0000000000000000e+00 6.3946647280549158e+01 5.8920679103414564e-01 9.0642860328684582e-01 
4102 4103 2 1.0280000003402237e+00 3.8848181987907833e+02 1.0000000000000000e+00 6.5964992693670666e+01 1.0440678207451319e+00 5.1500175660536796e-01 
3096 3097 2 1.0279999997154070e+00 -7.8148559422212520e+02 1.0000000000000000e+00 6.4932891251119557e+01 1.7865659325567034e-02 3.2025996435026259e-02 
1855 1856 2 1.0279999989862803e+00 -4.2126728198542935e+02 1.0000000000000000e+00 4.3537303984917656e+01 2.3800238186459044e+00 1.1928974970850725e-01 
431 432 2 1.0280000012544415e+00 5.0259180164290694e+02 1.0000000000000000e+00 4.8331586532280966e+01 2.5305528674690341e+00 3.1593592964112988e-01 
4296 4297 2 1.0280000010805348e+00 -9.0380661692088938e+02 1.0000000000000000e+00 5.1539192454628179e+01 2.2836236073610223e+00 2.8416623775118083e-01 
2783 2784 2 1.0279999999574772e+00 6.9297526333709982e+02 1.0000000000000000e+00 5.9136696772556007e+01 2.9945471506647960e+00 4.0872448768028224e-01 
3806 3807 2 1.0280000008790613e+00 2.9234316002189320e+02 1.0000000000000000e+00 6.3022254730877428e+01 3.5152072146176074e+00 1.4820135876819314e+00 
3766 3767 2 1.0280000005115288e+00 3.8969735838544830e+02 1.0000000000000000e+00 6.5890167985427212e+01 2.6693863717507766e+00 1.2708770693667717e+00 
4565 4566 2 1.0280000000525891e+00 -2.4471556876392714e+02 1.0000000000000000e+00 6.5854487681779574e+01 3.4637615831528947e+00 8.9516562783603496e-02 
2483 2484 2 1.0280000010471062e+00 1.5701040317549086e+03 1.0000000000000000e+00 4.8142292542920472e+01 5.3753025957723084e+00 9.0914947398425472e-01 
2870 2871 2 1.0279999993947020e+00 -9.8977836299001453e+01 1.0000000000000000e+00 4.9298132625970055e+01 4.0684770449619911e+00 4.8801023916393776e-01 
3413 3414 2 1.0279999971977714e+00 6.9425558814264707e+02 1.0000000000000000e+00 5.1863186976613129e+01 4.4760837497014787e+00 4.6705082298998035e-01 
2871 2872 2 1.0279999979288117e+00 3.6648885717430566e+01 1.0000000000000000e+00 5.4986022971456734e+01 4.3995793907257035e+00 6.3674876137039238e-01 
650 651 2 1.0280000005678616e+00 2.5176390652613202e+02 1.0000000000000000e+00 5.6412433199134057e+01 4.7169898568827398e+00 4.9954092317392412e-01 
4261 4262 2 1.0280000003689385e+00 -6.1783043117638704e+02 1.0000000000000000e+00 5.7738985609903949e+01 4.0573092554896446e+00 1.1151271236173822e-01 
4345 4346 2 1.0280000008638535e+00 -5.1025263244169719e+02 1.0000000000000000e+00 5.9037822912767624e+01 5.0053357905593572e+00 1.1513822451133224e+00 
3432 3433 2 1.0279999992806801e+00 5.1670305130856502e+02 1.0000000000000000e+00 6.3669021197401250e+01 4.4411081008908129e+00 1.2404765671613107e+00 
4229 4230 2 1.0280000000559644e+00 -2.4682095306067515e+02 1.0000000000000000e+00 6.6034759900799145e+01 3.9943970319190303e+00 1.8136582264675281e+00 
3874 3875 2 1.0280000002156184e+00 2.9779114252809603e+02 1.0000000000000000e+00 4.7608743083802935e+01 6.5646255568335734e+00 6.1913827390395937e-01 
4339 4340 2 1.0279999991872573e+00 -7.5750531195662887e+01 1.0000000000000000e+00 5.3584431178630076e+01 6.8521067264371194e+00 4.1488126202810288e-01 
3374 3375 2 1.0280000011614618e+00 -3.2223675435608676e+01 1.0000000000000000e+00 5.4728603357433613e+01 6.9548658684314502e+00 1.1790959906153993e-01 
3841 3842 2 1.0279999997268283e+00 -3.4090165684871749e+02 1.0000000000000000e+00 5.7779217248087583e+01 5.6914211048587324e+00 1.3597703600610143e+00 
3844 3845 2 1.0279999995156623e+00 -1.1680041253209506e+03 1.0000000000000000e+00 6.0045537535992054e+01 5.8026026054703879e+00 3.2400988764969996e-01 
4609 4610 2 1.0280000000071050e+00 1.6075395221007597e+02 1.0000000000000000e+00 6.5856609965091153e+01 7.0415512707116585e+00 1.2226560267428697e+00 
3280 3281 2 1.0280000525954842e+00 1.2192318775714498e+03 1.0000000000000000e+00 4.9972334413636190e+01 9.0677955451722685e+00 1.0991854639117942e+00 
1482 1483 2 1.0280000010985213e+00 -6.8322288226705200e+02 1.0000000000000000e+00 5.4344793633937087e+01 7.7746420051421632e+00 1.5816504984422888e+00 
2495 2496 2 1.0280000011370851e+00 1.1926268909296894e+03 1.0000000000000000e+00 5.6609751374833145e+01 9.0200872382476724e+00 8.5374113413318653e-01 
4350 4351 2 1.0279999994568585e+00 -3.4918967413199175e+02 1.0000000000000000e+00 5.9645831117025352e+01 9.0099336154209659e+00 4.7202732895913363e-01 
4226 4227 2 1.0279999998674518e+00 3.1262354675548040e+03 1.0000000000000000e+00 5.8689507398358693e+01 8.3017797548671872e+00 1.6248085129947523e-01 
4269 4270 2 1.0279999999746494e+00 -1.2468147631358302e+03 1.0000000000000000e+00 6.4702927707486268e+01 8.0985444811525866e+00 1.3404658432022332e+00 
2822 2823 2 1.0279999474791506e+00 -1.2695600025074616e+02 1.0000000000000000e+00 5.0132631433729252e+01 9.3368308146828234e+00 2.0388614717079573e-01 
3881 3882 2 1.0280000003920660e+00 -1.0637254060789150e+01 1.0000000000000000e+00 5.5626421318511561e+01 9.9719685944064125e+00 1.3479071761673944e+00 
2041 2042 2 1.0279999996129998e+00 1.2262901004465702e+03 1.0000000000000000e+00 6.0024842457753763e+01 1.0806281226922236e+01 1.4514603365638818e+00 
72 73 2 1.0280000016490778e+00 4.5466116231271747e+02 1.0000000000000000e+00 6.1912780379234938e+01 9.4534285765869406e+00 1.8043546673433311e+00 
4054 4055 2 1.0280000003210947e+00 9.5933169198645555e+02 1.0000000000000000e+00 6.2518533317117466e+01 9.5999476540708102e+00 6.9876501592376072e-01 
823 824 2 1.0280000018736053e+00 -9.1267786963140509e+01 1.0000000000000000e+00 6.3873118901314356e+01 9.2180759245571622e+00 3.7120411021991800e-01 
1472 1473 2 1.0279999998770732e+00 8.0229242009209611e+02 1.0000000000000000e+00 4.6957900489100545e+01 1.2160289562100758e+01 6.2681881090968661e-01 
926 927 2 1.0280000002939778e+00 -4.1084679955040542e+02 1.0000000000000000e+00 4.8619484963537985e+01 1.1870833066698371e+01 1.5787754706483954e+00 
464 465 2 1.0279999998469773e+00 -4.2384461599186886e+02 1.0000000000000000e+00 4.9366927548377610e+01 1.2224328270287083e+01 7.2057258048958217e-01 
1532 1533 2 1.0280000015755983e+00 -6.8650558385150453e+02 1.0000000000000000e+00 5.3453347282311384e+01 1.2264817810907473e+01 1.0933736999186350e+00 
3880 3881 2 1.0280000013177391e+00 8.5788391192187578e+02 1.0000000000000000e+00 5.5024176293049400e+01 1.1619004593402931e+01 5.3270994220908452e-01 
2921 2922 2 1.0279999992671609e+00 -6.2450410581537085e+02 1.0000000000000000e+00 5.8521398138345965e+01 1.1397687095757655e+01 1.0071232600001214e+00 
4562 4563 2 1.0280000006775520e+00 3.1385070548651361e+03 1.0000000000000000e+00 5.7914510459408646e+01 1.1880159228792015e+01 3.6362740967681988e-02 
2396 2397 2 1.0279999996048079e+00 1.4598707221561290e+03 1.0000000000000000e+00 4.6575259512284937e+01 1.3596303420008226e+01 8.8430993767535448e-01 
1061 1062 2 1.0279999994969307e+00 -1.1680726529199740e+03 1.0000000000000000e+00 5.0899437121410287e+01 1.4021918528074076e+01 1.0565694406286446e+00 
324 325 2 1.0280000000526250e+00 -1.6465596805016548e+03 1.0000000000000000e+00 6.5008540835202780e+01 1.3650391644385191e+01 1.0201634498606065e+00 
744 745 2 1.0280000005615484e+00 1.5061350005210218e+02 1.0000000000000000e+00 6.6441117141103902e+01 1.3975990863927739e+01 1.0434227681474209e+00 
246 247 2 1.0280000000000000e+00 3.7258393670609653e+03 1.0000000000000000e+00 3.5197062342150033e+01 1.5040357756848769e+01 1.7066569695208609e+00 
1312 1313 2 1.0279999999999838e+00 2.0853414697600424e+03 1.0000000000000000e+00 4.9248575540215306e+01 1.5878520270304280e+01 7.3614159056589523e-01 
4340 4341 2 1.0279999992125293e+00 8.3277807245557426e+01 1.0000000000000000e+00 5.1410794926970652e+01 1.5587333281841163e+01 1.2772069889211211e+00 
3883 3884 2 1.0279999994151843e+00 2.8276756190085774e+02 1.0000000000000000e+00 5.2880260700264081e+01 1.5698590887796120e+01 1.2242861526906801e+00 
4217 4218 2 1.0279999997517835e+00 2.9849102460143636e+03 1.0000000000000000e+00 5.4945910571504307e+01 1.4608344238914416e+01 1.1344245904808101e-01 
3799 3800 2 1.0280000004987373e+00 -1.6195927620089083e+01 1.0000000000000000e+00 5.4944602624255303e+01 1.4843094006318031e+01 1.3208239212568955e+00 
3833 3834 2 1.0280000021162166e+00 -4.1388269910679276e+02 1.0000000000000000e+00 5.7660643431228110e+01 1.5060858657941548e+01 1.7634458520819303e+00 
570 571 2 1.0279999998750582e+00 3.7813038399663576e+01 1.0000000000000000e+00 5.6289353220574135e+01 1.5143149762143073e+01 5.1930241213575501e-01 