LAMMPS data file via write_data, version 30 Jul 2016, timestep = 50400000

4620 atoms
8 atom types

0.0000000000000000e+00 1.0000000000000000e+02 xlo xhi
0.0000000000000000e+00 4.0000000000000000e+01 ylo yhi
0.0000000000000000e+00 4.0000000000000000e+01 zlo zhi

Masses

1 3.896
2 5.36
3 20.064
4 8.378
5 8.378
6 8.378
7 8.378
8 8.378

Atoms # meso-molecular

301 302 2 1.0280000000000005e+00 -7.5021438773030354e+02 1.0000000000000000e+00 1.6921084786270399e+01 1.3549005662794418e+01 3.0503765177429756e+00 
1186 1187 2 1.0280000000000005e+00 1.6126474487246819e+03 1.0000000000000000e+00 1.7618323834944572e+01 1.2909622722539645e+01 3.1188082713583318e+00 
3199 3200 2 1.0279999999999996e+00 -1.7028292393599595e+03 1.0000000000000000e+00 1.9341058532941130e+01 1.0464317367682934e+01 8.6762944760113943e+00 
3614 3615 2 1.0279999999999996e+00 -2.8330251928958489e+02 1.0000000000000000e+00 1.9609059143260907e+01 1.1258414417280191e+01 8.2321984403648898e+00 
3317 3318 2 1.0279999999999998e+00 -2.8076829764604986e+02 1.0000000000000000e+00 2.8774399419243824e+01 1.5325840928515877e+01 7.7034117773632795e+00 
1007 1008 2 1.0279999999999998e+00 -2.8061687230849668e+02 1.0000000000000000e+00 2.8928786754401624e+01 1.6261579173476367e+01 7.7173483425396947e+00 
4323 4324 2 1.0280000000000022e+00 7.3843937053264995e+01 1.0000000000000000e+00 2.4662512728681616e+01 8.4761307211709074e+00 1.0576951243001462e+01 
165 166 2 1.0280000000000022e+00 7.2862977591946219e+01 1.0000000000000000e+00 2.3786490744303979e+01 8.5229608247294735e+00 1.0937545425532921e+01 
2393 2394 2 1.0280000000000011e+00 -5.8197334562791025e+02 1.0000000000000000e+00 1.1238322381630224e+01 1.6931790912339363e+01 1.1979801327475691e+01 
2354 2355 2 1.0280000000000011e+00 -5.9435350860871449e+02 1.0000000000000000e+00 1.1754345776346153e+01 1.7606629417458578e+01 1.1557961798386621e+01 
3943 3944 2 1.0279999999999998e+00 1.7213657453180526e+03 1.0000000000000000e+00 2.8275334656198417e+01 1.0254983867670505e+01 1.3701121391977365e+01 
4403 4404 2 1.0279999999999998e+00 -9.4895547423414905e+02 1.0000000000000000e+00 2.9085828092860265e+01 9.8008613875727448e+00 1.3510048363044161e+01 
2857 2858 2 1.0279999999999963e+00 -8.9619564324349767e+02 1.0000000000000000e+00 4.7464663359852599e+00 8.4522970199368999e+00 1.5132213141232054e+01 
3109 3110 2 1.0280000000000009e+00 -8.9591008325452026e+02 1.0000000000000000e+00 5.6601526044374326e+00 8.1555250020770966e+00 1.4810498027458607e+01 
2764 2765 2 1.0280000000000018e+00 -1.3828558091243508e+02 1.0000000000000000e+00 8.2073005704044419e+00 9.9404919115847683e+00 1.5457990839575363e+01 
3684 3685 2 1.0279999999999938e+00 -1.6756858818634364e+03 1.0000000000000000e+00 7.2380120330246269e+00 1.0132722847992657e+01 1.5394547998315250e+01 
1255 1256 2 1.0280000000000009e+00 -1.9391123077599292e+02 1.0000000000000000e+00 2.0932330038463451e+01 1.6552254930200789e+01 1.4873572664385849e+01 
1845 1846 2 1.0280000000000009e+00 2.1065338104884796e+02 1.0000000000000000e+00 2.1343192975566559e+01 1.6411328584561382e+01 1.5716761345647349e+01 
3122 3123 2 1.0280000000000054e+00 -8.9324536541704276e+01 1.0000000000000000e+00 6.5777016826673407e+00 7.1593788663359987e+00 1.6813281870097899e+01 
4169 4170 2 1.0279999999999989e+00 4.3642528014891730e+02 1.0000000000000000e+00 5.6951503994426940e+00 7.9534701180016780e+00 1.6700179419697861e+01 
4254 4255 2 1.0279999999999943e+00 -1.3589017552948308e+03 1.0000000000000000e+00 7.2042113329646549e+00 7.9700772054727596e+00 1.7977621953034188e+01 
3496 3497 2 1.0280000000000056e+00 1.6193979874626834e+03 1.0000000000000000e+00 6.7489684273398911e+00 9.5025109210688061e+00 1.7243536038756815e+01 
4585 4586 2 1.0279999999999947e+00 -2.6701703931395656e+01 1.0000000000000000e+00 8.0111302167765466e+00 9.5141893364403476e+00 1.7392337519640744e+01 
2141 2142 2 1.0280000000000009e+00 3.2072565857577638e+02 1.0000000000000000e+00 8.4861968570022395e+00 1.1776849880802628e+01 1.7687612160232053e+01 
3412 3413 2 1.0280000000000016e+00 1.6237010613167799e+03 1.0000000000000000e+00 5.7712655595502111e+00 7.9039152367166512e+00 1.8807027830250032e+01 
54 55 2 1.0279999999999982e+00 -6.3462192239174101e+02 1.0000000000000000e+00 6.3552194805543527e+00 9.1521900287120044e+00 1.8960461001953060e+01 
4548 4549 2 1.0279999999999998e+00 -6.3958520558737655e+02 1.0000000000000000e+00 8.1143447320612303e+00 1.0135270813300886e+01 1.8913022094202113e+01 
2533 2534 2 1.0279999999999994e+00 -3.1065453791056534e+03 1.0000000000000000e+00 1.3507701174530672e+01 9.6559237383140282e+00 1.9723971039467898e+01 
390 391 2 1.0279999999999980e+00 -6.4068027417876283e+02 1.0000000000000000e+00 8.2054158763760352e+00 1.1125584726681696e+01 1.9610552698412274e+01 
2102 2103 2 1.0279999999999989e+00 3.3883600448529359e+02 1.0000000000000000e+00 9.3116714076481859e+00 1.2062810957185581e+01 1.8245359458641840e+01 
553 554 2 1.0279999999999994e+00 -1.3226192603272558e+01 1.0000000000000000e+00 7.6561577767710443e+00 1.3348397365559379e+01 1.8718570785404602e+01 
552 553 2 1.0280000000000002e+00 1.4502218429513152e+03 1.0000000000000000e+00 8.4226560515869160e+00 1.3875204478679869e+01 1.8380505955434899e+01 
4212 4213 2 1.0280000000000051e+00 -6.3866126969852576e+02 1.0000000000000000e+00 6.3215989085224544e+00 8.0773991508867855e+00 2.0270736474660595e+01 
640 641 2 1.0279999999999958e+00 2.9403232455276122e+02 1.0000000000000000e+00 7.6177717061792025e+00 8.2009647933881862e+00 2.0565399667075546e+01 
2869 2870 2 1.0280000000000016e+00 -2.2693865733390123e+02 1.0000000000000000e+00 8.6703290869036937e+00 8.2962149034332651e+00 2.1465020846038939e+01 
3958 3959 2 1.0279999999999974e+00 2.9712491469529687e+02 1.0000000000000000e+00 9.8112639139520113e+00 8.5269614110667202e+00 2.0555695231363075e+01 
3119 3120 2 1.0279999999999996e+00 -4.9598222907692542e+02 1.0000000000000000e+00 1.0932882936193785e+01 8.6560024876872763e+00 2.1569428238976236e+01 
3459 3460 2 1.0279999999999976e+00 2.2940831376027199e+03 1.0000000000000000e+00 1.2956399747682195e+01 8.5543731163170733e+00 2.1483625666566471e+01 
724 725 2 1.0280000000000025e+00 2.9307422366887204e+02 1.0000000000000000e+00 9.4689221058745634e+00 1.0220241789197065e+01 2.0503847323154186e+01 
307 308 2 1.0280000000000002e+00 -1.6260789221690293e+03 1.0000000000000000e+00 1.0982607433798742e+01 1.0026727971365698e+01 2.1517776836137898e+01 
2995 2996 2 1.0280000000000011e+00 2.8137234543306336e+03 1.0000000000000000e+00 1.3039321858946447e+01 1.0450866252290902e+01 2.0026622785972013e+01 
3121 3122 2 1.0279999999999994e+00 -2.3664510158203251e+02 1.0000000000000000e+00 1.0002246106563041e+01 1.1728166878706222e+01 2.1229031299994432e+01 
1182 1183 2 1.0279999999999974e+00 6.5065429842464903e+02 1.0000000000000000e+00 8.8957818637983372e+00 1.1868342244628215e+01 2.1129815211513151e+01 
73 74 2 1.0280000000000000e+00 -6.1786928044814499e+02 1.0000000000000000e+00 2.5954461829302044e+01 3.0922638923694096e-01 2.3102099657403258e+01 
3439 3440 2 1.0280000000000000e+00 6.4086350609754743e+02 1.0000000000000000e+00 2.6869924539182637e+01 4.7704828550144512e-01 2.2919344142739412e+01 
1526 1527 2 1.0279999999999991e+00 -1.0018249727836243e+03 1.0000000000000000e+00 9.5514889481935086e+00 9.7194685231564524e+00 2.1988379570611158e+01 
2997 2998 2 1.0280000000000029e+00 2.7218564892741806e+03 1.0000000000000000e+00 1.3040310751802823e+01 9.4685258558240495e+00 2.1868508542871741e+01 
972 973 2 1.0280000000000000e+00 1.0427405821753632e+03 1.0000000000000000e+00 2.4439555545248773e+01 9.9113578934026325e+00 2.3333676510414286e+01 
5 6 2 1.0280000000000000e+00 7.1456003832542660e+02 1.0000000000000000e+00 2.4120148988351367e+01 1.0612541305327996e+01 2.2780542697996864e+01 
2987 2988 2 1.0279999999999989e+00 2.8062572370127214e+02 1.0000000000000000e+00 9.5819708760379427e+00 3.8264575465158006e+00 2.4552038236803426e+01 
3450 3451 2 1.0279999999999989e+00 -1.3143050526337484e+02 1.0000000000000000e+00 9.2068160644766390e+00 4.2759163769083885e+00 2.5298283080894368e+01 
169 170 2 1.0279999999999989e+00 2.3284389059646873e+02 1.0000000000000000e+00 5.7408984659059605e+00 1.9446729290731724e+01 2.5430614563864289e+01 
4506 4507 2 1.0279999999999980e+00 -1.3451925363634066e+03 1.0000000000000000e+00 2.2270551039841980e+01 2.4942428466750650e+00 2.6985356774687848e+01 
4087 4088 2 1.0279999999999980e+00 5.1108495078942121e+02 1.0000000000000000e+00 2.2968394844269859e+01 2.4771211853770159e+00 2.6343206781677019e+01 
1507 1508 2 1.0280000000000007e+00 -6.7936819616606863e+02 1.0000000000000000e+00 1.1424161628255519e+01 3.9330682520919309e+00 2.7246031617040387e+01 
1924 1925 2 1.0280000000000007e+00 3.9289241063431376e+02 1.0000000000000000e+00 1.0992900827801760e+01 4.1376783693674000e+00 2.8065656264112619e+01 
1686 1687 2 1.0280000000000005e+00 1.7278521557938748e+03 1.0000000000000000e+00 3.3248866887471937e+00 7.7284763313701230e+00 3.0840704220119648e+01 
925 926 2 1.0279999999999998e+00 -1.4101143043344682e+03 1.0000000000000000e+00 2.6253546502537521e+01 1.6495851098099312e+01 3.0436278755146034e+01 
1345 1346 2 1.0279999999999998e+00 -1.4100108254506731e+03 1.0000000000000000e+00 2.6667708753222623e+01 1.6718003057202040e+01 2.9612413549325293e+01 
1768 1769 2 1.0280000000000005e+00 -1.2708915219092248e+03 1.0000000000000000e+00 2.6172486715397030e+00 8.3384778358382992e+00 3.1004357332943670e+01 
4372 4373 2 1.0279999999999994e+00 2.3885165892565840e+02 1.0000000000000000e+00 1.8510103150070904e+01 3.6521955941818725e+01 5.2771202891861746e+00 
4130 4131 2 1.0279999999997564e+00 -1.2003716012621667e+03 1.0000000000000000e+00 1.3734786857005183e+01 2.5134038633674383e+01 6.6984591177529005e+00 
4145 4146 2 1.0280000000003255e+00 -1.1819416658574855e+03 1.0000000000000000e+00 1.3853446997976508e+01 2.6446768679253118e+01 6.6136382705403465e+00 
2659 2660 2 1.0279999999993132e+00 1.5616437457579045e+02 1.0000000000000000e+00 1.5011767784875117e+01 2.5457791355668768e+01 7.1331916965200772e+00 
3456 3457 2 1.0279999999973022e+00 1.2863996705414158e+03 1.0000000000000000e+00 1.3106572523029655e+01 2.8415296664311697e+01 7.1305695259955053e+00 
2528 2529 2 1.0279999999984479e+00 -1.0626451832418529e+03 1.0000000000000000e+00 1.4344493738405570e+01 2.8425045997210553e+01 6.5713046014863092e+00 
3449 3450 2 1.0279999999999994e+00 1.7288590637701168e+03 1.0000000000000000e+00 1.7746493900078164e+01 3.6029581193192506e+01 5.5493403480146473e+00 
2474 2475 2 1.0280000000000007e+00 1.6893994385833145e+02 1.0000000000000000e+00 9.2118294481101382e-01 2.0469668341846365e+01 8.3144290724720360e+00 
3314 3315 2 1.0280000000000007e+00 1.2808493122226298e+03 1.0000000000000000e+00 9.3152683000120007e-01 2.1095120088038296e+01 9.0274079342992390e+00 
2572 2573 2 1.0280000000014802e+00 5.7425398882321952e+02 1.0000000000000000e+00 1.0861888959955310e+01 2.6334437700287840e+01 8.5330543841512654e+00 
3003 3004 2 1.0280000000015685e+00 2.2453155208939784e+03 1.0000000000000000e+00 1.3201662715118259e+01 2.7209700765729558e+01 8.0690598694885249e+00 
3666 3667 2 1.0280000000012257e+00 -1.3059244720145211e+03 1.0000000000000000e+00 1.5246704698251465e+01 2.6345828190421933e+01 8.4188878383415915e+00 
3925 3926 2 1.0279999999982541e+00 8.9957359894655826e+02 1.0000000000000000e+00 1.1942229854956437e+01 2.7656389105374952e+01 8.1913761113440628e+00 
3665 3666 2 1.0279999999970606e+00 -1.3153193046108754e+03 1.0000000000000000e+00 1.5432456867542587e+01 2.7450923632635604e+01 8.8116589939751648e+00 
2527 2528 2 1.0280000000028964e+00 -5.1824593774571476e+03 1.0000000000000000e+00 1.5223580483462413e+01 2.9070652484404643e+01 7.4358055810200838e+00 
2431 2432 2 1.0279999999987597e+00 -6.8570577397761622e+02 1.0000000000000000e+00 1.6561298220882566e+01 2.8788129852720118e+01 8.8687917124737190e+00 
3922 3923 2 1.0280000000004250e+00 -2.0957463058849970e+02 1.0000000000000000e+00 1.5508597172951577e+01 2.9949826107123748e+01 8.4768369520265274e+00 
936 937 2 1.0279999999997373e+00 -1.3050236436370224e+03 1.0000000000000000e+00 1.9591024603867190e+01 3.0104445114780745e+01 8.8263929134049324e+00 
955 956 2 1.0279999999999674e+00 -1.2994488536345057e+03 1.0000000000000000e+00 2.0993340448120524e+01 3.0610242329736355e+01 8.5854878282245171e+00 
956 957 2 1.0279999999998037e+00 -1.3127211293592791e+03 1.0000000000000000e+00 2.1096445785808864e+01 2.9271488401024506e+01 8.3155526423301449e+00 
2573 2574 2 1.0279999999988545e+00 7.5229346026616417e+02 1.0000000000000000e+00 1.0706968107871621e+01 2.7091534580288538e+01 9.2806247307858865e+00 
2994 2995 2 1.0280000000049876e+00 1.9471821175861942e+03 1.0000000000000000e+00 1.5022231878075987e+01 2.6759157518652426e+01 1.0552001927395736e+01 
2996 2997 2 1.0279999999959437e+00 2.4949336796540019e+03 1.0000000000000000e+00 1.4543921404026586e+01 2.7656813802154439e+01 1.0592121454235860e+01 
935 936 2 1.0279999999988207e+00 -1.3091476600047386e+03 1.0000000000000000e+00 1.9276767395384368e+01 2.8576779815329004e+01 9.4342114950190332e+00 
2676 2677 2 1.0280000000003131e+00 1.4751763826572034e+02 1.0000000000000000e+00 1.7831480003440166e+01 2.8705681707800171e+01 9.4366492078697100e+00 
3279 3280 2 1.0280000000043048e+00 1.6153350112118628e+03 1.0000000000000000e+00 1.5172389064726572e+01 2.9564939709811270e+01 1.0036311027273918e+01 
2512 2513 2 1.0279999999988652e+00 5.0103800945214101e+02 1.0000000000000000e+00 1.7107524058610025e+01 3.0889685614176578e+01 9.1384728189267967e+00 
3316 3317 2 1.0280000000009439e+00 1.6043151371038339e+03 1.0000000000000000e+00 1.8298191195932464e+01 3.0212348957649915e+01 1.0427286832539856e+01 
146 147 2 1.0280000000005329e+00 -1.7924870342684567e+03 1.0000000000000000e+00 2.0732390095032326e+01 2.9359515392909316e+01 9.7392911904883039e+00 
2470 2471 2 1.0280000000006724e+00 1.0326212949928276e+03 1.0000000000000000e+00 1.8092555913919501e+01 3.1393642951022574e+01 9.1450142935066463e+00 
1937 1938 2 1.0280000000000005e+00 -3.6708644671296770e+02 1.0000000000000000e+00 4.7249853845320784e+00 2.0730554646742632e+01 1.1455741464552117e+01 
2399 2400 2 1.0280000000000005e+00 -3.7135570438057300e+02 1.0000000000000000e+00 5.0421664182134354e+00 2.1560682980312965e+01 1.1124201298260990e+01 
3685 3686 2 1.0280000000017453e+00 -1.3047690908221348e+03 1.0000000000000000e+00 1.8980490659076292e+01 2.9072062372689061e+01 1.1074056760546911e+01 
2442 2443 2 1.0279999999974687e+00 2.6510493946471429e+03 1.0000000000000000e+00 1.5935142549073657e+01 2.9319931145781585e+01 1.0931971991981451e+01 
2610 2611 2 1.0280000000010048e+00 2.6639641280256137e+03 1.0000000000000000e+00 1.6965134936912374e+01 3.0063714678920622e+01 1.2480564063990933e+01 
3004 3005 2 1.0280000000012204e+00 2.3101932774031411e+03 1.0000000000000000e+00 1.6864053112793211e+01 3.0621463091795697e+01 1.1148780385658652e+01 
3686 3687 2 1.0279999999990994e+00 -1.3329335123099463e+03 1.0000000000000000e+00 1.9893412328059082e+01 2.9800916979361798e+01 1.1908910695145776e+01 
2407 2408 2 1.0280000000006912e+00 1.6653674934921375e+02 1.0000000000000000e+00 2.0472086286647830e+01 3.0881032971742254e+01 1.2615151416903558e+01 
3718 3719 2 1.0280000000004950e+00 1.7054940125697283e+02 1.0000000000000000e+00 1.9226714240607674e+01 3.1266490127841692e+01 1.2675624038730840e+01 
2683 2684 2 1.0280000000000000e+00 -6.8311387449198037e+02 1.0000000000000000e+00 7.1606179404603996e+00 2.3460101481068797e+01 1.3695505978428365e+01 
3652 3653 2 1.0280000000000000e+00 1.6017310780044750e+03 1.0000000000000000e+00 7.9423628034760831e+00 2.3936447162147410e+01 1.3447301422760820e+01 
1821 1822 2 1.0280000000000020e+00 -1.1385864305943824e+03 1.0000000000000000e+00 1.7730202526226204e+01 2.4861756965090009e+01 1.3637849981761494e+01 
2281 2282 2 1.0280000000000020e+00 -1.0880891179690543e+03 1.0000000000000000e+00 1.7310086427886269e+01 2.5610555903271681e+01 1.4040886399819964e+01 
4286 4287 2 1.0280000000106344e+00 -4.4795180788331243e+02 1.0000000000000000e+00 2.1287736214666808e+01 2.9013776153196581e+01 1.3680747617193008e+01 
3463 3464 2 1.0280000000013445e+00 2.8715564825943775e+03 1.0000000000000000e+00 1.6407243853085404e+01 3.1364144462285026e+01 1.2864752190085893e+01 
4138 4139 2 1.0279999999961766e+00 1.7764024556304767e+02 1.0000000000000000e+00 1.7702145262106736e+01 3.1546648495243637e+01 1.3001866169358323e+01 
2993 2994 2 1.0279999999999998e+00 2.1830773111371836e+03 1.0000000000000000e+00 6.4684364174935647e+00 2.8579341270535259e+01 1.6100683030804703e+01 
2364 2365 2 1.0279999999909957e+00 2.5562913479317729e+02 1.0000000000000000e+00 2.1488644069297056e+01 2.8898132799321914e+01 1.4612117434374523e+01 
2353 2354 2 1.0280000000070155e+00 6.6789697168623798e+02 1.0000000000000000e+00 1.9022286275623053e+01 3.0763145722191126e+01 1.4693778360662513e+01 
4287 4288 2 1.0279999999937230e+00 -1.1967206007130421e+03 1.0000000000000000e+00 1.9923359775046407e+01 3.0398929264200127e+01 1.4751341814409647e+01 
2529 2530 2 1.0280000000000009e+00 -2.1699474991615371e+03 1.0000000000000000e+00 6.0916904393824236e+00 2.8496050157473825e+01 1.6980423907629781e+01 
1975 1976 2 1.0279999999999894e+00 -1.0435468332603546e+03 1.0000000000000000e+00 8.2442021444389102e+00 2.8770303748022215e+01 1.7476305484758694e+01 
4461 4462 2 1.0280000000000005e+00 -1.0549673774490998e+03 1.0000000000000000e+00 1.3797585131655310e+01 2.7725798042831919e+01 1.7604439889960609e+01 
4083 4084 2 1.0280000000000005e+00 9.5950219006444445e+02 1.0000000000000000e+00 1.4231532289256815e+01 2.7502984408982378e+01 1.6791002929177466e+01 
2016 2017 2 1.0280000000000105e+00 -1.0508649833456270e+03 1.0000000000000000e+00 7.9831421419435760e+00 2.9678839069461716e+01 1.7305337076305992e+01 
1928 1929 2 1.0279999999999982e+00 -2.2474361643616180e+02 1.0000000000000000e+00 1.9076162665893310e+01 3.5420424399623094e+01 2.0794313722468779e+01 
1427 1428 2 1.0279999999999982e+00 -4.2012096790001567e+02 1.0000000000000000e+00 1.9999682928584377e+01 3.5311947670464306e+01 2.0981340094453646e+01 
1892 1893 2 1.0279999999999989e+00 -5.7495919989978711e+02 1.0000000000000000e+00 6.4006092309386009e+00 2.0031468036225817e+01 2.5080617355009949e+01 
1340 1341 2 1.0280000000000005e+00 1.2996778127476482e+03 1.0000000000000000e+00 2.1042074322124289e+01 2.0605533173145183e+01 2.7556781381397411e+01 
2180 2181 2 1.0280000000000005e+00 1.6998210393239719e+02 1.0000000000000000e+00 2.1108100195873895e+01 2.1442328260881027e+01 2.7998426380604400e+01 
3752 3753 2 1.0279999999999991e+00 6.2483580761452436e+02 1.0000000000000000e+00 2.9510670924334956e+01 2.9463450519943045e+01 2.8701851340004666e+01 
4088 4089 2 1.0279999999999991e+00 5.9212488056281836e+02 1.0000000000000000e+00 3.0425997258220590e+01 2.9323193484889938e+01 2.8496567617314874e+01 
2188 2189 2 1.0280000000000014e+00 -5.0496211289731411e+02 1.0000000000000000e+00 1.3444541617132405e+01 2.7127751003760871e+01 3.0217742215654177e+01 
842 843 2 1.0280000000000014e+00 5.0234416522735194e+02 1.0000000000000000e+00 1.4244067580799651e+01 2.7597432015257461e+01 3.0018258579610325e+01 
3945 3946 2 1.0279999999999998e+00 -1.9061388364969321e+03 1.0000000000000000e+00 2.6029439599696882e+01 3.3360724995208571e+01 3.2823325366831668e+01 
711 712 2 1.0279999999999998e+00 -1.8927420180179906e+03 1.0000000000000000e+00 2.5718549220518643e+01 3.4076566617620692e+01 3.3362355685037031e+01 
2769 2770 2 1.0279999999999991e+00 -7.0823947634953788e+02 1.0000000000000000e+00 2.4912611949414977e+01 2.1221619534834435e+01 3.5942082210021546e+01 
2728 2729 2 1.0279999999999991e+00 1.5436802613832988e+03 1.0000000000000000e+00 2.5770599176826732e+01 2.1437885092352378e+01 3.5600434926383102e+01 
811 812 2 1.0280000000000016e+00 -1.8934169928420329e+02 1.0000000000000000e+00 2.0806565614766541e+01 3.5630525081865422e+01 3.5493975405148369e+01 
2185 2186 2 1.0280000000000016e+00 -2.0208706723951509e+03 1.0000000000000000e+00 2.1597535610729764e+01 3.6117327345864510e+01 3.5301554612511310e+01 
1854 1855 2 1.0279999961867408e+00 -3.6791383369367520e+02 1.0000000000000000e+00 4.4088644898917529e+01 1.7514109275510390e+00 5.5717514254562739e-01 
3870 3871 2 1.0279999995323028e+00 3.0535617377306960e+02 1.0000000000000000e+00 4.5710873134151726e+01 2.4718535149889759e-01 8.8348073522561033e-01 
3789 3790 2 1.0280000023568832e+00 1.1036194939400771e+03 1.0000000000000000e+00 4.6667043106387787e+01 1.6998515982590934e-01 1.5149589679185003e+00 
2576 2577 2 1.0280000072489441e+00 4.7259607319517789e+02 1.0000000000000000e+00 4.8412110957005773e+01 1.0392408820606309e-01 4.8253932279624695e-01 
2689 2690 2 1.0280000091406720e+00 6.7132255223010475e+02 1.0000000000000000e+00 4.9789639909326162e+01 1.7998919293870772e+00 1.4046800988663728e+00 
4258 4259 2 1.0280000062308168e+00 -1.1590103510479648e+03 1.0000000000000000e+00 5.6003219340579591e+01 1.2498521698006877e+00 6.1380068206198946e-01 
3753 3754 2 1.0279999975631400e+00 5.1101779785449355e+02 1.0000000000000000e+00 5.5156838310533139e+01 1.0086077934824450e-01 1.2792414031148611e+00 
3839 3840 2 1.0280000006905470e+00 1.4178168428722900e+03 1.0000000000000000e+00 5.8499975681980906e+01 1.3107199665137614e+00 1.6577951717640409e+00 
3879 3880 2 1.0280000002497272e+00 4.3249781422853637e+00 1.0000000000000000e+00 5.8027984901431857e+01 1.2201024245876764e-01 7.7247092211584334e-01 
4259 4260 2 1.0279999994061062e+00 -1.5172773062990109e+03 1.0000000000000000e+00 5.9685093282992653e+01 1.6246228385465198e+00 9.8833604397119978e-01 
3802 3803 2 1.0280000001118514e+00 9.1495310617069026e+02 1.0000000000000000e+00 6.3949960987502813e+01 6.4191533084717112e-01 9.3232738015696615e-01 
4102 4103 2 1.0280000004188652e+00 3.8848181987907833e+02 1.0000000000000000e+00 6.5968316915395661e+01 1.0968344649598178e+00 5.4095314160072705e-01 
3096 3097 2 1.0280000000099243e+00 -7.8148559422212520e+02 1.0000000000000000e+00 6.4936215252562903e+01 7.0595872250209843e-02 5.7948525868834061e-02 
1855 1856 2 1.0280000035714638e+00 -4.2126728198542935e+02 1.0000000000000000e+00 4.3540140751313650e+01 2.4313161879435259e+00 1.4470691101627445e-01 
431 432 2 1.0279999962727864e+00 5.0259180166338280e+02 1.0000000000000000e+00 4.8334699704198663e+01 2.5815867446326966e+00 3.4210661595854669e-01 
4296 4297 2 1.0280000003342917e+00 -9.0380661690164618e+02 1.0000000000000000e+00 5.1542514707715469e+01 2.3348814647904899e+00 3.1018904690010507e-01 
2783 2784 2 1.0280000015162907e+00 6.9297526333709982e+02 1.0000000000000000e+00 5.9140153926009191e+01 3.0467848606045171e+00 4.3435361060117034e-01 
3806 3807 2 1.0280000007900227e+00 2.9234316002189320e+02 1.0000000000000000e+00 6.3025796112547852e+01 3.5676082839736143e+00 1.5076641387662544e+00 
3766 3767 2 1.0280000003834089e+00 3.8969735838544830e+02 1.0000000000000000e+00 6.5893579189403596e+01 2.7220705869622708e+00 1.2968157315172868e+00 
4565 4566 2 1.0280000001662251e+00 -2.4471556876392714e+02 1.0000000000000000e+00 6.5857912956529930e+01 3.5164533650465439e+00 1.1540915256116463e-01 
2483 2484 2 1.0279999985861130e+00 1.5701040317549086e+03 1.0000000000000000e+00 4.8145582274708012e+01 5.4261760028576784e+00 9.3552212330787776e-01 
2870 2871 2 1.0279999875187849e+00 -9.8977836274886727e+01 1.0000000000000000e+00 4.9301208474167119e+01 4.1192570740481651e+00 5.1429468585056726e-01 
3413 3414 2 1.0280000001858263e+00 6.9425558815969316e+02 1.0000000000000000e+00 5.1866556565310091e+01 4.5275020765596530e+00 4.9295454956405049e-01 
2871 2872 2 1.0280000016783557e+00 3.6648885729272699e+01 1.0000000000000000e+00 5.4989463873524194e+01 4.4515396611893658e+00 6.6235249216160352e-01 
650 651 2 1.0280000029525733e+00 2.5176390652664625e+02 1.0000000000000000e+00 5.6415817270930127e+01 4.7690617358812739e+00 5.2509184735456216e-01 
4261 4262 2 1.0280000005080376e+00 -6.1783043117638704e+02 1.0000000000000000e+00 5.7742423656234706e+01 4.1094751300588594e+00 1.3707919135786570e-01 
4345 4346 2 1.0280000011092560e+00 -5.1025263244169719e+02 1.0000000000000000e+00 5.9041326212708121e+01 5.0575634386070165e+00 1.1769818699389161e+00 
3432 3433 2 1.0279999996121165e+00 5.1670305130856502e+02 1.0000000000000000e+00 6.3672574970216949e+01 4.4935668902767478e+00 1.2661646347233020e+00 
3874 3875 2 1.0280000034631473e+00 2.9779114254126125e+02 1.0000000000000000e+00 4.7611903466254276e+01 6.6156243432823425e+00 6.4553403546983390e-01 
4339 4340 2 1.0279999979282644e+00 -7.5750531195662887e+01 1.0000000000000000e+00 5.3588050403237879e+01 6.9040338785453610e+00 4.4033778274170260e-01 
3374 3375 2 1.0280000033052261e+00 -3.2223675431774105e+01 1.0000000000000000e+00 5.4732267902918814e+01 7.0068087114794695e+00 1.4333153551531941e-01 
3841 3842 2 1.0279999993520499e+00 -3.4090165684871749e+02 1.0000000000000000e+00 5.7782708552139376e+01 5.7435789069270111e+00 1.3853406495636860e+00 
3844 3845 2 1.0279999992641784e+00 -1.1680041253209506e+03 1.0000000000000000e+00 6.0048982370169611e+01 5.8549295886521984e+00 3.4964879210034794e-01 
4609 4610 2 1.0280000000865315e+00 1.6075395221007597e+02 1.0000000000000000e+00 6.5860047517724468e+01 7.0941855031581458e+00 1.2485037708084252e+00 
1482 1483 2 1.0280000002751288e+00 -6.8322288226705200e+02 1.0000000000000000e+00 5.4348511864483889e+01 7.8265987922055951e+00 1.6069873558988832e+00 
2495 2496 2 1.0280000002696295e+00 1.1926268909296894e+03 1.0000000000000000e+00 5.6613711199380887e+01 9.0718026709079229e+00 8.7914223542174774e-01 
4226 4227 2 1.0280000003802490e+00 3.1262354675548040e+03 1.0000000000000000e+00 5.8693403571082101e+01 8.3537684364227101e+00 1.8799960229799340e-01 
4350 4351 2 1.0279999995336924e+00 -3.4918967413199175e+02 1.0000000000000000e+00 5.9649718218893568e+01 9.0619320901691101e+00 4.9751322850888485e-01 
4269 4270 2 1.0280000000202363e+00 -1.2468147631358302e+03 1.0000000000000000e+00 6.4706413699461720e+01 8.1510568388056672e+00 1.3662469996328874e+00 
3280 3281 2 1.0280025787502460e+00 1.2192318791533160e+03 1.0000000000000000e+00 4.9965437652224978e+01 9.1159964984494266e+00 1.1745335478291905e+00 
2822 2823 2 1.0279974261059042e+00 -1.2695600024386526e+02 1.0000000000000000e+00 5.0125670946218960e+01 9.3851428914586403e+00 2.7925067986545121e-01 
3881 3882 2 1.0280000009440113e+00 -1.0637254058296179e+01 1.0000000000000000e+00 5.5630392697320680e+01 1.0023663125548648e+01 1.3732631922877614e+00 
2041 2042 2 1.0280000000687928e+00 1.2262901004465702e+03 1.0000000000000000e+00 6.0028828145573925e+01 1.0858374701546044e+01 1.4769317992906277e+00 
4054 4055 2 1.0280000002908878e+00 9.5933169198645555e+02 1.0000000000000000e+00 6.2522072483061876e+01 9.6523623738156878e+00 7.2431135341457309e-01 
823 824 2 1.0280000012049733e+00 -9.1267786963140509e+01 1.0000000000000000e+00 6.3876663916184000e+01 9.2705875851609925e+00 3.9688095432988502e-01 
1472 1473 2 1.0280000003102672e+00 8.0229242012789280e+02 1.0000000000000000e+00 4.6961736898959423e+01 1.2211813176202986e+01 6.5261234161107307e-01 
926 927 2 1.0280000022490992e+00 -4.1084679952052369e+02 1.0000000000000000e+00 4.8623591389053338e+01 1.1922332383150380e+01 1.6046721130967176e+00 
464 465 2 1.0280000005204397e+00 -4.2384461594420799e+02 1.0000000000000000e+00 4.9371109874878030e+01 1.2276020308700305e+01 7.4653391134808933e-01 
1532 1533 2 1.0280000002942156e+00 -6.8650558385150453e+02 1.0000000000000000e+00 5.3457449180886591e+01 1.2316592145127649e+01 1.1186756928701589e+00 
3880 3881 2 1.0280000009749648e+00 8.5788391192187578e+02 1.0000000000000000e+00 5.5028329672568312e+01 1.1670848082540036e+01 5.5814421532510816e-01 
2921 2922 2 1.0279999995533609e+00 -6.2450410581537085e+02 1.0000000000000000e+00 5.8525368870649167e+01 1.1449710855677962e+01 1.0325924123916987e+00 
4562 4563 2 1.0280000006320555e+00 3.1385070548651361e+03 1.0000000000000000e+00 5.7918432391410512e+01 1.1932202184387990e+01 6.1880302927789892e-02 
2396 2397 2 1.0280000016791995e+00 1.4598707221561290e+03 1.0000000000000000e+00 4.6579119770623450e+01 1.3647825081861788e+01 9.1003543365595985e-01 
1061 1062 2 1.0280000019077500e+00 -1.1680726529199740e+03 1.0000000000000000e+00 5.0903545659393551e+01 1.4073598453985920e+01 1.0822241776077730e+00 
324 325 2 1.0280000001529479e+00 -1.6465596805016548e+03 1.0000000000000000e+00 6.5011785562525631e+01 1.3704292741497682e+01 1.0475114362658322e+00 
744 745 2 1.0280000003372392e+00 1.5061350005210218e+02 1.0000000000000000e+00 6.6444397086234716e+01 1.4029951280349540e+01 1.0707975542860051e+00 
1312 1313 2 1.0280000001146912e+00 2.0853414697600424e+03 1.0000000000000000e+00 4.9252581335315526e+01 1.5930063433704030e+01 7.6193713434322519e-01 
4340 4341 2 1.0279999991606210e+00 8.3277807247631429e+01 1.0000000000000000e+00 5.1414819196830116e+01 1.5639105085341241e+01 1.3029647125119086e+00 
3883 3884 2 1.0280000000905276e+00 2.8276756190085774e+02 1.0000000000000000e+00 5.2884229872247388e+01 1.5750452896339477e+01 1.2500896985172942e+00 
4217 4218 2 1.0280000001944569e+00 2.9849102460143636e+03 1.0000000000000000e+00 5.4949961521289268e+01 1.4660432883547065e+01 1.3915832732465752e-01 
3799 3800 2 1.0279999998947722e+00 -1.6195927615249925e+01 1.0000000000000000e+00 5.4948673248229504e+01 1.4895119698421841e+01 1.3465454424439347e+00 
3833 3834 2 1.0280000011101509e+00 -4.1388269910679276e+02 1.0000000000000000e+00 5.7664718292352582e+01 1.5113157429717024e+01 1.7892846295209526e+00 
570 571 2 1.0280000000542810e+00 3.7813038403456900e+01 1.0000000000000000e+00 5.6293360302435175e+01 1.5195335173940039e+01 5.4504271323493780e-01 
795 796 2 1.0279999997782161e+00 -5.8655822651117978e+02 1.0000000000000000e+00 6.5071310370430240e+01 1.5304396615035277e+01 1.7023705099899389e-01 
887 888 2 1.0280000000288254e+00 -1.8304627743703713e+02 1.0000000000000000e+00 4.8352196588033358e+01 1.7311969392195266e+01 1.5407005475395281e+00 
885 886 2 1.0279999998614626e+00 -1.5435199526452919e+02 1.0000000000000000e+00 5.0079692424782259e+01 1.6921322754260736e+01 4.1567902092696746e-01 