LAMMPS data file via write_data, version 30 Jul 2016, timestep = 50400000

384 atoms
2 atom types

0.0000000000000000e+00 2.0000000000000000e+01 xlo xhi
0.0000000000000000e+00 2.0000000000000000e+01 ylo yhi
0.0000000000000000e+00 2.0000000000000000e+01 zlo zhi

Masses

1 3.896
2 4.31

Atoms # meso-molecular

19 1 2 9.2845460678743308e+00 1.4048782058526734e+06 1.0000000000000000e+00 1.6629481238811887e+00 2.1544876635019516e+00 5.5603264794024898e-01 
309 1 2 9.2845460678743308e+00 1.4249233961525126e+06 1.0000000000000000e+00 4.9815932118481827e+00 7.3303228078276863e+00 5.2510466109295928e-01 
300 1 2 9.2845460678743308e+00 1.4044299703997113e+06 1.0000000000000000e+00 5.3651526539109415e+00 8.1941029345782628e+00 1.6238344071603533e-01 
298 1 2 9.2845460678743308e+00 1.4116190799931260e+06 1.0000000000000000e+00 6.5119894216979208e+00 3.8364946613211806e+00 1.8394129215032948e+00 
6 1 2 9.2845460678743308e+00 1.4128454032115294e+06 1.0000000000000000e+00 2.5454104416526526e+00 4.3548215189608710e+00 1.5723842814497666e+00 
30 1 2 9.2845460678743308e+00 1.4314180163337602e+06 1.0000000000000000e+00 3.8775211952702495e+00 7.1619320145012857e+00 1.6365080490176545e+00 
80 1 2 9.2845460678743308e+00 1.4266077288891729e+06 1.0000000000000000e+00 5.1630798174680965e+00 6.7062692676558644e+00 1.4518917658976225e+00 
212 1 2 9.2845460678743308e+00 1.4272728022070653e+06 1.0000000000000000e+00 6.4274089446902805e+00 7.3150999850825418e+00 1.8471343123629675e+00 
151 1 2 9.2845460678743308e+00 1.4069109216901064e+06 1.0000000000000000e+00 3.5289679696146283e+00 8.4275214194401986e+00 1.4786231071540310e+00 
267 1 2 9.2845460678743308e+00 1.3856734718659054e+06 1.0000000000000000e+00 5.1046210584373917e+00 9.8866041826157236e+00 1.5323517579545727e+00 
197 1 2 9.2845460678743308e+00 1.4463398143420559e+06 1.0000000000000000e+00 6.6684586395821782e-02 2.9956117886121949e+00 2.3034060230115849e+00 
116 1 2 9.2845460678743308e+00 1.4457997289786600e+06 1.0000000000000000e+00 1.0751327708200540e+00 3.6621238361667916e+00 2.6005673163715883e+00 
345 1 2 9.2845460678743308e+00 1.4305150655928068e+06 1.0000000000000000e+00 1.9255920657872214e+00 5.7198759808587605e+00 2.6175412936872560e+00 
125 1 2 9.2845460678743308e+00 1.4194519401006014e+06 1.0000000000000000e+00 2.5043321909957585e+00 8.8888136972867517e+00 2.2523535983838907e+00 
145 1 2 9.2845460678743308e+00 1.4205276092975470e+06 1.0000000000000000e+00 3.6911036849842671e+00 6.4288007716710984e+00 3.1499326764524973e+00 
73 1 2 9.2845460678743308e+00 1.4530305272511262e+06 1.0000000000000000e+00 1.6127497739689547e+00 7.7606825756596498e-01 3.4308149258704006e+00 
213 1 2 9.2845460678743308e+00 1.4297262874383517e+06 1.0000000000000000e+00 5.2952060940814079e+00 5.9288497512063039e+00 3.5152529374563191e+00 
54 1 2 9.2845460678743308e+00 1.4187816507959585e+06 1.0000000000000000e+00 3.2686261175286728e+00 9.3123775181384172e+00 3.9043645058467873e+00 
358 1 2 9.2845460678743308e+00 1.3981915449916888e+06 1.0000000000000000e+00 6.4604410641968846e+00 8.8431898996688538e+00 3.6515667466275530e+00 
155 1 2 9.2845460678743308e+00 1.4327982741008215e+06 1.0000000000000000e+00 3.0356523111267872e+00 1.3608319155665130e-01 4.3191506530282728e+00 
81 1 2 9.2845460678743308e+00 1.4171928329818537e+06 1.0000000000000000e+00 5.4165228849066089e+00 6.2995183837683466e-01 4.3888078807224611e+00 
74 1 2 9.2845460678743308e+00 1.4097278397227903e+06 1.0000000000000000e+00 3.5979487033226096e+00 9.4602142964593305e-01 5.0506436688021328e+00 
253 1 2 9.2845460678743308e+00 1.4319325059044417e+06 1.0000000000000000e+00 2.2411857451218239e-01 5.0462522970374302e+00 4.9658742014433015e+00 
260 1 2 9.2845460678743308e+00 1.4527920342775346e+06 1.0000000000000000e+00 5.2660072812627625e+00 1.5086009616455376e+00 6.4732522258096408e+00 
23 1 2 9.2845460678743308e+00 1.4337587061130311e+06 1.0000000000000000e+00 2.7549111214985409e+00 8.3988903974930089e+00 6.3880278485355468e+00 
257 1 2 9.2845460678743308e+00 1.4157587802657364e+06 1.0000000000000000e+00 5.8786787041761968e-01 5.1507601056448351e+00 7.2438352580659551e+00 
247 1 2 9.2845460678743308e+00 1.4397910358899515e+06 1.0000000000000000e+00 6.4828220192386610e-01 9.8197818062640199e+00 7.1573893384108267e+00 
200 1 2 9.2845460678743308e+00 1.4072094677881077e+06 1.0000000000000000e+00 5.6123630963090481e+00 9.9318335302772915e+00 7.3266903025556296e+00 
243 1 2 9.2845460678743308e+00 1.4279277996519813e+06 1.0000000000000000e+00 2.2037910035964243e+00 5.8814779493292582e+00 7.7424678187595042e+00 
299 1 2 9.2845460678743308e+00 1.4252383457473149e+06 1.0000000000000000e+00 6.3974602865827404e+00 4.7799940081400294e-01 8.8372186716340124e+00 
214 1 2 9.2845460678743308e+00 1.4268233694111942e+06 1.0000000000000000e+00 6.1276804083294882e+00 2.2878228033865158e+00 9.1936318171905516e+00 
250 1 2 9.2845460678743308e+00 1.4285378571489099e+06 1.0000000000000000e+00 6.5032602035152003e+00 5.2789792558245221e+00 9.8002307970533398e+00 
4 1 2 9.2845460678743308e+00 1.4027941287326119e+06 1.0000000000000000e+00 2.3579886288044154e+00 5.4185413554505288e+00 9.9886241949086170e+00 
138 1 2 9.2845460678743308e+00 1.4307246302591818e+06 1.0000000000000000e+00 8.1960373194634006e-01 7.5868866456463113e+00 9.3669595726496322e+00 
302 1 2 9.2845460678743308e+00 1.4362802549642115e+06 1.0000000000000000e+00 4.8055507219675739e+00 9.0051236793677578e+00 9.5975896681811221e+00 
109 1 2 9.2845460678743308e+00 1.4357123682127129e+06 1.0000000000000000e+00 2.9743291466473143e+00 3.2530235645174486e+00 1.0034256546379021e+01 
327 1 2 9.2845460678743308e+00 1.4226157349634371e+06 1.0000000000000000e+00 5.0687419530973612e+00 6.6817678951468673e-01 1.0764970602042947e+01 
225 1 2 9.2845460678743308e+00 1.4295470474133831e+06 1.0000000000000000e+00 3.2653128236035567e+00 3.5201456664543733e+00 1.1872257883283048e+01 
281 1 2 9.2845460678743308e+00 1.4141009056273201e+06 1.0000000000000000e+00 6.2579767979461156e+00 3.9598225564597582e+00 1.1907538016323665e+01 
123 1 2 9.2845460678743308e+00 1.4186478275225218e+06 1.0000000000000000e+00 2.5485205142461425e+00 6.6166142724633410e+00 1.1890539224661611e+01 
169 1 2 9.2845460678743308e+00 1.4097235939017856e+06 1.0000000000000000e+00 3.1821566203440708e+00 7.7462065161730598e+00 1.2549381945255108e+01 
353 1 2 9.2845460678743308e+00 1.4310557287558015e+06 1.0000000000000000e+00 1.4457444267651058e+00 6.6293337997050603e+00 1.2746400990030152e+01 
362 1 2 9.2845460678743308e+00 1.4467714323976231e+06 1.0000000000000000e+00 1.4727889191636603e+00 6.7969972912621446e-01 1.3639902085469995e+01 
304 1 2 9.2845460678743308e+00 1.4254385956007652e+06 1.0000000000000000e+00 2.6838881299822206e+00 5.0529796409001984e+00 1.3792539853272238e+01 
82 1 2 9.2845460678743308e+00 1.4310497261675391e+06 1.0000000000000000e+00 2.1193417417939155e+00 8.0210433251892788e+00 1.3369373553613036e+01 
305 1 2 9.2845460678743308e+00 1.4196515419231923e+06 1.0000000000000000e+00 5.2469929881339832e+00 2.4401063859306662e+00 1.4661209826735037e+01 
28 1 2 9.2845460678743308e+00 1.4231359514757567e+06 1.0000000000000000e+00 3.9998593144949459e+00 1.6205779429029443e+00 1.6212355581424283e+01 
240 1 2 9.2845460678743308e+00 1.4439132978554829e+06 1.0000000000000000e+00 4.8643758925975957e+00 7.9352097811714675e+00 1.7043927541116034e+01 
232 1 2 9.2845460678743308e+00 1.4083181499569779e+06 1.0000000000000000e+00 4.8917430521043430e+00 9.7923704536930778e+00 1.7271965520563782e+01 
132 1 2 9.2845460678743308e+00 1.4301997781594405e+06 1.0000000000000000e+00 1.2108693053789006e+00 3.1267589752070646e+00 1.7912144183037277e+01 
330 1 2 9.2845460678743308e+00 1.4366576403781632e+06 1.0000000000000000e+00 1.4545704742008172e+00 9.5333322586414457e+00 1.7921415134507082e+01 
110 1 2 9.2845460678743308e+00 1.4411612626796379e+06 1.0000000000000000e+00 2.1406958523996860e+00 4.4880905040188013e-01 1.8166743555733451e+01 
95 1 2 9.2845460678743308e+00 1.3982433130421331e+06 1.0000000000000000e+00 1.3750077512726411e-01 1.5337213762297346e+00 1.8370689150720249e+01 
120 1 2 9.2845460678743308e+00 1.4229741497452212e+06 1.0000000000000000e+00 3.8459888122915933e+00 3.7407558420650169e+00 1.8028835743944434e+01 
347 1 2 9.2845460678743308e+00 1.4312359722160762e+06 1.0000000000000000e+00 2.6231247057542233e+00 6.3068744860260049e+00 1.8593634959960166e+01 
37 1 2 9.2845460678743308e+00 1.4036553333476530e+06 1.0000000000000000e+00 3.7746337595798295e-03 9.2100458417446411e+00 1.9111642427556582e+01 
96 1 2 9.2845460678743308e+00 1.4426112046254631e+06 1.0000000000000000e+00 5.9672415248965036e+00 1.4152957907184487e+00 1.9580587813744508e+01 
68 1 2 9.2845460678743308e+00 1.4272230331182033e+06 1.0000000000000000e+00 3.2234704046546612e+00 3.4086154470525529e+00 1.9635642265683053e+01 
171 1 2 9.2845460678743308e+00 1.4392770813494315e+06 1.0000000000000000e+00 4.9868824884011715e+00 6.2759570464329002e+00 1.9560658316605362e+01 
174 1 2 9.2845460678743308e+00 1.4472664139373032e+06 1.0000000000000000e+00 3.4967615635347786e+00 1.3366598285188967e+01 2.6314355102931519e-01 
266 1 2 9.2845460678743308e+00 1.4160049210571339e+06 1.0000000000000000e+00 4.2404186209878612e+00 1.5788791624583483e+01 9.0033317009234848e-01 
187 1 2 9.2845460678743308e+00 1.4161036372312349e+06 1.0000000000000000e+00 6.4789901149773699e-01 1.7800298459864241e+01 8.9837627338767800e-01 
244 1 2 9.2845533779864198e+00 1.4292862189159784e+06 1.0000000000000000e+00 6.5816808040097294e+00 1.7865497950587248e+01 8.7801274107237615e-01 
201 1 2 9.2845460678743308e+00 1.4239955272889822e+06 1.0000000000000000e+00 3.6566903587861321e+00 1.1694856464399473e+01 1.5972703964138346e+00 
48 1 2 9.2845460678743308e+00 1.3719660061409404e+06 1.0000000000000000e+00 6.6334071945862716e+00 1.2735036309839048e+01 1.9439605722742512e+00 
62 1 2 9.2845460678743308e+00 1.4373850712030022e+06 1.0000000000000000e+00 1.7253908724600537e+00 1.0110142360395196e+01 2.0774583537668190e+00 
154 1 2 9.2845460678743308e+00 1.4215305452012760e+06 1.0000000000000000e+00 2.0130622545079584e+00 1.3450117317695744e+01 2.1055757847914136e+00 
14 1 2 9.2845460678743308e+00 1.4025506153933848e+06 1.0000000000000000e+00 1.1605206431830342e+00 1.5231826444290945e+01 2.4546678179995896e+00 
364 1 2 9.2845460678743308e+00 1.4180030841675457e+06 1.0000000000000000e+00 6.0706396138337988e+00 1.7210125973766413e+01 2.0987243773133426e+00 
258 1 2 9.2845460678743308e+00 1.4109420575433006e+06 1.0000000000000000e+00 1.2915169543840608e+00 1.7964647626788626e+01 2.6097577573939756e+00 
198 1 2 9.2845460678743308e+00 1.4317977721327906e+06 1.0000000000000000e+00 2.5961673503623945e+00 1.8846533667663675e+01 2.2803544338245896e+00 
275 1 2 9.2845460678743308e+00 1.4221450964803188e+06 1.0000000000000000e+00 5.0997447723333273e+00 1.3020612444018198e+01 3.3276181340472952e+00 
209 1 2 9.2845460678743308e+00 1.4244335985027957e+06 1.0000000000000000e+00 4.3184397087300370e+00 1.4117311592004013e+01 3.9763917594401015e+00 
129 1 2 9.2845460678743308e+00 1.4310782212953176e+06 1.0000000000000000e+00 3.2039276693105694e+00 1.0446477684850080e+01 4.2608019820124063e+00 
176 1 2 9.2845460678743308e+00 1.4131927116510062e+06 1.0000000000000000e+00 5.4053381784350965e+00 1.3861193723643611e+01 4.0558562586449938e+00 
126 1 2 9.2845460678743308e+00 1.4418015964253200e+06 1.0000000000000000e+00 3.8014253310048325e+00 1.5343159250222074e+01 4.5108438141094949e+00 
216 1 2 9.2845460678743308e+00 1.4132898977973843e+06 1.0000000000000000e+00 1.1430983820772853e+00 1.9846447298121650e+01 4.1927699398242773e+00 
70 1 2 9.2845460678743308e+00 1.4379940363512062e+06 1.0000000000000000e+00 3.9108683834566293e+00 1.0701452302255904e+01 4.9444030696420151e+00 
89 1 2 9.2845460678743308e+00 1.4008467116021072e+06 1.0000000000000000e+00 2.7326455327027594e+00 1.8755045713360399e+01 4.7821529750525089e+00 
370 1 2 9.2845460678743308e+00 1.1622982843485302e+06 1.0000000000000000e+00 6.9749534099771904e-01 1.0537443961175075e+01 6.0322614283719993e+00 
371 1 2 9.2845460678743308e+00 1.4288098211685871e+06 1.0000000000000000e+00 2.5981383559125426e+00 1.0767534913704003e+01 6.5365786385872964e+00 
26 1 2 9.2845460678743308e+00 1.4183286818580967e+06 1.0000000000000000e+00 4.0444144720745456e-01 1.7702340853097169e+01 6.5255436359703696e+00 
222 1 2 9.2845460678743308e+00 1.4295817601447711e+06 1.0000000000000000e+00 4.8236521888037389e+00 1.7399811609369266e+01 6.1032292417758036e+00 
196 1 2 9.2845460678743308e+00 1.4170197055446622e+06 1.0000000000000000e+00 6.0280790846687529e+00 1.9147225482519406e+01 6.9068786907332997e+00 
40 1 2 9.2845460678743308e+00 1.4347232183969747e+06 1.0000000000000000e+00 5.1920963171279544e+00 1.3751790745861165e+01 7.6352958946630114e+00 
94 1 2 9.2845460678743308e+00 1.4149550926434202e+06 1.0000000000000000e+00 2.6640961127259439e+00 1.8172348888481974e+01 7.7642169830402263e+00 
319 1 2 9.2845460678743308e+00 1.4145719243302853e+06 1.0000000000000000e+00 2.2969882989487544e+00 1.0111873155629288e+01 8.1437502307203307e+00 
344 1 2 9.2845460678743308e+00 1.4356802779972646e+06 1.0000000000000000e+00 4.5812275003058742e+00 1.0739071072287194e+01 8.4362644015460528e+00 
274 1 2 9.2845460678743308e+00 1.4442227864017338e+06 1.0000000000000000e+00 1.0109112322191849e+00 1.5292322918681258e+01 8.5328791452778034e+00 
236 1 2 9.2845460678743308e+00 1.4598365808487162e+06 1.0000000000000000e+00 1.5331459628378368e+00 1.0335048180657962e+01 9.1186309617314727e+00 
355 1 2 9.2845460678743308e+00 1.4127578509077760e+06 1.0000000000000000e+00 7.2906810968590197e-01 1.9779098660331723e+01 9.0675228197441111e+00 
181 1 2 9.2845460678743308e+00 1.4293055819164203e+06 1.0000000000000000e+00 6.6594174991597113e+00 1.0124026895731227e+01 9.7895263350376123e+00 
2 1 2 9.2845460678743308e+00 1.4169422554085301e+06 1.0000000000000000e+00 1.9192338859186717e+00 1.5403133285625373e+01 9.9965335011538201e+00 
172 1 2 9.2845460678743308e+00 1.0633117133968533e+06 1.0000000000000000e+00 2.1009182252576615e+00 1.1530358244948911e+01 1.0508260899296484e+01 
79 1 2 9.2845460678743308e+00 1.3940481561064995e+06 1.0000000000000000e+00 4.2893918646196356e+00 1.9051398038202549e+01 1.0296244261568988e+01 
246 1 2 9.2845460678743308e+00 1.4428153171737515e+06 1.0000000000000000e+00 5.6008964068311737e+00 1.9073162008138446e+01 1.0121568238559828e+01 
325 1 2 9.2845460678743308e+00 1.4236691442114692e+06 1.0000000000000000e+00 2.7127763752373615e+00 1.4744668583253009e+01 1.0894547466338205e+01 
255 1 2 9.2845460678743308e+00 1.4105678241710388e+06 1.0000000000000000e+00 4.7013434689557698e+00 1.8263912139840571e+01 1.1243586340949861e+01 
384 1 2 9.2845460678743308e+00 1.4280833625228880e+06 1.0000000000000000e+00 6.2702687027230875e+00 1.9906895600083509e+01 1.1218232578881333e+01 
147 1 2 9.2845460678743308e+00 1.4249315259616673e+06 1.0000000000000000e+00 5.7090252216658213e+00 1.4741536006871970e+01 1.1363635530864229e+01 
182 1 2 9.2845460678743308e+00 1.4164892826255662e+06 1.0000000000000000e+00 6.2134026814364773e-01 1.7484028868198870e+01 1.1846435499538732e+01 
66 1 2 9.2845460678743308e+00 1.4276213548451182e+06 1.0000000000000000e+00 1.8216289166309958e+00 1.8869891260664332e+01 1.1794510721022846e+01 
84 1 2 9.2845460678743308e+00 1.4291606733471677e+06 1.0000000000000000e+00 6.1944679759538603e+00 1.0222433590490695e+01 1.2623769305110502e+01 
279 1 2 9.2845460678743308e+00 1.4153593030033098e+06 1.0000000000000000e+00 4.2907283251836020e-01 1.4156738394631024e+01 1.2117914006859158e+01 
332 1 2 9.2845460678743308e+00 1.4336056606378043e+06 1.0000000000000000e+00 4.8403828751006097e+00 1.4944438219191518e+01 1.2544115359970652e+01 
99 1 2 9.2845460678743308e+00 1.4567421787864789e+06 1.0000000000000000e+00 6.5421350766662059e+00 1.6066140198046291e+01 1.2002989966011388e+01 
55 1 2 9.2845460678743308e+00 1.4292751720823441e+06 1.0000000000000000e+00 6.9806796859477371e-01 1.2759182910759030e+01 1.2978559225828398e+01 
121 1 2 9.2845460678743308e+00 1.4396745396405160e+06 1.0000000000000000e+00 3.1287760894833787e+00 1.5021058942593719e+01 1.2835668246638150e+01 
375 1 2 9.2845460678743308e+00 1.4117982941063833e+06 1.0000000000000000e+00 6.4075248676729917e+00 1.5631011344329799e+01 1.3101990184632738e+01 
221 1 2 9.2845460678743308e+00 1.4608330774042807e+06 1.0000000000000000e+00 7.3571727572628898e-01 1.3474243675527154e+01 1.3779536799916128e+01 
312 1 2 9.2845460678743308e+00 1.4180580896977489e+06 1.0000000000000000e+00 3.6141710793529347e+00 1.3506480817106917e+01 1.3482975134457794e+01 
98 1 2 9.2845460678743308e+00 1.4374251483197748e+06 1.0000000000000000e+00 6.2008768731728914e+00 1.8432267911872458e+01 1.3636469309286193e+01 
162 1 2 9.2845460678743308e+00 1.4369353381679021e+06 1.0000000000000000e+00 2.8286167362239115e-02 1.1464055395388455e+01 1.4752301262620115e+01 
53 1 2 9.2845460678743308e+00 1.3978362318350496e+06 1.0000000000000000e+00 4.4322028574374448e+00 1.6620296359912064e+01 1.5228640437358772e+01 
45 1 2 9.2845460678743308e+00 1.4211471820495916e+06 1.0000000000000000e+00 4.6349635167728422e+00 1.8245844144127449e+01 1.4774585825553686e+01 
35 1 2 9.2845460678743308e+00 1.4491218530861298e+06 1.0000000000000000e+00 1.9013244749958325e+00 1.9701445419104960e+01 1.5296043071949004e+01 
29 1 2 9.2845460678743308e+00 1.4119367947719619e+06 1.0000000000000000e+00 1.4276595134249026e+00 1.2706399760315986e+01 1.5836016222983716e+01 
294 1 2 9.2845460678743308e+00 1.4412047794944146e+06 1.0000000000000000e+00 3.5405106093483321e+00 1.6752517265450980e+01 1.5746109229490841e+01 
72 1 2 9.2845460678743308e+00 1.4274715530520310e+06 1.0000000000000000e+00 2.2232355536588730e-01 1.9881434584630288e+01 1.5996185318203604e+01 
142 1 2 9.2845460678743308e+00 1.4222879037219556e+06 1.0000000000000000e+00 3.7897681963257139e+00 1.0013400551763135e+01 1.6014909149949744e+01 
259 1 2 9.2845460678743308e+00 1.4541098419791255e+06 1.0000000000000000e+00 2.1185173130308488e-01 1.1261102905630066e+01 1.6073271127234850e+01 
153 1 2 9.2845460678743308e+00 1.4257413659657440e+06 1.0000000000000000e+00 4.6472153950568114e+00 1.1808354743223301e+01 1.6323798016212130e+01 
264 1 2 9.2845460678743308e+00 1.4324050533163678e+06 1.0000000000000000e+00 4.0544808343554735e+00 1.5077267671698968e+01 1.6554382181807341e+01 
118 1 2 9.2845460678743308e+00 1.3919236112675262e+06 1.0000000000000000e+00 3.1945168793578165e+00 1.5737800907434053e+01 1.6032086751735857e+01 
313 1 2 9.2845460678743308e+00 1.4331632425931832e+06 1.0000000000000000e+00 1.7341764388325169e+00 1.7594278103434554e+01 1.7017846446449184e+01 
87 1 2 9.2845460678743308e+00 1.4333351388050173e+06 1.0000000000000000e+00 5.4138425187738815e+00 1.1430244425968695e+01 1.7623889685762748e+01 
337 1 2 9.2845460678743308e+00 1.4650314044871875e+06 1.0000000000000000e+00 6.1184672185057511e+00 1.0683732313396693e+01 1.8228425262057495e+01 
372 1 2 9.2845460678743308e+00 1.4566040314761656e+06 1.0000000000000000e+00 6.6140192377559845e+00 1.3158428710572990e+01 1.8000767010011867e+01 
272 1 2 9.2845460678743308e+00 1.4279153088288666e+06 1.0000000000000000e+00 1.1713731968391259e+00 1.8146348828242818e+01 1.8135277976973107e+01 
254 1 2 9.2845460678743308e+00 1.4249740578026436e+06 1.0000000000000000e+00 7.4549261132144606e-01 1.3998008086508031e+01 1.8744673065552181e+01 
77 1 2 9.2845460678743308e+00 1.4304369259044006e+06 1.0000000000000000e+00 4.4181048259092837e+00 1.1496382515895457e+01 1.9643440598896301e+01 
150 1 2 9.2845460678743308e+00 1.4092152229761258e+06 1.0000000000000000e+00 5.9680022779823272e+00 1.2487170763316048e+01 1.9504657054898800e+01 
205 1 2 9.2845460678743308e+00 1.4206851421040678e+06 1.0000000000000000e+00 3.2135710290356436e+00 1.6614005301309547e+01 1.9985798955717957e+01 
354 1 2 9.2845460678743308e+00 1.4199516598356180e+06 1.0000000000000000e+00 5.9106240411030306e+00 1.7357642052687087e+01 1.9344408283435435e+01 
50 1 2 9.2845460678743308e+00 1.4471086074975780e+06 1.0000000000000000e+00 4.6862135849246807e+00 1.9261383479183745e+01 1.9412943091259368e+01 
184 1 2 9.2845460678743308e+00 1.4248266926913196e+06 1.0000000000000000e+00 9.6812761175818665e+00 4.8584687360636891e-01 9.5158400812909751e-03 
191 1 2 9.2845460678743308e+00 1.3936055090453927e+06 1.0000000000000000e+00 1.3101009149685758e+01 7.4456593105623226e+00 3.9042654058793513e-01 
64 1 2 9.2845460678743308e+00 1.4352192279465403e+06 1.0000000000000000e+00 8.1130784960360636e+00 4.4184076721773735e+00 8.2456742605581268e-01 
208 1 2 9.2845460678743308e+00 1.4084701678723698e+06 1.0000000000000000e+00 1.2911562524813535e+01 7.2849468450674604e-01 2.1350899764221820e+00 
293 1 2 9.2845443204946481e+00 1.4121011910339249e+06 1.0000000000000000e+00 8.8152957173629947e+00 3.3998285299853919e+00 2.3629065405864695e+00 
315 1 2 9.2845460678743308e+00 1.4233119346327847e+06 1.0000000000000000e+00 9.9090930211185118e+00 4.1022322226135843e+00 2.0433403678065964e+00 
203 1 2 9.2845460678743308e+00 1.4237820164854596e+06 1.0000000000000000e+00 1.2444003859042679e+01 5.1058960873712840e+00 2.1485785588028077e+00 
273 1 2 9.2845460678743308e+00 1.4316467637106450e+06 1.0000000000000000e+00 9.1899287760276440e+00 7.8359219877917843e+00 2.4397520961058241e+00 
292 1 2 9.2845443204946481e+00 1.4340304048602097e+06 1.0000000000000000e+00 9.7026246522806918e+00 3.4413717037621603e+00 2.8161452093067956e+00 
186 1 2 9.2845460678743308e+00 1.3824063350114515e+06 1.0000000000000000e+00 8.0758036651011089e+00 6.2617229828661616e+00 3.0201170882623907e+00 
318 1 2 9.2845460678743308e+00 1.4350130788640697e+06 1.0000000000000000e+00 1.3025234437403284e+01 6.1218855201418911e+00 5.0125289595633973e+00 
85 1 2 9.2845460678743308e+00 1.4059162256538807e+06 1.0000000000000000e+00 1.1114273541937045e+01 7.7060374766180511e+00 5.0202742620412382e+00 
351 1 2 9.2845460678743308e+00 1.4066286363873049e+06 1.0000000000000000e+00 1.0371017608364122e+01 8.2748577787676698e+00 5.4721160824971298e+00 
127 1 2 9.2845460678743308e+00 1.4276730781393652e+06 1.0000000000000000e+00 1.2827144895870362e+01 1.1779465419967254e+00 6.2751300902629525e+00 
31 1 2 9.2845460678743308e+00 1.4258951697440483e+06 1.0000000000000000e+00 9.5182415662470827e+00 1.4552403920705803e+00 6.1189433901408767e+00 
379 1 2 9.2845460678743308e+00 1.3981860549521423e+06 1.0000000000000000e+00 1.1786016760864364e+01 7.0629556833132474e+00 6.5355243681873176e+00 
148 1 2 9.2845460678743308e+00 1.4282708305341233e+06 1.0000000000000000e+00 1.2693920774037977e+01 8.0545935299412008e+00 6.4175362362843291e+00 
195 1 2 9.2845460678743308e+00 1.4154488564461595e+06 1.0000000000000000e+00 7.2886534521751090e+00 4.4621577952525175e+00 6.7760071754759039e+00 
276 1 2 9.2845460678743308e+00 1.4319677964550541e+06 1.0000000000000000e+00 7.7502500712247784e+00 5.4811014605381931e+00 7.1548345862992040e+00 
105 1 2 9.2845460678743308e+00 1.4350005119549762e+06 1.0000000000000000e+00 1.0035713254036450e+01 5.3446206116296091e+00 6.7909810865607509e+00 
49 1 2 9.2845460678743308e+00 1.4255995029197447e+06 1.0000000000000000e+00 8.9494020601774622e+00 6.8173640539553686e+00 7.2764200527734273e+00 
349 1 2 9.2845460678743308e+00 1.4162206707520154e+06 1.0000000000000000e+00 7.9589289542072574e+00 7.7927181556934046e+00 7.0458664733246463e+00 
18 1 2 9.2845460678743308e+00 1.4355601245583938e+06 1.0000000000000000e+00 9.4746494609458498e+00 7.7567900915334862e+00 6.8329268729893169e+00 
245 1 2 9.2845460678743308e+00 1.4090399802161227e+06 1.0000000000000000e+00 1.0988214757341352e+01 5.8553656694781084e+00 7.6671722152646291e+00 
348 1 2 9.2845460678743308e+00 1.4322876089866040e+06 1.0000000000000000e+00 8.2450434674615902e+00 9.0628223602822189e+00 8.5713854860999490e+00 
57 1 2 9.2845460678743308e+00 1.4203507825435619e+06 1.0000000000000000e+00 1.0297305033601894e+01 3.4827876643482552e+00 8.6818286271711305e+00 
156 1 2 9.2845460678743308e+00 1.4515385464919675e+06 1.0000000000000000e+00 1.0429324861049093e+01 1.5217988585262310e+00 9.8130969080999844e+00 
180 1 2 9.2845460678743308e+00 1.0671469728185446e+06 1.0000000000000000e+00 1.0139907778221657e+01 8.6562001519542786e+00 9.4448283587871984e+00 
289 1 2 9.2845460678743308e+00 1.4146074005148043e+06 1.0000000000000000e+00 1.1897350719759602e+01 3.9472067715709125e+00 1.0464653690992199e+01 
131 1 2 9.2845460678743308e+00 1.4354319272247716e+06 1.0000000000000000e+00 9.8713540807952516e+00 6.4780357039520675e+00 1.1323557882266044e+01 
9 1 2 9.2845460678743308e+00 1.4439698258002233e+06 1.0000000000000000e+00 1.1914155439119481e+01 5.9796128214828013e+00 1.1405517471450240e+01 
189 1 2 9.2845460678743308e+00 1.4106637345687919e+06 1.0000000000000000e+00 7.1285557732627938e+00 8.8330942555299767e+00 1.1932878078791017e+01 
115 1 2 9.2845460678743308e+00 1.4162910417747172e+06 1.0000000000000000e+00 8.1671004306997883e+00 9.9539713804529972e-02 1.2094369027396960e+01 
108 1 2 9.2845460678743308e+00 1.4139238375477595e+06 1.0000000000000000e+00 7.3448541020556162e+00 1.3764531757018208e+00 1.2318580332363130e+01 
380 1 2 9.2845460678743308e+00 1.3985139179006629e+06 1.0000000000000000e+00 1.1799093707664996e+01 9.2009758456439670e+00 1.2473065799171966e+01 
256 1 2 9.2845460678743308e+00 1.4247920499791494e+06 1.0000000000000000e+00 1.1954125712041405e+01 5.6436019324007691e-01 1.2900442551546643e+01 
38 1 2 9.2845460678743308e+00 1.4528117653197180e+06 1.0000000000000000e+00 7.5831284901238671e+00 8.5047866345077594e+00 1.2906190564282236e+01 
146 1 2 9.2845460678743308e+00 1.4450734718413642e+06 1.0000000000000000e+00 7.7187634828041265e+00 5.7098885919775988e-01 1.4252063902905395e+01 
217 1 2 9.2845460678743308e+00 1.4293504693986662e+06 1.0000000000000000e+00 1.0257831798184490e+01 3.2344366669424183e+00 1.4415478591538538e+01 
223 1 2 9.2845460678743308e+00 1.4352744094033921e+06 1.0000000000000000e+00 1.2787372390001970e+01 3.4486828910185876e+00 1.4298277583903545e+01 
356 1 2 9.2845460678743308e+00 1.3951509094637465e+06 1.0000000000000000e+00 1.1229861393352390e+01 6.1314780912724185e+00 1.4167520382329057e+01 
34 1 2 9.2845460678743308e+00 1.4256136264423956e+06 1.0000000000000000e+00 1.2781889886635168e+01 3.1300251952524077e-01 1.4692983358676479e+01 
24 1 2 9.2845460678743308e+00 1.4490167505906331e+06 1.0000000000000000e+00 7.0023356799531360e+00 5.8085874195783447e+00 1.4989367746066847e+01 
106 1 2 9.2845460678743308e+00 1.4293996966722449e+06 1.0000000000000000e+00 1.2805577415709875e+01 5.9337326199640339e+00 1.5101129272438351e+01 
237 1 2 9.2845460678743308e+00 1.4295512598171812e+06 1.0000000000000000e+00 1.1113214985348412e+01 6.5920262399646541e+00 1.5966323004959897e+01 
59 1 2 9.2845460678743308e+00 1.4407443146133297e+06 1.0000000000000000e+00 9.1208837212195881e+00 9.5113762049970507e+00 1.5545627335230924e+01 
323 1 2 9.2845460678743308e+00 1.4016072811382995e+06 1.0000000000000000e+00 1.1808011316286963e+01 3.6628946497113457e+00 1.6109347807603982e+01 
269 1 2 9.2845460678743308e+00 1.4324821955393162e+06 1.0000000000000000e+00 1.1825179639714367e+01 2.4494070577086055e-01 1.7109449569782143e+01 
152 1 2 9.2845460678743308e+00 1.4161827930834754e+06 1.0000000000000000e+00 1.0403632231302453e+01 3.8892574730210311e-01 1.7866162799950956e+01 
277 1 2 9.2845460678743308e+00 1.4017232651390270e+06 1.0000000000000000e+00 9.3386674728601129e+00 2.4916080105111140e+00 1.8408957074663007e+01 
44 1 2 9.2845460678743308e+00 1.4397062991254097e+06 1.0000000000000000e+00 1.1122518900075478e+01 5.1141465860578705e+00 1.8910167502851937e+01 
11 1 2 9.2845460678743308e+00 1.4338731291452707e+06 1.0000000000000000e+00 1.0091389584035650e+01 7.9364428310343387e+00 1.8732689530546455e+01 
167 1 2 9.2845460678743308e+00 1.4197145495642093e+06 1.0000000000000000e+00 1.1459193837414924e+01 6.9920565017602341e+00 1.9998490704439533e+01 
75 1 2 9.2845460678743308e+00 1.4219024318250641e+06 1.0000000000000000e+00 1.2226837502495838e+01 1.1821090600198229e+01 3.0788621467807842e-01 
367 1 2 9.2845533779864198e+00 1.4199312700268119e+06 1.0000000000000000e+00 6.9984649732339381e+00 1.8436408927815183e+01 1.8555745034983284e-01 
211 1 2 9.2845460678743308e+00 1.4524623501567994e+06 1.0000000000000000e+00 1.1430347360795290e+01 1.9171217713755670e+01 1.2507318189389866e-01 
92 1 2 9.2845460678743308e+00 1.4261602119340678e+06 1.0000000000000000e+00 1.2605065740911304e+01 1.9593844722864119e+01 2.1719274907688024e-01 
41 1 2 9.2845460678743308e+00 1.4473817909339149e+06 1.0000000000000000e+00 9.7671009248241276e+00 1.0010602104943564e+01 1.2990895360412580e+00 
113 1 2 9.2845460678743308e+00 1.4469810368527384e+06 1.0000000000000000e+00 1.1240313700225455e+01 1.1301141256678001e+01 1.2873721899970794e+00 
263 1 2 9.2845460678743308e+00 1.4313798909705635e+06 1.0000000000000000e+00 1.1048931707946480e+01 1.2861127075537135e+01 7.5728678203893662e-01 
285 1 2 9.2845460678743308e+00 1.4144781065367293e+06 1.0000000000000000e+00 1.3227634522589922e+01 1.3413139958268934e+01 1.2172026584514435e+00 
290 1 2 9.2845460678743308e+00 1.4293319883692749e+06 1.0000000000000000e+00 9.3694452617449144e+00 1.5673326217318548e+01 1.2990426252361156e+00 
140 1 2 9.2845460678743308e+00 1.4191870082748989e+06 1.0000000000000000e+00 1.0525905215997314e+01 1.7988076585770049e+01 1.5997804997578087e+00 
102 1 2 9.2845460678743308e+00 1.4088833379822741e+06 1.0000000000000000e+00 1.2212916039928739e+01 1.5937141003418077e+01 2.1845903870109140e+00 
350 1 2 9.2845460678743308e+00 1.4297678460743441e+06 1.0000000000000000e+00 9.3833939703504470e+00 1.6744029963528035e+01 2.2921962425815172e+00 
93 1 2 9.2845460678743308e+00 1.4316891152990451e+06 1.0000000000000000e+00 8.1250135678204121e+00 1.7786132061654335e+01 2.4928017289303774e+00 
61 1 2 9.2845460678743308e+00 1.4034396949859322e+06 1.0000000000000000e+00 9.4108004161669232e+00 1.3168658330735855e+01 4.3049423821532029e+00 