LAMMPS data file via write_data, version 30 Jul 2016, timestep = 50000000

180 atoms
2 atom types

0.0000000000000000e+00 2.0000000000000000e+01 xlo xhi
0.0000000000000000e+00 2.0000000000000000e+01 ylo yhi
0.0000000000000000e+00 2.0000000000000000e+01 zlo zhi

Masses

1 3.896
2 4.31

Atoms # meso-molecular

1 1 2 3.4387207658793817e-01 0.0000000000000000e+00 1.0000000000000000e+00 4.2500000000000000e+00 1.9000000000000000e-01 1.7000000000000001e-01 
7 1 2 6.8774415317587634e-01 -9.8906043844051737e+01 1.0000000000000000e+00 4.2599599127985366e+00 5.6385341747194797e+00 9.7770039592126745e-01 
13 1 2 6.8774415317587634e-01 -9.9148815944939628e+01 1.0000000000000000e+00 4.2599599127985410e+00 5.6385341747194495e+00 9.7770039592126845e-01 
14 1 2 6.8774415317587634e-01 -9.0814386302919985e+01 1.0000000000000000e+00 4.9472114585426752e+00 8.6368990614447441e+00 2.7787876765360537e+00 
19 1 2 6.8774415317587634e-01 -8.8638093629976666e+01 1.0000000000000000e+00 4.9472114585426450e+00 8.6368990614447281e+00 2.7787876765360537e+00 
8 1 2 6.8774415317587634e-01 -8.7556640716935220e+01 1.0000000000000000e+00 4.6035849913981330e+00 2.3922634835746357e+00 4.7644605603303196e+00 
2 1 2 6.8774415317587634e-01 -8.6567403895887225e+01 1.0000000000000000e+00 4.6035849913981330e+00 2.3922634835746379e+00 4.7644605603303196e+00 
3 1 2 3.4387207658793817e-01 1.2317324878240343e+00 1.0000000000000000e+00 5.4229169757110158e+00 3.7840168822159981e-01 7.4556738018002493e+00 
4 1 2 6.8774415317587634e-01 -8.2056139995216299e+01 1.0000000000000000e+00 4.7654108687290346e+00 8.9144598426879229e-01 1.2249889336247044e+01 
5 1 2 6.8774415317587634e-01 -8.1964597238103551e+01 1.0000000000000000e+00 4.7654108687290346e+00 8.9144598426879174e-01 1.2249889336247035e+01 
17 1 2 1.0280000000000165e+00 -6.4647231703891805e+01 1.0000000000000000e+00 6.3323083709488870e+00 7.2387562413264952e+00 1.3322416954045956e+01 
154 1 2 1.0280000000000147e+00 -1.1686350812959445e+02 1.0000000000000000e+00 5.3587622350533941e+00 6.7861345082933893e+00 1.4199464229779290e+01 
155 1 2 1.0279999999999681e+00 -1.1611689185566692e+02 1.0000000000000000e+00 5.3587622350549671e+00 6.7861345082934461e+00 1.4199464229790172e+01 
125 1 2 1.0280000000000120e+00 -1.5647086094857411e+02 1.0000000000000000e+00 6.2335898907404221e+00 8.1734602278091284e+00 1.4542738839416019e+01 
12 1 2 3.4387207658793817e-01 0.0000000000000000e+00 1.0000000000000000e+00 4.6200000000000001e+00 3.4199999999999999e+00 1.6710000000000001e+01 
25 1 2 3.4387207658793817e-01 3.6649943579125316e-01 1.0000000000000000e+00 5.7356938169497811e+00 1.4535133326046864e+01 1.9666407907869581e+00 
31 1 2 3.4387207658793817e-01 -2.0247312687933883e-01 1.0000000000000000e+00 5.7927994550867297e+00 1.7676993671841235e+01 1.4344283556119968e+00 
26 1 2 1.0280000000000533e+00 -9.0717417048386807e+01 1.0000000000000000e+00 5.2833927056092538e+00 1.5441910983579142e+01 5.6329198122303348e+00 
32 1 2 1.0280000000000671e+00 -9.2754719360539838e+01 1.0000000000000000e+00 5.2835627081876178e+00 1.5493461856021117e+01 5.6268469296235040e+00 
27 1 2 1.0279999999999476e+00 -1.0003735470918920e+02 1.0000000000000000e+00 5.2753380284410269e+00 1.5586443600733203e+01 6.8277078599358472e+00 
33 1 2 1.0279999999999372e+00 -9.8701654521019037e+01 1.0000000000000000e+00 5.3022932016867053e+00 1.5630485004540880e+01 6.8223998810098614e+00 
28 1 2 1.0279999999999743e+00 -1.6114191309550719e+02 1.0000000000000000e+00 6.5260394503233208e+00 1.5213433908572904e+01 1.1414735689159350e+01 
34 1 2 1.0280000000000076e+00 -1.5442655342361670e+02 1.0000000000000000e+00 5.3927835571750427e+00 1.5542957942490247e+01 1.1657568067449613e+01 
29 1 2 1.0279999999999896e+00 -1.0315083573728563e+02 1.0000000000000000e+00 5.3940677513274204e+00 1.5551177047952713e+01 1.1652216912009802e+01 
64 1 2 1.0280000000000269e+00 -4.8369433477537086e+01 1.0000000000000000e+00 6.5229529049177328e+00 1.5209107204895060e+01 1.1406393591911275e+01 
15 1 2 1.0280000000000229e+00 -6.4534790645921177e+01 1.0000000000000000e+00 6.4080549463086998e+00 1.3608900450955804e+01 1.4336837117616081e+01 
21 1 2 1.0280000000000127e+00 -9.5259012702649912e+01 1.0000000000000000e+00 6.4080549463127401e+00 1.3608900450955650e+01 1.4336837117620371e+01 
126 1 2 1.0279999999999840e+00 -1.4778789372495550e+02 1.0000000000000000e+00 4.8515823679043129e+00 1.3905410097089355e+01 1.4714079323941297e+01 
132 1 2 1.0279999999999840e+00 -1.4786179514446752e+02 1.0000000000000000e+00 4.8515823679043129e+00 1.3905410097089355e+01 1.4714079323941297e+01 
24 1 2 1.0280000000000025e+00 -1.1034158089127118e+02 1.0000000000000000e+00 5.9148806105797487e+00 1.3521686530636419e+01 1.5886678834211104e+01 
30 1 2 1.0280000000000025e+00 -1.1034158089127112e+02 1.0000000000000000e+00 5.9148806105797487e+00 1.3521686530636419e+01 1.5886678834211104e+01 
35 1 2 3.4387207658793817e-01 0.0000000000000000e+00 1.0000000000000000e+00 4.3600000000000003e+00 1.7820000000000000e+01 1.4029999999999999e+01 
79 1 2 6.8774415317587634e-01 -9.2870492519389714e+01 1.0000000000000000e+00 1.1109938124288226e+01 2.4309886973355921e+00 1.1915069852994806e+00 
73 1 2 6.8774415317587634e-01 -9.3048980910474569e+01 1.0000000000000000e+00 1.1109938124288226e+01 2.4309886973355921e+00 1.1915069852994806e+00 
85 1 2 3.4387207658793817e-01 0.0000000000000000e+00 1.0000000000000000e+00 1.1710000000000001e+01 8.2200000000000006e+00 3.1000000000000000e-01 
37 1 2 6.8774415317587634e-01 -9.4841092260054452e+01 1.0000000000000000e+00 7.4093196981550600e+00 1.1777141909005449e+00 2.7950140571927427e+00 
38 1 2 6.8774415317587634e-01 -9.3861494317821993e+01 1.0000000000000000e+00 7.4093196981550644e+00 1.1777141909005449e+00 2.7950140571927427e+00 
74 1 2 3.4387207658793817e-01 2.9694420983847017e-02 1.0000000000000000e+00 1.0447630577302188e+01 6.0711811490653689e-01 3.9791442382313758e+00 
44 1 2 1.0279999999999927e+00 -7.5108837450651620e+01 1.0000000000000000e+00 1.0528776365184246e+01 6.0239108726955495e+00 4.3346827843707212e+00 
80 1 2 1.0280000000000409e+00 -1.3053707651955634e+02 1.0000000000000000e+00 1.0626537453004920e+01 6.0460493360178367e+00 4.2921764322879179e+00 
86 1 2 1.0280000000000022e+00 -1.3282024653108707e+02 1.0000000000000000e+00 1.0573691319195134e+01 6.1219614574491272e+00 4.3496113326416017e+00 
50 1 2 1.0279999999999863e+00 -6.1653784899227432e+01 1.0000000000000000e+00 7.4488503922004883e+00 8.8849994447088285e+00 4.9400835962766454e+00 
39 1 2 3.4387207658793817e-01 -3.0746075701179520e-01 1.0000000000000000e+00 8.7073464473553646e+00 1.9268720110600877e+00 7.1728191875279954e+00 
81 1 2 3.4387207658793817e-01 3.2221944969299698e-01 1.0000000000000000e+00 1.2138183698161418e+01 3.8217920664309468e+00 6.5039139688092904e+00 
87 1 2 3.4387207658793817e-01 7.3411454458083802e-01 1.0000000000000000e+00 1.2252500547339716e+01 7.0220570054348075e+00 6.7610120410696668e+00 
57 1 2 1.0279999999999978e+00 -1.5375235893645976e+02 1.0000000000000000e+00 7.8279376632256108e+00 8.7764338866331606e+00 6.0781275978301270e+00 
51 1 2 1.0280000000000202e+00 -5.6078148399556191e+01 1.0000000000000000e+00 7.8258188277861773e+00 8.7654797563667923e+00 6.0710784583587909e+00 
45 1 2 6.8774415317587634e-01 -9.3789517032918027e+01 1.0000000000000000e+00 8.2664597662257613e+00 4.6207474298190983e+00 8.9794144001185394e+00 
46 1 2 6.8774415317587634e-01 -9.3426732379569984e+01 1.0000000000000000e+00 8.2664597662257702e+00 4.6207474298190974e+00 8.9794144001185394e+00 
47 1 2 1.0279999999999874e+00 -9.0597012285684059e+01 1.0000000000000000e+00 8.8552542401662073e+00 5.2146839158579175e+00 1.3067351022822324e+01 
53 1 2 1.0279999999999905e+00 -1.2578668140626370e+02 1.0000000000000000e+00 8.8552541408999872e+00 5.2146836130752190e+00 1.3067351053697056e+01 
83 1 2 1.0279999999999849e+00 -1.0895354898916557e+02 1.0000000000000000e+00 9.9329386814471796e+00 4.3775423870603571e+00 1.2173440510099812e+01 
82 1 2 1.0279999999999849e+00 -1.0889822566334242e+02 1.0000000000000000e+00 9.9329386814471796e+00 4.3775423870603571e+00 1.2173440510099812e+01 
89 1 2 1.0280000000000269e+00 -1.2243049863705626e+02 1.0000000000000000e+00 1.0049864223091969e+01 5.2755546736165533e+00 1.2961985188969178e+01 
41 1 2 1.0279999999996816e+00 -8.4512751374807706e+01 1.0000000000000000e+00 7.0893985919035947e+00 6.9394994151875478e-01 1.5624519668833084e+01 
42 1 2 1.0279999999997125e+00 -1.0148742114665873e+02 1.0000000000000000e+00 7.1047980898777663e+00 6.7231691001421678e-01 1.5730108490347430e+01 
6 1 2 1.0279999999997220e+00 -8.4714730743117386e+01 1.0000000000000000e+00 7.0074280214414886e+00 6.5490911913826255e-01 1.5684609364993328e+01 
77 1 2 3.4387207658793817e-01 0.0000000000000000e+00 1.0000000000000000e+00 1.1460000000000001e+01 5.1000000000000001e-01 1.4449999999999999e+01 
16 1 2 1.0280000000000000e+00 -1.3089598838529099e+02 1.0000000000000000e+00 6.8790367397526992e+00 7.0955944606905961e+00 1.4453303275151205e+01 
52 1 2 1.0280000000000034e+00 -1.4823287507609419e+02 1.0000000000000000e+00 6.7401420379635253e+00 8.1742846030010714e+00 1.4026159391093177e+01 
78 1 2 3.4387207658793817e-01 0.0000000000000000e+00 1.0000000000000000e+00 1.0830000000000000e+01 8.5999999999999999e-01 1.7870000000000001e+01 
48 1 2 3.4387207658793817e-01 0.0000000000000000e+00 1.0000000000000000e+00 7.8200000000000003e+00 3.7599999999999998e+00 1.6520000000000000e+01 
84 1 2 1.0279999999999856e+00 -1.4396037181705029e+02 1.0000000000000000e+00 1.3256862083510802e+01 3.5180225511874132e+00 1.6981152918347235e+01 
88 1 2 1.0280000000000211e+00 -1.2002163096980806e+02 1.0000000000000000e+00 1.0042147706789837e+01 7.5294872824731494e+00 1.7054354152215531e+01 
94 1 2 1.0280000000000160e+00 -1.3446776728002996e+02 1.0000000000000000e+00 1.0051875529735200e+01 7.4475260194837043e+00 1.7123870937538129e+01 
90 1 2 1.0280000000000171e+00 -5.0370416011039708e+01 1.0000000000000000e+00 1.1205634687601945e+01 7.7259055980059532e+00 1.7290125231013793e+01 
130 1 2 1.0279999999999689e+00 -1.4360200731309007e+02 1.0000000000000000e+00 1.1198935335721554e+01 7.8001450319249823e+00 1.7212096468703972e+01 
55 1 2 1.0267927230328651e+00 -6.2704860894055223e+01 1.0000000000000000e+00 7.8614923532524958e+00 6.1247747852225105e+00 1.9559436390652753e+01 
43 1 2 1.0292044763983399e+00 -1.0843721818806294e+02 1.0000000000000000e+00 7.8792555257322965e+00 6.0103571125486015e+00 1.9510292133670838e+01 
49 1 2 1.0292044763983399e+00 -1.0843721818806294e+02 1.0000000000000000e+00 7.8792555257322965e+00 6.0103571125486015e+00 1.9510292133670838e+01 
60 1 2 1.0282710827631252e+00 -1.3583780868187387e+02 1.0000000000000000e+00 7.2444411837831098e+00 9.7357625562592567e+00 1.9256312430217701e+01 
18 1 2 1.0278104711133622e+00 -1.2255163708554470e+02 1.0000000000000000e+00 7.1985853616240378e+00 9.7847845764069881e+00 1.9336672001438810e+01 
54 1 2 1.0278103911207661e+00 -1.4453635517998651e+02 1.0000000000000000e+00 7.2276997599153372e+00 9.8367991432175810e+00 1.9234507987189893e+01 
61 1 2 1.0280000000017830e+00 -1.0511062636775974e+02 1.0000000000000000e+00 9.7944356298824200e+00 1.3427208328858056e+01 1.8501251328954860e+00 
97 1 2 1.0280000000017595e+00 -1.3818713856860978e+02 1.0000000000000000e+00 9.9620338262089749e+00 1.3456132831215951e+01 1.8731806437541663e+00 
62 1 2 1.0279999999981193e+00 -7.8399527972654738e+01 1.0000000000000000e+00 9.6394593945420741e+00 1.3393015188692349e+01 3.0280494110485052e+00 
98 1 2 1.0279999999988814e+00 -1.2985826925620921e+02 1.0000000000000000e+00 9.8001277318825313e+00 1.3448982680380475e+01 3.0506472893012591e+00 
67 1 2 1.0280000000000442e+00 -1.1600272132366308e+02 1.0000000000000000e+00 8.8739498365135709e+00 1.7452146160173463e+01 2.9409643515742343e+00 
68 1 2 1.0280000000000358e+00 -1.4531316331351218e+02 1.0000000000000000e+00 8.8597728631532178e+00 1.7510470937486009e+01 3.0318013792380056e+00 
104 1 2 1.0279999999998861e+00 -9.7456921187353799e+01 1.0000000000000000e+00 8.9595774964719990e+00 1.7498056754225985e+01 2.9900994003864505e+00 
56 1 2 1.0279999999999963e+00 -1.2562857560998545e+02 1.0000000000000000e+00 7.1919844457033220e+00 1.0023471394697664e+01 5.2558074062044353e+00 
20 1 2 1.0280000000000176e+00 -9.7212055816324167e+01 1.0000000000000000e+00 7.1696212261688652e+00 1.0007175846856066e+01 5.2274744634285142e+00 
92 1 2 3.4387207658793817e-01 0.0000000000000000e+00 1.0000000000000000e+00 1.0539999999999999e+01 1.0390000000000001e+01 4.3099999999999996e+00 
105 1 2 6.8774415317587634e-01 -7.3399501118348681e+01 1.0000000000000000e+00 1.1595273852983716e+01 1.5471418142733640e+01 7.9793125683028610e+00 
99 1 2 6.8774415317587634e-01 -7.4454014217107485e+01 1.0000000000000000e+00 1.1595273852983716e+01 1.5471418142733640e+01 7.9793125683028565e+00 
69 1 2 3.4387207658793817e-01 3.2721090177975807e+00 1.0000000000000000e+00 7.7732136473024660e+00 1.7308224316496457e+01 7.3846993536149421e+00 
93 1 2 3.4387207658793817e-01 2.6939677909313167e+00 1.0000000000000000e+00 1.0995303635627891e+01 1.1109681367257204e+01 8.4760701348993273e+00 
22 1 2 1.0279990521336830e+00 -1.8519591967228467e+02 1.0000000000000000e+00 7.7491227836932923e+00 1.2269383163970625e+01 9.4698441812036389e+00 
63 1 2 1.0279990521338043e+00 -5.1325641111808501e+01 1.0000000000000000e+00 7.7498360537607764e+00 1.2271398110590148e+01 9.4670450150769447e+00 
123 1 2 1.0280000001576224e+00 -9.6943524163203236e+01 1.0000000000000000e+00 1.2915420863899683e+01 1.0530752476696509e+01 1.1094418088226762e+01 
124 1 2 1.0280000001576224e+00 -9.2951638289531928e+01 1.0000000000000000e+00 1.2915420863899683e+01 1.0530752476696509e+01 1.1094418088226762e+01 
58 1 2 1.0280009478727103e+00 -9.5896849370734046e+01 1.0000000000000000e+00 8.3701688613552765e+00 1.3027103912247505e+01 1.0171316798855347e+01 
59 1 2 1.0280009478727103e+00 -9.5514178779449011e+01 1.0000000000000000e+00 8.3701688613552765e+00 1.3027103912247505e+01 1.0171316798855347e+01 
100 1 2 1.0280000000006384e+00 -1.0664358059639369e+02 1.0000000000000000e+00 1.1036537308016666e+01 1.5310874576787210e+01 1.1162973518211103e+01 
106 1 2 1.0280000000007108e+00 -8.0301148947949699e+01 1.0000000000000000e+00 1.1121909995003801e+01 1.5433976798659311e+01 1.1169136835489125e+01 
70 1 2 1.0280000000001739e+00 -7.9201883095007133e+01 1.0000000000000000e+00 8.5999511779518105e+00 1.9784729022309431e+01 1.0453342855714425e+01 
40 1 2 1.0280000000001692e+00 -1.4129033599068310e+02 1.0000000000000000e+00 8.6146339180689946e+00 1.9892408895366454e+01 1.0446740288242516e+01 
76 1 2 1.0279999999998872e+00 -1.3877701162482427e+02 1.0000000000000000e+00 8.7007192102069624e+00 1.9825915035439682e+01 1.0451432930098534e+01 
107 1 2 1.0279999999989586e+00 -1.2005523357267026e+02 1.0000000000000000e+00 1.1273415950933749e+01 1.5217531788623599e+01 1.2334677282056818e+01 
101 1 2 1.0279999999991378e+00 -1.1587089338249594e+02 1.0000000000000000e+00 1.1346369006686675e+01 1.5092278744187881e+01 1.2296334541939068e+01 
71 1 2 3.4387207658793817e-01 5.3341700065852996e-02 1.0000000000000000e+00 8.3016858089532874e+00 1.7019361664252493e+01 1.4069436679351675e+01 
65 1 2 1.0280000000003064e+00 -7.9629902298871357e+01 1.0000000000000000e+00 9.2808072614845081e+00 1.3601048726416055e+01 1.6407629681152709e+01 
102 1 2 1.0279999999996872e+00 -1.2415556730440738e+02 1.0000000000000000e+00 9.3709245882396850e+00 1.3601594984886109e+01 1.6468725514385326e+01 
66 1 2 1.0280000000001641e+00 -1.2494850167369432e+02 1.0000000000000000e+00 9.2781756841123606e+00 1.3642794877745073e+01 1.6508150651426675e+01 
72 1 2 6.8774415317587634e-01 -5.7163631892509784e+01 1.0000000000000000e+00 6.7400000000000020e+00 1.6984999999999939e+01 1.6865000000000009e+01 
36 1 2 6.8774415317587634e-01 -5.7163631892509784e+01 1.0000000000000000e+00 6.7399999999999975e+00 1.6985000000000060e+01 1.6864999999999991e+01 
96 1 2 6.8774415317587634e-01 -9.2236815167184005e+01 1.0000000000000000e+00 1.2179933298653873e+01 1.0942830362818656e+01 1.9006319845743558e+01 
91 1 2 6.8774415317587634e-01 -9.1164584632438547e+01 1.0000000000000000e+00 1.2179933298653875e+01 1.0942830362818656e+01 1.9006319845743693e+01 
108 1 2 6.8774415317587634e-01 -1.0103411780889600e+02 1.0000000000000000e+00 1.1409779708833764e+01 1.6639545388171335e+01 1.9069831727370673e+01 
103 1 2 6.8774415317587634e-01 -1.0104263877243271e+02 1.0000000000000000e+00 1.1409779708833764e+01 1.6639545388171353e+01 1.9069831727370691e+01 
157 1 2 3.4387207658793817e-01 1.5891155548824986e-02 1.0000000000000000e+00 1.8259548662173046e+01 7.9168068333321404e+00 6.5938339697333637e-01 
121 1 2 6.8774415317587634e-01 -7.7294466595079243e+01 1.0000000000000000e+00 1.5269984704093078e+01 9.1749892984384491e+00 5.3493934813120103e-01 
127 1 2 6.8774415317587634e-01 -7.7300274002495172e+01 1.0000000000000000e+00 1.5269984704093078e+01 9.1749892984384491e+00 5.3493934813120048e-01 
109 1 2 6.8774415317587634e-01 -7.6771060369714291e+01 1.0000000000000000e+00 1.4734999999999996e+01 1.1150000000000000e+00 2.6150000000000317e+00 
110 1 2 6.8774415317587634e-01 -7.6771060369714291e+01 1.0000000000000000e+00 1.4735000000000005e+01 1.1150000000000000e+00 2.6150000000000317e+00 
116 1 2 1.0279999999999947e+00 -1.4409215511502694e+02 1.0000000000000000e+00 1.4926472503286760e+01 5.5192931752565224e+00 3.2122542823488827e+00 
122 1 2 1.0280000000000165e+00 -1.4293550072877863e+02 1.0000000000000000e+00 1.4926469847698957e+01 5.5186245814541914e+00 3.2121836023964430e+00 
115 1 2 1.0279999999999960e+00 -5.3812105364756761e+01 1.0000000000000000e+00 1.5876787848973784e+01 5.2962317422593808e+00 2.5127972414249991e+00 
152 1 2 1.0280000000000140e+00 -1.3133131192069959e+02 1.0000000000000000e+00 1.6529738266103227e+01 5.7391036137084530e+00 3.4180178762411537e+00 
158 1 2 1.0279999999999845e+00 -1.2771494763827269e+02 1.0000000000000000e+00 1.6529741796273040e+01 5.7390912016079394e+00 3.4180176481770377e+00 
146 1 2 1.0280000000000080e+00 -1.1044588786198939e+02 1.0000000000000000e+00 1.8567552296566433e+01 1.1169132595706617e+00 4.4891825904934644e+00 
145 1 2 1.0280000000000080e+00 -1.1044588786198936e+02 1.0000000000000000e+00 1.8567552296566433e+01 1.1169132595706617e+00 4.4891825904934644e+00 
23 1 2 1.0280000000000005e+00 -8.8392499347448279e+01 1.0000000000000000e+00 1.9250460098247011e+01 1.3542882265538347e+00 5.9486779139756480e+00 
9 1 2 1.0280000000000005e+00 -5.3824391199693167e+01 1.0000000000000000e+00 1.9250460098247011e+01 1.3542882265538347e+00 5.9486779139756480e+00 
147 1 2 6.8774415317587634e-01 -1.0127417848020421e+02 1.0000000000000000e+00 1.8000000000000000e+01 4.9499999999997468e-01 9.3399999999999999e+00 
148 1 2 6.8774415317587634e-01 -1.0127417848020421e+02 1.0000000000000000e+00 1.8000000000000000e+01 4.9499999999997496e-01 9.3399999999999999e+00 
153 1 2 1.0280000000001215e+00 -9.4664837773974568e+01 1.0000000000000000e+00 1.5788928746693067e+01 4.4884537040950798e+00 8.1203690715526768e+00 
118 1 2 1.0280000000002452e+00 -1.2528140650424174e+02 1.0000000000000000e+00 1.5742891169783379e+01 4.5285604319759800e+00 8.2105140864344328e+00 
117 1 2 1.0280000000001892e+00 -1.4219676921024293e+02 1.0000000000000000e+00 1.5681266036813081e+01 4.5042278374374254e+00 8.1241173292844628e+00 
166 1 2 1.0279999999999554e+00 -8.7979336412958119e+01 1.0000000000000000e+00 1.8777876007532569e+01 8.2243919179195366e+00 8.2094605512046837e+00 
160 1 2 1.0279999999997496e+00 -1.1215313198615938e+02 1.0000000000000000e+00 1.8748811502745387e+01 8.1227197219324996e+00 8.2353864252125408e+00 
159 1 2 1.0279999999999418e+00 -9.4430541130522727e+01 1.0000000000000000e+00 1.8785828780545707e+01 8.1449471658607759e+00 8.1354374697443586e+00 
112 1 2 3.4387207658793817e-01 0.0000000000000000e+00 1.0000000000000000e+00 1.4380000000000001e+01 1.4099999999999999e+00 1.0400000000000000e+01 
149 1 2 3.4387207658793817e-01 1.3152859379956488e-03 1.0000000000000000e+00 1.8429854820213055e+01 1.1600092505941346e+00 1.3969999148235241e+01 
113 1 2 6.8774415317587634e-01 -1.0017599918078720e+02 1.0000000000000000e+00 1.5008112819865218e+01 2.4716546392366614e+00 1.4166467472208156e+01 
119 1 2 6.8774415317587634e-01 -1.0139360221706451e+02 1.0000000000000000e+00 1.5008112819865227e+01 2.4716546392366592e+00 1.4166467472208156e+01 
150 1 2 3.4387207658793817e-01 9.2350698732360410e-03 1.0000000000000000e+00 1.7759945215943727e+01 1.7304585159327341e+00 1.7699985339534123e+01 
114 1 2 1.0279999999999929e+00 -9.3253352591595416e+01 1.0000000000000000e+00 1.3339654725133030e+01 3.4584967157038502e+00 1.6942992923314154e+01 
120 1 2 1.0280000000000040e+00 -1.2545749748517983e+02 1.0000000000000000e+00 1.3359426300864111e+01 3.5461880663193153e+00 1.7004421285150951e+01 
156 1 2 1.0280000000000364e+00 -1.6041348129787340e+02 1.0000000000000000e+00 1.7505871462872278e+01 5.7037201219314406e+00 1.7923269678174627e+01 
151 1 2 1.0280000000000249e+00 -1.0167408076449244e+02 1.0000000000000000e+00 1.7530664811171683e+01 5.7232503920171025e+00 1.7930922759553621e+01 
161 1 2 1.0279999999999563e+00 -6.1507354553975631e+01 1.0000000000000000e+00 1.7485543328665909e+01 6.1916542182613279e+00 1.6822092028620883e+01 
162 1 2 1.0279999999999632e+00 -1.5129102629379415e+02 1.0000000000000000e+00 1.7461465993602747e+01 6.2111971522268457e+00 1.6831739146991012e+01 
163 1 2 1.0279999999999672e+00 -1.3477202814526993e+02 1.0000000000000000e+00 1.7860617761892474e+01 1.2677770221370539e+01 1.7815093765728343e+00 
169 1 2 1.0280000000000236e+00 -1.3480656927746492e+02 1.0000000000000000e+00 1.7835778140784242e+01 1.2782476648807046e+01 1.7649658251228184e+00 
170 1 2 1.0280000000000675e+00 -7.7574887154454160e+01 1.0000000000000000e+00 1.7833037941680395e+01 1.2741127791733632e+01 1.8656479742100851e+00 
133 1 2 3.4387207658793817e-01 0.0000000000000000e+00 1.0000000000000000e+00 1.4090000000000000e+01 1.4350000000000000e+01 1.5200000000000000e+00 
139 1 2 6.8774415317587634e-01 -8.9814966199006136e+01 1.0000000000000000e+00 1.6629026738504514e+01 1.7664248853761741e+01 8.0575959575681377e-01 
175 1 2 6.8774415317587634e-01 -8.9836034735158833e+01 1.0000000000000000e+00 1.6629026738504514e+01 1.7664248853761741e+01 8.0575959575681377e-01 
128 1 2 3.4387207658793817e-01 7.9648218475288839e-07 1.0000000000000000e+00 1.4130000013072314e+01 1.0489999995210667e+01 3.6099999721830542e+00 
140 1 2 3.4387207658793817e-01 2.4742765489159654e-02 1.0000000000000000e+00 1.5462146937676497e+01 1.7431440996691997e+01 3.5786000059388452e+00 
164 1 2 6.8774415317587634e-01 -1.0072718870604123e+02 1.0000000000000000e+00 1.8271905451601416e+01 1.0284871807787205e+01 5.6371327736062655e+00 
165 1 2 6.8774415317587634e-01 -1.0093626089734742e+02 1.0000000000000000e+00 1.8271905451601416e+01 1.0284871807787205e+01 5.6371327736062655e+00 
176 1 2 6.8774415317587634e-01 -8.1217359358327585e+01 1.0000000000000000e+00 1.7729899792657612e+01 1.6835030647892072e+01 5.9599404012738786e+00 
177 1 2 6.8774415317587634e-01 -8.1221033587701640e+01 1.0000000000000000e+00 1.7729899792657612e+01 1.6835030647892072e+01 5.9599404012738786e+00 
10 1 2 1.0279999999999985e+00 -9.0149839569272530e+01 1.0000000000000000e+00 1.8461947963954806e+01 1.9964095447797902e+01 5.6349117721092448e+00 
11 1 2 1.0279999999999985e+00 -8.8426225244681248e+01 1.0000000000000000e+00 1.8461947963954806e+01 1.9964095447797902e+01 5.6349117721092448e+00 
129 1 2 1.0280000000002745e+00 -4.8330255343805035e+01 1.0000000000000000e+00 1.4920886620170412e+01 1.2863313599370818e+01 7.1124308406723893e+00 
135 1 2 1.0280000000002230e+00 -1.4781624087071165e+02 1.0000000000000000e+00 1.4854675054209153e+01 1.3032111063839707e+01 7.1049516430428152e+00 
134 1 2 1.0279999999994021e+00 -1.2729348964457483e+02 1.0000000000000000e+00 1.5744750014819326e+01 1.3289345284210201e+01 6.3570493131196084e+00 
171 1 2 1.0279999999990859e+00 -1.1785603085252313e+02 1.0000000000000000e+00 1.5858217500848149e+01 1.3262439925948392e+01 6.4960950796610568e+00 
141 1 2 1.0280000000000042e+00 -1.0882640817166390e+02 1.0000000000000000e+00 1.3716515164157954e+01 1.9482006667701075e+01 6.7002630125405087e+00 
111 1 2 1.0279999999999385e+00 -1.4567931655793842e+02 1.0000000000000000e+00 1.3751562344358547e+01 1.9585017694826782e+01 6.6964478758071664e+00 
75 1 2 1.0279999999999903e+00 -1.0196426377816545e+02 1.0000000000000000e+00 1.3644889354015982e+01 1.9563984037960051e+01 6.7021566609738690e+00 
131 1 2 1.0279999998423601e+00 -1.5156459237749593e+02 1.0000000000000000e+00 1.4017767351730514e+01 1.0343557654571466e+01 1.1543526506676832e+01 
95 1 2 1.0279999998423939e+00 -1.1965708230662202e+02 1.0000000000000000e+00 1.4017782428428450e+01 1.0343546931784351e+01 1.1543485028882339e+01 
142 1 2 1.0279999999999996e+00 -6.2721660519468983e+01 1.0000000000000000e+00 1.4859126456244441e+01 1.5186596318200918e+01 1.1555124323741145e+01 
136 1 2 1.0280000000000034e+00 -1.5664809878069437e+02 1.0000000000000000e+00 1.4859331963511515e+01 1.5179383089104688e+01 1.1555490884559783e+01 
172 1 2 6.8774415317587634e-01 -9.8527333118964833e+01 1.0000000000000000e+00 1.8094027513625729e+01 1.4768091607059748e+01 1.0640280808314222e+01 
178 1 2 6.8774415317587634e-01 -9.7830015834129966e+01 1.0000000000000000e+00 1.8094027513625729e+01 1.4768091607059748e+01 1.0640280808314213e+01 
173 1 2 6.8774415317587634e-01 -8.8602184176990605e+01 1.0000000000000000e+00 1.7812746256681386e+01 1.2587624052550314e+01 1.3192417937818560e+01 
167 1 2 6.8774415317587634e-01 -9.0396214373067181e+01 1.0000000000000000e+00 1.7812746256681386e+01 1.2587624052550305e+01 1.3192417937818551e+01 
137 1 2 1.0279999999999960e+00 -1.1720461998798265e+02 1.0000000000000000e+00 1.4985374007595672e+01 1.5244124237709283e+01 1.2752053529775949e+01 
143 1 2 1.0280000000000065e+00 -1.5052590371503086e+02 1.0000000000000000e+00 1.4982133467956126e+01 1.5250582261717867e+01 1.2752043390022669e+01 
179 1 2 3.4387207658793817e-01 0.0000000000000000e+00 1.0000000000000000e+00 1.7739999999999998e+01 1.7160000000000000e+01 1.4789999999999999e+01 
168 1 2 6.8774415317587634e-01 -6.7583710615878161e+01 1.0000000000000000e+00 1.8065000000000008e+01 1.2074999999999996e+01 1.6704999999999991e+01 
174 1 2 6.8774415317587634e-01 -6.7583710615878161e+01 1.0000000000000000e+00 1.8064999999999991e+01 1.2075000000000005e+01 1.6705000000000009e+01 
138 1 2 1.0280000000000329e+00 -9.5890862149283990e+01 1.0000000000000000e+00 1.5954631919241541e+01 1.5788133170015236e+01 1.7120180700758119e+01 
144 1 2 1.0279999999999050e+00 -1.3370479396944575e+02 1.0000000000000000e+00 1.5952352304090045e+01 1.5894704905504968e+01 1.7142348252891338e+01 
180 1 2 1.0280000000000804e+00 -1.1313923308660151e+02 1.0000000000000000e+00 1.6043354133243508e+01 1.5837458909685557e+01 1.7159544033512397e+01 

Velocities

1 0.0000000000000000e+00 0.0000000000000000e+00 0.0000000000000000e+00
7 3.0682311408748524e-13 -2.0863971712193258e-12 6.9035200673479075e-14
13 -3.0682311408748524e-13 2.0863971712193258e-12 -6.9035200673479075e-14
14 -2.0863971712193258e-12 -1.1045632107756650e-12 -3.9525251667299724e-323
19 2.0863971712193258e-12 1.1045632107756650e-12 3.9525251667299724e-323
8 -1.3339772437713657e-322 1.5341155704374259e-13 -1.3339772437713657e-322
2 1.3339772437713657e-322 -1.5341155704374259e-13 1.3339772437713657e-322
3 -4.9406564584124654e-324 4.9406564584124654e-324 -4.9406564584124654e-324
4 1.3339772437713657e-322 -3.8352889260935655e-14 -6.1364622817497047e-13
5 -1.3339772437713657e-322 3.8352889260935655e-14 6.1364622817497047e-13
17 -1.4237169591916804e-13 -2.9288633349622963e-12 -6.7408157825838600e-12
154 -3.7531043134008157e-12 -3.2700696573132627e-12 1.0502046469996038e-12
155 4.2306454661038920e-12 2.0181272751771617e-12 -1.9588768631035415e-13
125 -1.6937509305901299e-12 3.9823649213503010e-12 4.0445774014557133e-12
12 0.0000000000000000e+00 0.0000000000000000e+00 0.0000000000000000e+00
25 4.9406564584124654e-324 4.9406564584124654e-324 4.9406564584124654e-324
31 1.4821969375237396e-323 -1.4821969375237396e-323 1.4821969375237396e-323
26 1.5602062229911654e-14 -1.0287275648432963e-12 5.0398391932727279e-13
32 1.2886797610765309e-14 9.9523932324885998e-13 -2.0272141494405272e-12
27 5.5442166929163430e-13 1.0399371105171766e-12 1.5031755804003140e-12
33 -5.8291052913139465e-13 -1.0064488689234920e-12 2.0054649717682219e-14
28 -4.2312349426316940e-12 1.2494710967020133e-12 8.8014740750908436e-13
34 -1.0850013329908126e-12 3.3466426719848008e-13 2.6665914362041124e-13
29 1.6112246050937888e-12 -4.7584862671653351e-13 -3.0983862351279437e-13
64 3.7050116705286473e-12 -1.1082867371879082e-12 -8.3696792761678186e-13
15 2.7456946767493614e-12 1.6031270789776839e-13 -6.0607592469681158e-12
21 1.1967257342507149e-12 3.1848267212830054e-13 -4.6044141926989438e-12
126 1.8900145872417041e-12 -7.3271569521960184e-13 2.4841563436865307e-12
132 1.8900145872417041e-12 -7.3271569521960184e-13 2.4841563436865307e-12
24 -3.8612247927297039e-12 4.9331800520869717e-13 2.8484303761491126e-12
30 -3.8612247927297039e-12 4.9331800520869717e-13 2.8484303761491126e-12
35 0.0000000000000000e+00 0.0000000000000000e+00 0.0000000000000000e+00
79 -1.3339772437713657e-322 1.3339772437713657e-322 1.3339772437713657e-322
73 1.3339772437713657e-322 -1.3339772437713657e-322 -1.3339772437713657e-322
85 0.0000000000000000e+00 0.0000000000000000e+00 0.0000000000000000e+00
37 3.0682311408748529e-13 1.3339772437713657e-322 -1.3339772437713657e-322
38 -3.0682311408748529e-13 -1.3339772437713657e-322 1.3339772437713657e-322
74 -9.8813129168249309e-324 -9.8813129168249309e-324 -9.8813129168249309e-324
44 -5.1156283074124284e-13 -4.1942634962192378e-14 2.5140406997209972e-13
80 9.3112816230540681e-13 -4.2403728215577340e-13 -6.5379542597498501e-13
86 -4.1956533156537809e-13 4.6597991711771249e-13 4.0239135600042424e-13
50 -4.1633480167230188e-14 1.0604175982840153e-12 8.9828140719149702e-13