LAMMPS data file via write_data, version 30 Jul 2016, timestep = 1000000

2080 atoms
8 atom types

0.0000000000000000e+00 4.0000000000000000e+01 xlo xhi
0.0000000000000000e+00 4.0000000000000000e+01 ylo yhi
0.0000000000000000e+00 1.0000000000000000e+02 zlo zhi

Masses

1 3.896
2 21.44
3 1058.08
4 8.378
5 8.378
6 8.378
7 8.378
8 8.378

Atoms # meso-molecular

1 2 4 2.2559723595316457e+00 6.1176312283963807e+02 4.2000000000000000e+03 0.0000000000000000e+00 0.0000000000000000e+00 2.5000000000000000e+00 
2 2 4 2.2559723595316457e+00 1.0969223893424919e+03 4.2000000000000000e+03 0.0000000000000000e+00 2.0000000000000000e+00 2.5000000000000000e+00 
3 2 4 2.2559723595316457e+00 1.2167139277209271e+03 4.2000000000000000e+03 0.0000000000000000e+00 4.0000000000000000e+00 2.5000000000000000e+00 
4 2 4 2.2559723595316457e+00 5.2679724569814118e+02 4.2000000000000000e+03 0.0000000000000000e+00 6.0000000000000000e+00 2.5000000000000000e+00 
21 2 4 2.2559723595316457e+00 4.9969094839627718e+02 4.2000000000000000e+03 2.0000000000000000e+00 0.0000000000000000e+00 2.5000000000000000e+00 
22 2 4 2.2559723595316457e+00 9.5859789042520515e+02 4.2000000000000000e+03 2.0000000000000000e+00 2.0000000000000000e+00 2.5000000000000000e+00 
23 2 4 2.2559723595316457e+00 1.1164952613495957e+03 4.2000000000000000e+03 2.0000000000000000e+00 4.0000000000000000e+00 2.5000000000000000e+00 
24 2 4 2.2559723595316457e+00 5.7231382297379764e+02 4.2000000000000000e+03 2.0000000000000000e+00 6.0000000000000000e+00 2.5000000000000000e+00 
41 2 4 2.2559723595316457e+00 3.9250068190686034e+02 4.2000000000000000e+03 4.0000000000000000e+00 0.0000000000000000e+00 2.5000000000000000e+00 
42 2 4 2.2559723595316457e+00 7.5574918573749392e+02 4.2000000000000000e+03 4.0000000000000000e+00 2.0000000000000000e+00 2.5000000000000000e+00 
43 2 4 2.2559723595316457e+00 8.9178827491263769e+02 4.2000000000000000e+03 4.0000000000000000e+00 4.0000000000000000e+00 2.5000000000000000e+00 
44 2 4 2.2559723595316457e+00 3.9514197146303763e+02 4.2000000000000000e+03 4.0000000000000000e+00 6.0000000000000000e+00 2.5000000000000000e+00 
61 2 4 2.2559723595316457e+00 2.0332515975817898e+02 4.2000000000000000e+03 6.0000000000000000e+00 0.0000000000000000e+00 2.5000000000000000e+00 
62 2 4 2.2559723595316457e+00 4.2462347345608265e+02 4.2000000000000000e+03 6.0000000000000000e+00 2.0000000000000000e+00 2.5000000000000000e+00 
63 2 4 2.2559723595316457e+00 3.7752206365322434e+02 4.2000000000000000e+03 6.0000000000000000e+00 4.0000000000000000e+00 2.5000000000000000e+00 
64 2 4 2.2559723595316457e+00 8.2429580160523443e+01 4.2000000000000000e+03 6.0000000000000000e+00 6.0000000000000000e+00 2.5000000000000000e+00 
81 2 4 2.2559723595316457e+00 -1.3348169548678243e+02 4.2000000000000000e+03 8.0000000000000000e+00 0.0000000000000000e+00 2.5000000000000000e+00 
82 2 4 2.2559723595316457e+00 3.5162608127300592e+02 4.2000000000000000e+03 8.0000000000000000e+00 2.0000000000000000e+00 2.5000000000000000e+00 
83 2 4 2.2559723595316457e+00 3.4961594822756092e+02 4.2000000000000000e+03 8.0000000000000000e+00 4.0000000000000000e+00 2.5000000000000000e+00 
84 2 4 2.2559723595316457e+00 2.9511762498187458e+01 4.2000000000000000e+03 8.0000000000000000e+00 6.0000000000000000e+00 2.5000000000000000e+00 
101 2 4 2.2559723595316457e+00 -5.7886777789807547e+02 4.2000000000000000e+03 1.0000000000000000e+01 0.0000000000000000e+00 2.5000000000000000e+00 
102 2 4 2.2559723595316457e+00 5.0914111042539901e+02 4.2000000000000000e+03 1.0000000000000000e+01 2.0000000000000000e+00 2.5000000000000000e+00 
103 2 4 2.2559723595316457e+00 1.1037050853340716e+03 4.2000000000000000e+03 1.0000000000000000e+01 4.0000000000000000e+00 2.5000000000000000e+00 
104 2 4 2.2559723595316457e+00 4.5786028632717529e+02 4.2000000000000000e+03 1.0000000000000000e+01 6.0000000000000000e+00 2.5000000000000000e+00 
121 2 4 2.2559723595316457e+00 -3.0620432868842232e+02 4.2000000000000000e+03 1.2000000000000000e+01 0.0000000000000000e+00 2.5000000000000000e+00 
122 2 4 2.2559723595316457e+00 1.0757471080922041e+03 4.2000000000000000e+03 1.2000000000000000e+01 2.0000000000000000e+00 2.5000000000000000e+00 
123 2 4 2.2559723595316457e+00 1.8334131958379730e+03 4.2000000000000000e+03 1.2000000000000000e+01 4.0000000000000000e+00 2.5000000000000000e+00 
124 2 4 2.2559723595316457e+00 5.1124185555697920e+02 4.2000000000000000e+03 1.2000000000000000e+01 6.0000000000000000e+00 2.5000000000000000e+00 
141 2 4 2.2559723595316457e+00 3.9098351011038901e+01 4.2000000000000000e+03 1.4000000000000000e+01 0.0000000000000000e+00 2.5000000000000000e+00 
142 2 4 2.2559723595316457e+00 1.4785280976104168e+03 4.2000000000000000e+03 1.4000000000000000e+01 2.0000000000000000e+00 2.5000000000000000e+00 
143 2 4 2.2559723595316457e+00 1.9259126635300395e+03 4.2000000000000000e+03 1.4000000000000000e+01 4.0000000000000000e+00 2.5000000000000000e+00 
144 2 4 2.2559723595316457e+00 -1.0598697206844954e+03 4.2000000000000000e+03 1.4000000000000000e+01 6.0000000000000000e+00 2.5000000000000000e+00 
161 2 4 2.2559723595316457e+00 3.7075055312038119e+00 4.2000000000000000e+03 1.6000000000000000e+01 0.0000000000000000e+00 2.5000000000000000e+00 
162 2 4 2.2559723595316457e+00 1.1281801779677758e+03 4.2000000000000000e+03 1.6000000000000000e+01 2.0000000000000000e+00 2.5000000000000000e+00 
163 2 4 2.2559723595316457e+00 1.0048786995783222e+03 4.2000000000000000e+03 1.6000000000000000e+01 4.0000000000000000e+00 2.5000000000000000e+00 
164 2 4 2.2559723595316457e+00 -3.9098211732871496e+03 4.2000000000000000e+03 1.6000000000000000e+01 6.0000000000000000e+00 2.5000000000000000e+00 
181 2 4 2.2559723595316457e+00 -4.6928763342518903e+02 4.2000000000000000e+03 1.8000000000000000e+01 0.0000000000000000e+00 2.5000000000000000e+00 
182 2 4 2.2559723595316457e+00 3.7426494887216995e+02 4.2000000000000000e+03 1.8000000000000000e+01 2.0000000000000000e+00 2.5000000000000000e+00 
183 2 4 2.2559723595316457e+00 -1.0219311228830898e+02 4.2000000000000000e+03 1.8000000000000000e+01 4.0000000000000000e+00 2.5000000000000000e+00 
184 2 4 2.2559723595316457e+00 -6.0917290000471248e+03 4.2000000000000000e+03 1.8000000000000000e+01 6.0000000000000000e+00 2.5000000000000000e+00 
5 2 4 2.2559723595316457e+00 7.2033966710412358e+01 4.2000000000000000e+03 0.0000000000000000e+00 8.0000000000000000e+00 2.5000000000000000e+00 
6 2 4 2.2559723595316457e+00 2.9082012588043675e+01 4.2000000000000000e+03 0.0000000000000000e+00 1.0000000000000000e+01 2.5000000000000000e+00 
7 2 4 2.2559723595316457e+00 -2.6694566977115862e+01 4.2000000000000000e+03 0.0000000000000000e+00 1.2000000000000000e+01 2.5000000000000000e+00 
25 2 4 2.2559723595316457e+00 6.9419763110589116e+01 4.2000000000000000e+03 2.0000000000000000e+00 8.0000000000000000e+00 2.5000000000000000e+00 
26 2 4 2.2559723595316457e+00 -2.2655010291278462e+01 4.2000000000000000e+03 2.0000000000000000e+00 1.0000000000000000e+01 2.5000000000000000e+00 
27 2 4 2.2559723595316457e+00 -1.2876955505381054e+02 4.2000000000000000e+03 2.0000000000000000e+00 1.2000000000000000e+01 2.5000000000000000e+00 
45 2 4 2.2559723595316457e+00 -1.9038224395303551e+01 4.2000000000000000e+03 4.0000000000000000e+00 8.0000000000000000e+00 2.5000000000000000e+00 
46 2 4 2.2559723595316457e+00 -1.0489067668833576e+02 4.2000000000000000e+03 4.0000000000000000e+00 1.0000000000000000e+01 2.5000000000000000e+00 
47 2 4 2.2559723595316457e+00 -1.7500268235439140e+02 4.2000000000000000e+03 4.0000000000000000e+00 1.2000000000000000e+01 2.5000000000000000e+00 
65 2 4 2.2559723595316457e+00 -9.2103013021445463e+01 4.2000000000000000e+03 6.0000000000000000e+00 8.0000000000000000e+00 2.5000000000000000e+00 
66 2 4 2.2559723595316457e+00 -1.3650463128278616e+02 4.2000000000000000e+03 6.0000000000000000e+00 1.0000000000000000e+01 2.5000000000000000e+00 
67 2 4 2.2559723595316457e+00 -7.3447341730831695e+01 4.2000000000000000e+03 6.0000000000000000e+00 1.2000000000000000e+01 2.5000000000000000e+00 
85 2 4 2.2559723595316457e+00 -9.9169698286112293e+01 4.2000000000000000e+03 8.0000000000000000e+00 8.0000000000000000e+00 2.5000000000000000e+00 
86 2 4 2.2559723595316457e+00 -1.2241067420807636e+02 4.2000000000000000e+03 8.0000000000000000e+00 1.0000000000000000e+01 2.5000000000000000e+00 
87 2 4 2.2559723595316457e+00 -4.9201854186670975e+00 4.2000000000000000e+03 8.0000000000000000e+00 1.2000000000000000e+01 2.5000000000000000e+00 
105 2 4 2.2559723595316457e+00 -2.4507664545111808e+02 4.2000000000000000e+03 1.0000000000000000e+01 8.0000000000000000e+00 2.5000000000000000e+00 
106 2 4 2.2559723595316457e+00 -5.6109929771596796e+02 4.2000000000000000e+03 1.0000000000000000e+01 1.0000000000000000e+01 2.5000000000000000e+00 
107 2 4 2.2559723595316457e+00 -6.1625824873813076e+02 4.2000000000000000e+03 1.0000000000000000e+01 1.2000000000000000e+01 2.5000000000000000e+00 
125 2 4 2.2559723595316457e+00 -2.0696418691844351e+03 4.2000000000000000e+03 1.2000000000000000e+01 8.0000000000000000e+00 2.5000000000000000e+00 
126 2 4 2.2559723595316457e+00 -4.5730072333051485e+03 4.2000000000000000e+03 1.2000000000000000e+01 1.0000000000000000e+01 2.5000000000000000e+00 
127 2 4 2.2559723595316457e+00 -6.1284330531350552e+03 4.2000000000000000e+03 1.2000000000000000e+01 1.2000000000000000e+01 2.5000000000000000e+00 
145 2 4 2.2559723595316457e+00 -7.5724160555726266e+03 4.2000000000000000e+03 1.4000000000000000e+01 8.0000000000000000e+00 2.5000000000000000e+00 
146 2 4 2.2559723595316457e+00 -1.5561701201774205e+04 4.2000000000000000e+03 1.4000000000000000e+01 1.0000000000000000e+01 2.5000000000000000e+00 
147 2 4 2.2559723595316457e+00 -2.1543794266684294e+04 4.2000000000000000e+03 1.4000000000000000e+01 1.2000000000000000e+01 2.5000000000000000e+00 
165 2 4 2.2559723595316457e+00 -1.5613756983816696e+04 4.2000000000000000e+03 1.6000000000000000e+01 8.0000000000000000e+00 2.5000000000000000e+00 
166 2 4 2.2559723595316457e+00 -3.1911099860594190e+04 4.2000000000000000e+03 1.6000000000000000e+01 1.0000000000000000e+01 2.5000000000000000e+00 
167 2 4 2.2559723595316457e+00 -4.5484286876914448e+04 4.2000000000000000e+03 1.6000000000000000e+01 1.2000000000000000e+01 2.5000000000000000e+00 
185 2 4 2.2559723595316457e+00 -2.1697176234464034e+04 4.2000000000000000e+03 1.8000000000000000e+01 8.0000000000000000e+00 2.5000000000000000e+00 
186 2 4 2.2559723595316457e+00 -4.4968214096723066e+04 4.2000000000000000e+03 1.8000000000000000e+01 1.0000000000000000e+01 2.5000000000000000e+00 
187 2 4 2.2559723595316457e+00 -6.5282939290930488e+04 4.2000000000000000e+03 1.8000000000000000e+01 1.2000000000000000e+01 2.5000000000000000e+00 
8 2 4 2.2559723595316457e+00 -2.3896854740869679e+02 4.2000000000000000e+03 0.0000000000000000e+00 1.4000000000000000e+01 2.5000000000000000e+00 
9 2 4 2.2559723595316457e+00 -7.5892656037325469e+02 4.2000000000000000e+03 0.0000000000000000e+00 1.6000000000000000e+01 2.5000000000000000e+00 
10 2 4 2.2559723595316457e+00 -1.2901588800464242e+03 4.2000000000000000e+03 0.0000000000000000e+00 1.8000000000000000e+01 2.5000000000000000e+00 
28 2 4 2.2559723595316457e+00 -4.4580332593978756e+02 4.2000000000000000e+03 2.0000000000000000e+00 1.4000000000000000e+01 2.5000000000000000e+00 
29 2 4 2.2559723595316457e+00 -1.0060965323833818e+03 4.2000000000000000e+03 2.0000000000000000e+00 1.6000000000000000e+01 2.5000000000000000e+00 
30 2 4 2.2559723595316457e+00 -1.5252211557541752e+03 4.2000000000000000e+03 2.0000000000000000e+00 1.8000000000000000e+01 2.5000000000000000e+00 
48 2 4 2.2559723595316457e+00 -4.2530993017886721e+02 4.2000000000000000e+03 4.0000000000000000e+00 1.4000000000000000e+01 2.5000000000000000e+00 
49 2 4 2.2559723595316457e+00 -8.6358838091444318e+02 4.2000000000000000e+03 4.0000000000000000e+00 1.6000000000000000e+01 2.5000000000000000e+00 
50 2 4 2.2559723595316457e+00 -1.2663023703108474e+03 4.2000000000000000e+03 4.0000000000000000e+00 1.8000000000000000e+01 2.5000000000000000e+00 
68 2 4 2.2559723595316457e+00 -1.3634784744089623e+02 4.2000000000000000e+03 6.0000000000000000e+00 1.4000000000000000e+01 2.5000000000000000e+00 
69 2 4 2.2559723595316457e+00 -3.3848854391562276e+02 4.2000000000000000e+03 6.0000000000000000e+00 1.6000000000000000e+01 2.5000000000000000e+00 
70 2 4 2.2559723595316457e+00 -4.9967236755542865e+02 4.2000000000000000e+03 6.0000000000000000e+00 1.8000000000000000e+01 2.5000000000000000e+00 
88 2 4 2.2559723595316457e+00 3.5040002106842465e+01 4.2000000000000000e+03 8.0000000000000000e+00 1.4000000000000000e+01 2.5000000000000000e+00 
89 2 4 2.2559723595316457e+00 -9.3507245664108424e+01 4.2000000000000000e+03 8.0000000000000000e+00 1.6000000000000000e+01 2.5000000000000000e+00 
90 2 4 2.2559723595316457e+00 -1.7775049835590139e+02 4.2000000000000000e+03 8.0000000000000000e+00 1.8000000000000000e+01 2.5000000000000000e+00 
108 2 4 2.2559723595316457e+00 -5.8229905289013823e+02 4.2000000000000000e+03 1.0000000000000000e+01 1.4000000000000000e+01 2.5000000000000000e+00 
109 2 4 2.2559723595316457e+00 -7.2002711533032664e+02 4.2000000000000000e+03 1.0000000000000000e+01 1.6000000000000000e+01 2.5000000000000000e+00 
110 2 4 2.2559723595316457e+00 -8.3846139762666894e+02 4.2000000000000000e+03 1.0000000000000000e+01 1.8000000000000000e+01 2.5000000000000000e+00 
128 2 4 2.2559723595316457e+00 -6.4847021784029857e+03 4.2000000000000000e+03 1.2000000000000000e+01 1.4000000000000000e+01 2.5000000000000000e+00 
129 2 4 2.2559723595316457e+00 -6.5273356660761729e+03 4.2000000000000000e+03 1.2000000000000000e+01 1.6000000000000000e+01 2.5000000000000000e+00 
130 2 4 2.2559723595316457e+00 -6.5467329871935672e+03 4.2000000000000000e+03 1.2000000000000000e+01 1.8000000000000000e+01 2.5000000000000000e+00 
148 2 4 2.2559723595316457e+00 -2.3613207481174533e+04 4.2000000000000000e+03 1.4000000000000000e+01 1.4000000000000000e+01 2.5000000000000000e+00 
149 2 4 2.2559723595316457e+00 -2.3548329026414383e+04 4.2000000000000000e+03 1.4000000000000000e+01 1.6000000000000000e+01 2.5000000000000000e+00 
150 2 4 2.2559723595316457e+00 -2.3263362141496436e+04 4.2000000000000000e+03 1.4000000000000000e+01 1.8000000000000000e+01 2.5000000000000000e+00 
168 2 4 2.2559723595316457e+00 -5.1080216141325815e+04 4.2000000000000000e+03 1.6000000000000000e+01 1.4000000000000000e+01 2.5000000000000000e+00 
169 2 4 2.2559723595316457e+00 -5.1306387702820502e+04 4.2000000000000000e+03 1.6000000000000000e+01 1.6000000000000000e+01 2.5000000000000000e+00 
170 2 4 2.2559723595316457e+00 -5.0680675070706107e+04 4.2000000000000000e+03 1.6000000000000000e+01 1.8000000000000000e+01 2.5000000000000000e+00 
188 2 4 2.2559723595316457e+00 -7.4078889400524102e+04 4.2000000000000000e+03 1.8000000000000000e+01 1.4000000000000000e+01 2.5000000000000000e+00 
189 2 4 2.2559723595316457e+00 -7.4620203710645132e+04 4.2000000000000000e+03 1.8000000000000000e+01 1.6000000000000000e+01 2.5000000000000000e+00 
190 2 4 2.2559723595316457e+00 -7.3780080629994860e+04 4.2000000000000000e+03 1.8000000000000000e+01 1.8000000000000000e+01 2.5000000000000000e+00 
1616 1218 2 1.0280158657157139e+00 1.3913184642686909e+04 4.2000000000000000e+03 6.7069636131802424e-01 3.7877912008234454e-01 5.9145742200661900e+01 
1333 935 2 1.0280182387209644e+00 7.8306546890759710e+04 4.2000000000000000e+03 3.4920819284373870e-02 4.0572593099919163e-01 5.9276785134256976e+01 
839 441 2 1.0280129202849639e+00 -1.6393151557167430e+05 4.2000000000000000e+03 2.0727033876625152e+00 1.1384563714304439e+00 5.9936135147544448e+01 
606 208 2 1.0280017586313723e+00 -1.1726249067233967e+05 4.2000000000000000e+03 1.3237408854798771e+01 8.0223364557715038e-01 5.9051594967174907e+01 
1743 1345 2 1.0280057309635939e+00 4.8246619769732453e+04 4.2000000000000000e+03 1.2141791449894596e+01 1.3578747780946852e+00 5.9250316758790234e+01 
852 454 2 1.0280074297195834e+00 2.0867319707945837e+04 4.2000000000000000e+03 1.2215676013165460e+01 9.5848690647182344e-01 5.9274976697421742e+01 
887 489 2 1.0280074501269334e+00 -1.4744622754988034e+05 4.2000000000000000e+03 1.1073787885679934e+01 1.3301565238904873e+00 5.9450771706960779e+01 
1757 1359 2 1.0280125238784075e+00 2.3411406881428530e+05 4.2000000000000000e+03 1.0622911464232793e+01 1.7401397421981177e+00 5.9517455917986481e+01 
1759 1361 2 1.0280143489345910e+00 -4.1823096957220951e+04 4.2000000000000000e+03 1.0168260497774270e+01 2.2413250983236503e+00 5.9620442557590373e+01 
883 485 2 1.0280169571451749e+00 -2.6822238999529259e+05 4.2000000000000000e+03 9.7214537230989233e+00 2.4925107944960794e+00 5.9737010055546826e+01 
942 544 2 1.0280026711405905e+00 -4.0231402679696726e+05 4.2000000000000000e+03 1.6402915180837692e+01 1.7516878335200631e-02 5.8095636367581179e+01 
1558 1160 2 1.0280024846915661e+00 -2.4719557737712070e+05 4.2000000000000000e+03 1.6338189395516594e+01 3.5105224558981608e-02 5.8105576502771186e+01 
1100 702 2 1.0280058687724980e+00 -6.4245229836152910e+04 4.2000000000000000e+03 1.6093662845209561e+01 4.0615799354364057e-01 5.8394751371711102e+01 
1353 955 2 1.0280105754238678e+00 -7.3588612988754641e+04 4.2000000000000000e+03 1.6507579977992403e+01 1.5409290941689329e+00 5.9135546381736916e+01 
1524 1126 2 1.0280094332609020e+00 3.4917621833236255e+04 4.2000000000000000e+03 1.4767881697566803e+01 4.0874508446784938e+00 5.9564980356453994e+01 
998 600 2 1.0280082225771912e+00 -3.4147142162905668e+05 4.2000000000000000e+03 1.5798835664582244e+01 4.0575232902363592e+00 5.9723233196592872e+01 
1614 1216 2 1.0280071530225112e+00 -1.2419450052630068e+05 4.2000000000000000e+03 1.5616803140901931e+01 4.4076331675691867e+00 5.9847428397186590e+01 
840 442 2 1.0280062695394994e+00 8.4564506350698619e+04 4.2000000000000000e+03 1.6672577528038005e+01 3.9676699828390087e+00 5.9947465367472311e+01 
721 323 2 1.0280032505548302e+00 4.0052186825695931e+05 4.2000000000000000e+03 1.7159154983434693e+01 3.4011453762233748e+00 5.9941175838369730e+01 
626 228 2 1.0279890078043623e+00 -1.0875470890251147e+05 4.2000000000000000e+03 6.4612080967216834e-01 1.0369201822276191e+01 5.9547812902638633e+01 
654 256 2 1.0280034352053200e+00 -1.1883232217951924e+05 4.2000000000000000e+03 6.6815072425454614e-01 1.1754163013318681e+01 5.9622887509646155e+01 
754 356 2 1.0280061756680012e+00 -1.4060984547534070e+05 4.2000000000000000e+03 8.4122115359281713e-01 1.1881799841009871e+01 5.9664575224817639e+01 
886 488 2 1.0280052211914168e+00 -1.4940639828330162e+05 4.2000000000000000e+03 9.1000436111432947e-01 1.1782831592529373e+01 5.9670499732618204e+01 
421 23 2 1.0280127674724326e+00 3.3911965567220317e+05 4.2000000000000000e+03 6.7339159091530459e-02 1.2846372265806988e+01 5.9684929467833562e+01 
2058 1660 2 1.0279900000164235e+00 1.0823232850251590e+05 4.2000000000000000e+03 3.2346558509005247e-01 6.6799297401214979e+00 5.9723347333036045e+01 
884 486 2 1.0279906151076634e+00 2.2321066459086869e+05 4.2000000000000000e+03 1.7191591966398174e+00 1.0144072280202288e+01 5.9935958787787683e+01 
1270 872 2 1.0280216116645753e+00 -3.1954304374680482e+05 4.2000000000000000e+03 7.3677738006562576e-02 1.4551625602934649e+01 5.9806367311468378e+01 
899 501 2 1.0280211109636377e+00 -8.4184592523307438e+04 4.2000000000000000e+03 1.2398146348459729e-01 1.4555357509390625e+01 5.9808187873238907e+01 
546 148 2 1.0280221053884213e+00 1.0699246112919613e+05 4.2000000000000000e+03 2.3803274764202182e-03 1.4675850297749477e+01 5.9807024026166836e+01 
1234 836 2 1.0280239320539051e+00 -2.2527194104046739e+04 4.2000000000000000e+03 1.0776257022004083e+00 1.5267261563773362e+01 5.9922482339989322e+01 
1824 1426 2 1.0280226228450957e+00 4.1471238528084905e+04 4.2000000000000000e+03 1.2856619411184538e+00 1.5486460766491376e+01 5.9952631518974115e+01 
1905 1507 2 1.0279837172561848e+00 1.4465494404087908e+05 4.2000000000000000e+03 1.4478989988474613e+01 1.9829105175839835e+01 5.9293200976680765e+01 
1015 617 2 1.0279817953885988e+00 -2.5625210152964154e+05 4.2000000000000000e+03 1.4368284325784973e+01 1.9521685239280412e+01 5.9424921978040501e+01 
1760 1362 2 1.0279830201515117e+00 2.3820871517363979e+05 4.2000000000000000e+03 1.4925743073616086e+01 1.9859828434793602e+01 5.9419378666213888e+01 
1606 1208 2 1.0279786956784782e+00 -1.9401768633045198e+05 4.2000000000000000e+03 1.4339760044273749e+01 1.9194999708567842e+01 5.9609795984949713e+01 
1834 1436 2 1.0280133555715096e+00 -9.7789067761210041e+04 4.2000000000000000e+03 8.6948458478220103e-01 2.1776089450064622e+00 6.0957749064372912e+01 
2043 1645 2 1.0279997879444995e+00 -5.3623478737966339e+04 4.2000000000000000e+03 6.0935809940834620e+00 3.3877058513163210e+00 6.1203880988729786e+01 
1732 1334 2 1.0280048173000433e+00 1.3036791660046155e+05 4.2000000000000000e+03 6.6574181785652859e+00 4.8871887182512257e+00 6.1290165569226197e+01 
803 405 2 1.0280005376060519e+00 -1.2005523391471137e+05 4.2000000000000000e+03 4.1245977142832002e+00 2.3921022042003779e+00 6.1749912003696785e+01 
1247 849 2 1.0280122052715004e+00 -9.8671576780560470e+04 4.2000000000000000e+03 1.5836849052857100e+00 2.6034056134594112e+00 6.1958388253949906e+01 
1581 1183 2 1.0280131077682750e+00 3.4065563392505411e+05 4.2000000000000000e+03 5.2280707350359945e+00 1.7844702752574746e+00 6.3272466999005232e+01 
1908 1510 2 1.0280008230731610e+00 1.4184747632551103e+05 4.2000000000000000e+03 4.0091141810547581e+00 1.5994898004590578e-02 6.3781442601116503e+01 
1984 1586 2 1.0279963342859695e+00 1.1017770536414598e+05 4.2000000000000000e+03 4.4660361197449472e+00 5.6119929958336083e+00 6.3835938327093089e+01 
592 194 2 1.0280079843048213e+00 2.1412526040041016e+05 4.2000000000000000e+03 8.4351088340726399e+00 3.3336185145444341e+00 6.0182716527639656e+01 
466 68 2 1.0280112313153538e+00 -4.3872546199132164e+04 4.2000000000000000e+03 7.3441859010524526e+00 3.3643785803006874e+00 6.0555429223612606e+01 
571 173 2 1.0280079553273647e+00 2.2985301831496091e+05 4.2000000000000000e+03 7.4937063868270419e+00 4.0291869592477267e+00 6.0670117274089272e+01 
849 451 2 1.0280132762807328e+00 1.0942790884887485e+04 4.2000000000000000e+03 1.0874321741464865e+01 5.1771702547256648e+00 6.0787730407773275e+01 
1020 622 2 1.0280110085185141e+00 3.6450086559982788e+04 4.2000000000000000e+03 1.0843134533042862e+01 5.2774413869195671e+00 6.0893240315814317e+01 
525 127 2 1.0280054606672617e+00 2.3531943672980811e+05 4.2000000000000000e+03 7.3251840821499190e+00 4.5021882180237141e+00 6.0898720839874827e+01 
765 367 2 1.0280068259672186e+00 1.2150220220172397e+05 4.2000000000000000e+03 7.8628717894741333e+00 5.1373395292934845e+00 6.1071938516588403e+01 
2062 1664 2 1.0280028168117838e+00 1.8781745019005032e+05 4.2000000000000000e+03 7.3054657600904287e+00 5.0977698760445422e+00 6.1167100732751955e+01 
1489 1091 2 1.0280047368910141e+00 -1.3329725025954409e+05 4.2000000000000000e+03 6.7492390027174229e+00 4.9189542206287404e+00 6.1265262333106051e+01 
968 570 2 1.0280013393674210e+00 -4.2929000837439984e+04 4.2000000000000000e+03 1.1344052489219772e+01 6.5405339278755061e+00 6.2616620528997224e+01 
1959 1561 2 1.0279973555851516e+00 1.7177961163190231e+05 4.2000000000000000e+03 1.1615381600314798e+01 6.5049950409838129e+00 6.4032016773939048e+01 
414 16 2 1.0280060623838436e+00 9.0614922403121687e+04 4.2000000000000000e+03 8.0794857271056362e+00 1.8309068002832305e+00 6.4694746125262071e+01 
1305 907 2 1.0279898872749422e+00 7.7329824829367572e+04 4.2000000000000000e+03 1.1293858858429214e+01 3.6221524082969503e-01 6.5742256770949624e+01 
2059 1661 2 1.0280109666694350e+00 1.1275219461397140e+05 4.2000000000000000e+03 1.3989970228686238e+01 5.1412354623478009e+00 6.0225826746614693e+01 
1107 709 2 1.0280063716515349e+00 -3.4318851910952665e+05 4.2000000000000000e+03 1.4933395767018908e+01 5.3947802749827147e+00 6.0395952071437151e+01 
946 548 2 1.0280070401923784e+00 -3.2376298386970215e+05 4.2000000000000000e+03 1.4842226331785604e+01 5.4054434870420218e+00 6.0402270716123788e+01 
1289 891 2 1.0279992549720172e+00 2.9185957529328167e+04 4.2000000000000000e+03 1.8467057593015163e+01 3.9021114582966523e+00 6.0585063556340685e+01 
693 295 2 1.0280024144421998e+00 1.8277531209647443e+05 4.2000000000000000e+03 1.8987860859515177e+01 3.9764868498569093e+00 6.0789268195015929e+01 
1269 871 2 1.0280010344892472e+00 -9.5617782322167157e+04 4.2000000000000000e+03 1.9390119145655440e+01 3.7826431835009693e+00 6.0866965854978510e+01 
1204 806 2 1.0280009678694080e+00 -4.8366840779616265e+04 4.2000000000000000e+03 1.6298490764046122e+01 5.4054438284121336e+00 6.3986649506504648e+01 
479 81 2 1.0280016753370722e+00 9.5539901471128207e+04 4.2000000000000000e+03 1.6287331157189655e+01 5.3456285764831772e+00 6.3990173645960994e+01 
609 211 2 1.0280035213300400e+00 2.0491701071061200e+05 4.2000000000000000e+03 1.5916693456723035e+01 4.8869802625432044e+00 6.4115922651833131e+01 
1861 1463 2 1.0280060923594134e+00 2.2327841778264570e+05 4.2000000000000000e+03 1.4654679420007591e+01 5.2956175659406606e+00 6.4339733249315159e+01 
798 400 2 1.0280019877800419e+00 -1.1146516757574718e+05 4.2000000000000000e+03 1.5106193653730909e+01 1.7557082961597251e-02 6.4331097028513938e+01 
1922 1524 2 1.0279981234492526e+00 2.0755605700147490e+05 4.2000000000000000e+03 1.3969406800371281e+01 2.4322695303371806e+00 6.6644778692186023e+01 
1442 1044 2 1.0279903683911666e+00 -5.0448710908487078e+05 4.2000000000000000e+03 1.9658285938469462e+00 9.3764675835526763e+00 6.0134137092492359e+01 
1088 690 2 1.0279919223673992e+00 2.3022535493278262e+05 4.2000000000000000e+03 2.0106340125172948e+00 9.0624041174842258e+00 6.0192855193457483e+01 
795 397 2 1.0279898076589888e+00 -1.7176320361003120e+05 4.2000000000000000e+03 2.1251050868662684e+00 7.6811520792420129e+00 6.0496838210211301e+01 
1850 1452 2 1.0279889925258796e+00 -5.7054848108259124e+04 4.2000000000000000e+03 2.7825246806326196e+00 8.1548237530217840e+00 6.0856602202261911e+01 
1797 1399 2 1.0279925322706274e+00 4.1171579781114758e+05 4.2000000000000000e+03 3.0947904029599398e+00 8.3052288838709316e+00 6.1086765832577733e+01 
978 580 2 1.0279884726507225e+00 -3.3796119257663190e+05 4.2000000000000000e+03 3.7021218390971042e+00 8.6713715473384081e+00 6.1616532415159512e+01 
1433 1035 2 1.0279904402249571e+00 -1.2835664075624564e+05 4.2000000000000000e+03 4.2483661502153272e+00 7.2022016912003979e+00 6.1877026092926009e+01 
661 263 2 1.0279940157713088e+00 1.4424960441506552e+05 4.2000000000000000e+03 6.4606001293208886e+00 9.7431442124458041e+00 6.2910785525709557e+01 
838 440 2 1.0279937507911094e+00 -1.6509936706322970e+05 4.2000000000000000e+03 5.5450893262500882e+00 9.1846575324817294e+00 6.3034492748974259e+01 
563 165 2 1.0280095172858112e+00 1.5603943831473152e+05 4.2000000000000000e+03 3.8878302305851600e+00 1.1064129157335504e+01 6.4086169949570390e+01 
524 126 2 1.0280092874406455e+00 3.6311416741902987e+05 4.2000000000000000e+03 3.5554938531739184e+00 1.1158176332309669e+01 6.4366202044446965e+01 
2054 1656 2 1.0280085956868765e+00 2.4469307594851707e+04 4.2000000000000000e+03 3.5699116190264668e+00 1.0986457275670354e+01 6.4381972951667208e+01 
1313 915 2 1.0279742176451045e+00 -1.3044208746631762e+03 4.2000000000000000e+03 6.1832317185511494e+00 9.2819822840964648e+00 6.5309803055394369e+01 
1825 1427 2 1.0280277894828167e+00 7.2795926570781739e+04 4.2000000000000000e+03 2.2255089465971353e-01 1.2152004664978167e+01 6.5834722099611398e+01 
983 585 2 1.0280093275619731e+00 -2.7233219538147195e+05 4.2000000000000000e+03 2.9003170982720357e+00 7.2506293635786969e+00 6.6427514864668140e+01 
1495 1097 2 1.0279907445400938e+00 -3.7545382290650479e+05 4.2000000000000000e+03 9.7604191318276357e+00 1.2926908116697096e+01 6.1105428007083447e+01 
589 191 2 1.0279908985692627e+00 2.1259057363252513e+05 4.2000000000000000e+03 9.7970338323760604e+00 1.2736453308482607e+01 6.1140558223729400e+01 
993 595 2 1.0279908995278391e+00 -8.0739233616879181e+04 4.2000000000000000e+03 9.9205147925837949e+00 1.2391655193169345e+01 6.1223862480312505e+01 
950 552 2 1.0279903826415797e+00 -4.3423605194579368e+05 4.2000000000000000e+03 9.8338131781536422e+00 1.2364811329515002e+01 6.1222651952089898e+01 
2051 1653 2 1.0279904316751196e+00 2.4369810363119774e+05 4.2000000000000000e+03 1.0361451729332819e+01 1.1102964853091896e+01 6.1691115391037251e+01 
1530 1132 2 1.0279794149351951e+00 -3.0889174537161255e+05 4.2000000000000000e+03 1.3089312757159670e+01 1.3102908291129689e+01 6.2557629914919644e+01 
1321 923 2 1.0279928137457472e+00 8.8478067891869450e+03 4.2000000000000000e+03 7.4728351109776359e+00 9.4654914230266893e+00 6.2699439538329230e+01 
486 88 2 1.0279873345840251e+00 6.0538657724729972e+04 4.2000000000000000e+03 8.7555544776944156e+00 8.4446462653243142e+00 6.3014784663590426e+01 
1802 1404 2 1.0279823333065699e+00 -1.0818900389022415e+05 4.2000000000000000e+03 1.0928377991673655e+01 8.7274160041144455e+00 6.3062820395052235e+01 
538 140 2 1.0279955563110856e+00 2.3362704018770580e+05 4.2000000000000000e+03 1.1990288400217883e+01 6.7673611154620597e+00 6.3803546739847235e+01 
1384 986 2 1.0280067691065782e+00 1.3445069991348899e+05 4.2000000000000000e+03 1.0922940814874538e+01 7.5295012295004033e+00 6.6403992260928206e+01 
1131 733 2 1.0280063699592117e+00 -2.6776089388117916e+05 4.2000000000000000e+03 7.8330869125876994e+00 1.1253869126793207e+01 6.6407119362652423e+01 
841 443 2 1.0279984401590756e+00 1.0190672273374497e+03 4.2000000000000000e+03 1.4533055035439352e+01 7.0631804119065773e+00 6.1837813427088570e+01 
923 525 2 1.0279961018935628e+00 -2.1186844631681088e+05 4.2000000000000000e+03 1.4313774918147317e+01 7.9653104758848396e+00 6.2646643883843261e+01 
1455 1057 2 1.0279578372580529e+00 -4.4680368400329910e+05 4.2000000000000000e+03 1.9820287378186286e+01 1.0661480444152382e+01 6.2789704394648183e+01 
510 112 2 1.0279715005424657e+00 -7.5697330826983060e+04 4.2000000000000000e+03 1.8911172844064247e+01 1.1256244941579643e+01 6.2852539332760166e+01 