LAMMPS data file via write_data, version 30 Jul 2016, timestep = 100000000

595 atoms
8 atom types

0.0000000000000000e+00 2.0000000000000000e+01 xlo xhi
0.0000000000000000e+00 2.0000000000000000e+01 ylo yhi
0.0000000000000000e+00 2.0000000000000000e+01 zlo zhi

Masses

1 3.896
2 5.36
3 20.064
4 8.378
5 8.378
6 8.378
7 8.378
8 8.378

Atoms # meso-molecular

1 2 4 2.2938640322379165e+00 -8.3946305501326695e+00 1.0000000000000000e+00 0.0000000000000000e+00 0.0000000000000000e+00 5.0000000000000000e-01 
2 2 4 2.3317557049441873e+00 -5.9498254965815027e+00 1.0000000000000000e+00 0.0000000000000000e+00 1.6000000000000001e+00 5.0000000000000000e-01 
3 2 4 2.3317557049441877e+00 -7.5375734198733086e+00 1.0000000000000000e+00 0.0000000000000000e+00 3.2000000000000002e+00 5.0000000000000000e-01 
14 2 4 2.2938640322379165e+00 -2.0501900866856300e+02 1.0000000000000000e+00 2.0000000000000000e+00 0.0000000000000000e+00 5.0000000000000000e-01 
15 2 4 2.3317557049443267e+00 -3.2325398652130821e+02 1.0000000000000000e+00 2.0000000000000000e+00 1.6000000000000001e+00 5.0000000000000000e-01 
16 2 4 2.3317557049441877e+00 -3.2448088632195794e+02 1.0000000000000000e+00 2.0000000000000000e+00 3.2000000000000002e+00 5.0000000000000000e-01 
27 2 4 2.2938640322379165e+00 -4.9559720081297507e+02 1.0000000000000000e+00 4.0000000000000000e+00 0.0000000000000000e+00 5.0000000000000000e-01 
28 2 4 2.3317557049458379e+00 -9.9596278758988353e+02 1.0000000000000000e+00 4.0000000000000000e+00 1.6000000000000001e+00 5.0000000000000000e-01 
29 2 4 2.3317557049442472e+00 -1.0629183229054406e+03 1.0000000000000000e+00 4.0000000000000000e+00 3.2000000000000002e+00 5.0000000000000000e-01 
40 2 4 2.2938640322497932e+00 -5.1598298883483210e+02 1.0000000000000000e+00 6.0000000000000000e+00 0.0000000000000000e+00 5.0000000000000000e-01 
41 2 4 2.3317557049444768e+00 -1.1342307156373956e+03 1.0000000000000000e+00 6.0000000000000000e+00 1.6000000000000001e+00 5.0000000000000000e-01 
42 2 4 2.3317557049441877e+00 -1.2096870334164057e+03 1.0000000000000000e+00 6.0000000000000000e+00 3.2000000000000002e+00 5.0000000000000000e-01 
4 2 4 2.3317557049450568e+00 -8.1831103068750579e+00 1.0000000000000000e+00 0.0000000000000000e+00 4.7999999999999998e+00 5.0000000000000000e-01 
5 2 4 2.3317557049441877e+00 -5.3721490619403873e+00 1.0000000000000000e+00 0.0000000000000000e+00 6.4000000000000004e+00 5.0000000000000000e-01 
17 2 4 2.3317557049441877e+00 -3.3820181544582766e+02 1.0000000000000000e+00 2.0000000000000000e+00 4.7999999999999998e+00 5.0000000000000000e-01 
18 2 4 2.3317557049441877e+00 -3.2170054566848768e+02 1.0000000000000000e+00 2.0000000000000000e+00 6.4000000000000004e+00 5.0000000000000000e-01 
30 2 4 2.3317557049441877e+00 -1.0752260836626022e+03 1.0000000000000000e+00 4.0000000000000000e+00 4.7999999999999998e+00 5.0000000000000000e-01 
31 2 4 2.3317557049479394e+00 -1.0621108185929636e+03 1.0000000000000000e+00 4.0000000000000000e+00 6.4000000000000004e+00 5.0000000000000000e-01 
43 2 4 2.3317557049441877e+00 -1.2148196034285800e+03 1.0000000000000000e+00 6.0000000000000000e+00 4.7999999999999998e+00 5.0000000000000000e-01 
44 2 4 2.3317557049441877e+00 -1.2173205501000893e+03 1.0000000000000000e+00 6.0000000000000000e+00 6.4000000000000004e+00 5.0000000000000000e-01 
6 2 4 2.3317557049441882e+00 -9.9641110634194625e+00 1.0000000000000000e+00 0.0000000000000000e+00 8.0000000000000000e+00 5.0000000000000000e-01 
7 2 4 2.3317557049441882e+00 -3.4252291614930859e+00 1.0000000000000000e+00 0.0000000000000000e+00 9.5999999999999996e+00 5.0000000000000000e-01 
19 2 4 2.3317557049441882e+00 -3.4226830371864565e+02 1.0000000000000000e+00 2.0000000000000000e+00 8.0000000000000000e+00 5.0000000000000000e-01 
20 2 4 2.3317557049441882e+00 -3.2094278429372935e+02 1.0000000000000000e+00 2.0000000000000000e+00 9.5999999999999996e+00 5.0000000000000000e-01 
32 2 4 2.3317557049441882e+00 -1.0815522570356516e+03 1.0000000000000000e+00 4.0000000000000000e+00 8.0000000000000000e+00 5.0000000000000000e-01 
33 2 4 2.3317557049441882e+00 -1.0622757968615290e+03 1.0000000000000000e+00 4.0000000000000000e+00 9.5999999999999996e+00 5.0000000000000000e-01 
45 2 4 2.3317557049441882e+00 -1.2148051934221849e+03 1.0000000000000000e+00 6.0000000000000000e+00 8.0000000000000000e+00 5.0000000000000000e-01 
46 2 4 2.3317557049617306e+00 -1.2236751043311738e+03 1.0000000000000000e+00 6.0000000000000000e+00 9.5999999999999996e+00 5.0000000000000000e-01 
714 2 1 1.0279847768180108e+00 -1.3018800112342758e+01 1.0000000000000000e+00 2.9916911388923131e+00 8.4616284127501340e-01 4.2996574696472223e+00 
145 2 1 1.0279843354984410e+00 -1.1001880822282328e+03 1.0000000000000000e+00 2.9927927002347241e+00 8.4540487585852442e-01 4.2993090905999720e+00 
487 2 1 1.0279845126103355e+00 -1.9139325755881469e+01 1.0000000000000000e+00 2.9918850786126812e+00 8.4600028102491620e-01 4.2996665399869594e+00 
726 2 1 1.0279842575311839e+00 -4.3658953937202455e+01 1.0000000000000000e+00 2.9932787610612070e+00 8.4509155491169352e-01 4.2991126979614549e+00 
355 2 1 1.0279843168110967e+00 -4.0489414810071594e+01 1.0000000000000000e+00 2.9935110565958114e+00 8.4495736642133290e-01 4.2989822447703361e+00 
266 2 1 1.0279842551914335e+00 -1.3168327173915972e+02 1.0000000000000000e+00 2.9933423435267748e+00 8.4505194001330408e-01 4.2990840389826861e+00 
278 2 1 1.0280570739742712e+00 -1.2781189529908961e+02 1.0000000000000000e+00 3.1919667911235075e+00 1.4562749156270822e+00 4.4130083930465283e+00 
382 2 1 1.0280412119028259e+00 -5.1000788132945793e+01 1.0000000000000000e+00 3.5333227649899199e+00 1.1121655587630348e+00 4.4388598935481838e+00 
593 2 1 1.0279971539651802e+00 -6.9925958509450425e+01 1.0000000000000000e+00 6.3026021493666482e+00 1.9739069379737375e+00 4.4685333560592468e+00 
754 2 1 1.0279975768002383e+00 -5.4147286503781977e+01 1.0000000000000000e+00 6.5228939503031640e+00 2.2082080324124815e+00 4.4368612841737551e+00 
425 2 1 1.0280587833935100e+00 -2.6235350020055925e+01 1.0000000000000000e+00 6.4713693025222643e+00 1.6178673978262865e+00 5.1492284952145218e+00 
713 2 1 1.0279984450842015e+00 -2.3892113577757630e+01 1.0000000000000000e+00 6.5789885417400411e+00 1.6385986265614105e+00 5.1997868386533508e+00 
256 2 1 1.0280224386109840e+00 -1.3584943549896448e+02 1.0000000000000000e+00 6.6231261919091091e+00 1.6430668007686635e+00 5.2190378154355272e+00 
635 2 1 1.0281343652016754e+00 -3.9855339451207051e+01 1.0000000000000000e+00 2.8123757065003047e-01 4.1199239181889036e+00 4.4295338204159833e+00 
307 2 1 1.0281343654588959e+00 -4.4620698947346121e+01 1.0000000000000000e+00 2.8123771645493428e-01 4.1199239498047184e+00 4.4295336461574095e+00 
656 2 1 1.0281343639252452e+00 -4.6979013433883331e+01 1.0000000000000000e+00 2.8123682331870503e-01 4.1199237767566528e+00 4.4295346829051230e+00 
495 2 1 1.0281343672386631e+00 -4.8944219444260050e+01 1.0000000000000000e+00 2.8123865396725567e-01 4.1199242149235689e+00 4.4295324336629678e+00 
505 2 1 1.0281343650815680e+00 -2.7327446271244725e+01 1.0000000000000000e+00 2.8123750245586271e-01 4.1199239034847341e+00 4.4295339017951818e+00 
384 2 1 1.0278224753484588e+00 -2.9120071044998291e+01 1.0000000000000000e+00 9.4456040209943948e-01 4.6692815358920265e+00 5.5072048982380286e+00 
574 2 1 1.0279577343118993e+00 -1.9974281995413033e+01 1.0000000000000000e+00 1.3026683357871112e+00 5.4445070902337385e+00 5.5025330598535769e+00 
497 2 1 1.0279554486440325e+00 -2.7371998256012386e+01 1.0000000000000000e+00 1.3201312851931144e+00 5.4274260763886568e+00 5.4956684983213036e+00 
157 2 1 1.0279534592025077e+00 -1.2827503343691569e+03 1.0000000000000000e+00 1.3279855425547102e+00 5.4165742819410614e+00 5.4924900464565551e+00 
302 2 1 1.0279538138211506e+00 -4.1391138324678813e+01 1.0000000000000000e+00 8.3244447336628125e-01 6.2730468474466612e+00 4.4186964325334204e+00 
678 2 1 1.0281133736326022e+00 -3.0639867663349467e+01 1.0000000000000000e+00 1.2924003816982810e-01 4.2357553344810048e+00 4.4589057244281696e+00 
470 2 1 1.0280017553052787e+00 -2.3400473837810249e+01 1.0000000000000000e+00 3.9704436474191298e+00 5.9030135262959549e+00 4.7351377026601726e+00 
532 2 1 1.0279364662986246e+00 -3.2592472522426164e+01 1.0000000000000000e+00 4.9906457226808358e+00 3.8464429210099174e+00 4.3194169184531477e+00 
745 2 1 1.0279231550984271e+00 -2.5745329043015381e+01 1.0000000000000000e+00 4.9929764154310270e+00 3.5657159546574002e+00 4.3628854846086957e+00 
447 2 1 1.0279395112250680e+00 -4.1778277319430572e+01 1.0000000000000000e+00 4.9882157631661519e+00 3.9109542451236159e+00 4.3093095053106136e+00 
719 2 1 1.0279422893614130e+00 -3.9583730960713879e+01 1.0000000000000000e+00 4.9891419412550855e+00 3.9388980186458600e+00 4.3045988405096827e+00 
466 2 1 1.0279526785597339e+00 -4.7871192466661434e+01 1.0000000000000000e+00 4.9912968820143551e+00 3.9944615020222627e+00 4.2951159599991708e+00 
298 2 1 1.0280527979344420e+00 -8.1818991683003659e+01 1.0000000000000000e+00 3.5089605599259923e+00 5.8459508577600108e+00 5.2179418985778607e+00 
658 2 1 1.0280850551960039e+00 -2.2572285057695623e+01 1.0000000000000000e+00 3.4967183172215117e+00 5.8374694317569826e+00 5.2414476420724201e+00 
310 2 1 1.0280625169807744e+00 -2.7987533313698648e+01 1.0000000000000000e+00 3.9980007074545627e+00 3.3843943514754118e+00 6.4653869446892891e+00 
346 2 1 1.0280625338801190e+00 -3.8019589847857311e+01 1.0000000000000000e+00 3.9984882197104277e+00 3.3844126527777361e+00 6.4657400142972676e+00 
492 2 1 1.0280625308326505e+00 -2.2838589352145533e+01 1.0000000000000000e+00 3.9983358788102796e+00 3.3845447093841452e+00 6.4657399743043591e+00 
587 2 1 1.0280625446002507e+00 -3.7039480318162532e+01 1.0000000000000000e+00 3.9988167515809101e+00 3.3843932064332427e+00 6.4659522027719847e+00 
420 2 1 1.0280625480835774e+00 -2.4062381497550795e+01 1.0000000000000000e+00 3.9989234551108797e+00 3.3843887433118951e+00 6.4660225475031634e+00 
695 2 1 1.0280625481728793e+00 -3.8626138761696858e+01 1.0000000000000000e+00 3.9989261483710536e+00 3.3843887336761647e+00 6.4660244051090263e+00 
318 2 1 1.0276046594746318e+00 -3.7271036089120223e+01 1.0000000000000000e+00 9.2552309240072217e-01 7.0268641673431889e+00 4.3651141677066176e+00 
234 2 1 1.0280126103880756e+00 -1.5893589523574795e+02 1.0000000000000000e+00 4.2675076881399654e-01 8.1057637544909866e+00 4.5010925066389351e+00 
651 2 1 1.0279197941844487e+00 -2.2897258437605142e+01 1.0000000000000000e+00 2.5771325605704738e+00 8.7842191313679923e+00 4.5473911360086179e+00 
598 2 1 1.0279286776731456e+00 -3.4185906516150816e+01 1.0000000000000000e+00 2.5702283878099843e+00 8.7795217467940727e+00 4.5414592957221318e+00 
768 2 1 1.0278809169613516e+00 -9.1942289093733152e+01 1.0000000000000000e+00 2.6273399755803823e+00 8.8178934734877199e+00 4.5912454430706369e+00 
175 2 1 1.0279142258931966e+00 -1.2623687246035984e+03 1.0000000000000000e+00 2.5696444072671523e+00 8.7803476479120039e+00 4.5414975157080075e+00 
414 2 1 1.0279496577225602e+00 -1.9342015204814281e+01 1.0000000000000000e+00 2.5207036206798596e+00 8.7508493671956469e+00 4.5017936622484722e+00 
275 2 1 1.0283053060035947e+00 -1.3800995423016377e+02 1.0000000000000000e+00 7.4407063993689193e-01 7.4883139698693073e+00 5.2395911552784566e+00 
268 2 1 1.0283044526767962e+00 -1.3907568442093390e+02 1.0000000000000000e+00 7.7811215668013045e-01 7.4801032613997771e+00 5.2651076245187367e+00 
421 2 1 1.0280144632390829e+00 -3.2148129052245537e+01 1.0000000000000000e+00 4.2578561719004432e-01 8.1133811227438102e+00 4.5011159506372360e+00 
527 2 1 1.0280144632125865e+00 -4.3830621538747486e+01 1.0000000000000000e+00 4.2578563146850834e-01 8.1133810181847874e+00 4.5011159475584339e+00 
729 2 1 1.0282017717004714e+00 -3.4689811435515480e+01 1.0000000000000000e+00 3.6062577185137945e-01 9.3729472163925198e+00 4.5516138705141493e+00 
418 2 1 1.0279328871186937e+00 -4.5131940471360309e+01 1.0000000000000000e+00 4.8475077334122334e+00 7.0705589091792636e+00 4.3895178676407305e+00 
669 2 1 1.0279789628891829e+00 -3.9812506414073226e+01 1.0000000000000000e+00 4.8412015228249619e+00 6.8694745966642259e+00 4.3781230567912610e+00 
490 2 1 1.0279443761775791e+00 -2.2240539148845183e+01 1.0000000000000000e+00 4.8000371301029974e+00 6.9204683032249044e+00 4.3832392651708725e+00 
394 2 1 1.0279857550150036e+00 -1.2359354403682065e+01 1.0000000000000000e+00 4.7666619830420904e+00 9.0474896680220311e+00 4.4657676149754399e+00 
446 2 1 1.0280245998637820e+00 -6.1016429177101635e+01 1.0000000000000000e+00 4.9109821323559242e+00 6.8121717191966669e+00 4.3691507859025069e+00 
159 2 1 1.0280733469139158e+00 -1.0980254368049918e+03 1.0000000000000000e+00 5.2676878413932693e+00 8.7920139002480902e+00 4.3516964316641937e+00 
612 2 1 1.0279757424813556e+00 -4.2798105796148832e+01 1.0000000000000000e+00 5.2991798661976413e+00 5.3447897612099613e+00 6.7603128317234615e+00 
185 2 1 1.0279767471719059e+00 -1.2985440974203873e+03 1.0000000000000000e+00 5.2974555949359221e+00 5.3534360202419071e+00 6.7614316257496050e+00 
513 2 1 1.0279745736181400e+00 -2.2138629886161500e+01 1.0000000000000000e+00 5.3066370540944163e+00 5.3252886397833334e+00 6.7565089380491914e+00 
548 2 1 1.0279745781339880e+00 -4.0771555283476964e+01 1.0000000000000000e+00 5.3065857840342971e+00 5.3254034786470053e+00 6.7565341452098888e+00 
392 2 1 1.0280106355798486e+00 1.3438363824906221e-01 1.0000000000000000e+00 3.7377628560740841e+00 7.6029276906048873e+00 6.8438126426198806e+00 
641 2 1 1.0280106355391645e+00 -4.2099903901893072e+01 1.0000000000000000e+00 3.7377630326173445e+00 7.6029281096785084e+00 6.8438126266646249e+00 
231 2 1 1.0280106355267702e+00 -1.3312186126191722e+02 1.0000000000000000e+00 3.7377630873663454e+00 7.6029282480051075e+00 6.8438126198760649e+00 
227 2 1 1.0282423531434639e+00 -1.4002978325268785e+02 1.0000000000000000e+00 5.6821547323752259e+00 8.0887707891319476e+00 6.7874778500113697e+00 
475 2 1 1.0280106354425096e+00 -2.4828880338159195e+01 1.0000000000000000e+00 3.7377634613612991e+00 7.6029291981526148e+00 6.8438125723514736e+00 
437 2 1 1.0280106355262180e+00 -1.4487463306317961e+01 1.0000000000000000e+00 3.7377630834377529e+00 7.6029281949648881e+00 6.8438126298506541e+00 
273 2 1 1.0280106355406018e+00 -1.2648757201650389e+02 1.0000000000000000e+00 3.7377630259513368e+00 7.6029280920317852e+00 6.8438126276683819e+00 
8 2 4 2.3317557049441873e+00 -1.1110886144579249e+01 1.0000000000000000e+00 0.0000000000000000e+00 1.1199999999999999e+01 5.0000000000000000e-01 
9 2 4 2.3317557049441873e+00 -2.3587939468335457e+00 1.0000000000000000e+00 0.0000000000000000e+00 1.2800000000000001e+01 5.0000000000000000e-01 
21 2 4 2.3317557049441873e+00 -3.4367804957063896e+02 1.0000000000000000e+00 2.0000000000000000e+00 1.1199999999999999e+01 5.0000000000000000e-01 
22 2 4 2.3317557049441873e+00 -3.2236021432212698e+02 1.0000000000000000e+00 2.0000000000000000e+00 1.2800000000000001e+01 5.0000000000000000e-01 
34 2 4 2.3317557049441873e+00 -1.0852457640790251e+03 1.0000000000000000e+00 4.0000000000000000e+00 1.1199999999999999e+01 5.0000000000000000e-01 
35 2 4 2.3317557049493871e+00 -1.0635215508925010e+03 1.0000000000000000e+00 4.0000000000000000e+00 1.2800000000000001e+01 5.0000000000000000e-01 
47 2 4 2.3317557049441873e+00 -1.2149243464904037e+03 1.0000000000000000e+00 6.0000000000000000e+00 1.1199999999999999e+01 5.0000000000000000e-01 
48 2 4 2.3317557049441873e+00 -1.2277037062561471e+03 1.0000000000000000e+00 6.0000000000000000e+00 1.2800000000000001e+01 5.0000000000000000e-01 
10 2 4 2.3317557049441882e+00 -1.1436422710846312e+01 1.0000000000000000e+00 0.0000000000000000e+00 1.4400000000000000e+01 5.0000000000000000e-01 
11 2 4 2.3317557049441935e+00 -2.5219052883139872e+00 1.0000000000000000e+00 0.0000000000000000e+00 1.6000000000000000e+01 5.0000000000000000e-01 
23 2 4 2.3317557049441882e+00 -3.4165796579799581e+02 1.0000000000000000e+00 2.0000000000000000e+00 1.4400000000000000e+01 5.0000000000000000e-01 
24 2 4 2.3317557049441873e+00 -3.2467989496224391e+02 1.0000000000000000e+00 2.0000000000000000e+00 1.6000000000000000e+01 5.0000000000000000e-01 
36 2 4 2.3317557049441882e+00 -1.0840167010741129e+03 1.0000000000000000e+00 4.0000000000000000e+00 1.4400000000000000e+01 5.0000000000000000e-01 
37 2 4 2.3317557049441873e+00 -1.0641666253856085e+03 1.0000000000000000e+00 4.0000000000000000e+00 1.6000000000000000e+01 5.0000000000000000e-01 
49 2 4 2.3317557049441882e+00 -1.2135346649337653e+03 1.0000000000000000e+00 6.0000000000000000e+00 1.4400000000000000e+01 5.0000000000000000e-01 
50 2 4 2.3317557049441873e+00 -1.2261691650473549e+03 1.0000000000000000e+00 6.0000000000000000e+00 1.6000000000000000e+01 5.0000000000000000e-01 
12 2 4 2.3317557049441877e+00 -1.0861000701066311e+01 1.0000000000000000e+00 0.0000000000000000e+00 1.7600000000000001e+01 5.0000000000000000e-01 
13 2 4 2.2938640322379173e+00 -3.4738263557506639e+00 1.0000000000000000e+00 0.0000000000000000e+00 1.9199999999999999e+01 5.0000000000000000e-01 
25 2 4 2.3317557049442605e+00 -3.3227883453286466e+02 1.0000000000000000e+00 2.0000000000000000e+00 1.7600000000000001e+01 5.0000000000000000e-01 
26 2 4 2.2938640322379173e+00 -1.9928931434950354e+02 1.0000000000000000e+00 2.0000000000000000e+00 1.9199999999999999e+01 5.0000000000000000e-01 
38 2 4 2.3317557049441877e+00 -1.0388757812992019e+03 1.0000000000000000e+00 4.0000000000000000e+00 1.7600000000000001e+01 5.0000000000000000e-01 
39 2 4 2.2938640322383659e+00 -5.9296953201087695e+02 1.0000000000000000e+00 4.0000000000000000e+00 1.9199999999999999e+01 5.0000000000000000e-01 
51 2 4 2.3317557049504396e+00 -1.1674267883248999e+03 1.0000000000000000e+00 6.0000000000000000e+00 1.7600000000000001e+01 5.0000000000000000e-01 
52 2 4 2.2938640322386044e+00 -6.7894713938715904e+02 1.0000000000000000e+00 6.0000000000000000e+00 1.9199999999999999e+01 5.0000000000000000e-01 
182 2 1 1.0280753553419832e+00 -1.3025403357706834e+03 1.0000000000000000e+00 2.3437528273797359e-01 1.1924093963466019e+01 4.4752396050331331e+00 
198 2 1 1.0280753826907130e+00 -1.3177964218252866e+03 1.0000000000000000e+00 2.3429450729945969e-01 1.1923866887628915e+01 4.4752393769802827e+00 
184 2 1 1.0280756675346756e+00 -1.2980023983001565e+03 1.0000000000000000e+00 2.3342985761796095e-01 1.1921615551796918e+01 4.4753226596467011e+00 
480 2 1 1.0284233341587063e+00 -5.0059050219869164e+01 1.0000000000000000e+00 2.5892601428188349e+00 1.2311440101920594e+01 4.5538656659871322e+00 
426 2 1 1.0280438036409287e+00 -2.0628328323885601e+01 1.0000000000000000e+00 2.5812613922093988e+00 1.1989004876765760e+01 4.7037677590344282e+00 
290 2 1 1.0282283743300056e+00 -1.3928385750273119e+02 1.0000000000000000e+00 1.8126092715231812e-01 1.0623835009069099e+01 4.5189759319366303e+00 
617 2 1 1.0282284494453200e+00 -5.3475319563342040e+01 1.0000000000000000e+00 1.8100043829897650e-01 1.0623273340174448e+01 4.5194457768415610e+00 
723 2 1 1.0280570952588683e+00 -2.1327735804361648e+01 1.0000000000000000e+00 2.5763661077200366e+00 1.1992565766541903e+01 4.6978273320917294e+00 
562 2 1 1.0280856104956966e+00 -3.7410271028752604e+01 1.0000000000000000e+00 2.5712736595740968e+00 1.1995876550771984e+01 4.6920265645051495e+00 
570 2 1 1.0277763354188567e+00 -4.6847099110598890e+01 1.0000000000000000e+00 9.5828396575234143e-01 1.0679317810601621e+01 6.0792359706467032e+00 
385 2 1 1.0277763576752783e+00 -2.2385965439938843e+01 1.0000000000000000e+00 9.5862927052318903e-01 1.0679376980264715e+01 6.0792535671945336e+00 
481 2 1 1.0277763576769965e+00 -5.1965649734078973e+01 1.0000000000000000e+00 9.5862929686737675e-01 1.0679376984835674e+01 6.0792535685407660e+00 
297 2 1 1.0277763576869412e+00 -7.6260764106038067e+01 1.0000000000000000e+00 9.5862945178925840e-01 1.0679377011678207e+01 6.0792535764525759e+00 
436 2 1 1.0277763576849044e+00 -1.9565147774224769e+01 1.0000000000000000e+00 9.5862941953606151e-01 1.0679377006094068e+01 6.0792535748059313e+00 
163 2 1 1.0280219648629412e+00 -1.2577971833547665e+03 1.0000000000000000e+00 5.9805702356231560e-01 1.3069100334027009e+01 4.5078479916106771e+00 
326 2 1 1.0280155428969155e+00 -3.4836514083245241e+01 1.0000000000000000e+00 6.1896988625239835e-01 1.3170596788694411e+01 4.4957575628494224e+00 
323 2 1 1.0277342864240866e+00 -2.8037526827669787e+01 1.0000000000000000e+00 4.8958797997812740e+00 1.2035043963311141e+01 4.3293432020624456e+00 
174 2 1 1.0279992041989987e+00 -1.2665037273260350e+03 1.0000000000000000e+00 4.9432718356257306e+00 1.2245139819910309e+01 4.3425446155918888e+00 
623 2 1 1.0279902599137596e+00 -3.1664648647874952e+01 1.0000000000000000e+00 4.9384756296969012e+00 1.2206776446075592e+01 4.3390501938813202e+00 
563 2 1 1.0279066100501006e+00 -4.4087730410047868e+01 1.0000000000000000e+00 4.9276763300358173e+00 1.2114060267608615e+01 4.3324646029753220e+00 
494 2 1 1.0280070990310732e+00 -4.9017140619887066e+01 1.0000000000000000e+00 4.9061952375695395e+00 1.0254400296116959e+01 5.8436407046616514e+00 
630 2 1 1.0280070988379488e+00 -2.6259492660049354e+01 1.0000000000000000e+00 4.9061929053696405e+00 1.0254400109642550e+01 5.8436403646391941e+00 
698 2 1 1.0280070986202385e+00 -7.2789055853023726e+01 1.0000000000000000e+00 4.9061902772210821e+00 1.0254399899415086e+01 5.8436399814112869e+00 
191 2 1 1.0280070985761560e+00 -1.2554943459700246e+03 1.0000000000000000e+00 4.9061897450948493e+00 1.0254399856826662e+01 5.8436399038042888e+00 
343 2 1 1.0280165941668984e+00 -2.4181801441721369e+01 1.0000000000000000e+00 5.3712573411861673e+00 1.0390909108355073e+01 4.3759427508020412e+00 
542 2 1 1.0280299939895365e+00 -3.8357677174206771e+01 1.0000000000000000e+00 3.2114256656580992e-01 1.5329564103109142e+01 4.4368686866699925e+00 
375 2 1 1.0280292960070969e+00 -7.5243032982673498e+01 1.0000000000000000e+00 3.2145311032406371e-01 1.5330496438705641e+01 4.4366071664683941e+00 
247 2 1 1.0280293586409013e+00 -1.3783138954378694e+02 1.0000000000000000e+00 3.2096249794550813e-01 1.5327058800060049e+01 4.4361299451537253e+00 
735 2 1 1.0280287246788276e+00 -2.1128208512557439e+01 1.0000000000000000e+00 3.1931321772689197e-01 1.5313457707147419e+01 4.4338435994756855e+00 
415 2 1 1.0280279494836284e+00 -1.8055867619032529e+01 1.0000000000000000e+00 3.2029972695723219e-01 1.5321200715145185e+01 4.4349861778132311e+00 
235 2 1 1.0281589470810644e+00 -1.2840209721143995e+02 1.0000000000000000e+00 9.6314113156896852e-01 1.6116351203628511e+01 4.3795497970959048e+00 
150 2 1 1.0281248557584199e+00 -1.2760229168401759e+03 1.0000000000000000e+00 1.2752757888087205e+00 1.6285460285123641e+01 4.4399285498053249e+00 
629 2 1 1.0279481842481795e+00 -3.3408926365150180e+01 1.0000000000000000e+00 1.7377602542064221e+00 1.4108207624991474e+01 6.2803995693328885e+00 
491 2 1 1.0279481842476619e+00 -2.3703194147809121e+01 1.0000000000000000e+00 1.7377602590550110e+00 1.4108207623083519e+01 6.2803995691510393e+00 
168 2 1 1.0279481842475964e+00 -1.2782987388997201e+03 1.0000000000000000e+00 1.7377602601196496e+00 1.4108207622670987e+01 6.2803995691104371e+00 
734 2 1 1.0279481842472307e+00 -1.8530144626134391e+01 1.0000000000000000e+00 1.7377602627409077e+00 1.4108207621637527e+01 6.2803995690125261e+00 
169 2 1 1.0279481842133460e+00 -1.2923594720215976e+03 1.0000000000000000e+00 1.7377605761247354e+00 1.4108207500134533e+01 6.2803995571061506e+00 
600 2 1 1.0279481841541980e+00 -4.5052355375203000e+01 1.0000000000000000e+00 1.7377611233898898e+00 1.4108207288189920e+01 6.2803995362935918e+00 
583 2 1 1.0279640810883932e+00 -2.5616032127952266e+01 1.0000000000000000e+00 2.9685178077030581e+00 1.6153734024673408e+01 4.7820276348401611e+00 
233 2 1 1.0278270990943981e+00 -1.3996775657204492e+02 1.0000000000000000e+00 3.2566631381153521e+00 1.3851729946535107e+01 4.4636960891098569e+00 
618 2 1 1.0278628279250592e+00 -4.1534700268426192e+01 1.0000000000000000e+00 3.3427624116457264e+00 1.3792828270919577e+01 4.4579248500026125e+00 
176 2 1 1.0281192482528063e+00 -1.2472968822487530e+03 1.0000000000000000e+00 4.4997399917837573e+00 1.5161502869840449e+01 4.4074162321688890e+00 
328 2 1 1.0281379719453632e+00 -2.9113514282347108e+01 1.0000000000000000e+00 4.5046886205620851e+00 1.5162024723783599e+01 4.4068127774438333e+00 
530 2 1 1.0280940066648236e+00 -5.2183157941378916e+01 1.0000000000000000e+00 4.4933200526568307e+00 1.5160777276573782e+01 4.4081973568103345e+00 
621 2 1 1.0279842224197848e+00 -5.2996982024357742e+01 1.0000000000000000e+00 4.4671614304292149e+00 1.5157118114483167e+01 4.4113631399727895e+00 
306 2 1 1.0280676837010299e+00 -4.5898485791142200e+01 1.0000000000000000e+00 4.7310881917233685e+00 1.4131135313731271e+01 4.4243229854955688e+00 
766 2 1 1.0281820496806828e+00 -5.9634982149759530e+01 1.0000000000000000e+00 6.2287850534064226e+00 1.4020519402498079e+01 6.5816122570427797e+00 
760 2 1 1.0280299724396309e+00 -3.4131719339145725e+01 1.0000000000000000e+00 2.8440525098338005e+00 1.6752820634875647e+01 4.3715540141648912e+00 
390 2 1 1.0278231532530504e+00 -3.4075537185869834e+01 1.0000000000000000e+00 2.3791671049444005e+00 1.6947774808688123e+01 4.4270740747560771e+00 
271 2 1 1.0277812294945525e+00 -1.2944870531798855e+02 1.0000000000000000e+00 2.3758728592920955e+00 1.6892909437591015e+01 4.4173519978596483e+00 
555 2 1 1.0280621664537248e+00 -4.0160528097336794e+01 1.0000000000000000e+00 3.1908449657180604e+00 1.8672065732224926e+01 4.3808664484784474e+00 
704 2 1 1.0280639761155745e+00 -6.6197310085844720e+01 1.0000000000000000e+00 3.1911235574411521e+00 1.8672023238445686e+01 4.3793042033660816e+00 
178 2 1 1.0280635769126061e+00 -1.2560517809351359e+03 1.0000000000000000e+00 3.1905587266441735e+00 1.8671622899396539e+01 4.3792619243172739e+00 
627 2 1 1.0280631441348280e+00 -6.5570688005848695e+01 1.0000000000000000e+00 3.1906651508521517e+00 1.8671777823724053e+01 4.3797882529425340e+00 
383 2 1 1.0280617408660022e+00 -4.0435738011281742e+01 1.0000000000000000e+00 3.1898561959831704e+00 1.8671308961200381e+01 4.3804129076708538e+00 
705 2 1 1.0280617685219844e+00 -5.0322365814086325e+01 1.0000000000000000e+00 3.1899314877259473e+00 1.8671321107760967e+01 4.3801309453310617e+00 
332 2 1 1.0278816748714412e+00 -4.9815801572002542e+01 1.0000000000000000e+00 5.2093410529495827e+00 1.9888811478037194e+01 4.3597304761362450e+00 
676 2 1 1.0278808805835524e+00 -4.1000311044299465e+01 1.0000000000000000e+00 5.2008465260162975e+00 1.9886400527992841e+01 4.3614557681197335e+00 
516 2 1 1.0280057343012383e+00 -4.3034323067918521e+01 1.0000000000000000e+00 6.2456315097965547e+00 1.9864724120563263e+01 4.4410224815789103e+00 
398 2 1 1.0280054554693561e+00 -2.4328587521232123e+01 1.0000000000000000e+00 6.2442859985397003e+00 1.9864900699071406e+01 4.4350369734289741e+00 
473 2 1 1.0280043601415716e+00 -4.5778581091743092e+01 1.0000000000000000e+00 6.2441278798449549e+00 1.9864902144051175e+01 4.4340121822708731e+00 
596 2 1 1.0278908260036983e+00 -5.4109168854978691e+01 1.0000000000000000e+00 5.3123066077331886e+00 1.9918933358565464e+01 4.3727655558078071e+00 
680 2 1 1.0280034613630087e+00 -4.0416434833396039e+01 1.0000000000000000e+00 6.2864130818164989e+00 1.9849976036541335e+01 4.4345495891252762e+00 
622 2 1 1.0279922821100511e+00 -5.4386370160555046e+01 1.0000000000000000e+00 5.3695471486893060e+00 1.7069292397624025e+01 6.3651366238189278e+00 
171 2 1 1.0279922821100418e+00 -1.2931775779946249e+03 1.0000000000000000e+00 5.3695471486895965e+00 1.7069292397624064e+01 6.3651366238189588e+00 
584 2 1 1.0279922821100511e+00 -3.0248543549173618e+01 1.0000000000000000e+00 5.3695471486887438e+00 1.7069292397623915e+01 6.3651366238190432e+00 
675 2 1 1.0279922821100602e+00 -2.3392910615267837e+01 1.0000000000000000e+00 5.3695471486894455e+00 1.7069292397623919e+01 6.3651366238190805e+00 
438 2 1 1.0281129712024544e+00 -1.7629123492227659e+01 1.0000000000000000e+00 6.1582617305152088e+00 1.8193878001677042e+01 4.4472453497259323e+00 
219 2 1 1.0280549722299865e+00 -1.5674488526827810e+02 1.0000000000000000e+00 6.2515167203886817e+00 1.8207297447776352e+01 4.4432885917386127e+00 
476 2 1 1.0280357864268899e+00 -2.3974823986417903e+01 1.0000000000000000e+00 4.2645290107627227e+00 1.1974508807164492e+01 7.5561454467693840e+00 
186 2 1 1.0280357864268903e+00 -1.1187993811982617e+03 1.0000000000000000e+00 4.2645290107619669e+00 1.1974508807163820e+01 7.5561454467692668e+00 
471 2 1 1.0280357864268901e+00 -1.7559697086861252e+01 1.0000000000000000e+00 4.2645290107624110e+00 1.1974508807164245e+01 7.5561454467693272e+00 
194 2 1 1.0280357864268905e+00 -1.2373367288515490e+03 1.0000000000000000e+00 4.2645290107633382e+00 1.1974508807164963e+01 7.5561454467695013e+00 
348 2 1 1.0280357864268912e+00 -3.4897904764230795e+01 1.0000000000000000e+00 4.2645290107632956e+00 1.1974508807165057e+01 7.5561454467694480e+00 
399 2 1 1.0280357864268908e+00 -1.2362772986521557e+01 1.0000000000000000e+00 4.2645290107646527e+00 1.1974508807166025e+01 7.5561454467697331e+00 
221 2 1 1.0280357864268956e+00 -1.4232696987070625e+02 1.0000000000000000e+00 4.2645290107698122e+00 1.1974508807170617e+01 7.5561454467704898e+00 
293 2 1 1.0282040495673328e+00 -8.2593673018907054e+01 1.0000000000000000e+00 6.3733510792472883e+00 1.2825177977520113e+01 6.7270942568467698e+00 
643 2 1 1.0279793179416268e+00 -2.7997061522320433e+01 1.0000000000000000e+00 4.9430611125458528e+00 1.5665076883653875e+01 7.0185583800713172e+00 
663 2 1 1.0279793179416208e+00 -3.5932212878101147e+01 1.0000000000000000e+00 4.9430611125486523e+00 1.5665076883650800e+01 7.0185583800714895e+00 
199 2 1 1.0279793179416279e+00 -1.2923580159407556e+03 1.0000000000000000e+00 4.9430611125576078e+00 1.5665076883645783e+01 7.0185583800736255e+00 
146 2 1 1.0279793179416228e+00 -1.2632365225234944e+03 1.0000000000000000e+00 4.9430611125514687e+00 1.5665076883650217e+01 7.0185583800725082e+00 