LAMMPS data file via write_data, version 30 Jul 2016, timestep = 100400000

580 atoms
8 atom types

0.0000000000000000e+00 2.0000000000000000e+01 xlo xhi
0.0000000000000000e+00 2.0000000000000000e+01 ylo yhi
0.0000000000000000e+00 2.0000000000000000e+01 zlo zhi

Masses

1 3.896
2 5.36
3 20.064
4 8.378
5 8.378
6 8.378
7 8.378
8 8.378

Atoms # meso-molecular

1 2 4 2.2938640322379165e+00 -8.3946305501326695e+00 1.0000000000000000e+00 0.0000000000000000e+00 0.0000000000000000e+00 5.0000000000000000e-01 
2 2 4 2.3317557049441873e+00 -5.9498254965815027e+00 1.0000000000000000e+00 0.0000000000000000e+00 1.6000000000000001e+00 5.0000000000000000e-01 
3 2 4 2.3317557049441877e+00 -7.5375734198733086e+00 1.0000000000000000e+00 0.0000000000000000e+00 3.2000000000000002e+00 5.0000000000000000e-01 
14 2 4 2.2938640322379165e+00 -2.0501900813582114e+02 1.0000000000000000e+00 2.0000000000000000e+00 0.0000000000000000e+00 5.0000000000000000e-01 
15 2 4 2.3317557049441873e+00 -3.2325398687463428e+02 1.0000000000000000e+00 2.0000000000000000e+00 1.6000000000000001e+00 5.0000000000000000e-01 
16 2 4 2.3317557049441877e+00 -3.2448088632195794e+02 1.0000000000000000e+00 2.0000000000000000e+00 3.2000000000000002e+00 5.0000000000000000e-01 
27 2 4 2.2938640322379165e+00 -4.9559746557890264e+02 1.0000000000000000e+00 4.0000000000000000e+00 0.0000000000000000e+00 5.0000000000000000e-01 
28 2 4 2.3317557049441873e+00 -9.9596278659472534e+02 1.0000000000000000e+00 4.0000000000000000e+00 1.6000000000000001e+00 5.0000000000000000e-01 
29 2 4 2.3317557049441877e+00 -1.0629183961378051e+03 1.0000000000000000e+00 4.0000000000000000e+00 3.2000000000000002e+00 5.0000000000000000e-01 
40 2 4 2.2938640322379165e+00 -5.1598299648867578e+02 1.0000000000000000e+00 6.0000000000000000e+00 0.0000000000000000e+00 5.0000000000000000e-01 
41 2 4 2.3317557049441873e+00 -1.1342303996192552e+03 1.0000000000000000e+00 6.0000000000000000e+00 1.6000000000000001e+00 5.0000000000000000e-01 
42 2 4 2.3317557049441877e+00 -1.2096869225661483e+03 1.0000000000000000e+00 6.0000000000000000e+00 3.2000000000000002e+00 5.0000000000000000e-01 
4 2 4 2.3317557051187494e+00 -8.1830638075535980e+00 1.0000000000000000e+00 0.0000000000000000e+00 4.7999999999999998e+00 5.0000000000000000e-01 
5 2 4 2.3317557049441877e+00 -5.3721490672815548e+00 1.0000000000000000e+00 0.0000000000000000e+00 6.4000000000000004e+00 5.0000000000000000e-01 
17 2 4 2.3317557049441877e+00 -3.3820181544582766e+02 1.0000000000000000e+00 2.0000000000000000e+00 4.7999999999999998e+00 5.0000000000000000e-01 
18 2 4 2.3317557049441877e+00 -3.2170054566848768e+02 1.0000000000000000e+00 2.0000000000000000e+00 6.4000000000000004e+00 5.0000000000000000e-01 
30 2 4 2.3317557049441877e+00 -1.0752260836618223e+03 1.0000000000000000e+00 4.0000000000000000e+00 4.7999999999999998e+00 5.0000000000000000e-01 
31 2 4 2.3317557049441877e+00 -1.0621107259740538e+03 1.0000000000000000e+00 4.0000000000000000e+00 6.4000000000000004e+00 5.0000000000000000e-01 
43 2 4 2.3317557049441877e+00 -1.2148196108446139e+03 1.0000000000000000e+00 6.0000000000000000e+00 4.7999999999999998e+00 5.0000000000000000e-01 
44 2 4 2.3317557049441877e+00 -1.2173202281004401e+03 1.0000000000000000e+00 6.0000000000000000e+00 6.4000000000000004e+00 5.0000000000000000e-01 
6 2 4 2.3317557049441882e+00 -9.9641097496371316e+00 1.0000000000000000e+00 0.0000000000000000e+00 8.0000000000000000e+00 5.0000000000000000e-01 
7 2 4 2.3317557049441882e+00 -3.4252294105899170e+00 1.0000000000000000e+00 0.0000000000000000e+00 9.5999999999999996e+00 5.0000000000000000e-01 
19 2 4 2.3317557049441882e+00 -3.4226830371864565e+02 1.0000000000000000e+00 2.0000000000000000e+00 8.0000000000000000e+00 5.0000000000000000e-01 
20 2 4 2.3317557049441882e+00 -3.2094278429372935e+02 1.0000000000000000e+00 2.0000000000000000e+00 9.5999999999999996e+00 5.0000000000000000e-01 
32 2 4 2.3317557049441882e+00 -1.0815522569951077e+03 1.0000000000000000e+00 4.0000000000000000e+00 8.0000000000000000e+00 5.0000000000000000e-01 
33 2 4 2.3317557049441882e+00 -1.0622757944738739e+03 1.0000000000000000e+00 4.0000000000000000e+00 9.5999999999999996e+00 5.0000000000000000e-01 
45 2 4 2.3317557049441882e+00 -1.2148051795007345e+03 1.0000000000000000e+00 6.0000000000000000e+00 8.0000000000000000e+00 5.0000000000000000e-01 
46 2 4 2.3317557049441882e+00 -1.2236749204188291e+03 1.0000000000000000e+00 6.0000000000000000e+00 9.5999999999999996e+00 5.0000000000000000e-01 
593 2 1 9.4752323564967234e-01 -8.6597019791749432e+01 1.0000000000000000e+00 3.8616252296892943e+00 2.3069081147776727e+00 5.5679746232974816e+00 
425 2 1 9.3392537328898861e-01 -4.8212961267764271e+01 1.0000000000000000e+00 4.2005586260907135e+00 1.5866593600530488e+00 5.1032201574022267e+00 
532 2 1 9.4886623884555132e-01 -3.4548640787811344e+01 1.0000000000000000e+00 4.7851540585284678e+00 1.9499798349704365e+00 5.0734811588724193e+00 
241 2 1 8.5037280122268155e-01 -1.3517407974710000e+02 1.0000000000000000e+00 3.9567783969225583e+00 1.1600552848810042e+00 5.8612026015952772e+00 
447 2 1 9.3430791839150928e-01 -4.1922942038761910e+01 1.0000000000000000e+00 3.9706272497536843e+00 1.4578825114174729e+00 5.4236918090366553e+00 
719 2 1 9.1883284654431185e-01 -3.8611159237119395e+01 1.0000000000000000e+00 3.8072889470533537e+00 1.5218217493868365e+00 5.4747421342143410e+00 
466 2 1 9.2750925602381007e-01 -4.6372736832826526e+01 1.0000000000000000e+00 3.7240548628918879e+00 1.6959757228919241e+00 5.6310193440508147e+00 
337 2 1 1.0119926696543982e+00 -2.4220257038416431e+01 1.0000000000000000e+00 6.5117671533002950e+00 1.8337294683971204e+00 5.3430787421579282e+00 
284 2 1 1.0213704364001788e+00 -1.1978815490419584e+02 1.0000000000000000e+00 6.5104838477478220e+00 1.7966703489815399e+00 5.3614136505122536e+00 
339 2 1 1.0237168082543182e+00 -1.9013398685385930e+01 1.0000000000000000e+00 6.5064803472214843e+00 1.7765718503489327e+00 5.3643232572777366e+00 
635 2 1 1.0242937854592988e+00 -3.9838233157763682e+01 1.0000000000000000e+00 2.2987238389545264e-01 4.0995361334417106e+00 4.4497956240489414e+00 
307 2 1 1.0242937478795267e+00 -4.4603592700664088e+01 1.0000000000000000e+00 2.2987253394870688e-01 4.0995367426938785e+00 4.4497943636328801e+00 
656 2 1 1.0242939707273024e+00 -4.6961906909900804e+01 1.0000000000000000e+00 2.2987164388447207e-01 4.0995331287809309e+00 4.4498018396692389e+00 
495 2 1 1.0242934838351827e+00 -4.8927113526057553e+01 1.0000000000000000e+00 2.2987358730945684e-01 4.0995410197023343e+00 4.4497855138611069e+00 
505 2 1 1.0242938030129141e+00 -2.7310339955964128e+01 1.0000000000000000e+00 2.2987231380756917e-01 4.0995358488638267e+00 4.4497962127854755e+00 
384 2 1 1.0294187121928160e+00 -2.9160895370252973e+01 1.0000000000000000e+00 8.5353722374673968e-01 4.2199379837533701e+00 5.3182161704796052e+00 
574 2 1 1.0279417808267208e+00 -2.0042528501520650e+01 1.0000000000000000e+00 1.5637487108473127e+00 5.3103999513671409e+00 5.5821819430123796e+00 
497 2 1 1.0283473519026753e+00 -2.7459332965504792e+01 1.0000000000000000e+00 1.6084305260810317e+00 5.2749809993515377e+00 5.5549578307069698e+00 
157 2 1 1.0285155211085386e+00 -1.2828480164405862e+03 1.0000000000000000e+00 1.6280424684646413e+00 5.2542352582904419e+00 5.5394471603695523e+00 
302 2 1 1.0111446383312983e+00 -4.1430541646044922e+01 1.0000000000000000e+00 7.6916830080836085e-01 6.2902975550263198e+00 4.4899048153684689e+00 
678 2 1 1.0243831590687267e+00 -3.0623056904352723e+01 1.0000000000000000e+00 2.3216531937546020e-01 4.1204836193028562e+00 4.4227727731335218e+00 
298 2 1 1.0178801545586480e+00 -8.2452498900539425e+01 1.0000000000000000e+00 3.0711414524721090e+00 5.8388159315586190e+00 5.9276867490718752e+00 
658 2 1 1.0189206662080741e+00 -2.3216738307500933e+01 1.0000000000000000e+00 3.0966837423617379e+00 5.8345804642742305e+00 5.9356804112175787e+00 
470 2 1 1.0273119135114019e+00 -2.3839113728898909e+01 1.0000000000000000e+00 2.7277066151822131e+00 6.0332129341789029e+00 5.6957600158800279e+00 
256 2 1 9.2047184612626021e-01 -1.4747873370358849e+02 1.0000000000000000e+00 4.0724345704882783e+00 3.5339606499524301e+00 6.2476492468957261e+00 
318 2 1 1.0233173331083225e+00 -3.7346430802798643e+01 1.0000000000000000e+00 7.4873425094222357e-01 7.0614596774773428e+00 4.4562798927188867e+00 
234 2 1 1.0364984754634008e+00 -1.5905116814329065e+02 1.0000000000000000e+00 2.8316595871742639e-01 8.0515597594842205e+00 4.5207459285225013e+00 
651 2 1 1.0196491096564733e+00 -2.2901149252002050e+01 1.0000000000000000e+00 2.3369579137248242e+00 8.9902753503159047e+00 4.7171237613519059e+00 
598 2 1 1.0201007760209158e+00 -3.4194847342598536e+01 1.0000000000000000e+00 2.3209626141189887e+00 8.9731329506784405e+00 4.6996667250856046e+00 
768 2 1 1.0241811752977930e+00 -9.1927521277776108e+01 1.0000000000000000e+00 2.4545447514948440e+00 9.0695547502847091e+00 4.9017270508914441e+00 
175 2 1 1.0194216656662112e+00 -1.2623734327984191e+03 1.0000000000000000e+00 2.3210243543280216e+00 8.9815389750892951e+00 4.6990485652944916e+00 
414 2 1 1.0164320176154846e+00 -1.9352971065461276e+01 1.0000000000000000e+00 2.2275944110390400e+00 8.8591934118106082e+00 4.5643105379462359e+00 
275 2 1 1.0303678143774366e+00 -1.3809154033334434e+02 1.0000000000000000e+00 4.3973498722179005e-01 7.4810743012402838e+00 4.8614259301041400e+00 
268 2 1 1.0303496677196555e+00 -1.3915701792337194e+02 1.0000000000000000e+00 4.5548397890102954e-01 7.4665144917296766e+00 4.8876940866922531e+00 
421 2 1 1.0366140620576769e+00 -3.2263218223610025e+01 1.0000000000000000e+00 2.8237944914917262e-01 8.0568689436341376e+00 4.5211989683434100e+00 
527 2 1 1.0366140604753964e+00 -4.3945710712899981e+01 1.0000000000000000e+00 2.8237945997631508e-01 8.0568688708238128e+00 4.5211989617734893e+00 
729 2 1 1.0196837280060427e+00 -3.4781389155354326e+01 1.0000000000000000e+00 1.9576737349131032e-01 9.3954860284274169e+00 4.5219911075818588e+00 
571 2 1 1.0321888829586059e+00 -3.0707218880947210e+01 1.0000000000000000e+00 4.9620766321893210e+00 7.3312144543124500e+00 4.9662000059950380e+00 
418 2 1 1.0368436566649193e+00 -4.5346118707559519e+01 1.0000000000000000e+00 4.4039172356066461e+00 7.2209888096443340e+00 4.9013206349171536e+00 
669 2 1 1.0310627950103486e+00 -4.0049247678492236e+01 1.0000000000000000e+00 4.4072539788696670e+00 7.0522342897578643e+00 4.9510527808383129e+00 
490 2 1 1.0289633757925871e+00 -2.2472195257995164e+01 1.0000000000000000e+00 4.3236782738988362e+00 7.0693424808858083e+00 4.9237144600508378e+00 
394 2 1 1.0182999485425261e+00 -1.2420051769508831e+01 1.0000000000000000e+00 4.7540491947649111e+00 9.4105701475761681e+00 4.6090851369484644e+00 
446 2 1 1.0348931814295119e+00 -6.1271307756705369e+01 1.0000000000000000e+00 4.5743990805930350e+00 7.0536296264594096e+00 4.9920792524751887e+00 
159 2 1 1.0257227035104486e+00 -1.0980779323289341e+03 1.0000000000000000e+00 4.8128821830542474e+00 9.3652486777796451e+00 4.6262716160753063e+00 
713 2 1 7.4459232658793451e-01 -1.8771324714421208e+01 1.0000000000000000e+00 6.1700206628647472e+00 1.3038529093351108e+00 7.3576579959053561e+00 
310 2 1 1.0967498314957558e+00 -2.8637049617970462e+01 1.0000000000000000e+00 3.9470442935914241e+00 3.7827611586806520e+00 7.8108599740595022e+00 
346 2 1 1.0967989634322790e+00 -3.8668299704503802e+01 1.0000000000000000e+00 3.9472217060200001e+00 3.7830142854594313e+00 7.8109731812517298e+00 
492 2 1 1.0968168640309068e+00 -2.3487184453510864e+01 1.0000000000000000e+00 3.9472787992022496e+00 3.7829435718851188e+00 7.8108331007679679e+00 
587 2 1 1.0968242976231699e+00 -3.7687732701781108e+01 1.0000000000000000e+00 3.9473152132678742e+00 3.7831827180288453e+00 7.8110739503739044e+00 
420 2 1 1.0968329544268711e+00 -2.4710480687056727e+01 1.0000000000000000e+00 3.9473470395083119e+00 3.7832374931244628e+00 7.8111052774351997e+00 
695 2 1 1.0968331976233960e+00 -3.9274233812656313e+01 1.0000000000000000e+00 3.9473479265737068e+00 3.7832388814530700e+00 7.8111059900145170e+00 
612 2 1 1.0043350814491121e+00 -4.3502166531955119e+01 1.0000000000000000e+00 5.2431391022517193e+00 5.0575309190713575e+00 7.9460731195185383e+00 
185 2 1 1.0046137589261139e+00 -1.2992529710267183e+03 1.0000000000000000e+00 5.2468871224023070e+00 5.0511519695964155e+00 7.9419801085987096e+00 
513 2 1 1.0036598318469510e+00 -2.2830254601737419e+01 1.0000000000000000e+00 5.2337016510712147e+00 5.0737966834116319e+00 7.9554474423831216e+00 
548 2 1 1.0036639218365406e+00 -4.1463257026906795e+01 1.0000000000000000e+00 5.2337601061279404e+00 5.0736970426274377e+00 7.9553923878871027e+00 
465 2 1 1.0331824031521555e+00 -3.7679933417213036e+01 1.0000000000000000e+00 6.3358118379637380e+00 6.4329647194865025e+00 7.0275334399414815e+00 
322 2 1 1.0429891169928958e+00 -2.8513906437363097e+01 1.0000000000000000e+00 6.3734120172539015e+00 6.4871914244413391e+00 7.0009122606007868e+00 
340 2 1 1.0294321218084124e+00 -3.3399589763203210e+01 1.0000000000000000e+00 6.3793134891463668e+00 6.4598331105196118e+00 7.0628222279322239e+00 
273 2 1 1.0401152688799820e+00 -1.2650684648890523e+02 1.0000000000000000e+00 3.5273261119343302e+00 7.5785967556257132e+00 7.2416100643495405e+00 
392 2 1 1.0401152546724197e+00 1.1510910547354203e-01 1.0000000000000000e+00 3.5273264194564340e+00 7.5785970947604220e+00 7.2416101349863631e+00 
227 2 1 1.0744494617207947e+00 -1.4017676434830196e+02 1.0000000000000000e+00 5.7730949246166210e+00 7.9832865872759360e+00 7.0894673900584131e+00 
437 2 1 1.0401152719436890e+00 -1.4506737767105768e+01 1.0000000000000000e+00 3.5273260230230927e+00 7.5785966670932288e+00 7.2416100440474303e+00 
231 2 1 1.0401152745910556e+00 -1.3314113570958972e+02 1.0000000000000000e+00 3.5273259957636691e+00 7.5785966243744278e+00 7.2416100376265380e+00 
475 2 1 1.0401153093879423e+00 -2.4848154635122167e+01 1.0000000000000000e+00 3.5273252881704780e+00 7.5785958248404333e+00 7.2416098748508979e+00 
641 2 1 1.0401152695377389e+00 -4.2119178371417746e+01 1.0000000000000000e+00 3.5273260989955868e+00 7.5785967408081625e+00 7.2416100613712233e+00 
8 2 4 2.3317557049636837e+00 -1.1110875853194479e+01 1.0000000000000000e+00 0.0000000000000000e+00 1.1199999999999999e+01 5.0000000000000000e-01 
9 2 4 2.3317557049441873e+00 -2.3587939468335457e+00 1.0000000000000000e+00 0.0000000000000000e+00 1.2800000000000001e+01 5.0000000000000000e-01 
21 2 4 2.3317557049441873e+00 -3.4367804957063896e+02 1.0000000000000000e+00 2.0000000000000000e+00 1.1199999999999999e+01 5.0000000000000000e-01 
22 2 4 2.3317557049441873e+00 -3.2236021432212698e+02 1.0000000000000000e+00 2.0000000000000000e+00 1.2800000000000001e+01 5.0000000000000000e-01 
34 2 4 2.3317557049441873e+00 -1.0852457619340196e+03 1.0000000000000000e+00 4.0000000000000000e+00 1.1199999999999999e+01 5.0000000000000000e-01 
35 2 4 2.3317557049441873e+00 -1.0635215539846095e+03 1.0000000000000000e+00 4.0000000000000000e+00 1.2800000000000001e+01 5.0000000000000000e-01 
47 2 4 2.3317557049441873e+00 -1.2149243127253451e+03 1.0000000000000000e+00 6.0000000000000000e+00 1.1199999999999999e+01 5.0000000000000000e-01 
48 2 4 2.3317557049441873e+00 -1.2277037065701793e+03 1.0000000000000000e+00 6.0000000000000000e+00 1.2800000000000001e+01 5.0000000000000000e-01 
10 2 4 2.3317557049441882e+00 -1.1436422710846312e+01 1.0000000000000000e+00 0.0000000000000000e+00 1.4400000000000000e+01 5.0000000000000000e-01 
11 2 4 2.3317557050085949e+00 -2.5218679311813696e+00 1.0000000000000000e+00 0.0000000000000000e+00 1.6000000000000000e+01 5.0000000000000000e-01 
23 2 4 2.3317557049441882e+00 -3.4165796579799581e+02 1.0000000000000000e+00 2.0000000000000000e+00 1.4400000000000000e+01 5.0000000000000000e-01 
24 2 4 2.3317557049441873e+00 -3.2467989496306711e+02 1.0000000000000000e+00 2.0000000000000000e+00 1.6000000000000000e+01 5.0000000000000000e-01 
36 2 4 2.3317557117217675e+00 -1.0840159430658978e+03 1.0000000000000000e+00 4.0000000000000000e+00 1.4400000000000000e+01 5.0000000000000000e-01 
37 2 4 2.3317557049441873e+00 -1.0641666253856085e+03 1.0000000000000000e+00 4.0000000000000000e+00 1.6000000000000000e+01 5.0000000000000000e-01 
49 2 4 2.3317557049441882e+00 -1.2135346649337653e+03 1.0000000000000000e+00 6.0000000000000000e+00 1.4400000000000000e+01 5.0000000000000000e-01 
50 2 4 2.3317557049441873e+00 -1.2261691646869508e+03 1.0000000000000000e+00 6.0000000000000000e+00 1.6000000000000000e+01 5.0000000000000000e-01 
12 2 4 2.3317557049441877e+00 -1.0861000701066311e+01 1.0000000000000000e+00 0.0000000000000000e+00 1.7600000000000001e+01 5.0000000000000000e-01 
13 2 4 2.2938640322379173e+00 -3.4738263557506639e+00 1.0000000000000000e+00 0.0000000000000000e+00 1.9199999999999999e+01 5.0000000000000000e-01 
25 2 4 2.3317557101436273e+00 -3.3227821277897738e+02 1.0000000000000000e+00 2.0000000000000000e+00 1.7600000000000001e+01 5.0000000000000000e-01 
26 2 4 2.2938640322379173e+00 -1.9928931434950354e+02 1.0000000000000000e+00 2.0000000000000000e+00 1.9199999999999999e+01 5.0000000000000000e-01 
38 2 4 2.3317557049457718e+00 -1.0388757803533924e+03 1.0000000000000000e+00 4.0000000000000000e+00 1.7600000000000001e+01 5.0000000000000000e-01 
39 2 4 2.2938640322379173e+00 -5.9296953271357097e+02 1.0000000000000000e+00 4.0000000000000000e+00 1.9199999999999999e+01 5.0000000000000000e-01 
51 2 4 2.3317557077004918e+00 -1.1674263621665752e+03 1.0000000000000000e+00 6.0000000000000000e+00 1.7600000000000001e+01 5.0000000000000000e-01 
52 2 4 2.2938640322379173e+00 -6.7894714028236535e+02 1.0000000000000000e+00 6.0000000000000000e+00 1.9199999999999999e+01 5.0000000000000000e-01 
182 2 1 1.0369250997072679e+00 -1.3025322568801412e+03 1.0000000000000000e+00 2.5538407369489369e-01 1.1940700702794057e+01 4.4175459550037113e+00 
198 2 1 1.0369258695429742e+00 -1.3177883447135957e+03 1.0000000000000000e+00 2.5532527358827656e-01 1.1940573402621798e+01 4.4175431797944329e+00 
184 2 1 1.0369337033329082e+00 -1.2979943415768109e+03 1.0000000000000000e+00 2.5478233411319423e-01 1.1939301124631935e+01 4.4174796917659762e+00 
480 2 1 1.0263351464976329e+00 -5.0036899320845258e+01 1.0000000000000000e+00 2.5156368267762788e+00 1.2526039299929938e+01 4.7091429775764020e+00 
426 2 1 1.0261550051934454e+00 -2.0598432770109046e+01 1.0000000000000000e+00 2.6838208853700518e+00 1.1981762103940241e+01 5.2698854198262577e+00 
290 2 1 1.0310852656676119e+00 -1.3929905826075554e+02 1.0000000000000000e+00 5.2866415613354950e-02 1.0800699359303115e+01 4.4831676854536937e+00 
617 2 1 1.0310795112247568e+00 -5.3490570337100216e+01 1.0000000000000000e+00 5.3018516329686564e-02 1.0800172355904918e+01 4.4831117980781654e+00 
723 2 1 1.0266189673938033e+00 -2.1298362026069128e+01 1.0000000000000000e+00 2.6807698150724359e+00 1.1997955109077102e+01 5.2395503499991349e+00 
562 2 1 1.0265088938732565e+00 -3.7380051114497761e+01 1.0000000000000000e+00 2.6462832936336764e+00 1.1978323642712860e+01 5.2309997543017994e+00 
570 2 1 1.0223344681714497e+00 -4.6847685410719137e+01 1.0000000000000000e+00 6.2341722052963511e-01 1.0716843384665641e+01 6.1400383921727917e+00 
385 2 1 1.0223336289439280e+00 -2.2386538741739933e+01 1.0000000000000000e+00 6.2377772449391722e-01 1.0716888678172957e+01 6.1401190367496339e+00 
481 2 1 1.0223336288798128e+00 -5.1966223034883193e+01 1.0000000000000000e+00 6.2377775199594365e-01 1.0716888681680368e+01 6.1401190429042902e+00 
297 2 1 1.0223336285029117e+00 -7.6261337401011289e+01 1.0000000000000000e+00 6.2377791372731928e-01 1.0716888702269936e+01 6.1401190790927291e+00 
436 2 1 1.0223336285813305e+00 -1.9565721070419208e+01 1.0000000000000000e+00 6.2377788005633017e-01 1.0716888697986784e+01 6.1401190715592051e+00 
163 2 1 1.0241850647557189e+00 -1.2577874347779989e+03 1.0000000000000000e+00 6.5343614647035031e-01 1.2958251187920089e+01 4.4558362038256032e+00 
326 2 1 1.0221450415089277e+00 -3.4828778769073999e+01 1.0000000000000000e+00 6.5944143066323035e-01 1.3058589897643968e+01 4.4567264872256853e+00 
323 2 1 1.0170604159147405e+00 -2.8064056970819379e+01 1.0000000000000000e+00 4.8672746715256361e+00 1.2261180553044907e+01 4.4307577132367504e+00 
174 2 1 1.0163876231168556e+00 -1.2665362272507762e+03 1.0000000000000000e+00 4.9120299800392360e+00 1.2374580396854665e+01 4.4194066731636106e+00 
623 2 1 1.0168281300841417e+00 -3.1696039564630290e+01 1.0000000000000000e+00 4.9095696120415715e+00 1.2344892448662048e+01 4.4240171723429071e+00 
563 2 1 1.0171915527564206e+00 -4.4116113906964223e+01 1.0000000000000000e+00 4.8933507839198915e+00 1.2287634691015741e+01 4.4297935735974221e+00 
494 2 1 1.0165128095656588e+00 -4.9038588502798113e+01 1.0000000000000000e+00 4.7632169671804192e+00 1.0126484863082315e+01 6.1737065677373835e+00 
630 2 1 1.0165127015340563e+00 -2.6280939981517008e+01 1.0000000000000000e+00 4.7632134858199606e+00 1.0126484114538819e+01 6.1737072582788768e+00 
698 2 1 1.0165125797959615e+00 -7.2810502541799821e+01 1.0000000000000000e+00 4.7632095626415509e+00 1.0126483270873699e+01 6.1737080364025836e+00 
191 2 1 1.0165125551479677e+00 -1.2555157925306671e+03 1.0000000000000000e+00 4.7632087683000464e+00 1.0126483100022773e+01 6.1737081939407670e+00 
343 2 1 1.0263204050926167e+00 -2.4163498351997159e+01 1.0000000000000000e+00 4.7071296380386078e+00 1.0337294736840224e+01 4.6760263258286701e+00 
542 2 1 1.0307240308109438e+00 -3.8366164720037432e+01 1.0000000000000000e+00 3.2582940799935534e-01 1.5280175025253987e+01 4.4146674777856481e+00 
375 2 1 1.0307328373867273e+00 -7.5251529239568072e+01 1.0000000000000000e+00 3.2589066459518007e-01 1.5281068210878132e+01 4.4149300308343822e+00 
247 2 1 1.0307001750517537e+00 -1.3783985017594807e+02 1.0000000000000000e+00 3.2560341952658917e-01 1.5277502388267543e+01 4.4139929236302491e+00 
735 2 1 1.0305680124374677e+00 -2.1136500650193319e+01 1.0000000000000000e+00 3.2421274795992616e-01 1.5263213847561696e+01 4.4109540889912475e+00 
415 2 1 1.0306296657215193e+00 -1.8064231367325661e+01 1.0000000000000000e+00 3.2443876190333798e-01 1.5271180848655979e+01 4.4135979447141098e+00 
235 2 1 1.0357873473434540e+00 -1.2842051883298316e+02 1.0000000000000000e+00 9.6570851776326716e-01 1.6092272181165658e+01 4.4143168485072364e+00 
150 2 1 1.0307415145471879e+00 -1.2760500582199520e+03 1.0000000000000000e+00 1.1853784817412116e+00 1.6217550988175773e+01 4.4122320972342788e+00 
629 2 1 1.0255587962647825e+00 -3.3412110282188102e+01 1.0000000000000000e+00 1.6698289150056391e+00 1.4202847529516179e+01 6.3899961705507771e+00 
491 2 1 1.0255587959250927e+00 -2.3706378064665412e+01 1.0000000000000000e+00 1.6698289225642733e+00 1.4202847527122561e+01 6.3899961718069340e+00 
168 2 1 1.0255587958504710e+00 -1.2783019228164926e+03 1.0000000000000000e+00 1.6698289242238664e+00 1.4202847526606337e+01 6.3899961720816245e+00 
734 2 1 1.0255587956668093e+00 -1.8533328542851820e+01 1.0000000000000000e+00 1.6698289283104650e+00 1.4202847525309334e+01 6.3899961727611672e+00 
169 2 1 1.0255587737231939e+00 -1.2923626559264153e+03 1.0000000000000000e+00 1.6698294169452308e+00 1.4202847373257830e+01 6.3899962535721482e+00 
600 2 1 1.0255587354048787e+00 -4.5055539259390073e+01 1.0000000000000000e+00 1.6698302702658980e+00 1.4202847108077838e+01 6.3899963946416838e+00 
583 2 1 1.0343465220011794e+00 -2.5659515893437565e+01 1.0000000000000000e+00 2.8545091533056830e+00 1.6280206602905338e+01 4.5346687238889460e+00 
233 2 1 1.0279889846734949e+00 -1.4000784034492870e+02 1.0000000000000000e+00 3.1047387605917809e+00 1.3941216549668550e+01 4.5807814301014380e+00 
618 2 1 1.0293180234025607e+00 -4.1575001391873450e+01 1.0000000000000000e+00 3.1749932061948818e+00 1.3902490139550453e+01 4.5917591943342311e+00 
176 2 1 1.0135278373099019e+00 -1.2473713510533389e+03 1.0000000000000000e+00 4.4364582266529284e+00 1.5262826920948402e+01 4.4959555915845781e+00 
328 2 1 1.0134577466370736e+00 -2.9187966797352836e+01 1.0000000000000000e+00 4.4417019459271945e+00 1.5264343362965441e+01 4.4951066770270192e+00 
530 2 1 1.0136233720633121e+00 -5.2257671677439141e+01 1.0000000000000000e+00 4.4296797022314580e+00 1.5260804106334680e+01 4.4970812447672870e+00 
621 2 1 1.0139368529091914e+00 -5.3071619063144780e+01 1.0000000000000000e+00 4.4021054389913736e+00 1.5251486944889420e+01 4.5014043155190597e+00 
306 2 1 1.0092946376716758e+00 -4.5959087522876153e+01 1.0000000000000000e+00 4.6918267100853841e+00 1.3739814007117308e+01 4.3527901854400364e+00 
760 2 1 1.0321725857364998e+00 -3.4160807550365838e+01 1.0000000000000000e+00 2.9501723069779948e+00 1.6906007216310773e+01 4.2934533891510247e+00 
390 2 1 1.0285242805148347e+00 -3.4094249799082633e+01 1.0000000000000000e+00 2.3542577290479869e+00 1.6934727455735644e+01 4.4991949092566870e+00 
271 2 1 1.0289437811268465e+00 -1.2946960911088166e+02 1.0000000000000000e+00 2.3444127393537988e+00 1.6872635890335719e+01 4.5193129958710561e+00 
555 2 1 1.0280891132176264e+00 -4.0159339813591060e+01 1.0000000000000000e+00 3.1339562722535721e+00 1.8728812652477863e+01 4.3874332155854576e+00 
704 2 1 1.0280855320255569e+00 -6.6196121190636333e+01 1.0000000000000000e+00 3.1348750090067470e+00 1.8729051969597478e+01 4.3834816669911643e+00 
178 2 1 1.0280887023302816e+00 -1.2560505917936105e+03 1.0000000000000000e+00 3.1346204553736441e+00 1.8728749950333047e+01 4.3827225251913990e+00 
627 2 1 1.0280830407019081e+00 -6.5569497544530790e+01 1.0000000000000000e+00 3.1355097641155538e+00 1.8729101501026665e+01 4.3801363371988415e+00 
383 2 1 1.0280928276245280e+00 -4.0434547032287398e+01 1.0000000000000000e+00 3.1337697991589768e+00 1.8728355562938567e+01 4.3848289136257943e+00 
705 2 1 1.0280829304344423e+00 -5.0321169851627857e+01 1.0000000000000000e+00 3.1354080949492613e+00 1.8728831680486685e+01 4.3787156026897698e+00 
332 2 1 1.0312814921826163e+00 -4.9813144092911536e+01 1.0000000000000000e+00 5.1677845771445430e+00 1.9933829698553883e+01 4.3491538600043365e+00 
676 2 1 1.0312810074911016e+00 -4.0997745188730683e+01 1.0000000000000000e+00 5.1582539316642881e+00 1.9931842173012754e+01 4.3566188358991900e+00 
516 2 1 1.0281099304378452e+00 -4.3035790307421344e+01 1.0000000000000000e+00 6.1822821180730516e+00 1.9942277498335216e+01 4.4354373616846212e+00 
398 2 1 1.0281259383957675e+00 -2.4329997646074325e+01 1.0000000000000000e+00 6.1811225694813050e+00 1.9942385446785234e+01 4.4293184344116421e+00 
473 2 1 1.0281302390137563e+00 -4.5779976648134621e+01 1.0000000000000000e+00 6.1809772414258912e+00 1.9942327527558668e+01 4.4271712804268128e+00 
596 2 1 1.0310747376322351e+00 -5.4105978924639679e+01 1.0000000000000000e+00 5.2704131288032903e+00 1.9965448614750834e+01 4.3584345897726386e+00 
680 2 1 1.0278772124715876e+00 -4.0418653072826729e+01 1.0000000000000000e+00 6.2189756051494998e+00 1.9931452620149862e+01 4.4291483584781410e+00 
622 2 1 1.0367535938379453e+00 -5.4398786551320065e+01 1.0000000000000000e+00 5.3429904874796490e+00 1.7099835638281149e+01 6.3072708312545549e+00 
171 2 1 1.0367535938379726e+00 -1.2931899943853475e+03 1.0000000000000000e+00 5.3429904874799217e+00 1.7099835638281096e+01 6.3072708312545132e+00 
584 2 1 1.0367535938379371e+00 -3.0260959939935820e+01 1.0000000000000000e+00 5.3429904874791347e+00 1.7099835638281093e+01 6.3072708312546499e+00 
675 2 1 1.0367535938379553e+00 -2.3405327006029967e+01 1.0000000000000000e+00 5.3429904874797858e+00 1.7099835638281039e+01 6.3072708312547077e+00 
438 2 1 1.0278025046745007e+00 -1.7647560126568568e+01 1.0000000000000000e+00 6.1247049825791962e+00 1.8234719880077449e+01 4.4319304196804614e+00 
219 2 1 1.0280535210527117e+00 -1.5676214838534642e+02 1.0000000000000000e+00 6.2569614277531853e+00 1.8269979306810090e+01 4.4117853309105666e+00 
293 2 1 1.0130329852565447e+00 -8.2658095618097590e+01 1.0000000000000000e+00 6.4577150992845320e+00 1.2820317196862465e+01 6.9390385396109702e+00 
476 2 1 1.0268243808235915e+00 -2.3975408557486936e+01 1.0000000000000000e+00 4.2141333507526850e+00 1.2112906725478686e+01 7.7294335643654488e+00 
186 2 1 1.0268243808235902e+00 -1.1187999657693292e+03 1.0000000000000000e+00 4.2141333507519478e+00 1.2112906725478144e+01 7.7294335643654906e+00 
471 2 1 1.0268243808235911e+00 -1.7560281657930272e+01 1.0000000000000000e+00 4.2141333507523804e+00 1.2112906725478480e+01 7.7294335643654577e+00 
194 2 1 1.0268243808235953e+00 -1.2373373134226165e+03 1.0000000000000000e+00 4.2141333507532535e+00 1.2112906725479048e+01 7.7294335643654239e+00 
348 2 1 1.0268243808235995e+00 -3.4898489335298308e+01 1.0000000000000000e+00 4.2141333507532073e+00 1.2112906725479130e+01 7.7294335643653582e+00 
399 2 1 1.0268243808236022e+00 -1.2363357557590110e+01 1.0000000000000000e+00 4.2141333507544410e+00 1.2112906725479982e+01 7.7294335643653129e+00 
221 2 1 1.0268243808236124e+00 -1.4232755444176806e+02 1.0000000000000000e+00 4.2141333507590266e+00 1.2112906725483491e+01 7.7294335643650074e+00 
766 2 1 9.9883953090862787e-01 -5.9645006304693410e+01 1.0000000000000000e+00 6.2892103028259774e+00 1.4093172801722085e+01 6.7027438040790335e+00 
643 2 1 1.0267618715034683e+00 -2.8035641316886778e+01 1.0000000000000000e+00 4.9399536110697166e+00 1.5713994568906648e+01 7.0244488238869449e+00 
663 2 1 1.0267618715033582e+00 -3.5970792672670193e+01 1.0000000000000000e+00 4.9399536110725384e+00 1.5713994568903502e+01 7.0244488238873490e+00 
199 2 1 1.0267618715031774e+00 -1.2923965957351395e+03 1.0000000000000000e+00 4.9399536110813074e+00 1.5713994568898293e+01 7.0244488238896698e+00 
146 2 1 1.0267618715033313e+00 -1.2632751023178787e+03 1.0000000000000000e+00 4.9399536110753193e+00 1.5713994568902882e+01 7.0244488238883473e+00 
693 2 1 1.0267618715010760e+00 -3.6923629047941120e+01 1.0000000000000000e+00 4.9399536111554614e+00 1.5713994568835792e+01 7.0244488239046996e+00 
53 2 4 2.2938640322379165e+00 -5.1375326230397582e+02 1.0000000000000000e+00 8.0000000000000000e+00 0.0000000000000000e+00 5.0000000000000000e-01 