LAMMPS data file via write_data, version 30 Jul 2016, timestep = 50000000

5620 atoms
8 atom types

0.0000000000000000e+00 1.0000000000000000e+02 xlo xhi
0.0000000000000000e+00 4.0000000000000000e+01 ylo yhi
0.0000000000000000e+00 4.0000000000000000e+01 zlo zhi

Masses

1 3.896
2 5.36
3 20.064
4 8.378
5 8.378
6 8.378
7 8.378
8 8.378

Atoms # meso-molecular

1 2 4 2.2559723595316457e+00 -3.7140791757527145e+00 1.0000000000000000e+00 0.0000000000000000e+00 0.0000000000000000e+00 1.0000000000000000e+00 
2 2 4 2.2559723595316457e+00 -5.0389187896242982e+00 1.0000000000000000e+00 0.0000000000000000e+00 2.0000000000000000e+00 1.0000000000000000e+00 
21 2 4 2.2559723595316457e+00 5.9829719290572161e+00 1.0000000000000000e+00 2.0000000000000000e+00 0.0000000000000000e+00 1.0000000000000000e+00 
22 2 4 2.2559723595316457e+00 -2.0764941643021166e+00 1.0000000000000000e+00 2.0000000000000000e+00 2.0000000000000000e+00 1.0000000000000000e+00 
41 2 4 2.2559723595316457e+00 6.1651889443920656e+00 1.0000000000000000e+00 4.0000000000000000e+00 0.0000000000000000e+00 1.0000000000000000e+00 
42 2 4 2.2559723595316457e+00 1.0119243733007423e+01 1.0000000000000000e+00 4.0000000000000000e+00 2.0000000000000000e+00 1.0000000000000000e+00 
61 2 4 2.2559723595316457e+00 2.9179791932622368e-01 1.0000000000000000e+00 6.0000000000000000e+00 0.0000000000000000e+00 1.0000000000000000e+00 
62 2 4 2.2559723595316457e+00 3.1128857829080303e-11 1.0000000000000000e+00 6.0000000000000000e+00 2.0000000000000000e+00 1.0000000000000000e+00 
81 2 4 2.2559723595316457e+00 9.0201892203094292e-01 1.0000000000000000e+00 8.0000000000000000e+00 0.0000000000000000e+00 1.0000000000000000e+00 
82 2 4 2.2559723595316457e+00 5.1120477389934730e-04 1.0000000000000000e+00 8.0000000000000000e+00 2.0000000000000000e+00 1.0000000000000000e+00 
101 2 4 2.2559723595316457e+00 -2.1465756966993117e-02 1.0000000000000000e+00 1.0000000000000000e+01 0.0000000000000000e+00 1.0000000000000000e+00 
102 2 4 2.2559723595316457e+00 3.5674151955616528e-10 1.0000000000000000e+00 1.0000000000000000e+01 2.0000000000000000e+00 1.0000000000000000e+00 
121 2 4 2.2559723595316457e+00 -1.1371848287749572e-04 1.0000000000000000e+00 1.2000000000000000e+01 0.0000000000000000e+00 1.0000000000000000e+00 
122 2 4 2.2559723595316457e+00 4.0854576767342753e-10 1.0000000000000000e+00 1.2000000000000000e+01 2.0000000000000000e+00 1.0000000000000000e+00 
141 2 4 2.2559723595316457e+00 -4.0608183263623046e+00 1.0000000000000000e+00 1.4000000000000000e+01 0.0000000000000000e+00 1.0000000000000000e+00 
142 2 4 2.2559723595316457e+00 0.0000000000000000e+00 1.0000000000000000e+00 1.4000000000000000e+01 2.0000000000000000e+00 1.0000000000000000e+00 
161 2 4 2.2559723595316457e+00 -1.3012971352619553e+01 1.0000000000000000e+00 1.6000000000000000e+01 0.0000000000000000e+00 1.0000000000000000e+00 
162 2 4 2.2559723595316457e+00 -1.5606824252071443e-04 1.0000000000000000e+00 1.6000000000000000e+01 2.0000000000000000e+00 1.0000000000000000e+00 
181 2 4 2.2559723595316457e+00 1.5163482399626616e+01 1.0000000000000000e+00 1.8000000000000000e+01 0.0000000000000000e+00 1.0000000000000000e+00 
182 2 4 2.2559723595316457e+00 -5.0410565216279920e+01 1.0000000000000000e+00 1.8000000000000000e+01 2.0000000000000000e+00 1.0000000000000000e+00 
201 2 4 2.2559723595316457e+00 1.5152343947669993e+02 1.0000000000000000e+00 2.0000000000000000e+01 0.0000000000000000e+00 1.0000000000000000e+00 
202 2 4 2.2559723595316457e+00 -1.5345631554952675e+01 1.0000000000000000e+00 2.0000000000000000e+01 2.0000000000000000e+00 1.0000000000000000e+00 
221 2 4 2.2559723595316457e+00 2.1796358721810748e+02 1.0000000000000000e+00 2.2000000000000000e+01 0.0000000000000000e+00 1.0000000000000000e+00 
222 2 4 2.2559723595316457e+00 -5.5967596427518700e+00 1.0000000000000000e+00 2.2000000000000000e+01 2.0000000000000000e+00 1.0000000000000000e+00 
241 2 4 2.2559723595316457e+00 -4.8559707217304003e+02 1.0000000000000000e+00 2.4000000000000000e+01 0.0000000000000000e+00 1.0000000000000000e+00 
242 2 4 2.2559723595316457e+00 -1.0471618650919464e+01 1.0000000000000000e+00 2.4000000000000000e+01 2.0000000000000000e+00 1.0000000000000000e+00 
261 2 4 2.2559723595316457e+00 -8.0072969416045169e+01 1.0000000000000000e+00 2.6000000000000000e+01 0.0000000000000000e+00 1.0000000000000000e+00 
262 2 4 2.2559723595316457e+00 -1.1136956756261918e+01 1.0000000000000000e+00 2.6000000000000000e+01 2.0000000000000000e+00 1.0000000000000000e+00 
281 2 4 2.2559723595316457e+00 -8.8896254959545374e+01 1.0000000000000000e+00 2.8000000000000000e+01 0.0000000000000000e+00 1.0000000000000000e+00 
282 2 4 2.2559723595316457e+00 -7.3388578366361070e+00 1.0000000000000000e+00 2.8000000000000000e+01 2.0000000000000000e+00 1.0000000000000000e+00 
301 2 4 2.2559723595316457e+00 1.3563597723288959e+02 1.0000000000000000e+00 3.0000000000000000e+01 0.0000000000000000e+00 1.0000000000000000e+00 
302 2 4 2.2559723595316457e+00 1.8474897998364270e+01 1.0000000000000000e+00 3.0000000000000000e+01 2.0000000000000000e+00 1.0000000000000000e+00 
321 2 4 2.2559723595316457e+00 2.3874584874971280e+01 1.0000000000000000e+00 3.2000000000000000e+01 0.0000000000000000e+00 1.0000000000000000e+00 
322 2 4 2.2559723595316457e+00 8.9542892762115720e+00 1.0000000000000000e+00 3.2000000000000000e+01 2.0000000000000000e+00 1.0000000000000000e+00 
3 2 4 2.2559723595316457e+00 -3.5257756981313335e+00 1.0000000000000000e+00 0.0000000000000000e+00 4.0000000000000000e+00 1.0000000000000000e+00 
23 2 4 2.2559723595316457e+00 -6.0161709316328480e+00 1.0000000000000000e+00 2.0000000000000000e+00 4.0000000000000000e+00 1.0000000000000000e+00 
43 2 4 2.2559723595316457e+00 2.5337136013551115e-06 1.0000000000000000e+00 4.0000000000000000e+00 4.0000000000000000e+00 1.0000000000000000e+00 
63 2 4 2.2559723595316457e+00 1.5339145343349024e-07 1.0000000000000000e+00 6.0000000000000000e+00 4.0000000000000000e+00 1.0000000000000000e+00 
83 2 4 2.2559723595316457e+00 4.9975509459503383e-11 1.0000000000000000e+00 8.0000000000000000e+00 4.0000000000000000e+00 1.0000000000000000e+00 
103 2 4 2.2559723595316457e+00 -5.6973622242003408e-01 1.0000000000000000e+00 1.0000000000000000e+01 4.0000000000000000e+00 1.0000000000000000e+00 
123 2 4 2.2559723595316457e+00 -1.1188321231193947e+00 1.0000000000000000e+00 1.2000000000000000e+01 4.0000000000000000e+00 1.0000000000000000e+00 
143 2 4 2.2559723595316457e+00 2.2637706559899069e+00 1.0000000000000000e+00 1.4000000000000000e+01 4.0000000000000000e+00 1.0000000000000000e+00 
163 2 4 2.2559723595316457e+00 8.1692301223470298e-01 1.0000000000000000e+00 1.6000000000000000e+01 4.0000000000000000e+00 1.0000000000000000e+00 
183 2 4 2.2559723595316457e+00 -2.9651191540920214e+00 1.0000000000000000e+00 1.8000000000000000e+01 4.0000000000000000e+00 1.0000000000000000e+00 
203 2 4 2.2559723595316457e+00 -6.5353984503759677e-02 1.0000000000000000e+00 2.0000000000000000e+01 4.0000000000000000e+00 1.0000000000000000e+00 
223 2 4 2.2559723595316457e+00 -3.6308697229322145e-01 1.0000000000000000e+00 2.2000000000000000e+01 4.0000000000000000e+00 1.0000000000000000e+00 
243 2 4 2.2559723595316457e+00 6.2859334244264844e-12 1.0000000000000000e+00 2.4000000000000000e+01 4.0000000000000000e+00 1.0000000000000000e+00 
263 2 4 2.2559723595316457e+00 0.0000000000000000e+00 1.0000000000000000e+00 2.6000000000000000e+01 4.0000000000000000e+00 1.0000000000000000e+00 
283 2 4 2.2559723595316457e+00 -3.5187317965131998e-01 1.0000000000000000e+00 2.8000000000000000e+01 4.0000000000000000e+00 1.0000000000000000e+00 
303 2 4 2.2559723595316457e+00 0.0000000000000000e+00 1.0000000000000000e+00 3.0000000000000000e+01 4.0000000000000000e+00 1.0000000000000000e+00 
323 2 4 2.2559723595316457e+00 1.4358579400700375e-03 1.0000000000000000e+00 3.2000000000000000e+01 4.0000000000000000e+00 1.0000000000000000e+00 
4 2 4 2.2559723595316457e+00 -9.0779407214333006e+00 1.0000000000000000e+00 0.0000000000000000e+00 6.0000000000000000e+00 1.0000000000000000e+00 
24 2 4 2.2559723595316457e+00 6.4567611165648221e-04 1.0000000000000000e+00 2.0000000000000000e+00 6.0000000000000000e+00 1.0000000000000000e+00 
44 2 4 2.2559723595316457e+00 -6.5526511193026660e-02 1.0000000000000000e+00 4.0000000000000000e+00 6.0000000000000000e+00 1.0000000000000000e+00 
64 2 4 2.2559723595316457e+00 0.0000000000000000e+00 1.0000000000000000e+00 6.0000000000000000e+00 6.0000000000000000e+00 1.0000000000000000e+00 
84 2 4 2.2559723595316457e+00 3.6379974764942347e-11 1.0000000000000000e+00 8.0000000000000000e+00 6.0000000000000000e+00 1.0000000000000000e+00 
104 2 4 2.2559723595316457e+00 -1.3984705575159650e-04 1.0000000000000000e+00 1.0000000000000000e+01 6.0000000000000000e+00 1.0000000000000000e+00 
124 2 4 2.2559723595316457e+00 -3.7876397051596670e-03 1.0000000000000000e+00 1.2000000000000000e+01 6.0000000000000000e+00 1.0000000000000000e+00 
144 2 4 2.2559723595316461e+00 -1.5469980413624498e+00 1.0000000000000000e+00 1.4000000000000000e+01 6.0000000000000000e+00 1.0000000000000000e+00 
164 2 4 2.2559723595316457e+00 7.2821469609391709e+00 1.0000000000000000e+00 1.6000000000000000e+01 6.0000000000000000e+00 1.0000000000000000e+00 
184 2 4 2.2559723595316465e+00 -2.4511891170517477e+00 1.0000000000000000e+00 1.8000000000000000e+01 6.0000000000000000e+00 1.0000000000000000e+00 
204 2 4 2.2559723595316457e+00 6.5827057370640886e-11 1.0000000000000000e+00 2.0000000000000000e+01 6.0000000000000000e+00 1.0000000000000000e+00 
224 2 4 2.2559723595316457e+00 -9.5899335685705356e-02 1.0000000000000000e+00 2.2000000000000000e+01 6.0000000000000000e+00 1.0000000000000000e+00 
244 2 4 2.2559723595316457e+00 0.0000000000000000e+00 1.0000000000000000e+00 2.4000000000000000e+01 6.0000000000000000e+00 1.0000000000000000e+00 
264 2 4 2.2559723595316457e+00 0.0000000000000000e+00 1.0000000000000000e+00 2.6000000000000000e+01 6.0000000000000000e+00 1.0000000000000000e+00 
284 2 4 2.2559723595316457e+00 0.0000000000000000e+00 1.0000000000000000e+00 2.8000000000000000e+01 6.0000000000000000e+00 1.0000000000000000e+00 
304 2 4 2.2559723595316457e+00 6.4093205563614334e-07 1.0000000000000000e+00 3.0000000000000000e+01 6.0000000000000000e+00 1.0000000000000000e+00 
324 2 4 2.2559723595316457e+00 0.0000000000000000e+00 1.0000000000000000e+00 3.2000000000000000e+01 6.0000000000000000e+00 1.0000000000000000e+00 
5 2 4 2.2559723595316457e+00 2.6647197538853939e+00 1.0000000000000000e+00 0.0000000000000000e+00 8.0000000000000000e+00 1.0000000000000000e+00 
25 2 4 2.2559723595316457e+00 4.1244617422042426e-02 1.0000000000000000e+00 2.0000000000000000e+00 8.0000000000000000e+00 1.0000000000000000e+00 
45 2 4 2.2559723595316457e+00 7.6381338528432563e-01 1.0000000000000000e+00 4.0000000000000000e+00 8.0000000000000000e+00 1.0000000000000000e+00 
65 2 4 2.2559723595316457e+00 -7.4811675612487488e+02 1.0000000000000000e+00 6.0000000000000000e+00 8.0000000000000000e+00 1.0000000000000000e+00 
85 2 4 2.2559723595316457e+00 -1.4953183790452163e+03 1.0000000000000000e+00 8.0000000000000000e+00 8.0000000000000000e+00 1.0000000000000000e+00 
105 2 4 2.2559723595316457e+00 -1.5163775911268981e+03 1.0000000000000000e+00 1.0000000000000000e+01 8.0000000000000000e+00 1.0000000000000000e+00 
125 2 4 2.2559723595316457e+00 -1.5222215291230223e+03 1.0000000000000000e+00 1.2000000000000000e+01 8.0000000000000000e+00 1.0000000000000000e+00 
145 2 4 2.2559723595316457e+00 -1.5215551181197357e+03 1.0000000000000000e+00 1.4000000000000000e+01 8.0000000000000000e+00 1.0000000000000000e+00 
165 2 4 2.2559723595316457e+00 -1.5188430664268385e+03 1.0000000000000000e+00 1.6000000000000000e+01 8.0000000000000000e+00 1.0000000000000000e+00 
185 2 4 2.2559723595316457e+00 -1.5219222854181069e+03 1.0000000000000000e+00 1.8000000000000000e+01 8.0000000000000000e+00 1.0000000000000000e+00 
205 2 4 2.2559723595316457e+00 -1.5216159758524539e+03 1.0000000000000000e+00 2.0000000000000000e+01 8.0000000000000000e+00 1.0000000000000000e+00 
225 2 4 2.2559723595316457e+00 -1.5216159758600334e+03 1.0000000000000000e+00 2.2000000000000000e+01 8.0000000000000000e+00 1.0000000000000000e+00 
245 2 4 2.2559723595316457e+00 -1.5216159758600113e+03 1.0000000000000000e+00 2.4000000000000000e+01 8.0000000000000000e+00 1.0000000000000000e+00 
265 2 4 2.2559723595316457e+00 -1.5212907974996051e+03 1.0000000000000000e+00 2.6000000000000000e+01 8.0000000000000000e+00 1.0000000000000000e+00 
285 2 4 2.2559723595316457e+00 -1.5231678455293127e+03 1.0000000000000000e+00 2.8000000000000000e+01 8.0000000000000000e+00 1.0000000000000000e+00 
305 2 4 2.2559723595316457e+00 -1.5943404027441024e+03 1.0000000000000000e+00 3.0000000000000000e+01 8.0000000000000000e+00 1.0000000000000000e+00 
325 2 4 2.2559723595316457e+00 -1.5199190619701508e+03 1.0000000000000000e+00 3.2000000000000000e+01 8.0000000000000000e+00 1.0000000000000000e+00 
6 2 4 2.2559723595316457e+00 6.1390705544859503e-01 1.0000000000000000e+00 0.0000000000000000e+00 1.0000000000000000e+01 1.0000000000000000e+00 
7 2 4 2.2559723595316457e+00 -2.0888877777072503e+00 1.0000000000000000e+00 0.0000000000000000e+00 1.2000000000000000e+01 1.0000000000000000e+00 
26 2 4 2.2559723595316457e+00 8.2917391447629774e-02 1.0000000000000000e+00 2.0000000000000000e+00 1.0000000000000000e+01 1.0000000000000000e+00 
27 2 4 2.2559723595316457e+00 5.8875605250312171e-02 1.0000000000000000e+00 2.0000000000000000e+00 1.2000000000000000e+01 1.0000000000000000e+00 
46 2 4 2.2559723595316457e+00 -1.1024906505286742e-02 1.0000000000000000e+00 4.0000000000000000e+00 1.0000000000000000e+01 1.0000000000000000e+00 
47 2 4 2.2559723595316457e+00 1.0115267468129397e-07 1.0000000000000000e+00 4.0000000000000000e+00 1.2000000000000000e+01 1.0000000000000000e+00 
66 2 4 2.2559723595316457e+00 -1.1057646233860241e+04 1.0000000000000000e+00 6.0000000000000000e+00 1.0000000000000000e+01 1.0000000000000000e+00 
67 2 4 2.2559723595316457e+00 -1.2012435615672537e+04 1.0000000000000000e+00 6.0000000000000000e+00 1.2000000000000000e+01 1.0000000000000000e+00 
86 2 4 2.2559723595316457e+00 -2.3108747972070385e+04 1.0000000000000000e+00 8.0000000000000000e+00 1.0000000000000000e+01 1.0000000000000000e+00 
87 2 4 2.2559723595316457e+00 -2.5136635946706534e+04 1.0000000000000000e+00 8.0000000000000000e+00 1.2000000000000000e+01 1.0000000000000000e+00 
106 2 4 2.2559723595316457e+00 -2.3348861194438879e+04 1.0000000000000000e+00 1.0000000000000000e+01 1.0000000000000000e+01 1.0000000000000000e+00 
107 2 4 2.2559723595316457e+00 -2.5279629513244628e+04 1.0000000000000000e+00 1.0000000000000000e+01 1.2000000000000000e+01 1.0000000000000000e+00 
126 2 4 2.2559723595316457e+00 -2.3331319027476988e+04 1.0000000000000000e+00 1.2000000000000000e+01 1.0000000000000000e+01 1.0000000000000000e+00 
127 2 4 2.2559723595316457e+00 -2.5302692811949426e+04 1.0000000000000000e+00 1.2000000000000000e+01 1.2000000000000000e+01 1.0000000000000000e+00 
146 2 4 2.2559723595316457e+00 -2.3301261777417865e+04 1.0000000000000000e+00 1.4000000000000000e+01 1.0000000000000000e+01 1.0000000000000000e+00 
147 2 4 2.2559723595316457e+00 -2.5274263843324861e+04 1.0000000000000000e+00 1.4000000000000000e+01 1.2000000000000000e+01 1.0000000000000000e+00 
166 2 4 2.2559723595316457e+00 -2.3289800104515089e+04 1.0000000000000000e+00 1.6000000000000000e+01 1.0000000000000000e+01 1.0000000000000000e+00 
167 2 4 2.2559723595316457e+00 -2.5271340576173694e+04 1.0000000000000000e+00 1.6000000000000000e+01 1.2000000000000000e+01 1.0000000000000000e+00 
186 2 4 2.2559723595316457e+00 -2.3293007356660328e+04 1.0000000000000000e+00 1.8000000000000000e+01 1.0000000000000000e+01 1.0000000000000000e+00 
187 2 4 2.2559723595316457e+00 -2.5271311822501353e+04 1.0000000000000000e+00 1.8000000000000000e+01 1.2000000000000000e+01 1.0000000000000000e+00 
206 2 4 2.2559723595316457e+00 -2.3291213776980763e+04 1.0000000000000000e+00 2.0000000000000000e+01 1.0000000000000000e+01 1.0000000000000000e+00 
207 2 4 2.2559723595316457e+00 -2.5271382307741460e+04 1.0000000000000000e+00 2.0000000000000000e+01 1.2000000000000000e+01 1.0000000000000000e+00 
226 2 4 2.2559723595316457e+00 -2.3284450743766854e+04 1.0000000000000000e+00 2.2000000000000000e+01 1.0000000000000000e+01 1.0000000000000000e+00 
227 2 4 2.2559723595316457e+00 -2.5269882389655464e+04 1.0000000000000000e+00 2.2000000000000000e+01 1.2000000000000000e+01 1.0000000000000000e+00 
246 2 4 2.2559723595316457e+00 -2.3305287847863350e+04 1.0000000000000000e+00 2.4000000000000000e+01 1.0000000000000000e+01 1.0000000000000000e+00 
247 2 4 2.2559723595316457e+00 -2.5274194383231144e+04 1.0000000000000000e+00 2.4000000000000000e+01 1.2000000000000000e+01 1.0000000000000000e+00 
266 2 4 2.2559723595316457e+00 -2.3291408378620828e+04 1.0000000000000000e+00 2.6000000000000000e+01 1.0000000000000000e+01 1.0000000000000000e+00 
267 2 4 2.2559723595316457e+00 -2.5280349187034150e+04 1.0000000000000000e+00 2.6000000000000000e+01 1.2000000000000000e+01 1.0000000000000000e+00 
286 2 4 2.2559723595316465e+00 -2.3328269859133339e+04 1.0000000000000000e+00 2.8000000000000000e+01 1.0000000000000000e+01 1.0000000000000000e+00 
287 2 4 2.2559723595316457e+00 -2.5276680886209953e+04 1.0000000000000000e+00 2.8000000000000000e+01 1.2000000000000000e+01 1.0000000000000000e+00 
306 2 4 2.2559723595316457e+00 -2.3340111820196449e+04 1.0000000000000000e+00 3.0000000000000000e+01 1.0000000000000000e+01 1.0000000000000000e+00 
307 2 4 2.2559723595316457e+00 -2.5270824161227280e+04 1.0000000000000000e+00 3.0000000000000000e+01 1.2000000000000000e+01 1.0000000000000000e+00 
326 2 4 2.2559723595316457e+00 -2.3273774706403488e+04 1.0000000000000000e+00 3.2000000000000000e+01 1.0000000000000000e+01 1.0000000000000000e+00 
327 2 4 2.2559723595316457e+00 -2.5271022374346583e+04 1.0000000000000000e+00 3.2000000000000000e+01 1.2000000000000000e+01 1.0000000000000000e+00 
8 2 4 2.2559723595316457e+00 -7.6942556424316452e-02 1.0000000000000000e+00 0.0000000000000000e+00 1.4000000000000000e+01 1.0000000000000000e+00 
28 2 4 2.2559723595316457e+00 3.5096050207228546e-07 1.0000000000000000e+00 2.0000000000000000e+00 1.4000000000000000e+01 1.0000000000000000e+00 
48 2 4 2.2559723595316457e+00 -3.0070222717111630e-04 1.0000000000000000e+00 4.0000000000000000e+00 1.4000000000000000e+01 1.0000000000000000e+00 
68 2 4 2.2559723595316457e+00 -1.2018206497406685e+04 1.0000000000000000e+00 6.0000000000000000e+00 1.4000000000000000e+01 1.0000000000000000e+00 
88 2 4 2.2559723595316457e+00 -2.5147015115580507e+04 1.0000000000000000e+00 8.0000000000000000e+00 1.4000000000000000e+01 1.0000000000000000e+00 
108 2 4 2.2559723595316457e+00 -2.5281660780349419e+04 1.0000000000000000e+00 1.0000000000000000e+01 1.4000000000000000e+01 1.0000000000000000e+00 
128 2 4 2.2559723595316457e+00 -2.5312839999699660e+04 1.0000000000000000e+00 1.2000000000000000e+01 1.4000000000000000e+01 1.0000000000000000e+00 
148 2 4 2.2559723595316457e+00 -2.5299956139406520e+04 1.0000000000000000e+00 1.4000000000000000e+01 1.4000000000000000e+01 1.0000000000000000e+00 
168 2 4 2.2559723595316457e+00 -2.5268901675677102e+04 1.0000000000000000e+00 1.6000000000000000e+01 1.4000000000000000e+01 1.0000000000000000e+00 
188 2 4 2.2559723595316457e+00 -2.5190774984375603e+04 1.0000000000000000e+00 1.8000000000000000e+01 1.4000000000000000e+01 1.0000000000000000e+00 
208 2 4 2.2559723595316457e+00 -2.5266488375339351e+04 1.0000000000000000e+00 2.0000000000000000e+01 1.4000000000000000e+01 1.0000000000000000e+00 
228 2 4 2.2559723595316457e+00 -2.4957409389983186e+04 1.0000000000000000e+00 2.2000000000000000e+01 1.4000000000000000e+01 1.0000000000000000e+00 
248 2 4 2.2559723595316457e+00 -2.5114314128261161e+04 1.0000000000000000e+00 2.4000000000000000e+01 1.4000000000000000e+01 1.0000000000000000e+00 
268 2 4 2.2559723595316457e+00 -2.5301656225125349e+04 1.0000000000000000e+00 2.6000000000000000e+01 1.4000000000000000e+01 1.0000000000000000e+00 
288 2 4 2.2559723595316457e+00 -2.5339121414287758e+04 1.0000000000000000e+00 2.8000000000000000e+01 1.4000000000000000e+01 1.0000000000000000e+00 
308 2 4 2.2559723595316457e+00 -2.5450323254904903e+04 1.0000000000000000e+00 3.0000000000000000e+01 1.4000000000000000e+01 1.0000000000000000e+00 
328 2 4 2.2559723595316457e+00 -2.5476101791951791e+04 1.0000000000000000e+00 3.2000000000000000e+01 1.4000000000000000e+01 1.0000000000000000e+00 
9 2 4 2.2559723595316457e+00 -6.8008294538771524e-02 1.0000000000000000e+00 0.0000000000000000e+00 1.6000000000000000e+01 1.0000000000000000e+00 
29 2 4 2.2559723595316457e+00 -4.7169956174544702e-03 1.0000000000000000e+00 2.0000000000000000e+00 1.6000000000000000e+01 1.0000000000000000e+00 
49 2 4 2.2559723595316457e+00 2.2339982935937295e+00 1.0000000000000000e+00 4.0000000000000000e+00 1.6000000000000000e+01 1.0000000000000000e+00 
69 2 4 2.2559723595316457e+00 -1.2020316470008322e+04 1.0000000000000000e+00 6.0000000000000000e+00 1.6000000000000000e+01 1.0000000000000000e+00 
89 2 4 2.2559723595316457e+00 -2.5150694068943631e+04 1.0000000000000000e+00 8.0000000000000000e+00 1.6000000000000000e+01 1.0000000000000000e+00 
109 2 4 2.2559723595316457e+00 -2.5231397685602060e+04 1.0000000000000000e+00 1.0000000000000000e+01 1.6000000000000000e+01 1.0000000000000000e+00 
129 2 4 2.2559723595316457e+00 -2.5254667104467968e+04 1.0000000000000000e+00 1.2000000000000000e+01 1.6000000000000000e+01 1.0000000000000000e+00 
149 2 4 2.2559723595316457e+00 -2.5296166224121964e+04 1.0000000000000000e+00 1.4000000000000000e+01 1.6000000000000000e+01 1.0000000000000000e+00 
169 2 4 2.2559723595316457e+00 -2.5264005884360289e+04 1.0000000000000000e+00 1.6000000000000000e+01 1.6000000000000000e+01 1.0000000000000000e+00 
189 2 4 2.2559723595316457e+00 -2.5210110111642447e+04 1.0000000000000000e+00 1.8000000000000000e+01 1.6000000000000000e+01 1.0000000000000000e+00 
209 2 4 2.2559723595316457e+00 -2.5265476972056873e+04 1.0000000000000000e+00 2.0000000000000000e+01 1.6000000000000000e+01 1.0000000000000000e+00 
229 2 4 2.2559723595316457e+00 -2.5024683668615027e+04 1.0000000000000000e+00 2.2000000000000000e+01 1.6000000000000000e+01 1.0000000000000000e+00 
249 2 4 2.2559723595316457e+00 -2.5012345469031461e+04 1.0000000000000000e+00 2.4000000000000000e+01 1.6000000000000000e+01 1.0000000000000000e+00 
269 2 4 2.2559723595316457e+00 -2.5369343126960579e+04 1.0000000000000000e+00 2.6000000000000000e+01 1.6000000000000000e+01 1.0000000000000000e+00 
289 2 4 2.2559723595316457e+00 -2.5481732896232767e+04 1.0000000000000000e+00 2.8000000000000000e+01 1.6000000000000000e+01 1.0000000000000000e+00 
309 2 4 2.2559723595316457e+00 -2.5428710053706985e+04 1.0000000000000000e+00 3.0000000000000000e+01 1.6000000000000000e+01 1.0000000000000000e+00 
329 2 4 2.2559723595316457e+00 -2.5353036211571885e+04 1.0000000000000000e+00 3.2000000000000000e+01 1.6000000000000000e+01 1.0000000000000000e+00 
10 2 4 2.2559723595316457e+00 3.0982691701161951e+00 1.0000000000000000e+00 0.0000000000000000e+00 1.8000000000000000e+01 1.0000000000000000e+00 
30 2 4 2.2559723595316457e+00 -1.8234592152585360e+00 1.0000000000000000e+00 2.0000000000000000e+00 1.8000000000000000e+01 1.0000000000000000e+00 
50 2 4 2.2559723595316457e+00 0.0000000000000000e+00 1.0000000000000000e+00 4.0000000000000000e+00 1.8000000000000000e+01 1.0000000000000000e+00 
70 2 4 2.2559723595316457e+00 -1.2018880600982560e+04 1.0000000000000000e+00 6.0000000000000000e+00 1.8000000000000000e+01 1.0000000000000000e+00 
90 2 4 2.2559723595316457e+00 -2.5151418974240361e+04 1.0000000000000000e+00 8.0000000000000000e+00 1.8000000000000000e+01 1.0000000000000000e+00 
110 2 4 2.2559723595316457e+00 -2.5279310192020592e+04 1.0000000000000000e+00 1.0000000000000000e+01 1.8000000000000000e+01 1.0000000000000000e+00 
130 2 4 2.2559723595316457e+00 -2.5307193164723391e+04 1.0000000000000000e+00 1.2000000000000000e+01 1.8000000000000000e+01 1.0000000000000000e+00 
150 2 4 2.2559723595316457e+00 -2.5381241949903073e+04 1.0000000000000000e+00 1.4000000000000000e+01 1.8000000000000000e+01 1.0000000000000000e+00 
170 2 4 2.2559723595316457e+00 -2.5099504973991512e+04 1.0000000000000000e+00 1.6000000000000000e+01 1.8000000000000000e+01 1.0000000000000000e+00 
190 2 4 2.2559723595316457e+00 -2.5177899053377983e+04 1.0000000000000000e+00 1.8000000000000000e+01 1.8000000000000000e+01 1.0000000000000000e+00 
210 2 4 2.2559723595316457e+00 -2.5302674512458798e+04 1.0000000000000000e+00 2.0000000000000000e+01 1.8000000000000000e+01 1.0000000000000000e+00 
230 2 4 2.2559723595316457e+00 -2.5290647606762956e+04 1.0000000000000000e+00 2.2000000000000000e+01 1.8000000000000000e+01 1.0000000000000000e+00 
250 2 4 2.2559723595316457e+00 -2.5431206670666914e+04 1.0000000000000000e+00 2.4000000000000000e+01 1.8000000000000000e+01 1.0000000000000000e+00 
270 2 4 2.2559723595316457e+00 -2.4879408014961096e+04 1.0000000000000000e+00 2.6000000000000000e+01 1.8000000000000000e+01 1.0000000000000000e+00 
290 2 4 2.2559723595316457e+00 -2.5265515109567019e+04 1.0000000000000000e+00 2.8000000000000000e+01 1.8000000000000000e+01 1.0000000000000000e+00 
310 2 4 2.2559723595316457e+00 -2.5244303999257700e+04 1.0000000000000000e+00 3.0000000000000000e+01 1.8000000000000000e+01 1.0000000000000000e+00 
330 2 4 2.2559723595316457e+00 -2.5412163500709637e+04 1.0000000000000000e+00 3.2000000000000000e+01 1.8000000000000000e+01 1.0000000000000000e+00 
5455 4457 2 1.0279999774310982e+00 3.7828414737191220e+03 1.0000000000000000e+00 4.0749071403531572e+00 1.0199590535442169e+00 4.4218891507279814e+00 
4865 3867 2 1.0280001221324275e+00 2.4961997990871510e+03 1.0000000000000000e+00 4.5900977918908215e+00 1.7797141419457230e+00 4.4425572971583946e+00 
4403 3405 2 1.0279999717403094e+00 6.3110910520546695e+03 1.0000000000000000e+00 5.4548510074239669e+00 8.4480957028848302e-01 4.4882646794926391e+00 
1630 632 2 1.0279999416798802e+00 5.6015659317424952e+03 1.0000000000000000e+00 5.7571580632912909e+00 1.2328081541237510e+00 4.9341202908222543e+00 
2894 1896 2 1.0280000036432453e+00 -4.6576505081495025e+03 1.0000000000000000e+00 1.3220817433168213e+01 8.0898912591769345e-01 4.8384624802263589e+00 
3319 2321 2 1.0279999932813271e+00 -1.1467767979981829e+04 1.0000000000000000e+00 1.3504609624209479e+01 1.0180415280117652e+00 4.6840293922193679e+00 
3321 2323 2 1.0279999904109063e+00 -1.1425052124749584e+04 1.0000000000000000e+00 1.4968695432421693e+01 2.0381852171672494e+00 4.4698869798141914e+00 
3450 2452 2 1.0279999846105434e+00 -8.3281631193052635e+03 1.0000000000000000e+00 1.8672283908965056e+01 1.9823682114861025e+00 4.8940432543606258e+00 
3264 2266 2 1.0279999862423430e+00 1.6088758245775858e+04 1.0000000000000000e+00 1.8685946735596865e+01 2.3139867394085205e+00 4.7472191668593142e+00 
3531 2533 2 1.0279999946802092e+00 -4.4288895891502966e+02 1.0000000000000000e+00 2.3315859741595215e+01 1.4040016094231222e+00 4.5999283368992883e+00 
2982 1984 2 1.0280000041716881e+00 -2.6461885117085935e+03 1.0000000000000000e+00 2.3657815330125423e+01 5.9652902092344606e-01 4.8176974694184560e+00 
2939 1941 2 1.0279999970275207e+00 -1.5390512610589349e+03 1.0000000000000000e+00 2.3767832533679677e+01 2.4918916547424255e+00 4.7913508020534161e+00 
3784 2786 2 1.0279999995776290e+00 -1.8033621202403287e+04 1.0000000000000000e+00 2.4042924494028291e+01 7.3059395556257734e-01 4.7941617928063458e+00 
2810 1812 2 1.0279999584010582e+00 1.5204484560977405e+03 1.0000000000000000e+00 5.7448503483424602e+00 3.9856872879705905e+00 4.5429678988239433e+00 
2223 1225 2 1.0280001746790692e+00 -3.9920862703636035e+03 1.0000000000000000e+00 6.4297535253754896e+00 3.9212745186917788e+00 4.4723439922843120e+00 
4070 3072 2 1.0279999216103366e+00 1.0713232799740168e+04 1.0000000000000000e+00 6.4128710119006476e+00 3.1928993079814423e+00 4.9024605767837324e+00 
2950 1952 2 1.0280000106088234e+00 -2.4471170381996048e+03 1.0000000000000000e+00 1.0826507756783831e+01 3.2491253760556438e+00 4.9125646464404920e+00 
3873 2875 2 1.0279999979001251e+00 -2.0966779551271179e+03 1.0000000000000000e+00 1.1147782182845322e+01 3.2294902244740618e+00 4.8986205262139570e+00 
3783 2785 2 1.0279999979254144e+00 -1.5788644405807996e+04 1.0000000000000000e+00 1.4322699128709520e+01 3.2153386813927423e+00 4.7023232463222921e+00 
3033 2035 2 1.0279999964529052e+00 -3.7419466402653984e+03 1.0000000000000000e+00 1.4422214340400721e+01 3.2978744974422649e+00 4.7121549395115387e+00 
4217 3219 2 1.0279998444478335e+00 1.5529832691349760e+04 1.0000000000000000e+00 1.5831037976250990e+01 4.3261683014765646e+00 4.9049213810265995e+00 
3577 2579 2 1.0280001440674917e+00 9.1206620847903432e+03 1.0000000000000000e+00 1.6070405573260292e+01 3.6925746166992366e+00 4.4855591801580550e+00 
2907 1909 2 1.0280000806303069e+00 4.0822876113377691e+02 1.0000000000000000e+00 1.7093611515481495e+01 4.4964848727382138e+00 4.6832017943147353e+00 
3787 2789 2 1.0280000170410490e+00 -1.6606427017441049e+04 1.0000000000000000e+00 1.8994590000720997e+01 3.0621271230794807e+00 4.8724320081992065e+00 
2947 1949 2 1.0280000026987768e+00 -2.5597108637513802e+03 1.0000000000000000e+00 2.0069993425243670e+01 3.3865348315908563e+00 4.8543937334270124e+00 
3408 2410 2 1.0279999741713171e+00 -6.6140309751889083e+02 1.0000000000000000e+00 2.1283608349124975e+01 4.2868346279419294e+00 4.4377952324794059e+00 
5214 4216 2 1.0280000147565658e+00 -2.4748743473000926e+02 1.0000000000000000e+00 2.1535459008669047e+01 3.7067529984624810e+00 4.7368506969586015e+00 
2649 1651 2 1.0280000255952733e+00 9.9300123438707924e+03 1.0000000000000000e+00 2.2394133808286675e+01 4.0456935283261890e+00 4.6234846431565515e+00 
2692 1694 2 1.0280000098816027e+00 9.1399742629477714e+03 1.0000000000000000e+00 2.4074821836514797e+01 3.6472747778881272e+00 4.9565705924711061e+00 
2314 1316 2 1.0280000014323480e+00 6.4591176042675988e+03 1.0000000000000000e+00 2.6186501891978658e+01 3.9925531656745199e+00 4.7388372025681358e+00 