LAMMPS data file via write_data, version 30 Jul 2016, timestep = 50000000

5620 atoms
8 atom types

0.0000000000000000e+00 1.0000000000000000e+02 xlo xhi
0.0000000000000000e+00 4.0000000000000000e+01 ylo yhi
0.0000000000000000e+00 4.0000000000000000e+01 zlo zhi

Masses

1 3.896
2 5.36
3 20.064
4 8.378
5 8.378
6 8.378
7 8.378
8 8.378

Atoms # meso-molecular

1 2 4 2.2559723595316457e+00 3.7951944363950680e+00 1.0000000000000000e+00 0.0000000000000000e+00 0.0000000000000000e+00 1.0000000000000000e+00 
21 2 4 2.2559723595316457e+00 -9.2937739027676769e-01 1.0000000000000000e+00 2.0000000000000000e+00 0.0000000000000000e+00 1.0000000000000000e+00 
41 2 4 2.2559723595316457e+00 1.4421151576187572e+01 1.0000000000000000e+00 4.0000000000000000e+00 0.0000000000000000e+00 1.0000000000000000e+00 
61 2 4 2.2559723595316457e+00 -3.2649946301858336e+01 1.0000000000000000e+00 6.0000000000000000e+00 0.0000000000000000e+00 1.0000000000000000e+00 
81 2 4 2.2559723595316457e+00 1.4976484776003615e-01 1.0000000000000000e+00 8.0000000000000000e+00 0.0000000000000000e+00 1.0000000000000000e+00 
101 2 4 2.2559723595316457e+00 5.8874685253729782e+00 1.0000000000000000e+00 1.0000000000000000e+01 0.0000000000000000e+00 1.0000000000000000e+00 
121 2 4 2.2559723595316457e+00 3.4417302807483896e-01 1.0000000000000000e+00 1.2000000000000000e+01 0.0000000000000000e+00 1.0000000000000000e+00 
141 2 4 2.2559723595316457e+00 -2.7556730570123102e+00 1.0000000000000000e+00 1.4000000000000000e+01 0.0000000000000000e+00 1.0000000000000000e+00 
161 2 4 2.2559723595316457e+00 -2.0155446309869443e+01 1.0000000000000000e+00 1.6000000000000000e+01 0.0000000000000000e+00 1.0000000000000000e+00 
181 2 4 2.2559723595316457e+00 -2.8267631807886473e+00 1.0000000000000000e+00 1.8000000000000000e+01 0.0000000000000000e+00 1.0000000000000000e+00 
201 2 4 2.2559723595316457e+00 -6.6283509641484901e+00 1.0000000000000000e+00 2.0000000000000000e+01 0.0000000000000000e+00 1.0000000000000000e+00 
221 2 4 2.2559723595316457e+00 6.1641225020271051e-01 1.0000000000000000e+00 2.2000000000000000e+01 0.0000000000000000e+00 1.0000000000000000e+00 
241 2 4 2.2559723595316457e+00 -7.2434613505571495e+00 1.0000000000000000e+00 2.4000000000000000e+01 0.0000000000000000e+00 1.0000000000000000e+00 
261 2 4 2.2559723595316457e+00 -1.8888123917653161e+02 1.0000000000000000e+00 2.6000000000000000e+01 0.0000000000000000e+00 1.0000000000000000e+00 
281 2 4 2.2559723595316457e+00 2.0962015504443258e+01 1.0000000000000000e+00 2.8000000000000000e+01 0.0000000000000000e+00 1.0000000000000000e+00 
301 2 4 2.2559723595316457e+00 -3.2001363819689708e+00 1.0000000000000000e+00 3.0000000000000000e+01 0.0000000000000000e+00 1.0000000000000000e+00 
321 2 4 2.2559723595316457e+00 -1.5039254170687631e+01 1.0000000000000000e+00 3.2000000000000000e+01 0.0000000000000000e+00 1.0000000000000000e+00 
2 2 4 2.2559723595316457e+00 -1.2643033787570657e+00 1.0000000000000000e+00 0.0000000000000000e+00 2.0000000000000000e+00 1.0000000000000000e+00 
22 2 4 2.2559723595316457e+00 -1.3441151649794332e+00 1.0000000000000000e+00 2.0000000000000000e+00 2.0000000000000000e+00 1.0000000000000000e+00 
42 2 4 2.2559723595316457e+00 -3.2280191161124501e+00 1.0000000000000000e+00 4.0000000000000000e+00 2.0000000000000000e+00 1.0000000000000000e+00 
62 2 4 2.2559723595316457e+00 1.5835656854868901e-01 1.0000000000000000e+00 6.0000000000000000e+00 2.0000000000000000e+00 1.0000000000000000e+00 
82 2 4 2.2559723595316457e+00 -1.1671670237964056e+00 1.0000000000000000e+00 8.0000000000000000e+00 2.0000000000000000e+00 1.0000000000000000e+00 
102 2 4 2.2559723595316457e+00 -3.1073999978342712e+00 1.0000000000000000e+00 1.0000000000000000e+01 2.0000000000000000e+00 1.0000000000000000e+00 
122 2 4 2.2559723595316457e+00 3.1050677701035360e-02 1.0000000000000000e+00 1.2000000000000000e+01 2.0000000000000000e+00 1.0000000000000000e+00 
142 2 4 2.2559723595316457e+00 -1.6813266190072955e+00 1.0000000000000000e+00 1.4000000000000000e+01 2.0000000000000000e+00 1.0000000000000000e+00 
162 2 4 2.2559723595316457e+00 -4.0243328460677432e+00 1.0000000000000000e+00 1.6000000000000000e+01 2.0000000000000000e+00 1.0000000000000000e+00 
182 2 4 2.2559723595316457e+00 3.5018742163954180e+00 1.0000000000000000e+00 1.8000000000000000e+01 2.0000000000000000e+00 1.0000000000000000e+00 
202 2 4 2.2559723595316457e+00 -7.4999952593547157e+00 1.0000000000000000e+00 2.0000000000000000e+01 2.0000000000000000e+00 1.0000000000000000e+00 
222 2 4 2.2559723595316457e+00 1.1552269387266296e-02 1.0000000000000000e+00 2.2000000000000000e+01 2.0000000000000000e+00 1.0000000000000000e+00 
242 2 4 2.2559723595316457e+00 -1.7448529217891517e-01 1.0000000000000000e+00 2.4000000000000000e+01 2.0000000000000000e+00 1.0000000000000000e+00 
262 2 4 2.2559723595316457e+00 6.0704259702722752e-01 1.0000000000000000e+00 2.6000000000000000e+01 2.0000000000000000e+00 1.0000000000000000e+00 
282 2 4 2.2559723595316457e+00 -1.1120936103583163e+00 1.0000000000000000e+00 2.8000000000000000e+01 2.0000000000000000e+00 1.0000000000000000e+00 
302 2 4 2.2559723595316457e+00 -9.3498829785795906e-02 1.0000000000000000e+00 3.0000000000000000e+01 2.0000000000000000e+00 1.0000000000000000e+00 
322 2 4 2.2559723595316457e+00 2.3702579570818783e+00 1.0000000000000000e+00 3.2000000000000000e+01 2.0000000000000000e+00 1.0000000000000000e+00 
3 2 4 2.2559723595316457e+00 -2.9351023777399689e+01 1.0000000000000000e+00 0.0000000000000000e+00 4.0000000000000000e+00 1.0000000000000000e+00 
23 2 4 2.2559723595316457e+00 -3.3246634461940854e-03 1.0000000000000000e+00 2.0000000000000000e+00 4.0000000000000000e+00 1.0000000000000000e+00 
43 2 4 2.2559723595316457e+00 8.8215027247423516e-01 1.0000000000000000e+00 4.0000000000000000e+00 4.0000000000000000e+00 1.0000000000000000e+00 
63 2 4 2.2559723595316457e+00 -1.9258125191718860e-02 1.0000000000000000e+00 6.0000000000000000e+00 4.0000000000000000e+00 1.0000000000000000e+00 
83 2 4 2.2559723595316457e+00 5.8481340195555569e-05 1.0000000000000000e+00 8.0000000000000000e+00 4.0000000000000000e+00 1.0000000000000000e+00 
103 2 4 2.2559723595316457e+00 -6.6795596283516626e-02 1.0000000000000000e+00 1.0000000000000000e+01 4.0000000000000000e+00 1.0000000000000000e+00 
123 2 4 2.2559723595316457e+00 1.2331585901530723e-01 1.0000000000000000e+00 1.2000000000000000e+01 4.0000000000000000e+00 1.0000000000000000e+00 
143 2 4 2.2559723595316457e+00 3.0432526060734606e+00 1.0000000000000000e+00 1.4000000000000000e+01 4.0000000000000000e+00 1.0000000000000000e+00 
163 2 4 2.2559723595316457e+00 -5.3847859955209856e+00 1.0000000000000000e+00 1.6000000000000000e+01 4.0000000000000000e+00 1.0000000000000000e+00 
183 2 4 2.2559723595316457e+00 1.6625699379301112e-01 1.0000000000000000e+00 1.8000000000000000e+01 4.0000000000000000e+00 1.0000000000000000e+00 
203 2 4 2.2559723595316457e+00 -2.6192814844325209e-05 1.0000000000000000e+00 2.0000000000000000e+01 4.0000000000000000e+00 1.0000000000000000e+00 
223 2 4 2.2559723595316457e+00 3.6916095798945469e-06 1.0000000000000000e+00 2.2000000000000000e+01 4.0000000000000000e+00 1.0000000000000000e+00 
243 2 4 2.2559723595316457e+00 -1.0919417143488879e-03 1.0000000000000000e+00 2.4000000000000000e+01 4.0000000000000000e+00 1.0000000000000000e+00 
263 2 4 2.2559723595316457e+00 -3.0976444911542229e-03 1.0000000000000000e+00 2.6000000000000000e+01 4.0000000000000000e+00 1.0000000000000000e+00 
283 2 4 2.2559723595316457e+00 -5.8641247450668867e-03 1.0000000000000000e+00 2.8000000000000000e+01 4.0000000000000000e+00 1.0000000000000000e+00 
303 2 4 2.2559723595316457e+00 -2.0605735757020217e-02 1.0000000000000000e+00 3.0000000000000000e+01 4.0000000000000000e+00 1.0000000000000000e+00 
323 2 4 2.2559723595316457e+00 -3.5464199664145718e-01 1.0000000000000000e+00 3.2000000000000000e+01 4.0000000000000000e+00 1.0000000000000000e+00 
4 2 4 2.2559723595316457e+00 -1.6471922562808314e-02 1.0000000000000000e+00 0.0000000000000000e+00 6.0000000000000000e+00 1.0000000000000000e+00 
24 2 4 2.2559723595316457e+00 4.8751375633127569e-01 1.0000000000000000e+00 2.0000000000000000e+00 6.0000000000000000e+00 1.0000000000000000e+00 
44 2 4 2.2559723595316457e+00 5.0842664445880068e+00 1.0000000000000000e+00 4.0000000000000000e+00 6.0000000000000000e+00 1.0000000000000000e+00 
64 2 4 2.2559723595316457e+00 -3.7083413544952832e+00 1.0000000000000000e+00 6.0000000000000000e+00 6.0000000000000000e+00 1.0000000000000000e+00 
84 2 4 2.2559723595316457e+00 -9.3449246598293917e-07 1.0000000000000000e+00 8.0000000000000000e+00 6.0000000000000000e+00 1.0000000000000000e+00 
104 2 4 2.2559723595316457e+00 1.5949326041412885e-03 1.0000000000000000e+00 1.0000000000000000e+01 6.0000000000000000e+00 1.0000000000000000e+00 
124 2 4 2.2559723595316457e+00 0.0000000000000000e+00 1.0000000000000000e+00 1.2000000000000000e+01 6.0000000000000000e+00 1.0000000000000000e+00 
144 2 4 2.2559723595316457e+00 -1.0255930946828769e-01 1.0000000000000000e+00 1.4000000000000000e+01 6.0000000000000000e+00 1.0000000000000000e+00 
164 2 4 2.2559723595316457e+00 -7.6679723326339405e-02 1.0000000000000000e+00 1.6000000000000000e+01 6.0000000000000000e+00 1.0000000000000000e+00 
184 2 4 2.2559723595316457e+00 3.4840331439115759e-08 1.0000000000000000e+00 1.8000000000000000e+01 6.0000000000000000e+00 1.0000000000000000e+00 
204 2 4 2.2559723595316457e+00 7.9447347843815275e-01 1.0000000000000000e+00 2.0000000000000000e+01 6.0000000000000000e+00 1.0000000000000000e+00 
224 2 4 2.2559723595316457e+00 4.7276112298162580e+00 1.0000000000000000e+00 2.2000000000000000e+01 6.0000000000000000e+00 1.0000000000000000e+00 
244 2 4 2.2559723595316457e+00 4.8890876944178840e-01 1.0000000000000000e+00 2.4000000000000000e+01 6.0000000000000000e+00 1.0000000000000000e+00 
264 2 4 2.2559723595316457e+00 -1.2394760154332138e+00 1.0000000000000000e+00 2.6000000000000000e+01 6.0000000000000000e+00 1.0000000000000000e+00 
284 2 4 2.2559723595316457e+00 -9.2714558794547250e-02 1.0000000000000000e+00 2.8000000000000000e+01 6.0000000000000000e+00 1.0000000000000000e+00 
304 2 4 2.2559723595316457e+00 1.1717054725675250e-02 1.0000000000000000e+00 3.0000000000000000e+01 6.0000000000000000e+00 1.0000000000000000e+00 
324 2 4 2.2559723595316457e+00 1.7019602420405380e+00 1.0000000000000000e+00 3.2000000000000000e+01 6.0000000000000000e+00 1.0000000000000000e+00 
5 2 4 2.2559723595316457e+00 4.5194432141398995e+00 1.0000000000000000e+00 0.0000000000000000e+00 8.0000000000000000e+00 1.0000000000000000e+00 
25 2 4 2.2559723595316457e+00 -1.1883022184339702e+00 1.0000000000000000e+00 2.0000000000000000e+00 8.0000000000000000e+00 1.0000000000000000e+00 
45 2 4 2.2559723595316457e+00 -5.6054540427820940e-03 1.0000000000000000e+00 4.0000000000000000e+00 8.0000000000000000e+00 1.0000000000000000e+00 
65 2 4 2.2559723595316457e+00 -2.6198888494238668e+00 1.0000000000000000e+00 6.0000000000000000e+00 8.0000000000000000e+00 1.0000000000000000e+00 
85 2 4 2.2559723595316457e+00 6.6854238529363155e+00 1.0000000000000000e+00 8.0000000000000000e+00 8.0000000000000000e+00 1.0000000000000000e+00 
105 2 4 2.2559723595316457e+00 8.1159813720233354e-01 1.0000000000000000e+00 1.0000000000000000e+01 8.0000000000000000e+00 1.0000000000000000e+00 
125 2 4 2.2559723595316457e+00 -2.0854588011355344e+00 1.0000000000000000e+00 1.2000000000000000e+01 8.0000000000000000e+00 1.0000000000000000e+00 
145 2 4 2.2559723595316457e+00 -2.7305310831194746e-01 1.0000000000000000e+00 1.4000000000000000e+01 8.0000000000000000e+00 1.0000000000000000e+00 
165 2 4 2.2559723595316457e+00 -4.8687338646741285e+00 1.0000000000000000e+00 1.6000000000000000e+01 8.0000000000000000e+00 1.0000000000000000e+00 
185 2 4 2.2559723595316457e+00 1.1128846949013418e+01 1.0000000000000000e+00 1.8000000000000000e+01 8.0000000000000000e+00 1.0000000000000000e+00 
205 2 4 2.2559723595316457e+00 -1.2483800341936091e+00 1.0000000000000000e+00 2.0000000000000000e+01 8.0000000000000000e+00 1.0000000000000000e+00 
225 2 4 2.2559723595316457e+00 7.8902510576464152e+01 1.0000000000000000e+00 2.2000000000000000e+01 8.0000000000000000e+00 1.0000000000000000e+00 
245 2 4 2.2559723595316457e+00 5.3201696918073395e+01 1.0000000000000000e+00 2.4000000000000000e+01 8.0000000000000000e+00 1.0000000000000000e+00 
265 2 4 2.2559723595316457e+00 -2.6942568625066676e-03 1.0000000000000000e+00 2.6000000000000000e+01 8.0000000000000000e+00 1.0000000000000000e+00 
285 2 4 2.2559723595316457e+00 2.8406232095017305e+00 1.0000000000000000e+00 2.8000000000000000e+01 8.0000000000000000e+00 1.0000000000000000e+00 
305 2 4 2.2559723595316457e+00 4.7252038083155256e+01 1.0000000000000000e+00 3.0000000000000000e+01 8.0000000000000000e+00 1.0000000000000000e+00 
325 2 4 2.2559723595316457e+00 2.7879594836888714e+02 1.0000000000000000e+00 3.2000000000000000e+01 8.0000000000000000e+00 1.0000000000000000e+00 
6 2 4 2.2559723595316457e+00 1.2430820206037348e+01 1.0000000000000000e+00 0.0000000000000000e+00 1.0000000000000000e+01 1.0000000000000000e+00 
26 2 4 2.2559723595316457e+00 4.4601452686575982e+00 1.0000000000000000e+00 2.0000000000000000e+00 1.0000000000000000e+01 1.0000000000000000e+00 
46 2 4 2.2559723595316457e+00 -6.4401985327615808e-04 1.0000000000000000e+00 4.0000000000000000e+00 1.0000000000000000e+01 1.0000000000000000e+00 
66 2 4 2.2559723595316457e+00 -6.2918219103306383e+03 1.0000000000000000e+00 6.0000000000000000e+00 1.0000000000000000e+01 1.0000000000000000e+00 
86 2 4 2.2559723595316457e+00 -1.2859585466248973e+04 1.0000000000000000e+00 8.0000000000000000e+00 1.0000000000000000e+01 1.0000000000000000e+00 
106 2 4 2.2559723595316457e+00 -1.2905188457179984e+04 1.0000000000000000e+00 1.0000000000000000e+01 1.0000000000000000e+01 1.0000000000000000e+00 
126 2 4 2.2559723595316457e+00 -1.2901730585725949e+04 1.0000000000000000e+00 1.2000000000000000e+01 1.0000000000000000e+01 1.0000000000000000e+00 
146 2 4 2.2559723595316457e+00 -1.2862710392507684e+04 1.0000000000000000e+00 1.4000000000000000e+01 1.0000000000000000e+01 1.0000000000000000e+00 
166 2 4 2.2559723595316457e+00 -1.2918729204994666e+04 1.0000000000000000e+00 1.6000000000000000e+01 1.0000000000000000e+01 1.0000000000000000e+00 
186 2 4 2.2559723595316457e+00 -1.2884210205769188e+04 1.0000000000000000e+00 1.8000000000000000e+01 1.0000000000000000e+01 1.0000000000000000e+00 
206 2 4 2.2559723595316457e+00 -1.2900029367120944e+04 1.0000000000000000e+00 2.0000000000000000e+01 1.0000000000000000e+01 1.0000000000000000e+00 
226 2 4 2.2559723595316457e+00 -1.2897924747717065e+04 1.0000000000000000e+00 2.2000000000000000e+01 1.0000000000000000e+01 1.0000000000000000e+00 
246 2 4 2.2559723595316457e+00 -1.2806068398820273e+04 1.0000000000000000e+00 2.4000000000000000e+01 1.0000000000000000e+01 1.0000000000000000e+00 
266 2 4 2.2559723595316457e+00 -1.2853637441590885e+04 1.0000000000000000e+00 2.6000000000000000e+01 1.0000000000000000e+01 1.0000000000000000e+00 
286 2 4 2.2559723595316457e+00 -1.2968199483369463e+04 1.0000000000000000e+00 2.8000000000000000e+01 1.0000000000000000e+01 1.0000000000000000e+00 
306 2 4 2.2559723595316457e+00 -1.2904953308954768e+04 1.0000000000000000e+00 3.0000000000000000e+01 1.0000000000000000e+01 1.0000000000000000e+00 
326 2 4 2.2559723595316474e+00 -1.2851408851082579e+04 1.0000000000000000e+00 3.2000000000000000e+01 1.0000000000000000e+01 1.0000000000000000e+00 
7 2 4 2.2559723595316457e+00 7.8832378778236756e-01 1.0000000000000000e+00 0.0000000000000000e+00 1.2000000000000000e+01 1.0000000000000000e+00 
27 2 4 2.2559723595316457e+00 5.7280054005444134e-07 1.0000000000000000e+00 2.0000000000000000e+00 1.2000000000000000e+01 1.0000000000000000e+00 
47 2 4 2.2559723595316457e+00 8.1569917147104777e-07 1.0000000000000000e+00 4.0000000000000000e+00 1.2000000000000000e+01 1.0000000000000000e+00 
67 2 4 2.2559723595316457e+00 -6.3403680959934809e+03 1.0000000000000000e+00 6.0000000000000000e+00 1.2000000000000000e+01 1.0000000000000000e+00 
87 2 4 2.2559723595316457e+00 -1.2942932972893073e+04 1.0000000000000000e+00 8.0000000000000000e+00 1.2000000000000000e+01 1.0000000000000000e+00 
107 2 4 2.2559723595316457e+00 -1.2986529075544566e+04 1.0000000000000000e+00 1.0000000000000000e+01 1.2000000000000000e+01 1.0000000000000000e+00 
127 2 4 2.2559723595316457e+00 -1.2986654524792903e+04 1.0000000000000000e+00 1.2000000000000000e+01 1.2000000000000000e+01 1.0000000000000000e+00 
147 2 4 2.2559723595316457e+00 -1.2982190068507352e+04 1.0000000000000000e+00 1.4000000000000000e+01 1.2000000000000000e+01 1.0000000000000000e+00 
167 2 4 2.2559723595316457e+00 -1.3032042472558620e+04 1.0000000000000000e+00 1.6000000000000000e+01 1.2000000000000000e+01 1.0000000000000000e+00 
187 2 4 2.2559723595316457e+00 -1.2973486730717219e+04 1.0000000000000000e+00 1.8000000000000000e+01 1.2000000000000000e+01 1.0000000000000000e+00 
207 2 4 2.2559723595316457e+00 -1.2984250865241913e+04 1.0000000000000000e+00 2.0000000000000000e+01 1.2000000000000000e+01 1.0000000000000000e+00 
227 2 4 2.2559723595316457e+00 -1.2985239380903071e+04 1.0000000000000000e+00 2.2000000000000000e+01 1.2000000000000000e+01 1.0000000000000000e+00 
247 2 4 2.2559723595316457e+00 -1.2982283331535260e+04 1.0000000000000000e+00 2.4000000000000000e+01 1.2000000000000000e+01 1.0000000000000000e+00 
267 2 4 2.2559723595316457e+00 -1.2985231774743859e+04 1.0000000000000000e+00 2.6000000000000000e+01 1.2000000000000000e+01 1.0000000000000000e+00 
287 2 4 2.2559723595316457e+00 -1.2987476352376465e+04 1.0000000000000000e+00 2.8000000000000000e+01 1.2000000000000000e+01 1.0000000000000000e+00 
307 2 4 2.2559723595316457e+00 -1.2963467593882069e+04 1.0000000000000000e+00 3.0000000000000000e+01 1.2000000000000000e+01 1.0000000000000000e+00 
327 2 4 2.2559723595316457e+00 -1.2965685166597594e+04 1.0000000000000000e+00 3.2000000000000000e+01 1.2000000000000000e+01 1.0000000000000000e+00 
8 2 4 2.2559723595316457e+00 -7.4257744301850315e-01 1.0000000000000000e+00 0.0000000000000000e+00 1.4000000000000000e+01 1.0000000000000000e+00 
28 2 4 2.2559723595316457e+00 2.7920832182821880e-06 1.0000000000000000e+00 2.0000000000000000e+00 1.4000000000000000e+01 1.0000000000000000e+00 
48 2 4 2.2559723595316457e+00 2.4804628354315152e-06 1.0000000000000000e+00 4.0000000000000000e+00 1.4000000000000000e+01 1.0000000000000000e+00 
68 2 4 2.2559723595316457e+00 -6.3352214635410164e+03 1.0000000000000000e+00 6.0000000000000000e+00 1.4000000000000000e+01 1.0000000000000000e+00 
88 2 4 2.2559723595316457e+00 -1.2946826523021777e+04 1.0000000000000000e+00 8.0000000000000000e+00 1.4000000000000000e+01 1.0000000000000000e+00 
108 2 4 2.2559723595316457e+00 -1.2982777936979648e+04 1.0000000000000000e+00 1.0000000000000000e+01 1.4000000000000000e+01 1.0000000000000000e+00 
128 2 4 2.2559723595316457e+00 -1.2982024189937720e+04 1.0000000000000000e+00 1.2000000000000000e+01 1.4000000000000000e+01 1.0000000000000000e+00 
148 2 4 2.2559723595316457e+00 -1.2981430428973345e+04 1.0000000000000000e+00 1.4000000000000000e+01 1.4000000000000000e+01 1.0000000000000000e+00 
168 2 4 2.2559723595316457e+00 -1.2960592436632720e+04 1.0000000000000000e+00 1.6000000000000000e+01 1.4000000000000000e+01 1.0000000000000000e+00 
188 2 4 2.2559723595316457e+00 -1.2975323803685073e+04 1.0000000000000000e+00 1.8000000000000000e+01 1.4000000000000000e+01 1.0000000000000000e+00 
208 2 4 2.2559723595316457e+00 -1.2979477801554076e+04 1.0000000000000000e+00 2.0000000000000000e+01 1.4000000000000000e+01 1.0000000000000000e+00 
228 2 4 2.2559723595316457e+00 -1.2981507457498161e+04 1.0000000000000000e+00 2.2000000000000000e+01 1.4000000000000000e+01 1.0000000000000000e+00 
248 2 4 2.2559723595316457e+00 -1.2980487548437157e+04 1.0000000000000000e+00 2.4000000000000000e+01 1.4000000000000000e+01 1.0000000000000000e+00 
268 2 4 2.2559723595316457e+00 -1.2977781960514014e+04 1.0000000000000000e+00 2.6000000000000000e+01 1.4000000000000000e+01 1.0000000000000000e+00 
288 2 4 2.2559723595316457e+00 -1.2981353661380548e+04 1.0000000000000000e+00 2.8000000000000000e+01 1.4000000000000000e+01 1.0000000000000000e+00 
308 2 4 2.2559723595316457e+00 -1.2976686913525744e+04 1.0000000000000000e+00 3.0000000000000000e+01 1.4000000000000000e+01 1.0000000000000000e+00 
328 2 4 2.2559723595316457e+00 -1.2981399777014383e+04 1.0000000000000000e+00 3.2000000000000000e+01 1.4000000000000000e+01 1.0000000000000000e+00 
9 2 4 2.2559723595316457e+00 2.1210210629292868e-02 1.0000000000000000e+00 0.0000000000000000e+00 1.6000000000000000e+01 1.0000000000000000e+00 
29 2 4 2.2559723595316457e+00 1.2773817099505629e+00 1.0000000000000000e+00 2.0000000000000000e+00 1.6000000000000000e+01 1.0000000000000000e+00 
49 2 4 2.2559723595316457e+00 1.5722915242598654e-06 1.0000000000000000e+00 4.0000000000000000e+00 1.6000000000000000e+01 1.0000000000000000e+00 
69 2 4 2.2559723595316457e+00 -6.3360648497109623e+03 1.0000000000000000e+00 6.0000000000000000e+00 1.6000000000000000e+01 1.0000000000000000e+00 
89 2 4 2.2559723595316457e+00 -1.2943135519489389e+04 1.0000000000000000e+00 8.0000000000000000e+00 1.6000000000000000e+01 1.0000000000000000e+00 
109 2 4 2.2559723595316457e+00 -1.2988837222837108e+04 1.0000000000000000e+00 1.0000000000000000e+01 1.6000000000000000e+01 1.0000000000000000e+00 
129 2 4 2.2559723595316457e+00 -1.2977580529962246e+04 1.0000000000000000e+00 1.2000000000000000e+01 1.6000000000000000e+01 1.0000000000000000e+00 
149 2 4 2.2559723595316457e+00 -1.2981877022531196e+04 1.0000000000000000e+00 1.4000000000000000e+01 1.6000000000000000e+01 1.0000000000000000e+00 
169 2 4 2.2559723595316457e+00 -1.3002416827191635e+04 1.0000000000000000e+00 1.6000000000000000e+01 1.6000000000000000e+01 1.0000000000000000e+00 
189 2 4 2.2559723595316457e+00 -1.2963651886080181e+04 1.0000000000000000e+00 1.8000000000000000e+01 1.6000000000000000e+01 1.0000000000000000e+00 
209 2 4 2.2559723595316457e+00 -1.2895670092285431e+04 1.0000000000000000e+00 2.0000000000000000e+01 1.6000000000000000e+01 1.0000000000000000e+00 
229 2 4 2.2559723595316457e+00 -1.2910103195721917e+04 1.0000000000000000e+00 2.2000000000000000e+01 1.6000000000000000e+01 1.0000000000000000e+00 
249 2 4 2.2559723595316457e+00 -1.2924831205920402e+04 1.0000000000000000e+00 2.4000000000000000e+01 1.6000000000000000e+01 1.0000000000000000e+00 
269 2 4 2.2559723595316457e+00 -1.3002308243507836e+04 1.0000000000000000e+00 2.6000000000000000e+01 1.6000000000000000e+01 1.0000000000000000e+00 
289 2 4 2.2559723595316457e+00 -1.2972861121218344e+04 1.0000000000000000e+00 2.8000000000000000e+01 1.6000000000000000e+01 1.0000000000000000e+00 
309 2 4 2.2559723595316457e+00 -1.2962122187601422e+04 1.0000000000000000e+00 3.0000000000000000e+01 1.6000000000000000e+01 1.0000000000000000e+00 
329 2 4 2.2559723595316457e+00 -1.2974313217474191e+04 1.0000000000000000e+00 3.2000000000000000e+01 1.6000000000000000e+01 1.0000000000000000e+00 
10 2 4 2.2559723595316457e+00 5.7167130923410858e-01 1.0000000000000000e+00 0.0000000000000000e+00 1.8000000000000000e+01 1.0000000000000000e+00 
30 2 4 2.2559723595316457e+00 2.5537328212841638e-02 1.0000000000000000e+00 2.0000000000000000e+00 1.8000000000000000e+01 1.0000000000000000e+00 
50 2 4 2.2559723595316457e+00 -1.3612571861673139e-02 1.0000000000000000e+00 4.0000000000000000e+00 1.8000000000000000e+01 1.0000000000000000e+00 
70 2 4 2.2559723595316457e+00 -6.3410476347985177e+03 1.0000000000000000e+00 6.0000000000000000e+00 1.8000000000000000e+01 1.0000000000000000e+00 
90 2 4 2.2559723595316457e+00 -1.2943193840625105e+04 1.0000000000000000e+00 8.0000000000000000e+00 1.8000000000000000e+01 1.0000000000000000e+00 
110 2 4 2.2559723595316457e+00 -1.2995034752735810e+04 1.0000000000000000e+00 1.0000000000000000e+01 1.8000000000000000e+01 1.0000000000000000e+00 
130 2 4 2.2559723595316457e+00 -1.3005093223787459e+04 1.0000000000000000e+00 1.2000000000000000e+01 1.8000000000000000e+01 1.0000000000000000e+00 
150 2 4 2.2559723595316457e+00 -1.2977518998673755e+04 1.0000000000000000e+00 1.4000000000000000e+01 1.8000000000000000e+01 1.0000000000000000e+00 
170 2 4 2.2559723595316457e+00 -1.2981122498308538e+04 1.0000000000000000e+00 1.6000000000000000e+01 1.8000000000000000e+01 1.0000000000000000e+00 
190 2 4 2.2559723595316457e+00 -1.2981601788299913e+04 1.0000000000000000e+00 1.8000000000000000e+01 1.8000000000000000e+01 1.0000000000000000e+00 
210 2 4 2.2559723595316457e+00 -1.2997687569734302e+04 1.0000000000000000e+00 2.0000000000000000e+01 1.8000000000000000e+01 1.0000000000000000e+00 
230 2 4 2.2559723595316457e+00 -1.3083099564457776e+04 1.0000000000000000e+00 2.2000000000000000e+01 1.8000000000000000e+01 1.0000000000000000e+00 
250 2 4 2.2559723595316457e+00 -1.2945367780420849e+04 1.0000000000000000e+00 2.4000000000000000e+01 1.8000000000000000e+01 1.0000000000000000e+00 
270 2 4 2.2559723595316457e+00 -1.2991322649008576e+04 1.0000000000000000e+00 2.6000000000000000e+01 1.8000000000000000e+01 1.0000000000000000e+00 
290 2 4 2.2559723595316457e+00 -1.3006182449555748e+04 1.0000000000000000e+00 2.8000000000000000e+01 1.8000000000000000e+01 1.0000000000000000e+00 
310 2 4 2.2559723595316457e+00 -1.2974165277840575e+04 1.0000000000000000e+00 3.0000000000000000e+01 1.8000000000000000e+01 1.0000000000000000e+00 
330 2 4 2.2559723595316457e+00 -1.2979666842018327e+04 1.0000000000000000e+00 3.2000000000000000e+01 1.8000000000000000e+01 1.0000000000000000e+00 
1897 899 2 1.0279999449980004e+00 9.4911758173178750e+03 1.0000000000000000e+00 3.3108793878811390e+01 8.3823900585642814e+00 3.8389836036593632e+00 
5324 4326 2 1.0280000214169467e+00 6.6251533782591387e+03 1.0000000000000000e+00 3.1694959769270842e+01 9.5747959218026502e+00 3.9536127288568021e+00 
3816 2818 2 1.0279999423199142e+00 -1.7492712414101893e+03 1.0000000000000000e+00 3.1566447311345900e+01 1.0429472651916747e+01 3.9440400143532153e+00 
1103 105 2 1.0279999448392256e+00 4.8834071131584287e+03 1.0000000000000000e+00 3.2774864092960648e+01 1.0553711965678964e+01 3.9309198679964874e+00 
2304 1306 2 1.0279999642599391e+00 4.4467891610667630e+03 1.0000000000000000e+00 3.1052008865197731e+01 7.3815600449215610e+00 5.6969360514688745e+00 
2511 1513 2 1.0280001807132169e+00 3.1492539364021704e+03 1.0000000000000000e+00 3.2879101557223400e+01 7.9568112727101745e+00 5.2112855060191530e+00 
1963 965 2 1.0279999972503522e+00 -9.4327744190695121e+03 1.0000000000000000e+00 1.9269465853008708e+01 8.8545302749484165e+00 4.8981759618489491e+00 
2299 1301 2 1.0279999994099533e+00 7.0846142254679253e+03 1.0000000000000000e+00 1.8407776982048070e+01 9.0175981153401814e+00 5.0167139439019310e+00 
5297 4299 2 1.0280000012329746e+00 2.5577801184664349e+03 1.0000000000000000e+00 1.8810571320381275e+01 9.9625744460199730e+00 4.0174629895920715e+00 
1923 925 2 1.0280000020861761e+00 1.2809887596607291e+03 1.0000000000000000e+00 2.0290132779351559e+01 9.9589684407385004e+00 5.7452004927601221e+00 
2343 1345 2 1.0280000007787895e+00 4.3024966867514477e+03 1.0000000000000000e+00 2.2162128547590200e+01 8.8631307863974076e+00 5.9503611208439873e+00 
4909 3911 2 1.0280000017963749e+00 -3.3741168167531368e+03 1.0000000000000000e+00 2.6239440585813313e+01 8.3812956531984906e+00 5.4799056378781437e+00 
1673 675 2 1.0280000012190473e+00 2.6963668602397647e+03 1.0000000000000000e+00 2.6255651798515569e+01 8.3890091418811465e+00 5.4519514978932833e+00 
1718 720 2 1.0280000039359258e+00 -2.7256517631510569e+03 1.0000000000000000e+00 2.8057283874069981e+01 8.5863458006637199e+00 5.4031360397940853e+00 
1882 884 2 1.0280000014591493e+00 2.6739155766195381e+03 1.0000000000000000e+00 2.8608157864428421e+01 8.6631946119981098e+00 5.6501575304937122e+00 
3981 2983 2 1.0279999988039334e+00 4.8705732409446409e+03 1.0000000000000000e+00 1.9028375394356768e+01 1.1372804403665105e+01 4.3099387525666177e+00 
3812 2814 2 1.0279999957706409e+00 -1.0482266856077284e+04 1.0000000000000000e+00 1.9281103189199634e+01 1.1392303154132657e+01 4.3166503497482882e+00 
2722 1724 2 1.0280000028895224e+00 2.4727927882109843e+03 1.0000000000000000e+00 2.0961181598497436e+01 1.0310285155233959e+01 4.9336043637212637e+00 
1880 882 2 1.0279999950779120e+00 3.3182662281764478e+03 1.0000000000000000e+00 2.2659000686747444e+01 1.0349991931388390e+01 4.6641239803912242e+00 
1168 170 2 1.0280000008858194e+00 5.7298082917967565e+02 1.0000000000000000e+00 2.2344558749596086e+01 1.0773146660603819e+01 4.6519513555067222e+00 
4992 3994 2 1.0280002240065425e+00 3.8947966269520912e+03 1.0000000000000000e+00 3.2820131790943940e+01 1.0457135281751262e+01 5.1264444948167913e+00 
1879 881 2 1.0280000115290249e+00 1.8770366667819833e+03 1.0000000000000000e+00 2.9370513195519663e+01 5.5602270059168104e+00 7.7214650054265261e+00 
1462 464 2 1.0280000082220866e+00 -3.3578979650524307e+03 1.0000000000000000e+00 3.0269819974820120e+01 5.6141884316780128e+00 6.4229294000363986e+00 
2719 1721 2 1.0280000426438247e+00 3.9099815582635019e+03 1.0000000000000000e+00 3.0733897083153987e+01 6.0004663473656183e+00 6.1265649279240257e+00 
3223 2225 2 1.0279999692299684e+00 -3.7662945414673942e+02 1.0000000000000000e+00 2.9726161100086426e+01 7.2971480358937315e+00 7.3734154884153282e+00 
3310 2312 2 1.0280000529259237e+00 -2.4410330099120220e+03 1.0000000000000000e+00 3.1344456571155192e+01 7.5574984794675464e+00 7.8955903153877101e+00 
5261 4263 2 1.0279999647518903e+00 4.8709056728033947e+03 1.0000000000000000e+00 3.2697377202188427e+01 7.0056050539538477e+00 6.3013847189415158e+00 
1460 462 2 1.0280000020292623e+00 -2.0921691686852483e+02 1.0000000000000000e+00 2.2927083044136495e+01 8.7427396631826202e+00 6.3579027801603036e+00 
1376 378 2 1.0279999859844149e+00 1.3839676771224310e+01 1.0000000000000000e+00 2.4130756576720774e+01 9.2754156818210127e+00 7.1586954751609477e+00 
5245 4247 2 1.0280000016045954e+00 1.4877296430023662e+04 1.0000000000000000e+00 2.6635067256530888e+01 9.0496375025498672e+00 6.9480635561545787e+00 