LAMMPS data file via write_data, version 30 Jul 2016, timestep = 50000000

180 atoms
2 atom types

0.0000000000000000e+00 2.0000000000000000e+01 xlo xhi
0.0000000000000000e+00 2.0000000000000000e+01 ylo yhi
0.0000000000000000e+00 2.0000000000000000e+01 zlo zhi

Masses

1 3.896
2 4.31

Atoms # meso-molecular

88 1 2 1.0279999925138525e+00 -3.9871789708079473e+02 1.0000000000000000e+00 1.1149681239990072e+00 9.2363580203494884e+00 2.1617760515140110e+00 
22 1 2 1.0279999908968542e+00 -2.0534417829936933e+02 1.0000000000000000e+00 1.1365713556825323e+00 9.2329062311521355e+00 2.2078659498459330e+00 
173 1 2 1.0279999937052420e+00 -3.9208221993628536e+02 1.0000000000000000e+00 1.1422479379325199e+00 9.2680719635081470e+00 2.1554870754279229e+00 
120 1 2 1.0280000013093145e+00 -2.8794273472358663e+02 1.0000000000000000e+00 1.2012256492812379e+00 9.3605141900238138e+00 2.0489994306069272e+00 
176 1 2 1.0280000047400311e+00 -3.4939938397172455e+02 1.0000000000000000e+00 1.1592157808206061e+00 9.3722546897566623e+00 1.9700246009821341e+00 
90 1 2 1.0280000083490932e+00 -3.1105577455180162e+02 1.0000000000000000e+00 1.1463484043309298e+00 9.3991066597349278e+00 1.8792433542695526e+00 
54 1 2 1.0280000118515875e+00 -3.2473975194042407e+02 1.0000000000000000e+00 1.2459196300017608e+00 9.4343923965024530e+00 1.9217685656750390e+00 
101 1 2 1.0279999675806506e+00 -2.7911801724328757e+02 1.0000000000000000e+00 8.1905179936449779e-01 9.6486539152664061e+00 2.3710502780967124e-01 
16 1 2 1.0280000113426604e+00 -3.9453579604288615e+02 1.0000000000000000e+00 1.9889955215529593e+00 9.6784002062188090e+00 5.2666576548829180e-01 
82 1 2 1.0280000194580683e+00 -2.6775981220874314e+02 1.0000000000000000e+00 1.1996234502731224e+00 9.7702380067698922e+00 1.1268700107524239e+00 
53 1 2 1.0280000165486940e+00 -3.4096458411622200e+02 1.0000000000000000e+00 1.1934384883493681e+00 9.7995788990922179e+00 1.0792052347170913e+00 
75 1 2 1.0280000122380768e+00 -3.1246129378596549e+02 1.0000000000000000e+00 2.3240308427163558e+00 9.9693959364211828e+00 3.6509480246843501e-02 
74 1 2 1.0280000092840669e+00 -4.2369390749004356e+02 1.0000000000000000e+00 2.7033653698780777e+00 4.9984899109217675e+00 4.0124531342120324e+00 
44 1 2 1.0280000315937727e+00 -3.7685280325969848e+02 1.0000000000000000e+00 2.1534750755208840e+00 6.4076195117384920e+00 6.3051036349235421e+00 
162 1 2 1.0280000323909668e+00 -3.0759224209604741e+02 1.0000000000000000e+00 2.2062183602342240e+00 6.5057076452409168e+00 6.4082946116864505e+00 
18 1 2 1.0280000078498768e+00 -2.4675927004974636e+02 1.0000000000000000e+00 2.8016934975000320e+00 5.1283174305381731e+00 3.9685957572993007e+00 
147 1 2 1.0280000077194349e+00 -3.7472621060756717e+02 1.0000000000000000e+00 2.8177673627492665e+00 5.1855626371368810e+00 3.9561646638235430e+00 
21 1 2 1.0280000073426652e+00 -3.6384459861458737e+02 1.0000000000000000e+00 2.8228573277633831e+00 5.1085849111770765e+00 3.9741647442467474e+00 
69 1 2 1.0280000070485837e+00 -3.6366162261259615e+02 1.0000000000000000e+00 2.8452035468796333e+00 5.1544642991763219e+00 3.9647647624063316e+00 
79 1 2 1.0280000025420946e+00 -3.1643007044718030e+02 1.0000000000000000e+00 3.1229196031771487e+00 4.1491645617698252e+00 5.3290964429376073e+00 
125 1 2 1.0280000025942915e+00 -3.7758763968298831e+02 1.0000000000000000e+00 3.1268692014784745e+00 4.1517300644497332e+00 5.3389535587919807e+00 
91 1 2 1.0280000025651206e+00 -2.9924657275877973e+02 1.0000000000000000e+00 3.1260333134104967e+00 4.1509398995930393e+00 5.3356925925078436e+00 
46 1 2 1.0280000025639573e+00 -4.1579767395382999e+02 1.0000000000000000e+00 3.1260813115024004e+00 4.1509475730401384e+00 5.3356960301389558e+00 
153 1 2 1.0280000025675500e+00 -2.8662993766447630e+02 1.0000000000000000e+00 3.1247572343724821e+00 4.1503643067326532e+00 5.3337661913409713e+00 
121 1 2 1.0280000025475178e+00 -2.5606157040395942e+02 1.0000000000000000e+00 3.1243041358110530e+00 4.1498857420091309e+00 5.3317169508082909e+00 
133 1 2 1.0280000024782048e+00 -2.8926193604039474e+02 1.0000000000000000e+00 3.1262999280795811e+00 4.1499201908825070e+00 5.3304551320830393e+00 
130 1 2 1.0279999987623203e+00 -3.2725738371719763e+02 1.0000000000000000e+00 3.4705380052489798e+00 4.3814303188258181e+00 5.5971195296083405e+00 
40 1 2 1.0279999945768807e+00 -2.8716535104959098e+02 1.0000000000000000e+00 3.3919774631996433e+00 4.6800753655923160e+00 4.3333291475436253e+00 
129 1 2 1.0279999947146292e+00 -3.2275783213973250e+02 1.0000000000000000e+00 3.3899366659798056e+00 4.6947784253164571e+00 4.3238211763798873e+00 
77 1 2 1.0280000040719537e+00 -2.9535532833466539e+02 1.0000000000000000e+00 1.3745455589236610e+00 7.6219244210925323e+00 4.2279533671244982e+00 
49 1 2 1.0280000041027848e+00 -4.3795139486629029e+02 1.0000000000000000e+00 1.3745929409980906e+00 7.6214564663316322e+00 4.2281531185487973e+00 
108 1 2 1.0280000045297861e+00 -3.0451095071504812e+02 1.0000000000000000e+00 1.3754242512758312e+00 7.6142436511578016e+00 4.2321460877397614e+00 
28 1 2 1.0280000046806106e+00 -2.4357129993787936e+02 1.0000000000000000e+00 1.3757457218810827e+00 7.6115738235995405e+00 4.2337281390976322e+00 
32 1 2 1.0280000032898553e+00 -4.6968900734786899e+02 1.0000000000000000e+00 1.3723354670487806e+00 7.6378598219380969e+00 4.2150841566659469e+00 
17 1 2 1.0280000019986268e+00 -3.3932746216754271e+02 1.0000000000000000e+00 1.3694713979246811e+00 7.6607031136595163e+00 4.1986413274938288e+00 
150 1 2 1.0279999939990816e+00 -3.0263936625201552e+02 1.0000000000000000e+00 1.3594451039958411e+00 7.7663901983880361e+00 4.1361172338395749e+00 
114 1 2 1.0279999777172253e+00 -2.6945620671107957e+02 1.0000000000000000e+00 1.3353522247201792e+00 7.9683871799507626e+00 3.8978226610747528e+00 
177 1 2 1.0279999733220526e+00 -4.0889821944292828e+02 1.0000000000000000e+00 1.3435098912823815e+00 7.9685462411011381e+00 3.9656607173952398e+00 
135 1 2 1.0279999768526937e+00 -3.7556396257775270e+02 1.0000000000000000e+00 3.0862139198512422e+00 8.8046393516459656e+00 6.0282489979894160e+00 
148 1 2 1.0279999773518289e+00 -4.2291560191120823e+02 1.0000000000000000e+00 3.1192839180160048e+00 8.8146151963140440e+00 6.0265800434643788e+00 
115 1 2 1.0279999570775680e+00 -4.1384953944532725e+02 1.0000000000000000e+00 3.2502917022770581e+00 8.4292228603172994e+00 5.5132112979007939e+00 
2 1 2 1.0280000000874268e+00 -3.6212982868188669e+02 1.0000000000000000e+00 4.2663711618535203e+00 7.9875588014533747e+00 6.2631075984306319e+00 
25 1 2 1.0279999984041270e+00 -3.6567941824756872e+02 1.0000000000000000e+00 4.1507711843147179e+00 8.0488336407891445e+00 6.0993192127056215e+00 
65 1 2 1.0279999972836049e+00 -2.8607663510467523e+02 1.0000000000000000e+00 4.0984064808512102e+00 8.0818364613046505e+00 6.0354460952883171e+00 
76 1 2 1.0279999974208429e+00 -2.7185471606696257e+02 1.0000000000000000e+00 4.1047837646212990e+00 8.0786127811190891e+00 6.0429653360573061e+00 
169 1 2 1.0279999977777234e+00 -3.6521550550193672e+02 1.0000000000000000e+00 4.1222859542916650e+00 8.0705006931994223e+00 6.0640522329198694e+00 
10 1 2 1.0279999911884605e+00 -4.4008551253709203e+02 1.0000000000000000e+00 3.8804605031411037e+00 8.1993799369296472e+00 5.8232281944629527e+00 
117 1 2 1.0279999606363399e+00 -2.8361435553485217e+02 1.0000000000000000e+00 2.4716319650216496e+00 4.8566654294233835e+00 9.5710285072013210e+00 
31 1 2 1.0279999376495426e+00 -3.1392009647024889e+02 1.0000000000000000e+00 2.4200066428646028e+00 4.8903897142933372e+00 9.9384481489957039e+00 
94 1 2 1.0280001248240946e+00 -4.1219942610431201e+02 1.0000000000000000e+00 2.9185815758150637e+00 5.3125502830057005e+00 8.7121107519690124e+00 
143 1 2 1.0280003164695168e+00 -3.8482798704751809e+02 1.0000000000000000e+00 3.0245456870826719e+00 5.4285059092500987e+00 8.4806377245822659e+00 
138 1 2 1.0280000758020464e+00 -3.5584543881400384e+02 1.0000000000000000e+00 3.0612330582540648e+00 5.5510653640921079e+00 8.6306012090820996e+00 
119 1 2 1.0280000379115137e+00 -3.2638212177336834e+02 1.0000000000000000e+00 3.0830176425306361e+00 5.5732889935673979e+00 8.6413754177036193e+00 
157 1 2 1.0280000262401734e+00 -2.7104931356780958e+02 1.0000000000000000e+00 3.0912154259752165e+00 5.5813829129356813e+00 8.6385611762580687e+00 
106 1 2 1.0280000305433736e+00 -3.6051719194391154e+02 1.0000000000000000e+00 3.0881095279396917e+00 5.5782777633735172e+00 8.6401524403052861e+00 
112 1 2 1.0280000327128853e+00 -2.2839191566367614e+02 1.0000000000000000e+00 3.0863635716515523e+00 5.5764453906081908e+00 8.6414383294864834e+00 
172 1 2 1.0279996881639282e+00 -4.4824131543790929e+02 1.0000000000000000e+00 3.1367742428636545e+00 5.7712902408755866e+00 8.4427559632076807e+00 
70 1 2 1.0279996696868612e+00 -3.1631530903568097e+02 1.0000000000000000e+00 3.1602011551204181e+00 5.7235490424199238e+00 8.4834650599683723e+00 
161 1 2 1.0279999160609750e+00 -3.5933777710993513e+02 1.0000000000000000e+00 2.2240068712221470e+00 4.5803721597718301e+00 9.9977875900645010e+00 
1 1 2 1.0280000093173043e+00 -3.4958500797214498e+02 1.0000000000000000e+00 3.1928657603817023e+00 9.5068425867829358e+00 7.6624688618606722e+00 
160 1 2 1.0280000055462433e+00 -3.9785065769871790e+02 1.0000000000000000e+00 3.8954239430473030e+00 9.4472092185948444e+00 8.5934477061804238e+00 
11 1 2 1.0279999966121698e+00 -3.7883038143315912e+02 1.0000000000000000e+00 4.6316052807540906e+00 7.7813647660991805e+00 7.2988533138136891e+00 
166 1 2 1.0279999907843507e+00 -2.8802443650467933e+02 1.0000000000000000e+00 4.5826460438636296e+00 8.1638699730306481e+00 8.3081637497177212e+00 
29 1 2 1.0280000048393658e+00 -2.3620934176375135e+02 1.0000000000000000e+00 3.8966319417264814e+00 9.3967084558497582e+00 8.6345259964971248e+00 
179 1 2 1.0280000052120775e+00 -3.7495243308433606e+02 1.0000000000000000e+00 3.8862908452861715e+00 9.4121886470884846e+00 8.6230680967640243e+00 
100 1 2 1.0280000051502576e+00 -4.0776477756539418e+02 1.0000000000000000e+00 3.8881070792292092e+00 9.4096886336511645e+00 8.6249585363652272e+00 
163 1 2 1.0280000051260434e+00 -2.9389033098295522e+02 1.0000000000000000e+00 3.8886828727372045e+00 9.4085751952439995e+00 8.6258055944110144e+00 
41 1 2 1.0280000050595506e+00 -3.7368131258989666e+02 1.0000000000000000e+00 3.8905523309523429e+00 9.4058276461163732e+00 8.6278591401761258e+00 
73 1 2 1.0280000050561620e+00 -4.3618760459363489e+02 1.0000000000000000e+00 3.8905449020673188e+00 9.4055858006565511e+00 8.6280476868800200e+00 
144 1 2 1.0280000050345635e+00 -3.1497258994521030e+02 1.0000000000000000e+00 3.8919592956910343e+00 9.4055119709607542e+00 8.6280308912337862e+00 
154 1 2 1.0280000049692797e+00 -4.1042435817276487e+02 1.0000000000000000e+00 3.8924611894062422e+00 9.4014879749880080e+00 8.6311156925739496e+00 
43 1 2 1.0280000049178342e+00 -4.3252386923624721e+02 1.0000000000000000e+00 3.8947986169626820e+00 9.4002804172517873e+00 8.6319109879557292e+00 
116 1 2 1.0279999434129889e+00 -3.5808437519953975e+02 1.0000000000000000e+00 2.7288645094338428e+00 2.9915707123516428e+00 1.1621887984436579e+01 
87 1 2 1.0280000525582962e+00 -2.6744339443504799e+02 1.0000000000000000e+00 1.3189557309262567e+00 2.8711387995404714e+00 1.3261893994554150e+01 
36 1 2 1.0280000275732832e+00 -4.4037831962639137e+02 1.0000000000000000e+00 4.4154903562401522e+00 3.3328243854051505e+00 1.0939875020196489e+01 
142 1 2 1.0280000272479015e+00 -3.7690727665432036e+02 1.0000000000000000e+00 4.4118876404078469e+00 3.3297169684334422e+00 1.0945109958383240e+01 
156 1 2 1.0280000271323888e+00 -2.7379325437034845e+02 1.0000000000000000e+00 4.4106106687925903e+00 3.3286203183254357e+00 1.0946929137594571e+01 
93 1 2 1.0280000271336982e+00 -2.6936071529358662e+02 1.0000000000000000e+00 4.4106252805016739e+00 3.3286341525141552e+00 1.0946910989203817e+01 
83 1 2 1.0280000271283367e+00 -3.3944642853888445e+02 1.0000000000000000e+00 4.4105661867305148e+00 3.3285837424911913e+00 1.0946995288365926e+01 
42 1 2 1.0280000271312983e+00 -2.3462445929006716e+02 1.0000000000000000e+00 4.4105988584489673e+00 3.3286115764563982e+00 1.0946948614962324e+01 
37 1 2 1.0279999655235432e+00 -2.8783069429561897e+02 1.0000000000000000e+00 3.4456768484718183e+00 3.0798109966538720e+00 1.1562873846668388e+01 
81 1 2 1.0279999930141197e+00 -2.9840512643044872e+02 1.0000000000000000e+00 1.9946329991252928e-01 3.3895656283081284e+00 1.2006245604248798e+01 
13 1 2 1.0279999941243965e+00 -4.6533354465067600e+02 1.0000000000000000e+00 1.8552712172734590e-01 3.4100361358547771e+00 1.2016336652271972e+01 
168 1 2 1.0279999939699747e+00 -3.4553973290413273e+02 1.0000000000000000e+00 1.8742437179888113e-01 3.4070818142861334e+00 1.2014936674900873e+01 
67 1 2 1.0279999050662427e+00 -2.5792857239510033e+02 1.0000000000000000e+00 1.9342472110251980e+00 3.4724521169249862e+00 1.0681769501955985e+01 
140 1 2 1.0280000032377710e+00 -4.3644875264592019e+02 1.0000000000000000e+00 1.1220120039845849e-01 3.4944509416373970e+00 1.2114062342971659e+01 
26 1 2 1.0279999908707056e+00 -4.0196971178058857e+02 1.0000000000000000e+00 1.8951000709735366e-01 3.4827855871874336e+00 1.1979181265595434e+01 
149 1 2 1.0279999987288331e+00 -3.9854048036523386e+02 1.0000000000000000e+00 1.3653385674252291e-01 3.5649059812846398e+00 1.2054846273604667e+01 
122 1 2 1.0279999986749162e+00 -3.5758662358270578e+02 1.0000000000000000e+00 1.3666701645613613e-01 3.5554837372846935e+00 1.2054986178151847e+01 
126 1 2 1.0279999992149509e+00 -4.0525533548863325e+02 1.0000000000000000e+00 1.3339172543980593e-01 3.5540551396739013e+00 1.2061186677381167e+01 
80 1 2 1.0279999936846134e+00 -3.0388813186167283e+02 1.0000000000000000e+00 1.6965949813899081e-01 3.5944716948215070e+00 1.1997961875769990e+01 
35 1 2 1.0280000029765197e+00 -4.2339551377217481e+02 1.0000000000000000e+00 1.4838398245822296e-01 3.7490758175129897e+00 1.2090340591268733e+01 
178 1 2 1.0279999914563660e+00 -3.3699920855261439e+02 1.0000000000000000e+00 2.6186145815437822e-01 3.8100915578108232e+00 1.1944804803921333e+01 
175 1 2 1.0280000294910527e+00 -4.6745039782152168e+02 1.0000000000000000e+00 4.4365307999666861e+00 3.3481212737228385e+00 1.0898372667750932e+01 
34 1 2 1.0280000277732768e+00 -3.4885268788378892e+02 1.0000000000000000e+00 4.4177098996928255e+00 3.3347453290874740e+00 1.0936564613105896e+01 
39 1 2 1.0280000309973958e+00 -3.7489405246279557e+02 1.0000000000000000e+00 4.4560321963972642e+00 3.3765554254274646e+00 1.0884129416279306e+01 
7 1 2 1.0280000362498583e+00 -4.5894371530249089e+02 1.0000000000000000e+00 4.5372818352802797e+00 3.5053671230332415e+00 1.0676002127106058e+01 
110 1 2 1.0280000187897087e+00 -3.6153879820144522e+02 1.0000000000000000e+00 3.9423234351940133e+00 4.3228267664599116e+00 1.1317212092314987e+01 
63 1 2 1.0280000287405078e+00 -3.7431905578926370e+02 1.0000000000000000e+00 6.3359930777865292e-01 3.0207367694100529e+00 1.4065749184436454e+01 
132 1 2 1.0280000678385866e+00 -2.6324731480489817e+02 1.0000000000000000e+00 2.0550958192068913e+00 2.6525120353864375e+00 1.5114050551942718e+01 
86 1 2 1.0279999833281190e+00 -2.7849153690971144e+02 1.0000000000000000e+00 2.8517907949138608e+00 1.6027706672521749e+00 1.5402313363600767e+01 
137 1 2 1.0279999966972910e+00 -3.7594930103862589e+02 1.0000000000000000e+00 3.2424252233950885e+00 6.2514921151478531e-01 1.6475801792714883e+01 
139 1 2 1.0279999808898057e+00 -3.9613432196076542e+02 1.0000000000000000e+00 3.4113969558776644e+00 1.5367307826167054e+00 1.5967236277866125e+01 
118 1 2 1.0279999830524724e+00 -2.4452495422510992e+02 1.0000000000000000e+00 3.3948988395951130e+00 1.5069081622183087e+00 1.6017609641871434e+01 
6 1 2 1.0279999863310891e+00 -2.8892609840329897e+02 1.0000000000000000e+00 3.5813269978419493e+00 1.4451667953060383e+00 1.5344559599914977e+01 
8 1 2 1.0279999942496985e+00 -3.6657793249653577e+02 1.0000000000000000e+00 3.3413739798520399e+00 1.2448129525535687e+00 1.6267659328508969e+01 
84 1 2 1.0280000007661874e+00 -3.0318260600830558e+02 1.0000000000000000e+00 3.6849520581592059e+00 1.1511729117526499e+00 1.5154203136035775e+01 
97 1 2 1.0280000113747341e+00 -3.3442087848156041e+02 1.0000000000000000e+00 3.7777099196826560e+00 1.7210172664339823e-01 1.5082610018124550e+01 
89 1 2 1.0279999930085746e+00 -3.2546108196057446e+02 1.0000000000000000e+00 3.3667270805267524e+00 2.0186798722028023e-02 1.6383877007909589e+01 
159 1 2 1.0279999730330260e+00 -3.4545866770687240e+02 1.0000000000000000e+00 2.7223928682386322e+00 3.3777927997051838e+00 1.5072214101717508e+01 
27 1 2 1.0279999892279208e+00 -4.0541391566424153e+02 1.0000000000000000e+00 1.1055343035972215e-01 3.5329648552450101e+00 1.4924813668794625e+01 
165 1 2 1.0279999902852233e+00 -2.7820354711284631e+02 1.0000000000000000e+00 1.1666141149606270e-01 3.5126242534363987e+00 1.5073683445779915e+01 
14 1 2 1.0279999926975087e+00 -3.6748493695561280e+02 1.0000000000000000e+00 2.5895644668306321e+00 4.1477542170644641e+00 1.6554901223202158e+01 
134 1 2 1.0280000171071946e+00 -2.2280554415955100e+02 1.0000000000000000e+00 2.4028126233027547e+00 4.7430203792434575e+00 1.4485714587832135e+01 
141 1 2 1.0280000059974217e+00 -3.5224851653491413e+02 1.0000000000000000e+00 2.4980684267631017e+00 4.7683610554468938e+00 1.4653593006594635e+01 
59 1 2 1.0280000129126392e+00 -2.1805531883031352e+02 1.0000000000000000e+00 2.4041157445172012e+00 4.8068191307083179e+00 1.4547436502027992e+01 
146 1 2 1.0280000129367945e+00 -3.2759955069709787e+02 1.0000000000000000e+00 2.4042970231640619e+00 4.8061236059213437e+00 1.4547038469517572e+01 
109 1 2 1.0280000129354046e+00 -4.2545623416698993e+02 1.0000000000000000e+00 2.4043458688230386e+00 4.8060705257401164e+00 1.4547056995459084e+01 
155 1 2 1.0280000129357916e+00 -3.1747805027482593e+02 1.0000000000000000e+00 2.4043482712501216e+00 4.8060601475305633e+00 1.4547050636319153e+01 
111 1 2 1.0279999913034570e+00 -2.9953005438222891e+02 1.0000000000000000e+00 2.7388388715087388e+00 4.8908569317623192e+00 1.5267137518168500e+01 
102 1 2 1.0280000113344372e+00 -2.9026433002663271e+02 1.0000000000000000e+00 2.1794442317832368e+00 6.1235159791644307e+00 1.5690786359947552e+01 
131 1 2 1.0280000122445192e+00 -3.3377262168247114e+02 1.0000000000000000e+00 1.9762257359170159e+00 6.2517132048974400e+00 1.5653391245075293e+01 
72 1 2 1.0280000140267487e+00 -4.2743667137266124e+02 1.0000000000000000e+00 2.0569033404752037e+00 6.2827375816829418e+00 1.5760989506052873e+01 
61 1 2 1.0280000023664198e+00 -3.5273063497152373e+02 1.0000000000000000e+00 1.1870847548434948e+00 4.0973143861557819e+00 1.7524355925749663e+01 
38 1 2 1.0280000026984994e+00 -2.8869288785478989e+02 1.0000000000000000e+00 1.4497615415698917e+00 4.2679336519002522e+00 1.7556031098676971e+01 
95 1 2 1.0280000028146989e+00 -3.9863586999346984e+02 1.0000000000000000e+00 1.6371910903447671e+00 4.4267870436034045e+00 1.7553233551180689e+01 
64 1 2 1.0280000007691019e+00 -3.9161810626821739e+02 1.0000000000000000e+00 6.9213905493911176e-01 4.5097293011304993e+00 1.7726821322553707e+01 
12 1 2 1.0280000021063622e+00 -3.4429164502589879e+02 1.0000000000000000e+00 1.2298433632819443e+00 5.0459569765634900e+00 1.7864880503598286e+01 
3 1 2 1.0279999923501260e+00 -2.9870586037278701e+02 1.0000000000000000e+00 3.2012637883143064e-01 5.7850665604756246e+00 1.7622232633120337e+01 
56 1 2 1.0280000045665989e+00 -3.5488802360506588e+02 1.0000000000000000e+00 1.9186628671373258e+00 5.8731363943631019e+00 1.7560856814766460e+01 
167 1 2 1.0280000046224858e+00 -3.8301395629227216e+02 1.0000000000000000e+00 1.9028294595484549e+00 5.9597893837905076e+00 1.7560847298764010e+01 
62 1 2 1.0279999859150610e+00 -3.2063139959967737e+02 1.0000000000000000e+00 5.7638892157764032e-01 6.5866979784403421e+00 1.7440709632322193e+01 
123 1 2 1.0279998919721380e+00 -2.9262378477291156e+02 1.0000000000000000e+00 1.2432924483792072e+00 7.7664980635799248e+00 1.7382211649889197e+01 
180 1 2 1.0280000070398976e+00 -4.5962954885585538e+02 1.0000000000000000e+00 1.8006766080249499e+00 9.1132207933693543e+00 1.6735908559286258e+01 
68 1 2 1.0279999961971955e+00 -3.5564539002138144e+02 1.0000000000000000e+00 1.6107966640393907e+00 7.9496102568674569e+00 1.7315459288393537e+01 
128 1 2 1.0280000210298499e+00 -1.9906869420310136e+02 1.0000000000000000e+00 9.8121201371444078e-01 8.3889431676050883e+00 1.7045738917556555e+01 
60 1 2 1.0280000195386083e+00 -3.2222606527751952e+02 1.0000000000000000e+00 9.5972300947298528e-01 8.5174863547662909e+00 1.6976271414994610e+01 
19 1 2 1.0279999692933384e+00 -3.0004760519446893e+02 1.0000000000000000e+00 1.9222912576337066e+00 8.7291894256811808e+00 1.8870590855333099e+01 
158 1 2 1.0280000018344331e+00 -3.8176372841322006e+02 1.0000000000000000e+00 2.0756842589055857e+00 9.4360528716192533e+00 1.6802982138903314e+01 
4 1 2 1.0280000180637183e+00 -4.1097214733220642e+02 1.0000000000000000e+00 9.4181488318447326e-01 8.6260413627155224e+00 1.6921943885682353e+01 
124 1 2 1.0279999646022777e+00 -3.6561992784549977e+02 1.0000000000000000e+00 8.4792738793698519e-01 8.8461642403595349e+00 1.8901374691437667e+01 
136 1 2 1.0279999963366624e+00 -3.5366486713042605e+02 1.0000000000000000e+00 1.2128303187708303e+00 7.5997581423116243e+00 1.7275480673564960e+01 
99 1 2 1.0279999941061131e+00 -2.9508759303264401e+02 1.0000000000000000e+00 2.5567410787851665e+00 9.2697283059652129e+00 1.7562886319685326e+01 
171 1 2 1.0280000022942817e+00 -3.6162425704851796e+02 1.0000000000000000e+00 1.0531719255168666e+00 1.0715134563092462e+01 3.3970815083076832e-02 
107 1 2 1.0279999992615405e+00 -3.4097848166418720e+02 1.0000000000000000e+00 1.0774098438701696e+00 1.0029412660895330e+01 6.9631477056278113e-01 
23 1 2 1.0280000044241293e+00 -2.9111846657165802e+02 1.0000000000000000e+00 7.6966508199109485e-01 1.0202178340321634e+01 1.6481926773186128e+01 
164 1 2 1.0279999970350968e+00 -4.1194930778968239e+02 1.0000000000000000e+00 3.6437864670046394e+00 1.9631755181827568e+01 1.5695696876507698e+01 
98 1 2 1.0279999985513355e+00 -2.5730766756659284e+02 1.0000000000000000e+00 3.6724296409715680e+00 1.9634948461793122e+01 1.5730765419473917e+01 
104 1 2 1.0279999968565674e+00 -2.8606776476782863e+02 1.0000000000000000e+00 3.6173690828425364e+00 1.9678038212643180e+01 1.6019444985599737e+01 
71 1 2 1.0279999982587529e+00 -3.5759211493170500e+02 1.0000000000000000e+00 3.6567709921251752e+00 1.9655477018499546e+01 1.5576336237294052e+01 
48 1 2 1.0279999999225398e+00 -3.5238049386859439e+02 1.0000000000000000e+00 3.6825057130760546e+00 1.9673035964976474e+01 1.5537016109555660e+01 
170 1 2 1.0280000007951049e+00 -3.0170805798696415e+02 1.0000000000000000e+00 3.6987532058035439e+00 1.9676827600700182e+01 1.5537974270508025e+01 
5 1 2 1.0280000040285318e+00 -5.0125115481649323e+02 1.0000000000000000e+00 3.7604591298772054e+00 1.9687413406962026e+01 1.5566619134082689e+01 
85 1 2 1.0279999951320071e+00 -2.7136092938525530e+02 1.0000000000000000e+00 3.5287451015663822e+00 1.9786420504153849e+01 1.6209218880394321e+01 
96 1 2 1.0279999991606457e+00 -3.6092121633080251e+02 1.0000000000000000e+00 2.7742013139176898e+00 1.0977466198282686e+01 1.8215843438546308e+01 
127 1 2 1.0279999971493230e+00 -3.0299340906580619e+02 1.0000000000000000e+00 2.8047002270447718e+00 1.0843554049006775e+01 1.7959272400681588e+01 
47 1 2 1.0280000055228788e+00 -3.4113489701134137e+02 1.0000000000000000e+00 2.7475599026171080e+00 1.0705149283312904e+01 1.8935923320783008e+01 
113 1 2 1.0280000001487097e+00 -3.4434104760934304e+02 1.0000000000000000e+00 2.3684340303984950e+00 1.1519773364934711e+01 1.8247114202745234e+01 
45 1 2 1.0279999993900111e+00 -2.7131539152497999e+02 1.0000000000000000e+00 2.5529533957801585e+00 1.1333606869256782e+01 1.8140728568118263e+01 
92 1 2 1.0280000010216095e+00 -2.0775398197783551e+02 1.0000000000000000e+00 1.0978924632387800e-01 1.1476566721338985e+01 1.7531755870600897e+01 
174 1 2 1.0280000010939465e+00 -4.2495497068040430e+02 1.0000000000000000e+00 3.5528588645802694e-01 1.1513275257614373e+01 1.7124521609503315e+01 
152 1 2 1.0280000009523991e+00 -3.2402465314181859e+02 1.0000000000000000e+00 2.0080008473806965e-01 1.1539791343986485e+01 1.7410068424012987e+01 
15 1 2 1.0280000007697976e+00 -3.4912253114850148e+02 1.0000000000000000e+00 2.1442390427437910e-01 1.1562578941437089e+01 1.7435106043449952e+01 
151 1 2 1.0280000009292085e+00 -3.9214631177828204e+02 1.0000000000000000e+00 2.0384518457337483e-01 1.1543215491673688e+01 1.7410967183486761e+01 
105 1 2 1.0280000009329757e+00 -2.4536547408238567e+02 1.0000000000000000e+00 2.0132790763561104e-01 1.1541841235193843e+01 1.7413985146471216e+01 
51 1 2 1.0280000009517165e+00 -2.3628445188115433e+02 1.0000000000000000e+00 2.0093704646925628e-01 1.1539912591147512e+01 1.7410023319309001e+01 
33 1 2 1.0280000010148707e+00 -3.2525617453782547e+02 1.0000000000000000e+00 1.7321484119926006e-01 1.1521361827037184e+01 1.7437809879594663e+01 
145 1 2 1.0279999990273818e+00 -3.7490686605728996e+02 1.0000000000000000e+00 2.6958432021007517e+00 1.1126971252627616e+01 1.8143208497655447e+01 
30 1 2 1.0280000032355217e+00 -3.2160142640855042e+02 1.0000000000000000e+00 2.7958754925849396e+00 1.0748498185152652e+01 1.8726404496040615e+01 
52 1 2 1.0280000004392029e+00 -3.9571178257542709e+02 1.0000000000000000e+00 2.7504924569724878e+00 1.1016407567707891e+01 1.8352118672602124e+01 
9 1 2 1.0279999909318751e+00 -4.0196938062835864e+02 1.0000000000000000e+00 1.9634043785560603e+01 4.4561039507492390e+00 1.6433241699275399e+01 
50 1 2 1.0279999908068906e+00 -2.9991405739361937e+02 1.0000000000000000e+00 1.9655394345225965e+01 4.3285077093201023e+00 1.6377409273170205e+01 
103 1 2 1.0279999916729630e+00 -3.7349825416326394e+02 1.0000000000000000e+00 1.9842568353096091e+01 3.8485077733098376e+00 1.6150565978580545e+01 
57 1 2 1.0279999922599468e+00 -3.3794183547226783e+02 1.0000000000000000e+00 1.9844932732495600e+01 3.8555027318347732e+00 1.6251806411564889e+01 
24 1 2 1.0279999919416842e+00 -2.3334634028862013e+02 1.0000000000000000e+00 1.9694429367960343e+01 4.3075220956957194e+00 1.6657252071421585e+01 
78 1 2 1.0279999907618724e+00 -3.4012290676152628e+02 1.0000000000000000e+00 1.9950060203079683e+01 3.6866709377005478e+00 1.5758077999367138e+01 
58 1 2 1.0279999923376348e+00 -2.2621089529739893e+02 1.0000000000000000e+00 1.9711326281328489e+01 5.2118397924802924e+00 1.6818473169774418e+01 
66 1 2 1.0279999922898688e+00 -3.2455155598820033e+02 1.0000000000000000e+00 1.9808665755108695e+01 5.5078853111890318e+00 1.6885871523479061e+01 
55 1 2 1.0280000040423496e+00 -3.0788664166186169e+02 1.0000000000000000e+00 1.9839827553867547e+01 1.0501772487152262e+01 1.7445903500722459e+01 
20 1 2 1.0280000024294400e+00 -3.3915019952208519e+02 1.0000000000000000e+00 1.9886093692023497e+01 1.1060218148927557e+01 1.7574972288492646e+01 

Velocities

88 -1.3142130810459685e-01 3.5466684910387902e-01 -1.6691284207327479e-02
22 -1.3142059055304153e-01 3.5466727776139423e-01 -1.6690997393425749e-02
173 -1.3142180912173723e-01 3.5466653858819214e-01 -1.6691388908382055e-02
120 -1.3142445445585735e-01 3.5466515685059607e-01 -1.6692181777590839e-02
176 -1.3142588569357128e-01 3.5466442443726209e-01 -1.6692845683208939e-02
90 -1.3142767158371235e-01 3.5466344610170020e-01 -1.6693737378269156e-02
54 -1.3142699096724414e-01 3.5466412976996320e-01 -1.6693102315261801e-02
101 -1.3145220994679097e-01 3.5464049818517468e-01 -1.6714772038289607e-02
16 -1.3145441376737249e-01 3.5463972910290859e-01 -1.6708160053401550e-02
82 -1.3144467636802526e-01 3.5465217001619226e-01 -1.6701994098995306e-02
53 -1.3144566063222643e-01 3.5465115886321757e-01 -1.6702659100622727e-02
75 -1.3146434220091036e-01 3.5463203823252137e-01 -1.6711285136944573e-02
74 -1.3136357589840492e-01 3.5472818290841185e-01 -1.6666796964528177e-02
44 -1.3139047584360836e-01 3.5472725550276829e-01 -1.6654453419451386e-02
162 -1.3139105428723605e-01 3.5472724470050432e-01 -1.6654078696676240e-02
18 -1.3136308235234201e-01 3.5472878800254076e-01 -1.6666472424274967e-02
147 -1.3136309774302724e-01 3.5472892866155159e-01 -1.6666472956122273e-02
21 -1.3136291505121203e-01 3.5472882904158720e-01 -1.6666260737322931e-02
69 -1.3136287670568939e-01 3.5472897303502676e-01 -1.6666183920429949e-02
79 -1.3136475106319656e-01 3.5472851165349090e-01 -1.6661458062707128e-02
125 -1.3136479937400117e-01 3.5472850446416565e-01 -1.6661433124699743e-02
91 -1.3136478237480517e-01 3.5472851069803341e-01 -1.6661441679525900e-02
46 -1.3136478229751775e-01 3.5472851107714265e-01 -1.6661441696442153e-02
153 -1.3136477395290630e-01 3.5472850797721717e-01 -1.6661446282394160e-02
121 -1.3136476317463675e-01 3.5472851247871795e-01 -1.6661451647905483e-02
133 -1.3136475198028880e-01 3.5472853383833086e-01 -1.6661456097416243e-02
130 -1.3136694795241383e-01 3.5473012984252600e-01 -1.6660970207545891e-02
40 -1.3136240917919448e-01 3.5473072568181208e-01 -1.6661101349176654e-02
129 -1.3136239378084211e-01 3.5473068980699812e-01 -1.6661133403889739e-02
77 -1.3138108669462562e-01 3.5471244297721766e-01 -1.6668767577452989e-02
49 -1.3138108992694167e-01 3.5471244730858859e-01 -1.6668765341357313e-02
108 -1.3138112529460344e-01 3.5471252081365534e-01 -1.6668727607637147e-02
28 -1.3138113652458716e-01 3.5471254855771761e-01 -1.6668713165553777e-02
32 -1.3138106609010508e-01 3.5471224248918293e-01 -1.6668861912936726e-02
17 -1.3138099763913014e-01 3.5471195868317601e-01 -1.6668986097013120e-02
150 -1.3138031224266761e-01 3.5471050366157392e-01 -1.6669497268307461e-02
114 -1.3138062481425380e-01 3.5470567166364514e-01 -1.6670328087636032e-02
177 -1.3137921739413569e-01 3.5470593220624719e-01 -1.6670400867421997e-02
135 -1.3137094325495274e-01 3.5471090160871888e-01 -1.6655211996502821e-02
148 -1.3137129983378243e-01 3.5471097467069834e-01 -1.6655064960501485e-02
115 -1.3137709974452613e-01 3.5470956701856721e-01 -1.6649576524482273e-02
2 -1.3137726798410768e-01 3.5472150376108902e-01 -1.6656614475537828e-02