LAMMPS data file via write_data, version 30 Jul 2016, timestep = 50400000

180 atoms
2 atom types

0.0000000000000000e+00 2.0000000000000000e+01 xlo xhi
0.0000000000000000e+00 2.0000000000000000e+01 ylo yhi
0.0000000000000000e+00 2.0000000000000000e+01 zlo zhi

Masses

1 3.896
2 4.31

Atoms # meso-molecular

114 1 2 1.0279999796111401e+00 -2.6945620671107957e+02 1.0000000000000000e+00 1.6079916224502760e+01 2.1565142210353221e+00 3.2309638564886494e+00 
177 1 2 1.0279999756486764e+00 -4.0889821944292828e+02 1.0000000000000000e+00 1.6088127503512347e+01 2.1566831577387799e+00 3.2987989799237583e+00 
88 1 2 1.0279999930903720e+00 -3.9871789708079473e+02 1.0000000000000000e+00 1.5857977550991773e+01 3.4230073727575752e+00 1.4941211162048085e+00 
22 1 2 1.0279999916665237e+00 -2.0534417829936933e+02 1.0000000000000000e+00 1.5879608089632059e+01 3.4195718943035107e+00 1.5402219515883051e+00 
173 1 2 1.0279999942318334e+00 -3.9208221993628536e+02 1.0000000000000000e+00 1.5885238107994212e+01 3.4547095320809884e+00 1.4878282325916672e+00 
176 1 2 1.0280000042908501e+00 -3.4939938397172455e+02 1.0000000000000000e+00 1.5902050207655661e+01 3.5588119735166406e+00 1.3023104701372716e+00 
120 1 2 1.0280000012563453e+00 -2.8794273472358663e+02 1.0000000000000000e+00 1.5944114639061453e+01 3.5470994125057116e+00 1.3813106390150289e+00 
90 1 2 1.0280000075449183e+00 -3.1105577455180162e+02 1.0000000000000000e+00 1.5889114674833047e+01 3.5856267500821315e+00 1.2114952950144042e+00 
54 1 2 1.0280000109092453e+00 -3.2473975194042407e+02 1.0000000000000000e+00 1.5988711707729196e+01 3.6209388250027055e+00 1.2540448906793185e+00 
82 1 2 1.0280000174923405e+00 -2.6775981220874314e+02 1.0000000000000000e+00 1.5941740539484703e+01 3.9563294627822767e+00 4.5880774544148240e-01 
53 1 2 1.0280000148310522e+00 -3.4096458411622200e+02 1.0000000000000000e+00 1.5935518043150362e+01 3.9856318566429385e+00 4.1111762336591889e-01 
107 1 2 1.0279999990682485e+00 -3.4097848166418720e+02 1.0000000000000000e+00 1.5819206217732706e+01 4.2151550062795282e+00 2.8020424273605345e-02 
150 1 2 1.0279999944316764e+00 -3.0263936625201552e+02 1.0000000000000000e+00 1.6104021270365696e+01 1.9547015088614170e+00 3.4692895671403656e+00 
17 1 2 1.0280000016874518e+00 -3.3932746216754271e+02 1.0000000000000000e+00 1.6114021574660029e+01 1.8490699747731889e+00 3.5318330074603432e+00 
32 1 2 1.0280000028587342e+00 -4.6968900734786899e+02 1.0000000000000000e+00 1.6116883062713104e+01 1.8262375181734301e+00 3.5482805339020524e+00 
77 1 2 1.0280000035683328e+00 -2.9535532833466539e+02 1.0000000000000000e+00 1.6119092388798286e+01 1.8103097702679725e+00 3.5611533120700183e+00 
49 1 2 1.0280000035962664e+00 -4.3795139486629029e+02 1.0000000000000000e+00 1.6119139648217626e+01 1.8098419810459019e+00 3.5613531482956282e+00 
108 1 2 1.0280000039833888e+00 -3.0451095071504812e+02 1.0000000000000000e+00 1.6119969618994773e+01 1.8026319738061980e+00 3.5653475471244862e+00 
28 1 2 1.0280000041201542e+00 -2.4357129993787936e+02 1.0000000000000000e+00 1.6120290664740530e+01 1.7999632059627539e+00 3.5669301455287741e+00 
148 1 2 1.0279999795177326e+00 -4.2291560191120823e+02 1.0000000000000000e+00 1.7864205239242956e+01 3.0029455534834244e+00 5.3603001110618260e+00 
135 1 2 1.0279999790652181e+00 -3.7556396257775270e+02 1.0000000000000000e+00 1.7831148797352412e+01 2.9929669222676525e+00 5.3619634665156379e+00 
115 1 2 1.0279999611415291e+00 -4.1384953944532725e+02 1.0000000000000000e+00 1.7994991767584239e+01 2.6174993325553744e+00 4.8471406206439580e+00 
10 1 2 1.0279999919582747e+00 -4.4008551253709203e+02 1.0000000000000000e+00 1.8625141998525390e+01 2.3880549271775910e+00 5.1569727541506536e+00 
65 1 2 1.0279999974775222e+00 -2.8607663510467523e+02 1.0000000000000000e+00 1.8843101540471029e+01 2.2705583299630292e+00 5.3691347494925923e+00 
76 1 2 1.0279999976021277e+00 -2.7185471606696257e+02 1.0000000000000000e+00 1.8849479035786164e+01 2.2673353098899187e+00 5.3766526719589827e+00 
169 1 2 1.0279999979262711e+00 -3.6521550550193672e+02 1.0000000000000000e+00 1.8866981692374242e+01 2.2592247259257636e+00 5.3977361120272196e+00 
25 1 2 1.0279999984939843e+00 -3.6567941824756872e+02 1.0000000000000000e+00 1.8895467973132583e+01 2.2375613514130994e+00 5.4329972553006503e+00 
2 1 2 1.0280000000236325e+00 -3.6212982868188669e+02 1.0000000000000000e+00 1.9011065222245072e+01 2.1762905204030099e+00 5.5967684575329706e+00 
11 1 2 1.0279999968825033e+00 -3.7883038143315912e+02 1.0000000000000000e+00 1.9376099091106362e+01 1.9700728782021817e+00 6.6324666918811364e+00 
162 1 2 1.0280000294621792e+00 -3.0759224209604741e+02 1.0000000000000000e+00 1.6950385272078371e+01 6.9465779866355370e-01 5.7420503365465905e+00 
44 1 2 1.0280000287412900e+00 -3.7685280325969848e+02 1.0000000000000000e+00 1.6897663899663034e+01 5.9656988905681441e-01 5.6388451607543191e+00 
166 1 2 1.0279999915978824e+00 -2.8802443650467933e+02 1.0000000000000000e+00 1.9327111277085422e+01 2.3524972157250774e+00 7.6416467460258577e+00 
29 1 2 1.0280000043471516e+00 -2.3620934176375135e+02 1.0000000000000000e+00 1.8641545834960752e+01 3.5853463282537024e+00 7.9681768412369518e+00 
179 1 2 1.0280000046872371e+00 -3.7495243308433606e+02 1.0000000000000000e+00 1.8631205430908118e+01 3.6008312674478895e+00 7.9567206592058310e+00 
100 1 2 1.0280000046308333e+00 -4.0776477756539418e+02 1.0000000000000000e+00 1.8633021585729534e+01 3.5983304637805680e+00 7.9586108257780737e+00 
163 1 2 1.0280000046086566e+00 -2.9389033098295522e+02 1.0000000000000000e+00 1.8633597310835185e+01 3.5972166975587636e+00 7.9594577863536324e+00 
41 1 2 1.0280000045480220e+00 -3.7368131258989666e+02 1.0000000000000000e+00 1.8635466657262192e+01 3.5944682978919422e+00 7.9615110331517380e+00 
144 1 2 1.0280000045252553e+00 -3.1497258994521030e+02 1.0000000000000000e+00 1.8636873767691778e+01 3.5941524082826377e+00 7.9616826107653553e+00 
73 1 2 1.0280000045449424e+00 -4.3618760459363489e+02 1.0000000000000000e+00 1.8635459195254732e+01 3.5942263946466615e+00 7.9616995730133153e+00 
154 1 2 1.0280000044655508e+00 -4.1042435817276487e+02 1.0000000000000000e+00 1.8637375189369187e+01 3.5901273935470424e+00 7.9647672154259839e+00 
43 1 2 1.0280000044186637e+00 -4.3252386923624721e+02 1.0000000000000000e+00 1.8639712759804326e+01 3.5889193193118647e+00 7.9655621916397843e+00 
160 1 2 1.0280000049946132e+00 -3.9785065769871790e+02 1.0000000000000000e+00 1.8640344331394008e+01 3.6358594959855717e+00 7.9270995370132598e+00 
1 1 2 1.0280000084718781e+00 -3.4958500797214498e+02 1.0000000000000000e+00 1.7937673933967552e+01 3.6955474632500169e+00 6.9960140328213614e+00 
4 1 2 1.0280000164525742e+00 -4.1097214733220642e+02 1.0000000000000000e+00 1.5681070402878376e+01 2.8106177372634682e+00 1.6253165775575095e+01 
60 1 2 1.0280000178062410e+00 -3.2222606527751952e+02 1.0000000000000000e+00 1.5698916620458792e+01 2.7020702189286143e+00 1.6307502657563457e+01 
128 1 2 1.0280000191853127e+00 -1.9906869420310136e+02 1.0000000000000000e+00 1.5720332532095634e+01 2.5735407841671267e+00 1.6376987204977830e+01 
136 1 2 1.0279999976353988e+00 -3.5366486713042605e+02 1.0000000000000000e+00 1.5951481566587315e+01 1.7845966228037722e+00 1.6606814265253970e+01 
68 1 2 1.0279999961077309e+00 -3.5564539002138144e+02 1.0000000000000000e+00 1.6349697112591432e+01 2.1344143408682319e+00 1.6646817522705337e+01 
180 1 2 1.0280000063671655e+00 -4.5962954885585538e+02 1.0000000000000000e+00 1.6540299278771716e+01 3.2978369261187064e+00 1.6067193046679897e+01 
72 1 2 1.0280000124552264e+00 -4.2743667137266124e+02 1.0000000000000000e+00 1.6794396475461994e+01 4.6790350437612616e-01 1.5092121701180019e+01 
131 1 2 1.0280000108481353e+00 -3.3377262168247114e+02 1.0000000000000000e+00 1.6713660492033540e+01 4.3686843644598539e-01 1.4984511555276582e+01 
102 1 2 1.0280000100385072e+00 -2.9026433002663271e+02 1.0000000000000000e+00 1.6916868445428211e+01 3.0864960801153313e-01 1.5021926339037089e+01 
23 1 2 1.0280000040604020e+00 -2.9111846657165802e+02 1.0000000000000000e+00 1.5509611161679844e+01 4.3867681455013461e+00 1.5813170527087548e+01 
174 1 2 1.0280000009889714e+00 -4.2495497068040430e+02 1.0000000000000000e+00 1.5095479862010698e+01 5.6979425932560126e+00 1.6455814673116002e+01 
158 1 2 1.0280000016694844e+00 -3.8176372841322006e+02 1.0000000000000000e+00 1.6815435123791147e+01 3.6206861199425200e+00 1.6134327744398092e+01 
124 1 2 1.0279999677213953e+00 -3.6561992784549977e+02 1.0000000000000000e+00 1.5588634335852028e+01 3.0315823354190528e+00 1.8232496658169925e+01 
123 1 2 1.0279999026036433e+00 -2.9262378477291156e+02 1.0000000000000000e+00 1.5982253429970761e+01 1.9515372449473956e+00 1.6713438786863680e+01 
62 1 2 1.0279999874468391e+00 -3.2063139959967737e+02 1.0000000000000000e+00 1.5314377607594766e+01 7.7154131883444710e-01 1.6771807751744834e+01 
167 1 2 1.0280000041980197e+00 -3.8301395629227216e+02 1.0000000000000000e+00 1.6640310086708304e+01 1.4479677751185932e-01 1.6892113397007353e+01 
19 1 2 1.0279999720000370e+00 -3.0004760519446893e+02 1.0000000000000000e+00 1.6662276644617926e+01 2.9145870360766430e+00 1.8201723840680213e+01 
56 1 2 1.0280000041476278e+00 -3.5488802360506588e+02 1.0000000000000000e+00 1.6656103819977275e+01 5.8138534879366842e-02 1.6892119385705580e+01 
101 1 2 1.0279999702526548e+00 -2.7911801724328757e+02 1.0000000000000000e+00 1.5560882423889435e+01 3.8343035647661337e+00 1.9568555673961995e+01 
55 1 2 1.0280000036236645e+00 -3.0788664166186169e+02 1.0000000000000000e+00 1.4579918150502394e+01 4.6863900320912020e+00 1.6777224421901007e+01 
171 1 2 1.0280000019324871e+00 -3.6162425704851796e+02 1.0000000000000000e+00 1.5794378263171771e+01 4.9004835673398937e+00 1.9365507549305345e+01 
20 1 2 1.0280000021330946e+00 -3.3915019952208519e+02 1.0000000000000000e+00 1.4626271684812661e+01 5.2448798834069468e+00 1.6906293782238048e+01 
92 1 2 1.0280000008656349e+00 -2.0775398197783551e+02 1.0000000000000000e+00 1.4850008945168168e+01 5.6612417378658639e+00 1.6863068884936990e+01 
33 1 2 1.0280000008733141e+00 -3.2525617453782547e+02 1.0000000000000000e+00 1.4913429827228390e+01 5.7060360345758792e+00 1.6769117927211276e+01 
151 1 2 1.0280000008008268e+00 -3.9214631177828204e+02 1.0000000000000000e+00 1.4944060599500348e+01 5.7278892732532283e+00 1.6742273954148526e+01 
105 1 2 1.0280000008037120e+00 -2.4536547408238567e+02 1.0000000000000000e+00 1.4941543404893507e+01 5.7265150646217950e+00 1.6745292058996323e+01 
152 1 2 1.0280000008216679e+00 -3.2402465314181859e+02 1.0000000000000000e+00 1.4941014963522914e+01 5.7244651438078540e+00 1.6741375130879618e+01 
51 1 2 1.0280000008210839e+00 -2.3628445188115433e+02 1.0000000000000000e+00 1.4941151937513254e+01 5.7245863894422806e+00 1.6741330024608956e+01 
15 1 2 1.0280000006545229e+00 -3.4912253114850148e+02 1.0000000000000000e+00 1.4954644010046509e+01 5.7472528273992713e+00 1.6766414044226686e+01 
99 1 2 1.0279999946608638e+00 -2.9508759303264401e+02 1.0000000000000000e+00 1.7296461680334833e+01 3.4544699386240918e+00 1.6894269678524672e+01 
16 1 2 1.0280000103017899e+00 -3.9453579604288615e+02 1.0000000000000000e+00 1.6730740057528855e+01 3.8640194316302101e+00 1.9858369496477057e+01 
75 1 2 1.0280000111187206e+00 -3.1246129378596549e+02 1.0000000000000000e+00 1.7065396323411523e+01 4.1547231292388034e+00 1.9368094597962752e+01 
47 1 2 1.0280000050551303e+00 -3.4113489701134137e+02 1.0000000000000000e+00 1.7488237772168468e+01 4.8900765692870847e+00 1.8267303571429636e+01 
30 1 2 1.0280000029873557e+00 -3.2160142640855042e+02 1.0000000000000000e+00 1.7536446551136304e+01 4.9333666539055141e+00 1.8057752962157750e+01 
127 1 2 1.0279999974903740e+00 -3.0299340906580619e+02 1.0000000000000000e+00 1.7544981298553388e+01 5.0282730352867633e+00 1.7290599722541636e+01 
96 1 2 1.0279999993078086e+00 -3.6092121633080251e+02 1.0000000000000000e+00 1.7514580208225158e+01 5.1622267045952883e+00 1.7547161449524282e+01 
52 1 2 1.0280000004622041e+00 -3.9571178257542709e+02 1.0000000000000000e+00 1.7490923826486409e+01 5.2011962057069363e+00 1.7683439118818043e+01 
145 1 2 1.0279999991856066e+00 -3.7490686605728996e+02 1.0000000000000000e+00 1.7436214323157763e+01 5.3117204092882595e+00 1.7474525619619097e+01 
45 1 2 1.0279999995064144e+00 -2.7131539152497999e+02 1.0000000000000000e+00 1.7293339398311620e+01 5.5183576751620622e+00 1.7472044273060202e+01 
113 1 2 1.0280000001796394e+00 -3.4434104760934304e+02 1.0000000000000000e+00 1.7108854149147835e+01 5.7045456387277396e+00 1.7578431377808638e+01 
147 1 2 1.0280000069916735e+00 -3.7472621060756717e+02 1.0000000000000000e+00 1.7562999985544206e+01 1.9374575419100474e+01 3.2894510078904267e+00 
69 1 2 1.0280000063864887e+00 -3.6366162261259615e+02 1.0000000000000000e+00 1.7590444604240631e+01 1.9343478749149366e+01 3.2980620859164778e+00 
18 1 2 1.0280000071135285e+00 -2.4675927004974636e+02 1.0000000000000000e+00 1.7546926728312464e+01 1.9317324826304677e+01 3.3018820795849697e+00 
21 1 2 1.0280000066558692e+00 -3.6384459861458737e+02 1.0000000000000000e+00 1.7568096940484732e+01 1.9297593854358119e+01 3.3074591103479771e+00 
79 1 2 1.0280000022799780e+00 -3.1643007044718030e+02 1.0000000000000000e+00 1.7868089782098192e+01 1.8338160939768429e+01 4.6625724873156518e+00 
121 1 2 1.0280000022847402e+00 -2.5606157040395942e+02 1.0000000000000000e+00 1.7869473853745056e+01 1.8338882151095067e+01 4.6651932360548889e+00 
153 1 2 1.0280000023029601e+00 -2.8662993766447630e+02 1.0000000000000000e+00 1.7869926542168713e+01 1.8339360543862927e+01 4.6672426782319141e+00 
91 1 2 1.0280000023006719e+00 -2.9924657275877973e+02 1.0000000000000000e+00 1.7871202300610207e+01 1.8339936240184418e+01 4.6691692521705370e+00 
46 1 2 1.0280000022995794e+00 -4.1579767395382999e+02 1.0000000000000000e+00 1.7871250301636486e+01 1.8339943928082363e+01 4.6691726891541245e+00 
133 1 2 1.0280000022217388e+00 -2.8926193604039474e+02 1.0000000000000000e+00 1.7871470071652286e+01 1.8338917414567771e+01 4.6639312495809966e+00 
125 1 2 1.0280000023272509e+00 -3.7758763968298831e+02 1.0000000000000000e+00 1.7872037541805241e+01 1.8340726166848089e+01 4.6724305399568289e+00 
130 1 2 1.0279999988464361e+00 -3.2725738371719763e+02 1.0000000000000000e+00 1.8215624516199895e+01 1.8570488363108449e+01 4.9306137394091900e+00 
129 1 2 1.0279999952213945e+00 -3.2275783213973250e+02 1.0000000000000000e+00 1.8135196378201844e+01 1.8883857906694384e+01 3.6573105179373058e+00 
40 1 2 1.0279999950966372e+00 -2.8716535104959098e+02 1.0000000000000000e+00 1.8137236594063836e+01 1.8869156205127982e+01 3.6668197028874152e+00 
74 1 2 1.0280000084186445e+00 -4.2369390749004356e+02 1.0000000000000000e+00 1.7448579836415433e+01 1.9187474198827825e+01 3.3457270164285511e+00 
70 1 2 1.0279997023304901e+00 -3.1631530903568097e+02 1.0000000000000000e+00 1.7903453492310540e+01 1.9912084427023675e+01 7.8165552448199982e+00 
112 1 2 1.0280000299686058e+00 -2.2839191566367614e+02 1.0000000000000000e+00 1.7829224619322595e+01 1.9765280810593016e+01 7.9747721980905526e+00 
138 1 2 1.0280000688605231e+00 -3.5584543881400384e+02 1.0000000000000000e+00 1.7803990643536277e+01 1.9739926890236124e+01 7.9639588815438884e+00 
172 1 2 1.0279997178552385e+00 -4.4824131543790929e+02 1.0000000000000000e+00 1.7880221052870247e+01 1.9959820530453328e+01 7.7758572277943312e+00 
119 1 2 1.0280000346635125e+00 -3.2638212177336834e+02 1.0000000000000000e+00 1.7825866922512674e+01 1.9762128438988295e+01 7.9747131519378067e+00 
106 1 2 1.0280000280071624e+00 -3.6051719194391154e+02 1.0000000000000000e+00 1.7830976676970838e+01 1.9767111656432295e+01 7.9734846478871626e+00 
31 1 2 1.0279999440909833e+00 -3.1392009647024889e+02 1.0000000000000000e+00 1.7161900574831609e+01 1.9078030922118277e+01 9.2712394963973708e+00 
117 1 2 1.0279999649071705e+00 -2.8361435553485217e+02 1.0000000000000000e+00 1.7213645503419716e+01 1.9044767858458226e+01 8.9041012461758555e+00 
157 1 2 1.0280000241184253e+00 -2.7104931356780958e+02 1.0000000000000000e+00 1.7834093215937958e+01 1.9770213519855130e+01 7.9718900274319200e+00 
161 1 2 1.0279999245437617e+00 -3.5933777710993513e+02 1.0000000000000000e+00 1.6965983639895850e+01 1.8768035033608285e+01 9.3307034148662371e+00 
94 1 2 1.0280001132322485e+00 -4.1219942610431201e+02 1.0000000000000000e+00 1.7660771572510917e+01 1.9501256423125575e+01 8.0453611614668024e+00 
143 1 2 1.0280002853254484e+00 -3.8482798704751809e+02 1.0000000000000000e+00 1.7766722400859351e+01 1.9617076435458515e+01 7.8137458376757394e+00 
87 1 2 1.0280000479273701e+00 -2.6744339441354691e+02 1.0000000000000000e+00 1.6056967985401801e+01 1.7056158653363813e+01 1.2592600847980579e+01 
81 1 2 1.0279999937337565e+00 -2.9840512643044872e+02 1.0000000000000000e+00 1.4938615540333892e+01 1.7575949987701698e+01 1.1336780623675722e+01 
13 1 2 1.0279999947399645e+00 -4.6533354465067600e+02 1.0000000000000000e+00 1.4924668793705706e+01 1.7596408780157329e+01 1.1346863489153478e+01 
168 1 2 1.0279999946000451e+00 -3.4553973290413273e+02 1.0000000000000000e+00 1.4926567528316111e+01 1.7593456047831857e+01 1.1345464618903772e+01 
140 1 2 1.0280000029885437e+00 -4.3644875264592019e+02 1.0000000000000000e+00 1.4851232686914706e+01 1.7680762170659932e+01 1.1444536117985324e+01 
26 1 2 1.0279999918010965e+00 -4.0196971178058857e+02 1.0000000000000000e+00 1.4928693937587818e+01 1.7669159674477442e+01 1.1309733875587078e+01 
149 1 2 1.0279999989125612e+00 -3.9854048036523386e+02 1.0000000000000000e+00 1.4875631284194450e+01 1.7751233662460091e+01 1.1385345806390440e+01 
122 1 2 1.0279999988635238e+00 -3.5758662358270578e+02 1.0000000000000000e+00 1.4875764503111043e+01 1.7741812446167685e+01 1.1385485693531594e+01 
126 1 2 1.0279999993518862e+00 -4.0525533548863325e+02 1.0000000000000000e+00 1.4872482181637409e+01 1.7740381955024180e+01 1.1391682902600385e+01 
80 1 2 1.0279999943522455e+00 -3.0388813186167283e+02 1.0000000000000000e+00 1.4908820657103673e+01 1.7780811603154319e+01 1.1328497936066071e+01 
35 1 2 1.0280000027556191e+00 -4.2339551377217481e+02 1.0000000000000000e+00 1.4887435042828585e+01 1.7935387224582616e+01 1.1420825634198978e+01 
178 1 2 1.0279999923502399e+00 -3.3699920855261439e+02 1.0000000000000000e+00 1.5001067912676250e+01 1.7996401292636975e+01 1.1275391049821053e+01 
116 1 2 1.0279999488190297e+00 -3.5808437519953975e+02 1.0000000000000000e+00 1.7468444726758083e+01 1.7179412120685125e+01 1.0953622974544309e+01 
37 1 2 1.0279999690493558e+00 -2.8783069429561897e+02 1.0000000000000000e+00 1.8185487589652865e+01 1.7267520648223698e+01 1.0894985085236357e+01 
156 1 2 1.0280000243515812e+00 -2.7379325437034845e+02 1.0000000000000000e+00 1.9151569656789579e+01 1.7516237104730354e+01 1.0279705906025372e+01 
42 1 2 1.0280000243505685e+00 -2.3462445929006716e+02 1.0000000000000000e+00 1.9151557821109513e+01 1.7516228357539212e+01 1.0279725389206606e+01 
83 1 2 1.0280000243479648e+00 -3.3944642853888445e+02 1.0000000000000000e+00 1.9151525081026548e+01 1.7516200506500351e+01 1.0279772074680187e+01 
93 1 2 1.0280000243527803e+00 -2.6936071529358662e+02 1.0000000000000000e+00 1.9151584298421586e+01 1.7516250947449375e+01 1.0279687753749664e+01 
142 1 2 1.0280000244556500e+00 -3.7690727665432036e+02 1.0000000000000000e+00 1.9152849301144123e+01 1.7517334430979751e+01 1.0277886253988742e+01 
36 1 2 1.0280000247487460e+00 -4.4037831962639137e+02 1.0000000000000000e+00 1.9156459602123231e+01 1.7520443798012700e+01 1.0272649885424574e+01 
34 1 2 1.0280000249288690e+00 -3.4885268788378892e+02 1.0000000000000000e+00 1.9158683853621802e+01 1.7522365972594862e+01 1.0269338520498554e+01 
175 1 2 1.0280000264748488e+00 -4.6745039782152168e+02 1.0000000000000000e+00 1.9177547577654970e+01 1.7535751150691940e+01 1.0231131536299472e+01 
39 1 2 1.0280000278371129e+00 -3.7489405246279557e+02 1.0000000000000000e+00 1.9197087908624265e+01 1.7564206761353319e+01 1.0216886781455484e+01 
67 1 2 1.0279999138585505e+00 -2.5792857239510033e+02 1.0000000000000000e+00 1.6675055867960410e+01 1.7660632134730292e+01 1.0014409730208969e+01 
7 1 2 1.0280000325841412e+00 -4.5894371530249089e+02 1.0000000000000000e+00 1.9278545645734400e+01 1.7693143404200580e+01 1.0008648181080881e+01 
110 1 2 1.0280000171453048e+00 -3.6153879820144522e+02 1.0000000000000000e+00 1.8682914833617701e+01 1.8510887060745272e+01 1.0649930423412110e+01 
98 1 2 1.0279999986462085e+00 -2.5730766756659284e+02 1.0000000000000000e+00 1.8404263597476088e+01 1.3817183162847156e+01 1.5061678519038100e+01 
164 1 2 1.0279999972701788e+00 -4.1194930778968239e+02 1.0000000000000000e+00 1.8375622471922956e+01 1.3814005440131263e+01 1.5026614402651461e+01 
71 1 2 1.0279999983185166e+00 -3.5759211493170500e+02 1.0000000000000000e+00 1.8388615428175445e+01 1.3837713262231491e+01 1.4907263021030467e+01 
104 1 2 1.0279999972460827e+00 -2.8606776476782863e+02 1.0000000000000000e+00 1.8349207313406151e+01 1.3860293002397047e+01 1.5350325053395634e+01 
170 1 2 1.0280000005794623e+00 -3.0170805798696415e+02 1.0000000000000000e+00 1.8430603563202737e+01 1.3859038693641759e+01 1.4868894831873414e+01 
48 1 2 1.0279999997960880e+00 -3.5238049386859439e+02 1.0000000000000000e+00 1.8414354942311668e+01 1.3855255476244507e+01 1.4867940011964007e+01 
5 1 2 1.0280000034931198e+00 -5.0125115481649323e+02 1.0000000000000000e+00 1.8492316907299827e+01 1.3869594219862545e+01 1.4897528082337255e+01 
85 1 2 1.0279999957598904e+00 -2.7136092938525530e+02 1.0000000000000000e+00 1.8260614002760875e+01 1.3968690383647882e+01 1.5540061764908954e+01 
89 1 2 1.0279999938822313e+00 -3.2546108196057446e+02 1.0000000000000000e+00 1.8098686151934817e+01 1.4202464608461081e+01 1.5714669483058209e+01 
97 1 2 1.0280000100293170e+00 -3.3442087848156041e+02 1.0000000000000000e+00 1.8509764918676179e+01 1.4354308879845004e+01 1.4413431388779630e+01 
137 1 2 1.0279999971288778e+00 -3.7594930103862589e+02 1.0000000000000000e+00 1.7974646574967334e+01 1.4807451533166134e+01 1.5806633474016314e+01 
84 1 2 1.0280000008301096e+00 -3.0318260600830558e+02 1.0000000000000000e+00 1.8417587372259884e+01 1.5333638494479649e+01 1.4485186713157129e+01 
8 1 2 1.0279999947822527e+00 -3.6657793249653577e+02 1.0000000000000000e+00 1.8074008954505764e+01 1.5427232120093532e+01 1.5598518410986062e+01 
6 1 2 1.0279999879066242e+00 -2.8892609840329897e+02 1.0000000000000000e+00 1.8314130154156057e+01 1.5627633989078188e+01 1.4675619214562939e+01 
118 1 2 1.0279999846587988e+00 -2.4452495420237256e+02 1.0000000000000000e+00 1.8127731747496696e+01 1.5689339648879104e+01 1.5348461410737858e+01 
139 1 2 1.0279999827200830e+00 -3.9613432196076542e+02 1.0000000000000000e+00 1.8144243335805967e+01 1.5719156759672757e+01 1.5298095978428472e+01 
86 1 2 1.0279999856809314e+00 -2.7849153689271600e+02 1.0000000000000000e+00 1.7585330873325194e+01 1.5785541770459194e+01 1.4733380809168585e+01 
63 1 2 1.0280000260750239e+00 -3.7431905578926370e+02 1.0000000000000000e+00 1.5370833674009280e+01 1.7205700910248119e+01 1.3396537620875657e+01 
27 1 2 1.0279999901995496e+00 -4.0541391566424153e+02 1.0000000000000000e+00 1.4847772956065247e+01 1.7718203225429075e+01 1.4255851828336342e+01 
165 1 2 1.0279999911394575e+00 -2.7820354711284631e+02 1.0000000000000000e+00 1.4853806048938234e+01 1.7697821181899648e+01 1.4404743072058462e+01 
78 1 2 1.0279999915432780e+00 -3.4012290676152628e+02 1.0000000000000000e+00 1.4687093040625621e+01 1.7871772169024336e+01 1.5089197958138755e+01 
57 1 2 1.0279999929152503e+00 -3.3794183547226783e+02 1.0000000000000000e+00 1.4581942877140277e+01 1.8040553178466869e+01 1.5582912188356529e+01 
103 1 2 1.0279999923801453e+00 -3.7349825416326394e+02 1.0000000000000000e+00 1.4579593870009864e+01 1.8033569258137906e+01 1.5481678956373562e+01 
24 1 2 1.0279999926804986e+00 -2.3334634028862013e+02 1.0000000000000000e+00 1.4431544637981055e+01 1.8492522233742424e+01 1.5988323869283573e+01 
50 1 2 1.0279999916311999e+00 -2.9991405739361937e+02 1.0000000000000000e+00 1.4392541628896089e+01 1.8513514640355513e+01 1.5708521960328230e+01 
9 1 2 1.0279999917544087e+00 -4.0196938062835864e+02 1.0000000000000000e+00 1.4371213756554441e+01 1.8641089433470178e+01 1.5764353763702459e+01 
58 1 2 1.0279999930998958e+00 -2.2621089529739893e+02 1.0000000000000000e+00 1.4448642626028361e+01 1.9396726866087345e+01 1.6149571022137575e+01 
66 1 2 1.0279999930791472e+00 -3.2455155598820033e+02 1.0000000000000000e+00 1.4546068772061712e+01 1.9692748209793407e+01 1.6216982575707128e+01 
132 1 2 1.0280000612075249e+00 -2.6324731475942343e+02 1.0000000000000000e+00 1.6790784876556998e+01 1.6836042646290529e+01 1.4444984492859943e+01 
159 1 2 1.0279999759172818e+00 -3.4545866766623124e+02 1.0000000000000000e+00 1.7458206929779724e+01 1.7562152274591870e+01 1.4403328837169411e+01 
14 1 2 1.0279999932599155e+00 -3.6748493695561280e+02 1.0000000000000000e+00 1.7325904872885744e+01 1.8332325195639893e+01 1.5885990639558861e+01 
134 1 2 1.0280000155101388e+00 -2.2280554415955100e+02 1.0000000000000000e+00 1.7140137238487402e+01 1.8928209787749985e+01 1.3816600185069731e+01 
141 1 2 1.0280000054276581e+00 -3.5224851653491413e+02 1.0000000000000000e+00 1.7235234225927176e+01 1.8953419373780520e+01 1.3984581145165766e+01 
59 1 2 1.0280000116784169e+00 -2.1805531883031352e+02 1.0000000000000000e+00 1.7141385147513873e+01 1.8991975937881342e+01 1.3878355154836386e+01 
146 1 2 1.0280000117007035e+00 -3.2759955069709787e+02 1.0000000000000000e+00 1.7141566744307656e+01 1.8991280514487517e+01 1.3877956957827111e+01 
155 1 2 1.0280000116997223e+00 -3.1747805027482593e+02 1.0000000000000000e+00 1.7141617978657024e+01 1.8991217022890748e+01 1.3877969142565542e+01 
109 1 2 1.0280000116993917e+00 -4.2545623416698993e+02 1.0000000000000000e+00 1.7141615571108790e+01 1.8991227399220307e+01 1.3877975504445708e+01 
111 1 2 1.0279999920536367e+00 -2.9953005438222891e+02 1.0000000000000000e+00 1.7475629915652060e+01 1.9075673981346387e+01 1.4598276371930913e+01 
61 1 2 1.0280000021062088e+00 -3.5273063497152373e+02 1.0000000000000000e+00 1.5923859779145385e+01 1.8282114270246012e+01 1.6855494220272721e+01 
64 1 2 1.0280000007505097e+00 -3.9161810626821739e+02 1.0000000000000000e+00 1.5429102498002827e+01 1.8694645596917841e+01 1.7057908341997429e+01 
3 1 2 1.0279999932107802e+00 -2.9870586037278701e+02 1.0000000000000000e+00 1.5057644032439095e+01 1.9969980219722895e+01 1.6953245513205786e+01 
12 1 2 1.0280000019774920e+00 -3.4429164502589879e+02 1.0000000000000000e+00 1.5966951996557137e+01 1.9230900713927376e+01 1.7196028932513386e+01 
38 1 2 1.0280000024125202e+00 -2.8869288785478989e+02 1.0000000000000000e+00 1.6186568498489276e+01 1.8452732892086942e+01 1.6887187509971163e+01 
95 1 2 1.0280000025248619e+00 -3.9863586999346984e+02 1.0000000000000000e+00 1.6374037425197034e+01 1.8611596994628542e+01 1.6884402829968241e+01 

Velocities

114 -1.3139100593735725e-01 3.5470077080112550e-01 -1.6672585262225887e-02
177 -1.3138973057423989e-01 3.5470100453915315e-01 -1.6672658896596818e-02
88 -1.3142810358176413e-01 3.5466564854731386e-01 -1.6691471328860539e-02
22 -1.3142745461335215e-01 3.5466603610405578e-01 -1.6691210872382390e-02
173 -1.3142856579104212e-01 3.5466536931966053e-01 -1.6691562334002472e-02
176 -1.3143228164312581e-01 3.5466346557369138e-01 -1.6692872629388615e-02
120 -1.3143098261345418e-01 3.5466413110616696e-01 -1.6692268652440459e-02
90 -1.3143390604258434e-01 3.5466258262547440e-01 -1.6693678805705246e-02
54 -1.3143329495630643e-01 3.5466321629232911e-01 -1.6693094077859488e-02
82 -1.3144938323512179e-01 3.5465240815140753e-01 -1.6701145673540863e-02
53 -1.3145027710456850e-01 3.5465149281407576e-01 -1.6701748958808046e-02
107 -1.3145701834004575e-01 3.5464411091612313e-01 -1.6706669986290841e-02
150 -1.3139071000269537e-01 3.5470515903205990e-01 -1.6671856965164763e-02
17 -1.3139132528088318e-01 3.5470648344693329e-01 -1.6671399827039444e-02
32 -1.3139138602217759e-01 3.5470674177023437e-01 -1.6671288904139409e-02
77 -1.3139140376456046e-01 3.5470692419581462e-01 -1.6671204667485007e-02
49 -1.3139140667041699e-01 3.5470692814672167e-01 -1.6671202659618755e-02
108 -1.3139143834176786e-01 3.5470699513156417e-01 -1.6671168842467669e-02
28 -1.3139144837554947e-01 3.5470702040874019e-01 -1.6671155905554010e-02
148 -1.3138245399302412e-01 3.5470563855718140e-01 -1.6658877276895957e-02
135 -1.3138213216787947e-01 3.5470557219381360e-01 -1.6659010419961186e-02
115 -1.3138772513933006e-01 3.5470435023472741e-01 -1.6653894850929975e-02
10 -1.3138816453638963e-01 3.5471383107018212e-01 -1.6658289606232241e-02
65 -1.3138783916212235e-01 3.5471495234791334e-01 -1.6659623955365813e-02
76 -1.3138783398437615e-01 3.5471496826447985e-01 -1.6659655493873479e-02
169 -1.3138782244033737e-01 3.5471500462797140e-01 -1.6659738219870431e-02
25 -1.3138779687430355e-01 3.5471509318194061e-01 -1.6659877901760257e-02
2 -1.3138785804798483e-01 3.5471519287639841e-01 -1.6660290307483137e-02
11 -1.3139259454099150e-01 3.5471465586330952e-01 -1.6661436069226897e-02
162 -1.3140044628731437e-01 3.5472038299987663e-01 -1.6658075742869885e-02
44 -1.3139992799253433e-01 3.5472038378047671e-01 -1.6658411729484544e-02
166 -1.3139326121352166e-01 3.5471274293417127e-01 -1.6664538212462041e-02
29 -1.3138258364526792e-01 3.5471296535238989e-01 -1.6660533938713300e-02
179 -1.3138256706686946e-01 3.5471307808042768e-01 -1.6660492587793261e-02
100 -1.3138256896759137e-01 3.5471305931472219e-01 -1.6660499162610372e-02
163 -1.3138257059982686e-01 3.5471305153189903e-01 -1.6660501517242233e-02
41 -1.3138257327814798e-01 3.5471303133791132e-01 -1.6660508714858739e-02
144 -1.3138256983250149e-01 3.5471302623146872e-01 -1.6660512855701182e-02
73 -1.3138257406519765e-01 3.5471302996814941e-01 -1.6660508884396710e-02
154 -1.3138258105678299e-01 3.5471300207099415e-01 -1.6660517652483629e-02
43 -1.3138257768980030e-01 3.5471298979027988e-01 -1.6660525288751647e-02
160 -1.3138242927679936e-01 3.5471325955654048e-01 -1.6660509003074666e-02