LAMMPS data file via write_data, version 30 Jul 2016, timestep = 50400000

2772 atoms
8 atom types

0.0000000000000000e+00 1.0000000000000000e+02 xlo xhi
0.0000000000000000e+00 4.0000000000000000e+01 ylo yhi
0.0000000000000000e+00 4.0000000000000000e+01 zlo zhi

Masses

1 3.896
2 5.36
3 20.064
4 8.378
5 8.378
6 8.378
7 8.378
8 8.378

Atoms # meso-molecular

1388 1389 2 1.0280000000002676e+00 -1.0567397260666521e+03 1.0000000000000000e+00 1.4310806643707028e+00 1.1025892134180437e+00 1.9451714651027801e+00 
1839 1840 2 1.0279999999991962e+00 -6.0898709031823564e+03 1.0000000000000000e+00 5.0857873885065596e-01 1.2942185672036963e+00 1.9936157860309642e+00 
2406 2407 2 1.0280000000001597e+00 -7.3928478464720574e+03 1.0000000000000000e+00 3.8118435362126393e+00 3.5528292878606121e-01 1.8794136319941617e+00 
727 728 2 1.0280000000000304e+00 1.2641821872064946e+04 1.0000000000000000e+00 3.8293889684119207e+00 5.0390541918008058e-01 1.9848559971548736e+00 
1702 1703 2 1.0280000000003044e+00 -5.8342457891392360e+02 1.0000000000000000e+00 3.6597142714035940e+00 8.7447534312419184e-01 2.0388803068183496e+00 
419 420 2 1.0279999999991905e+00 1.0181368182535254e+04 1.0000000000000000e+00 1.3290501048543421e+01 2.1556278022841071e+00 7.3044642128667986e-02 
1877 1878 2 1.0279999999999057e+00 1.1020132390317356e+03 1.0000000000000000e+00 1.3183459920155704e+01 1.7850756226032038e+00 4.9748733245095829e-02 
1526 1527 2 1.0280000000036771e+00 -4.9158051229719076e+03 1.0000000000000000e+00 1.8152341963994278e+00 3.7443041376863127e+00 9.7271863781157564e-01 
1910 1911 2 1.0279999999939318e+00 2.8564372593831467e+03 1.0000000000000000e+00 1.8020619068138504e+00 4.5083827094453390e+00 1.3548733013917142e+00 
718 719 2 1.0280000000007812e+00 2.5332169455296007e+03 1.0000000000000000e+00 1.3229057191101850e+00 3.0313472080834436e+00 1.1414812022528651e+00 
652 653 2 1.0279999999958975e+00 8.0520812728367473e+03 1.0000000000000000e+00 2.1563282094317651e-01 6.3091282839056300e+00 2.0159928246736092e+00 
261 262 2 1.0279999999995202e+00 1.4491624177945037e+03 1.0000000000000000e+00 6.1824545533000563e+00 7.2216143392583074e+00 5.1556312836805029e-01 
2273 2274 2 1.0279999999991982e+00 -7.3382733897104081e+03 1.0000000000000000e+00 6.2683162732743600e+00 7.2023895293941882e+00 6.0024906179113413e-01 
177 178 2 1.0280000000054554e+00 1.4769872385737087e+03 1.0000000000000000e+00 7.4851781569787939e+00 6.1716231603649927e+00 1.8062269881992137e+00 
551 552 2 1.0280000000023448e+00 -7.0934943400565899e+03 1.0000000000000000e+00 7.5199647435125279e+00 6.2907799289867192e+00 1.6906607048284590e+00 
803 804 2 1.0280000000020444e+00 -7.0964461275160975e+03 1.0000000000000000e+00 7.5205310992305305e+00 6.2398421154621300e+00 1.6302897164203045e+00 
1662 1663 2 1.0279999999956999e+00 5.5424789898398012e+03 1.0000000000000000e+00 1.5447690840061732e+00 7.5581106172445400e+00 1.9270551908176974e+00 
1200 1201 2 1.0280000000080842e+00 5.5407179030567495e+03 1.0000000000000000e+00 1.2103744022023371e+00 7.7794664671550331e+00 7.6209569298743296e-01 
1314 1315 2 1.0280000000011815e+00 -8.4285435325868821e+02 1.0000000000000000e+00 1.8608897903350141e+00 8.3296820967899485e+00 2.4841719960851476e+00 
1831 1832 2 1.0279999999985221e+00 -2.5465926336748698e+03 1.0000000000000000e+00 2.9753264407828515e+00 9.9611377965773737e+00 2.0387819104366725e+00 
2369 2370 2 1.0279999999994149e+00 1.2772759357700479e+03 1.0000000000000000e+00 2.9934092237363945e+00 1.0203090935354913e+01 1.9330886213669172e+00 
2689 2690 2 1.0280000000002105e+00 -2.7462561979884431e+03 1.0000000000000000e+00 2.8422463305171872e+00 1.1221570159841692e+01 1.2122828579397840e+00 
2188 2189 2 1.0280000000005485e+00 1.4262187158000074e+03 1.0000000000000000e+00 3.6286464893341410e+00 1.1255639773909175e+01 5.6722538218610463e-01 
1936 1937 2 1.0280000000006018e+00 1.4269218078686924e+03 1.0000000000000000e+00 3.6292948978690061e+00 1.1258850421328276e+01 5.8454668549598710e-01 
1563 1564 2 1.0279999999969034e+00 2.1292245784394595e+03 1.0000000000000000e+00 1.8553625595151027e-01 1.4258662399526351e+01 1.3088515016488933e+00 
1482 1483 2 1.0279999999975362e+00 -8.4226871769789723e+03 1.0000000000000000e+00 5.8746224033992944e-01 1.5057811742995179e+01 1.0275702037979686e+00 
58 59 2 1.0280000000050749e+00 -8.2442291140255907e+02 1.0000000000000000e+00 6.1724395473146024e-02 1.6144379659965608e+01 5.4455346219709566e-01 
839 840 2 1.0280000000051477e+00 6.8541325241111542e+02 1.0000000000000000e+00 5.4047150885056405e-02 1.6140512173631016e+01 5.3756482690815044e-01 
1037 1038 2 1.0279999999993708e+00 -3.2966073877870476e+03 1.0000000000000000e+00 1.1985417485782224e+00 1.8793143950222280e+01 9.7469468165324136e-01 
2606 2607 2 1.0279999999988270e+00 -4.0295051846381657e+03 1.0000000000000000e+00 1.7880513241789227e+00 1.9374518795938048e+01 2.0111427086349960e+00 
2625 2626 2 1.0279999999997029e+00 -7.3758133166381103e+03 1.0000000000000000e+00 2.6000994449657466e+00 1.8807377211348353e+01 6.8506179093622699e-01 
2546 2547 2 1.0280000000003033e+00 4.0152233488457096e+03 1.0000000000000000e+00 2.9027567636190552e+00 1.9220940473360415e+01 9.5414430738872835e-01 
2457 2458 2 1.0280000000006599e+00 -7.3755130904162143e+03 1.0000000000000000e+00 2.9197336149162636e+00 1.9389383196397031e+01 1.1682559774287304e+00 
2448 2449 2 1.0279999999954104e+00 -3.7264756303769991e+03 1.0000000000000000e+00 2.3936903878477795e+00 1.1381442878287390e-01 3.9032655614086047e+00 
1399 1400 2 1.0279999999970884e+00 -9.0673516132682016e+02 1.0000000000000000e+00 2.4455639905591116e+00 2.4560503210174871e+00 3.7429589914716122e+00 
1692 1693 2 1.0280000000015339e+00 -3.0547978348476709e+03 1.0000000000000000e+00 2.7575747956561867e+00 2.3630668254801841e+00 3.7570912582381175e+00 
2118 2119 2 1.0279999999991731e+00 9.0845553306422480e+03 1.0000000000000000e+00 5.2752137051173511e+00 2.0140700208097289e+00 2.8972010264689811e+00 
2103 2104 2 1.0279999999991638e+00 -7.3552685044438249e+02 1.0000000000000000e+00 5.3017734775971466e+00 2.0147256825462518e+00 2.8906311290201625e+00 
717 718 2 1.0280000000007961e+00 -7.6088813644927109e+02 1.0000000000000000e+00 6.3099761943165076e+00 1.3461667009038998e+00 3.2975078786517384e+00 
935 936 2 1.0280000000008995e+00 -1.7653041736312975e+03 1.0000000000000000e+00 6.3657541109052893e+00 1.4031024066721807e+00 3.3230755923407407e+00 
431 432 2 1.0279999999978964e+00 -5.1141614576578340e+03 1.0000000000000000e+00 6.3339007021629588e+00 1.6450938669019479e+00 4.8768253235146606e+00 
1783 1784 2 1.0280000000007350e+00 -1.3234208477525335e+03 1.0000000000000000e+00 9.7316354363671198e-01 3.3547377928576467e+00 3.9611136701998411e+00 
1076 1077 2 1.0280000000004548e+00 4.3034552865362150e+02 1.0000000000000000e+00 8.5618681814554698e-01 2.8217582734521347e+00 3.1445355646152020e+00 
302 303 2 1.0279999999949325e+00 -1.5377661028296689e+03 1.0000000000000000e+00 1.2317325283262885e+00 4.6414574859919977e+00 4.6835610935260394e+00 
110 111 2 1.0279999999968039e+00 -4.3878513114530724e+03 1.0000000000000000e+00 3.1630078916970668e+00 2.6863484394312733e+00 4.5133709456074751e+00 
1 2 2 1.0279999999993983e+00 -4.6971372504523133e+03 1.0000000000000000e+00 5.8036690926686081e+00 2.5120228216139329e+00 4.9056687366844187e+00 
2306 2307 2 1.0279999999978842e+00 -7.2724282480957809e+03 1.0000000000000000e+00 5.9950568635969885e+00 4.7425674266252020e+00 4.4497899099600309e+00 
38 39 2 1.0279999999986229e+00 -4.4671570166469774e+03 1.0000000000000000e+00 6.2319749659538397e+00 4.7456347604111331e+00 4.4913275732412554e+00 
732 733 2 1.0280000000047995e+00 9.0765306258400960e+03 1.0000000000000000e+00 1.8370042483365452e+00 5.5440708187078576e+00 3.1235772467210681e+00 
1538 1539 2 1.0280000000042215e+00 4.3637333602167632e+02 1.0000000000000000e+00 8.6634426847404344e-01 6.3018480313472898e+00 3.5177650373380396e+00 
2716 2717 2 1.0279999999984750e+00 -9.6385247441718570e+02 1.0000000000000000e+00 3.0942929230672993e+00 5.3340180784490965e+00 2.9676388997531440e+00 
1073 1074 2 1.0279999999996940e+00 -4.3304807384354581e+02 1.0000000000000000e+00 3.4105569134873077e+00 5.7936312100392460e+00 2.5026904370971348e+00 
1067 1068 2 1.0279999999996832e+00 3.7666291856340513e+02 1.0000000000000000e+00 3.4130024363658711e+00 5.7915752489663106e+00 2.5048079009015898e+00 
1886 1887 2 1.0279999999984804e+00 -7.3166334956089140e+03 1.0000000000000000e+00 5.1789874823853213e+00 6.6079118837240962e+00 3.7885323467449967e+00 
202 203 2 1.0280000000016514e+00 1.4532667372319511e+03 1.0000000000000000e+00 5.4276819850769229e+00 6.5506986103242193e+00 4.4247847280722903e+00 
1853 1854 2 1.0280000000003910e+00 -7.2980677629010661e+03 1.0000000000000000e+00 5.3576356479462648e+00 6.0913792889784331e+00 3.1822440648838684e+00 
584 585 2 1.0280000000027425e+00 -7.1067041031140689e+03 1.0000000000000000e+00 6.9513269736998788e+00 5.0731527193283528e+00 3.4921797851084664e+00 
836 837 2 1.0280000000018457e+00 -7.1012712504560077e+03 1.0000000000000000e+00 7.0742127771758154e+00 5.4676968027261728e+00 3.8095566828462544e+00 
135 136 2 1.0279999999999880e+00 -5.1840124280786313e+03 1.0000000000000000e+00 5.1380761480633830e-01 8.2195581481625002e+00 4.7252397142283646e+00 
1776 1777 2 1.0279999999966629e+00 -8.4901433815483233e+02 1.0000000000000000e+00 2.9131763934227792e+00 7.7911693411331173e+00 3.4686390051593645e+00 
59 60 2 1.0280000000004208e+00 1.2655190135572630e+03 1.0000000000000000e+00 3.3269090315524341e+00 8.5315073759375863e+00 2.9815238298264446e+00 
1369 1370 2 1.0280000000008476e+00 -2.5605299453960633e+03 1.0000000000000000e+00 3.3840321013003329e+00 8.7196498982633610e+00 2.8185141689365771e+00 
2422 2423 2 1.0279999999991847e+00 -3.1895016251762672e+03 1.0000000000000000e+00 2.8172282882830899e+00 9.6441332554954284e-01 5.6463015833077108e+00 
1012 1013 2 1.0280000000015324e+00 3.1138747424114308e+03 1.0000000000000000e+00 3.9799116181673773e+00 2.3307961907651946e+00 5.7928952339816497e+00 
1205 1206 2 1.0280000000038318e+00 8.9313359118608732e+03 1.0000000000000000e+00 4.2810293389177305e+00 2.4845282053138340e+00 5.1889005262077381e+00 
2680 2681 2 1.0280000000001217e+00 1.3836081885638441e+03 1.0000000000000000e+00 3.0264402546154359e+00 1.7952507640971525e+00 7.2608699728969599e+00 
1271 1272 2 1.0280000000001166e+00 -7.4898937083043638e+03 1.0000000000000000e+00 3.0534371745233524e+00 1.6329251244208598e+00 7.4772406169101879e+00 
771 772 2 1.0279999999952945e+00 -3.1039149967177223e+03 1.0000000000000000e+00 5.7760062499440412e+00 1.2997547015231667e+00 5.5395007068112454e+00 
2113 2114 2 1.0279999999989975e+00 1.2634269597408358e+04 1.0000000000000000e+00 6.7898278696029832e+00 9.1567425870916902e-02 6.5870565897252407e+00 
96 97 2 1.0279999999988467e+00 -7.3964792919423871e+03 1.0000000000000000e+00 6.7836497307829502e+00 6.2976508390779687e-02 6.5661430413644934e+00 
1230 1231 2 1.0280000000012686e+00 -3.0335821840068238e+03 1.0000000000000000e+00 7.8460815722573962e-01 4.7736864111615329e+00 6.7388859498052875e+00 
1269 1270 2 1.0280000000064851e+00 -7.9030638748765386e+02 1.0000000000000000e+00 1.3947246510008104e-01 4.5303783837267382e+00 5.5073920590181489e+00 
1240 1241 2 1.0279999999977705e+00 -5.7314795622155839e+02 1.0000000000000000e+00 1.4946599230498141e+00 5.3021811810698525e+00 6.6513589565997542e+00 
926 927 2 1.0280000000070206e+00 -1.0634526995796127e+03 1.0000000000000000e+00 1.9129504590168467e+00 5.6979670759751162e+00 6.3698840560424790e+00 
1019 1020 2 1.0279999999934579e+00 -7.4383384302188551e+03 1.0000000000000000e+00 5.6137099525338574e-01 6.4899638943469400e+00 5.3851483582141526e+00 
1442 1443 2 1.0279999999931726e+00 1.8773812880184837e+03 1.0000000000000000e+00 1.6077485529232616e+00 7.3112477236654589e+00 7.3239565999727478e+00 
939 940 2 1.0280000000036333e+00 -9.4233438873034720e+03 1.0000000000000000e+00 3.2736532722843199e+00 6.5140238138919653e+00 5.0982868275448601e+00 
1359 1360 2 1.0280000000038780e+00 -9.4233000086525426e+03 1.0000000000000000e+00 3.3741392434888895e+00 6.4920762891054515e+00 5.1990058934598755e+00 
642 643 2 1.0279999999988425e+00 4.1028340360466027e+03 1.0000000000000000e+00 3.7146048726825196e+00 6.6698008786634642e+00 5.3778240697830348e+00 
450 451 2 1.0280000000018266e+00 -3.3731962966914662e+03 1.0000000000000000e+00 5.2977294895258327e+00 5.7446243227854668e+00 6.5873428369522236e+00 
1008 1009 2 1.0280000000011755e+00 2.8899538311868118e+03 1.0000000000000000e+00 5.3019280475558599e+00 5.7035456542305214e+00 6.6944309764078342e+00 
968 969 2 1.0279999999998242e+00 9.0404443621928112e+03 1.0000000000000000e+00 1.2673069715841980e+00 8.7932630219209926e+00 7.2288230447250612e+00 
526 527 2 1.0279999999997840e+00 -7.4126919463461672e+02 1.0000000000000000e+00 1.2817143895677667e+00 8.7545120166447870e+00 7.2493774553712740e+00 
2530 2531 2 1.0280000000025289e+00 2.7942342676024082e+03 1.0000000000000000e+00 3.7632784907967155e-02 7.7164339972020661e+00 5.4723272941653383e+00 
2573 2574 2 1.0280000000014413e+00 9.1962574234582535e+03 1.0000000000000000e+00 6.9445690605631272e-01 1.0042842304283804e+01 5.2471460150943834e+00 
260 261 2 1.0279999999969354e+00 5.8399839451204552e+03 1.0000000000000000e+00 7.2692459277495769e-01 1.0376202990565140e+01 6.2669806774066439e+00 
266 267 2 1.0279999999963678e+00 9.5963281161050218e+03 1.0000000000000000e+00 6.6518665497860541e-01 1.2234981415859837e+01 6.4931275680020679e+00 
145 146 2 1.0279999999997547e+00 -3.1131987600026723e+03 1.0000000000000000e+00 5.8400262399363745e-01 1.0506504457762354e+01 5.4078294264400339e+00 
307 308 2 1.0279999999994067e+00 -1.7286303005216046e+03 1.0000000000000000e+00 5.1624079305032455e-01 1.3054515458798461e+01 6.4491484580976630e+00 
244 245 2 1.0279999999953733e+00 5.2932977144236902e+03 1.0000000000000000e+00 1.1216524299063488e-01 1.3901153466524439e+01 6.7352888100477841e+00 
791 792 2 1.0280000000064324e+00 -4.3272053149042392e+02 1.0000000000000000e+00 5.9998768297893301e-01 1.9493586360929942e+01 6.3927892133875321e+00 
1102 1103 2 1.0280000000006335e+00 2.5625460525531466e+03 1.0000000000000000e+00 3.2146498893195163e-01 1.8571060253957972e+00 9.2200624099604909e+00 
2021 2022 2 1.0279999999965577e+00 -5.1878842829740661e+03 1.0000000000000000e+00 1.3039128691855056e-01 1.5319105271214364e+00 9.4281727620960805e+00 
719 720 2 1.0280000000081517e+00 -5.1818662535476496e+03 1.0000000000000000e+00 5.4585813774498060e-02 1.9988056572831674e+00 8.8699002816277570e+00 
906 907 2 1.0280000000019114e+00 -1.9228427292873521e+03 1.0000000000000000e+00 3.3519996898045079e+00 2.3210544800926121e+00 9.0816989229394451e+00 
242 243 2 1.0280000000000287e+00 9.5205263448637488e+03 1.0000000000000000e+00 4.3450393235458158e+00 6.6443064164807064e-01 7.6134224972443132e+00 
435 436 2 1.0280000000003027e+00 -2.8646001678984921e+03 1.0000000000000000e+00 5.3453764133325574e+00 1.0478066201305276e+00 8.0105746563975533e+00 
2084 2085 2 1.0280000000010765e+00 1.0146188808564313e+04 1.0000000000000000e+00 6.5401723113315038e+00 8.2770021589334580e-02 7.7310953997214433e+00 
773 774 2 1.0280000000039708e+00 -1.1334097956749843e+03 1.0000000000000000e+00 2.0948192323379780e+00 2.6032793761772788e+00 8.4518016610861295e+00 
139 140 2 1.0279999999975933e+00 -1.7109766695034900e+03 1.0000000000000000e+00 2.4141008480000257e+00 3.2462817801012118e+00 8.7174966243609457e+00 
692 693 2 1.0280000000024765e+00 9.4969964032451971e+03 1.0000000000000000e+00 3.5702672624384046e+00 4.1920982495091712e+00 8.8186174553153194e+00 
1156 1157 2 1.0279999999960197e+00 6.2698137396431212e+03 1.0000000000000000e+00 4.1508957499843087e+00 4.1422910888629172e+00 7.8710214472360986e+00 
726 727 2 1.0280000000028178e+00 4.1049573866859591e+03 1.0000000000000000e+00 4.3371632555095427e+00 4.8539394990334133e+00 7.9151390181594712e+00 
1741 1742 2 1.0279999999996194e+00 -4.9506395333650325e+03 1.0000000000000000e+00 5.6870896636631558e+00 2.5793651139677163e+00 7.5946173710870557e+00 
2082 2083 2 1.0279999999993339e+00 6.4422224932059635e+03 1.0000000000000000e+00 5.4476688108332434e+00 2.6676326053048438e+00 8.1209981270847944e+00 
678 679 2 1.0279999999988620e+00 2.3433563195437978e+03 1.0000000000000000e+00 5.6093480434493133e+00 2.7083380261786978e+00 7.6685568606453991e+00 
14 15 2 1.0280000000039939e+00 -2.7178929669453000e+03 1.0000000000000000e+00 9.1815010033411060e-01 6.3286244012776818e+00 8.6924365855205323e+00 
2496 2497 2 1.0280000000007332e+00 9.0940299299485341e+03 1.0000000000000000e+00 1.7431486390090265e+00 5.5713299142936270e+00 9.7991470471914095e+00 
687 688 2 1.0280000000014560e+00 1.7055518445849507e+03 1.0000000000000000e+00 1.3830251755860272e+00 6.9671722604488266e+00 9.8977342795943049e+00 
53 54 2 1.0279999999974405e+00 3.6708925191681938e+03 1.0000000000000000e+00 2.7978681875748475e+00 5.7718003562384474e+00 8.7005228208546921e+00 
389 390 2 1.0279999999967391e+00 3.6614282808489120e+03 1.0000000000000000e+00 2.8109240718899713e+00 5.7841356602679337e+00 8.6430889395348522e+00 
207 208 2 1.0279999999985956e+00 3.9145677395589000e+03 1.0000000000000000e+00 5.1153461742672874e+00 7.0905513202030601e+00 7.6414930853855951e+00 
785 786 2 1.0279999999985554e+00 -5.1035722876683249e+03 1.0000000000000000e+00 5.1295558064078737e+00 7.1142264637115407e+00 7.5969212130626209e+00 
81 82 2 1.0279999999985245e+00 -9.2040696674729043e+02 1.0000000000000000e+00 5.1310370426210605e+00 7.1158275997961269e+00 7.5934167941819846e+00 
138 139 2 1.0280000000053851e+00 -3.7166103625567489e+03 1.0000000000000000e+00 1.5043175472311885e+00 7.8289645123219156e+00 7.9727792848050942e+00 
604 605 2 1.0280000000022103e+00 -3.8783702073703994e+03 1.0000000000000000e+00 5.6709003406946301e-01 1.0883401371961940e+01 8.5602873982792751e+00 
772 773 2 1.0280000000053817e+00 -3.8709800755620927e+03 1.0000000000000000e+00 4.6081389124213096e-01 1.1223096336399061e+01 8.3688127789645304e+00 
1148 1149 2 1.0280000000005487e+00 9.2103498691475306e+03 1.0000000000000000e+00 7.5397502355065038e-01 1.2587903778579154e+01 7.5553713087790380e+00 
21 22 2 1.0279999999996534e+00 -1.6240956447928593e+03 1.0000000000000000e+00 5.0609854402501986e-01 1.4694051732782457e+01 9.0439084107734580e+00 
441 442 2 1.0279999999995106e+00 -1.6505885237943444e+03 1.0000000000000000e+00 4.9828708701883112e-01 1.4615656243005441e+01 9.0712709435796111e+00 
45 46 2 1.0280000000010074e+00 -2.7156134123481288e+03 1.0000000000000000e+00 1.4566548585666433e-01 1.7012029373245067e+01 7.8078364140452781e+00 
61 62 2 1.0280000000005085e+00 -7.0578382368881444e+02 1.0000000000000000e+00 7.1340900786805728e-01 1.8119025954676584e+01 8.5130744090950348e+00 
480 481 2 1.0279999999999527e+00 9.5446840582239656e+02 1.0000000000000000e+00 7.0358871276024693e-01 1.8108994514163157e+01 8.4884650385828913e+00 
19 20 2 1.0280000000043801e+00 -1.7619763230483809e+03 1.0000000000000000e+00 2.9958541570178259e+00 1.8801621567305126e+01 9.9661635846954102e+00 
437 438 2 1.0280000000040190e+00 -2.5821370675158687e+03 1.0000000000000000e+00 3.0321442716290385e+00 1.8806841596593316e+01 9.9931207974419483e+00 
409 410 2 1.0280000000076694e+00 4.0040239742653812e+03 1.0000000000000000e+00 1.8686024950229447e+00 1.5499572509464004e+00 1.1187071486866232e+01 
2159 2160 2 1.0279999999960621e+00 -1.1424465964400279e+03 1.0000000000000000e+00 2.3871456134166493e+00 3.6192021096284466e-01 1.0805821967656783e+01 
2292 2293 2 1.0279999999985012e+00 -1.9308838501576047e+03 1.0000000000000000e+00 2.3949996818073185e+00 3.3897938487061657e-01 1.0849891597149048e+01 
1346 1347 2 1.0279999999977376e+00 -1.0617329925180038e+03 1.0000000000000000e+00 2.5284025083342558e+00 2.1675728832820491e+00 1.0855489289709018e+01 
1236 1237 2 1.0279999999978580e+00 -8.5453631173737836e+02 1.0000000000000000e+00 2.5528276576105182e+00 2.4264189704813699e+00 1.0474941480673120e+01 
1436 1437 2 1.0280000000033747e+00 8.0138136735948028e+03 1.0000000000000000e+00 1.4247767544627687e+00 3.6300153603338772e+00 1.2143357064186430e+01 
2569 2570 2 1.0279999999995919e+00 -8.0230465482989598e+02 1.0000000000000000e+00 1.7015765208034306e+00 4.1396067530446228e+00 1.2299042186285105e+01 
908 909 2 1.0280000000006342e+00 -2.1296415465188011e+03 1.0000000000000000e+00 1.0861855214413292e+00 6.9198240901750268e+00 1.0137388064827467e+01 
259 260 2 1.0280000000018887e+00 -8.0285194189669801e+02 1.0000000000000000e+00 9.5460210669209744e-01 6.1988344298791311e+00 1.1799261416964423e+01 
974 975 2 1.0280000000017357e+00 8.0128701501821579e+03 1.0000000000000000e+00 6.2570887372011430e-01 6.3014696607585554e+00 1.1683786300085885e+01 
198 199 2 1.0279999999997449e+00 9.7250230461174906e+03 1.0000000000000000e+00 6.5463758738784703e+00 1.4934434074380730e+01 1.1107338300022572e+01 
158 159 2 1.0279999999999296e+00 -4.1312530117654333e+03 1.0000000000000000e+00 6.8724821600830364e+00 1.4659310347008821e+01 1.1258864219904401e+01 
2722 2723 2 1.0280000000004899e+00 2.3556193280521220e+03 1.0000000000000000e+00 7.2899403881721216e+00 1.4976216447636149e+01 1.0673420183921124e+01 
226 227 2 1.0279999999978036e+00 -5.3188010927430309e+02 1.0000000000000000e+00 3.1128354324857446e+00 1.6808363106794353e+01 1.2220556591473006e+01 
98 99 2 1.0279999999992004e+00 -3.7808700705014098e+03 1.0000000000000000e+00 2.6775884390218434e+00 1.6612778794535775e+01 1.2219264088456848e+01 
2763 2764 2 1.0280000000001144e+00 -6.8003632678511167e+03 1.0000000000000000e+00 6.8294686151394108e+00 1.5301665091792630e+01 1.0594988018735698e+01 
453 454 2 1.0280000000000904e+00 -6.8003696931230252e+03 1.0000000000000000e+00 7.2956007788431876e+00 1.7319267600948127e+01 1.1169088329451297e+01 
1740 1741 2 1.0280000000002845e+00 -1.8890744329112118e+02 1.0000000000000000e+00 8.5900162329953993e+00 1.5933130121806272e+01 1.2380161195213061e+01 
1278 1279 2 1.0280000000002798e+00 -1.8895502176575616e+02 1.0000000000000000e+00 8.6496349063400420e+00 1.6131091425027336e+01 1.2412429452624622e+01 
2619 2620 2 1.0280000000136609e+00 -2.8202135655867360e+03 1.0000000000000000e+00 5.5356538493554985e-01 1.8960676095430028e+01 1.0119288149919754e+01 
677 678 2 1.0279999999887370e+00 -7.1536633826720608e+03 1.0000000000000000e+00 1.9300104520775978e+00 1.9569245409227111e+01 1.1482900859008133e+01 
1400 1401 2 1.0280000000007377e+00 -1.7114214732332916e+03 1.0000000000000000e+00 2.1440365191317237e+00 1.9586289429806516e+01 1.2422774577373954e+01 
272 273 2 1.0279999999979006e+00 8.8061683976457607e+03 1.0000000000000000e+00 3.0026981814835199e+00 1.8541076397086730e+01 1.0738568098237286e+01 
2508 2509 2 1.0279999999997722e+00 9.7250316673418329e+03 1.0000000000000000e+00 7.0361678162913108e+00 1.7866270723381305e+01 1.2064232890773107e+01 
412 413 2 1.0280000000007254e+00 2.3556259503815336e+03 1.0000000000000000e+00 7.8306759136382160e+00 1.7687635847259973e+01 1.1348315580226560e+01 
2468 2469 2 1.0280000000001275e+00 -4.1315450530140115e+03 1.0000000000000000e+00 7.5846595399847958e+00 1.8182936042988835e+01 1.2273415063120853e+01 
1690 1691 2 1.0280000000030343e+00 -4.7287523005785224e+03 1.0000000000000000e+00 8.1829830773610734e-01 2.4990598659969736e+00 1.3645272049178622e+01 
1771 1772 2 1.0280000000029381e+00 6.9392431564703456e+03 1.0000000000000000e+00 7.2607414734170717e-01 2.4592933705193589e+00 1.3738203300495922e+01 
2399 2400 2 1.0280000000027527e+00 -5.1163704073287390e+03 1.0000000000000000e+00 2.9205747248477909e-01 2.2139743047883602e+00 1.3989974904762759e+01 
1854 1855 2 1.0279999999982914e+00 -5.5179120974311490e+03 1.0000000000000000e+00 1.4402502398138748e+00 4.9214846508062369e+00 1.2888334228250255e+01 
468 469 2 1.0279999999983460e+00 -5.5178836727575163e+03 1.0000000000000000e+00 1.4142691334280713e+00 4.9991271756549098e+00 1.2877553606536232e+01 
2580 2581 2 1.0280000000072156e+00 9.1072992258683953e+03 1.0000000000000000e+00 1.8112338199355307e+00 1.6791954326304189e+01 1.2595386394286038e+01 
1150 1151 2 1.0279999999993548e+00 6.0593013116719567e+03 1.0000000000000000e+00 2.8229059232469296e+00 1.7277151967098956e+01 1.3511292141857934e+01 
697 698 2 1.0279999999988021e+00 9.5051172914557337e+03 1.0000000000000000e+00 3.6732971591922130e+00 1.7241000834231599e+01 1.3009409124656072e+01 
1343 1344 2 1.0279999999997798e+00 9.1912443480781603e+03 1.0000000000000000e+00 7.6326679213381130e+00 1.5799359668265184e+01 1.2932454765555230e+01 
1805 1806 2 1.0279999999990626e+00 9.1905314819552150e+03 1.0000000000000000e+00 7.6441289919332487e+00 1.6444781871249614e+01 1.3126574372125116e+01 
143 144 2 1.0280000000026488e+00 -3.5811039015946067e+03 1.0000000000000000e+00 6.9716832085231306e-01 1.7504143289221499e+01 1.2764000522204105e+01 
549 550 2 1.0279999999936369e+00 -9.7196463337628893e+02 1.0000000000000000e+00 6.0809954823167367e-01 1.8308755633689994e+01 1.3696293008573177e+01 
2417 2418 2 1.0280000000071998e+00 -3.5728843208126209e+03 1.0000000000000000e+00 1.0220497387615542e-01 1.9516136616641543e+01 1.3411084505706654e+01 
278 279 2 1.0280000000070590e+00 1.0089611311077731e+04 1.0000000000000000e+00 2.3608997815477064e+00 1.9731047034275306e+01 1.2841809360135324e+01 
224 225 2 1.0280000000010279e+00 6.8378127972793736e+03 1.0000000000000000e+00 4.4729283069283454e+00 1.8628181159769778e+01 1.4151350480469034e+01 
685 686 2 1.0279999999988512e+00 1.0724085794417459e+04 1.0000000000000000e+00 4.4853768408319903e+00 1.8519675417620693e+01 1.4330561247631229e+01 
1157 1158 2 1.0279999999979250e+00 5.8604005197136830e+03 1.0000000000000000e+00 4.4180118692553974e+00 1.8419847453736359e+01 1.4367842367306046e+01 
2229 2230 2 1.0279999999985763e+00 1.2389145679805947e+03 1.0000000000000000e+00 2.1103034720490876e-01 3.8835957084562369e+00 1.7431361473102296e+01 
86 87 2 1.0280000000022946e+00 -8.4914056083133096e+02 1.0000000000000000e+00 1.9361871388586419e-01 1.6870095213643555e+01 1.7191995725545958e+01 
338 339 2 1.0280000000022229e+00 -8.4954038289677692e+02 1.0000000000000000e+00 1.7729947013589506e-01 1.6864440074898852e+01 1.7193505590677720e+01 
1138 1139 2 1.0279999999949878e+00 1.4028278455917086e+02 1.0000000000000000e+00 4.1316196153066835e+00 1.8868226772496840e+01 1.6345610022834940e+01 
1145 1146 2 1.0279999999987457e+00 5.6106861049952458e+03 1.0000000000000000e+00 4.0872507474728277e+00 1.7819732160137871e+01 1.7416282191306781e+01 
515 516 2 1.0280000000018001e+00 -3.2143723728184468e+03 1.0000000000000000e+00 5.6207279454285608e+00 1.8318123279986260e+01 1.7244779668360824e+01 
851 852 2 1.0280000000013922e+00 -3.2149825235299022e+03 1.0000000000000000e+00 5.5212333193046552e+00 1.8174579769814638e+01 1.7492226524188808e+01 
979 980 2 1.0279999999991232e+00 5.9964106206514134e+02 1.0000000000000000e+00 2.8664340995304238e-01 3.7242842403114347e+00 1.7645836865734584e+01 
2150 2151 2 1.0280000000016258e+00 -4.5948207517101793e+02 1.0000000000000000e+00 9.7175281456536047e-02 3.5500049290018456e+00 1.8165673649822235e+01 
801 802 2 1.0280000000013692e+00 -9.7364891704472871e+02 1.0000000000000000e+00 3.6647843642923500e-01 1.7662945598820254e+01 1.7782846933328802e+01 
446 447 2 1.0280000000018872e+00 -2.5705043416131821e+03 1.0000000000000000e+00 7.6020151020860205e-01 1.9909262546248524e+01 1.8117313864311523e+01 
586 587 2 1.0279999999989839e+00 -9.7765945710249832e+02 1.0000000000000000e+00 3.8670696881291455e+00 1.9674195885487904e+01 1.9127708956557594e+01 
1609 1610 2 1.0279999999977734e+00 4.9935783432280350e+03 1.0000000000000000e+00 3.7433934115835914e+00 1.7827677007631213e+01 1.7925985176329061e+01 
1820 1821 2 1.0279999999992842e+00 -1.7103195022711702e+03 1.0000000000000000e+00 3.2004602448863775e+00 1.8049237132554158e+01 1.9175103821136936e+01 
1136 1137 2 1.0280000000001221e+00 8.0229298331970349e+03 1.0000000000000000e+00 2.7865087742556427e+00 1.8216363908683359e+01 1.9413326047734735e+01 
2544 2545 2 1.0280000000048728e+00 2.3844038070281595e+03 1.0000000000000000e+00 2.4643229678644136e+00 1.9344561293390623e+01 1.8151410020427022e+01 
2066 2067 2 1.0280000000008029e+00 6.1516608650142518e+02 1.0000000000000000e+00 5.6592619798404584e+00 1.9119460715143816e+01 1.7532634968663004e+01 
2608 2609 2 1.0279999999998948e+00 -9.4062751515690320e+02 1.0000000000000000e+00 8.0240545146002396e-01 2.5713865267639080e+00 2.1120786367264408e+01 
2272 2273 2 1.0279999999995848e+00 -2.1421476228394449e+03 1.0000000000000000e+00 1.1407416238924426e+00 2.9013933784752330e+00 2.1447019138044020e+01 
424 425 2 1.0280000000001011e+00 -2.1429081854567758e+03 1.0000000000000000e+00 6.1267179426538931e-01 3.1173298109395837e+00 2.1166072549937468e+01 
1483 1484 2 1.0279999999998515e+00 -8.0742397428716067e+03 1.0000000000000000e+00 1.5248620806502652e-01 4.1369621355442110e+00 2.2383681929707432e+01 
247 248 2 1.0279999999977762e+00 -2.6743457173352926e+03 1.0000000000000000e+00 2.5783823727278068e+00 1.9115463631252943e+01 2.0978846014651179e+01 
811 812 2 1.0279999999985041e+00 -5.4213946504938449e+03 1.0000000000000000e+00 2.5932553362620325e+00 1.9397103218133111e+01 2.1465712613795798e+01 
245 246 2 1.0280000000015248e+00 2.8248244460678148e+02 1.0000000000000000e+00 3.6083420252402449e+00 1.8718399415016076e+01 2.0871685678069369e+01 
1273 1274 2 1.0279999999988749e+00 -8.0262232086761105e+03 1.0000000000000000e+00 1.2029384232465252e+00 1.6538606523393069e+00 2.2543009467389037e+01 
1441 1442 2 1.0279999999992500e+00 6.0980717077433394e+02 1.0000000000000000e+00 9.1443292530312181e-01 9.9205917044709790e-01 2.3279597381367577e+01 
886 887 2 1.0279999999982592e+00 -2.1487895620214758e+03 1.0000000000000000e+00 7.9690364956094939e-01 7.0552486336643960e-01 2.3478690528203543e+01 
1254 1255 2 1.0279999999903575e+00 5.9389721575378212e+02 1.0000000000000000e+00 2.0755569082055075e-01 1.5334297009805561e-01 2.4539984752948694e+01 