LAMMPS data file via write_data, version 30 Jul 2016, timestep = 50400000

567 atoms
2 atom types

0.0000000000000000e+00 2.0000000000000000e+01 xlo xhi
0.0000000000000000e+00 2.0000000000000000e+01 ylo yhi
0.0000000000000000e+00 2.0000000000000000e+01 zlo zhi

Masses

1 3.896
2 5

Atoms # meso-molecular

383 1 2 5.0911494742499768e+00 -4.2103697238063194e+02 1.0000000000000000e+00 6.2126252869442835e+00 7.0302305183219866e+00 1.0849187121954623e+01 
302 1 2 4.8195583410824190e+00 -3.3662295596730206e+02 1.0000000000000000e+00 6.6270919959536299e+00 7.9033247560010453e+00 1.0523675267019540e+01 
173 1 2 5.0450388544293316e+00 -5.1054967013774831e+02 1.0000000000000000e+00 6.2884335078849958e+00 6.6825625315705173e+00 1.1737133257482727e+01 
244 1 2 4.9547790756350842e+00 -4.5291224292586526e+02 1.0000000000000000e+00 6.3881778883883582e+00 7.2005905959446848e+00 1.0531288588957736e+01 
277 1 2 4.9020187925617194e+00 -4.0985162766309213e+02 1.0000000000000000e+00 6.3492926360007651e+00 6.6493116327247517e+00 1.1076841453771685e+01 
50 1 2 4.8720451627406094e+00 -3.3783465332994564e+02 1.0000000000000000e+00 6.1462976232964257e+00 7.3658569522922956e+00 1.0719177655198173e+01 
17 1 2 4.8379905523042881e+00 -5.5342545857893106e+02 1.0000000000000000e+00 6.4584770749678659e+00 6.9288171227080460e+00 1.0565353218977267e+01 
198 1 2 5.0171207696950288e+00 -2.9714126776192967e+02 1.0000000000000000e+00 6.3899495799713071e+00 7.0506771431738713e+00 1.0613271672761783e+01 
369 1 2 5.0175245016217689e+00 -3.8038765923426945e+02 1.0000000000000000e+00 6.5032878005425721e+00 6.6144094019434760e+00 1.1247620500777995e+01 
298 1 2 5.0109332798410300e+00 -4.2902387287596241e+02 1.0000000000000000e+00 6.5272506674526509e+00 8.1200042789226039e+00 1.1337843069432644e+01 
364 1 2 4.8917528350853035e+00 -3.3550479558309172e+02 1.0000000000000000e+00 5.8836789147827622e+00 5.5402923759098188e+00 1.3210249637351303e+01 
161 1 2 4.9059085155248292e+00 -4.4867586508430094e+02 1.0000000000000000e+00 6.0367388581539148e+00 5.4062694600682271e+00 1.3484762803457397e+01 
72 1 2 4.9242624612549806e+00 -5.2442379914791684e+02 1.0000000000000000e+00 5.7189894567523538e+00 5.5777750008050075e+00 1.3226879158202166e+01 
310 1 2 5.1281256791513039e+00 -2.9760690071640369e+02 1.0000000000000000e+00 5.4403266022531875e+00 5.9827526186179210e+00 1.3352660785777335e+01 
142 1 2 5.1868671756387741e+00 -3.2448845239424031e+02 1.0000000000000000e+00 5.9302275094433838e+00 5.5610861424640028e+00 1.3390043088322850e+01 
262 1 2 4.8153591412864785e+00 -3.6222800053643158e+02 1.0000000000000000e+00 5.4165564960900729e+00 5.7840594685622007e+00 1.3247811815998944e+01 
33 1 2 4.7860103705928907e+00 -6.1117548566633252e+02 1.0000000000000000e+00 5.2687022098847711e+00 5.6829375180611059e+00 1.3710904520261028e+01 
16 1 2 5.0402656786423226e+00 -6.7787623465331626e+02 1.0000000000000000e+00 6.1919025294177024e+00 6.9196300279084850e+00 1.2078304297071517e+01 
110 1 2 4.8746709543289306e+00 -3.5564050528858877e+02 1.0000000000000000e+00 6.5281075451246924e+00 6.4015553150520086e+00 1.2883055146216911e+01 
549 1 2 4.8687083064333985e+00 -4.9023359373528166e+02 1.0000000000000000e+00 5.6371856786715453e+00 6.3656921013723933e+00 1.2880363856506721e+01 
536 1 2 4.9769413535126432e+00 -4.4074074802180240e+02 1.0000000000000000e+00 5.9407162164991618e+00 6.9975988427995794e+00 1.3417859196499478e+01 
263 1 2 5.0284373235013948e+00 -3.5962171792747301e+02 1.0000000000000000e+00 6.1591513081489495e+00 7.0414189754360264e+00 1.3197830332634620e+01 
3 1 2 4.9756031061988928e+00 -3.9611919428252088e+02 1.0000000000000000e+00 6.5166325513983399e+00 6.6881635509678006e+00 1.2218640873014319e+01 
19 1 2 4.7369691446395086e+00 -4.4900718181220014e+02 1.0000000000000000e+00 5.3537673420572629e+00 6.4157815730348897e+00 1.3371395572874933e+01 
475 1 2 4.8693503186890483e+00 -2.4997742959468383e+02 1.0000000000000000e+00 6.5739090085977718e+00 7.9002311438772495e+00 1.3717711097322029e+01 
92 1 2 5.0908376063734133e+00 -3.7952495577547057e+02 1.0000000000000000e+00 6.2006507715553143e+00 5.3858592232959879e+00 1.4017193520966579e+01 
69 1 2 4.9697557035510043e+00 -5.1661627124867198e+02 1.0000000000000000e+00 5.5635185846955091e+00 5.5023940793997355e+00 1.5053617651013253e+01 
214 1 2 4.9875696756073626e+00 -5.0806755075632424e+02 1.0000000000000000e+00 5.6470578073431961e+00 5.4133178279870524e+00 1.5584461589977241e+01 
290 1 2 5.0645050022960900e+00 -4.3591596162118668e+02 1.0000000000000000e+00 6.0126214470435730e+00 5.3286772599868470e+00 1.4704507439059160e+01 
393 1 2 5.0336768999672037e+00 -5.1809633153129710e+02 1.0000000000000000e+00 6.2793768894214876e+00 5.5970736150906859e+00 1.5547157360169885e+01 
225 1 2 5.1162727948455409e+00 -4.1042707683717748e+02 1.0000000000000000e+00 5.6387387230580979e+00 5.4232357123137849e+00 1.5805778980028229e+01 
376 1 2 5.0706262776421420e+00 -3.6972326637214815e+02 1.0000000000000000e+00 5.6226537409458270e+00 5.3640462168410421e+00 1.4400665338076639e+01 
484 1 2 4.7152640804199626e+00 -3.5165013006143437e+02 1.0000000000000000e+00 6.3581023833494257e+00 5.4261866910245535e+00 1.5086299524564277e+01 
254 1 2 4.9219609887008824e+00 -4.6866619568536748e+02 1.0000000000000000e+00 5.4910139369065227e+00 5.4721537076340185e+00 1.5793484128558957e+01 
465 1 2 5.2421844436675968e+00 -4.7453180324222706e+02 1.0000000000000000e+00 6.4300062552328425e+00 5.9077109780433528e+00 1.5031039123205106e+01 
49 1 2 4.9439227003164632e+00 -4.8361308372037195e+02 1.0000000000000000e+00 5.5294902725745869e+00 6.5197183728922479e+00 1.4587239192188605e+01 
133 1 2 5.1910745640565406e+00 -3.5819503035274579e+02 1.0000000000000000e+00 6.3361880042646366e+00 6.7308017919278544e+00 1.5090019815753317e+01 
60 1 2 4.9999526022134670e+00 -4.1152771169454604e+02 1.0000000000000000e+00 6.0104923581665188e+00 6.8864789548472229e+00 1.4770545645538272e+01 
200 1 2 5.0794653179886016e+00 -3.1693029486815135e+02 1.0000000000000000e+00 6.4633543784405010e+00 6.4867765040414884e+00 1.5975806614222641e+01 
337 1 2 5.0081049261821011e+00 -3.4820661466690473e+02 1.0000000000000000e+00 6.3848887512556782e+00 7.0589632446588562e+00 1.4734953226295161e+01 
523 1 2 5.0557878100003073e+00 -4.9219866860775488e+02 1.0000000000000000e+00 5.6274322697940118e+00 4.4215077297332792e+00 1.7865449857559828e+01 
265 1 2 4.9641342350432920e+00 -3.6298900056028612e+02 1.0000000000000000e+00 6.0148525334682121e+00 4.1236101622573882e+00 1.7267540450859265e+01 
172 1 2 4.8857122319590696e+00 -4.3629199998288078e+02 1.0000000000000000e+00 5.2835895862790894e+00 4.4357289987741400e+00 1.6842030647044542e+01 
130 1 2 5.0089855421545195e+00 -4.7429417355193823e+02 1.0000000000000000e+00 5.9437872828607556e+00 4.1309601962554625e+00 1.7515888528768286e+01 
548 1 2 5.0045791522550038e+00 -4.2662191014620208e+02 1.0000000000000000e+00 5.1295758508755451e+00 5.0510907072304860e+00 1.6929114982027325e+01 
87 1 2 4.9527799196180489e+00 -3.5120783994493900e+02 1.0000000000000000e+00 5.7223226569945673e+00 4.0922004198092425e+00 1.7415603228950879e+01 
20 1 2 4.8493144133323414e+00 -4.5696467874965020e+02 1.0000000000000000e+00 5.0813747425549618e+00 4.7313097238527302e+00 1.7126572904554365e+01 
151 1 2 5.2153989248054904e+00 -3.1748943241997074e+02 1.0000000000000000e+00 6.3462360923255945e+00 4.4652162892010052e+00 1.7338981635302826e+01 
301 1 2 4.9521276108640588e+00 -1.8996451928532090e+02 1.0000000000000000e+00 6.4378144696630235e+00 4.6881918627637384e+00 1.6902051445234576e+01 
433 1 2 4.9932826964143038e+00 -3.7993314056163854e+02 1.0000000000000000e+00 5.4200896885744010e+00 4.3350724588086251e+00 1.6888762369513458e+01 
353 1 2 4.5810832114861944e+00 -3.2252485789580794e+02 1.0000000000000000e+00 5.0539980801771787e+00 5.0559018901535273e+00 1.6624591785336502e+01 
457 1 2 5.1287739491601139e+00 -2.8424852690371932e+02 1.0000000000000000e+00 5.4972297068127531e+00 5.7724403398623192e+00 1.7290524552961518e+01 
531 1 2 5.2463328591796285e+00 -4.8980643155992550e+02 1.0000000000000000e+00 5.6037744829423497e+00 4.2846270049038271e+00 1.7044004981889692e+01 
268 1 2 5.0878231590003091e+00 -3.1415034664983250e+02 1.0000000000000000e+00 6.5574983878558868e+00 4.7354950141142913e+00 1.7636024746027498e+01 
377 1 2 5.1261995670634626e+00 -3.2025489965165417e+02 1.0000000000000000e+00 6.0757786516585206e+00 4.4317601552346026e+00 1.7920073095970846e+01 
131 1 2 4.8150729364606564e+00 -4.6544518688647685e+02 1.0000000000000000e+00 6.5491179466091216e+00 7.4923843775150747e+00 1.6447824254061100e+01 
272 1 2 5.0621126688639508e+00 -3.1744255365321141e+02 1.0000000000000000e+00 5.8657574024599688e+00 6.1729938375852376e+00 1.7334879688639788e+01 
160 1 2 4.7299239502292609e+00 -4.4392493475073991e+02 1.0000000000000000e+00 5.6725938003512555e+00 6.4177756677251097e+00 1.6120871767904454e+01 
266 1 2 4.9653444795755890e+00 -3.1800187858921475e+02 1.0000000000000000e+00 6.1538205873468295e+00 6.4459560813414392e+00 1.7392809823368392e+01 
62 1 2 5.0222145434920478e+00 -4.7260136781158684e+02 1.0000000000000000e+00 6.0648165235337492e+00 6.3255180843806649e+00 1.7415781430488732e+01 
94 1 2 5.0288443138957311e+00 -2.2233792670966875e+02 1.0000000000000000e+00 6.3209107813290899e+00 6.5570518328035137e+00 1.7231803547925004e+01 
305 1 2 5.0032064721445479e+00 -3.2884224597390863e+02 1.0000000000000000e+00 6.5489946605894191e+00 6.8709124928888459e+00 1.6901660133926249e+01 
15 1 2 5.1587580002029432e+00 -4.3612922231186474e+02 1.0000000000000000e+00 6.2759662370179354e+00 6.5062381453410421e+00 1.6454709449289275e+01 
123 1 2 4.9977901918844880e+00 -4.4908167850736953e+02 1.0000000000000000e+00 6.6063407946140913e+00 5.1399648624837750e+00 1.8187064155250457e+01 
324 1 2 5.0520471525497772e+00 -6.0955718763138191e+02 1.0000000000000000e+00 5.8541247184439538e+00 4.7201432109837373e+00 1.8134683643695290e+01 
378 1 2 4.9189364206086736e+00 -4.2471664223267112e+02 1.0000000000000000e+00 6.0042459842785298e+00 5.1145201755890888e+00 1.8338738032060355e+01 
162 1 2 5.1117462752186809e+00 -6.3773386081902163e+02 1.0000000000000000e+00 6.5877297466833102e+00 6.3801728115259451e+00 1.8345420300553261e+01 
235 1 2 4.9996773022290109e+00 -3.5104933991336316e+02 1.0000000000000000e+00 6.6263418509490037e+00 1.5184519093475794e+01 2.0021679564776407e+00 
154 1 2 4.9999348711230018e+00 -3.3501329489710713e+02 1.0000000000000000e+00 6.6309498642652871e+00 1.5189494868989835e+01 2.0030928039040425e+00 
136 1 2 4.9999440262841723e+00 -4.0948670781692090e+02 1.0000000000000000e+00 6.6309764754926173e+00 1.5189509170487524e+01 2.0030788842706060e+00 
145 1 2 5.0000397314075000e+00 -3.9992646101657658e+02 1.0000000000000000e+00 6.6311789197454072e+00 1.5189674362637351e+01 2.0031338453520222e+00 
73 1 2 5.0000817345302977e+00 -2.6859747443235085e+02 1.0000000000000000e+00 6.6310297011921238e+00 1.5189486547735884e+01 2.0031137865043216e+00 
65 1 2 5.0000815916925392e+00 -2.4734105844995358e+02 1.0000000000000000e+00 6.6310305050584901e+00 1.5189487533184632e+01 2.0031139579049775e+00 
74 1 2 5.0000815770188511e+00 -2.2423650551105496e+02 1.0000000000000000e+00 6.6310305875603914e+00 1.5189487634327353e+01 2.0031139754865830e+00 
155 1 2 5.0000809734108005e+00 -3.0290650791447013e+02 1.0000000000000000e+00 6.6310339717064597e+00 1.5189491783636614e+01 2.0031146954425529e+00 
64 1 2 5.0000774373888026e+00 -2.4336036396787924e+02 1.0000000000000000e+00 6.6310533502275115e+00 1.5189515566394142e+01 2.0031187552620495e+00 
75 1 2 7.9784704544765239e-01 -2.6028965860972414e+02 1.0000000000000000e+00 4.8434270306578187e+00 1.6553851291169256e+01 5.4777798695168398e+00 
66 1 2 7.9784704544765239e-01 -2.4775196040412956e+02 1.0000000000000000e+00 4.8434270306577076e+00 1.6553851291169185e+01 5.4777798695167030e+00 
58 1 2 1.1967705681714786e+00 -2.7513513227757375e+02 1.0000000000000000e+00 4.4652400831009063e+00 1.3442072553305756e+01 6.2247524528867917e+00 
67 1 2 1.1967705681714786e+00 -2.3915913001934086e+02 1.0000000000000000e+00 4.4652400831008379e+00 1.3442072553305771e+01 6.2247524528867411e+00 
57 1 2 1.1967705681714786e+00 -2.5290395271350658e+02 1.0000000000000000e+00 4.4652400831009862e+00 1.3442072553305756e+01 6.2247524528866345e+00 
242 1 2 5.0001216922334732e+00 -3.5332099911171309e+02 1.0000000000000000e+00 4.5738220576095578e+00 1.6978047314678140e+01 1.1765451156611006e+01 
159 1 2 4.9999243516499208e+00 -4.8215475373310619e+02 1.0000000000000000e+00 4.5711161411334214e+00 1.6974940928708385e+01 1.1765854679743672e+01 
241 1 2 5.0000421614386559e+00 -4.5406972934562259e+02 1.0000000000000000e+00 4.5726154149845364e+00 1.6976566879140616e+01 1.1765715027419615e+01 
78 1 2 5.0001139826730174e+00 -5.0605689428681160e+02 1.0000000000000000e+00 4.5739461943042095e+00 1.6978158655911542e+01 1.1765444671662134e+01 
233 1 2 5.0000526420301137e+00 -3.4623614421110369e+02 1.0000000000000000e+00 4.5732845116760510e+00 1.6977228777615249e+01 1.1765672965988118e+01 
152 1 2 4.9999645443979128e+00 -3.0699118028047985e+02 1.0000000000000000e+00 4.5711616628029690e+00 1.6974729465303895e+01 1.1766124421140983e+01 
70 1 2 4.9999515142576421e+00 -2.7874671641479307e+02 1.0000000000000000e+00 4.5713647640598332e+00 1.6974972964836098e+01 1.1766052455128925e+01 
232 1 2 5.0000112081235786e+00 -4.2145693947379715e+02 1.0000000000000000e+00 4.2022654706482481e+00 1.7384385856295868e+01 1.2224084000511036e+01 
71 1 2 4.9999676893107257e+00 -3.4987092053456479e+02 1.0000000000000000e+00 4.2051518005877062e+00 1.7386484085935756e+01 1.2224595152814809e+01 
80 1 2 4.9999686466439961e+00 -5.2465748880092360e+02 1.0000000000000000e+00 4.2051935668542679e+00 1.7386613237772529e+01 1.2224512352339024e+01 
222 1 2 4.9999849653639981e+00 -2.8494071216523059e+02 1.0000000000000000e+00 4.2052450551942284e+00 1.7387199079060316e+01 1.2224012379642375e+01 
61 1 2 5.0000602633833644e+00 -3.3557842612425026e+02 1.0000000000000000e+00 4.2042649108333876e+00 1.7386800988047117e+01 1.2223502967241567e+01 
132 1 2 5.0001137187088949e+00 -2.6368312948671411e+02 1.0000000000000000e+00 4.2061948793623527e+00 1.7388668672713525e+01 1.2223310700923136e+01 
150 1 2 5.0000644416627509e+00 -3.5616968883524618e+02 1.0000000000000000e+00 4.2057055793651008e+00 1.7388272315788516e+01 1.2223330500261941e+01 
468 1 2 5.2496693887445707e+00 -5.3228219653601775e+02 1.0000000000000000e+00 8.0274774721549029e+00 6.6509910038274542e+00 1.3918491790694572e-02 
182 1 2 4.8801985242395816e+00 -3.6128502746563265e+02 1.0000000000000000e+00 7.6323126629007261e+00 6.6254574490852880e+00 1.4993511033284473e-01 
129 1 2 4.9729481213408882e+00 -3.7810388260382331e+02 1.0000000000000000e+00 1.1037707494896488e+01 7.8890865750847556e+00 2.4291197570686046e-01 
276 1 2 4.6305642068575459e+00 -3.2847994013551573e+02 1.0000000000000000e+00 1.1171967416250094e+01 7.2255462003423281e+00 3.7815108415000426e-01 
387 1 2 5.0129515348344569e+00 -3.0199964242134826e+02 1.0000000000000000e+00 1.1454404551767070e+01 7.2832792370539714e+00 2.8583810942343318e-01 
442 1 2 5.0235748201509738e+00 -3.1833091177682911e+02 1.0000000000000000e+00 1.2300309863138216e+01 7.4944566269512762e+00 3.3908145152869124e-01 
181 1 2 4.9312805664571542e+00 -4.4008222151401702e+02 1.0000000000000000e+00 1.1614962496549090e+01 7.1216119366491322e+00 6.5128240629144379e-02 
247 1 2 5.2225883045214720e+00 -4.6536059326491795e+02 1.0000000000000000e+00 1.2559157666739573e+01 7.5697870819691246e+00 1.3112484049213124e-01 
120 1 2 5.1448350223894481e+00 -3.5140896070795441e+02 1.0000000000000000e+00 1.3046073357999814e+01 7.6545880095131533e+00 6.2481753018381700e-02 
53 1 2 4.8082159500973702e+00 -5.6866184858838881e+02 1.0000000000000000e+00 1.1832747723726328e+01 7.3804185278329744e+00 4.7832287967774112e-01 
143 1 2 4.8937884627261612e+00 -3.5258592050542461e+02 1.0000000000000000e+00 1.2420204642225295e+01 7.3620318697234515e+00 2.4458305562873023e-01 
179 1 2 4.6875682745683962e+00 -4.3152308209769700e+02 1.0000000000000000e+00 1.3061820426347074e+01 8.4129547648343070e+00 8.7455426699006245e-02 
304 1 2 5.0799138807839590e+00 -4.3546573834858293e+02 1.0000000000000000e+00 1.2013102008358635e+01 8.4208837210126681e+00 9.2229254014082468e-02 
306 1 2 4.8153565791177781e+00 -3.2722584254308020e+02 1.0000000000000000e+00 1.1480082778614156e+01 8.3315465887195437e+00 1.8756375263075081e-01 
95 1 2 5.1116070260038464e+00 -2.6838767710906507e+02 1.0000000000000000e+00 7.0665546766802434e+00 7.2599661075032573e+00 1.0569358848825551e+01 
229 1 2 5.0454202942475437e+00 -1.8737469165058201e+02 1.0000000000000000e+00 7.4558865469059095e+00 7.5980752028389080e+00 1.0698886402196360e+01 
522 1 2 4.8722659416267806e+00 -4.5713382355165868e+02 1.0000000000000000e+00 7.4167182270450374e+00 7.2231700998191508e+00 1.1642337073294232e+01 
405 1 2 4.9968792959418380e+00 -6.3854696644041599e+02 1.0000000000000000e+00 7.7413883334858671e+00 7.8208391310872667e+00 1.0880464953763529e+01 
177 1 2 4.9721649634912319e+00 -4.0278938879077310e+02 1.0000000000000000e+00 6.6674199488253807e+00 6.6020342760411879e+00 1.1216308716264045e+01 
28 1 2 5.0665111159876854e+00 -4.0259867992866765e+02 1.0000000000000000e+00 8.0692684988875012e+00 9.0927328815661390e+00 1.1209813874262558e+01 
530 1 2 5.2370755745441429e+00 -3.7393068169982729e+02 1.0000000000000000e+00 8.6430280725803144e+00 9.1320597453904551e+00 1.1076948940574111e+01 
125 1 2 4.8401388710611712e+00 -4.9852847283558725e+02 1.0000000000000000e+00 8.2632875268514905e+00 8.9682313515658976e+00 1.0862965412184060e+01 
284 1 2 4.9766275257938668e+00 -2.9216878339961397e+02 1.0000000000000000e+00 8.3567947476657434e+00 8.7305900699929051e+00 1.0879117577903951e+01 
108 1 2 5.0875346471521334e+00 -4.5835409918912939e+02 1.0000000000000000e+00 8.6133849520653545e+00 8.7442254795902556e+00 1.0977577847384969e+01 
192 1 2 5.0689662455421596e+00 -3.2701236307603091e+02 1.0000000000000000e+00 7.2028175199785194e+00 8.2146740916827383e+00 1.0703854635728135e+01 
297 1 2 5.0113396564082437e+00 -4.6309086851207962e+02 1.0000000000000000e+00 8.2192712582606333e+00 8.6826510941545685e+00 1.0887135583113206e+01 
327 1 2 4.8739736860311442e+00 -3.7881702021205945e+02 1.0000000000000000e+00 7.0291267173047611e+00 8.5868556988661187e+00 1.1473296549720365e+01 
210 1 2 4.9760447000303403e+00 -3.3768837296135280e+02 1.0000000000000000e+00 7.2607228150246259e+00 8.7001158274965835e+00 1.1936803167713402e+01 
207 1 2 4.9348712601070313e+00 -3.8305047915445135e+02 1.0000000000000000e+00 6.8130589470733716e+00 8.2003757689125472e+00 1.0761736050274914e+01 
106 1 2 4.8199850453444402e+00 -3.6691419669550720e+02 1.0000000000000000e+00 8.4620531353062152e+00 9.5120554534313495e+00 1.1982325457173822e+01 
96 1 2 4.9452977523325172e+00 -3.7396794317158981e+02 1.0000000000000000e+00 9.4215108027224481e+00 9.0842606699558335e+00 1.0842263948601484e+01 
27 1 2 4.8701256414274399e+00 -5.8383331408522531e+02 1.0000000000000000e+00 9.3393364720183421e+00 9.5998505549697306e+00 1.0787310599470574e+01 
184 1 2 5.0288913148272032e+00 -2.7903153110860001e+02 1.0000000000000000e+00 9.9376342963244468e+00 9.7162899431038774e+00 1.0619800689994523e+01 
348 1 2 4.9976163348230216e+00 -4.7819025983771854e+02 1.0000000000000000e+00 1.0870777469010443e+01 9.3960049250389197e+00 1.1599724978100770e+01 
567 1 2 4.9585594158625304e+00 -5.4825527098140924e+02 1.0000000000000000e+00 9.1429885105580304e+00 8.6370904559205055e+00 1.1466690170324037e+01 
127 1 2 4.6898301523716937e+00 -3.4637928305500282e+02 1.0000000000000000e+00 1.0651564954567156e+01 9.5679873154026307e+00 1.0453689644588410e+01 
215 1 2 4.9765870476022229e+00 -2.6538203810799251e+02 1.0000000000000000e+00 9.0361625580431859e+00 8.6125736834459126e+00 1.1742234975774771e+01 
394 1 2 4.8802064705226824e+00 -2.9384781497880908e+02 1.0000000000000000e+00 9.6173178611759802e+00 8.8760735975872755e+00 1.1860964111880593e+01 
104 1 2 4.8033206116506184e+00 -3.0955648490831612e+02 1.0000000000000000e+00 1.0574043907965676e+01 9.5636592040351474e+00 1.0497545054385927e+01 
86 1 2 4.9919249536646033e+00 -5.2224793504362276e+02 1.0000000000000000e+00 1.0097687120836060e+01 9.7601154553385978e+00 1.0535828691326268e+01 
122 1 2 5.2592741055743755e+00 -4.7627752071372191e+02 1.0000000000000000e+00 7.1249385517637380e+00 7.5799518309539975e+00 1.2120398328308683e+01 
202 1 2 4.9686298770208905e+00 -2.1854819458216392e+02 1.0000000000000000e+00 6.9774166206098824e+00 7.9120222434659127e+00 1.2689580934582160e+01 
221 1 2 4.8105932015811437e+00 -3.1660246203830286e+02 1.0000000000000000e+00 6.7092204665192829e+00 6.1966587406564866e+00 1.3693048984913146e+01 
187 1 2 5.2197344789170934e+00 -4.2335613756946520e+02 1.0000000000000000e+00 8.4279063278798887e+00 9.2998820917184393e+00 1.2019731071949204e+01 
546 1 2 5.1069909785446015e+00 -4.8472511777402622e+02 1.0000000000000000e+00 7.3360578364252067e+00 8.3846887348502772e+00 1.2918579273329490e+01 
107 1 2 5.1253555610284414e+00 -4.9058400027467206e+02 1.0000000000000000e+00 7.2075257054339472e+00 8.5605856939430431e+00 1.3316420472057999e+01 
384 1 2 4.9195863817768526e+00 -3.6141931728142004e+02 1.0000000000000000e+00 7.8796230928292035e+00 9.0849505800883517e+00 1.2924538868334437e+01 
273 1 2 5.0778070534589705e+00 -3.9326546791382816e+02 1.0000000000000000e+00 7.5270289099936116e+00 8.7667524260430785e+00 1.3058607408808994e+01 
336 1 2 5.0645711118653303e+00 -3.2612982113638503e+02 1.0000000000000000e+00 7.2288373266236414e+00 8.7715842807157234e+00 1.3900147616113218e+01 
283 1 2 5.0862316801082201e+00 -3.2095291409452898e+02 1.0000000000000000e+00 7.1167858816240912e+00 8.5750907934203919e+00 1.3429419325440621e+01 
402 1 2 5.1015600380765198e+00 -5.8455339231574942e+02 1.0000000000000000e+00 8.0459428070475649e+00 8.6228954244911389e+00 1.2690022679689609e+01 
278 1 2 5.0569574405394988e+00 -3.7120485285105980e+02 1.0000000000000000e+00 7.9537914005213102e+00 9.0041474093953973e+00 1.3925886097262147e+01 
448 1 2 5.1965345010966066e+00 -3.0724670343848516e+02 1.0000000000000000e+00 7.3509066611291738e+00 8.6979791277433129e+00 1.3652036294539043e+01 
275 1 2 4.7912680755141492e+00 -3.6108695658285654e+02 1.0000000000000000e+00 8.8145140853721102e+00 9.5181589329155205e+00 1.3017672225393142e+01 
10 1 2 5.0009293299631619e+00 -4.0823340930106087e+02 1.0000000000000000e+00 9.1996779814555545e+00 9.5629091110962072e+00 1.3967070256197278e+01 
167 1 2 5.0018557808982926e+00 -4.3320744456001557e+02 1.0000000000000000e+00 9.1625531487371159e+00 9.4830535196164334e+00 1.3716886748766251e+01 
445 1 2 5.0903376338425765e+00 -4.3632942734821944e+02 1.0000000000000000e+00 9.5770229174463228e+00 9.4039396970933229e+00 1.3763232315659844e+01 
255 1 2 4.7793863803239844e+00 -2.8372902148193015e+02 1.0000000000000000e+00 8.9242757184569150e+00 9.6071472478707900e+00 1.3810694908555257e+01 
40 1 2 4.9646119107776210e+00 -3.8978368271290128e+02 1.0000000000000000e+00 9.9377564209580882e+00 9.2169201405950805e+00 1.2213748993600197e+01 
115 1 2 5.1228918378251391e+00 -3.7906932833277392e+02 1.0000000000000000e+00 9.8149801115101027e+00 9.4707618409290362e+00 1.3885033259879798e+01 
99 1 2 4.8525871425313172e+00 -3.8148837666546632e+02 1.0000000000000000e+00 1.0096471466512012e+01 9.2707749928046130e+00 1.3171406441922592e+01 
46 1 2 5.0563500243661155e+00 -4.9237800219593305e+02 1.0000000000000000e+00 9.3391633530248068e+00 9.5563121104828586e+00 1.2424402606980735e+01 
224 1 2 4.9459200403926999e+00 -5.0682262617525879e+02 1.0000000000000000e+00 1.0140396041032417e+01 9.4006022244718324e+00 1.2424798237516095e+01 
8 1 2 4.9456271233178208e+00 -5.0413564793526615e+02 1.0000000000000000e+00 1.0492129603595803e+01 9.6121960945480840e+00 1.2587573376192598e+01 
196 1 2 4.5579730664515674e+00 -5.2817181872489573e+02 1.0000000000000000e+00 1.0489344961467589e+01 9.2652335335500293e+00 1.3685508132940791e+01 
458 1 2 4.9488169001584366e+00 -3.9335501274786469e+02 1.0000000000000000e+00 1.1111039923369114e+01 9.7583651424407343e+00 1.3044965056602496e+01 
539 1 2 4.9903684108822626e+00 -5.0070824782606223e+02 1.0000000000000000e+00 1.1816300514768191e+01 9.9837534447423941e+00 1.2564614948035246e+01 
366 1 2 4.9530442860314121e+00 -3.3325089952081942e+02 1.0000000000000000e+00 1.1593612324791820e+01 9.8609715947045178e+00 1.2899137276338442e+01 
307 1 2 4.8261817193079821e+00 -4.0553411569167736e+02 1.0000000000000000e+00 7.1926066019045827e+00 7.7964211001540322e+00 1.5174683494985397e+01 
467 1 2 4.7965640117832740e+00 -3.5794420481402392e+02 1.0000000000000000e+00 6.7241923947976527e+00 6.6458972332314774e+00 1.4825216992305368e+01 
294 1 2 4.9928688983970355e+00 -4.1858864261726245e+02 1.0000000000000000e+00 6.6878437958706947e+00 7.9300221734360035e+00 1.4201674593385681e+01 
455 1 2 5.1132973100520243e+00 -4.6734893559151840e+02 1.0000000000000000e+00 7.2971465656181644e+00 8.7084121919811999e+00 1.4465481481483510e+01 
169 1 2 4.8749340163587895e+00 -3.6841327858993412e+02 1.0000000000000000e+00 6.9183041602027693e+00 8.2968476171778480e+00 1.5088050151039583e+01 
321 1 2 4.8888963103391037e+00 -5.3099687182227399e+02 1.0000000000000000e+00 8.3289558011855291e+00 9.4753311769794859e+00 1.5758219493147397e+01 
464 1 2 5.1681695489845483e+00 -4.8435812385090173e+02 1.0000000000000000e+00 8.6711153705092148e+00 9.3874648795824793e+00 1.5393785143953505e+01 
7 1 2 5.0004434349871953e+00 -4.2008988358522947e+02 1.0000000000000000e+00 7.4451390121344732e+00 8.7743524276905518e+00 1.5396624588080485e+01 
274 1 2 5.1407086883871465e+00 -2.8594400478028996e+02 1.0000000000000000e+00 8.4424761622684112e+00 9.1012759873155069e+00 1.5114984032393835e+01 
52 1 2 5.1271317051176926e+00 -4.7998106379890186e+02 1.0000000000000000e+00 7.3876737458374873e+00 8.5246181947457629e+00 1.5230214787582407e+01 
31 1 2 5.2525396581621431e+00 -2.8410201699724428e+02 1.0000000000000000e+00 8.3690612483993299e+00 8.8750389074898575e+00 1.5900307029723242e+01 
191 1 2 5.1397526098097890e+00 -3.6197484142314539e+02 1.0000000000000000e+00 7.2838424125274166e+00 8.3146761268977656e+00 1.4968539719226849e+01 
37 1 2 5.1870661240692870e+00 -5.5974802846704426e+02 1.0000000000000000e+00 8.8637277221558861e+00 9.4160660385295749e+00 1.5422696506530512e+01 
451 1 2 5.0022111325663641e+00 -3.9878286445442751e+02 1.0000000000000000e+00 8.8030828088028628e+00 9.6119630969963819e+00 1.5883200171017432e+01 
18 1 2 4.9763525185700725e+00 -6.9111850923234942e+02 1.0000000000000000e+00 6.6910913265375829e+00 8.0208133749210067e+00 1.4215743103031718e+01 
63 1 2 4.9506511224383640e+00 -5.6476152881228745e+02 1.0000000000000000e+00 9.2151370847050771e+00 9.2313480423695609e+00 1.5027012021490757e+01 
386 1 2 4.9525332400940512e+00 -3.3522496862432331e+02 1.0000000000000000e+00 1.0369354940999852e+01 9.7114990426939016e+00 1.4608015154620301e+01 
528 1 2 4.8935519583620630e+00 -3.9969232381649465e+02 1.0000000000000000e+00 9.2630727211366946e+00 9.7948028464665118e+00 1.4332738999340398e+01 
303 1 2 5.0720128753767364e+00 -3.6815907799409410e+02 1.0000000000000000e+00 9.8877226408382075e+00 9.9923649907426721e+00 1.4906586841759262e+01 
252 1 2 3.9892352272382610e+00 -3.4852296680321558e+02 1.0000000000000000e+00 1.1007642808017444e+01 2.4221980030190835e+00 1.6262453953532571e+01 
170 1 2 3.9892352272382610e+00 -4.7727195324593066e+02 1.0000000000000000e+00 1.1007642808038158e+01 2.4221980030603385e+00 1.6262453953589937e+01 
251 1 2 3.9892352272382610e+00 -4.5243365858816861e+02 1.0000000000000000e+00 1.1007642808014895e+01 2.4221980030264634e+00 1.6262453953567604e+01 
341 1 2 3.9892352272382610e+00 -2.6871373648641475e+02 1.0000000000000000e+00 1.1007642807887876e+01 2.4221980028046817e+00 1.6262453953602364e+01 
261 1 2 3.9892352272382610e+00 -4.0825954408796127e+02 1.0000000000000000e+00 1.1007642807979693e+01 2.4221980029230941e+00 1.6262453953575719e+01 
171 1 2 3.9892352272382610e+00 -3.5601342174873827e+02 1.0000000000000000e+00 1.1007642808017707e+01 2.4221980030168586e+00 1.6262453953529867e+01 
269 1 2 3.9892352272382610e+00 -4.2538343459837193e+02 1.0000000000000000e+00 1.1007642807942990e+01 2.4221980028170096e+00 1.6262453953545677e+01 
260 1 2 3.9892352272382610e+00 -4.1782115713289011e+02 1.0000000000000000e+00 1.1007642807927958e+01 2.4221980028378853e+00 1.6262453953561160e+01 
270 1 2 3.9892352272382610e+00 -5.7705259684850671e+02 1.0000000000000000e+00 1.1007642807931205e+01 2.4221980028295449e+00 1.6262453953557472e+01 
342 1 2 3.9892352272382610e+00 -5.3688239602546548e+02 1.0000000000000000e+00 1.1007642807951818e+01 2.4221980029330856e+00 1.6262453953520829e+01 
166 1 2 5.0334968296263458e+00 -4.7622957914586868e+02 1.0000000000000000e+00 6.8559684936048066e+00 7.1705092278524232e+00 1.7391718493670513e+01 
289 1 2 5.1127944517179866e+00 -4.7942370869238550e+02 1.0000000000000000e+00 6.9219348486227208e+00 7.5811342225191343e+00 1.6802852314667042e+01 
79 1 2 4.9509402928632955e+00 -4.7383043686724073e+02 1.0000000000000000e+00 7.7321626484685613e+00 7.5627715955213812e+00 1.7514565261630651e+01 
98 1 2 5.0786133490929268e+00 -3.9829827509478218e+02 1.0000000000000000e+00 7.0110786231278963e+00 7.9378292570999980e+00 1.6530121074486580e+01 
292 1 2 5.1012179447488259e+00 -3.5303632523769602e+02 1.0000000000000000e+00 7.7914758648031262e+00 7.8653612820726133e+00 1.7792830720491825e+01 
117 1 2 4.9541050339237129e+00 -4.3669489144773121e+02 1.0000000000000000e+00 6.9830122687205787e+00 8.0931060451504067e+00 1.6485387672123125e+01 
299 1 2 4.8378130767485503e+00 -4.4173661986755047e+02 1.0000000000000000e+00 7.1734069289226516e+00 8.2173593234725839e+00 1.7176669737283852e+01 
12 1 2 4.9704447039132198e+00 -2.8270836576729846e+02 1.0000000000000000e+00 8.7166056284412328e+00 8.6555226673614829e+00 1.7874943740172707e+01 