LAMMPS data file via write_data, version 30 Jul 2016, timestep = 50000000

567 atoms
2 atom types

0.0000000000000000e+00 2.0000000000000000e+01 xlo xhi
0.0000000000000000e+00 2.0000000000000000e+01 ylo yhi
0.0000000000000000e+00 2.0000000000000000e+01 zlo zhi

Masses

1 3.896
2 5

Atoms # meso-molecular

546 1 2 4.9960557148404474e+00 -4.8431050641494869e+02 1.0000000000000000e+00 6.2688411371766080e+00 7.3760209797937488e+00 1.1567964200894485e+01 
365 1 2 5.0136538982784238e+00 -3.4977026237120208e+02 1.0000000000000000e+00 6.2560428231676690e+00 7.4083596021207692e+00 1.1845451433206117e+01 
165 1 2 4.9522139809926120e+00 -4.0046866607934760e+02 1.0000000000000000e+00 6.2390019030663622e+00 7.4330502643546783e+00 1.1592459499172119e+01 
523 1 2 4.8218410214976029e+00 -4.9217227014430642e+02 1.0000000000000000e+00 6.4179109218919725e+00 7.0369475353552167e+00 1.1466723190569054e+01 
103 1 2 5.0272374265402124e+00 -4.3886589427273037e+02 1.0000000000000000e+00 6.6627042018431135e+00 7.5582365332832779e+00 1.0926175000312057e+01 
177 1 2 4.8112635217103508e+00 -4.0236478592253076e+02 1.0000000000000000e+00 6.5887575324809582e+00 8.2893055903025186e+00 1.1093111951215404e+01 
348 1 2 5.1062521630101898e+00 -4.7814883299993403e+02 1.0000000000000000e+00 4.6910489060535419e+00 5.8214176075838209e+00 1.3828826430361730e+01 
484 1 2 4.8672882705975429e+00 -3.5210345257565979e+02 1.0000000000000000e+00 4.7542996211068766e+00 5.5451652301776830e+00 1.3987156507911815e+01 
442 1 2 4.8035236042429537e+00 -3.1852859758701351e+02 1.0000000000000000e+00 5.2851305073431334e+00 5.5553597825716317e+00 1.3721058822518645e+01 
121 1 2 5.1809401731311029e+00 -3.4898941706410181e+02 1.0000000000000000e+00 4.9605998889563789e+00 5.6072853216447349e+00 1.3974723428394720e+01 
110 1 2 4.9303655410384506e+00 -3.5523002096838991e+02 1.0000000000000000e+00 4.8324977680499241e+00 6.0767143039905385e+00 1.3450176326654780e+01 
197 1 2 5.0888485756526345e+00 -3.8556766068967221e+02 1.0000000000000000e+00 6.4915399291220348e+00 6.9975023148916584e+00 1.2966556105951533e+01 
245 1 2 4.8418854924117412e+00 -3.3896661424850635e+02 1.0000000000000000e+00 6.1978275122344275e+00 7.2378075778232907e+00 1.2062070111395860e+01 
548 1 2 4.9413653621838547e+00 -4.2686873410521792e+02 1.0000000000000000e+00 4.7616742113880184e+00 6.5098835218223057e+00 1.3766147552832022e+01 
194 1 2 4.9875945379190272e+00 -4.6301052031601392e+02 1.0000000000000000e+00 4.9416466864009845e+00 6.0292613967399493e+00 1.3422673449846474e+01 
109 1 2 5.0752652242859755e+00 -4.7399924781123173e+02 1.0000000000000000e+00 6.3747952223068580e+00 6.7878080214928742e+00 1.3274381358065105e+01 
229 1 2 5.1419454199170929e+00 -1.8679826695867263e+02 1.0000000000000000e+00 5.6946237096930261e+00 6.2503198893606484e+00 1.3348358317745820e+01 
357 1 2 5.0294340382006713e+00 -3.0305193451710494e+02 1.0000000000000000e+00 6.5985131770759189e+00 6.7968282435593181e+00 1.3351033931791417e+01 
87 1 2 4.8392498649846889e+00 -3.5259630029817316e+02 1.0000000000000000e+00 4.7425859538913162e+00 6.1724441996101520e+00 1.3473493684113651e+01 
186 1 2 5.0265387858545232e+00 -4.0058881708641371e+02 1.0000000000000000e+00 6.4866091158616248e+00 6.9276583197924611e+00 1.2689924734706960e+01 
1 1 2 4.9437025381476767e+00 -5.3253053354799897e+02 1.0000000000000000e+00 6.6115616482068935e+00 6.8745127546979390e+00 1.2068746446875357e+01 
56 1 2 5.0593835983745690e+00 -4.0773044755168655e+02 1.0000000000000000e+00 5.4947297352689768e+00 6.8487589404558875e+00 1.3916118994233273e+01 
224 1 2 4.8056889713062478e+00 -5.0675353791550845e+02 1.0000000000000000e+00 4.8040592841396519e+00 5.8748505935458617e+00 1.5335743951304044e+01 
259 1 2 5.3206975793225997e+00 -3.2965460934709671e+02 1.0000000000000000e+00 5.6351881837906364e+00 5.7888363005997636e+00 1.4199903422217977e+01 
106 1 2 5.1581538355002579e+00 -3.6759435263386649e+02 1.0000000000000000e+00 5.8972684440210612e+00 5.9500289917047597e+00 1.5154895023161846e+01 
161 1 2 5.1028326261455286e+00 -4.4772136480574056e+02 1.0000000000000000e+00 4.9524421842230968e+00 5.6088376688068005e+00 1.5047828459272113e+01 
531 1 2 5.0035898035428508e+00 -4.8990623525092997e+02 1.0000000000000000e+00 5.0470720342713138e+00 4.8273472540740840e+00 1.5920264724151968e+01 
383 1 2 5.0508894985223955e+00 -4.2074700369738918e+02 1.0000000000000000e+00 4.5390686299015384e+00 5.9586138552659085e+00 1.4235568162397300e+01 
283 1 2 5.1101536809565200e+00 -3.2189610346670003e+02 1.0000000000000000e+00 4.8393987714471809e+00 6.5403059386457842e+00 1.4225951274051669e+01 
221 1 2 4.7413625502813135e+00 -3.1656785193798152e+02 1.0000000000000000e+00 4.4734958035653944e+00 6.3124568249634301e+00 1.4142161857681511e+01 
298 1 2 5.1438228220256947e+00 -4.2831281970887716e+02 1.0000000000000000e+00 5.1683871460179516e+00 6.1263792547090601e+00 1.5276209848188119e+01 
32 1 2 4.9510411815579065e+00 -4.9616560018359144e+02 1.0000000000000000e+00 5.9871157342799162e+00 6.4825706951656299e+00 1.5487568483792089e+01 
107 1 2 4.7908433799701822e+00 -4.8917648979358177e+02 1.0000000000000000e+00 5.9314441386730232e+00 6.4843733280269245e+00 1.5778696415248058e+01 
83 1 2 5.0118241164132069e+00 -4.4139097249063320e+02 1.0000000000000000e+00 6.6052900786706426e+00 6.8170314203787399e+00 1.4053746208849935e+01 
466 1 2 4.9400146245310586e+00 -2.8119841929357000e+02 1.0000000000000000e+00 6.2135770964740997e+00 4.5050779427382235e+00 1.6673816800009835e+01 
181 1 2 4.9739705592937433e+00 -4.3995783541821385e+02 1.0000000000000000e+00 6.3910788298621810e+00 4.2904948030570376e+00 1.7503178105293419e+01 
328 1 2 5.0524779157047934e+00 -3.8165678423000952e+02 1.0000000000000000e+00 5.4086927815626940e+00 4.5254230726879392e+00 1.6182616294567918e+01 
433 1 2 4.9127802488785584e+00 -3.8021013380316492e+02 1.0000000000000000e+00 4.5783630681916332e+00 4.9808836460666379e+00 1.6284334068769439e+01 
284 1 2 4.8413378811861527e+00 -2.9202776450698781e+02 1.0000000000000000e+00 5.2650874997898285e+00 4.1843247978128577e+00 1.6526164192616282e+01 
565 1 2 4.9053746400782030e+00 -2.6288744935994390e+02 1.0000000000000000e+00 6.1902942839545894e+00 4.4381635580457335e+00 1.7993941869541185e+01 
28 1 2 5.1280586625475806e+00 -4.0212223559231120e+02 1.0000000000000000e+00 4.6812932532104625e+00 5.0457985494089099e+00 1.7165844803807200e+01 
172 1 2 4.9913980378800380e+00 -4.3675286117035444e+02 1.0000000000000000e+00 4.6992628495604007e+00 5.0727996840813736e+00 1.6076161987884188e+01 
255 1 2 4.9842086473422427e+00 -2.8381211930469243e+02 1.0000000000000000e+00 5.3275516334942319e+00 4.1078919568193584e+00 1.7305434812622721e+01 
118 1 2 5.1043619592670222e+00 -3.8326315614422782e+02 1.0000000000000000e+00 5.8228720708734176e+00 5.7967317270101626e+00 1.7057099099559938e+01 
3 1 2 4.8684381402799213e+00 -3.9723408594903373e+02 1.0000000000000000e+00 4.5047513602193305e+00 4.9210846527388590e+00 1.6482568337484807e+01 
296 1 2 5.0694728859365137e+00 -3.9762975658923415e+02 1.0000000000000000e+00 5.4446233176590511e+00 4.1718940133675186e+00 1.6725691934906756e+01 
282 1 2 5.0794918554344397e+00 -2.6814881963031854e+02 1.0000000000000000e+00 4.6475078697878764e+00 5.1638419295156543e+00 1.7031191304787772e+01 
265 1 2 5.1627303327109937e+00 -3.6336238166338762e+02 1.0000000000000000e+00 4.7601625704001780e+00 5.4675649772287391e+00 1.6396709469477305e+01 
402 1 2 4.9301216424311844e+00 -5.8368823737955802e+02 1.0000000000000000e+00 4.9002944799511710e+00 5.4009069621791213e+00 1.7269396246512734e+01 
123 1 2 5.0352094751875045e+00 -4.4853566025780282e+02 1.0000000000000000e+00 5.2943840732664693e+00 4.7618090820952048e+00 1.7830436931702934e+01 
257 1 2 4.9046576962358586e+00 -2.7785790166407946e+02 1.0000000000000000e+00 4.7018235948705538e+00 4.3817408051333979e+00 1.7067346977944087e+01 
114 1 2 4.9396169225398419e+00 -4.4049245088612957e+02 1.0000000000000000e+00 5.2477815273941193e+00 4.3344438482922047e+00 1.7674724217336525e+01 
112 1 2 4.8331855778422224e+00 -2.7442697776102710e+02 1.0000000000000000e+00 6.4853783701091592e+00 5.6454598868475996e+00 1.6187107205379121e+01 
212 1 2 4.7363919260075438e+00 -3.8549900304971419e+02 1.0000000000000000e+00 5.0257470601734457e+00 4.5377357058330103e+00 1.7748121888973156e+01 
271 1 2 5.0083111222049332e+00 -4.1022357705990839e+02 1.0000000000000000e+00 6.1992067443056431e+00 6.1223988152122075e+00 1.6347126686556948e+01 
36 1 2 4.9781845916179845e+00 -4.1710861059713835e+02 1.0000000000000000e+00 5.7733184192889473e+00 6.1734554638935668e+00 1.6172122781966014e+01 
248 1 2 5.0271211841346322e+00 -4.2387111087688078e+02 1.0000000000000000e+00 5.8041254401686890e+00 4.8871822717075313e+00 1.8012349020781812e+01 
549 1 2 4.9546828578742899e+00 -4.9025373621969953e+02 1.0000000000000000e+00 6.1540212493886148e+00 4.6647163961349873e+00 1.8106149974766105e+01 
235 1 2 4.9999911662428715e+00 -3.5104934247056320e+02 1.0000000000000000e+00 6.6262859749640093e+00 1.5184252265426608e+01 2.0021799613784768e+00 
154 1 2 4.9999915464330904e+00 -3.3501329705252283e+02 1.0000000000000000e+00 6.6309677455533391e+00 1.5189478631763633e+01 2.0031015161554815e+00 
136 1 2 4.9999904979177936e+00 -4.0948670996847233e+02 1.0000000000000000e+00 6.6309925259303766e+00 1.5189497288556749e+01 2.0030861995370906e+00 
145 1 2 4.9999962894208867e+00 -3.9992646318111525e+02 1.0000000000000000e+00 6.6311847715608456e+00 1.5189708650467811e+01 2.0031328053076165e+00 
73 1 2 5.0000064541058249e+00 -2.6859747663104730e+02 1.0000000000000000e+00 6.6310313024901042e+00 1.5189535854767572e+01 2.0031082157492817e+00 
65 1 2 5.0000064242786788e+00 -2.4734106064850357e+02 1.0000000000000000e+00 6.6310321210966778e+00 1.5189536782875230e+01 2.0031083953816782e+00 
74 1 2 5.0000064212102311e+00 -2.2423650770960433e+02 1.0000000000000000e+00 6.6310322051115733e+00 1.5189536878129660e+01 2.0031084138104496e+00 
155 1 2 5.0000062942240469e+00 -3.0290651011245455e+02 1.0000000000000000e+00 6.6310356510505537e+00 1.5189540785361084e+01 2.0031091687701159e+00 
64 1 2 5.0000055227991398e+00 -2.4336036616249785e+02 1.0000000000000000e+00 6.6310553781071162e+00 1.5189563159968078e+01 2.0031134443529224e+00 
75 1 2 7.9784704544765239e-01 -2.6028965860972414e+02 1.0000000000000000e+00 4.8434270306577032e+00 1.6553851291169213e+01 5.4777798695168585e+00 
66 1 2 7.9784704544765239e-01 -2.4775196040412956e+02 1.0000000000000000e+00 4.8434270306578231e+00 1.6553851291169227e+01 5.4777798695166844e+00 
58 1 2 1.1967705681714786e+00 -2.7513513227757375e+02 1.0000000000000000e+00 4.4652400831001477e+00 1.3442072553305756e+01 6.2247524528858786e+00 
67 1 2 1.1967705681714786e+00 -2.3915913001934086e+02 1.0000000000000000e+00 4.4652400831001735e+00 1.3442072553305801e+01 6.2247524528860483e+00 
57 1 2 1.1967705681714786e+00 -2.5290395271350658e+02 1.0000000000000000e+00 4.4652400831000989e+00 1.3442072553305756e+01 6.2247524528861042e+00 
242 1 2 5.0001183592525180e+00 -3.5332099912022477e+02 1.0000000000000000e+00 4.5738285931324869e+00 1.6978050230931057e+01 1.1765446211199476e+01 
159 1 2 4.9999449607722495e+00 -4.8215475374303367e+02 1.0000000000000000e+00 4.5711016869264087e+00 1.6974941203664521e+01 1.1765860402171141e+01 
241 1 2 5.0000473954185605e+00 -4.5406972934490898e+02 1.0000000000000000e+00 4.5726168356602876e+00 1.6976569454591818e+01 1.1765715202191274e+01 
78 1 2 5.0001104244309378e+00 -5.0605689429527530e+02 1.0000000000000000e+00 4.5739501437912624e+00 1.6978157142922356e+01 1.1765441331187999e+01 
233 1 2 5.0000568406956374e+00 -3.4623614421079662e+02 1.0000000000000000e+00 4.5732845271163631e+00 1.6977227090227572e+01 1.1765674735961653e+01 
152 1 2 4.9999798467406569e+00 -3.0699118028304696e+02 1.0000000000000000e+00 4.5711583756240310e+00 1.6974734670254133e+01 1.1766129010522304e+01 
70 1 2 4.9999685983982785e+00 -2.7874671641932912e+02 1.0000000000000000e+00 4.5713610020478477e+00 1.6974976003104253e+01 1.1766060497892441e+01 
232 1 2 5.0000210443155213e+00 -4.2145693947562427e+02 1.0000000000000000e+00 4.2022533145085852e+00 1.7384369716847825e+01 1.2224082189972709e+01 
71 1 2 4.9999822223362909e+00 -3.4987092054002545e+02 1.0000000000000000e+00 4.2051580370352974e+00 1.7386478835764901e+01 1.2224593744976291e+01 
80 1 2 4.9999830167221555e+00 -5.2465748880624767e+02 1.0000000000000000e+00 4.2052001048242182e+00 1.7386609102863627e+01 1.2224510362310834e+01 
222 1 2 4.9999974238558105e+00 -2.8494071216879570e+02 1.0000000000000000e+00 4.2052503352192288e+00 1.7387198445393686e+01 1.2224008252538173e+01 
61 1 2 5.0000639099626181e+00 -3.3557842612741825e+02 1.0000000000000000e+00 4.2042604352620172e+00 1.7386798863339234e+01 1.2223501584491087e+01 
132 1 2 5.0001112130715999e+00 -2.6368312949701374e+02 1.0000000000000000e+00 4.2062005957629971e+00 1.7388680076585945e+01 1.2223311715276031e+01 
150 1 2 5.0000672269944380e+00 -3.5616968883910016e+02 1.0000000000000000e+00 4.2057080225047283e+00 1.7388278385318547e+01 1.2223328190736920e+01 
372 1 2 4.8780111522545688e+00 -2.9121611354935612e+02 1.0000000000000000e+00 1.0695371228181459e+01 6.8908962132809188e+00 9.5800842954241949e-01 
225 1 2 4.9962711059359739e+00 -4.1107781007722303e+02 1.0000000000000000e+00 9.9991823549647485e+00 6.5961107443845366e+00 3.6047542296264912e-01 
84 1 2 5.1597082571668427e+00 -3.5262217963855136e+02 1.0000000000000000e+00 1.0351278233695332e+01 6.8090175503958896e+00 5.7735348422435018e-01 
143 1 2 5.0410996252715021e+00 -3.5323066331247503e+02 1.0000000000000000e+00 1.0137326727545362e+01 6.8697033241068688e+00 5.9341401197408694e-01 
536 1 2 4.8501679830873341e+00 -4.4152647560779496e+02 1.0000000000000000e+00 9.9725565949798582e+00 6.6345321920387432e+00 4.9756670679374027e-01 
111 1 2 4.8424000009161876e+00 -2.8918250026768180e+02 1.0000000000000000e+00 1.0505664065475324e+01 7.2711355163324223e+00 9.5209557166862158e-01 
247 1 2 4.9460002483707850e+00 -4.6372319655003298e+02 1.0000000000000000e+00 1.0969238545327109e+01 7.9920497640439327e+00 5.7263017158820939e-01 
54 1 2 4.9054079941951336e+00 -4.9203678874447377e+02 1.0000000000000000e+00 1.0393906804021075e+01 6.8289192158332366e+00 7.9161354766210823e-01 
210 1 2 5.1504865330395893e+00 -3.3652791985037260e+02 1.0000000000000000e+00 9.5732843403165315e+00 6.8977512792000280e+00 7.2672634861434424e-02 
38 1 2 4.8212818385485487e+00 -3.1451545894251694e+02 1.0000000000000000e+00 1.1480822654000360e+01 6.8673298533754421e+00 6.7557457672723020e-01 
374 1 2 5.1968886416880933e+00 -2.6081345573056899e+02 1.0000000000000000e+00 1.2530386067700492e+01 7.5170063655035610e+00 1.2764165768834461e+00 
450 1 2 5.1960953474197051e+00 -4.0979447460632747e+02 1.0000000000000000e+00 1.1312597810087976e+01 7.6486211323241315e+00 1.1903638922085968e+00 
223 1 2 5.1126158707060174e+00 -3.7125434917585750e+02 1.0000000000000000e+00 1.1128873723839074e+01 6.9720589440261911e+00 9.4258559617340476e-01 
566 1 2 4.8961473912245008e+00 -5.5737007259406505e+02 1.0000000000000000e+00 1.1779119226479807e+01 7.6629086489059173e+00 1.5499840461683352e+00 
209 1 2 4.7935790307587771e+00 -3.4651607213212168e+02 1.0000000000000000e+00 1.1859701072437369e+01 7.6728162515151483e+00 1.6104290977113689e+00 
42 1 2 4.8634443987857567e+00 -4.6049291017203029e+02 1.0000000000000000e+00 1.3007952115375275e+01 7.7035195125046485e+00 7.8514138582945370e-01 
314 1 2 4.8766995989281847e+00 -3.6487432133006831e+02 1.0000000000000000e+00 1.1974872938849000e+01 7.0655917439236680e+00 1.0981231463539938e+00 
21 1 2 5.1709781561894639e+00 -3.0298427903027954e+02 1.0000000000000000e+00 1.2982074254146696e+01 7.9030396219381611e+00 6.8259490750377472e-01 
292 1 2 5.1680060987975525e+00 -3.5326894669486865e+02 1.0000000000000000e+00 1.2455935046607244e+01 7.3688617884449696e+00 1.0803830277676285e+00 
243 1 2 4.9883115093870956e+00 -4.9963214446444846e+02 1.0000000000000000e+00 1.2705514396195753e+01 7.6854493143189737e+00 1.4144209461801995e+00 
25 1 2 4.9314276789747646e+00 -4.5990366047232857e+02 1.0000000000000000e+00 1.2925026200246799e+01 7.9682731865175587e+00 1.3707608886574476e+00 
193 1 2 5.2671641265750972e+00 -2.3040221407267080e+02 1.0000000000000000e+00 1.3168427403403578e+01 8.4135932342416471e+00 8.1063318558826203e-01 
166 1 2 4.8992821374237998e+00 -4.7511665161731554e+02 1.0000000000000000e+00 1.1849933929128953e+01 8.8369424650660875e+00 1.3856380296143672e-01 
378 1 2 4.8506016211890222e+00 -4.2402125832146481e+02 1.0000000000000000e+00 1.2833696054918162e+01 9.4011685074837334e+00 4.9595339736533173e-01 
175 1 2 5.0996476918581690e+00 -3.7950347962895262e+02 1.0000000000000000e+00 1.2379536131371530e+01 8.3098857722691708e+00 1.4175500532105163e+00 
288 1 2 4.6800353976000766e+00 -4.3664691030990690e+02 1.0000000000000000e+00 1.1734700505068659e+01 8.2646718266838395e+00 1.3613762779701801e+00 
337 1 2 4.5944313812821580e+00 -3.4539265404693435e+02 1.0000000000000000e+00 1.2952525929990104e+01 9.3254048871737876e+00 7.7391870043200484e-01 
345 1 2 4.9608397941054783e+00 -3.9155908129222536e+02 1.0000000000000000e+00 1.2990738960026713e+01 8.2699532702557850e+00 1.2972172158815891e+00 
352 1 2 4.9621845346042832e+00 -2.8426860111478192e+02 1.0000000000000000e+00 7.1749169561853359e+00 7.5756194800627146e+00 1.0849385151672323e+01 
207 1 2 4.7855790768864122e+00 -3.8289465766944431e+02 1.0000000000000000e+00 7.3856820224857573e+00 7.6109553861336909e+00 1.0866256939272844e+01 
95 1 2 4.8580721854920528e+00 -2.6869731624524792e+02 1.0000000000000000e+00 6.8278505029504037e+00 7.0311839855723841e+00 1.1249091667711868e+01 
69 1 2 4.7990057410461304e+00 -5.1607184186933375e+02 1.0000000000000000e+00 7.6799365268885111e+00 7.7772117502526408e+00 1.1149184861799801e+01 
364 1 2 5.1175776272642528e+00 -3.3573429041952431e+02 1.0000000000000000e+00 6.8572432271360793e+00 7.1183901455036480e+00 1.1307225581027309e+01 
41 1 2 4.9945068542402460e+00 -6.7429223893780079e+02 1.0000000000000000e+00 7.6517945735816744e+00 7.8955316205476844e+00 1.1150583414359565e+01 
354 1 2 4.9692491608549165e+00 -2.8953385469518929e+02 1.0000000000000000e+00 7.2507997088261851e+00 8.0553234886835607e+00 1.0750197425390521e+01 
250 1 2 5.0412584510208607e+00 -3.7715054451777598e+02 1.0000000000000000e+00 7.2543668482991670e+00 8.7703092074749556e+00 1.1018684581774053e+01 
323 1 2 4.9040203041793093e+00 -4.6918020526634871e+02 1.0000000000000000e+00 7.6859835704199648e+00 8.7804466468135551e+00 1.0832164238040001e+01 
72 1 2 4.8310009423260620e+00 -5.2397006023356619e+02 1.0000000000000000e+00 8.4542678903542292e+00 9.7656052314007304e+00 1.0267968378340898e+01 
51 1 2 4.8789300883404847e+00 -4.1739945783685607e+02 1.0000000000000000e+00 8.6642319182666885e+00 9.9260158354064814e+00 1.0134416486575672e+01 
456 1 2 5.0543267660298854e+00 -3.4349070201918516e+02 1.0000000000000000e+00 7.4825480975237335e+00 8.9012749982394066e+00 1.1798046487351980e+01 
116 1 2 5.0718003570284420e+00 -4.4398739407379298e+02 1.0000000000000000e+00 7.7745641567859352e+00 9.5332956075020068e+00 1.1460018344012848e+01 
268 1 2 4.6401089437494472e+00 -3.1423060294662145e+02 1.0000000000000000e+00 7.0814585921226998e+00 8.8803366714256171e+00 1.0981838361189208e+01 
355 1 2 4.8897815411522672e+00 -3.3520595504238099e+02 1.0000000000000000e+00 7.2038799602263808e+00 8.8171350603063914e+00 1.1734279342859729e+01 
306 1 2 4.8640002331864975e+00 -3.2826794578967508e+02 1.0000000000000000e+00 7.7659326686679382e+00 9.6108129424248130e+00 1.0811532130301169e+01 
319 1 2 4.9351269971777487e+00 -4.5659271165720105e+02 1.0000000000000000e+00 8.0914067615968950e+00 9.9347273260810045e+00 1.1689668978238050e+01 
127 1 2 4.8088594085074048e+00 -3.4511452657688216e+02 1.0000000000000000e+00 8.8256849208009474e+00 9.8060817284099748e+00 1.0214648278528413e+01 
267 1 2 4.9500523206758569e+00 -3.3489012511869078e+02 1.0000000000000000e+00 9.4049301312152771e+00 9.6811485996892781e+00 1.1678802296080107e+01 
476 1 2 4.9781985538916960e+00 -3.7379065116143448e+02 1.0000000000000000e+00 7.8876621327926113e+00 7.6137189382947152e+00 1.3652189942229766e+01 
8 1 2 4.8628512836614419e+00 -5.0589601382802692e+02 1.0000000000000000e+00 7.6887386474225474e+00 7.3132922658981903e+00 1.3622836622609015e+01 
14 1 2 5.1326071502121602e+00 -3.4526173337294358e+02 1.0000000000000000e+00 7.3862923872072548e+00 7.6350423134119314e+00 1.2957698440747590e+01 
79 1 2 4.9376059815878337e+00 -4.7408903439257273e+02 1.0000000000000000e+00 7.9522461175743606e+00 7.7562402763337168e+00 1.3492927670639492e+01 
100 1 2 4.8001456814705756e+00 -4.2309197764063344e+02 1.0000000000000000e+00 7.0074729847158066e+00 6.8350032673523238e+00 1.3264428335021657e+01 
213 1 2 4.9196820210099625e+00 -3.5576467345486986e+02 1.0000000000000000e+00 7.9855732840851497e+00 8.2769224989344341e+00 1.3262159016988994e+01 
394 1 2 5.0829024187537852e+00 -2.9331266160625978e+02 1.0000000000000000e+00 8.2249927066087558e+00 8.9449207258006478e+00 1.2010527886341640e+01 
205 1 2 4.6089311337989320e+00 -2.7053198132571049e+02 1.0000000000000000e+00 8.3901995689888214e+00 9.7110969067036290e+00 1.2710897980619107e+01 
310 1 2 5.0395583554863075e+00 -2.9740032524553101e+02 1.0000000000000000e+00 8.3544948598893800e+00 9.0897374704936542e+00 1.2474067535399895e+01 
204 1 2 5.0333213337818004e+00 -4.3562871693025858e+02 1.0000000000000000e+00 8.0572844252045002e+00 8.1026023653848078e+00 1.3495348621200362e+01 
385 1 2 4.9084652472884063e+00 -3.1116849524046853e+02 1.0000000000000000e+00 8.3966869400357727e+00 9.1581323327584503e+00 1.3067484524057930e+01 
169 1 2 5.0612507165695586e+00 -3.6985655806450228e+02 1.0000000000000000e+00 7.9515784877318207e+00 8.1547466678257887e+00 1.3525614911191285e+01 
98 1 2 4.9675563569728522e+00 -3.9678130939020684e+02 1.0000000000000000e+00 8.7816946068238178e+00 8.4800854279572366e+00 1.3775669495341974e+01 
321 1 2 5.2340780377798213e+00 -5.2976294128620680e+02 1.0000000000000000e+00 9.1315638897293923e+00 9.4407904674170027e+00 1.3459813856019617e+01 
286 1 2 5.1209714612112709e+00 -3.3339065418008721e+02 1.0000000000000000e+00 9.3059903877910664e+00 9.6668295163284945e+00 1.2055369161510631e+01 
119 1 2 4.8386410258206665e+00 -3.5557651421313261e+02 1.0000000000000000e+00 9.1104839453248871e+00 9.3657758065578491e+00 1.2004676147916010e+01 
9 1 2 5.1396143222221173e+00 -5.9172197915353900e+02 1.0000000000000000e+00 9.0783724514712549e+00 9.1804512633410109e+00 1.2998868668344789e+01 
275 1 2 5.1903707430680184e+00 -3.6207838995446230e+02 1.0000000000000000e+00 9.5179622560283743e+00 9.5464924729999776e+00 1.3949623732825868e+01 
187 1 2 5.0763654730343539e+00 -4.2283112838850849e+02 1.0000000000000000e+00 1.1618632875743739e+01 9.9371310085092190e+00 1.3843320021909888e+01 
290 1 2 4.9243060949111692e+00 -4.3427036177720743e+02 1.0000000000000000e+00 1.3159939301114701e+01 9.8105739858734697e+00 1.3434154214316402e+01 
30 1 2 5.1376532566700694e+00 -3.6666038417832186e+02 1.0000000000000000e+00 7.6877425086849831e+00 7.9028711526123727e+00 1.4339405129930205e+01 
387 1 2 4.8472569853911605e+00 -3.0096278938537682e+02 1.0000000000000000e+00 6.7717458788424665e+00 6.9338375677146766e+00 1.4868355817749586e+01 
285 1 2 4.9907090852930862e+00 -4.0490048405331436e+02 1.0000000000000000e+00 6.9843097422116394e+00 7.0874039828644220e+00 1.5995226207922093e+01 
567 1 2 4.8546047514911228e+00 -5.4706410611042736e+02 1.0000000000000000e+00 7.0449816495440380e+00 7.5029649862062717e+00 1.4535802912812638e+01 
206 1 2 4.8617494373423327e+00 -2.4596266602557901e+02 1.0000000000000000e+00 6.7702318658306746e+00 6.8224021432119235e+00 1.5160129023118809e+01 
459 1 2 4.5834156778229618e+00 -4.0616908101330432e+02 1.0000000000000000e+00 7.1455688350761228e+00 7.5733994892714254e+00 1.5947532844994525e+01 
339 1 2 5.0858054525415710e+00 -2.5758923184454005e+02 1.0000000000000000e+00 7.2928381895709862e+00 7.2396335253770214e+00 1.4289478226077085e+01 
556 1 2 5.0546661004788271e+00 -2.2011140812606365e+02 1.0000000000000000e+00 7.1713892670741624e+00 7.2425374797957485e+00 1.5782231255668709e+01 
94 1 2 4.8436402703945802e+00 -2.2309558289028877e+02 1.0000000000000000e+00 8.4364878634136105e+00 7.9156417085165529e+00 1.5067188792510509e+01 
195 1 2 4.8495352522534940e+00 -4.6654177353979691e+02 1.0000000000000000e+00 7.1059619065986741e+00 6.5670940336711121e+00 1.5741743168260822e+01 
302 1 2 4.8678232679981415e+00 -3.3561359189346598e+02 1.0000000000000000e+00 8.0466294182721771e+00 8.4324299088593335e+00 1.4468362211777311e+01 
168 1 2 4.9579152672472526e+00 -4.4046205800083698e+02 1.0000000000000000e+00 8.3737287398668521e+00 8.1141815550100578e+00 1.5164022328703929e+01 
457 1 2 4.7734920547523965e+00 -2.8453490440578395e+02 1.0000000000000000e+00 8.1848626379957548e+00 8.2311283075930799e+00 1.5483884136938038e+01 
6 1 2 5.0895799953404559e+00 -4.0590495860873466e+02 1.0000000000000000e+00 9.1615715859621503e+00 9.0084261051892156e+00 1.5035845193310667e+01 
162 1 2 5.0921307582743722e+00 -6.3674684420735548e+02 1.0000000000000000e+00 9.3165927844583205e+00 8.5201862914200746e+00 1.5523225397277727e+01 
279 1 2 5.0720610867506473e+00 -2.7067562696332828e+02 1.0000000000000000e+00 9.1158030710397693e+00 8.6364503468294149e+00 1.4887886229863145e+01 
299 1 2 4.8690944000433873e+00 -4.4163609896580294e+02 1.0000000000000000e+00 9.6749434740694547e+00 9.0483283315024554e+00 1.4091857121172490e+01 
403 1 2 5.1626118485282690e+00 -3.5120091800217477e+02 1.0000000000000000e+00 9.2602185967629804e+00 9.1074195804691929e+00 1.4468627838214656e+01 
45 1 2 4.8850531013962888e+00 -4.3308606019273464e+02 1.0000000000000000e+00 9.3496720743417256e+00 9.1717327026826432e+00 1.5664484725273203e+01 
301 1 2 4.8218860934143271e+00 -1.9061384102728499e+02 1.0000000000000000e+00 9.1566092298833279e+00 9.1960904020665168e+00 1.5269142269167517e+01 
48 1 2 4.8469764279323044e+00 -4.0930038517239961e+02 1.0000000000000000e+00 1.0134898954033092e+01 9.8992024033704347e+00 1.4750682463375332e+01 
92 1 2 5.1560067350958336e+00 -3.7921359046350517e+02 1.0000000000000000e+00 1.0208770418126907e+01 9.5055650970568006e+00 1.4847188767607122e+01 
256 1 2 5.1256121308765170e+00 -4.4124493810131196e+02 1.0000000000000000e+00 9.8531712217741791e+00 9.2282379988482575e+00 1.5765220937011382e+01 
50 1 2 5.0040960570838902e+00 -3.3971510645378453e+02 1.0000000000000000e+00 1.0641516263583148e+01 9.5705608071327539e+00 1.5682085794689700e+01 
249 1 2 5.0127097671908345e+00 -4.7560402103240727e+02 1.0000000000000000e+00 1.0622274481371306e+01 9.8964829090657886e+00 1.4930266053096606e+01 
336 1 2 4.7441699524037402e+00 -3.2601390077413743e+02 1.0000000000000000e+00 1.2595803445063774e+01 9.9886911460889749e+00 1.5744275724528066e+01 
477 1 2 4.9399494892846425e+00 -2.8026782292138216e+02 1.0000000000000000e+00 1.2512970821444616e+01 9.6582533402521129e+00 1.4293860290242646e+01 
375 1 2 4.7709681077303072e+00 -3.5163083897381091e+02 1.0000000000000000e+00 1.2023141796113858e+01 9.5254246578782755e+00 1.4097996667945765e+01 
475 1 2 5.0739721829630877e+00 -2.4846022693451422e+02 1.0000000000000000e+00 1.2149175755723139e+01 9.6503870430546002e+00 1.5006380241039558e+01 
315 1 2 5.2605382004398633e+00 -4.4265428762533350e+02 1.0000000000000000e+00 1.1581240826128303e+01 9.6544396431731894e+00 1.4432904055366219e+01 
105 1 2 5.1070945351931858e+00 -4.7880190746178278e+02 1.0000000000000000e+00 1.1954703988794046e+01 9.7914176220234825e+00 1.5576230257420322e+01 
160 1 2 5.1421822945940123e+00 -4.4296861528418708e+02 1.0000000000000000e+00 1.2449914883175030e+01 9.8742903692335648e+00 1.4028903221772190e+01 
343 1 2 4.8558103678224560e+00 -4.5840070882289757e+02 1.0000000000000000e+00 1.3062359693200010e+01 9.6891745871551507e+00 1.4273335363875470e+01 
142 1 2 5.0125575485276048e+00 -3.2294475438660612e+02 1.0000000000000000e+00 1.2072644516053879e+01 9.8722891925990961e+00 1.5736649156839571e+01 
465 1 2 5.2424881352813619e+00 -4.7377370249200283e+02 1.0000000000000000e+00 1.3327858823241629e+01 9.8971960408172084e+00 1.4275041742149638e+01 
252 1 2 3.9892352272382610e+00 -3.4852296680321558e+02 1.0000000000000000e+00 1.1007642807840980e+01 2.4221980026744858e+00 1.6262453953599710e+01 
170 1 2 3.9892352272382610e+00 -4.7727195324593066e+02 1.0000000000000000e+00 1.1007642807792285e+01 2.4221980025681931e+00 1.6262453953525803e+01 
251 1 2 3.9892352272382610e+00 -4.5243365858816861e+02 1.0000000000000000e+00 1.1007642807853870e+01 2.4221980026533130e+00 1.6262453953553248e+01 
341 1 2 3.9892352272382610e+00 -2.6871373648641475e+02 1.0000000000000000e+00 1.1007642808195744e+01 2.4221980032532726e+00 1.6262453953481234e+01 
261 1 2 3.9892352272382610e+00 -4.0825954408796127e+02 1.0000000000000000e+00 1.1007642807960959e+01 2.4221980029367853e+00 1.6262453953550168e+01 
171 1 2 3.9892352272382610e+00 -3.5601342174873827e+02 1.0000000000000000e+00 1.1007642807837348e+01 2.4221980026803003e+00 1.6262453953603021e+01 
269 1 2 3.9892352272382610e+00 -4.2538343459837193e+02 1.0000000000000000e+00 1.1007642808042958e+01 2.4221980032304935e+00 1.6262453953558598e+01 
260 1 2 3.9892352272382610e+00 -4.1782115713289011e+02 1.0000000000000000e+00 1.1007642808096344e+01 2.4221980031719919e+00 1.6262453953528926e+01 
270 1 2 3.9892352272382610e+00 -5.7705259684850671e+02 1.0000000000000000e+00 1.1007642808079140e+01 2.4221980031955113e+00 1.6262453953557529e+01 
342 1 2 3.9892352272382610e+00 -5.3688239602546548e+02 1.0000000000000000e+00 1.1007642808009466e+01 2.4221980029036012e+00 1.6262453953625275e+01 
262 1 2 4.7133099167977912e+00 -3.6127283348630755e+02 1.0000000000000000e+00 6.7552065245866135e+00 5.2057010083112782e+00 1.6632567098135329e+01 
529 1 2 5.0990606794896189e+00 -3.7293445615119651e+02 1.0000000000000000e+00 7.6063993781579269e+00 5.0306014827605692e+00 1.7623728015340323e+01 