LAMMPS data file via write_data, version 30 Jul 2016, timestep = 50400000

384 atoms
2 atom types

0.0000000000000000e+00 2.0000000000000000e+01 xlo xhi
0.0000000000000000e+00 2.0000000000000000e+01 ylo yhi
0.0000000000000000e+00 2.0000000000000000e+01 zlo zhi

Masses

1 3.89
2 6.28

Atoms # meso-molecular

239 1 2 1.6910368128262994e+00 3.0474903693811235e+01 1.0000000000000000e+00 6.4312830930000837e+00 3.7693237041688206e+00 1.0811779014365284e+00 
61 1 2 1.6910368128262994e+00 -1.1923975777799069e+02 1.0000000000000000e+00 5.7352271088432314e+00 6.4326091522323203e+00 1.0058456954220778e+00 
95 1 2 1.6910368128262994e+00 1.9254547448841336e+01 1.0000000000000000e+00 3.5099776074822580e+00 9.4494053891196170e+00 5.7286701556548103e-01 
382 1 2 1.6910368128262994e+00 -2.0832490444810588e+02 1.0000000000000000e+00 4.9864121878068235e-01 3.3570354442715850e-01 2.5168022649365791e+00 
103 1 2 1.6910368128262994e+00 2.1454038992295040e+01 1.0000000000000000e+00 1.2039881365396388e-01 2.6923777000282509e+00 1.6982809106036336e+00 
172 1 2 1.6910368128262994e+00 -3.1083349630750070e+02 1.0000000000000000e+00 5.7247442479030308e+00 2.2120129745550594e+00 2.8105337029441393e+00 
121 1 2 1.6910368128262994e+00 -1.0768348237627899e+02 1.0000000000000000e+00 2.9910936996729740e+00 3.7468531059898438e+00 2.3237323599151680e+00 
86 1 2 1.6910378158347303e+00 2.6861740309468143e+01 1.0000000000000000e+00 7.7337692301304817e-01 8.5067464283254406e+00 1.9573283349435060e+00 
368 1 2 1.6910368128262994e+00 1.8620028539944443e+01 1.0000000000000000e+00 3.2066203891203897e+00 7.6417917392171244e+00 1.4926101476482669e+00 
174 1 2 1.6910368128262994e+00 -3.8431483107954804e+01 1.0000000000000000e+00 2.0812836874126917e+00 2.3556390381004926e+00 4.2520940911467671e+00 
354 1 2 1.6910368128262994e+00 -6.7873066950873522e+01 1.0000000000000000e+00 2.6670193861620257e+00 8.1244709824371846e+00 3.3872368110038096e+00 
29 1 2 1.6910368128262994e+00 1.8275913704130907e+01 1.0000000000000000e+00 4.6604873561338227e+00 7.2700465991480971e+00 2.9531698601975118e+00 
142 1 2 1.6910368128262994e+00 6.7552213717705278e+00 1.0000000000000000e+00 6.2300084924885946e+00 9.3776376059684186e+00 3.1453044433619013e+00 
229 1 2 1.6910368128262994e+00 2.0745537711358303e+01 1.0000000000000000e+00 4.7612571356424493e-01 3.6773868582457547e-01 5.2983024361051045e+00 
315 1 2 1.6910368128262994e+00 2.5778421052173506e+01 1.0000000000000000e+00 5.4309327909688667e+00 7.7049835700304187e-02 5.1896287793855720e+00 
87 1 2 1.6910368128262994e+00 2.6600654074654422e+01 1.0000000000000000e+00 5.6230479435262355e+00 3.6820873972817725e+00 4.5696998280283854e+00 
191 1 2 1.6910368128262994e+00 2.5862384825957413e+01 1.0000000000000000e+00 3.9418932241953626e+00 5.7415681958015199e+00 4.9037889385528750e+00 
190 1 2 1.6910368128262994e+00 2.2292588575973106e+01 1.0000000000000000e+00 2.3456623243564967e+00 7.6016694921763150e+00 5.5547948853402414e+00 
39 1 2 1.6910368128262994e+00 2.7438265563611047e+01 1.0000000000000000e+00 8.2276255984353885e-01 9.0745858752851518e+00 4.4705625726463403e+00 
225 1 2 1.6910368128262994e+00 3.1518029024766960e+01 1.0000000000000000e+00 4.3786010613531712e+00 9.9195233068677684e+00 4.3156786280823303e+00 
234 1 2 1.6910368128262994e+00 1.9413048419563445e+01 1.0000000000000000e+00 4.7306674873939603e+00 2.4966961882205387e+00 6.5006936359083340e+00 
232 1 2 1.6910368128262994e+00 1.4245547629970414e+01 1.0000000000000000e+00 1.1721386856309350e+00 2.9664053976687161e+00 6.4405950784696460e+00 
317 1 2 1.6910368128262994e+00 2.3702564883431943e+01 1.0000000000000000e+00 8.3567987775182073e-01 6.2199591290278811e+00 6.6723499681842613e+00 
279 1 2 1.6910369185248550e+00 -2.7919487887600805e+01 1.0000000000000000e+00 1.9846699126103381e-01 9.7252486553850996e+00 6.7873984270652823e+00 
255 1 2 1.6910368128262994e+00 3.1125500044594112e+01 1.0000000000000000e+00 2.4296492866800548e+00 9.4774033085837104e+00 6.5604942961885575e+00 
152 1 2 1.6910518346086529e+00 3.8794224350321436e+01 1.0000000000000000e+00 5.5146752975957121e+00 1.0353526932928820e+00 8.2723446271010825e+00 
73 1 2 1.6910368128262994e+00 1.5726508925730087e+01 1.0000000000000000e+00 1.7243175341001384e+00 2.7592174060699968e+00 8.4645264167800764e+00 
23 1 2 1.6910368128262994e+00 1.5292329220498910e+01 1.0000000000000000e+00 2.7343968272576409e+00 4.8888150322750032e+00 7.5908113078766020e+00 
144 1 2 1.6910404015548826e+00 3.0573720920494285e+01 1.0000000000000000e+00 6.6336511650441849e+00 4.7484817473575163e+00 7.5891047179946538e+00 
303 1 2 1.6910368128262994e+00 3.4608146842176581e+01 1.0000000000000000e+00 8.7641351722609007e-01 7.7993835884608744e+00 8.5381534897901243e+00 
166 1 2 1.6910368128262994e+00 3.2055328568270255e+01 1.0000000000000000e+00 5.3409710978000620e+00 7.2550729593550756e+00 7.6934744841395855e+00 
124 1 2 1.6910368128262994e+00 2.1967579892877488e+01 1.0000000000000000e+00 2.4638336046242197e+00 8.7872139457189880e-01 8.6896085754008361e+00 
344 1 2 1.6910521998746519e+00 -6.2840463129836772e+00 1.0000000000000000e+00 4.5173256200268668e+00 2.7032886658149891e-01 9.7562558403442576e+00 
381 1 2 1.6910368722014888e+00 2.6280212261304644e+01 1.0000000000000000e+00 7.1607888036650724e-01 5.4438599285091760e+00 8.8370276975221600e+00 
71 1 2 1.6910368128262994e+00 -1.6407347205934933e+01 1.0000000000000000e+00 6.2947569446144129e+00 6.7660358302416341e+00 9.8637709805730722e+00 
1 1 2 1.6910368128262994e+00 3.2588145304654006e+01 1.0000000000000000e+00 6.5599141441971041e+00 8.6328776266584448e+00 8.6645626568494585e+00 
186 1 2 1.6910368128262994e+00 4.7529025347372198e+01 1.0000000000000000e+00 2.2314782308522889e+00 2.4524553164256062e+00 1.1193105838706272e+01 
295 1 2 1.6910371780922984e+00 8.4582331924969711e-01 1.0000000000000000e+00 5.8618288648071788e+00 1.5362496730169375e+00 1.0466155408914977e+01 
360 1 2 1.6910368128262994e+00 2.0036772815450831e+01 1.0000000000000000e+00 2.7289815648986293e+00 8.0247865006432839e+00 1.0722099998174734e+01 
92 1 2 1.6910368128262994e+00 2.4504320156971609e+01 1.0000000000000000e+00 4.4205239015467485e-01 9.7425848388238503e+00 1.0808720196906156e+01 
112 1 2 1.6910368128262994e+00 2.9434165452915487e+01 1.0000000000000000e+00 3.2251077980728411e+00 1.0323595583820464e+00 1.2495121442694954e+01 
331 1 2 1.6910368128262994e+00 1.8540112243799669e+01 1.0000000000000000e+00 6.5764478206910084e+00 1.8750181434951614e+00 1.2341388116828563e+01 
210 1 2 1.6910368128262994e+00 1.9938863336607881e+01 1.0000000000000000e+00 1.6158554306142745e+00 5.5476396037860951e+00 1.2736872525742186e+01 
297 1 2 1.6910368128262994e+00 2.8386707516861968e+01 1.0000000000000000e+00 4.7493685344317411e+00 5.3787901211314368e+00 1.2646145036199840e+01 
288 1 2 1.6910368128262994e+00 2.3687811013188110e+01 1.0000000000000000e+00 5.3517902327112470e+00 7.9949759382374435e+00 1.2770323226425951e+01 
158 1 2 1.6910368128262994e+00 2.3784023976072135e+01 1.0000000000000000e+00 2.1330674961960416e-01 1.7677580032467468e+00 1.3596872168576176e+01 
330 1 2 1.6910368128262994e+00 2.4760520448146501e+01 1.0000000000000000e+00 2.9096852109256370e+00 3.6294115943771352e+00 1.2977035483221915e+01 
274 1 2 1.6910368128262994e+00 -1.0319698213688081e+01 1.0000000000000000e+00 8.2601165168590140e-01 1.8292252827582925e-01 1.4677053285774708e+01 
217 1 2 1.6910368128262994e+00 -4.7371955783081646e+01 1.0000000000000000e+00 3.0317904730063261e+00 2.5156932900542217e-01 1.4382459784274557e+01 
3 1 2 1.6910368128262994e+00 2.1277242501351971e+01 1.0000000000000000e+00 5.2125419433535756e+00 2.0002953976340199e+00 1.4911363769090155e+01 
49 1 2 1.6910392436039012e+00 2.0039016138281532e+01 1.0000000000000000e+00 1.7384415619054170e+00 4.8506010391491969e+00 1.5035826221366289e+01 
12 1 2 1.6911863280109771e+00 -1.3731744174888266e+02 1.0000000000000000e+00 5.1401683643237863e+00 4.5230402704376305e+00 1.4952586657902554e+01 
226 1 2 1.6910368134436577e+00 3.2390841151870632e+01 1.0000000000000000e+00 1.9561429846944554e+00 7.4564666500153756e+00 1.7113934896738396e+01 
201 1 2 1.6910368128262994e+00 2.8484662001939242e+01 1.0000000000000000e+00 5.0763185807917868e+00 8.6191851730201439e+00 1.6895226308813974e+01 
6 1 2 1.6910368128262994e+00 3.5186415397112071e+01 1.0000000000000000e+00 6.4035438430941582e-01 1.9447567985169445e-01 1.7404938405059259e+01 
273 1 2 1.6910368128262994e+00 2.2801372098655889e+01 1.0000000000000000e+00 9.0771208118664881e-01 2.3491153878575766e+00 1.7795168080202796e+01 
310 1 2 1.6910368128262994e+00 2.3372473843762414e+01 1.0000000000000000e+00 3.2351307443408626e+00 1.4609726939673580e+00 1.7489091221866595e+01 
290 1 2 1.6910368128262994e+00 -1.4506339826831879e+02 1.0000000000000000e+00 5.0288136027897528e+00 4.3395350207332823e+00 1.7653679625621411e+01 
56 1 2 1.6910368134436577e+00 1.9268030041512532e+01 1.0000000000000000e+00 4.0340629285908991e-01 6.8893677761346090e+00 1.8231078812572743e+01 
177 1 2 1.6910368128262994e+00 2.1321665373301517e+00 1.0000000000000000e+00 6.6292361691417012e+00 6.0529455559114869e+00 1.7628707465890670e+01 
117 1 2 1.6910368128262994e+00 1.7702643224797953e+01 1.0000000000000000e+00 3.7049597142145489e+00 7.5132189930359763e+00 1.8349579872956706e+01 
84 1 2 1.6910368128262994e+00 1.3108624940691797e+01 1.0000000000000000e+00 1.3939730538079251e+00 1.2755084843202391e+00 1.9795898933817199e+01 
22 1 2 1.6910368128262994e+00 2.9541384860917333e+01 1.0000000000000000e+00 5.2353650442134088e+00 1.2446136203019760e+00 1.9551246431702786e+01 
110 1 2 1.6910368128262994e+00 1.7062990628581410e+01 1.0000000000000000e+00 4.2498221262192635e+00 3.6821097758523087e+00 1.9611447251825414e+01 
122 1 2 1.6910368128262994e+00 2.3771169652363767e+01 1.0000000000000000e+00 2.1723195341345249e+00 8.3244702039461984e+00 1.9402031537559946e+01 
378 1 2 1.6910378158347303e+00 2.0589872445195230e+01 1.0000000000000000e+00 1.2869984162669115e+00 1.0187887419160864e+01 1.0635525688470213e+00 
207 1 2 1.6910368128262994e+00 2.3576611328548815e+01 1.0000000000000000e+00 4.3971375119577063e+00 1.2630512855350380e+01 9.0019020261656335e-01 
165 1 2 1.6910368128262994e+00 2.4038106652528413e+01 1.0000000000000000e+00 6.3513753588700554e+00 1.3847560834538228e+01 7.0761150190024558e-01 
116 1 2 1.6910368128262994e+00 3.7762164405519897e+01 1.0000000000000000e+00 3.4187878181913041e+00 1.4595819528971132e+01 9.4637112955698044e-02 
75 1 2 1.6910368128262994e+00 2.7362471788711687e+01 1.0000000000000000e+00 4.3945090463763421e+00 1.8989999330138431e+01 6.9271024099627743e-01 
126 1 2 1.6910368128262994e+00 2.2824954844179935e+01 1.0000000000000000e+00 3.9668389352499682e+00 1.0531465355528482e+01 2.3143049042127952e+00 
294 1 2 1.6910397878396772e+00 2.5132676077857095e+01 1.0000000000000000e+00 5.6579620060304969e-01 1.2277705495756638e+01 2.4746477731661582e+00 
72 1 2 1.6910397878396772e+00 2.3069691785166700e+01 1.0000000000000000e+00 1.2273175997916721e+00 1.4125641449006904e+01 2.5203850745595560e+00 
324 1 2 1.6910368128262994e+00 1.4397488793799049e+01 1.0000000000000000e+00 3.4181373304047220e+00 1.4158436386315216e+01 2.5279965846300017e+00 
242 1 2 1.6910368128262994e+00 2.2835208975922654e+01 1.0000000000000000e+00 3.2948569096569047e+00 1.9045783678745824e+01 2.5504886364526422e+00 
43 1 2 1.6910368128262994e+00 2.6061231146016183e+01 1.0000000000000000e+00 1.5103418661709331e+00 1.0686255673583334e+01 3.2797003404134450e+00 
307 1 2 1.6910368128262994e+00 2.1123677401817716e+01 1.0000000000000000e+00 3.1859484808109402e+00 1.2133315358158974e+01 3.9299761321698043e+00 
98 1 2 1.6910368128262994e+00 -1.8750170199962177e+01 1.0000000000000000e+00 3.1430863117849728e+00 1.6026308327522148e+01 3.5086624871539716e+00 
115 1 2 1.6910368128262994e+00 3.2562416742862496e+01 1.0000000000000000e+00 5.2620951385606407e+00 1.8435408504829564e+01 3.7416895549166203e+00 
372 1 2 1.6910368128262994e+00 3.1269710567455050e+01 1.0000000000000000e+00 6.3977903066940334e+00 1.3729615142921828e+01 4.4904575928557220e+00 
38 1 2 1.6910368128262994e+00 6.6225681075463605e+00 1.0000000000000000e+00 4.8177351512607087e+00 1.5644279433826643e+01 4.6943215934279205e+00 
237 1 2 1.6910368128262994e+00 2.9018954336743867e+01 1.0000000000000000e+00 8.8533041618962782e-01 1.7089586988054382e+01 4.4189088319931287e+00 
353 1 2 1.6910368128262994e+00 2.4328573042879025e+01 1.0000000000000000e+00 4.4208184872793348e+00 1.0085489007640245e+01 6.3308771815634453e+00 
136 1 2 1.6910368128262994e+00 2.5191375453894832e+01 1.0000000000000000e+00 5.7819291418474936e+00 1.2060736743194882e+01 6.1170940623886647e+00 
321 1 2 1.6910368128262994e+00 2.3957989219602759e+01 1.0000000000000000e+00 6.1995792196927346e-01 1.4714777658630243e+01 6.3641976773009032e+00 
333 1 2 1.6910368128262994e+00 2.4767435737081705e+01 1.0000000000000000e+00 6.2332747352131221e+00 1.6712024321530990e+01 6.3504930883346695e+00 
314 1 2 1.6910368128262994e+00 1.4884811405794558e+01 1.0000000000000000e+00 2.8632333928802245e+00 1.7587065957056211e+01 5.9212026801173003e+00 
236 1 2 1.6910368128262994e+00 1.0206237973133225e+01 1.0000000000000000e+00 3.5171579692184953e+00 1.9965599735807462e+01 5.8614759702799146e+00 
55 1 2 1.6910369185248550e+00 2.1522327203295756e+01 1.0000000000000000e+00 1.4099313200165231e+00 1.0847670741911603e+01 7.8864524403319960e+00 
64 1 2 1.6910368128262994e+00 1.6486229894364826e+01 1.0000000000000000e+00 9.9194223296344797e-01 1.9101621267295158e+01 7.3179486066615125e+00 
58 1 2 1.6910368128262994e+00 1.5926406300402240e+01 1.0000000000000000e+00 3.6751466050147257e+00 1.9349313752148401e+01 8.0633649867399644e+00 
78 1 2 1.6910368128262994e+00 -7.1421697572914162e+00 1.0000000000000000e+00 3.1772597129650340e+00 1.0403802891560266e+01 9.7128935438723154e+00 
199 1 2 1.6910368128262994e+00 2.1819428046552353e+01 1.0000000000000000e+00 4.0437357531576185e-01 1.4211658499853552e+01 8.7388802198656066e+00 
383 1 2 1.6910368128262994e+00 2.4883828345465339e+01 1.0000000000000000e+00 2.7096380456178499e+00 1.7893969753468809e+01 9.9874507911462551e+00 
176 1 2 1.6910368128262994e+00 1.7393744820749340e+01 1.0000000000000000e+00 5.1091796285357631e+00 1.7580975156343808e+01 9.5269967040819168e+00 
280 1 2 1.6910368128262994e+00 2.3037041374348831e+01 1.0000000000000000e+00 5.2419103919252166e+00 1.4011703203529265e+01 1.1220855949473586e+01 
2 1 2 1.6910368128262994e+00 2.3883646323563401e+01 1.0000000000000000e+00 1.0733894124052670e+00 1.5009651861553413e+01 1.1198886705907386e+01 
173 1 2 1.6910368128262994e+00 2.6202088497265805e+01 1.0000000000000000e+00 1.6490363500914411e+00 1.9411734406880520e+01 1.1351212883739610e+01 
53 1 2 1.6910368128262994e+00 2.1528644402975779e+01 1.0000000000000000e+00 7.0001233766699256e-01 1.0284107783624220e+01 1.2847037022633369e+01 
334 1 2 1.6910368128262994e+00 -3.9887351695541309e+00 1.0000000000000000e+00 2.6435294978679882e+00 1.0025918671618832e+01 1.2078723094478493e+01 
248 1 2 1.6910368128262994e+00 -6.4091985914771556e+01 1.0000000000000000e+00 4.7042293317478556e+00 1.0164742156967554e+01 1.2146731328561740e+01 
28 1 2 1.6910368184274736e+00 3.1326584591420325e+01 1.0000000000000000e+00 1.0943306728946258e+00 1.2413831201395201e+01 1.1959709579070966e+01 
182 1 2 1.6910368128262994e+00 3.2963793231328239e+01 1.0000000000000000e+00 3.5472122331305407e+00 1.2764549034711465e+01 1.2268804406065366e+01 
289 1 2 1.6910368128262994e+00 2.3945620094931442e+01 1.0000000000000000e+00 4.0496474238986853e+00 1.5699307218086194e+01 1.1559740852218678e+01 
322 1 2 1.6910368128262994e+00 2.1251773927863002e+00 1.0000000000000000e+00 1.9117474141936877e+00 1.7233171159408968e+01 1.2393299759070596e+01 
203 1 2 1.6910368128262994e+00 1.5588527421454497e+01 1.0000000000000000e+00 5.0214461217432413e+00 1.7467821862301424e+01 1.2563979092610030e+01 
125 1 2 1.6910368184274736e+00 1.6490163239637067e+01 1.0000000000000000e+00 1.6893012060210442e+00 1.1934138439047127e+01 1.3800025019726075e+01 
367 1 2 1.6910397087754463e+00 2.5416563047899089e+01 1.0000000000000000e+00 8.8525394350523023e-01 1.5088298245233663e+01 1.3353385754245652e+01 
62 1 2 1.6910368128262994e+00 2.9962894744012374e+01 1.0000000000000000e+00 4.7134544298349521e+00 1.9313846974098009e+01 1.3820435757119586e+01 
311 1 2 1.6910368128262994e+00 3.7935879973069158e+00 1.0000000000000000e+00 3.8701038550350280e+00 1.6784562895776588e+01 1.4741473363971107e+01 
60 1 2 1.6910368128262994e+00 -9.8432951713774742e+01 1.0000000000000000e+00 2.9652282093422166e+00 1.0053942370329013e+01 1.5728542136461826e+01 
258 1 2 1.6910368128262994e+00 3.0171966688476818e+01 1.0000000000000000e+00 4.2227656807824303e+00 1.1966416893926729e+01 1.5888546943615314e+01 
135 1 2 1.6910368128262994e+00 2.6893737972626852e+01 1.0000000000000000e+00 6.2149715811078510e+00 1.5244155506052710e+01 1.6198666960377924e+01 
79 1 2 1.6910368128262994e+00 -2.1665122284914737e+00 1.0000000000000000e+00 2.6582291804851095e+00 1.8565877942356707e+01 1.6335709189806938e+01 
184 1 2 1.6910368128262994e+00 2.0112450516623625e+01 1.0000000000000000e+00 5.0296830974015405e+00 1.8897715920655621e+01 1.6216744622154884e+01 
282 1 2 1.6910368128262994e+00 -3.6718977264788663e+01 1.0000000000000000e+00 3.0658504383413656e+00 1.1360319981578099e+01 1.7758300322369855e+01 
146 1 2 1.6910368128262994e+00 2.5487107895686414e+01 1.0000000000000000e+00 3.7175038809101696e-02 1.3221985101614271e+01 1.7617527694851169e+01 
213 1 2 1.6910368128262994e+00 1.1026723936491734e+01 1.0000000000000000e+00 2.7343447715794951e+00 1.5244767018532430e+01 1.7563107826132370e+01 
212 1 2 1.6910368128262994e+00 2.6086412320369426e+01 1.0000000000000000e+00 1.1694552155791733e+00 1.6878910941470711e+01 1.8288618252135343e+01 
45 1 2 1.6910368128262994e+00 -8.8526886810385264e+01 1.0000000000000000e+00 4.7701195508095768e+00 1.6459710529828818e+01 1.7569803106119537e+01 
243 1 2 1.6910368128262994e+00 2.3058335902325197e+01 1.0000000000000000e+00 6.2488246063049981e+00 1.2229689564048595e+01 1.8840859983150793e+01 
4 1 2 1.6910368128262994e+00 2.1028029018089157e+01 1.0000000000000000e+00 1.9180399416252936e+00 1.9043138788019291e+01 1.8613468869545287e+01 
11 1 2 1.6910368128262994e+00 2.2829971653884400e+01 1.0000000000000000e+00 8.6697770695013077e+00 3.0532102844075182e-01 1.1418705920579675e-01 
350 1 2 1.6910368128262994e+00 2.7676661583433805e+01 1.0000000000000000e+00 7.3175477414165435e+00 1.9384349735175361e+00 1.2156265933085282e+00 
206 1 2 1.6910368128262994e+00 2.4019919778489985e+01 1.0000000000000000e+00 1.3199981139183993e+01 1.6554983287377814e+00 6.3771937983859273e-01 
302 1 2 1.6910612516228087e+00 3.4068550791103007e+01 1.0000000000000000e+00 9.8565186701159622e+00 3.8777827343804092e+00 2.9263037002645725e-01 
356 1 2 1.6910620582327325e+00 -2.1030489774513489e+02 1.0000000000000000e+00 1.1560409447329855e+01 4.7174168267819816e+00 6.7331964106462827e-01 
33 1 2 1.6910368128262994e+00 2.0481371915550817e+01 1.0000000000000000e+00 7.3890893535173170e+00 7.6478860650491507e+00 1.1676830942952026e+00 
67 1 2 1.6911287780671462e+00 5.9501050653011731e+00 1.0000000000000000e+00 1.3119377774222139e+01 8.2617277882958948e+00 3.3711351641474613e-01 
167 1 2 1.6910369146809852e+00 3.2902880657360477e+01 1.0000000000000000e+00 7.8306985218292242e+00 9.7487171623519355e+00 1.0821279566842823e+00 
44 1 2 1.6910368128262994e+00 -1.5888163309908940e+01 1.0000000000000000e+00 1.2221875540268584e+01 1.0902584594351301e+00 2.3388862750274249e+00 
15 1 2 1.6910376194362231e+00 2.8828539090911523e+01 1.0000000000000000e+00 1.2574543495456181e+01 3.3090975707729324e+00 1.6132744695207206e+00 
200 1 2 1.6910368128262994e+00 -3.1375829760972451e-01 1.0000000000000000e+00 9.8774262725032340e+00 6.1694890741992729e+00 1.9889325266841227e+00 
358 1 2 1.6910368128262994e+00 3.6102500143596913e+01 1.0000000000000000e+00 1.1992245151034286e+01 7.6526290320520109e+00 2.5560413142277967e+00 
301 1 2 1.6910368128262994e+00 1.8242144228010822e+01 1.0000000000000000e+00 8.9876412504234917e+00 3.8744986616102510e+00 3.5551353002050834e+00 
309 1 2 1.6910421973513829e+00 3.3273010266995882e+00 1.0000000000000000e+00 1.2577343817465925e+01 3.1918700880335829e+00 4.0579487419090787e+00 
202 1 2 1.6910368780057536e+00 1.2623111442841665e+01 1.0000000000000000e+00 1.3225856513003329e+01 5.7833733630020507e+00 4.1552143917648250e+00 
251 1 2 1.6910368128262994e+00 -3.6120772206929416e+02 1.0000000000000000e+00 9.5527806990181272e+00 8.0925753781443266e+00 3.9648048422712936e+00 
247 1 2 1.6910368128262994e+00 -9.1503289620464386e+01 1.0000000000000000e+00 1.2169780774736799e+01 9.2880772798222839e+00 3.8891785706695621e+00 
313 1 2 1.6910368128262994e+00 1.8338775640366471e+01 1.0000000000000000e+00 9.3917342666505697e+00 4.5012159502771371e-01 4.6966477642804749e+00 
355 1 2 1.6910368128262994e+00 9.4061522804530533e+00 1.0000000000000000e+00 1.1904451508067812e+01 1.1591568582616203e+00 5.3367769677166494e+00 
293 1 2 1.6910422625308374e+00 2.7928160754641464e+01 1.0000000000000000e+00 1.2132532499537298e+01 4.6123640727204815e+00 5.3289088350464793e+00 
34 1 2 1.6910368128262994e+00 2.3254794779209810e+01 1.0000000000000000e+00 1.0104761908098217e+01 6.0987352877562762e+00 4.6143075067153676e+00 
118 1 2 1.6910368128262994e+00 -8.5761390242263609e+00 1.0000000000000000e+00 7.3417688998237320e+00 8.9039242891086463e+00 5.1201768598491606e+00 
341 1 2 1.6910368128262994e+00 2.4156303911581283e+01 1.0000000000000000e+00 7.0775490688146947e+00 1.8129097953071327e+00 6.3033363685076607e+00 
148 1 2 1.6910368142737724e+00 2.1223102142859432e+01 1.0000000000000000e+00 6.7234202223043660e+00 5.8111313428895768e+00 5.9037230924800159e+00 
83 1 2 1.6910368128262994e+00 3.2059080055923808e+01 1.0000000000000000e+00 1.0811987460548487e+01 9.3129381424298412e+00 5.9250158307746679e+00 
47 1 2 1.6910977927796154e+00 2.7131922614393623e+01 1.0000000000000000e+00 1.2125258926012634e+01 2.1597509814792895e-01 8.0454891567767195e+00 
193 1 2 1.6910645513245681e+00 3.1611252434571913e+01 1.0000000000000000e+00 8.8925006844404759e+00 1.8365416382595989e+00 7.1461157416573649e+00 
9 1 2 1.6910645513245681e+00 -1.3829909331411332e+02 1.0000000000000000e+00 1.0410316584794082e+01 1.6397187645252747e+00 8.3305531054412612e+00 
252 1 2 1.6910368128262994e+00 -3.5207554466763008e+02 1.0000000000000000e+00 9.6966848830979444e+00 4.9435906434337538e+00 7.2153601448835012e+00 
223 1 2 1.6910368128262994e+00 1.5495501437362385e+01 1.0000000000000000e+00 1.0460739769931280e+01 6.9438818620344023e+00 7.8695917099407415e+00 
46 1 2 1.6910368128262994e+00 -9.8533342331516110e+01 1.0000000000000000e+00 1.2586396070148673e+01 7.8294320182252193e+00 8.2519032485061778e+00 
128 1 2 1.6910404001074093e+00 3.3774609572821817e+01 1.0000000000000000e+00 7.3231884804335747e+00 4.3292758697501919e+00 9.3769342031610101e+00 
137 1 2 1.6910368128262994e+00 2.8154075760565355e+01 1.0000000000000000e+00 1.1888913795000683e+01 9.7418554928021752e+00 9.1846280678653098e+00 
349 1 2 1.6910368128262994e+00 -2.8206314864790222e+01 1.0000000000000000e+00 1.1581162453264550e+01 1.7214636711449653e+00 1.1177316702007312e+01 
352 1 2 1.6910368128262994e+00 2.2766605614793569e+01 1.0000000000000000e+00 9.6373554641228321e+00 2.8745151544127392e+00 1.1206148364390545e+01 
277 1 2 1.6910430184767851e+00 3.0059267678619175e+01 1.0000000000000000e+00 1.1976638909880194e+01 5.2340892284622074e+00 1.1016402970779957e+01 
285 1 2 1.6910430184767851e+00 2.9347989867211336e+01 1.0000000000000000e+00 1.1966262700432939e+01 7.0142718026920337e+00 1.0206658807111570e+01 
296 1 2 1.6910368128262994e+00 2.2138686754165796e+01 1.0000000000000000e+00 8.4362475101696486e+00 8.5953382163608953e+00 1.0161073315830597e+01 
10 1 2 1.6910368128262994e+00 -1.2634717484607603e+02 1.0000000000000000e+00 8.5887626561573551e+00 8.7563485407974428e-01 1.1794946680275032e+01 
233 1 2 1.6910368128262994e+00 2.5243387616022012e+01 1.0000000000000000e+00 1.3206873726510009e+01 6.8501142380901525e+00 1.2307566069350457e+01 
8 1 2 1.6910368128262994e+00 2.5277973329539762e+01 1.0000000000000000e+00 7.6690079390494281e+00 8.5606033359723988e+00 1.2838070982838085e+01 
192 1 2 1.6910368128262994e+00 3.2475153037921160e+01 1.0000000000000000e+00 1.0428097722816716e+01 7.3432327952661041e+00 1.2730378559979190e+01 
42 1 2 1.6910368128262994e+00 2.6067885834695872e+01 1.0000000000000000e+00 7.5166855384062297e+00 7.7766626888239032e-01 1.3773031140120402e+01 
281 1 2 1.6910368128262994e+00 -3.7376182080564178e+01 1.0000000000000000e+00 1.1353069746558294e+01 3.0882256200258871e+00 1.2996804577014350e+01 
89 1 2 1.6911863280109771e+00 1.7283268696535341e+01 1.0000000000000000e+00 6.7129671309820402e+00 4.8766713706084497e+00 1.3945830705265704e+01 
68 1 2 1.6910368128262994e+00 1.4911375480902034e+01 1.0000000000000000e+00 1.1322928233026710e+01 4.3828991796544196e-02 1.4570968669363248e+01 
246 1 2 1.6910368128262994e+00 4.0615227291001304e+01 1.0000000000000000e+00 1.1130572297865333e+01 2.1707781020242005e+00 1.5015129451505487e+01 
14 1 2 1.6910371462352811e+00 1.7129350711684154e+01 1.0000000000000000e+00 8.1757018985768610e+00 3.4902846239360570e+00 1.4801155566816545e+01 
205 1 2 1.6910368128262994e+00 2.5702819167585872e+01 1.0000000000000000e+00 7.0952906590780138e+00 6.6505077064219744e+00 1.5418124772073771e+01 
17 1 2 1.6910368128262994e+00 2.9202235108719250e+01 1.0000000000000000e+00 9.1901327241989321e+00 6.9142604893680595e+00 1.5097769707787993e+01 
149 1 2 1.6910368128262994e+00 2.4973269823685055e+01 1.0000000000000000e+00 1.2697046978015297e+01 8.0828526462046266e+00 1.4291910246728326e+01 
304 1 2 1.6910411171087996e+00 -3.5834741050984945e+01 1.0000000000000000e+00 7.3955504606317364e+00 2.6640867418507721e+00 1.6421360547593537e+01 
238 1 2 1.6910368128262994e+00 2.1594704628358855e+01 1.0000000000000000e+00 9.3351215959023257e+00 4.0653428854223996e+00 1.6593507261493496e+01 
264 1 2 1.6910368128262994e+00 1.5231422746922563e+01 1.0000000000000000e+00 1.1431490099929308e+01 3.9073624686574542e+00 1.6861115995523999e+01 
346 1 2 1.6910423333857698e+00 2.0149772224576633e+01 1.0000000000000000e+00 1.2616506148196493e+01 5.8891334954445487e+00 1.6598900781084190e+01 
335 1 2 1.6910368128262994e+00 -2.2244006783640799e+01 1.0000000000000000e+00 9.0906373350627003e+00 1.9692122267575558e+00 1.8208727659358605e+01 
326 1 2 1.6910368128262994e+00 -6.9998101579012539e-01 1.0000000000000000e+00 1.2271702493865183e+01 1.5837152140676103e+00 1.8132968043583300e+01 
99 1 2 1.6910407836998178e+00 2.3724342254962025e+01 1.0000000000000000e+00 7.6291411280378556e+00 4.1418770651358017e+00 1.7688279516641032e+01 
139 1 2 1.6910423333857698e+00 2.9697990640676228e+01 1.0000000000000000e+00 1.3209637859219596e+01 5.0702399924722537e+00 1.8274564695246585e+01 
134 1 2 1.6910368128262994e+00 2.7628475649282059e+01 1.0000000000000000e+00 1.0173723690788110e+01 5.7976345527287432e+00 1.8080597634407631e+01 
249 1 2 1.6910368128262994e+00 3.7292751729147341e+01 1.0000000000000000e+00 7.2847472506868387e+00 8.4546383655390418e+00 1.7226480565832386e+01 
77 1 2 1.6910368128262994e+00 1.6799459529466382e+01 1.0000000000000000e+00 1.1519950373687076e+01 8.8372085241294993e+00 1.7169784785860887e+01 
328 1 2 1.6910381785198971e+00 3.3554345843553087e+01 1.0000000000000000e+00 1.3264956776370235e+01 9.8015784151803018e+00 1.7962997544786464e+01 
13 1 2 1.6910368128262994e+00 -1.0803693982639979e+02 1.0000000000000000e+00 1.1205079343447784e+01 2.1246858165852793e+00 1.9818948739093500e+01 
27 1 2 1.6910368128262994e+00 3.9314656063970361e+01 1.0000000000000000e+00 8.3579658909328849e+00 5.9936722050728157e+00 1.9717147923336849e+01 
370 1 2 1.6910369498653290e+00 2.6076641567680579e+01 1.0000000000000000e+00 9.2346132789378039e+00 8.2573241543262554e+00 1.8644615897512889e+01 
241 1 2 1.6910369498653290e+00 2.0362927699261615e+01 1.0000000000000000e+00 1.1121407521218106e+01 8.3917678426087967e+00 1.9239733667339568e+01 
107 1 2 1.6910368128262994e+00 2.7592194640014732e+01 1.0000000000000000e+00 7.5315714516420309e+00 1.1864683189702925e+01 6.1017452456737686e-01 
298 1 2 1.6910419919135382e+00 3.1820766019160693e+01 1.0000000000000000e+00 7.1439480842578238e+00 1.7706704901891531e+01 4.6669779053673427e-01 
286 1 2 1.6910377631170925e+00 3.4076140546953027e+01 1.0000000000000000e+00 9.1620079880486642e+00 1.8287821561414667e+01 1.2155184617256778e+00 
30 1 2 1.6910368128262994e+00 1.9809687016715799e+01 1.0000000000000000e+00 1.2299409452648980e+01 1.5362928817058366e+01 2.2015386267655797e+00 
91 1 2 1.6910419919135382e+00 2.3746882006640909e+01 1.0000000000000000e+00 7.3527067943099036e+00 1.7981020158959783e+01 2.3937583911668665e+00 
291 1 2 1.6910368128262994e+00 1.2500781507029237e+00 1.0000000000000000e+00 8.4894526154853569e+00 1.0440047482251755e+01 2.9500979522601511e+00 
371 1 2 1.6910368128262994e+00 3.4640418721008487e+01 1.0000000000000000e+00 8.1338001498182173e+00 1.3409944136930097e+01 3.2946276524861386e+00 
336 1 2 1.6910368128262994e+00 2.5977245247942570e+01 1.0000000000000000e+00 1.1842059650772933e+01 1.4381691279236016e+01 4.0977609099103205e+00 
127 1 2 1.6910368128262994e+00 2.4544681015581190e+01 1.0000000000000000e+00 1.2704735983974933e+01 1.7228634276472093e+01 3.9463429942738757e+00 
369 1 2 1.6910377631170925e+00 2.2254420113167605e+01 1.0000000000000000e+00 9.0274644708412080e+00 1.9277407452153724e+01 2.9163354054242756e+00 
180 1 2 1.6910368128262994e+00 3.9444110421194907e+01 1.0000000000000000e+00 9.5017171437243650e+00 1.2015100940626370e+01 5.3576382582162427e+00 
157 1 2 1.6910368128262994e+00 1.3933034199721483e+01 1.0000000000000000e+00 7.6606481555145098e+00 1.9408855218082540e+01 4.6060291813232146e+00 
364 1 2 1.6910368129891888e+00 -2.0526270651941576e+02 1.0000000000000000e+00 7.7856696921838315e+00 1.3533239802326904e+01 7.1298903448229307e+00 