LAMMPS data file via write_data, version 30 Jul 2016, timestep = 50000000

384 atoms
2 atom types

0.0000000000000000e+00 2.0000000000000000e+01 xlo xhi
0.0000000000000000e+00 2.0000000000000000e+01 ylo yhi
0.0000000000000000e+00 2.0000000000000000e+01 zlo zhi

Masses

1 3.89
2 6.28

Atoms # meso-molecular

382 1 2 1.6910388569098649e+00 -2.0832304602903505e+02 1.0000000000000000e+00 3.3975021789812452e+00 1.7715908320450218e+00 3.4066847371750714e-01 
368 1 2 1.6910369346169776e+00 1.8619870549335715e+01 1.0000000000000000e+00 4.2763075667717105e+00 3.5327377584836475e+00 9.5402000093146630e-02 
270 1 2 1.6910368128262994e+00 7.9449694681536158e+00 1.0000000000000000e+00 1.3959721986079721e+00 6.3094134046247046e+00 3.2670974278088705e-01 
86 1 2 1.6910368128262994e+00 2.6860356565172076e+01 1.0000000000000000e+00 1.1722715361397760e+00 8.3110871706289444e+00 3.5678352237338584e-01 
174 1 2 1.6910368128262994e+00 -3.8431884264588263e+01 1.0000000000000000e+00 6.0472779014374449e+00 3.2343470343060254e-01 2.5052411121034051e+00 
103 1 2 1.6910368128262994e+00 2.1453248156720754e+01 1.0000000000000000e+00 1.2204293610259647e+00 1.5619247962287013e+00 1.5179030192981016e+00 
121 1 2 1.6910368128262994e+00 -1.0768378739819909e+02 1.0000000000000000e+00 2.7722289028276852e+00 3.2912280458364949e+00 1.5705574909814659e+00 
61 1 2 1.6910368128262994e+00 -1.1924018091058522e+02 1.0000000000000000e+00 3.6443254992954497e+00 5.6697550203784077e+00 2.2392774269210927e+00 
142 1 2 1.6910368128262994e+00 6.7548203395669688e+00 1.0000000000000000e+00 5.9050312241007754e+00 8.8944785655877041e+00 1.6929983515813964e+00 
242 1 2 1.6910368128262994e+00 2.2834778948847728e+01 1.0000000000000000e+00 2.8127713685293116e+00 5.7544915244285910e-01 4.2850172505367548e+00 
239 1 2 1.6910368128262994e+00 3.0474688529318797e+01 1.0000000000000000e+00 5.3193677179381860e+00 4.0308085479880509e+00 3.8303930007795968e+00 
320 1 2 1.6910368128783346e+00 2.4109788237601769e+01 1.0000000000000000e+00 4.4193395021884302e-01 5.7560712445043496e+00 3.2803543647077573e+00 
29 1 2 1.6910368128262994e+00 1.8275679330364788e+01 1.0000000000000000e+00 4.8856997000951585e+00 7.8986928106135323e+00 3.4875807595124542e+00 
229 1 2 1.6910368128262994e+00 2.0745050611731344e+01 1.0000000000000000e+00 2.0174805959038172e-01 1.2180824616316126e+00 4.9568110856244987e+00 
191 1 2 1.6910368128262994e+00 2.5862337188656589e+01 1.0000000000000000e+00 3.8026461715599558e+00 5.6030217909056477e+00 4.4843917844312555e+00 
96 1 2 1.6910368128262994e+00 -1.3821815060348172e+01 1.0000000000000000e+00 1.1283700463028052e+00 6.9855621062718427e+00 5.4416866472861223e+00 
190 1 2 1.6910368128262994e+00 2.2292113150199391e+01 1.0000000000000000e+00 3.0436622443130581e+00 9.2093501498088024e+00 5.6896753414902035e+00 
187 1 2 1.6910368128262994e+00 2.1506746950533291e+01 1.0000000000000000e+00 2.4914276994314297e-01 2.4072843132939670e+00 7.0776508212418117e+00 
87 1 2 1.6910368128262994e+00 2.6599875697262249e+01 1.0000000000000000e+00 5.2997698580496841e+00 2.7361881885406287e+00 6.1833508545962381e+00 
78 1 2 1.6910368128262994e+00 -7.1424285941732162e+00 1.0000000000000000e+00 5.1357044716868101e+00 8.7453989287133815e+00 6.8382303864551046e+00 
152 1 2 1.6910583233152157e+00 3.8796562753774126e+01 1.0000000000000000e+00 6.1495953294359946e+00 4.3115001276179071e-01 7.8208456483032229e+00 
23 1 2 1.6910368128262994e+00 1.5292149790029040e+01 1.0000000000000000e+00 1.9255448790075991e+00 3.9315075348383002e+00 7.8290397270048722e+00 
303 1 2 1.6910368128262994e+00 3.4607866913310929e+01 1.0000000000000000e+00 3.3177075707764621e+00 5.6579129903635685e+00 7.4479400596998486e+00 
144 1 2 1.6910368128262994e+00 3.0570833781786924e+01 1.0000000000000000e+00 5.3662241600851033e+00 4.6243004857945049e+00 7.2750609608198218e+00 
348 1 2 1.6910368128262994e+00 -8.6980341832311638e+01 1.0000000000000000e+00 1.7714362106596895e+00 7.3439771818495885e+00 8.4418584465938711e+00 
64 1 2 1.6910368128262994e+00 1.6485885195796968e+01 1.0000000000000000e+00 2.8545614770533563e+00 2.1763476169054488e+00 9.4515528984004913e+00 
236 1 2 1.6910583233152157e+00 1.0216755902667176e+01 1.0000000000000000e+00 4.8998596564964298e+00 1.6571658524974473e+00 8.6550998331800457e+00 
166 1 2 1.6910368128262994e+00 3.2055095364297102e+01 1.0000000000000000e+00 1.8133395888574080e+00 5.4224960731423737e+00 9.9028169617109700e+00 
1 1 2 1.6910368128262994e+00 3.2587882210305551e+01 1.0000000000000000e+00 6.2127598366138024e+00 5.4092815533178298e+00 9.2265014553615146e+00 
255 1 2 1.6910368128262994e+00 3.1124645508371110e+01 1.0000000000000000e+00 3.3658779789340905e+00 8.8996823991592979e+00 9.9506692691787020e+00 
295 1 2 1.6910368128262994e+00 8.4509672642947375e-01 1.0000000000000000e+00 4.3307607026212578e+00 1.1444748433303391e+00 1.1302914562735108e+01 
186 1 2 1.6910368128262994e+00 4.7528495813475757e+01 1.0000000000000000e+00 4.6382875030125259e+00 3.1668970882965448e+00 1.0140305100338958e+01 
136 1 2 1.6910370176037990e+00 2.5191105204057301e+01 1.0000000000000000e+00 5.6451285664288884e+00 6.9575256443868643e+00 1.0465229051439479e+01 
173 1 2 1.6910368128262994e+00 2.6201384993833187e+01 1.0000000000000000e+00 1.9959413615193338e+00 2.6166567068514537e+00 1.1481986107194253e+01 
123 1 2 1.6910457205165157e+00 2.2538474327551445e+01 1.0000000000000000e+00 8.4053276776613028e-01 5.3548834345218621e+00 1.1964711206572670e+01 
210 1 2 1.6910368128262994e+00 1.9938383792827686e+01 1.0000000000000000e+00 3.3516695102733665e+00 5.5780819280750773e+00 1.2699880413327264e+01 
128 1 2 1.6910370176037990e+00 3.3771789541556224e+01 1.0000000000000000e+00 5.6903527050096150e+00 5.7753686227398111e+00 1.2054436118553404e+01 
71 1 2 1.6910368283946147e+00 -1.6407550599213359e+01 1.0000000000000000e+00 4.3429037063601745e+00 7.7609754453596871e+00 1.1996694166733592e+01 
297 1 2 1.6910368283946147e+00 2.8386082258515927e+01 1.0000000000000000e+00 6.2450639339219967e+00 7.6392919088628641e+00 1.2569462965034479e+01 
360 1 2 1.6910368128262994e+00 2.0036620116749276e+01 1.0000000000000000e+00 1.0228813138465924e+00 9.9146901787753166e+00 1.2671226811756897e+01 
124 1 2 1.6910368128262994e+00 2.1967408210649424e+01 1.0000000000000000e+00 5.3848014224318801e+00 3.0650219734250062e+00 1.3898846753613228e+01 
49 1 2 1.6910457205165157e+00 2.0042232333423517e+01 1.0000000000000000e+00 6.1337406234030234e-01 4.7244757979350069e+00 1.3797566543184658e+01 
3 1 2 1.6910368128262994e+00 2.1277105252897869e+01 1.0000000000000000e+00 5.3147288140624243e+00 9.4314200280325233e-01 1.4833864366979629e+01 
112 1 2 1.6910368128262994e+00 2.9434159865195390e+01 1.0000000000000000e+00 2.3440209706210444e+00 3.6727585848289825e+00 1.4965945109612640e+01 
177 1 2 1.6910368128262994e+00 2.1319745517048379e+00 1.0000000000000000e+00 5.7271514739021487e+00 5.5736139009629051e+00 1.5655654842415023e+01 
194 1 2 1.6910409869014387e+00 2.3589084404160896e+01 1.0000000000000000e+00 4.1117003745456598e-01 7.1878724340169589e+00 1.4457512644089963e+01 
226 1 2 1.6910368128262994e+00 3.2390607009584883e+01 1.0000000000000000e+00 3.6067385748304441e+00 7.6528712012601812e+00 1.4393026053022718e+01 
201 1 2 1.6910368128262994e+00 2.8484481916102702e+01 1.0000000000000000e+00 6.1217150845764197e+00 7.3473729736351885e+00 1.4687052583151029e+01 
188 1 2 1.6910409869014387e+00 3.0432160774104684e+01 1.0000000000000000e+00 1.3026124127776946e+00 8.9324845197992104e+00 1.4401700759642745e+01 
288 1 2 1.6910368128262994e+00 2.3687379405094177e+01 1.0000000000000000e+00 4.7565595436674020e+00 9.3298445287963432e+00 1.4797220388517118e+01 
12 1 2 1.6910368128262994e+00 -1.3736592967579409e+02 1.0000000000000000e+00 1.3172381401501043e+00 2.8332403822148788e+00 1.6815796843968489e+01 
331 1 2 1.6910368128262994e+00 1.8539866074746364e+01 1.0000000000000000e+00 6.2556871343747202e+00 2.9219596154859624e+00 1.6179588862110819e+01 
330 1 2 1.6910368128262994e+00 2.4760311040260859e+01 1.0000000000000000e+00 3.7253317691034344e+00 5.6634308181524950e+00 1.5980597852135578e+01 
56 1 2 1.6910368128262994e+00 1.9267734262072430e+01 1.0000000000000000e+00 1.0356714807954175e+00 7.5110008950745391e+00 1.6588630552006546e+01 
273 1 2 1.6910368128262994e+00 2.2800925106800037e+01 1.0000000000000000e+00 3.8297949353386671e+00 3.9795163922132004e+00 1.7542810497694987e+01 
342 1 2 1.6910368128262994e+00 3.1114638707741747e+01 1.0000000000000000e+00 1.2777010644693196e+00 4.8403937459001369e+00 1.8311831896882307e+01 
99 1 2 1.6910368128262994e+00 2.3721077832192414e+01 1.0000000000000000e+00 5.8328120103513017e+00 4.4642808304197885e+00 1.7942182069933121e+01 
290 1 2 1.6910368128262994e+00 -1.4506426736494717e+02 1.0000000000000000e+00 4.7017966757623206e+00 6.3234501250764268e+00 1.7901983373836313e+01 
95 1 2 1.6910368128262994e+00 1.9254000742132732e+01 1.0000000000000000e+00 6.4394156482971772e+00 7.7663760878994115e+00 1.8263726494161300e+01 
117 1 2 1.6910368128262994e+00 1.7702496632493222e+01 1.0000000000000000e+00 4.2200925755130321e+00 9.7606133077041264e+00 1.7237663241283958e+01 
154 1 2 1.6910387351191869e+00 -1.0470232642758405e+02 1.0000000000000000e+00 3.0388324376515179e+00 2.3349288304576746e-01 1.9167998594277655e+01 
6 1 2 1.6910368128262994e+00 3.5186177985415611e+01 1.0000000000000000e+00 4.9587799923706193e+00 2.1005389158402412e+00 1.8876956850430581e+01 
254 1 2 1.6910368128262994e+00 6.2622977958007326e+01 1.0000000000000000e+00 1.6989457623208123e-01 6.6469854835124087e+00 1.8733486442619466e+01 
207 1 2 1.6910368128262994e+00 2.3576057751935949e+01 1.0000000000000000e+00 2.7394567317687333e+00 8.5057542113811504e+00 1.9027452960107553e+01 
43 1 2 1.6910368128262994e+00 2.6061089064741147e+01 1.0000000000000000e+00 1.4995097910320959e-01 1.0591366931229382e+01 5.0909482533401351e-01 
126 1 2 1.6910368128262994e+00 2.2824800714946278e+01 1.0000000000000000e+00 2.8778027978792449e+00 1.1409797626234921e+01 8.2775364002685736e-01 
116 1 2 1.6910368128262994e+00 3.7761326978280437e+01 1.0000000000000000e+00 2.0715810040535239e+00 1.3235402790021217e+01 1.5982660283745356e-01 
45 1 2 1.6910368128262994e+00 -8.8527320499356932e+01 1.0000000000000000e+00 4.3404488327142579e+00 1.4132682979095657e+01 3.7197107221077641e-01 
107 1 2 1.6910368128262994e+00 2.7591760669707320e+01 1.0000000000000000e+00 6.1611486728879186e+00 1.1693969375655611e+01 2.1035890245458688e+00 
115 1 2 1.6910368128262994e+00 3.2561441868260744e+01 1.0000000000000000e+00 4.9446055979138048e+00 1.5644347995077519e+01 2.8510519847853182e+00 
172 1 2 1.6910368129262112e+00 -3.1083365097864487e+02 1.0000000000000000e+00 3.1344863393941464e+00 1.7592740047765229e+01 1.6875475912355935e+00 
341 1 2 1.6910368128262994e+00 2.4156289523507155e+01 1.0000000000000000e+00 5.7203379212833685e+00 1.8182920981651172e+01 1.6834308925613666e+00 
4 1 2 1.6910368128262994e+00 2.1027982041016351e+01 1.0000000000000000e+00 1.3053218167152612e+00 1.8714911742971594e+01 1.9099266097053116e+00 
98 1 2 1.6910368128262994e+00 -1.8750779674198519e+01 1.0000000000000000e+00 2.5989930349761852e+00 1.3684427591488292e+01 3.6233045330461455e+00 
164 1 2 1.6910368129262112e+00 -7.2146188472469944e+01 1.0000000000000000e+00 2.0820700942924919e+00 1.7021088174555935e+01 3.2859999575734031e+00 
314 1 2 1.6910368128262994e+00 1.4884700093361495e+01 1.0000000000000000e+00 4.8263944411985831e+00 1.8168193572965496e+01 3.7020600825364043e+00 
279 1 2 1.6910368128262994e+00 -2.7920929709511377e+01 1.0000000000000000e+00 1.2530213214135835e+00 1.3556136785675545e+01 5.4511778554765247e+00 
237 1 2 1.6910368128262994e+00 2.9018811323149997e+01 1.0000000000000000e+00 2.0147473658839243e+00 1.5705743589931874e+01 5.1512174038178964e+00 
72 1 2 1.6910368128262994e+00 2.3066489098722315e+01 1.0000000000000000e+00 5.1414893735117477e+00 1.6252849662827259e+01 5.5780778026442750e+00 
38 1 2 1.6910368128262994e+00 6.6218386314779014e+00 1.0000000000000000e+00 4.1151642147842011e+00 1.3150274278884725e+01 6.6033386327187467e+00 
372 1 2 1.6910368128262994e+00 3.1268345821890406e+01 1.0000000000000000e+00 6.4331251964001037e+00 1.4182041830371203e+01 6.0803735896719067e+00 
225 1 2 1.6910368128262994e+00 3.1516762123219749e+01 1.0000000000000000e+00 2.8109821992658315e+00 1.0526529452088420e+01 7.8272494831990063e+00 
199 1 2 1.6910368128262994e+00 2.1818826710752695e+01 1.0000000000000000e+00 8.3856121982835774e-01 1.2584496581578419e+01 8.2680288942683635e+00 
321 1 2 1.6910368128262994e+00 2.3957559474666226e+01 1.0000000000000000e+00 1.8724995415823105e+00 1.4415232044132503e+01 7.7444073955996302e+00 
289 1 2 1.6910368128262994e+00 2.3944546315593676e+01 1.0000000000000000e+00 6.4713340890687538e+00 1.5030262160877376e+01 8.1929383470161792e+00 
220 1 2 1.6910368128262994e+00 -4.0966767234103756e+01 1.0000000000000000e+00 4.6832892037322722e+00 1.7215519971299472e+01 7.5383544127850639e+00 
315 1 2 1.6910368128262994e+00 2.5777844195473740e+01 1.0000000000000000e+00 4.0842861468100962e+00 1.9191793400040101e+01 7.3994907419619640e+00 
55 1 2 1.6910368128262994e+00 2.1519853584515751e+01 1.0000000000000000e+00 4.4069534788707665e-01 1.0685455454094852e+01 9.2971981386497120e+00 
267 1 2 1.6910368128262994e+00 3.3907810580768057e+01 1.0000000000000000e+00 6.2312473363472387e+00 1.7657940322922610e+01 8.8255078408952379e+00 
58 1 2 1.6910368128262994e+00 1.5926257943227883e+01 1.0000000000000000e+00 3.6804260897582153e+00 1.9260681400491123e+01 9.9324514135263868e+00 
182 1 2 1.6910368128262994e+00 3.2963276329273683e+01 1.0000000000000000e+00 1.7911434935652932e+00 1.1329909378505238e+01 1.1131263683255256e+01 
2 1 2 1.6910415311400591e+00 2.3886936932740142e+01 1.0000000000000000e+00 4.3252249714350599e-01 1.3726474676340064e+01 1.0296331485338063e+01 
365 1 2 1.6910368128262994e+00 2.4971290528446325e+01 1.0000000000000000e+00 4.0848793587960888e+00 1.6522446503837795e+01 1.0157240002893975e+01 
383 1 2 1.6910368128262994e+00 2.4883421112475546e+01 1.0000000000000000e+00 1.8434961067722173e+00 1.7474727425607352e+01 1.1168435708955929e+01 
334 1 2 1.6910368128262994e+00 -3.9888499557582540e+00 1.0000000000000000e+00 3.8582383379280629e+00 1.1012791704630390e+01 1.1851617126933524e+01 
176 1 2 1.6910368128262994e+00 1.7393152277345884e+01 1.0000000000000000e+00 3.7716313907217760e+00 1.7560129888946527e+01 1.2727904409772645e+01 
217 1 2 1.6910368128262994e+00 -4.7372118168761688e+01 1.0000000000000000e+00 2.2886323940986033e+00 1.9227405719613834e+01 1.2760499795741584e+01 
248 1 2 1.6910368128262994e+00 -6.4092306745152854e+01 1.0000000000000000e+00 5.0940747305887939e+00 1.2226599194211747e+01 1.3889908670675286e+01 
282 1 2 1.6910368128262994e+00 -3.6719422954455595e+01 1.0000000000000000e+00 5.6397341140797941e-01 1.1234549468053888e+01 1.5040010367568808e+01 
258 1 2 1.6910407410712052e+00 3.0174977314119690e+01 1.0000000000000000e+00 2.5650832534789605e+00 1.3440909022815235e+01 1.4718849126566001e+01 
203 1 2 1.6910368136886598e+00 1.5587629223179800e+01 1.0000000000000000e+00 4.9391658034028446e-01 1.5152952858131858e+01 1.4546637366119839e+01 
155 1 2 1.6910368128262994e+00 1.5394014670025012e+01 1.0000000000000000e+00 5.7109493243222529e+00 1.6888872445262344e+01 1.4747062800911912e+01 
322 1 2 1.6910368128262994e+00 2.1248171379854828e+00 1.0000000000000000e+00 1.5453600064774453e+00 1.7634897739749935e+01 1.4326063013976208e+01 
311 1 2 1.6910368128262994e+00 3.7925321973974695e+00 1.0000000000000000e+00 3.8836285385940177e+00 1.7745498490249233e+01 1.5377663980934184e+01 
184 1 2 1.6910368128262994e+00 2.0112033386849696e+01 1.0000000000000000e+00 3.4659858097258018e+00 1.9807387997522063e+01 1.5605761202891481e+01 
344 1 2 1.6910368128262994e+00 -6.2932087969287043e+00 1.0000000000000000e+00 5.6827200195525158e+00 1.8925494465534562e+01 1.4582960652076288e+01 
80 1 2 1.6910368128262994e+00 2.3164314676374360e+01 1.0000000000000000e+00 6.1115128217054648e+00 1.0289954637971777e+01 1.6254661238122814e+01 
257 1 2 1.6910368128262994e+00 2.6406026001685618e+01 1.0000000000000000e+00 4.6011745088606029e+00 1.1796534517642677e+01 1.6343740509366896e+01 
131 1 2 1.6910407410712052e+00 2.2795987682198525e+01 1.0000000000000000e+00 3.1612140802359083e+00 1.3952318454094994e+01 1.6515192557615514e+01 
146 1 2 1.6910368136886598e+00 2.5486288044897265e+01 1.0000000000000000e+00 8.3008375779719132e-02 1.4532835715547561e+01 1.6398467903166743e+01 
306 1 2 1.6910368128262994e+00 2.8594146683001703e+01 1.0000000000000000e+00 5.3866407311465236e-01 1.7267001384215721e+01 1.6041406692719587e+01 
20 1 2 1.6910368128262994e+00 2.1572218854658637e+01 1.0000000000000000e+00 5.4615960594060864e+00 1.8871884215499922e+01 1.6655708914251061e+01 
122 1 2 1.6910368128262994e+00 2.3770691058280420e+01 1.0000000000000000e+00 1.3349288062976967e+00 1.1247650846268018e+01 1.8563548179731271e+01 
75 1 2 1.6910368128262994e+00 2.7361801269230504e+01 1.0000000000000000e+00 1.7077689482635365e+00 1.3580104179969972e+01 1.8024286472916465e+01 
243 1 2 1.6910368128262994e+00 2.3057470991753981e+01 1.0000000000000000e+00 4.8252701607569364e+00 1.3446875888741651e+01 1.8209375196817671e+01 
135 1 2 1.6910368128262994e+00 2.6892321275074444e+01 1.0000000000000000e+00 6.3002856959950568e+00 1.4788490325980710e+01 1.7593704869550635e+01 
213 1 2 1.6910368128262994e+00 1.1026447047755504e+01 1.0000000000000000e+00 3.5757158171521315e+00 1.6118719802596292e+01 1.7671561302122541e+01 
274 1 2 1.6910368128262994e+00 -1.0319790307292735e+01 1.0000000000000000e+00 1.1405241153343217e-01 1.9299392368989480e+01 1.7745451337209587e+01 
79 1 2 1.6910368128262994e+00 -2.1667340018798544e+00 1.0000000000000000e+00 2.2930018318121888e+00 1.8642755624489631e+01 1.7396623225514407e+01 
22 1 2 1.6910368128262994e+00 2.9541359441593634e+01 1.0000000000000000e+00 4.5937765004078681e+00 1.7490485606127411e+01 1.9525680675884814e+01 
84 1 2 1.6910368128262994e+00 1.3108392135783500e+01 1.0000000000000000e+00 5.1550634594446212e+00 1.9672355474203766e+01 1.9335536580962565e+01 
127 1 2 1.6910368128262994e+00 2.4544077672276970e+01 1.0000000000000000e+00 1.1479186715146511e+01 1.4304093729144318e+00 9.2713014583495412e-01 
13 1 2 1.6910368128262994e+00 -1.0803741037477423e+02 1.0000000000000000e+00 9.5851486827035561e+00 2.8916183917953520e+00 6.3871190255618923e-02 
27 1 2 1.6910368128262994e+00 3.9314599278457933e+01 1.0000000000000000e+00 7.1758386337514430e+00 8.7830969923167945e+00 1.4757993154253360e-01 
369 1 2 1.6910368128262994e+00 2.2252969894744368e+01 1.0000000000000000e+00 8.2811923013405568e+00 1.7477505466549808e+00 1.9342908493775597e+00 
44 1 2 1.6910368128262994e+00 -1.5888408870688650e+01 1.0000000000000000e+00 1.1246153033640576e+01 3.2534717233218009e+00 2.2785442395010382e+00 
313 1 2 1.6910368128262994e+00 1.8337991150054101e+01 1.0000000000000000e+00 7.4587533917978570e+00 4.4062674153944217e+00 2.0268490943270203e+00 
200 1 2 1.6910368128262994e+00 -3.1409371601645197e-01 1.0000000000000000e+00 9.9485343024896551e+00 4.6115661956795497e+00 1.4709549280502119e+00 
356 1 2 1.6910368128262994e+00 -2.1031824432834526e+02 1.0000000000000000e+00 1.2970028421088466e+01 5.3617609706199012e+00 1.5599971361910687e+00 
33 1 2 1.6910368128262994e+00 2.0481344761142665e+01 1.0000000000000000e+00 6.7025183816416245e+00 6.3280189277358909e+00 2.0698987553801191e+00 
335 1 2 1.6910368128262994e+00 -2.2244305247960298e+01 1.0000000000000000e+00 1.0820261138452423e+01 7.3882898595119171e+00 1.5797424923816479e+00 
358 1 2 1.6910368128262994e+00 3.6101817601362129e+01 1.0000000000000000e+00 1.1434084276275712e+01 9.3064923092464582e+00 1.6340969416070741e+00 
221 1 2 1.6910368128262994e+00 3.0437590270205519e+01 1.0000000000000000e+00 1.3289067560347013e+01 6.7274074484379809e-01 3.4896374214790682e+00 
148 1 2 1.6910368128262994e+00 2.1223059276982397e+01 1.0000000000000000e+00 7.7683705829613405e+00 5.7457159940001334e+00 4.2415952090940037e+00 
241 1 2 1.6910368128262994e+00 2.0362457582547350e+01 1.0000000000000000e+00 9.8372775505341910e+00 6.2665407182877706e+00 3.5838336935240531e+00 
113 1 2 1.6910368128262994e+00 3.1115856571306558e+01 1.0000000000000000e+00 1.3303172774173987e+01 6.0130453539997415e+00 3.4294972112581785e+00 
118 1 2 1.6910368128262994e+00 -8.5762139617084898e+00 1.0000000000000000e+00 8.0157147460255640e+00 8.3874933354485037e+00 3.7604153630919384e+00 
247 1 2 1.6910368128262994e+00 -9.1503594633415446e+01 1.0000000000000000e+00 1.2775977553950030e+01 8.4824775922927351e+00 3.0907642422519830e+00 
157 1 2 1.6910368128262994e+00 1.3932769225937346e+01 1.0000000000000000e+00 9.2775593884539056e+00 6.0993363677290824e-01 5.4673559831073222e+00 
355 1 2 1.6910368128262994e+00 9.4059666115171012e+00 1.0000000000000000e+00 1.0635460367350355e+01 2.1224217558464886e+00 4.9136757670582263e+00 
193 1 2 1.6910368128262994e+00 3.1597545451225493e+01 1.0000000000000000e+00 8.4747568345328723e+00 3.8271386753419465e+00 5.0397115393811571e+00 
309 1 2 1.6910368128262994e+00 3.3231709328329835e+00 1.0000000000000000e+00 1.1280824448750446e+01 5.4028391749141615e+00 4.9565253974382202e+00 
291 1 2 1.6910368128262994e+00 1.2497712991541001e+00 1.0000000000000000e+00 6.8493321489903058e+00 9.1949468226912447e+00 5.2668550767673539e+00 
34 1 2 1.6910368128262994e+00 2.3254695655759015e+01 1.0000000000000000e+00 1.0151122051643663e+01 9.0682145705116994e+00 5.0575640783069620e+00 
83 1 2 1.6910368694799978e+00 3.2059144321618398e+01 1.0000000000000000e+00 1.2140117361772589e+01 9.0146479185030444e+00 5.5323491291443094e+00 
275 1 2 1.6910368128262994e+00 1.2175858174084787e+01 1.0000000000000000e+00 1.2318476390183266e+01 1.2461870806621436e+00 7.1020365364831939e+00 
88 1 2 1.6910368128262994e+00 2.0169755682060980e+01 1.0000000000000000e+00 1.2534323743691218e+01 3.3223606856960286e+00 6.4743229279654457e+00 
293 1 2 1.6910368128262994e+00 2.7923578557427675e+01 1.0000000000000000e+00 8.4856368950305257e+00 5.3546859691467548e+00 6.5442693245715162e+00 
202 1 2 1.6910368128262994e+00 1.2622555037574230e+01 1.0000000000000000e+00 1.0880451185602649e+01 7.3592291156119751e+00 5.9354175757143732e+00 
9 1 2 1.6910368128262994e+00 -1.3831295155113179e+02 1.0000000000000000e+00 9.0232905613266912e+00 1.7779286999224264e+00 8.0617716888171209e+00 
266 1 2 1.6910368128262994e+00 3.1261587566368391e+01 1.0000000000000000e+00 1.0278861651048180e+01 4.0148318006733206e+00 8.5692575811729732e+00 
285 1 2 1.6910368128262994e+00 2.9343459735613138e+01 1.0000000000000000e+00 1.1623658766930564e+01 6.7950394114532076e+00 7.9556479834527600e+00 
252 1 2 1.6910368128262994e+00 -3.5207566537383877e+02 1.0000000000000000e+00 8.6883619410147936e+00 7.3056390655156989e+00 8.1703444438266324e+00 
223 1 2 1.6910368128262994e+00 1.5495405634076132e+01 1.0000000000000000e+00 8.7044187405398450e+00 9.2188688785752966e+00 7.1961106971555981e+00 
349 1 2 1.6910368128262994e+00 -2.8207306086464200e+01 1.0000000000000000e+00 1.3136462742618178e+01 1.3620388438679270e+00 9.0053301889768367e+00 
62 1 2 1.6910368128262994e+00 2.9962820187921785e+01 1.0000000000000000e+00 6.6823927639814746e+00 6.7347730393518401e-01 1.1310229557767682e+01 
352 1 2 1.6910368128262994e+00 2.2766524103718787e+01 1.0000000000000000e+00 1.1272475211279524e+01 2.0266140691122874e+00 1.0678703701690681e+01 
234 1 2 1.6910368128262994e+00 1.9412788595135176e+01 1.0000000000000000e+00 7.4695650364965527e+00 2.9132768805708036e+00 1.0301463091334327e+01 
277 1 2 1.6910368128262994e+00 3.0054416469382325e+01 1.0000000000000000e+00 9.9647791440981486e+00 3.6283990210930428e+00 1.0846404443632339e+01 
89 1 2 1.6910368128262994e+00 1.7235109369367166e+01 1.0000000000000000e+00 8.4768937046006183e+00 5.4639771027471093e+00 1.0425169826535708e+01 
192 1 2 1.6910368128262994e+00 3.2474900432905727e+01 1.0000000000000000e+00 1.0346135979485515e+01 6.5220811532874237e+00 1.1098866825956021e+01 
138 1 2 1.6910368128262994e+00 3.0869527315218242e+01 1.0000000000000000e+00 1.2737043821189900e+01 7.1673730944979752e+00 1.0161941074129905e+01 
151 1 2 1.6910368128262994e+00 2.0150017929120665e+01 1.0000000000000000e+00 8.4819804040880413e+00 9.0642056961107560e+00 1.0346663691575062e+01 
281 1 2 1.6910368128262994e+00 -3.7376421973200323e+01 1.0000000000000000e+00 1.0441021935958284e+01 1.0597987989352553e-01 1.1945896750680355e+01 
52 1 2 1.6910368128262994e+00 -3.5281832763123859e+01 1.0000000000000000e+00 1.2498670785996477e+01 2.1492287860648357e-01 1.2289820039205873e+01 
114 1 2 1.6910368128262994e+00 2.8630760174844518e+01 1.0000000000000000e+00 1.3119725958756261e+01 2.9527666442804881e+00 1.1828483966820656e+01 
233 1 2 1.6910368128262994e+00 2.5243130042732737e+01 1.0000000000000000e+00 1.1088062577623685e+01 9.4813853576613667e+00 1.1979700015780164e+01 
14 1 2 1.6910368128262994e+00 1.7128487189477127e+01 1.0000000000000000e+00 1.0475063988706129e+01 2.0033784577796818e+00 1.3333479818681568e+01 
339 1 2 1.6910368128262994e+00 3.8676226539136820e+01 1.0000000000000000e+00 1.1825685799006459e+01 6.6916893903271610e+00 1.3860676157819221e+01 
169 1 2 1.6910368128262994e+00 -6.1828929989945124e+01 1.0000000000000000e+00 1.0025228804633276e+01 7.8173394141239951e+00 1.3472535803019181e+01 
296 1 2 1.6910368128262994e+00 2.2138251002033570e+01 1.0000000000000000e+00 7.8992995727606869e+00 8.7019005062690198e+00 1.3251792389084709e+01 
42 1 2 1.6910368128262994e+00 2.6067595586592745e+01 1.0000000000000000e+00 9.6293858036554312e+00 2.4765254742788370e-01 1.5546623846693583e+01 
246 1 2 1.6910368128262994e+00 4.0615051722570712e+01 1.0000000000000000e+00 8.9059720883870455e+00 2.7556992491160837e+00 1.5076908851103022e+01 
205 1 2 1.6910368128262994e+00 2.5702796362638473e+01 1.0000000000000000e+00 7.2114697424828123e+00 5.1341496693592408e+00 1.4383713687009365e+01 
17 1 2 1.6910368128262994e+00 2.9201936110620551e+01 1.0000000000000000e+00 1.0269250626964693e+01 4.7495714644427736e+00 1.4695853267060262e+01 
310 1 2 1.6910368128262994e+00 2.3372036878080863e+01 1.0000000000000000e+00 7.8877634729939352e+00 1.8704271913369885e-01 1.6963604930693599e+01 
68 1 2 1.6910368128262994e+00 1.4911218796883272e+01 1.0000000000000000e+00 1.2754687024544612e+01 1.1830176909857391e+00 1.6300002656691369e+01 
134 1 2 1.6910368128262994e+00 2.7627917145777602e+01 1.0000000000000000e+00 7.8584383464451646e+00 4.3726357517349070e+00 1.6602522797801072e+01 
77 1 2 1.6910368128262994e+00 1.6798967839388453e+01 1.0000000000000000e+00 9.9937104983690315e+00 6.2909874239591463e+00 1.6812256602707436e+01 
149 1 2 1.6910539884425613e+00 2.4981834611839183e+01 1.0000000000000000e+00 1.2726111679910376e+01 5.8503819717485595e+00 1.5782838472558723e+01 
8 1 2 1.6910368128262994e+00 2.5277766370345731e+01 1.0000000000000000e+00 8.1872441599851076e+00 8.5624152740245094e+00 1.6204751627398714e+01 
304 1 2 1.6910368128262994e+00 -3.5838560295334190e+01 1.0000000000000000e+00 9.6183014223065335e+00 8.9196179319992352e-01 1.8388668475823977e+01 
302 1 2 1.6910368128262994e+00 3.4056091721532411e+01 1.0000000000000000e+00 8.2950526847371631e+00 2.7075733889276776e+00 1.7991659955329308e+01 
139 1 2 1.6910368128262994e+00 2.9693834004548563e+01 1.0000000000000000e+00 1.1858347450739817e+01 2.6060138408976172e+00 1.8046754580537378e+01 
238 1 2 1.6910368128262994e+00 2.1594446042997333e+01 1.0000000000000000e+00 1.0092544555675143e+01 3.6220888583812294e+00 1.7833861140172193e+01 
264 1 2 1.6910393647787163e+00 1.5233280721786642e+01 1.0000000000000000e+00 1.1959189530740691e+01 5.6669545967439046e+00 1.8278236932574448e+01 
370 1 2 1.6910368128262994e+00 2.6075580117067481e+01 1.0000000000000000e+00 1.1053977950903075e+01 9.3489824072931587e+00 1.7946147339547558e+01 
230 1 2 1.6911221136777357e+00 -1.8838794165833380e+02 1.0000000000000000e+00 1.3122337646157401e+01 9.0857251422019463e+00 1.8476062594713959e+01 
110 1 2 1.6910368128262994e+00 1.7062827191290097e+01 1.0000000000000000e+00 6.8677782935722336e+00 1.4508722564529086e+00 1.9500951215684260e+01 
15 1 2 1.6910368128262994e+00 2.8827079894787992e+01 1.0000000000000000e+00 1.1740491573919916e+01 4.2106564143313436e+00 1.9936309021877847e+01 
301 1 2 1.6910368128262994e+00 1.8241999192924332e+01 1.0000000000000000e+00 6.9553160124667146e+00 6.1367102149957464e+00 1.9524467243283802e+01 
165 1 2 1.6910368128262994e+00 2.4037776693248396e+01 1.0000000000000000e+00 8.0066881695571563e+00 1.2241351772687418e+01 5.3537190947463720e-01 
119 1 2 1.6910368128262994e+00 -1.7486085712314157e+01 1.0000000000000000e+00 1.0689907947358948e+01 1.2621167504189637e+01 6.2089094715266591e-01 
91 1 2 1.6910371130130777e+00 2.3742963479811856e+01 1.0000000000000000e+00 1.1613224642812247e+01 1.4667992302941947e+01 1.0299647753679597e+00 
231 1 2 1.6910368128262994e+00 -1.8663106521754412e+02 1.0000000000000000e+00 9.5428771081875432e+00 1.5771579509309927e+01 8.2479234566911841e-01 
82 1 2 1.6910368128262994e+00 -3.8901618796592902e+02 1.0000000000000000e+00 1.2001999935382621e+01 1.6675876197575132e+01 6.6119898827344481e-01 
286 1 2 1.6910368128262994e+00 3.4075036008956431e+01 1.0000000000000000e+00 1.0104367221583406e+01 1.8930021128930406e+01 1.5052472841309525e-02 
167 1 2 1.6910368128262994e+00 3.2902656049509901e+01 1.0000000000000000e+00 8.7874913088433608e+00 1.0588525793307275e+01 1.6742278570445452e+00 
260 1 2 1.6910368128262994e+00 1.8564614052880245e+01 1.0000000000000000e+00 1.1073329938509923e+01 1.2307118676624576e+01 2.5704829465976062e+00 
371 1 2 1.6910368128262994e+00 3.4639839274006576e+01 1.0000000000000000e+00 7.7520235173943570e+00 1.4628226869902331e+01 1.6185554295327498e+00 
364 1 2 1.6910374857819006e+00 -2.0526318448331799e+02 1.0000000000000000e+00 1.0390556750000211e+01 1.4637320256949037e+01 2.5860410697770968e+00 
350 1 2 1.6910374260333130e+00 2.7677152777045332e+01 1.0000000000000000e+00 8.0062223048874852e+00 1.7009533618249208e+01 2.6370775435995757e+00 