LAMMPS data file via write_data, version 30 Jul 2016, timestep = 50400000

4620 atoms
8 atom types

0.0000000000000000e+00 1.0000000000000000e+02 xlo xhi
0.0000000000000000e+00 4.0000000000000000e+01 ylo yhi
0.0000000000000000e+00 4.0000000000000000e+01 zlo zhi

Masses

1 3.896
2 5.36
3 20.064
4 8.378
5 8.378
6 8.378
7 8.378
8 8.378

Atoms # meso-molecular

2355 2356 2 1.0279999999863754e+00 -5.0924035868657154e+02 1.0000000000000000e+00 3.2442867329029468e+01 1.6883348236038064e-02 5.3344472546840260e-01 
3823 3824 2 1.0280000000463507e+00 -6.1915189269945063e+00 1.0000000000000000e+00 3.1987760115026635e+01 1.5830380178577363e+00 1.2168295652030814e+00 
3361 3362 2 1.0279999999652931e+00 -4.5273128953742764e+02 1.0000000000000000e+00 3.2647601221324663e+01 2.6217310570669206e+00 1.1061160171456232e+00 
1219 1220 2 1.0279999999335696e+00 -4.5282754274030356e+02 1.0000000000000000e+00 3.3131923258440409e+01 4.2743237439521655e+00 2.2573492046759117e-01 
757 758 2 1.0280000000682081e+00 -6.2359126127006093e+00 1.0000000000000000e+00 3.2546001859190625e+01 5.3591822946707657e+00 8.5593462637538337e-02 
932 933 2 1.0279999999999994e+00 8.2236230636430975e+01 1.0000000000000000e+00 1.5184872822481704e+01 8.6621134154200767e+00 1.5458354921165238e+00 
1051 1052 2 1.0280000000997738e+00 -4.5276041689140732e+02 1.0000000000000000e+00 3.3146765715094233e+01 4.2217776029666556e+00 2.0726313656667630e+00 
589 590 2 1.0279999999217733e+00 -6.1712630568225633e+00 1.0000000000000000e+00 3.2584633690905974e+01 5.2904379665809662e+00 2.3575415787491631e+00 
972 973 2 1.0279999999999994e+00 -5.8391564664694192e+02 1.0000000000000000e+00 1.4228088005023857e+01 8.2401587935382015e+00 2.0083180621809751e+00 
132 133 2 1.0280000000000009e+00 -6.7087480836841178e+02 1.0000000000000000e+00 2.9196321911071735e+01 8.5605956475740030e-01 3.4866365748138675e+00 
842 843 2 1.0280000000000007e+00 4.3460571806694486e+02 1.0000000000000000e+00 8.6009296168353053e+00 8.1168376293108881e+00 6.1082115922635847e+00 
800 801 2 1.0280000000000007e+00 7.6186738477683321e+02 1.0000000000000000e+00 9.6255592505048782e+00 8.3944048240337263e+00 5.6834015362637427e+00 
2940 2941 2 1.0279999998789018e+00 -9.2159549799221622e+02 1.0000000000000000e+00 3.2777895805700510e+01 9.3505612369570590e-01 1.3439943629555293e+01 
3444 3445 2 1.0280000001148044e+00 -4.6945733448179453e+02 1.0000000000000000e+00 3.1696538297769443e+01 5.5293938876101212e-01 1.3484942307495901e+01 
3821 3822 2 1.0280000001256600e+00 7.6182008479197259e+02 1.0000000000000000e+00 2.9105519165786372e+01 2.5151554075989151e+00 1.4044528970505061e+01 
3779 3780 2 1.0279999998705334e+00 4.3462872684012427e+02 1.0000000000000000e+00 3.0157900248664252e+01 2.7536345050147655e+00 1.3662474387536891e+01 
678 679 2 1.0280000000289207e+00 1.4223000827565425e+03 1.0000000000000000e+00 3.0344635673745628e+01 2.0939226006636270e-02 1.5490029348821318e+01 
1603 1604 2 1.0279999999634448e+00 -2.5236260811841407e+02 1.0000000000000000e+00 3.0493578477758511e+01 1.4221976671226184e+00 1.5470890273285331e+01 
1601 1602 2 1.0279999999656926e+00 -5.0118836919935001e+02 1.0000000000000000e+00 3.3042988678019505e+01 1.5763470099531900e+00 1.5511798119257403e+01 
2063 2064 2 1.0280000000228071e+00 -1.3107284053294070e+03 1.0000000000000000e+00 3.1775950838293170e+01 2.1838145307987262e+00 1.5491740425257415e+01 
1133 1134 2 1.0279999999999976e+00 5.6439747788646127e+02 1.0000000000000000e+00 2.2256625314600504e+00 5.7469582508941786e+00 1.7518626583657870e+01 
1347 1348 2 1.0279999999999996e+00 -1.3185763177163599e+03 1.0000000000000000e+00 3.2153843773039142e+01 9.3886234038533374e+00 1.6874292566025087e+01 
3657 3658 2 1.0279999999999996e+00 -1.3185786164126521e+03 1.0000000000000000e+00 3.2235419684923805e+01 1.0525783575740483e+01 1.6787199905412812e+01 
419 420 2 1.0280000000000000e+00 -4.6927864319996206e+02 1.0000000000000000e+00 1.5541477786647063e+01 2.8020311272981488e+00 1.9454298065449443e+01 
338 339 2 1.0280000000000102e+00 8.0908554549191854e+02 1.0000000000000000e+00 5.9059614298670517e+00 4.1307583131994843e+00 1.8521596007860126e+01 
381 382 2 1.0279999999999814e+00 5.2213461680469004e+02 1.0000000000000000e+00 7.0289274960986603e+00 3.9907965224506521e+00 1.9244100391508184e+01 
1594 1595 2 1.0279999999999976e+00 7.1789666592051458e+02 1.0000000000000000e+00 2.1420715784095297e+00 5.7367335597310474e+00 1.8658925240027102e+01 
4496 4497 2 1.0279999999999985e+00 8.0910380662133639e+02 1.0000000000000000e+00 5.9405120629345252e+00 5.9455177979781011e+00 1.8565804631372465e+01 
4539 4540 2 1.0280000000000196e+00 5.2213850859104207e+02 1.0000000000000000e+00 7.0501558313407218e+00 6.1162574170172066e+00 1.9292157999931021e+01 
462 463 2 1.0280000000000000e+00 -7.7911572335960136e+02 1.0000000000000000e+00 1.5827019372534954e+01 2.5633516036775417e+00 2.0535441490343480e+01 
2227 2228 2 1.0279999999999792e+00 -4.2398435499364621e+02 1.0000000000000000e+00 5.8099945182868682e+00 4.2986898657090142e+00 2.0206627463683780e+01 
2689 2690 2 1.0279999999999792e+00 -4.2398647162766406e+02 1.0000000000000000e+00 5.8155407920264546e+00 5.8827375258718373e+00 2.0267823897781550e+01 
1891 1892 2 1.0280000000000264e+00 -4.2392667517631173e+02 1.0000000000000000e+00 5.8767111754955605e+00 4.7381162027268298e+00 2.1968800112125688e+01 
45 46 2 1.0279999999999938e+00 5.2216268984713508e+02 1.0000000000000000e+00 7.0799809478812685e+00 4.6069842918078718e+00 2.2947490787665416e+01 
2353 2354 2 1.0279999999999661e+00 -4.2397246088523491e+02 1.0000000000000000e+00 5.8960817941135799e+00 6.3314758683794770e+00 2.2043956400397224e+01 
4203 4204 2 1.0279999999999956e+00 5.2216333336598450e+02 1.0000000000000000e+00 7.0478359613154229e+00 6.5860805716762947e+00 2.2991742628770542e+01 
3696 3697 2 1.0280000000000025e+00 4.0383873613796789e+02 1.0000000000000000e+00 1.5058326774088659e+01 9.3749646040589667e+00 2.3108219993637150e+01 
86 87 2 1.0280000000000307e+00 8.0933609212308147e+02 1.0000000000000000e+00 5.9468231056669723e+00 4.8001685043960665e+00 2.3721435616912949e+01 
3954 3955 2 1.0280000000000111e+00 1.3359749283444899e+03 1.0000000000000000e+00 1.1504152689633873e+00 5.2221365289080559e+00 2.4374291990106460e+01 
4415 4416 2 1.0279999999999883e+00 -1.5052211477461134e+02 1.0000000000000000e+00 2.1805577730170023e+00 6.1695568170033095e+00 2.4304265748480248e+01 
4244 4245 2 1.0280000000000185e+00 8.0917382591330249e+02 1.0000000000000000e+00 5.8945813230570376e+00 6.4727703350933403e+00 2.3818375247322479e+01 
257 258 2 1.0279999999999734e+00 -1.5048106884284442e+02 1.0000000000000000e+00 2.1731798484540064e+00 7.8905159527437387e+00 2.4231523200212845e+01 
1686 1687 2 1.0280000000000076e+00 4.8008538231415537e+02 1.0000000000000000e+00 3.9453232058326173e+00 8.0938511550243106e+00 2.3784263598728845e+01 
1181 1182 2 1.0280000000000342e+00 -4.2151200809462424e+01 1.0000000000000000e+00 4.4681537218167859e+00 7.4246021915210685e+00 2.4640194649525409e+01 
720 721 2 1.0280000000000311e+00 1.3359795480467196e+03 1.0000000000000000e+00 1.1077176557010351e+00 8.7917797891528782e+00 2.4438488588453747e+01 
4158 4159 2 1.0280000000000025e+00 3.5955861800851869e+02 1.0000000000000000e+00 1.5799309301495182e+01 9.1638413399255967e+00 2.3953054225234474e+01 
3994 3995 2 1.0279999999999918e+00 -1.8230599829172439e+02 1.0000000000000000e+00 1.3310010179109255e+00 5.7880388470880968e+00 2.5747051246029514e+01 
4038 4039 2 1.0279999999999987e+00 5.0267277335224378e+02 1.0000000000000000e+00 3.0503088319351015e+00 6.4656177424949028e+00 2.6088753929620253e+01 
760 761 2 1.0279999999999583e+00 -1.8232743935297816e+02 1.0000000000000000e+00 1.2690028492383321e+00 8.2018918605617532e+00 2.5791847597862844e+01 
804 805 2 1.0280000000000060e+00 5.0266243201789268e+02 1.0000000000000000e+00 3.0593227659837359e+00 7.6838904716308640e+00 2.6110572067248821e+01 
3151 3152 2 1.0279999999999767e+00 5.7195508301287873e+02 1.0000000000000000e+00 7.8409125224271914e-01 5.5239887688665945e+00 2.7395394211179966e+01 
1765 1766 2 1.0279999999999498e+00 5.7196674327738492e+02 1.0000000000000000e+00 7.9348867682806112e-01 8.2264719865459384e+00 2.7437078569680288e+01 
2815 2816 2 1.0279999999999927e+00 5.7198347888923672e+02 1.0000000000000000e+00 8.0311372874827358e-01 5.4717476715891449e+00 2.8829920441501024e+01 
1429 1430 2 1.0279999999999851e+00 5.7200181603673775e+02 1.0000000000000000e+00 9.2550227318413936e-01 8.1700716424872297e+00 2.8893600020813235e+01 
3826 3827 2 1.0280000000000029e+00 -1.8227735711965522e+02 1.0000000000000000e+00 1.3911365728262128e+00 5.5639503724962776e+00 3.0466388435886682e+01 
3786 3787 2 1.0279999999999905e+00 5.0264986344995350e+02 1.0000000000000000e+00 3.3184077939001786e+00 6.0842915336778285e+00 3.0272036123390830e+01 
592 593 2 1.0280000000000022e+00 -1.8225037015191378e+02 1.0000000000000000e+00 1.5120065848997926e+00 7.9582277714098630e+00 3.0507151939530097e+01 
552 553 2 1.0280000000000158e+00 5.0265606208459354e+02 1.0000000000000000e+00 3.3686137675090375e+00 7.2864053995268963e+00 3.0241479693639011e+01 
3646 3647 2 1.0279999999999954e+00 -8.7636837695036002e+02 1.0000000000000000e+00 3.0766645991658766e+01 1.5854974762877266e+01 3.1525449130510754e+01 
799 800 2 1.0280000000653648e+00 -1.4462468958542636e+03 1.0000000000000000e+00 3.2809720247772837e+01 1.2046564721305426e+00 3.1821100808167227e+01 
3870 3871 2 1.0280000000000038e+00 1.3359707093132647e+03 1.0000000000000000e+00 1.2318657163943096e+00 4.9809398074526277e+00 3.1779783163381900e+01 
4331 4332 2 1.0279999999999960e+00 -1.5049738692616233e+02 1.0000000000000000e+00 2.3257388472390770e+00 5.9196835498223637e+00 3.1919288390870065e+01 
173 174 2 1.0279999999999925e+00 -1.5050538924665432e+02 1.0000000000000000e+00 2.4501948227810351e+00 7.5532721281650685e+00 3.1929512382903880e+01 
845 846 2 1.0279999999935230e+00 -1.1628570740341280e+02 1.0000000000000000e+00 3.1690871462235162e+01 7.8930628137746490e+00 3.3211672833865585e+01 
636 637 2 1.0279999999999871e+00 1.3360605135830829e+03 1.0000000000000000e+00 1.4043264184084780e+00 8.5540907449711856e+00 3.1815825901067171e+01 
3687 3688 2 1.0279999999999954e+00 4.6558998032031900e+02 1.0000000000000000e+00 3.1143689654120141e+01 1.6462672888228244e+01 3.2417589300271864e+01 
295 296 2 1.0280000000971421e+00 -5.3087805091069288e+02 1.0000000000000000e+00 3.2679258852149971e+01 1.9406512044350659e+00 3.4624784915606980e+01 
345 346 2 1.0280000000167335e+00 -1.8335007323829998e+02 1.0000000000000000e+00 3.3217184196637540e+01 4.6102109500523509e+00 3.4522047060461546e+01 
2281 2282 2 1.0280000000113159e+00 -5.2139248663708804e+02 1.0000000000000000e+00 3.1334407282801894e+01 5.5613127836710063e+00 3.4485737478178784e+01 
385 386 2 1.0279999999820202e+00 9.3142727359244122e+02 1.0000000000000000e+00 3.2412085035331984e+01 6.2184459961352205e+00 3.3664202289305670e+01 
342 343 2 1.0280000000195031e+00 -1.4810616432088248e+03 1.0000000000000000e+00 3.0726297200658131e+01 7.2456495605703353e+00 3.3989484542568611e+01 
429 430 2 1.0280000000366156e+00 -5.5263264253215630e+02 1.0000000000000000e+00 3.2873082698296471e+01 7.6416393412308548e+00 3.4303129945766081e+01 
1348 1349 2 1.0280000000009804e+00 -5.6724636033124716e+02 1.0000000000000000e+00 3.0230444322465029e+01 8.7589948445348877e+00 3.4342619391917196e+01 
1810 1811 2 1.0280000000006959e+00 -1.0032359084499764e+03 1.0000000000000000e+00 3.1443797156006084e+01 9.5105525137854077e+00 3.4481422001923065e+01 
3068 3069 2 1.0279999999999994e+00 -4.2118870687598167e+02 1.0000000000000000e+00 8.9168810198809716e+00 1.0658042489642833e+01 3.3728285512324334e+01 
2606 2607 2 1.0279999999999994e+00 4.0423761441232398e+02 1.0000000000000000e+00 9.3372823394510966e+00 1.1576829952447358e+01 3.4263510087765020e+01 
127 128 2 1.0279999999128786e+00 -5.3088748063547371e+02 1.0000000000000000e+00 3.2709016990292696e+01 1.9653645570685550e+00 3.5782626623607896e+01 
93 94 2 1.0279999999779241e+00 -1.8334932031556338e+02 1.0000000000000000e+00 3.3234296398455662e+01 4.6255927409236834e+00 3.5878788418415972e+01 
1861 1862 2 1.0279999999945384e+00 -5.2139084220733866e+02 1.0000000000000000e+00 3.1345788425061432e+01 5.5694362269148945e+00 3.5962982084513364e+01 
90 91 2 1.0279999999840717e+00 -1.4810609819045681e+03 1.0000000000000000e+00 3.0738200902641012e+01 7.2505269995455270e+00 3.6460573648635730e+01 
9 10 2 1.0280000000079985e+00 -5.5263759576827420e+02 1.0000000000000000e+00 3.2885620794181591e+01 7.6609264111077264e+00 3.6157201779651970e+01 
928 929 2 1.0280000000000205e+00 -5.6724651255904746e+02 1.0000000000000000e+00 3.0232759152300581e+01 8.7598778552700871e+00 3.6107604097013969e+01 
1390 1391 2 1.0279999999939751e+00 -1.0032361238408184e+03 1.0000000000000000e+00 3.1446200780667436e+01 9.5122388016799917e+00 3.5968094600448332e+01 
3993 3994 2 1.0279999999999971e+00 -5.3102991925172387e+02 1.0000000000000000e+00 1.4991070315719163e+01 1.5935781448514021e+01 3.5741277017949955e+01 
49 50 2 1.0279999999990845e+00 9.3142579553988230e+02 1.0000000000000000e+00 3.2428330066165074e+01 6.2277098680927745e+00 3.6778602265756277e+01 
509 510 2 1.0280000000224441e+00 -1.1628750076480262e+02 1.0000000000000000e+00 3.1699865864160056e+01 7.9036492341384825e+00 3.7239763496899556e+01 
3951 3952 2 1.0279999999999971e+00 3.7138966952751753e+02 1.0000000000000000e+00 1.5157196135487638e+01 1.6502405218029978e+01 3.6720415789158885e+01 
3991 3992 2 1.0279999999092109e+00 -6.2191499028215791e+00 1.0000000000000000e+00 3.1305125135993816e+01 1.5005337288897433e+00 3.9010092682865633e+01 
3529 3530 2 1.0280000000906697e+00 -4.5274183180610851e+02 1.0000000000000000e+00 3.1845023215788295e+01 2.5698577831689202e+00 3.9237645219200267e+01 
174 175 2 1.0280000000000002e+00 -7.7368607531306822e+01 1.0000000000000000e+00 2.9618538518505584e+01 3.9802063262359141e+01 3.6215363464837464e+00 
934 935 2 1.0279999999999991e+00 4.6503798468995842e+02 1.0000000000000000e+00 1.8169929188234828e+01 2.0358754946761653e+01 9.9270918778692678e+00 
2609 2610 2 1.0279999999999989e+00 3.4962428052458881e+02 1.0000000000000000e+00 8.6634064370152473e+00 2.2819814381604342e+01 9.3110079855886649e+00 
2651 2652 2 1.0279999999999989e+00 -2.6938855423808138e+02 1.0000000000000000e+00 9.7270893291645599e+00 2.2952138885620776e+01 9.7090556561564298e+00 
3190 3191 2 1.0280000000000002e+00 1.2088135009752764e+02 1.0000000000000000e+00 3.2900080746806388e+01 2.2454153538610687e+01 8.3639060601817441e+00 
1308 1309 2 1.0279999999999996e+00 -5.8411815520803407e+02 1.0000000000000000e+00 1.8205325039056831e+01 3.0943391965458794e+01 8.9136308628066061e+00 
1352 1353 2 1.0279999999999996e+00 8.2070917454965524e+01 1.0000000000000000e+00 1.9149329886625594e+01 3.1371870293202427e+01 9.3959525271338862e+00 
2547 2548 2 1.0279999999999976e+00 -9.3136330712548079e+02 1.0000000000000000e+00 8.2241842503498930e-01 3.2678657061358969e+01 9.7861303614672082e+00 
975 976 2 1.0279999999999991e+00 -8.7752714683315889e+02 1.0000000000000000e+00 1.8021984408589041e+01 2.0809842248070005e+01 1.0967286862587351e+01 
1620 1621 2 1.0279999999999987e+00 2.8154097076844700e+03 1.0000000000000000e+00 1.3059511614349919e+01 2.3119425553544477e+01 1.1128589453337016e+01 
2085 2086 2 1.0279999999999987e+00 -9.3136323986372395e+02 1.0000000000000000e+00 1.4184737219286681e+01 2.3317540679690516e+01 1.1083971606620892e+01 
2897 2898 2 1.0279999999999996e+00 1.5519431662060293e+02 1.0000000000000000e+00 2.2045447672512029e+01 2.6207143994744779e+01 1.4302709909650588e+01 
2855 2856 2 1.0279999999999996e+00 -2.9103569043096945e+02 1.0000000000000000e+00 2.3002881194651216e+01 2.6830462960524930e+01 1.4256153115928768e+01 
1339 1340 2 1.0279999999999976e+00 -5.8389393559528935e+02 1.0000000000000000e+00 2.1762312700705380e+01 3.1527836590920995e+01 1.4492193660905720e+01 
1379 1380 2 1.0279999999999976e+00 8.1865276316312588e+01 1.0000000000000000e+00 2.0770480000025373e+01 3.1951905014548402e+01 1.4871412441298677e+01 
2525 2526 2 1.0280000000021570e+00 -1.3107351081052998e+03 1.0000000000000000e+00 3.1927226129948611e+01 3.6326702907275987e+01 1.5608375308877225e+01 
2989 2990 2 1.0280000000098373e+00 -2.5236885112174218e+02 1.0000000000000000e+00 3.0632464953882355e+01 3.7052956266504339e+01 1.5568573440665364e+01 
2987 2988 2 1.0280000000102645e+00 -5.0117047740267651e+02 1.0000000000000000e+00 3.3193772703326950e+01 3.6955937603938452e+01 1.5517283268294195e+01 
3912 3913 2 1.0279999999779172e+00 1.4222995771779542e+03 1.0000000000000000e+00 3.0372032644440644e+01 3.8444879042675403e+01 1.5530376976120994e+01 
2988 2989 2 1.0280000000060663e+00 -2.3367432446095756e+02 1.0000000000000000e+00 3.2196610271497860e+01 3.8570902424390667e+01 1.5512923526711296e+01 
1602 1603 2 1.0279999999816893e+00 -2.3367609967748416e+02 1.0000000000000000e+00 3.2184126043166437e+01 3.9869066975360390e+01 1.5500704304465357e+01 
717 718 2 1.0280000000000014e+00 3.7139637018274868e+02 1.0000000000000000e+00 2.9516243963745193e+01 2.1468427374689615e+01 1.7875669531427231e+01 
759 760 2 1.0280000000000014e+00 -5.3102850801566319e+02 1.0000000000000000e+00 2.9404277188960606e+01 2.2065660112792777e+01 1.6907088344669575e+01 
1597 1598 2 1.0280000001242822e+00 2.7768119866005754e+03 1.0000000000000000e+00 3.3150879043657518e+01 3.6701719872270573e+01 1.7703732395732651e+01 
2059 2060 2 1.0279999998829117e+00 3.6259690928623127e+02 1.0000000000000000e+00 3.2064565411693998e+01 3.7068618587493781e+01 1.7676763498804636e+01 
1513 1514 2 1.0279999999999943e+00 -9.2196768347123907e+02 1.0000000000000000e+00 1.9151773705026429e+01 3.2313730697368243e+01 2.2011095204479552e+01 
1093 1094 2 1.0279999999999943e+00 -4.6960539741306866e+02 1.0000000000000000e+00 2.0236792517071311e+01 3.2597526062711331e+01 2.2233732545411531e+01 
1377 1378 2 1.0279999999999987e+00 4.6473066129478616e+02 1.0000000000000000e+00 1.3072032294923753e+01 3.3666281912846344e+01 2.2672392019452420e+01 
1336 1337 2 1.0279999999999987e+00 -8.7700631657399526e+02 1.0000000000000000e+00 1.3402327500236593e+01 3.4217587084758357e+01 2.1726696136925082e+01 
2684 2685 2 1.0280000000000000e+00 -2.6939706032062054e+02 1.0000000000000000e+00 6.4783648187591094e+00 3.4156904338400651e+01 2.5575445019155477e+01 
2642 2643 2 1.0280000000000000e+00 3.4960557138406131e+02 1.0000000000000000e+00 7.5692478564223711e+00 3.4061318553508883e+01 2.5246491263554571e+01 
3276 3277 2 1.0280000000000016e+00 4.0393308552971837e+02 1.0000000000000000e+00 2.9687514367424548e+01 3.6632237932147802e+01 2.9590983934343527e+01 
3738 3739 2 1.0280000000000016e+00 3.5959913040766708e+02 1.0000000000000000e+00 3.0371128729089126e+01 3.6320074206332819e+01 2.8729242540264089e+01 
507 508 2 1.0280000000000011e+00 7.3658070853847983e+02 1.0000000000000000e+00 7.1333321572230908e+00 2.6167466653417357e+01 3.1558785760187291e+01 
1431 1432 2 1.0280000000000011e+00 1.2082102956126897e+02 1.0000000000000000e+00 8.1567277344986646e+00 2.6573768796859056e+01 3.1250641186802959e+01 
506 507 2 1.0280000000000000e+00 4.3460416677257575e+02 1.0000000000000000e+00 4.6180525612037195e+00 3.2069430511017707e+01 3.0698215185705866e+01 
548 549 2 1.0280000000000000e+00 7.6189476557743717e+02 1.0000000000000000e+00 5.6723215833085616e+00 3.2419501728472923e+01 3.0969028754786631e+01 
1311 1312 2 1.0280000000000065e+00 -8.7698525760581720e+02 1.0000000000000000e+00 1.9356709922103295e+01 3.4135377692178544e+01 3.1246447506567566e+01 
4079 4080 2 1.0279999999962821e+00 -1.1627522494601462e+02 1.0000000000000000e+00 3.2020042314530968e+01 3.0661771343309734e+01 3.3129934532733408e+01 
1354 1355 2 1.0280000000000065e+00 4.6524594603854030e+02 1.0000000000000000e+00 1.9364064359565958e+01 3.3388323850689218e+01 3.2112027940510224e+01 
758 759 2 1.0280000000000034e+00 -5.7627354521622328e+02 1.0000000000000000e+00 1.8692062436057864e+01 3.8092699592871497e+01 3.2267148640928703e+01 
296 297 2 1.0280000000000034e+00 -3.4657034823126435e+02 1.0000000000000000e+00 1.9356121289071794e+01 3.7162368424315055e+01 3.2296860153932130e+01 
4033 4034 2 1.0279999999213589e+00 -1.4462507191941863e+03 1.0000000000000000e+00 3.2894540496119369e+01 3.7797656177311524e+01 3.1838783044880550e+01 
3658 3659 2 1.0280000000046265e+00 -5.6721789724268615e+02 1.0000000000000000e+00 3.0715500109946355e+01 2.9807001353943033e+01 3.4331320997276627e+01 
3196 3197 2 1.0279999999995424e+00 -1.0032141358779276e+03 1.0000000000000000e+00 3.1920075544662389e+01 2.9063942758169155e+01 3.4480192032931676e+01 
4500 4501 2 1.0280000000055907e+00 -1.4810464255641641e+03 1.0000000000000000e+00 3.1076540977887493e+01 3.1342874421715614e+01 3.3948074001196439e+01 
4587 4588 2 1.0279999999969258e+00 -5.5263390618663607e+02 1.0000000000000000e+00 3.3135617540599014e+01 3.0893228093662870e+01 3.4250593166152669e+01 
2743 2744 2 1.0280000000120260e+00 -5.2139059823355933e+02 1.0000000000000000e+00 3.1624270764351909e+01 3.3059611222736791e+01 3.4437159724018322e+01 
4543 4544 2 1.0279999999970191e+00 9.3143495221906028e+02 1.0000000000000000e+00 3.2662751611687185e+01 3.2394396004750092e+01 3.3614026730846113e+01 
4453 4454 2 1.0280000000212590e+00 -5.3087723594374131e+02 1.0000000000000000e+00 3.2826733630646025e+01 3.7543081202976474e+01 3.4730319102625145e+01 
3238 3239 2 1.0279999999948404e+00 -5.6691096760290407e+02 1.0000000000000000e+00 3.0830101841780927e+01 2.9769172010085949e+01 3.6149424457266576e+01 
2776 2777 2 1.0280000000020333e+00 -1.0031952693975468e+03 1.0000000000000000e+00 3.2015017878215396e+01 2.9019760955468886e+01 3.5980952552357117e+01 
4248 4249 2 1.0279999999776395e+00 -1.4810147693247684e+03 1.0000000000000000e+00 3.1197805943986577e+01 3.1356593366157629e+01 3.6471872731378831e+01 
4167 4168 2 1.0279999999896705e+00 -5.5261565320161071e+02 1.0000000000000000e+00 3.3187570911962567e+01 3.0898390595013609e+01 3.6112511614480304e+01 
2323 2324 2 1.0279999999921150e+00 -5.2138765053443763e+02 1.0000000000000000e+00 3.1661027714078848e+01 3.3070044214382783e+01 3.5946926115924178e+01 
4285 4286 2 1.0279999999709926e+00 -5.3088603101089598e+02 1.0000000000000000e+00 3.2885068778866270e+01 3.7588013814410331e+01 3.5899404027249339e+01 
3743 3744 2 1.0280000000201255e+00 -1.1624760788781174e+02 1.0000000000000000e+00 3.2124920162989397e+01 3.0659272274976200e+01 3.7299684180345814e+01 
4207 4208 2 1.0280000000094627e+00 9.3144353614971169e+02 1.0000000000000000e+00 3.2726192668536143e+01 3.2417334351223353e+01 3.6765139853084229e+01 
3662 3663 2 1.0279999999940066e+00 8.2051523040997907e+01 1.0000000000000000e+00 3.3329938752190870e+01 2.9741107497841593e+01 3.9898125216677045e+01 
3618 3619 2 1.0280000000087695e+00 -5.8401950999998007e+02 1.0000000000000000e+00 3.2369059684920160e+01 3.0030392769331336e+01 3.9336050480073652e+01 
2691 2692 2 1.0280000000494085e+00 -5.0939360913262118e+02 1.0000000000000000e+00 3.2225345086969959e+01 3.9960689816683590e+01 3.9320445993843364e+01 
130 131 2 1.0279999999603229e+00 -1.0060804339153037e+03 1.0000000000000000e+00 3.5333543616244434e+01 2.2220260471281432e+00 2.3950743825483636e-01 
101 102 2 1.0280000000512453e+00 -2.7227381569279225e+02 1.0000000000000000e+00 4.5312363736154389e+01 3.0585652803231684e+00 1.0169502518958888e+00 
605 606 2 1.0279999999455633e+00 6.8325324582130534e+01 1.0000000000000000e+00 4.6803919465549470e+01 3.2318809148386340e+00 1.3344711084569194e+00 
567 568 2 1.0279999999724376e+00 -4.7910884252590017e+02 1.0000000000000000e+00 4.9342694628365315e+01 2.8659952490571192e+00 5.6007435597096999e-01 
568 569 2 1.0280000000396390e+00 -4.7914349138438013e+02 1.0000000000000000e+00 5.0784460685567588e+01 2.9146445872221416e+00 6.2610407315758076e-01 
614 615 2 1.0280000001029648e+00 6.8399547817717774e+01 1.0000000000000000e+00 5.3304167232215015e+01 3.1824289002447266e+00 1.2705796395382387e+00 
110 111 2 1.0279999999205263e+00 -2.7227803142084281e+02 1.0000000000000000e+00 5.4814491684878824e+01 2.9401907430361871e+00 9.6245532414568369e-01 
198 199 2 1.0280000000201133e+00 1.4935679991424863e+02 1.0000000000000000e+00 5.7085106366043419e+01 3.1199162116778814e+00 1.6302762935547135e+00 
637 638 2 1.0280000000447203e+00 4.8724263318150508e+02 1.0000000000000000e+00 4.0972815284383891e+01 4.7328543844565036e+00 6.9043610384036391e-01 
1062 1063 2 1.0279999999880647e+00 2.5437084445795057e+02 1.0000000000000000e+00 4.2555755873450899e+01 4.9725638366903722e+00 3.8932733234751649e-01 
520 521 2 1.0279999999669647e+00 -4.2095706338696823e+02 1.0000000000000000e+00 4.4204054768124685e+01 3.8242445471854936e+00 5.8895460626031693e-01 
1070 1071 2 1.0280000000238319e+00 4.3562533194681862e+02 1.0000000000000000e+00 4.8066211957408001e+01 3.4435038913935574e+00 1.8693137888035691e-01 
1073 1074 2 1.0279999999668190e+00 4.3573623349947513e+02 1.0000000000000000e+00 5.2060323228072278e+01 3.3866925494722224e+00 1.2382254139689802e-01 
531 532 2 1.0280000000307596e+00 -4.2095047867667358e+02 1.0000000000000000e+00 5.5899317791284332e+01 3.6799276492907049e+00 5.1397921260565371e-01 
1081 1082 2 1.0280000001189078e+00 2.5436838811733668e+02 1.0000000000000000e+00 5.7578704974294673e+01 4.8478154833005851e+00 2.9300655120053087e-01 
666 667 2 1.0279999998856701e+00 4.8724000045009871e+02 1.0000000000000000e+00 5.9136407136045129e+01 4.5518546760285226e+00 5.4960857488006731e-01 
622 623 2 1.0279999999996328e+00 4.7814783154199915e+02 1.0000000000000000e+00 6.0803523966795986e+01 4.8135656148342685e+00 1.1594349137230984e+00 
597 598 2 1.0280000000038678e+00 4.7812614481994734e+02 1.0000000000000000e+00 3.9309738399836931e+01 5.1035556726818783e+00 1.3923084771105723e+00 
1057 1058 2 1.0280000000111233e+00 -2.6454983367127079e+02 1.0000000000000000e+00 4.0051774119466046e+01 6.3703476515641748e+00 1.2134734396553442e+00 
563 564 2 1.0279999999879426e+00 -6.1257687677424474e+02 1.0000000000000000e+00 4.5951423562433703e+01 6.0137425091095444e+00 1.1803585070320484e+00 
607 608 2 1.0279999999738072e+00 2.0160958405878443e+01 1.0000000000000000e+00 4.7212111674433480e+01 5.0580109423892825e+00 1.0662112983714489e+00 
1071 1072 2 1.0279999999391354e+00 3.9403193687474345e+02 1.0000000000000000e+00 4.9495828894069106e+01 5.6403183237605701e+00 1.4245514500044738e+00 
1072 1073 2 1.0280000000620104e+00 3.9408298768025099e+02 1.0000000000000000e+00 5.0941729838177267e+01 5.6894759955042495e+00 1.4800091517145113e+00 
612 613 2 1.0279999999811318e+00 2.0150671998784905e+01 1.0000000000000000e+00 5.2959526823967558e+01 5.0484348529841325e+00 1.0285168374937497e+00 
572 573 2 1.0279999999817242e+00 -6.1258245804894773e+02 1.0000000000000000e+00 5.4256029579715445e+01 5.9318763947519066e+00 1.1123504754974409e+00 
1086 1087 2 1.0279999999980574e+00 -2.6455699971877982e+02 1.0000000000000000e+00 6.0090768055704395e+01 6.1552225744859586e+00 9.4110736523692995e-01 
2229 2230 2 1.0279999999120428e+00 -5.0936279341093962e+02 1.0000000000000000e+00 3.3428959847288333e+01 6.7798188140734545e+00 6.0176086557920849e-01 
1104 1105 2 1.0280000000172120e+00 1.3638313707957259e+03 1.0000000000000000e+00 4.3618868777695404e+01 7.7656761479830019e+00 1.5927556911161138e+00 
1117 1118 2 1.0280000000045191e+00 8.6278836699058786e+02 1.0000000000000000e+00 5.2247739870334030e+01 8.3079024474177867e+00 1.6456015584776069e+00 
1123 1124 2 1.0279999999674463e+00 1.3638180859027145e+03 1.0000000000000000e+00 5.6655053065129039e+01 7.6653746456948975e+00 1.5856569960740230e+00 
1082 1083 2 1.0280000000006233e+00 2.3467345639693917e+02 1.0000000000000000e+00 5.9692932656025974e+01 8.3206319507445752e+00 1.5395993390726144e+00 
1061 1062 2 1.0279999999990141e+00 2.3467118432353158e+02 1.0000000000000000e+00 4.0598458333888011e+01 8.4345847639329374e+00 1.6030806867220251e+00 
1103 1104 2 1.0279999999916816e+00 1.0730284659168244e+03 1.0000000000000000e+00 4.0724876281970737e+01 8.8794424982130664e+00 2.2058668541310059e-01 
1524 1525 2 1.0279999999982359e+00 -1.6090614523869795e+03 1.0000000000000000e+00 4.2306609448665021e+01 9.5698810790302993e+00 8.2679124117927616e-01 
1567 1568 2 1.0279999999840643e+00 9.8568423991401596e+02 1.0000000000000000e+00 4.4158090879568604e+01 8.8614658547688059e+00 8.9449811126708201e-01 
471 472 2 1.0279999999910989e+00 -2.0168009222599602e+02 1.0000000000000000e+00 4.6394025612923926e+01 9.1732206099717732e+00 1.0370528613512000e+00 
62 63 2 1.0280000000173253e+00 5.2016101328781843e+01 1.0000000000000000e+00 4.9425657053844589e+01 9.7731001351952287e+00 7.5160521142293235e-01 
65 66 2 1.0279999999955272e+00 5.2419322881556695e+01 1.0000000000000000e+00 5.0834256107215921e+01 9.9859359636974254e+00 7.9427107325904267e-01 
1537 1538 2 1.0279999999777207e+00 -1.3485795508449046e+03 1.0000000000000000e+00 5.2847210281563854e+01 9.2317085660851159e+00 1.1220236060324455e-01 
496 497 2 1.0280000000235769e+00 -2.0177533151916873e+02 1.0000000000000000e+00 5.4052018328390631e+01 9.1111342605022365e+00 1.0831370733052958e+00 
1584 1585 2 1.0280000000576273e+00 9.8569238845804080e+02 1.0000000000000000e+00 5.6159152227671342e+01 8.8082088678622785e+00 8.9304951102800278e-01 
1543 1544 2 1.0279999999419878e+00 -1.6090917008367801e+03 1.0000000000000000e+00 5.8036960147530920e+01 9.4925108641559852e+00 7.8911893474609518e-01 
1124 1125 2 1.0279999999609231e+00 1.0730351758032516e+03 1.0000000000000000e+00 5.9590093964414301e+01 8.7524687246199910e+00 1.6272379782355884e-01 
1851 1852 2 1.0280000000009728e+00 -7.4367437430433870e+02 1.0000000000000000e+00 3.8851359527911917e+01 1.1200928299991656e+01 8.6660543614797469e-01 
1520 1521 2 1.0280000000073990e+00 -9.3017988890823563e+02 1.0000000000000000e+00 4.0574744377059631e+01 1.1016272381105278e+01 6.1293551253964862e-01 
474 475 2 1.0279999999998353e+00 6.3068477013243715e+01 1.0000000000000000e+00 4.1716871303158435e+01 1.1100675282636043e+01 1.3875035980785964e+00 