LAMMPS data file via write_data, version 30 Jul 2016, timestep = 50000000

4620 atoms
8 atom types

0.0000000000000000e+00 1.0000000000000000e+02 xlo xhi
0.0000000000000000e+00 4.0000000000000000e+01 ylo yhi
0.0000000000000000e+00 4.0000000000000000e+01 zlo zhi

Masses

1 3.896
2 5.36
3 20.064
4 8.378
5 8.378
6 8.378
7 8.378
8 8.378

Atoms # meso-molecular

2355 2356 2 1.0280000000070399e+00 -5.0924035868657154e+02 1.0000000000000000e+00 3.2442601994461263e+01 2.2033552954027185e-02 5.2666789141663384e-01 
3823 3824 2 1.0280000000383658e+00 -6.1915189269945063e+00 1.0000000000000000e+00 3.1987489823616894e+01 1.5881895679636568e+00 1.2100570135779949e+00 
3361 3362 2 1.0279999999969700e+00 -4.5273128953742764e+02 1.0000000000000000e+00 3.2647328085983524e+01 2.6268825345848912e+00 1.0993460790684746e+00 
1219 1220 2 1.0279999998860336e+00 -4.5282754274030356e+02 1.0000000000000000e+00 3.3131645700443762e+01 4.2794820244693099e+00 2.1896929787100200e-01 
757 758 2 1.0280000001105414e+00 -6.2359126127006093e+00 1.0000000000000000e+00 3.2545723303948670e+01 5.3643400973883830e+00 7.8829093913172707e-02 
1051 1052 2 1.0280000001372265e+00 -4.5276041689140732e+02 1.0000000000000000e+00 3.3146486537799625e+01 4.2269330820202766e+00 2.0658638496246176e+00 
589 590 2 1.0279999998900509e+00 -6.1712630568225633e+00 1.0000000000000000e+00 3.2584354913455499e+01 5.2955931829369218e+00 2.3507754282544697e+00 
972 973 2 1.0280000000000011e+00 -5.8391564664694192e+02 1.0000000000000000e+00 1.4745991104274673e+01 9.4743558545334583e+00 2.5754216698106145e+00 
932 933 2 1.0280000000000011e+00 8.2236230636430975e+01 1.0000000000000000e+00 1.5702775921732520e+01 9.8963104764153336e+00 2.1129390997461734e+00 
132 133 2 1.0279999999999918e+00 -6.7087480836841178e+02 1.0000000000000000e+00 2.8404317566653006e+01 6.1596536557885462e-01 3.8518652473636008e+00 
800 801 2 1.0280000000000005e+00 7.6186738477683321e+02 1.0000000000000000e+00 9.4514581599828063e+00 8.0769423034066943e+00 6.5465758139181087e+00 
842 843 2 1.0280000000000005e+00 4.3460571806694486e+02 1.0000000000000000e+00 8.4268285263132334e+00 7.7993751086838552e+00 6.9713858699179507e+00 
934 935 2 1.0279999999999991e+00 4.6503798468995842e+02 1.0000000000000000e+00 1.7899976937104139e+01 1.8543843211552119e+01 9.2374784249493107e+00 
975 976 2 1.0279999999999991e+00 -8.7752714683315889e+02 1.0000000000000000e+00 1.7752032157458352e+01 1.8994930512860471e+01 1.0277673409667393e+01 
2940 2941 2 1.0279999997928029e+00 -9.2159549799221622e+02 1.0000000000000000e+00 3.2777736651825059e+01 9.4013948832402083e-01 1.3433185576133065e+01 
3444 3445 2 1.0280000001974867e+00 -4.6945733448179453e+02 1.0000000000000000e+00 3.1696378893717792e+01 5.5802254964712106e-01 1.3478185757955396e+01 
3821 3822 2 1.0280000001061673e+00 7.6182008479197259e+02 1.0000000000000000e+00 2.9105362054649678e+01 2.5202528536681168e+00 1.4037794991561737e+01 
3779 3780 2 1.0279999998892109e+00 4.3462872684012427e+02 1.0000000000000000e+00 3.0157743240358609e+01 2.7587323203224217e+00 1.3655739896841814e+01 
678 679 2 1.0280000000760436e+00 1.4223000827565425e+03 1.0000000000000000e+00 3.0344474626777078e+01 2.6029177673003119e-02 1.5483270564548176e+01 
1603 1604 2 1.0279999999223428e+00 -2.5236260811841407e+02 1.0000000000000000e+00 3.0493415316341910e+01 1.4272885824903825e+00 1.5464131913756178e+01 
1601 1602 2 1.0279999999184091e+00 -5.0118836919935001e+02 1.0000000000000000e+00 3.3042824330107514e+01 1.5814386096694946e+00 1.5505030949402999e+01 
2063 2064 2 1.0280000000333576e+00 -1.3107284053294070e+03 1.0000000000000000e+00 3.1775786949896460e+01 2.1889069779892139e+00 1.5484977970356328e+01 
1594 1595 2 1.0279999999999976e+00 7.1789666592051458e+02 1.0000000000000000e+00 2.5228579467131613e+00 5.2307218724242519e+00 1.8302566490229211e+01 
1133 1134 2 1.0279999999999976e+00 5.6439747788646127e+02 1.0000000000000000e+00 2.6064488997636821e+00 5.2409465635873831e+00 1.7162267833859978e+01 
1347 1348 2 1.0279999999999996e+00 -1.3185763177163599e+03 1.0000000000000000e+00 3.2292105967621382e+01 9.0534961698009582e+00 1.6939434977667769e+01 
3657 3658 2 1.0279999999999996e+00 -1.3185786164126521e+03 1.0000000000000000e+00 3.2373681879506044e+01 1.0190656341688104e+01 1.6852342317055495e+01 
419 420 2 1.0280000000000000e+00 -4.6927864319996206e+02 1.0000000000000000e+00 1.5086530621906247e+01 2.6577929064642789e+00 1.9199740079381449e+01 
338 339 2 1.0279999999999860e+00 8.0908554549191854e+02 1.0000000000000000e+00 5.9430554798820294e+00 3.8926371156465911e+00 1.8884540782210969e+01 
381 382 2 1.0280000000000258e+00 5.2213461680469004e+02 1.0000000000000000e+00 7.0660215462103206e+00 3.7526753249347449e+00 1.9607045165949710e+01 
4496 4497 2 1.0280000000000185e+00 8.0910380662133639e+02 1.0000000000000000e+00 5.9776061134763872e+00 5.7073966015980968e+00 1.8928749403752068e+01 
4539 4540 2 1.0280000000000578e+00 5.2213850859104207e+02 1.0000000000000000e+00 7.0872498815745821e+00 5.8781362207045627e+00 1.9655102772209638e+01 
462 463 2 1.0280000000000000e+00 -7.7911572335960136e+02 1.0000000000000000e+00 1.5372072207794139e+01 2.4191133828436717e+00 2.0280883504275486e+01 
2227 2228 2 1.0280000000000282e+00 -4.2398435499364621e+02 1.0000000000000000e+00 5.8470885681316203e+00 4.0605686692849119e+00 2.0569572236861198e+01 
2689 2690 2 1.0279999999999865e+00 -4.2398647162766406e+02 1.0000000000000000e+00 5.8526348413438818e+00 5.6446163315795381e+00 2.0630768669837860e+01 
1891 1892 2 1.0279999999999545e+00 -4.2392667517631173e+02 1.0000000000000000e+00 5.9138052241567580e+00 4.4999950128200119e+00 2.2331744882026289e+01 
45 46 2 1.0279999999999498e+00 5.2216268984713508e+02 1.0000000000000000e+00 7.1170749976202474e+00 4.3688631040284092e+00 2.3310435556916925e+01 
2353 2354 2 1.0280000000000085e+00 -4.2397246088523491e+02 1.0000000000000000e+00 5.9331758423556202e+00 6.0933546824795615e+00 2.2406901168012006e+01 
3696 3697 2 1.0280000000000025e+00 4.0383873613796789e+02 1.0000000000000000e+00 1.5347934405120800e+01 1.0185070645685535e+01 2.3186296066532933e+01 
3954 3955 2 1.0280000000000447e+00 1.3359749283444899e+03 1.0000000000000000e+00 1.1875093097817593e+00 4.9840154099438445e+00 2.4737236684034656e+01 
86 87 2 1.0280000000000531e+00 8.0933609212308147e+02 1.0000000000000000e+00 5.9839171553656572e+00 4.5620473191094080e+00 2.4084380383261273e+01 
4415 4416 2 1.0279999999999445e+00 -1.5052211477461134e+02 1.0000000000000000e+00 2.2176518150435562e+00 5.9314356965944031e+00 2.4667210442670928e+01 
4244 4245 2 1.0279999999999796e+00 8.0917382591330249e+02 1.0000000000000000e+00 5.9316753711589332e+00 6.2346491547464424e+00 2.4181320009352827e+01 
4203 4204 2 1.0279999999999720e+00 5.2216333336598450e+02 1.0000000000000000e+00 7.0849300108246638e+00 6.3479593882870375e+00 2.3354687395001111e+01 
257 258 2 1.0279999999999567e+00 -1.5048106884284442e+02 1.0000000000000000e+00 2.2102738913104667e+00 7.6523948311930745e+00 2.4594467898173292e+01 
1686 1687 2 1.0280000000000313e+00 4.8008538231415537e+02 1.0000000000000000e+00 3.9824172519737626e+00 7.8557300128846634e+00 2.4147208318520271e+01 
720 721 2 1.0280000000000193e+00 1.3359795480467196e+03 1.0000000000000000e+00 1.1448116974812050e+00 8.5536586701512984e+00 2.4801433284245405e+01 
4158 4159 2 1.0280000000000025e+00 3.5955861800851869e+02 1.0000000000000000e+00 1.6088916932527322e+01 9.9739473815521649e+00 2.4031130298130257e+01 
3994 3995 2 1.0279999999999645e+00 -1.8230599829172439e+02 1.0000000000000000e+00 1.3680950577119375e+00 5.5499177300878371e+00 2.6109995939408368e+01 
4038 4039 2 1.0280000000000249e+00 5.0267277335224378e+02 1.0000000000000000e+00 3.0874028759270646e+00 6.2274966195674155e+00 2.6451698628974345e+01 
760 761 2 1.0279999999999545e+00 -1.8232743935297816e+02 1.0000000000000000e+00 1.3060968891525844e+00 7.9637707445245915e+00 2.6154792292583291e+01 
804 805 2 1.0279999999999669e+00 5.0266243201789268e+02 1.0000000000000000e+00 3.0964168108357577e+00 7.4457693477330826e+00 2.6473516768031285e+01 
1181 1182 2 1.0280000000000715e+00 -4.2151200809462424e+01 1.0000000000000000e+00 4.5052477664934676e+00 7.1864810474586127e+00 2.5003139370739067e+01 
3151 3152 2 1.0279999999999629e+00 5.7195508301287873e+02 1.0000000000000000e+00 8.2118528914137068e-01 5.2858676585629141e+00 2.7758338902287097e+01 
1765 1766 2 1.0279999999999656e+00 5.7196674327738492e+02 1.0000000000000000e+00 8.3058271371741932e-01 7.9883508766405305e+00 2.7800023261728793e+01 
2815 2816 2 1.0280000000000229e+00 5.7198347888923672e+02 1.0000000000000000e+00 8.4020776502831696e-01 5.2336265640426705e+00 2.9192865133477319e+01 
1429 1430 2 1.0279999999999503e+00 5.7200181603673775e+02 1.0000000000000000e+00 9.6259630962430165e-01 7.9319505348884007e+00 2.9256544713162313e+01 
3826 3827 2 1.0280000000000193e+00 -1.8227735711965522e+02 1.0000000000000000e+00 1.4282306086472176e+00 5.3258292666565517e+00 3.0829333127740671e+01 
3786 3787 2 1.0279999999999843e+00 5.0264986344995350e+02 1.0000000000000000e+00 3.3555018297420434e+00 5.8461704282274569e+00 3.0634980814994680e+01 
592 593 2 1.0279999999999718e+00 -1.8225037015191378e+02 1.0000000000000000e+00 1.5491006209603719e+00 7.7201066653323327e+00 3.0870096632000365e+01 
552 553 2 1.0280000000000251e+00 5.0265606208459354e+02 1.0000000000000000e+00 3.4057078034012673e+00 7.0482842940493988e+00 3.0604424385303741e+01 
3646 3647 2 1.0279999999999954e+00 -8.7636837695036002e+02 1.0000000000000000e+00 3.1049704430924226e+01 1.6629100473611363e+01 3.1187136067257928e+01 
799 800 2 1.0280000001518672e+00 -1.4462468958542636e+03 1.0000000000000000e+00 3.2809446464960743e+01 1.2097925980275901e+00 3.1814313318516383e+01 
3870 3871 2 1.0279999999999807e+00 1.3359707093132647e+03 1.0000000000000000e+00 1.2689597520455336e+00 4.7428187016570851e+00 3.2142727855141054e+01 
4331 4332 2 1.0279999999999949e+00 -1.5049738692616233e+02 1.0000000000000000e+00 2.3628328829865728e+00 5.6815624440812167e+00 3.2282233082397035e+01 
636 637 2 1.0280000000000191e+00 1.3360605135830829e+03 1.0000000000000000e+00 1.4414204544259233e+00 8.3159696392113513e+00 3.2178770593382403e+01 
173 174 2 1.0279999999999858e+00 -1.5050538924665432e+02 1.0000000000000000e+00 2.4872888588939905e+00 7.3151510224809204e+00 3.2292457075086077e+01 
845 846 2 1.0279999999930134e+00 -1.1628570740341280e+02 1.0000000000000000e+00 3.1690588173000570e+01 7.8982051734451515e+00 3.3204865190848984e+01 
3687 3688 2 1.0279999999999954e+00 4.6558998032031900e+02 1.0000000000000000e+00 3.1426748093385601e+01 1.7236798598962341e+01 3.2079276237019037e+01 
295 296 2 1.0280000001241307e+00 -5.3087805091069288e+02 1.0000000000000000e+00 3.2678973136317289e+01 1.9457966249586218e+00 3.4617999144717508e+01 
345 346 2 1.0280000000069398e+00 -1.8335007323829998e+02 1.0000000000000000e+00 3.3216902483453246e+01 4.6153547749180808e+00 3.4515237369871834e+01 
2281 2282 2 1.0280000000042389e+00 -5.2139248663708804e+02 1.0000000000000000e+00 3.1334123311728629e+01 5.5664566251521839e+00 3.4478928877556896e+01 
385 386 2 1.0279999999785867e+00 9.3142727359244122e+02 1.0000000000000000e+00 3.2411803029194409e+01 6.2235891305633988e+00 3.3657393119601096e+01 
342 343 2 1.0280000000309812e+00 -1.4810616432088248e+03 1.0000000000000000e+00 3.0726013598829550e+01 7.2507928409417426e+00 3.3982676712115655e+01 
429 430 2 1.0280000000549392e+00 -5.5263264253215630e+02 1.0000000000000000e+00 3.2872801869820435e+01 7.6467796629245148e+00 3.4296319063405186e+01 
1348 1349 2 1.0279999999914171e+00 -5.6724636033124716e+02 1.0000000000000000e+00 3.0230158449234157e+01 8.7641376267593252e+00 3.4335811830977768e+01 
1810 1811 2 1.0280000000112315e+00 -1.0032359084499764e+03 1.0000000000000000e+00 3.1443510593542058e+01 9.5156956121083649e+00 3.4474614484148823e+01 
3068 3069 2 1.0279999999999994e+00 -4.2118870687598167e+02 1.0000000000000000e+00 9.2241107346164846e+00 1.0701088879562088e+01 3.3921939126002513e+01 
2606 2607 2 1.0279999999999994e+00 4.0423761441232398e+02 1.0000000000000000e+00 9.6445120541866096e+00 1.1619876342366613e+01 3.4457163701443200e+01 
127 128 2 1.0279999998919240e+00 -5.3088748063547371e+02 1.0000000000000000e+00 3.2708731074926142e+01 1.9705105458721555e+00 3.5775839848340411e+01 
93 94 2 1.0279999999928247e+00 -1.8334932031556338e+02 1.0000000000000000e+00 3.3234013932375888e+01 4.6307363833893191e+00 3.5871978156381104e+01 
1861 1862 2 1.0280000000096243e+00 -5.2139084220733866e+02 1.0000000000000000e+00 3.1345504419688407e+01 5.5745797223721851e+00 3.5956172233351559e+01 
90 91 2 1.0279999999684781e+00 -1.4810609819045681e+03 1.0000000000000000e+00 3.0737916096379152e+01 7.2556703229070489e+00 3.6453764329755046e+01 
9 10 2 1.0280000000145162e+00 -5.5263759576827420e+02 1.0000000000000000e+00 3.2885339218010039e+01 7.6660674238186193e+00 3.6150390538251152e+01 
928 929 2 1.0280000000105098e+00 -5.6724651255904746e+02 1.0000000000000000e+00 3.0232472794978531e+01 8.7650213622695947e+00 3.6100796205333324e+01 
1390 1391 2 1.0279999999765046e+00 -1.0032361238408184e+03 1.0000000000000000e+00 3.1445914403265665e+01 9.5173822377648492e+00 3.5961287363951776e+01 
3993 3994 2 1.0279999999999996e+00 -5.3102991925172387e+02 1.0000000000000000e+00 1.5307810602340261e+01 1.6046624464402942e+01 3.5696712107254911e+01 
49 50 2 1.0279999999925347e+00 9.3142579553988230e+02 1.0000000000000000e+00 3.2428047821630145e+01 6.2328536748626844e+00 3.6771791739632704e+01 
509 510 2 1.0280000000530765e+00 -1.1628750076480262e+02 1.0000000000000000e+00 3.1699582094212033e+01 7.9087915482720526e+00 3.7232952247245890e+01 
3951 3952 2 1.0279999999999996e+00 3.7138966952751753e+02 1.0000000000000000e+00 1.5473936422108736e+01 1.6613248233918888e+01 3.6675850878463841e+01 
3991 3992 2 1.0279999999101337e+00 -6.2191499028215791e+00 1.0000000000000000e+00 3.1304859291597065e+01 1.5056821796181801e+00 3.9003315719517680e+01 
3529 3530 2 1.0280000000816976e+00 -4.5274183180610851e+02 1.0000000000000000e+00 3.1844758513591383e+01 2.5750050506000930e+00 3.9230868240080682e+01 
174 175 2 1.0279999999999931e+00 -7.7368607531306822e+01 1.0000000000000000e+00 2.8826534174086856e+01 3.9561969063180577e+01 3.9867650190334798e+00 
2609 2610 2 1.0279999999999989e+00 3.4962428052458881e+02 1.0000000000000000e+00 8.9533509320951552e+00 2.2938893039294239e+01 9.2596495296117407e+00 
2651 2652 2 1.0279999999999989e+00 -2.6938855423808138e+02 1.0000000000000000e+00 1.0017033824244468e+01 2.3071217543310674e+01 9.6576972001795056e+00 
3190 3191 2 1.0280000000000002e+00 1.2088135009752764e+02 1.0000000000000000e+00 3.3118988217445740e+01 2.2787006261417051e+01 9.1486842382684976e+00 
1308 1309 2 1.0279999999999996e+00 -5.8411815520803407e+02 1.0000000000000000e+00 1.8466272741258805e+01 3.1046995229737512e+01 8.9286700327160204e+00 
1352 1353 2 1.0279999999999996e+00 8.2070917454965524e+01 1.0000000000000000e+00 1.9410277588827569e+01 3.1475473557481145e+01 9.4109916970433005e+00 
2547 2548 2 1.0279999999999976e+00 -9.3136330712548079e+02 1.0000000000000000e+00 8.5774846863677823e-01 3.2513262079026823e+01 9.5064048650123780e+00 
1620 1621 2 1.0279999999999987e+00 2.8154097076844700e+03 1.0000000000000000e+00 1.3105760261217672e+01 2.1984643869812988e+01 1.1013242394143989e+01 
2085 2086 2 1.0279999999999987e+00 -9.3136323986372395e+02 1.0000000000000000e+00 1.4230985866154434e+01 2.2182758995959027e+01 1.0968624547427865e+01 
2855 2856 2 1.0279999999999996e+00 -2.9103569043096945e+02 1.0000000000000000e+00 2.3134436505296343e+01 2.6465154552645746e+01 1.4870757433590128e+01 
2897 2898 2 1.0279999999999996e+00 1.5519431662060293e+02 1.0000000000000000e+00 2.2177002983157156e+01 2.5841835586865596e+01 1.4917314227311948e+01 
1339 1340 2 1.0279999999999976e+00 -5.8389393559528935e+02 1.0000000000000000e+00 2.2149045913270484e+01 3.1536585519258349e+01 1.4668006895099076e+01 
759 760 2 1.0280000000000014e+00 -5.3102850801566319e+02 1.0000000000000000e+00 2.9668843227726285e+01 2.1892087090526495e+01 1.6356124771948799e+01 
1379 1380 2 1.0279999999999976e+00 8.1865276316312588e+01 1.0000000000000000e+00 2.1157213212590477e+01 3.1960653942885756e+01 1.5047225675492033e+01 
2525 2526 2 1.0279999999811600e+00 -1.3107351081052998e+03 1.0000000000000000e+00 3.1927068510042844e+01 3.6331794902276663e+01 1.5601611631006225e+01 
2989 2990 2 1.0280000000473091e+00 -2.5236885112174218e+02 1.0000000000000000e+00 3.0632307211806573e+01 3.7058046712680003e+01 1.5561812561352077e+01 
2987 2988 2 1.0280000000411487e+00 -5.0117047740267651e+02 1.0000000000000000e+00 3.3193614688470973e+01 3.6961029670408450e+01 1.5510516334516726e+01 
3912 3913 2 1.0279999999390175e+00 1.4222995771779542e+03 1.0000000000000000e+00 3.0371872667580728e+01 3.8449969933564169e+01 1.5523617268401868e+01 
2988 2989 2 1.0280000000239271e+00 -2.3367432446095756e+02 1.0000000000000000e+00 3.2196450247094894e+01 3.8575991852131182e+01 1.5506162050170014e+01 
1602 1603 2 1.0279999999627953e+00 -2.3367609967748416e+02 1.0000000000000000e+00 3.2183964955193119e+01 3.9874156594998205e+01 1.5493942729200219e+01 
717 718 2 1.0280000000000014e+00 3.7139637018274868e+02 1.0000000000000000e+00 2.9780810002510872e+01 2.1294854352423332e+01 1.7324705958706456e+01 
1597 1598 2 1.0280000001707073e+00 2.7768119866005754e+03 1.0000000000000000e+00 3.3150726581871531e+01 3.6706817017532650e+01 1.7696981577756258e+01 
2059 2060 2 1.0279999998416516e+00 3.6259690928623127e+02 1.0000000000000000e+00 3.2064413599559565e+01 3.7073715623258373e+01 1.7670013867497762e+01 
1513 1514 2 1.0279999999999940e+00 -9.2196768347123907e+02 1.0000000000000000e+00 1.9164637453137587e+01 3.1774974741964481e+01 2.1839424732863627e+01 
1093 1094 2 1.0279999999999940e+00 -4.6960539741306866e+02 1.0000000000000000e+00 2.0249656265182470e+01 3.2058770107307573e+01 2.2062062073795605e+01 
1377 1378 2 1.0279999999999987e+00 4.6473066129478616e+02 1.0000000000000000e+00 1.3067036984092107e+01 3.4041515157500172e+01 2.3332634839513251e+01 
1336 1337 2 1.0279999999999987e+00 -8.7700631657399526e+02 1.0000000000000000e+00 1.3397332189404947e+01 3.4592820329412184e+01 2.2386938956985912e+01 
2684 2685 2 1.0280000000000000e+00 -2.6939706032062054e+02 1.0000000000000000e+00 5.9888397167048648e+00 3.4271227577986807e+01 2.5590857540903226e+01 
2642 2643 2 1.0280000000000000e+00 3.4960557138406131e+02 1.0000000000000000e+00 7.0797227543681265e+00 3.4175641793095039e+01 2.5261903785302319e+01 
3276 3277 2 1.0280000000000016e+00 4.0393308552971837e+02 1.0000000000000000e+00 2.9991385200276319e+01 3.6420431568766219e+01 2.9738810233101063e+01 
3738 3739 2 1.0280000000000016e+00 3.5959913040766708e+02 1.0000000000000000e+00 3.0674999561940897e+01 3.6108267842951236e+01 2.8877068839021625e+01 
1431 1432 2 1.0280000000000011e+00 1.2082102956126897e+02 1.0000000000000000e+00 8.6153795269551861e+00 2.6231572873350686e+01 3.1414527442480384e+01 
506 507 2 1.0280000000000000e+00 4.3460416677257575e+02 1.0000000000000000e+00 4.2541311110731863e+00 3.1724150806456599e+01 3.0758139534921956e+01 
548 549 2 1.0280000000000000e+00 7.6189476557743717e+02 1.0000000000000000e+00 5.3084001331780284e+00 3.2074222023911815e+01 3.1028953104002721e+01 
1311 1312 2 1.0280000000000065e+00 -8.7698525760581720e+02 1.0000000000000000e+00 1.8945438987284110e+01 3.4149498629131621e+01 3.1313681436280095e+01 
507 508 2 1.0280000000000011e+00 7.3658070853847983e+02 1.0000000000000000e+00 7.5919839496796122e+00 2.5825270729908986e+01 3.1722672015864717e+01 
4079 4080 2 1.0279999999856451e+00 -1.1627522494601462e+02 1.0000000000000000e+00 3.2019861012207997e+01 3.0666906241767997e+01 3.3123149077611004e+01 
1354 1355 2 1.0280000000000065e+00 4.6524594603854030e+02 1.0000000000000000e+00 1.8952793424746773e+01 3.3402444787642295e+01 3.2179261870222753e+01 
758 759 2 1.0280000000000034e+00 -5.7627354521622328e+02 1.0000000000000000e+00 1.8329547553944945e+01 3.7836399142852599e+01 3.2050686588379598e+01 
296 297 2 1.0280000000000034e+00 -3.4657034823126435e+02 1.0000000000000000e+00 1.8993606406958875e+01 3.6906067974296157e+01 3.2080398101383025e+01 
4033 4034 2 1.0279999998228198e+00 -1.4462507191941863e+03 1.0000000000000000e+00 3.2894295971507937e+01 3.7802793376809795e+01 3.1832006402882900e+01 
3658 3659 2 1.0280000000031633e+00 -5.6721789724268615e+02 1.0000000000000000e+00 3.0715319125666486e+01 2.9812136841769249e+01 3.4324537688330494e+01 
3196 3197 2 1.0280000000061231e+00 -1.0032141358779276e+03 1.0000000000000000e+00 3.1919894214147963e+01 2.9069078227071650e+01 3.4473409131962477e+01 
4500 4501 2 1.0280000000123408e+00 -1.4810464255641641e+03 1.0000000000000000e+00 3.1076359797109255e+01 3.1348009537081740e+01 3.3941289469027915e+01 
4587 4588 2 1.0279999999934608e+00 -5.5263390618663607e+02 1.0000000000000000e+00 3.3135436586080068e+01 3.0898362665153147e+01 3.4243805947783500e+01 
2743 2744 2 1.0280000000093978e+00 -5.2139059823355933e+02 1.0000000000000000e+00 3.1624088590959694e+01 3.3064746117571488e+01 3.4430374228957625e+01 
4543 4544 2 1.0279999999977045e+00 9.3143495221906028e+02 1.0000000000000000e+00 3.2662569455631107e+01 3.2399530802455750e+01 3.3607240580200859e+01 
4453 4454 2 1.0279999999929681e+00 -5.3087723594374131e+02 1.0000000000000000e+00 3.2826502264871102e+01 3.7548230161197807e+01 3.4723538769817210e+01 
3238 3239 2 1.0279999999977703e+00 -5.6691096760290407e+02 1.0000000000000000e+00 3.0829919948736119e+01 2.9774306839192356e+01 3.6142641433913298e+01 
2776 2777 2 1.0279999999967477e+00 -1.0031952693975468e+03 1.0000000000000000e+00 3.2014836428143752e+01 2.9024896230886171e+01 3.5974169759471032e+01 
4248 4249 2 1.0279999999643579e+00 -1.4810147693247684e+03 1.0000000000000000e+00 3.1197622836061733e+01 3.1361728821500019e+01 3.6465088729748530e+01 
4167 4168 2 1.0279999999847040e+00 -5.5261565320161071e+02 1.0000000000000000e+00 3.3187387924904151e+01 3.0903525425791813e+01 3.6105725251690544e+01 
2323 2324 2 1.0279999999962672e+00 -5.2138765053443763e+02 1.0000000000000000e+00 3.1660844384637674e+01 3.3075179765971676e+01 3.5940140731231253e+01 
4285 4286 2 1.0279999999912834e+00 -5.3088603101089598e+02 1.0000000000000000e+00 3.2884837722190959e+01 3.7593163549074994e+01 3.5892625277204608e+01 
3743 3744 2 1.0280000000345078e+00 -1.1624760788781174e+02 1.0000000000000000e+00 3.2124737786884843e+01 3.0664407672786648e+01 3.7292899365120803e+01 
4207 4208 2 1.0280000000100704e+00 9.3144353614971169e+02 1.0000000000000000e+00 3.2726008928195107e+01 3.2422469198791305e+01 3.6758354226019556e+01 
3662 3663 2 1.0279999999676683e+00 8.2051523040997907e+01 1.0000000000000000e+00 3.3329758750911246e+01 2.9746244916468594e+01 3.9891342851200307e+01 
3618 3619 2 1.0280000000368068e+00 -5.8401950999998007e+02 1.0000000000000000e+00 3.2368879869600470e+01 3.0035530240956749e+01 3.9329268116516474e+01 
2691 2692 2 1.0280000000514262e+00 -5.0939360913262118e+02 1.0000000000000000e+00 3.2225082951816844e+01 3.9965838621551022e+01 3.9313670483715043e+01 
130 131 2 1.0279999999408538e+00 -1.0060804339153037e+03 1.0000000000000000e+00 3.5333271992688744e+01 2.2271753874675837e+00 2.3271655844878814e-01 
101 102 2 1.0280000001384921e+00 -2.7227381569279225e+02 1.0000000000000000e+00 4.5312107105204682e+01 3.0636947831254515e+00 1.0101103956646216e+00 
605 606 2 1.0279999998344285e+00 6.8325324582130534e+01 1.0000000000000000e+00 4.6803664734759508e+01 3.2370059970540090e+00 1.3276289535774721e+00 
567 568 2 1.0279999999205640e+00 -4.7910884252590017e+02 1.0000000000000000e+00 4.9342435269955047e+01 2.8711204379021735e+00 5.5322779386404730e-01 
568 569 2 1.0280000000956986e+00 -4.7914349138438013e+02 1.0000000000000000e+00 5.0784200866058654e+01 2.9197680135797208e+00 6.1925607649916647e-01 
614 615 2 1.0280000002227732e+00 6.8399547817717774e+01 1.0000000000000000e+00 5.3303912810587640e+01 3.1875511201132740e+00 1.2637256530806651e+00 
110 111 2 1.0279999998307432e+00 -2.7227803142084281e+02 1.0000000000000000e+00 5.4814234944411801e+01 2.9453091246089831e+00 9.5560239688825954e-01 
198 199 2 1.0280000000364529e+00 1.4935679991424863e+02 1.0000000000000000e+00 5.7084854415452234e+01 3.1250309897343493e+00 1.6234243290913641e+00 
637 638 2 1.0280000001396234e+00 4.8724263318150508e+02 1.0000000000000000e+00 4.0972554524001616e+01 4.7379889819919283e+00 6.8360912953066921e-01 
1062 1063 2 1.0279999999241267e+00 2.5437084445795057e+02 1.0000000000000000e+00 4.2555494090481467e+01 4.9776971123247309e+00 3.8249428852691558e-01 
520 521 2 1.0279999999336857e+00 -4.2095706338696823e+02 1.0000000000000000e+00 4.4203799140011967e+01 3.8293747528765345e+00 5.8211742029903968e-01 
1070 1071 2 1.0280000000790643e+00 4.3562533194681862e+02 1.0000000000000000e+00 4.8065952315614084e+01 3.4486306163491456e+00 1.8008587032720144e-01 
1073 1074 2 1.0279999999135310e+00 4.3573623349947513e+02 1.0000000000000000e+00 5.2060064352688897e+01 3.3918138229404340e+00 1.1697322804550057e-01 
531 532 2 1.0280000000875427e+00 -4.2095047867667358e+02 1.0000000000000000e+00 5.5899063063016861e+01 3.6850472542137211e+00 5.0712734927189462e-01 
1081 1082 2 1.0280000002015923e+00 2.5436838811733668e+02 1.0000000000000000e+00 5.7578440620974547e+01 4.8529306672752845e+00 2.8615486703682541e-01 
666 667 2 1.0279999998220271e+00 4.8724000045009871e+02 1.0000000000000000e+00 5.9136143332707725e+01 4.5569730058067632e+00 5.4275623446715482e-01 
622 623 2 1.0279999999842417e+00 4.7814783154199915e+02 1.0000000000000000e+00 6.0803260189654672e+01 4.8186864930964681e+00 1.1525903212475355e+00 
597 598 2 1.0280000000053369e+00 4.7812614481994734e+02 1.0000000000000000e+00 3.9309476273208531e+01 5.1086902562388108e+00 1.3854837190360652e+00 
1057 1058 2 1.0280000000174274e+00 -2.6454983367127079e+02 1.0000000000000000e+00 4.0051510678502694e+01 6.3754817371061634e+00 1.2066470979599506e+00 
563 564 2 1.0279999999759011e+00 -6.1257687677424474e+02 1.0000000000000000e+00 4.5951170868345315e+01 6.0188716639648225e+00 1.1735186153395112e+00 
607 608 2 1.0279999999637901e+00 2.0160958405878443e+01 1.0000000000000000e+00 4.7211858718238815e+01 5.0631377949048035e+00 1.0593696514892015e+00 
1071 1072 2 1.0279999998766352e+00 3.9403193687474345e+02 1.0000000000000000e+00 4.9495576188693128e+01 5.6454421275172795e+00 1.4177063869822857e+00 
1072 1073 2 1.0280000001297551e+00 3.9408298768025099e+02 1.0000000000000000e+00 5.0941476841833271e+01 5.6945990668297641e+00 1.4731611368348285e+00 
612 613 2 1.0279999999764011e+00 2.0150671998784905e+01 1.0000000000000000e+00 5.2959274963102388e+01 5.0535543253946296e+00 1.0216659195076514e+00 
572 573 2 1.0279999999825797e+00 -6.1258245804894773e+02 1.0000000000000000e+00 5.4255779021698771e+01 5.9369935815053667e+00 1.1055023452304675e+00 
1086 1087 2 1.0279999999894405e+00 -2.6455699971877982e+02 1.0000000000000000e+00 6.0090502375918661e+01 6.1603424401392841e+00 9.3426484599148385e-01 
2229 2230 2 1.0279999998676097e+00 -5.0936279341093962e+02 1.0000000000000000e+00 3.3428680490996797e+01 6.7849769717999129e+00 5.9499793270863111e-01 
1104 1105 2 1.0280000000564598e+00 1.3638313707957259e+03 1.0000000000000000e+00 4.3618616445573281e+01 7.7708058918240486e+00 1.5859196686043611e+00 
1117 1118 2 1.0279999999919351e+00 8.6278836699058786e+02 1.0000000000000000e+00 5.2247494529010275e+01 8.3130222733278956e+00 1.6387524550170556e+00 
1123 1124 2 1.0279999999388247e+00 1.3638180859027145e+03 1.0000000000000000e+00 5.6654805302863508e+01 7.6704907902159976e+00 1.5788054289133711e+00 
1082 1083 2 1.0280000000084750e+00 2.3467345639693917e+02 1.0000000000000000e+00 5.9692682639177562e+01 8.3257507703725313e+00 1.5327550802544239e+00 
1061 1062 2 1.0279999999984251e+00 2.3467118432353158e+02 1.0000000000000000e+00 4.0598203825492135e+01 8.4397163738555161e+00 1.5962491380567538e+00 
1103 1104 2 1.0279999999993887e+00 1.0730284659168244e+03 1.0000000000000000e+00 4.0724617210523164e+01 8.8845746874840525e+00 2.1375682762181855e-01 
1524 1525 2 1.0280000000263243e+00 -1.6090614523869795e+03 1.0000000000000000e+00 4.2306357474246155e+01 9.5750117457507198e+00 8.1995895709730682e-01 
1567 1568 2 1.0279999999306908e+00 9.8568423991401596e+02 1.0000000000000000e+00 4.4157840245644259e+01 8.8665947180744595e+00 8.8766237577361085e-01 
471 472 2 1.0279999999561589e+00 -2.0168009222599602e+02 1.0000000000000000e+00 4.6393777285240347e+01 9.1783480373123734e+00 1.0302147730425140e+00 
62 63 2 1.0280000000619467e+00 5.2016101328781843e+01 1.0000000000000000e+00 4.9425411181892215e+01 9.7782234360546241e+00 7.4476328857358920e-01 
65 66 2 1.0279999999870304e+00 5.2419322881556695e+01 1.0000000000000000e+00 5.0834010634220462e+01 9.9910595950917216e+00 7.8742847217788303e-01 
1537 1538 2 1.0279999999712759e+00 -1.3485795508449046e+03 1.0000000000000000e+00 5.2846963788504084e+01 9.2368287061061931e+00 1.0535712866975987e-01 
496 497 2 1.0280000000407885e+00 -2.0177533151916873e+02 1.0000000000000000e+00 5.4051772610575497e+01 9.1162514203731924e+00 1.0762901948071351e+00 
1584 1585 2 1.0280000001019323e+00 9.8569238845804080e+02 1.0000000000000000e+00 5.6158904579909631e+01 8.8133258172336415e+00 8.8620151397603519e-01 
1543 1544 2 1.0279999998908873e+00 -1.6090917008367801e+03 1.0000000000000000e+00 5.8036711340789353e+01 9.4976299561948032e+00 7.8227117403181823e-01 
1124 1125 2 1.0279999999306624e+00 1.0730351758032516e+03 1.0000000000000000e+00 5.9589836441864122e+01 8.7575906115636180e+00 1.5587719958717891e-01 
1851 1852 2 1.0280000000049043e+00 -7.4367437430433870e+02 1.0000000000000000e+00 3.8851105875738334e+01 1.1206059793066320e+01 8.5977348665523345e-01 
1520 1521 2 1.0280000000187739e+00 -9.3017988890823563e+02 1.0000000000000000e+00 4.0574490811597208e+01 1.1021403301188810e+01 6.0610348821992721e-01 
474 475 2 1.0279999999761311e+00 6.3068477013243715e+01 1.0000000000000000e+00 4.1716619650678638e+01 1.1105805654495802e+01 1.3806703259200419e+00 