LAMMPS data file via write_data, version 30 Jul 2016, timestep = 50000000

180 atoms
2 atom types

0.0000000000000000e+00 2.0000000000000000e+01 xlo xhi
0.0000000000000000e+00 2.0000000000000000e+01 ylo yhi
0.0000000000000000e+00 2.0000000000000000e+01 zlo zhi

Masses

1 3.896
2 4.31

Atoms # meso-molecular

1 1 2 3.4387207658793817e-01 0.0000000000000000e+00 1.0000000000000000e+00 5.8300000000000001e+00 2.8000000000000003e-01 1.3600000000000001e+00 
7 1 2 3.4387207658793817e-01 0.0000000000000000e+00 1.0000000000000000e+00 4.3300000000000001e+00 4.3200000000000003e+00 1.8300000000000001e+00 
13 1 2 3.4387207658793817e-01 0.0000000000000000e+00 1.0000000000000000e+00 4.2900000000000000e+00 7.6500000000000004e+00 1.2400000000000000e+00 
2 1 2 1.0279549317305132e+00 -1.4913900192414735e+02 1.0000000000000000e+00 4.9615575767434406e+00 2.0115157500017533e+00 5.6584016640431400e+00 
8 1 2 1.0280406481526609e+00 -1.3830772009230733e+02 1.0000000000000000e+00 5.1488338733334693e+00 2.8956196355571424e+00 5.8494865605602504e+00 
14 1 2 6.8774415317587634e-01 -9.1575811056071814e+01 1.0000000000000000e+00 4.8850000000000087e+00 8.3850000000007032e+00 4.5500000000000087e+00 
20 1 2 6.8774415317587634e-01 -9.1575811056071814e+01 1.0000000000000000e+00 4.8849999999999918e+00 8.3850000000007370e+00 4.5499999999999918e+00 
3 1 2 1.0279793531287866e+00 -1.4477490589375739e+02 1.0000000000000000e+00 4.8795955216022149e+00 1.8851515094953444e+00 6.3510845435819370e+00 
154 1 2 1.0280000000000273e+00 -1.1758461145777086e+02 1.0000000000000000e+00 1.8533453085611211e+00 3.4222881789432469e+00 7.9778080003877507e+00 
153 1 2 1.0280000000000273e+00 -1.1761592994681232e+02 1.0000000000000000e+00 1.8533453085611211e+00 3.4222881789432469e+00 7.9778080003877507e+00 
9 1 2 1.0280270004719132e+00 -5.4929646949940619e+01 1.0000000000000000e+00 5.2040555543088765e+00 2.7299369922382426e+00 6.5361280774974801e+00 
147 1 2 1.0280000000000273e+00 -9.5855780591941141e+01 1.0000000000000000e+00 1.0270648445890249e+00 2.5796235537162540e+00 8.2208820165004113e+00 
148 1 2 1.0280000000000273e+00 -9.5836401030345712e+01 1.0000000000000000e+00 1.0270648445890249e+00 2.5796235537162540e+00 8.2208820165004113e+00 
15 1 2 1.0280045496331855e+00 -8.7021024244856704e+01 1.0000000000000000e+00 6.1286371383275826e+00 7.6993555083577219e+00 8.7503059357670310e+00 
51 1 2 1.0279953776761166e+00 -8.2501991667565150e+01 1.0000000000000000e+00 6.1769731389063773e+00 7.7421607396344738e+00 8.7691814671608679e+00 
16 1 2 1.0279937444567546e+00 -8.6953069753724122e+01 1.0000000000000000e+00 5.3338083123120255e+00 8.3411469816800565e+00 9.3853187120902923e+00 
22 1 2 1.0280061852618592e+00 -8.1264805044861930e+01 1.0000000000000000e+00 5.3496900801744527e+00 8.3953099806053011e+00 9.3487253580024188e+00 
10 1 2 3.4387207658793817e-01 0.0000000000000000e+00 1.0000000000000000e+00 4.9100000000000001e+00 4.9500000000000002e+00 1.0760000000000000e+01 
17 1 2 1.0280000000581693e+00 -1.1132959120546744e+02 1.0000000000000000e+00 6.5210196997584857e+00 7.6569199844688489e+00 1.5448212676612050e+01 
53 1 2 1.0280000000591156e+00 -1.2603335866391555e+02 1.0000000000000000e+00 6.5451018221323105e+00 7.6680183286430248e+00 1.5439582667051226e+01 
19 1 2 6.8774415317587634e-01 -9.9370940215843490e+01 1.0000000000000000e+00 4.2899999999999840e+00 1.2864999999999968e+01 9.3000000000005378e-01 
25 1 2 6.8774415317587634e-01 -9.9370940215843490e+01 1.0000000000000000e+00 4.2900000000000160e+00 1.2865000000000032e+01 9.3000000000004979e-01 
31 1 2 3.4387207658793817e-01 0.0000000000000000e+00 1.0000000000000000e+00 4.0000000000000000e+00 1.7820000000000000e+01 8.5999999999999999e-01 
26 1 2 6.8774415317587634e-01 -9.8803957463630809e+01 1.0000000000000000e+00 6.4949999999999841e+00 1.3185000000000000e+01 4.6050000000000004e+00 
62 1 2 6.8774415317587634e-01 -9.8803957463630809e+01 1.0000000000000000e+00 6.4950000000000161e+00 1.3184999999999999e+01 4.6049999999999995e+00 
21 1 2 3.4387207658793817e-01 2.4356203182399172e-01 1.0000000000000000e+00 4.1217412412131624e+00 1.0685605396007379e+01 7.2093502531027962e+00 
33 1 2 1.0279930864681894e+00 -1.0813954574510599e+02 1.0000000000000000e+00 2.5247835063991606e+00 1.6511977575581636e+01 8.9180259847309191e+00 
34 1 2 1.0279930864681894e+00 -1.0919530434033916e+02 1.0000000000000000e+00 2.5247835063991606e+00 1.6511977575581636e+01 8.9180259847309191e+00 
70 1 2 1.0280011869351273e+00 -6.9012157697985856e+01 1.0000000000000000e+00 3.3472214725116696e+00 1.7261113331509105e+01 9.4252768027460991e+00 
35 1 2 1.0280061650897852e+00 -5.4114257426319469e+01 1.0000000000000000e+00 2.8024955902135420e+00 1.6806317042253777e+01 1.0444861288188505e+01 
4 1 2 1.0280051658501379e+00 -1.7129408652235534e+02 1.0000000000000000e+00 3.0071969641628677e+00 1.6950531767545474e+01 1.0441878044394308e+01 
28 1 2 6.8774415317587634e-01 -6.2968799004662245e+01 1.0000000000000000e+00 5.6347410980523804e+00 1.3560237672342213e+01 1.2190065279293528e+01 
29 1 2 6.8774415317587634e-01 -6.1674052874033379e+01 1.0000000000000000e+00 5.6347410980523795e+00 1.3560237672342211e+01 1.2190065279293592e+01 
23 1 2 3.4387207658793817e-01 1.3114468729520570e+00 1.0000000000000000e+00 5.5698924227000717e+00 1.1279691518445198e+01 1.4692092688721660e+01 
24 1 2 6.8774415317587634e-01 -8.3019803378957789e+01 1.0000000000000000e+00 5.0553675857655120e+00 1.2119926851457587e+01 1.7603881123009348e+01 
30 1 2 6.8774415317587634e-01 -8.3030796089173961e+01 1.0000000000000000e+00 5.0553675857655440e+00 1.2119926851457651e+01 1.7603881123009476e+01 
36 1 2 6.8774415317587634e-01 -9.1979795776206828e+01 1.0000000000000000e+00 5.1850000000000085e+00 1.8754999999999733e+01 1.7575000000000063e+01 
6 1 2 6.8774415317587634e-01 -9.1979795776206828e+01 1.0000000000000000e+00 5.1849999999999916e+00 1.8754999999999736e+01 1.7574999999999935e+01 
37 1 2 3.4387207658793817e-01 0.0000000000000000e+00 1.0000000000000000e+00 9.0299999999999994e+00 7.8000000000000003e-01 1.0100000000000000e+00 
73 1 2 1.0280000049773206e+00 -8.7864365305374278e+01 1.0000000000000000e+00 1.2822338463356619e+01 3.3012479471466771e+00 1.0750281656601715e+00 
79 1 2 1.0280000317926827e+00 -9.8542647727301386e+01 1.0000000000000000e+00 1.2801539606755332e+01 3.4077064107959671e+00 1.0844157499224691e+00 
115 1 2 1.0280000343042213e+00 -8.6500350721694488e+01 1.0000000000000000e+00 1.2901872460542675e+01 3.3738692696154780e+00 1.0590721645453547e+00 
43 1 2 3.4387207658793817e-01 3.2831290691506788e-02 1.0000000000000000e+00 7.9514853274058757e+00 4.0671908384679147e+00 1.2740778573033582e+00 
85 1 2 3.4387207658793817e-01 0.0000000000000000e+00 1.0000000000000000e+00 1.1340000000000000e+01 7.1900000000000004e+00 5.4000000000000004e-01 
74 1 2 3.4387207658793817e-01 1.1365685869488378e-02 1.0000000000000000e+00 1.1500211450639739e+01 1.1903779908343484e+00 3.7488045548657043e+00 
49 1 2 1.0277542014883525e+00 -9.6270039287959023e+01 1.0000000000000000e+00 8.6218574975775564e+00 8.7087794253166724e+00 2.4667476708609040e+00 
50 1 2 1.0280768830820051e+00 -1.5448531241626833e+02 1.0000000000000000e+00 8.1686163892295234e+00 8.8927884470776597e+00 3.0500968506530040e+00 
56 1 2 1.0281914088591519e+00 -7.8374976438442630e+01 1.0000000000000000e+00 8.7535506854890350e+00 9.5243840243267179e+00 3.2656848056529624e+00 
86 1 2 1.0279775631218937e+00 -1.2583796300370538e+02 1.0000000000000000e+00 9.2819767593643476e+00 9.1273058232050452e+00 2.8897477599358918e+00 
38 1 2 6.8774415317587634e-01 -1.0038749071924839e+02 1.0000000000000000e+00 7.8796279696812634e+00 2.7614117507789002e+00 4.1400576948336161e+00 
44 1 2 6.8774415317587634e-01 -1.0079073781107969e+02 1.0000000000000000e+00 7.8796279696812954e+00 2.7614117507789162e+00 4.1400576948335841e+00 
45 1 2 1.0292044668992364e+00 -1.0090267969448568e+02 1.0000000000000000e+00 9.9161143113160417e+00 4.6085425298195331e+00 5.5560222465107207e+00 
81 1 2 1.0292044668992364e+00 -1.0146118991876587e+02 1.0000000000000000e+00 9.9161143113160417e+00 4.6085425298195331e+00 5.5560222465107207e+00 
75 1 2 1.0267927040346583e+00 -9.9140271708882906e+01 1.0000000000000000e+00 9.8523761580793288e+00 4.5592349058585393e+00 5.6526056852805269e+00 
39 1 2 3.4387207658793817e-01 8.2352466156048854e-01 1.0000000000000000e+00 7.9906237348162117e+00 3.1188805249767637e-01 6.7321348578631000e+00 
117 1 2 1.0280008535306537e+00 -1.0606428691239162e+02 1.0000000000000000e+00 1.2079771596523026e+01 4.4837541622131294e-01 8.3697050221624796e+00 
111 1 2 1.0280001991360139e+00 -1.2618446966891179e+02 1.0000000000000000e+00 1.2067280722260179e+01 4.3357661297803413e-01 8.3769034134899076e+00 
112 1 2 1.0280002339120198e+00 -1.2287410480628320e+02 1.0000000000000000e+00 1.1951627483843231e+01 1.0370302394333324e+00 9.4131710786852523e+00 
118 1 2 1.0279987136228235e+00 -5.3983725295215010e+01 1.0000000000000000e+00 1.1966213856484647e+01 1.0494298247690641e+00 9.4075863201064447e+00 
57 1 2 1.0279408220672632e+00 -9.5453776504892787e+01 1.0000000000000000e+00 9.3440116531540145e+00 9.8986791068573527e+00 8.6035305369424844e+00 
52 1 2 1.0280861011534930e+00 -7.7781274634616125e+01 1.0000000000000000e+00 9.1364522993442208e+00 9.0072313924332672e+00 9.8113302784051442e+00 
58 1 2 1.0280858190046225e+00 -1.3418783906254214e+02 1.0000000000000000e+00 9.1374453699671054e+00 9.0383102173658152e+00 9.8438051417824042e+00 
93 1 2 1.0279668477237687e+00 -1.4155580764879414e+02 1.0000000000000000e+00 9.8105535085054427e+00 9.9155873346963901e+00 8.6068483108927385e+00 
94 1 2 1.0279559934851668e+00 -1.2624126966984532e+02 1.0000000000000000e+00 1.0123536407949427e+01 9.7841329116956697e+00 9.5630442331301246e+00 
41 1 2 1.0276433131562897e+00 -1.2027971450143016e+02 1.0000000000000000e+00 7.0661536978288337e+00 1.7251392673855181e+00 1.1968345181543382e+01 
5 1 2 1.0276417576169823e+00 -1.3579297190309057e+02 1.0000000000000000e+00 7.0661407378682766e+00 1.7251206832161972e+00 1.1968346443436513e+01 
12 1 2 1.0283899233634641e+00 -5.3292603749829432e+01 1.0000000000000000e+00 7.7236482155441823e+00 1.6137901462560282e+00 1.2974668119519086e+01 
47 1 2 1.0283448407351357e+00 -1.7707228674534258e+02 1.0000000000000000e+00 7.6761736757566155e+00 1.5546611824949557e+00 1.2992653837636565e+01 
40 1 2 1.0278256830249222e+00 -1.0984243421391554e+02 1.0000000000000000e+00 9.6239183780570663e+00 3.2911740009953028e+00 1.2334337664614425e+01 
46 1 2 1.0278256830249222e+00 -1.1173896187899743e+02 1.0000000000000000e+00 9.6239183780570663e+00 3.2911740009953028e+00 1.2334337664614425e+01 
82 1 2 1.0280446496544302e+00 -1.8145342416395948e+02 1.0000000000000000e+00 1.0690917328019575e+01 3.3333242281183706e+00 1.2926154622444404e+01 
76 1 2 1.0281463644390263e+00 -1.7347397284874370e+02 1.0000000000000000e+00 1.0334333786144086e+01 4.5011852495669151e+00 1.3088234100511642e+01 
83 1 2 1.0281244538612120e+00 -5.1162353178131823e+01 1.0000000000000000e+00 1.0534616572895464e+01 4.4371045108245273e+00 1.3109403393705406e+01 
88 1 2 6.8774415317587634e-01 -6.6201341088547352e+01 1.0000000000000000e+00 1.0858685128687540e+01 7.6779280967794437e+00 1.2164496912172174e+01 
89 1 2 6.8774415317587634e-01 -6.6705638292770956e+01 1.0000000000000000e+00 1.0858685128687604e+01 7.6779280967794445e+00 1.2164496912172238e+01 
84 1 2 3.4387207658793817e-01 1.6040951350429661e-01 1.0000000000000000e+00 1.0795999523816834e+01 4.4156398846521849e+00 1.7955220267854358e+01 
54 1 2 1.0280000000184650e+00 -1.4328714570731088e+02 1.0000000000000000e+00 6.7994427737028040e+00 7.2985588929667005e+00 1.6556494184043704e+01 
18 1 2 1.0279999999226863e+00 -1.2703232028056652e+02 1.0000000000000000e+00 6.9004672056351870e+00 8.4653811186985912e+00 1.6816276173302498e+01 
60 1 2 1.0279999999229004e+00 -8.5673750127549866e+01 1.0000000000000000e+00 6.9136294508424827e+00 8.4685262161968407e+00 1.6808856218625479e+01 
96 1 2 3.4387207658793817e-01 7.0252987576942846e-04 1.0000000000000000e+00 1.1710015757214180e+01 9.6200126096651655e+00 1.7089995667419696e+01 
91 1 2 3.4387207658793817e-01 0.0000000000000000e+00 1.0000000000000000e+00 1.1940000000000000e+01 1.1000000000000000e+01 1.0000000000000001e-01 
61 1 2 1.0280000000000480e+00 -1.3790635145352550e+02 1.0000000000000000e+00 9.0189501493047892e+00 1.2564737355415760e+01 7.0007765090335894e-01 
55 1 2 1.0279999999998721e+00 -1.3889873496207028e+02 1.0000000000000000e+00 9.0657853728518472e+00 1.2475241958225112e+01 7.4071221174416479e-01 
97 1 2 1.0279999999999494e+00 -8.1437630396371532e+01 1.0000000000000000e+00 8.9652644773751913e+00 1.2470020789303749e+01 6.9921015413187637e-01 
67 1 2 6.8774415317587634e-01 -1.0215578374355719e+02 1.0000000000000000e+00 7.8030719868824105e+00 1.6201099955732257e+01 2.2659485927166974e+00 
68 1 2 6.8774415317587634e-01 -1.0192229065375165e+02 1.0000000000000000e+00 7.8030719868824425e+00 1.6201099955732385e+01 2.2659485927167058e+00 
103 1 2 6.8774415317587634e-01 -9.2172174274633988e+01 1.0000000000000000e+00 1.1459999999999999e+01 1.6850000000000065e+01 2.8299999999999783e+00 
104 1 2 6.8774415317587634e-01 -9.2172174274633988e+01 1.0000000000000000e+00 1.1460000000000001e+01 1.6849999999999937e+01 2.8299999999999867e+00 
128 1 2 6.8774415317587634e-01 -9.9210387155828371e+01 1.0000000000000000e+00 1.2799864831803259e+01 1.0371052644863319e+01 4.1298761530808807e+00 
92 1 2 6.8774415317587634e-01 -9.9191528685881551e+01 1.0000000000000000e+00 1.2799864831803257e+01 1.0371052644863321e+01 4.1298761530808816e+00 
98 1 2 3.4387207658793817e-01 1.8858469945181568e-02 1.0000000000000000e+00 1.1660270336393525e+01 1.3527894710274071e+01 4.5502476938382133e+00 
69 1 2 6.8774415317587634e-01 -1.0121054376849887e+02 1.0000000000000000e+00 6.7992323818876557e+00 1.7326852387316166e+01 5.7731800120610517e+00 
32 1 2 6.8774415317587634e-01 -1.0160328695250433e+02 1.0000000000000000e+00 6.7992323818876388e+00 1.7326852387316162e+01 5.7731800120610348e+00 
63 1 2 6.8774415317587634e-01 -9.1286117099507265e+01 1.0000000000000000e+00 7.1469138889439856e+00 1.4193592497285421e+01 7.7008503501037335e+00 
27 1 2 6.8774415317587634e-01 -9.0220787106786659e+01 1.0000000000000000e+00 7.1469138889440336e+00 1.4193592497285380e+01 7.7008503501037424e+00 
99 1 2 3.4387207658793817e-01 1.3320188399262256e+00 1.0000000000000000e+00 1.2415065576154706e+01 1.3280002581834060e+01 8.0869774359397937e+00 
105 1 2 1.0280000207522524e+00 -1.0413233356829747e+02 1.0000000000000000e+00 1.0996674262162916e+01 1.7888692195425747e+01 9.2994850626373218e+00 
106 1 2 1.0280000207522524e+00 -1.0236550834499583e+02 1.0000000000000000e+00 1.0996674262162916e+01 1.7888692195425747e+01 9.2994850626373218e+00 
100 1 2 1.0279992713913155e+00 -1.1017504681318991e+02 1.0000000000000000e+00 1.0293398883644924e+01 1.4066293770259058e+01 1.1560157853085645e+01 
101 1 2 1.0280007284143426e+00 -8.4667608729910441e+01 1.0000000000000000e+00 1.0293379912830837e+01 1.4061414469357134e+01 1.1565345785796547e+01 
65 1 2 1.0279993467649817e+00 -1.0838285241202627e+02 1.0000000000000000e+00 9.0962189957217650e+00 1.4167303531704572e+01 1.1651843041646904e+01 
64 1 2 1.0280006530293697e+00 -1.0255289723081336e+02 1.0000000000000000e+00 9.0964806235882030e+00 1.4164439812226222e+01 1.1658358659929670e+01 
42 1 2 1.0279999554111985e+00 -1.3652409909186784e+02 1.0000000000000000e+00 1.0580728674781614e+01 1.7541187348043298e+01 1.0371007597042839e+01 
48 1 2 1.0280000159422962e+00 -1.9442649678717999e+02 1.0000000000000000e+00 1.0247680423189543e+01 1.8686509110754933e+01 1.0509378369503885e+01 
11 1 2 1.0280000159396738e+00 -6.0388164318691395e+01 1.0000000000000000e+00 1.0247561042930633e+01 1.8686523254461104e+01 1.0509266736784580e+01 
95 1 2 6.8774415317587634e-01 -7.3767434269124664e+01 1.0000000000000000e+00 9.9191937855748176e+00 1.1049701914972813e+01 1.4284220464265985e+01 
59 1 2 6.8774415317587634e-01 -7.5600627244747045e+01 1.0000000000000000e+00 9.9191937855747536e+00 1.1049701914972811e+01 1.4284220464265987e+01 
102 1 2 3.4387207658793817e-01 3.4105823179379885e-01 1.0000000000000000e+00 1.1256384201536703e+01 1.3516509179750450e+01 1.6178393065172855e+01 
66 1 2 6.8774415317587634e-01 -9.8736383813835815e+01 1.0000000000000000e+00 8.5118078992312629e+00 1.4986745410124856e+01 1.7125803467412727e+01 
72 1 2 6.8774415317587634e-01 -9.9077442045623414e+01 1.0000000000000000e+00 8.5118078992311990e+00 1.4986745410124920e+01 1.7125803467412855e+01 
145 1 2 3.4387207658793817e-01 0.0000000000000000e+00 1.0000000000000000e+00 1.7899999999999999e+01 1.4099999999999999e+00 0.0000000000000000e+00 
151 1 2 3.4387207658793817e-01 0.0000000000000000e+00 1.0000000000000000e+00 1.7460000000000001e+01 3.7500000000000000e+00 1.9299999999999999e+00 
157 1 2 3.4387207658793817e-01 0.0000000000000000e+00 1.0000000000000000e+00 1.8500000000000000e+01 6.8799999999999999e+00 9.2000000000000004e-01 
121 1 2 1.0279999999996761e+00 -9.8447033971371582e+01 1.0000000000000000e+00 1.5660961675098667e+01 8.9120991027514247e+00 4.1437298348912749e-01 
127 1 2 1.0280000000000649e+00 -1.5037742962754297e+02 1.0000000000000000e+00 1.5615235872186629e+01 9.0107520927344549e+00 4.0881687572925735e-01 
163 1 2 1.0279999999998439e+00 -1.1743433947717506e+02 1.0000000000000000e+00 1.5722609542202495e+01 9.0013047892272624e+00 4.2417185083980435e-01 
146 1 2 3.4387207658793817e-01 0.0000000000000000e+00 1.0000000000000000e+00 1.8500000000000000e+01 6.3000000000000000e-01 4.7100000000000000e+00 
110 1 2 1.0280000000002321e+00 -1.3033630619423397e+02 1.0000000000000000e+00 1.4119737699171562e+01 3.3177213745255303e+00 4.3913799642119562e+00 
116 1 2 1.0280000000000311e+00 -1.2822635078939800e+02 1.0000000000000000e+00 1.4163515110599711e+01 3.4173347233509399e+00 4.3952336379441892e+00 
80 1 2 1.0280000000000049e+00 -7.7877343349897330e+01 1.0000000000000000e+00 1.4057282214439473e+01 3.4037619588669235e+00 4.4148418927353985e+00 
122 1 2 3.4387207658793817e-01 6.0502261682891623e-01 1.0000000000000000e+00 1.4154583328851654e+01 6.9759202021763027e+00 4.2570181048471074e+00 
152 1 2 6.8774415317587634e-01 -8.5253318472211944e+01 1.0000000000000000e+00 1.7122262340938804e+01 6.0126455604277522e+00 4.3210014732942179e+00 
158 1 2 6.8774415317587634e-01 -8.6765521291783728e+01 1.0000000000000000e+00 1.7122262340938676e+01 6.0126455604277842e+00 4.3210014732941859e+00 
164 1 2 3.4387207658793817e-01 0.0000000000000000e+00 1.0000000000000000e+00 1.8340000000000000e+01 9.6300000000000008e+00 4.4699999999999998e+00 
123 1 2 1.0279999999997471e+00 -1.4618625991026377e+02 1.0000000000000000e+00 1.3732207558771877e+01 8.3835441749381641e+00 7.1966200559922937e+00 
129 1 2 1.0279999999994416e+00 -1.3424411686301636e+02 1.0000000000000000e+00 1.3697664739826335e+01 8.4800302839665633e+00 7.1598592583459171e+00 
87 1 2 1.0279999999998275e+00 -8.9452341078904482e+01 1.0000000000000000e+00 1.3634924436249369e+01 8.3917853110804987e+00 7.1484307463421146e+00 
159 1 2 1.0279999999999974e+00 -8.7486136721605035e+01 1.0000000000000000e+00 1.7131855968016083e+01 7.4055999002826942e+00 9.5177557110471582e+00 
160 1 2 1.0280000000000413e+00 -1.2985683480298195e+02 1.0000000000000000e+00 1.7129316413349965e+01 7.4395878102402104e+00 9.6211602779504855e+00 
124 1 2 1.0280000000000395e+00 -1.1662561276926829e+02 1.0000000000000000e+00 1.7038212677669755e+01 7.4040698033483823e+00 9.5732780020134260e+00 
119 1 2 6.8774415317587634e-01 -8.5823508206644732e+01 1.0000000000000000e+00 1.4834999999999999e+01 2.6700000000000004e+00 1.3829999999999968e+01 
113 1 2 6.8774415317587634e-01 -8.5823508206644732e+01 1.0000000000000000e+00 1.4835000000000001e+01 2.6699999999999844e+00 1.3830000000000032e+01 
125 1 2 3.4387207658793817e-01 1.5546914798337721e-03 1.0000000000000000e+00 1.5080023631375473e+01 7.3899967085934621e+00 1.3189868901437119e+01 
167 1 2 1.0279999999998339e+00 -1.2141682047880896e+02 1.0000000000000000e+00 1.7629406206905703e+01 9.8358827055061742e+00 1.2839339418464636e+01 
161 1 2 1.0279999999998877e+00 -8.9076199853372287e+01 1.0000000000000000e+00 1.7634525800359636e+01 9.7313132709301478e+00 1.2809453720649048e+01 
166 1 2 1.0280000000000151e+00 -1.0560283995192763e+02 1.0000000000000000e+00 1.7591596583908931e+01 9.8051805386800286e+00 1.2741964158881965e+01 
149 1 2 6.8774415317587634e-01 -1.0083875546490694e+02 1.0000000000000000e+00 1.8139936931245444e+01 1.9944704979931890e-01 1.5489665624454636e+01 
150 1 2 6.8774415317587634e-01 -1.0089068102320715e+02 1.0000000000000000e+00 1.8139936931245316e+01 1.9944704979931893e-01 1.5489665624454638e+01 
155 1 2 3.4387207658793817e-01 0.0000000000000000e+00 1.0000000000000000e+00 1.6930000000000000e+01 4.9500000000000002e+00 1.4460000000000001e+01 
120 1 2 1.0280000000000460e+00 -1.2901515997117355e+02 1.0000000000000000e+00 1.3667776505072833e+01 5.9135270289666781e+00 1.7360810244386116e+01 
156 1 2 3.4387207658793817e-01 0.0000000000000000e+00 1.0000000000000000e+00 1.8379999999999999e+01 4.6200000000000001e+00 1.7949999999999999e+01 
126 1 2 1.0280000000000804e+00 -9.5935347763734740e+01 1.0000000000000000e+00 1.3704017798014997e+01 6.0120560787454114e+00 1.7389667251385450e+01 
90 1 2 1.0280000000000462e+00 -1.1099135080141353e+02 1.0000000000000000e+00 1.3603077510176972e+01 6.0004900619340829e+00 1.7350533923343040e+01 
162 1 2 3.4387207658793817e-01 3.0235878984881230e+00 1.0000000000000000e+00 1.6724713696460871e+01 7.2596137646850298e+00 1.7590001788203502e+01 
109 1 2 1.0267982095974202e+00 -5.1945114440873667e+01 1.0000000000000000e+00 1.3379444433004766e+01 5.2310127986525978e-01 1.9658357990891695e+01 
114 1 2 1.0292072196806172e+00 -1.4368344197320488e+02 1.0000000000000000e+00 1.3374276568032290e+01 6.1455569398490584e-01 1.9744459269223672e+01 
78 1 2 1.0292072196806172e+00 -1.4368344197320508e+02 1.0000000000000000e+00 1.3374276568032290e+01 6.1455569398490584e-01 1.9744459269223672e+01 
133 1 2 1.0289100055157832e+00 -5.3234585073460387e+01 1.0000000000000000e+00 1.4979263131440190e+01 1.4561013723486175e+01 4.8926827199055684e-01 
139 1 2 1.0279809315868023e+00 -1.2682722053351149e+02 1.0000000000000000e+00 1.5809457125102011e+01 1.5297820947101890e+01 9.4039165275702241e-01 
175 1 2 1.0279809315868023e+00 -1.2683855742994818e+02 1.0000000000000000e+00 1.5809457125102011e+01 1.5297820947101890e+01 9.4039165275702241e-01 
170 1 2 6.8774415317587634e-01 -9.9342968897738842e+01 1.0000000000000000e+00 1.8249630983658001e+01 1.3885744374046853e+01 2.5400182540650871e+00 
169 1 2 6.8774415317587634e-01 -9.9330396859987161e+01 1.0000000000000000e+00 1.8249630983658005e+01 1.3885744374046917e+01 2.5400182540650711e+00 
140 1 2 6.8774415317587634e-01 -8.0509448920103551e+01 1.0000000000000000e+00 1.4889865930924854e+01 1.5075145526020183e+01 3.8105706183929353e+00 
134 1 2 6.8774415317587634e-01 -8.0479999178800696e+01 1.0000000000000000e+00 1.4889865930924852e+01 1.5075145526020181e+01 3.8105706183929513e+00 
165 1 2 3.4387207658793817e-01 0.0000000000000000e+00 1.0000000000000000e+00 1.7340000000000000e+01 1.0990000000000000e+01 7.5099999999999998e+00 
135 1 2 1.0280000000135321e+00 -9.4765784918602151e+01 1.0000000000000000e+00 1.5955380994921088e+01 1.5345075589492831e+01 6.8158488597801554e+00 
141 1 2 1.0280000000136367e+00 -9.5070335521011344e+01 1.0000000000000000e+00 1.5955380994893387e+01 1.5345075589627156e+01 6.8158488597953308e+00 
171 1 2 1.0279999999811489e+00 -9.1431386082283453e+01 1.0000000000000000e+00 1.7134894583399873e+01 1.5130006049228218e+01 6.7490075434208352e+00 
176 1 2 1.0280000000058525e+00 -1.4353931468593476e+02 1.0000000000000000e+00 1.7176878113263889e+01 1.6081386072065747e+01 6.0212020832836171e+00 
177 1 2 1.0280000000034715e+00 -1.4277518159537013e+02 1.0000000000000000e+00 1.7169823348007416e+01 1.6087576382057012e+01 6.0217427387592570e+00 
130 1 2 3.4387207658793817e-01 4.6375890688602994e-01 1.0000000000000000e+00 1.3717573338426224e+01 1.1075945208941613e+01 1.0234511780325692e+01 
172 1 2 1.0279987109744773e+00 -9.6832869002773620e+01 1.0000000000000000e+00 1.6947764113478744e+01 1.3258367467382318e+01 1.1954820180566941e+01 
136 1 2 1.0280012876736997e+00 -1.1370718343112003e+02 1.0000000000000000e+00 1.6954390775750543e+01 1.3258674680740716e+01 1.1956018855364306e+01 
142 1 2 1.0280000000003358e+00 -9.9086896169518255e+01 1.0000000000000000e+00 1.6932570340530319e+01 1.7473270389018758e+01 1.1307886907920960e+01 
178 1 2 1.0280000000001221e+00 -1.3755158943138989e+02 1.0000000000000000e+00 1.7036796310050061e+01 1.7460177811875138e+01 1.1279257141630701e+01 
179 1 2 1.0280000000000873e+00 -1.0965868890864458e+02 1.0000000000000000e+00 1.7010764803822028e+01 1.7477657832301304e+01 1.1383520948330144e+01 
131 1 2 3.4387207658793817e-01 2.7299215361724549e-01 1.0000000000000000e+00 1.4721229555853286e+01 1.0596063477097847e+01 1.3481891505615856e+01 
173 1 2 1.0280020567630122e+00 -1.3161459895184757e+02 1.0000000000000000e+00 1.6739898287022612e+01 1.3283027984881040e+01 1.3141442097223823e+01 
137 1 2 1.0279979421385983e+00 -1.3137470646312275e+02 1.0000000000000000e+00 1.6733318318134749e+01 1.3282136307672973e+01 1.3140279365091043e+01 
143 1 2 6.8774415317587634e-01 -9.4823760298418421e+01 1.0000000000000000e+00 1.6335002845737705e+01 1.6394975533190788e+01 1.5274999399259276e+01 
180 1 2 6.8774415317587634e-01 -9.4823786414864742e+01 1.0000000000000000e+00 1.6335002845737773e+01 1.6394975533190870e+01 1.5274999399259340e+01 
168 1 2 3.4387207658793817e-01 0.0000000000000000e+00 1.0000000000000000e+00 1.8609999999999999e+01 1.0390000000000001e+01 1.7460000000000001e+01 
174 1 2 1.0279999999985818e+00 -8.6383052485240910e+01 1.0000000000000000e+00 1.5195414565274891e+01 1.2770912528864278e+01 1.7124529729312805e+01 
132 1 2 1.0279999999986609e+00 -1.1077545464591347e+02 1.0000000000000000e+00 1.5126402271179403e+01 1.2695443897316515e+01 1.7087167706659180e+01 
138 1 2 1.0279999999981990e+00 -1.2608401446927020e+02 1.0000000000000000e+00 1.5088164358899254e+01 1.2783630735487330e+01 1.7138305515188573e+01 
71 1 2 1.0267926827961598e+00 -9.0147699861500556e+01 1.0000000000000000e+00 1.5360322075286362e+01 1.9609876346561371e+01 1.7473644624410721e+01 
77 1 2 1.0292044562799871e+00 -1.4789540123045128e+02 1.0000000000000000e+00 1.5477388076745861e+01 1.9655317734737437e+01 1.7466374411402111e+01 
107 1 2 1.0292044562799871e+00 -1.4790524887144042e+02 1.0000000000000000e+00 1.5477388076745861e+01 1.9655317734737437e+01 1.7466374411402111e+01 
144 1 2 1.0272973465177513e+00 -1.3225301742037104e+02 1.0000000000000000e+00 1.4739683425128389e+01 1.5448401126671099e+01 1.9715764386171578e+01 
108 1 2 1.0272973465177513e+00 -1.3225301742037095e+02 1.0000000000000000e+00 1.4739683425128389e+01 1.5448401126671099e+01 1.9715764386171578e+01 

Velocities

1 0.0000000000000000e+00 0.0000000000000000e+00 0.0000000000000000e+00
7 0.0000000000000000e+00 0.0000000000000000e+00 0.0000000000000000e+00
13 0.0000000000000000e+00 0.0000000000000000e+00 0.0000000000000000e+00
2 -8.3036773365220356e-05 -5.9708194730416638e-05 5.9652917843274280e-04
8 -1.3170791125736791e-04 -1.8988553707261177e-04 -5.9358001875930478e-04
14 -1.4403682951354016e-12 2.8807365902708032e-12 -1.4403682951354016e-12
20 1.4403682951354016e-12 -2.8807365902708032e-12 1.4403682951354016e-12
3 4.2708505658085287e-05 7.1658782046374271e-05 -8.2486469431373934e-04
154 -1.4902822198385261e-13 -1.5198327474830313e-13 4.3840911162458172e-14
153 -1.4902822198385261e-13 -1.5198327474830313e-13 4.3840911162458172e-14
9 1.7203617894826734e-04 1.7793494973497771e-04 8.2191553473521324e-04
147 1.4902822198385261e-13 1.5198327474830313e-13 -4.3840911162458172e-14
148 1.4902822198385261e-13 1.5198327474830313e-13 -4.3840911162458172e-14
15 -1.8264695796838890e-04 1.6593783244490823e-04 1.3932524601931371e-04
51 2.0034861940745701e-04 -1.3963464575487134e-04 -1.4734230345408961e-04
16 -2.6438922492863476e-04 1.9076428840791892e-04 1.9536229535424467e-04
22 2.4668756348905754e-04 -2.1706747509978914e-04 -1.8734523791936940e-04
10 0.0000000000000000e+00 0.0000000000000000e+00 0.0000000000000000e+00
17 7.0669217305557656e-11 -9.2619904346530847e-11 1.9389562596104783e-10
53 1.6410773944279756e-11 -1.1700454581484369e-10 2.1152948360368350e-10
19 2.7655196836426831e-12 5.5310393672853661e-12 -3.4568996045533538e-13
25 -2.7655196836426831e-12 -5.5310393672853661e-12 3.4568996045533538e-13
31 0.0000000000000000e+00 0.0000000000000000e+00 0.0000000000000000e+00
26 2.7655196836426827e-12 -1.5161880324019947e-13 -7.5809401620099735e-14
62 -2.7655196836426827e-12 1.5161880324019947e-13 7.5809401620099735e-14
21 4.9406564584124654e-324 -4.9406564584124654e-324 4.9406564584124654e-324
33 -2.7850884520010373e-05 -2.5457758720868163e-05 -2.5892915722515579e-05
34 -2.7850884520010373e-05 -2.5457758720868163e-05 -2.5892915722515579e-05
70 1.6471467075285799e-05 1.6513722057102243e-05 1.0586489580275432e-04
35 5.0478504634475151e-05 3.8688190533450860e-05 -3.1430355623486099e-05
4 -1.1248202670153593e-05 -4.2863951494988671e-06 -2.2648708732687712e-05
28 -7.5809401620100240e-14 -1.5161880324020048e-13 5.5310393672853637e-12
29 7.5809401620100240e-14 1.5161880324020048e-13 -5.5310393672853637e-12
23 -4.9406564584124654e-324 4.9406564584124654e-324 4.9406564584124654e-324
24 2.7655196836426899e-12 5.5310393672853799e-12 1.1062078734570760e-11
30 -2.7655196836426899e-12 -5.5310393672853799e-12 -1.1062078734570760e-11
36 -1.4403682951354258e-12 3.0323760648040475e-13 -1.1062078734570756e-11
6 1.4403682951354258e-12 -3.0323760648040475e-13 1.1062078734570756e-11
37 0.0000000000000000e+00 0.0000000000000000e+00 0.0000000000000000e+00
73 -7.3123976048847258e-07 -2.1411084679035572e-06 8.5449532225960621e-08
79 -2.0322390361881276e-06 1.8533554256102435e-06 5.6188632773041570e-07
115 2.7634662500221695e-06 2.8774972542644348e-07 -6.4733438568747654e-07
43 -9.8813129168249309e-324 -9.8813129168249309e-324 9.8813129168249309e-324