LAMMPS data file via write_data, version 30 Jul 2016, timestep = 50000000

180 atoms
2 atom types

0.0000000000000000e+00 2.0000000000000000e+01 xlo xhi
0.0000000000000000e+00 2.0000000000000000e+01 ylo yhi
0.0000000000000000e+00 2.0000000000000000e+01 zlo zhi

Masses

1 3.896
2 4.31

Atoms # meso-molecular

154 1 2 1.0282610818417384e+00 -4.2564166512092726e+02 1.0000000000000000e+00 1.8861013841815564e+00 5.0311408713993511e-01 8.1701721390620516e+00 
45 1 2 1.0283515952883799e+00 -3.4467909058611747e+02 1.0000000000000000e+00 3.1945661127702860e+00 1.5085877313211764e+00 9.9440429691396499e+00 
39 1 2 1.0283518519974821e+00 -3.4966790347977911e+02 1.0000000000000000e+00 3.1946203938314648e+00 1.5085667451319924e+00 9.9440771775678076e+00 
2 1 2 1.0283518502789981e+00 -3.1225638795779093e+02 1.0000000000000000e+00 3.1946200306407957e+00 1.5085668861771857e+00 9.9440769476425377e+00 
8 1 2 1.0283518477439855e+00 -2.8419848684404860e+02 1.0000000000000000e+00 3.1946194946993565e+00 1.5085670934275064e+00 9.9440766098394366e+00 
1 1 2 1.0283518517811967e+00 -5.8119700875136118e+02 1.0000000000000000e+00 3.1946203479921138e+00 1.5085667622888566e+00 9.9440771496340581e+00 
44 1 2 1.0283518521383517e+00 -2.8970218096948344e+02 1.0000000000000000e+00 3.1946204235987015e+00 1.5085667335400568e+00 9.9440771964661945e+00 
67 1 2 1.0283516841683640e+00 -4.8024274486403340e+02 1.0000000000000000e+00 3.1945849156632207e+00 1.5085804990800140e+00 9.9440547566295212e+00 
38 1 2 1.0283747268000620e+00 -4.9973048225937049e+02 1.0000000000000000e+00 3.2007619319011806e+00 1.5080100952695810e+00 9.9449090639524762e+00 
80 1 2 1.0281373314200408e+00 -3.2975884927625270e+02 1.0000000000000000e+00 2.9011678318496537e+00 1.4532345605541113e+00 9.9940975297050585e+00 
124 1 2 1.0260587373081429e+00 -3.0368056500871808e+02 1.0000000000000000e+00 6.3708329256844181e+00 8.5231420305913752e-01 9.7033096497034528e+00 
62 1 2 1.0278169021564241e+00 -3.5688318414892234e+02 1.0000000000000000e+00 5.7747483350265991e+00 6.2971099070026307e-02 9.4636462535665604e+00 
148 1 2 1.0274358168587012e+00 -4.5177787367431500e+02 1.0000000000000000e+00 5.6856028196214679e+00 2.8262143049198180e-02 9.4716050246559274e+00 
147 1 2 1.0274358168586233e+00 -3.7042059018319577e+02 1.0000000000000000e+00 5.6856028196272135e+00 2.8262142976695940e-02 9.4716050246792154e+00 
178 1 2 1.0274358168589717e+00 -4.7350902329800778e+02 1.0000000000000000e+00 5.6856028196048403e+00 2.8262143201469411e-02 9.4716050246075891e+00 
142 1 2 1.0274358168602120e+00 -4.8575952379723395e+02 1.0000000000000000e+00 5.6856028195104642e+00 2.8262144144675594e-02 9.4716050243060135e+00 
146 1 2 1.0274358168588029e+00 -3.4784198849755103e+02 1.0000000000000000e+00 5.6856028196141679e+00 2.8262143116552195e-02 9.4716050246344619e+00 
112 1 2 1.0274358168577200e+00 -4.7433879521895375e+02 1.0000000000000000e+00 5.6856028197009261e+00 2.8262142261713984e-02 9.4716050249079462e+00 
173 1 2 1.0292954515148554e+00 -4.4587521961950142e+02 1.0000000000000000e+00 2.5963782384281138e+00 1.2121626587780947e+00 1.0123883137033225e+01 
28 1 2 1.0277453085345816e+00 -2.7706183473631455e+02 1.0000000000000000e+00 6.2656023454802963e+00 3.7670702088082657e+00 1.1312988691762364e+01 
106 1 2 1.0275946561784270e+00 -3.8574890129975290e+02 1.0000000000000000e+00 6.2829704069302190e+00 3.7837591872414351e+00 1.1314942528678355e+01 
94 1 2 1.0271597505532390e+00 -3.2507258489050736e+02 1.0000000000000000e+00 6.2854696400718399e+00 3.8996361788691378e+00 1.1330951563937191e+01 
32 1 2 1.0273751145574324e+00 -3.8445184423467265e+02 1.0000000000000000e+00 6.2790150150892954e+00 3.8359972218938174e+00 1.1321168535738972e+01 
25 1 2 1.0273751145574219e+00 -4.5378725830956847e+02 1.0000000000000000e+00 6.2790150150959150e+00 3.8359972218857621e+00 1.1321168535738144e+01 
31 1 2 1.0273751134084297e+00 -4.4433627586227811e+02 1.0000000000000000e+00 6.2790152725441981e+00 3.8359969055083791e+00 1.1321168498401958e+01 
145 1 2 1.0281581044758126e+00 -4.5494905669918535e+02 1.0000000000000000e+00 5.3627405419920455e+00 5.5272707905747769e+00 1.2199532045393285e+01 
113 1 2 1.0281546029799036e+00 -3.5371034256428527e+02 1.0000000000000000e+00 5.3628096141328818e+00 5.5277961064046455e+00 1.2199977345574791e+01 
149 1 2 1.0281556642331802e+00 -3.6491977518909323e+02 1.0000000000000000e+00 5.3627913508540210e+00 5.5276606154402126e+00 1.2199858872470189e+01 
156 1 2 1.0281565530477359e+00 -4.0429913992529674e+02 1.0000000000000000e+00 5.3627746498600883e+00 5.5275347397574413e+00 1.2199751012283686e+01 
114 1 2 1.0281566909333233e+00 -4.1830805921336133e+02 1.0000000000000000e+00 5.3627719084973382e+00 5.5275139106253057e+00 1.2199733368639178e+01 
150 1 2 1.0281579075838174e+00 -4.5772502236767428e+02 1.0000000000000000e+00 5.3627453809941636e+00 5.5273087864666302e+00 1.2199562964826802e+01 
155 1 2 1.0281866465050888e+00 -4.2207189309656235e+02 1.0000000000000000e+00 5.3620098063241670e+00 5.5229460705642630e+00 1.2195565606466490e+01 
161 1 2 1.0280748394803008e+00 -3.7045512456427923e+02 1.0000000000000000e+00 5.3524735233425904e+00 5.5407557967768071e+00 1.2191297789018689e+01 
50 1 2 1.0279628321206671e+00 -3.9818395213958161e+02 1.0000000000000000e+00 5.4183277870182165e+00 5.6023967889136328e+00 1.2290077316732507e+01 
115 1 2 1.0289971188825762e+00 -3.5378646207046455e+02 1.0000000000000000e+00 6.4217077322993257e+00 4.2026997316259980e+00 1.2201709658426150e+01 
160 1 2 1.0271490091890048e+00 -4.7472413149724042e+02 1.0000000000000000e+00 5.2137609684594866e+00 8.6500435222944283e+00 1.2411305102840451e+01 
120 1 2 1.0271396387229692e+00 -3.4152446719479281e+02 1.0000000000000000e+00 5.2162962034257205e+00 8.6473635986981652e+00 1.2408565701460349e+01 
90 1 2 1.0271487942706485e+00 -3.6980172501557769e+02 1.0000000000000000e+00 5.2138085330562580e+00 8.6499953656313728e+00 1.2411257093671253e+01 
93 1 2 1.0272556569248834e+00 -4.1876631723604709e+02 1.0000000000000000e+00 5.1869392895022175e+00 8.6600325998981251e+00 1.2401020359445946e+01 
27 1 2 1.0265510798653765e+00 -2.8074240288569064e+02 1.0000000000000000e+00 5.0220985944302612e+00 8.7749474847044890e+00 1.2531827930516066e+01 
70 1 2 1.0265357829067376e+00 -3.4639307794389958e+02 1.0000000000000000e+00 5.0231491723591963e+00 8.7743562459176285e+00 1.2529697773696574e+01 
167 1 2 1.0304447651284661e+00 -4.3082136248165324e+02 1.0000000000000000e+00 4.8625534776250010e+00 8.7585217687597900e+00 1.2689900783365017e+01 
172 1 2 1.0268032872426975e+00 -3.6648223349382795e+02 1.0000000000000000e+00 5.0067005202975396e+00 8.7815431606081997e+00 1.2559978892844358e+01 
84 1 2 1.0271498676316737e+00 -2.7699180188264842e+02 1.0000000000000000e+00 5.2135507090271869e+00 8.6502575246635658e+00 1.2411518244231525e+01 
89 1 2 1.0271496115470995e+00 -3.1483313924203532e+02 1.0000000000000000e+00 5.2136138259773270e+00 8.6501933327989651e+00 1.2411454359721011e+01 
119 1 2 1.0271492375546432e+00 -3.0283294392876280e+02 1.0000000000000000e+00 5.2137025401859090e+00 8.6501032381260003e+00 1.2411364637032078e+01 
83 1 2 1.0271492067883830e+00 -2.6250161220914674e+02 1.0000000000000000e+00 5.2137103690145850e+00 8.6500952437581464e+00 1.2411356670432527e+01 
49 1 2 1.0274726573085435e+00 -4.3290533089809458e+02 1.0000000000000000e+00 3.3299872385689389e+00 9.7879626706476532e+00 1.3786009643898172e+01 
19 1 2 1.0284681131767819e+00 -4.0217705026714884e+02 1.0000000000000000e+00 3.2503615487954756e+00 9.8639112499182122e+00 1.4149315679861934e+01 
3 1 2 1.0281471128594719e+00 -4.7276010595101855e+02 1.0000000000000000e+00 1.7704340060678303e+00 9.7210696727327051e+00 1.4851895707273600e+01 
40 1 2 1.0281469002652550e+00 -4.2866921259164837e+02 1.0000000000000000e+00 1.7680153169458790e+00 9.7210538274937086e+00 1.4850280050764468e+01 
4 1 2 1.0281468595191927e+00 -4.2714565027735892e+02 1.0000000000000000e+00 1.7679259113414676e+00 9.7210676657109030e+00 1.4850246430013211e+01 
171 1 2 1.0278264738759788e+00 -3.1194700110346901e+02 1.0000000000000000e+00 1.6127011134133742e+00 9.8921411446136158e+00 1.4986818855625486e+01 
75 1 2 1.0274753699011865e+00 -3.4003051882231279e+02 1.0000000000000000e+00 1.3588087287812087e+00 1.9671171023210260e+01 8.5487922695098426e+00 
21 1 2 1.0274701547988443e+00 -4.1632338830557427e+02 1.0000000000000000e+00 1.3623167004900230e+00 1.9674308308467257e+01 8.5386694405789481e+00 
96 1 2 1.0274700894049311e+00 -3.1350299631716030e+02 1.0000000000000000e+00 1.3623516133168747e+00 1.9674341772170894e+01 8.5385674666136921e+00 
88 1 2 1.0274700877881568e+00 -3.8190472468305239e+02 1.0000000000000000e+00 1.3623464254523345e+00 1.9674352724712673e+01 8.5385584651622093e+00 
179 1 2 1.0274700798356418e+00 -4.2346325658499393e+02 1.0000000000000000e+00 1.3623527317531212e+00 1.9674353320003171e+01 8.5385483142191205e+00 
138 1 2 1.0274700322556050e+00 -4.1068091839927126e+02 1.0000000000000000e+00 1.3623790370046003e+00 1.9674375904589301e+01 8.5384755019598160e+00 
87 1 2 1.0274700306675011e+00 -3.6903609977294639e+02 1.0000000000000000e+00 1.3623765325557406e+00 1.9674382307457165e+01 8.5384694671713621e+00 
118 1 2 1.0274700303547273e+00 -4.1053695036844198e+02 1.0000000000000000e+00 1.3623765769932215e+00 1.9674382669902563e+01 8.5384688525950807e+00 
177 1 2 1.0274700421637863e+00 -2.9867671315617412e+02 1.0000000000000000e+00 1.3623736018735739e+00 1.9674371144208518e+01 8.5384906869317216e+00 
117 1 2 1.0274697797591301e+00 -3.4166688082081851e+02 1.0000000000000000e+00 1.3624939275696959e+00 1.9674533882272094e+01 8.5380679383621896e+00 
64 1 2 1.0274694313049986e+00 -3.6466067805349911e+02 1.0000000000000000e+00 1.3626393608366270e+00 1.9674764933289673e+01 8.5375061250783730e+00 
162 1 2 1.0274434731306452e+00 -3.3241143505799630e+02 1.0000000000000000e+00 6.0462617107037877e+00 1.9717464043096403e+01 9.5839486969817269e+00 
86 1 2 1.0282487122528003e+00 -3.1028011529161660e+02 1.0000000000000000e+00 6.2341532599091343e+00 1.9500575253236949e+01 9.6982192507822926e+00 
76 1 2 1.0285679808875392e+00 -4.3039254413248710e+02 1.0000000000000000e+00 3.2353564683968599e+00 1.0199772166036555e+01 1.4215388832859878e+01 
135 1 2 1.0272466148075536e+00 -2.4248774642671398e+02 1.0000000000000000e+00 1.3462800809175923e+00 1.0467508663703967e+01 1.5041190718460285e+01 
61 1 2 1.0280449699521290e+00 -3.7969282650703707e+02 1.0000000000000000e+00 2.0748318210814514e+00 1.1221247304499101e+01 1.4027190801104748e+01 
22 1 2 1.0280478299595757e+00 -2.7856964156393462e+02 1.0000000000000000e+00 2.0691614069543407e+00 1.1222097654434531e+01 1.4028409999429870e+01 
144 1 2 1.0280628527513398e+00 -4.9808845838103184e+02 1.0000000000000000e+00 2.0413515109779490e+00 1.1225814997654028e+01 1.4034536448882683e+01 
7 1 2 1.0280780966176841e+00 -3.4810199004058205e+02 1.0000000000000000e+00 2.0153024784576830e+00 1.1228617341137401e+01 1.4040516941344107e+01 
13 1 2 1.0280869381852096e+00 -4.0098623931097575e+02 1.0000000000000000e+00 2.0007461447612180e+00 1.1229897732897218e+01 1.4043969889000259e+01 
121 1 2 1.0281446430977148e+00 -2.8532074067960593e+02 1.0000000000000000e+00 1.9063361472038138e+00 1.1233195579401952e+01 1.4068555894842712e+01 
169 1 2 1.0281729744230861e+00 -4.0490225303594877e+02 1.0000000000000000e+00 1.6197649844709125e+00 1.1185860043001021e+01 1.4176049049181367e+01 
176 1 2 1.0272502990589714e+00 -3.5295421728940426e+02 1.0000000000000000e+00 1.3788204709340803e+00 1.0309191841644346e+01 1.5056964384061796e+01 
175 1 2 1.0275723591693746e+00 -4.2301685708058523e+02 1.0000000000000000e+00 1.4797793694690238e+00 1.0061859901313159e+01 1.5033138247177106e+01 
170 1 2 1.0275728529841492e+00 -3.7565569592136495e+02 1.0000000000000000e+00 1.4800382513952550e+00 1.0061477963411567e+01 1.5033092586268712e+01 
56 1 2 1.0257287229464735e+00 -3.3463191361073251e+02 1.0000000000000000e+00 7.6423122959685301e+00 1.6324622514050795e+00 1.2227646912929217e+01 
103 1 2 1.0252911127628623e+00 -3.9568880020015018e+02 1.0000000000000000e+00 7.7003162015133171e+00 1.5744738722272789e+00 1.2232422212325694e+01 
73 1 2 1.0282085460841446e+00 -3.8260349712735376e+02 1.0000000000000000e+00 7.6183965092077557e+00 1.7877024204797198e+00 1.2128506181168255e+01 
109 1 2 1.0282085461204222e+00 -3.7602959939787428e+02 1.0000000000000000e+00 7.6183965090565469e+00 1.7877024225358864e+00 1.2128506179589415e+01 
110 1 2 1.0282085460106303e+00 -3.1191882712801015e+02 1.0000000000000000e+00 7.6183965092245831e+00 1.7877024161892976e+00 1.2128506184698509e+01 
111 1 2 1.0282085461599242e+00 -2.8225659994087664e+02 1.0000000000000000e+00 7.6183965091479076e+00 1.7877024248849120e+00 1.2128506177577274e+01 
74 1 2 1.0282085461170638e+00 -3.5447348938959101e+02 1.0000000000000000e+00 7.6183965090815784e+00 1.7877024223482672e+00 1.2128506179724345e+01 
85 1 2 1.0259075430605396e+00 -2.7426758211432758e+02 1.0000000000000000e+00 7.6549660487482347e+00 1.6498748409053372e+00 1.2208559551840640e+01 
125 1 2 1.0328095256324459e+00 -3.3747234831762438e+02 1.0000000000000000e+00 7.9106837634582652e+00 1.2279498248690737e+00 1.2309767432930551e+01 
20 1 2 1.0291312138400950e+00 -4.3337089107067510e+02 1.0000000000000000e+00 7.2561500234300622e+00 1.8875770928056352e+00 1.0809155189783073e+01 
116 1 2 1.0247420450759901e+00 -4.7226709439899099e+02 1.0000000000000000e+00 1.2248323167809666e+01 1.5350497442766876e+01 1.2811573994199696e+01 
136 1 2 1.0258224673354066e+00 -3.1384862298504260e+02 1.0000000000000000e+00 1.2851569958789808e+01 1.6224470575691672e+01 1.2682549802209868e+01 
99 1 2 1.0258453307215263e+00 -2.9016320669007916e+02 1.0000000000000000e+00 1.2851720252814472e+01 1.6225262931882277e+01 1.2683935341507981e+01 
153 1 2 1.0286858734751760e+00 -3.8540793684339769e+02 1.0000000000000000e+00 1.0635500554001988e+01 1.4600891340498999e+01 1.3196526667077892e+01 
158 1 2 1.0333122707545361e+00 -4.7225167975681751e+02 1.0000000000000000e+00 1.2613432083125996e+01 1.6216764784634154e+01 1.3192250035276466e+01 
122 1 2 1.0284665391628212e+00 -4.0462872386994428e+02 1.0000000000000000e+00 1.0683303591317392e+01 1.4551176752700577e+01 1.3263366141737972e+01 
151 1 2 1.0284669469306813e+00 -4.7025980394574520e+02 1.0000000000000000e+00 1.0683156988801668e+01 1.4551303031454617e+01 1.3263211098349583e+01 
152 1 2 1.0283188788622686e+00 -4.3185123758141577e+02 1.0000000000000000e+00 1.0778126614728828e+01 1.4477031413479301e+01 1.3258846821145484e+01 
123 1 2 1.0284223949447713e+00 -3.2445750365342468e+02 1.0000000000000000e+00 1.0677711377841304e+01 1.4557016414849269e+01 1.3269235493110614e+01 
100 1 2 1.0282785993041106e+00 -3.4707820372210330e+02 1.0000000000000000e+00 1.0779161840269559e+01 1.4476886225699047e+01 1.3267591043815765e+01 
101 1 2 1.0282785993024597e+00 -3.3216615702824544e+02 1.0000000000000000e+00 1.0779161840518247e+01 1.4476886225563254e+01 1.3267591044069809e+01 
95 1 2 1.0282786224153007e+00 -3.4687952001028896e+02 1.0000000000000000e+00 1.0779158458175017e+01 1.4476888072283899e+01 1.3267587537760166e+01 
14 1 2 1.0236009044938668e+00 -3.8848244772815269e+02 1.0000000000000000e+00 9.5605541019698368e+00 1.7960006246211655e+01 1.1075985923155610e+01 
68 1 2 1.0238205244371197e+00 -3.0361966219589993e+02 1.0000000000000000e+00 9.6201964961919426e+00 1.8046164755229761e+01 1.1018923889279870e+01 
143 1 2 1.0245435984915230e+00 -4.6632321639086956e+02 1.0000000000000000e+00 8.6107066052663850e+00 1.8190119208846021e+01 1.1177328425785031e+01 
58 1 2 1.0294770403550841e+00 -3.9754067521609818e+02 1.0000000000000000e+00 7.4180030130827781e+00 1.8605283866574545e+01 1.1563371405666269e+01 
65 1 2 1.0294770403550320e+00 -4.1362567433900529e+02 1.0000000000000000e+00 7.4180030129800363e+00 1.8605283866637041e+01 1.1563371405683055e+01 
107 1 2 1.0294770496481283e+00 -3.3065068806777560e+02 1.0000000000000000e+00 7.4180129103008543e+00 1.8605277863877479e+01 1.1563369789355859e+01 
55 1 2 1.0283628633207287e+00 -3.7401209480404356e+02 1.0000000000000000e+00 8.7093598853423035e+00 1.8100811468148002e+01 1.1332971116716573e+01 
57 1 2 1.0283760224460128e+00 -3.8518312817267179e+02 1.0000000000000000e+00 8.7094423844116484e+00 1.8101401148251107e+01 1.1331689194223697e+01 
91 1 2 1.0287270715080288e+00 -2.3814423753210957e+02 1.0000000000000000e+00 6.7071602566876019e+00 1.9990871546481603e+01 1.2035060268754691e+01 
43 1 2 1.0276709215105426e+00 -3.8601793134671414e+02 1.0000000000000000e+00 6.7916268133065065e+00 1.8788750031279992e+01 1.1196927225205332e+01 
102 1 2 1.0277485534073310e+00 -3.7840822763122685e+02 1.0000000000000000e+00 6.7856921599171063e+00 1.8797582161066455e+01 1.1208109618789342e+01 
79 1 2 1.0288229014662960e+00 -3.5967241672811667e+02 1.0000000000000000e+00 8.5899413538428018e+00 1.9257287792236333e+01 1.3073829828780530e+01 
180 1 2 1.0308159285556349e+00 -4.1214381698426990e+02 1.0000000000000000e+00 7.2951524476145888e+00 1.8665981568131972e+01 1.0506832776013381e+01 
98 1 2 1.0292622517981922e+00 -3.9307561173982606e+02 1.0000000000000000e+00 1.0099385538988143e+01 1.8211460190664212e+01 1.0921920043660041e+01 
97 1 2 1.0303089180817537e+00 -3.8817041083829616e+02 1.0000000000000000e+00 1.0179168365345895e+01 1.8164133208493670e+01 1.0915315888025550e+01 
130 1 2 1.0273501985586837e+00 -3.9902324914038104e+02 1.0000000000000000e+00 1.1446721435297198e+01 1.6796411290339854e+01 1.1085823833460049e+01 
9 1 2 1.0310852447851562e+00 -4.5080868295746120e+02 1.0000000000000000e+00 1.0274302150370568e+01 1.7216291641051971e+01 1.1256222853245301e+01 
26 1 2 1.0269729836112869e+00 -3.1741466598335256e+02 1.0000000000000000e+00 1.2975213841429555e+01 1.7139061904444496e+01 1.1573258712589750e+01 
63 1 2 1.0281983747768644e+00 -3.7444598699618962e+02 1.0000000000000000e+00 1.2892132159325104e+01 1.7569450411818952e+01 1.1480392544280793e+01 
105 1 2 1.0281615995648357e+00 -2.9833962442514036e+02 1.0000000000000000e+00 1.2894377997110530e+01 1.7563374811709632e+01 1.1481103815762109e+01 
104 1 2 1.0285203468759652e+00 -2.8666389717060508e+02 1.0000000000000000e+00 1.2851889363706439e+01 1.7653809529600302e+01 1.1466237381770222e+01 
69 1 2 1.0290983168328305e+00 -4.3905902559058205e+02 1.0000000000000000e+00 1.2817135037717041e+01 1.7730268670204367e+01 1.1462378359873055e+01 
18 1 2 1.0286930250749504e+00 -3.0654757556515835e+02 1.0000000000000000e+00 1.2757153703082956e+01 1.7813930795303978e+01 1.1441469191856045e+01 
33 1 2 1.0286795181544097e+00 -3.4354250657206757e+02 1.0000000000000000e+00 1.1689817829379235e+01 1.7713144585749589e+01 1.0863051892926507e+01 
166 1 2 1.0272526462573115e+00 -5.2843806032037037e+02 1.0000000000000000e+00 1.0692369445500516e+01 1.7949394737438624e+01 1.0843490142392509e+01 
34 1 2 1.0278232760636836e+00 -4.8837673771780948e+02 1.0000000000000000e+00 1.2688883276011916e+01 1.8055024613685347e+01 1.1508168128719962e+01 
139 1 2 1.0265905416447236e+00 -3.6394955316433982e+02 1.0000000000000000e+00 1.2685291098945566e+01 1.7973804053222167e+01 1.1447640101612576e+01 
137 1 2 1.0277894271809647e+00 -4.6123676648682988e+02 1.0000000000000000e+00 1.0775253975211623e+01 1.4511340545411047e+01 1.3415936038868180e+01 
92 1 2 1.0281381554537541e+00 -3.8871660503491535e+02 1.0000000000000000e+00 1.0774787752617234e+01 1.4497845980892610e+01 1.3368030327576351e+01 
159 1 2 1.0279374443751124e+00 -3.3491304534198798e+02 1.0000000000000000e+00 1.0786816754336771e+01 1.4500112004621913e+01 1.3402922562521198e+01 
164 1 2 1.0290784728478790e+00 -3.3857643901769615e+02 1.0000000000000000e+00 1.0674916496825684e+01 1.4710890206056453e+01 1.3549702117982228e+01 
157 1 2 1.0260130169292010e+00 -4.1028855150861870e+02 1.0000000000000000e+00 1.1957798281642829e+01 1.6494981353745146e+01 1.4820689308083665e+01 
23 1 2 1.0273540199346014e+00 -4.9895328084842765e+02 1.0000000000000000e+00 1.1988830440441978e+01 1.7135699011495852e+01 1.6589824090985324e+01 
24 1 2 1.0273540199346054e+00 -3.8545091279598375e+02 1.0000000000000000e+00 1.1988830440446719e+01 1.7135699011496452e+01 1.6589824090984322e+01 
29 1 2 1.0273540199355993e+00 -3.6563356773151230e+02 1.0000000000000000e+00 1.1988830439871345e+01 1.7135699011557801e+01 1.6589824091089479e+01 
35 1 2 1.0273540199346007e+00 -3.8103968412386268e+02 1.0000000000000000e+00 1.1988830440442408e+01 1.7135699011495756e+01 1.6589824090985246e+01 
6 1 2 1.0273540199349303e+00 -3.2713403479212531e+02 1.0000000000000000e+00 1.1988830440248430e+01 1.7135699011521570e+01 1.6589824091020766e+01 
66 1 2 1.0273540199352429e+00 -3.5738635982151209e+02 1.0000000000000000e+00 1.1988830440071505e+01 1.7135699011535081e+01 1.6589824091053014e+01 
71 1 2 1.0273540199346050e+00 -4.3541614161048511e+02 1.0000000000000000e+00 1.1988830440446662e+01 1.7135699011496268e+01 1.6589824090984340e+01 
5 1 2 1.0273540199345992e+00 -3.1433797536217730e+02 1.0000000000000000e+00 1.1988830440451011e+01 1.7135699011495880e+01 1.6589824090983523e+01 
30 1 2 1.0273540199352280e+00 -4.2489986624731824e+02 1.0000000000000000e+00 1.1988830440074926e+01 1.7135699011534918e+01 1.6589824091052492e+01 
72 1 2 1.0273540199350257e+00 -4.3480536162720449e+02 1.0000000000000000e+00 1.1988830440183520e+01 1.7135699011527226e+01 1.6589824091032813e+01 
60 1 2 1.0273540199351128e+00 -4.1502314079212221e+02 1.0000000000000000e+00 1.1988830440145152e+01 1.7135699011529155e+01 1.6589824091039592e+01 
59 1 2 1.0273540199348348e+00 -3.5967517515398526e+02 1.0000000000000000e+00 1.1988830440303392e+01 1.7135699011515346e+01 1.6589824091010726e+01 
36 1 2 1.0273540199346030e+00 -4.1440817137689885e+02 1.0000000000000000e+00 1.1988830440446145e+01 1.7135699011496456e+01 1.6589824090984465e+01 
163 1 2 1.0276065218935171e+00 -3.6824636558114639e+02 1.0000000000000000e+00 1.0571185006942500e+01 1.9409436390992656e+01 1.3662113063469610e+01 
127 1 2 1.0286702245042503e+00 -3.2820330620548873e+02 1.0000000000000000e+00 1.0509321501170248e+01 1.9466387965545305e+01 1.3626188205038964e+01 
141 1 2 1.0286702247653265e+00 -2.5815841695340907e+02 1.0000000000000000e+00 1.0509321454075376e+01 1.9466387992139001e+01 1.3626188193638569e+01 
15 1 2 1.0286702240320995e+00 -4.6051481129074182e+02 1.0000000000000000e+00 1.0509321590092366e+01 1.9466387914402940e+01 1.3626188227184910e+01 
133 1 2 1.0286702248644570e+00 -4.3715265622633717e+02 1.0000000000000000e+00 1.0509321437025195e+01 1.9466388001559814e+01 1.3626188189649556e+01 
81 1 2 1.0286702282315694e+00 -3.6505790987441202e+02 1.0000000000000000e+00 1.0509322129029755e+01 1.9466387287626908e+01 1.3626188572990756e+01 
82 1 2 1.0286712330212393e+00 -3.7115086705787678e+02 1.0000000000000000e+00 1.0509243023435429e+01 1.9466407732282825e+01 1.3626185452293795e+01 
108 1 2 1.0286711663943320e+00 -4.4544545873370305e+02 1.0000000000000000e+00 1.0509248498888017e+01 1.9466406093870855e+01 1.3626185829100653e+01 
134 1 2 1.0286702508617243e+00 -4.1279684685836003e+02 1.0000000000000000e+00 1.0509320901642296e+01 1.9466387270417162e+01 1.3626188750271842e+01 
132 1 2 1.0286702239335757e+00 -3.4977450034857918e+02 1.0000000000000000e+00 1.0509321609540503e+01 1.9466387903002303e+01 1.3626188232172563e+01 
126 1 2 1.0286745331936531e+00 -3.3919360357589983e+02 1.0000000000000000e+00 1.0508982060042630e+01 1.9466494150519853e+01 1.3626160166582880e+01 
129 1 2 1.0304871368954884e+00 -2.7753454177434708e+02 1.0000000000000000e+00 1.4818324875117849e+01 1.6728725403743876e+01 1.2648637268835950e+01 
131 1 2 1.0270770696856673e+00 -3.8316360262990844e+02 1.0000000000000000e+00 1.5465907451285220e+01 1.9951173060350783e+01 1.3304423997676437e+01 
140 1 2 1.0271496111749516e+00 -3.6255516288726926e+02 1.0000000000000000e+00 1.5491371337459066e+01 1.9950968803203896e+01 1.3318466627961723e+01 
165 1 2 1.0286242562509829e+00 -3.5296393622860114e+02 1.0000000000000000e+00 1.6161855033018931e+01 1.6924556697187803e+01 1.3249072827170036e+01 
12 1 2 1.0271449705146221e+00 -4.7849655290846562e+02 1.0000000000000000e+00 1.5488794660495186e+01 1.9950486098423507e+01 1.3322004376204749e+01 
168 1 2 1.0286028770864759e+00 -4.0993087496977193e+02 1.0000000000000000e+00 1.6165088207012026e+01 1.6927411715032079e+01 1.3252675744221190e+01 
51 1 2 1.0286029183557457e+00 -3.3685180877905111e+02 1.0000000000000000e+00 1.6165078339957965e+01 1.6927403129037707e+01 1.3252666722603756e+01 
48 1 2 1.0286025597167168e+00 -3.7293666685040188e+02 1.0000000000000000e+00 1.6165261922991483e+01 1.6927537587231729e+01 1.3252657536743712e+01 
174 1 2 1.0286030427052395e+00 -4.9822585313956978e+02 1.0000000000000000e+00 1.6164991233492202e+01 1.6927342420254266e+01 1.3252692403308588e+01 
78 1 2 1.0286025605112905e+00 -3.8899921476362152e+02 1.0000000000000000e+00 1.6165228178650555e+01 1.6927516706240922e+01 1.3252686168325736e+01 
42 1 2 1.0286025773720260e+00 -3.7818635313731545e+02 1.0000000000000000e+00 1.6165219503390546e+01 1.6927510366057934e+01 1.3252686698715280e+01 
77 1 2 1.0286025553709337e+00 -3.2414685177840698e+02 1.0000000000000000e+00 1.6165230872415457e+01 1.6927518668804488e+01 1.3252685960696720e+01 
37 1 2 1.0286031553376933e+00 -5.8101727693927035e+02 1.0000000000000000e+00 1.6164937865480145e+01 1.6927303086477426e+01 1.3252693077340009e+01 
41 1 2 1.0286025629028026e+00 -3.3610021699169107e+02 1.0000000000000000e+00 1.6165226934075420e+01 1.6927515798416028e+01 1.3252686256703994e+01 
11 1 2 1.0271448835042143e+00 -4.3624412541027806e+02 1.0000000000000000e+00 1.5488710862911008e+01 1.9950452965050587e+01 1.3322266199978248e+01 
53 1 2 1.0271424779593543e+00 -2.7615683028628501e+02 1.0000000000000000e+00 1.5487352872252565e+01 1.9950131012696495e+01 1.3324589904904318e+01 
17 1 2 1.0271424010261683e+00 -3.4853400251454684e+02 1.0000000000000000e+00 1.5487306213850241e+01 1.9950117167128688e+01 1.3324691426313811e+01 
47 1 2 1.0271424979938542e+00 -3.3303565204382016e+02 1.0000000000000000e+00 1.5487369911252856e+01 1.9950138402163113e+01 1.3324533176320761e+01 
52 1 2 1.0271427116121705e+00 -2.8735177932272705e+02 1.0000000000000000e+00 1.5487493303081891e+01 1.9950171344109311e+01 1.3324294683487837e+01 
46 1 2 1.0271426976479250e+00 -3.1797214868170374e+02 1.0000000000000000e+00 1.5487488753955251e+01 1.9950171889699849e+01 1.3324288650032452e+01 
16 1 2 1.0271426687538583e+00 -3.5015018428282190e+02 1.0000000000000000e+00 1.5487470976267680e+01 1.9950166645120845e+01 1.3324327272002247e+01 
10 1 2 1.0271427819243775e+00 -3.8462534976961683e+02 1.0000000000000000e+00 1.5487543165090500e+01 1.9950189023240654e+01 1.3324161157997347e+01 
54 1 2 1.0271428031355434e+00 -3.5525601299172331e+02 1.0000000000000000e+00 1.5487549393012358e+01 1.9950187689413809e+01 1.3324174383742218e+01 
128 1 2 1.0288336222851737e+00 -3.1243150046014892e+02 1.0000000000000000e+00 1.6083053248324667e+01 1.6895201034814228e+01 1.3344936964674384e+01 

Velocities

154 -9.4079484212628295e-02 -1.6336128309989617e-01 -1.1252675859424779e-01
45 -4.4735683365698553e-02 -4.4950264675075048e-02 -8.0375830678368981e-02
39 -4.4733284162974736e-02 -4.4947048281460449e-02 -8.0372231956163262e-02
2 -4.4733300221201082e-02 -4.4947069776986093e-02 -8.0372256068496226e-02
8 -4.4733323912349729e-02 -4.4947101531408302e-02 -8.0372291604642196e-02
1 -4.4733286186002745e-02 -4.4947051020049075e-02 -8.0372234966680473e-02
44 -4.4733282846644233e-02 -4.4947046520878893e-02 -8.0372229978258103e-02
67 -4.4734852556654693e-02 -4.4949149032175666e-02 -8.0374586037473800e-02
38 -4.4466399180166059e-02 -4.4487925029704202e-02 -8.0041351812184039e-02
80 -5.3103562892973605e-02 -6.7266393999641391e-02 -9.4630329238845443e-02
124 -1.2230572020672749e-02 1.2750425025341255e-01 2.3199894501995798e-02
62 -3.2055981197113517e-02 8.9776626589068029e-02 1.5899897126676020e-02
148 -3.9380307521873270e-02 8.5890834477445138e-02 1.2502251848006867e-02
147 -3.9380307520725549e-02 8.5890834471793728e-02 1.2502251852522735e-02
178 -3.9380307524711125e-02 8.5890834489160656e-02 1.2502251838260666e-02
142 -3.9380307541695164e-02 8.5890834561037285e-02 1.2502251775276786e-02
146 -3.9380307523139299e-02 8.5890834482589135e-02 1.2502251843529641e-02
112 -3.9380307507625910e-02 8.5890834417346490e-02 1.2502251900414438e-02
173 -6.0075480101991964e-02 -8.4367393675428712e-02 -1.1195090678209035e-01
28 -6.0015854048206335e-02 3.1301374640699896e-02 -4.5691195806935626e-02
106 -5.9584671397640371e-02 3.2499205872101582e-02 -4.4565845118584510e-02
94 -5.7283477972980272e-02 3.2686871423935282e-02 -3.5756825075694554e-02
32 -5.8533358423743312e-02 3.3511370118911962e-02 -4.1776048015616116e-02
25 -5.8533358423972302e-02 3.3511370119097432e-02 -4.1776048016200308e-02
31 -5.8533367161131153e-02 3.3511377446373773e-02 -4.1776071349052937e-02
145 -6.9652293269491725e-02 -3.0218294463955245e-02 3.6231936923625301e-02
113 -6.9575422616390506e-02 -3.0177185447294762e-02 3.6239440601329616e-02
149 -6.9595186468997525e-02 -3.0187596458662834e-02 3.6237375714984199e-02
156 -6.9613664437717993e-02 -3.0197411227599308e-02 3.6235584937098407e-02
114 -6.9616725463079301e-02 -3.0199046258294202e-02 3.6235295616084011e-02
150 -6.9646769515933613e-02 -3.0215271403732757e-02 3.6232470480457857e-02
155 -6.9699004938114706e-02 -3.0438536691814618e-02 3.5729578261715751e-02
161 -7.0953312152864934e-02 -3.0983903809247006e-02 3.5606070418229795e-02
50 -6.2533095361160349e-02 -2.7256416790619676e-02 3.5320407615383360e-02
115 -4.6916963459487565e-02 3.8194607166883610e-02 2.5382068691839697e-02
160 -7.0186035439254807e-02 -1.7849036424567196e-02 1.2314446242721522e-01
120 -7.0521602580600889e-02 -1.7542140840735243e-02 1.2371793509729619e-01
90 -7.0193246918415567e-02 -1.7843887232348747e-02 1.2315380689343094e-01
93 -6.4900879664983466e-02 -1.7576787051778828e-02 1.2737381321410191e-01
27 -4.9642535323418210e-02 -2.1103087516540400e-02 1.1460059797846212e-01
70 -4.9805621135210885e-02 -2.1331778792607621e-02 1.1478415822268670e-01
167 -4.5263518948093516e-02 -2.8649541901138886e-02 9.8374819233470773e-02