LAMMPS data file via write_data, version 30 Jul 2016, timestep = 50400000

180 atoms
2 atom types

0.0000000000000000e+00 2.0000000000000000e+01 xlo xhi
0.0000000000000000e+00 2.0000000000000000e+01 ylo yhi
0.0000000000000000e+00 2.0000000000000000e+01 zlo zhi

Masses

1 3.896
2 4.31

Atoms # meso-molecular

86 1 2 1.0268462382602790e+00 -3.1014727550796039e+02 1.0000000000000000e+00 5.0741038989049079e+00 2.8778759046559949e-01 9.5810756218040698e+00 
73 1 2 1.0255447059360892e+00 -3.8257621422609242e+02 1.0000000000000000e+00 6.2613582658672700e+00 6.5035594247369033e-01 1.1321559496347943e+01 
109 1 2 1.0255447062964729e+00 -3.7600231649907607e+02 1.0000000000000000e+00 6.2613582225356694e+00 6.5035605600342095e-01 1.1321559505758822e+01 
110 1 2 1.0255447051861704e+00 -3.1189154422165331e+02 1.0000000000000000e+00 6.2613583452440231e+00 6.5035570600071824e-01 1.1321559476841859e+01 
111 1 2 1.0255447067063386e+00 -2.8222931704485501e+02 1.0000000000000000e+00 6.2613581827899276e+00 6.5035618533808015e-01 1.1321559516395160e+01 
74 1 2 1.0255447062635339e+00 -3.5444620649057146e+02 1.0000000000000000e+00 6.2613582269100965e+00 6.5035604563693594e-01 1.1321559504895850e+01 
56 1 2 1.0357791665700100e+00 -3.3453319404207815e+02 1.0000000000000000e+00 6.1270028587404584e+00 1.0868077215761582e+00 1.0514536638135496e+01 
85 1 2 1.0309443139638701e+00 -2.7417708393297477e+02 1.0000000000000000e+00 6.0793424442885025e+00 1.2016417104171015e+00 1.0561231381997775e+01 
112 1 2 1.0277878540938630e+00 -4.7427159840859218e+02 1.0000000000000000e+00 4.1841891930140216e+00 1.3781648947672580e+00 1.0154063694891299e+01 
142 1 2 1.0277878540967478e+00 -4.8569232698684738e+02 1.0000000000000000e+00 4.1841891937049933e+00 1.3781648953600500e+00 1.0154063693732663e+01 
178 1 2 1.0277878540953005e+00 -4.7344182648763393e+02 1.0000000000000000e+00 4.1841891933589164e+00 1.3781648950628875e+00 1.0154063694312566e+01 
147 1 2 1.0277878540949938e+00 -3.7035339337282409e+02 1.0000000000000000e+00 4.1841891932765867e+00 1.3781648949919081e+00 1.0154063694450846e+01 
148 1 2 1.0277878540950585e+00 -4.5171067686394241e+02 1.0000000000000000e+00 4.1841891933029620e+00 1.3781648950153633e+00 1.0154063694406888e+01 
146 1 2 1.0277878540951717e+00 -3.4777479168717832e+02 1.0000000000000000e+00 4.1841891933276614e+00 1.3781648950363456e+00 1.0154063694365377e+01 
62 1 2 1.0283173808594579e+00 -3.5681823311713163e+02 1.0000000000000000e+00 4.2043398320183094e+00 1.4169719334447932e+00 1.0163333461457695e+01 
124 1 2 1.0286000862449460e+00 -3.0362170807847178e+02 1.0000000000000000e+00 4.1616373816397711e+00 1.0508705748353575e+00 1.0468158800761191e+01 
103 1 2 1.0205327988760504e+00 -3.9554655342994403e+02 1.0000000000000000e+00 6.4628801621700056e+00 4.2670258299972186e-01 1.0654857590448291e+01 
162 1 2 1.0283926283678653e+00 -3.3232278061554547e+02 1.0000000000000000e+00 4.3061751568870754e+00 1.5759591645815503e+00 1.0218105672909427e+01 
50 1 2 1.0307591631882831e+00 -3.9817935437588028e+02 1.0000000000000000e+00 2.5050357493240596e+00 5.2181780434079501e+00 1.2684212657252006e+01 
145 1 2 1.0312728255229207e+00 -4.5494273654629012e+02 1.0000000000000000e+00 2.5911761573124314e+00 5.2069516779837537e+00 1.2702397801045150e+01 
113 1 2 1.0312751616283675e+00 -3.5370402329986274e+02 1.0000000000000000e+00 2.5910640485929854e+00 5.2069820082829255e+00 1.2702316731638971e+01 
149 1 2 1.0312745067731117e+00 -3.6491345562687786e+02 1.0000000000000000e+00 2.5910956613100855e+00 5.2069738092630340e+00 1.2702338677857943e+01 
156 1 2 1.0312739295703286e+00 -4.0429282012924796e+02 1.0000000000000000e+00 2.5911233828990716e+00 5.2069664290765685e+00 1.2702358425489493e+01 
114 1 2 1.0312738370913501e+00 -4.1830173938253932e+02 1.0000000000000000e+00 2.5911278184129629e+00 5.2069652282207484e+00 1.2702361635612464e+01 
150 1 2 1.0312729751827565e+00 -4.5771870225517290e+02 1.0000000000000000e+00 2.5911690046008431e+00 5.2069537456257136e+00 1.2702392296842838e+01 
155 1 2 1.0312548676012270e+00 -4.2206556396311174e+02 1.0000000000000000e+00 2.5920254482926497e+00 5.2065368153484322e+00 1.2703466170712181e+01 
161 1 2 1.0311969681477073e+00 -3.7044883570122721e+02 1.0000000000000000e+00 2.6012872684464052e+00 5.2019938644271733e+00 1.2712850732218840e+01 
94 1 2 1.0236551661795075e+00 -3.2506422074072674e+02 1.0000000000000000e+00 2.6274462020831852e+00 3.4576854549848610e+00 1.2095597834467799e+01 
32 1 2 1.0232484096202483e+00 -3.8444256259069039e+02 1.0000000000000000e+00 2.6273612724869730e+00 3.4553492785534363e+00 1.2097315516017433e+01 
25 1 2 1.0232484096202175e+00 -4.5377797666558655e+02 1.0000000000000000e+00 2.6273612724873394e+00 3.4553492785533435e+00 1.2097315516017792e+01 
31 1 2 1.0232484080774076e+00 -4.4432699421627689e+02 1.0000000000000000e+00 2.6273612867966776e+00 3.4553492722150043e+00 1.2097315504863904e+01 
106 1 2 1.0229047201833501e+00 -3.8573845126467836e+02 1.0000000000000000e+00 2.6234462036292290e+00 3.4530938338511272e+00 1.2110396167781351e+01 
28 1 2 1.0227478652081017e+00 -2.7705057605361361e+02 1.0000000000000000e+00 2.6226103162510075e+00 3.4529400220877511e+00 1.2124814395913209e+01 
20 1 2 1.0284615384498188e+00 -4.3323210345485529e+02 1.0000000000000000e+00 1.6566961327108054e+00 3.8624842171287468e+00 1.1851213944047636e+01 
115 1 2 1.0296301496168947e+00 -3.5378048670629926e+02 1.0000000000000000e+00 2.6782358234992825e+00 5.2441843512586912e+00 1.2489939319555180e+01 
49 1 2 1.0275226664516719e+00 -4.3288871418067521e+02 1.0000000000000000e+00 1.6999071730252278e+00 9.3298394406323162e+00 1.8567190931435345e+01 
27 1 2 1.0284944335542980e+00 -2.8073863144606855e+02 1.0000000000000000e+00 1.1596893932925096e+00 7.9254934891484510e+00 1.7867776801911681e+01 
70 1 2 1.0284886632109076e+00 -3.4638931736596140e+02 1.0000000000000000e+00 1.1614982855812597e+00 7.9243304549536395e+00 1.7867212679359277e+01 
172 1 2 1.0285384307278469e+00 -3.6647828709026811e+02 1.0000000000000000e+00 1.1356040711841011e+00 7.9327588330461776e+00 1.7882955941979926e+01 
167 1 2 1.0298129149328727e+00 -4.3081736470603641e+02 1.0000000000000000e+00 1.1541364074344358e+00 7.9071128843054739e+00 1.7904098951730884e+01 
93 1 2 1.0283457386768873e+00 -4.1876228286042465e+02 1.0000000000000000e+00 1.3035727511200070e+00 7.7755872617362423e+00 1.7967992644236336e+01 
160 1 2 1.0283076483824831e+00 -4.7472015295283057e+02 1.0000000000000000e+00 1.3749332838748167e+00 7.7414139013528480e+00 1.8062488901724546e+01 
120 1 2 1.0282776634881847e+00 -3.4152043539286319e+02 1.0000000000000000e+00 1.3776928807487689e+00 7.7402003211735124e+00 1.8069127813930336e+01 
90 1 2 1.0283070722395709e+00 -3.6979774558547570e+02 1.0000000000000000e+00 1.3750058111925527e+00 7.7413889958558029e+00 1.8062621993804274e+01 
84 1 2 1.0283101333963025e+00 -2.7698782746942607e+02 1.0000000000000000e+00 1.3746639760405079e+00 7.7415192485493778e+00 1.8061939203503925e+01 
89 1 2 1.0283093899559679e+00 -3.1482916358567076e+02 1.0000000000000000e+00 1.3747435983134129e+00 7.7414877260114139e+00 1.8062102898226698e+01 
119 1 2 1.0283083345369446e+00 -3.0282896655708214e+02 1.0000000000000000e+00 1.3748635484709906e+00 7.7414426704942771e+00 1.8062339295544991e+01 
83 1 2 1.0283082425543746e+00 -2.6249763468080033e+02 1.0000000000000000e+00 1.3748729714511927e+00 7.7414388077215461e+00 1.8062359376548685e+01 
76 1 2 1.0245093784938717e+00 -4.3036960879757402e+02 1.0000000000000000e+00 1.5985800727026660e+00 9.5269256877406505e+00 1.8669841074629836e+01 
19 1 2 1.0269338297333142e+00 -4.0215752806318881e+02 1.0000000000000000e+00 1.6370072178422870e+00 9.4280668659702656e+00 1.8594466542444643e+01 
64 1 2 1.0290747842101946e+00 -3.6466091162818697e+02 1.0000000000000000e+00 3.1982391651323767e+00 1.8206877361421007e+01 4.9177469715296072e+00 
21 1 2 1.0290751366085942e+00 -4.1632362234746944e+02 1.0000000000000000e+00 3.1973978187510368e+00 1.8205829775798605e+01 4.9184331035703996e+00 
96 1 2 1.0290751159840927e+00 -3.1350323032600699e+02 1.0000000000000000e+00 3.1974793456941204e+00 1.8205914963891036e+01 4.9183721936832612e+00 
88 1 2 1.0290751081619003e+00 -3.8190495864254632e+02 1.0000000000000000e+00 3.1974768238752826e+00 1.8205930525562348e+01 4.9183677106312436e+00 
179 1 2 1.0290751080814735e+00 -4.2346349055759708e+02 1.0000000000000000e+00 3.1974882620943470e+00 1.8205936250611671e+01 4.9183613456486102e+00 
138 1 2 1.0290750935655597e+00 -4.1068115236050301e+02 1.0000000000000000e+00 3.1975480600647299e+00 1.8205995729403210e+01 4.9183177389492334e+00 
87 1 2 1.0290750889697045e+00 -3.6903633370685583e+02 1.0000000000000000e+00 3.1975475128131468e+00 1.8206005214350988e+01 4.9183146301847005e+00 
118 1 2 1.0290750887167348e+00 -4.1053718430125042e+02 1.0000000000000000e+00 3.1975478088789520e+00 1.8206005889094470e+01 4.9183142813243830e+00 
177 1 2 1.0290750966740110e+00 -2.9867694711978174e+02 1.0000000000000000e+00 3.1975356500199279e+00 1.8205983275250908e+01 4.9183268263678359e+00 
117 1 2 1.0290749790851781e+00 -3.4166711458883361e+02 1.0000000000000000e+00 3.1978448299494047e+00 1.8206360508311434e+01 4.9180772021474484e+00 
75 1 2 1.0290716637482549e+00 -3.4003078682570600e+02 1.0000000000000000e+00 3.1888834129131691e+00 1.8197220232233342e+01 4.9248224183600025e+00 
154 1 2 1.0286791840540714e+00 -4.2564394110176704e+02 1.0000000000000000e+00 3.4418317388448796e+00 1.8215890132473039e+01 6.9691103476344116e+00 
38 1 2 1.0262082458909332e+00 -4.9967075102759281e+02 1.0000000000000000e+00 4.1076541837098874e+00 1.9303360236212029e+01 7.3494917610676040e+00 
45 1 2 1.0262187047738953e+00 -3.4461973886380127e+02 1.0000000000000000e+00 4.1134786664384633e+00 1.9298707403920204e+01 7.3491413514192336e+00 
39 1 2 1.0262186565160243e+00 -3.4960854796380085e+02 1.0000000000000000e+00 4.1134151943441619e+00 1.9298749226473092e+01 7.3491506167725946e+00 
2 1 2 1.0262186568376177e+00 -3.1219703246720604e+02 1.0000000000000000e+00 4.1134156194954281e+00 1.9298748946665494e+01 7.3491505545911151e+00 
8 1 2 1.0262186573145291e+00 -2.8413913139093592e+02 1.0000000000000000e+00 4.1134162461704378e+00 1.9298748533806737e+01 7.3491504631526201e+00 
67 1 2 1.0262186879683703e+00 -4.8018339182859148e+02 1.0000000000000000e+00 4.1134567081854341e+00 1.9298721891316671e+01 7.3491445487692868e+00 
44 1 2 1.0262186564897735e+00 -2.8964282545142731e+02 1.0000000000000000e+00 4.1134151594733934e+00 1.9298749249408107e+01 7.3491506218800948e+00 
1 1 2 1.0262186565583773e+00 -5.8113765323854818e+02 1.0000000000000000e+00 4.1134152474928705e+00 1.9298749191187166e+01 7.3491506091582082e+00 
173 1 2 1.0292341231178732e+00 -4.4584050581128758e+02 1.0000000000000000e+00 4.4536867440876646e+00 1.8474426151324735e+01 6.8208161532548619e+00 
80 1 2 1.0264643569199121e+00 -3.2971330040788501e+02 1.0000000000000000e+00 4.3379305535851191e+00 1.8933614641056064e+01 7.2259033062029552e+00 
176 1 2 1.0285599994273786e+00 -3.5294511785990289e+02 1.0000000000000000e+00 1.7711587328978644e+00 1.2335081588012054e+01 1.9692076415765847e+01 
175 1 2 1.0285658897541747e+00 -4.2300762299973593e+02 1.0000000000000000e+00 1.6523895028086302e+00 1.2073369366264032e+01 1.9872014267243543e+01 
61 1 2 1.0275018064256369e+00 -3.7968179542895552e+02 1.0000000000000000e+00 2.2686562049639480e+00 1.2273635795563107e+01 1.9128685459269207e+01 
22 1 2 1.0275016881199175e+00 -2.7855865521044734e+02 1.0000000000000000e+00 2.2647679171401918e+00 1.2278435547567646e+01 1.9131775449295194e+01 
144 1 2 1.0275000458431638e+00 -4.9807768577194366e+02 1.0000000000000000e+00 2.2459927772893309e+00 1.2300343860835321e+01 1.9146831465108054e+01 
170 1 2 1.0285665843643543e+00 -3.7564646252965787e+02 1.0000000000000000e+00 1.6522862301882442e+00 1.2072630367625861e+01 1.9872361616354244e+01 
7 1 2 1.0274980753900185e+00 -3.4809140950864861e+02 1.0000000000000000e+00 2.2289123982625356e+00 1.2318592856423784e+01 1.9160765326969095e+01 
13 1 2 1.0274974210870469e+00 -4.0097576282800770e+02 1.0000000000000000e+00 2.2196006265640706e+00 1.2327921163494787e+01 1.9168476283992739e+01 
121 1 2 1.0275160374162355e+00 -2.8531088645191920e+02 1.0000000000000000e+00 2.1635831653738467e+00 1.2375817479603672e+01 1.9217079616011695e+01 
169 1 2 1.0277805065166348e+00 -4.0489380241815866e+02 1.0000000000000000e+00 2.0431390618884313e+00 1.2437250627527089e+01 1.9340914922487148e+01 
4 1 2 1.0285247598320744e+00 -4.2713586970470391e+02 1.0000000000000000e+00 1.9462479342147534e+00 1.0843301591048268e+01 1.9657539469343664e+01 
40 1 2 1.0285245934021241e+00 -4.2865943056325972e+02 1.0000000000000000e+00 1.9464548159302770e+00 1.0843280214108278e+01 1.9657484683345160e+01 
3 1 2 1.0285194686161410e+00 -4.7275028715153599e+02 1.0000000000000000e+00 1.9522267881627331e+00 1.0844602842790168e+01 1.9657451975763777e+01 
135 1 2 1.0286757779387876e+00 -2.4247916134417889e+02 1.0000000000000000e+00 1.8314994290017472e+00 1.2389837799922530e+01 1.9618048949570912e+01 
171 1 2 1.0285632522131636e+00 -3.1193826603968699e+02 1.0000000000000000e+00 1.6913984454410351e+00 1.1581728611891721e+01 1.9969219698790624e+01 
91 1 2 1.0337504602346523e+00 -2.3796302751532025e+02 1.0000000000000000e+00 9.1867264645401505e+00 2.6938679213884564e-01 1.1934617483082535e+01 
125 1 2 1.0301550686070098e+00 -3.3732958537876573e+02 1.0000000000000000e+00 9.3998260575021302e+00 1.9925028456509525e-01 1.1847122667922310e+01 
55 1 2 1.0276905387353850e+00 -3.7397814724441992e+02 1.0000000000000000e+00 9.6340741869894959e+00 6.6668793940988236e-02 1.1806167785007355e+01 
57 1 2 1.0277179190198631e+00 -3.8514925149584064e+02 1.0000000000000000e+00 9.6345205451360307e+00 6.6159295905196022e-02 1.1806044631463280e+01 
143 1 2 1.0273717554831852e+00 -4.6628216519883364e+02 1.0000000000000000e+00 9.6494677154233255e+00 4.1784203440950976e-02 1.1759769327753277e+01 
122 1 2 1.0292696830912842e+00 -4.0459245709103851e+02 1.0000000000000000e+00 1.1958443282698205e+01 1.6426236360460415e+01 1.1389210299590834e+01 
151 1 2 1.0292690607429553e+00 -4.7022354097468275e+02 1.0000000000000000e+00 1.1958147973600822e+01 1.6427186888448698e+01 1.1388625969196944e+01 
152 1 2 1.0289849534608917e+00 -4.3181395034075734e+02 1.0000000000000000e+00 1.2208272339785333e+01 1.6547712343710536e+01 1.1383712399502494e+01 
123 1 2 1.0292955899659679e+00 -3.2442125719368357e+02 1.0000000000000000e+00 1.1928109784153305e+01 1.6390281429957358e+01 1.1406218330150832e+01 
100 1 2 1.0289952558470254e+00 -3.4704079958547345e+02 1.0000000000000000e+00 1.2203092654486351e+01 1.6507158947613021e+01 1.1408363369741167e+01 
101 1 2 1.0289952558470150e+00 -3.3212875289161161e+02 1.0000000000000000e+00 1.2203092654754375e+01 1.6507158946729675e+01 1.1408363370462219e+01 
95 1 2 1.0289952563766711e+00 -3.4684211595511795e+02 1.0000000000000000e+00 1.2203089044010014e+01 1.6507171202867429e+01 1.1408353417878569e+01 
92 1 2 1.0290799195951275e+00 -3.8867790073966893e+02 1.0000000000000000e+00 1.2105164109780898e+01 1.6003022405074923e+01 1.1790514630376107e+01 
159 1 2 1.0287129284049832e+00 -3.3487366871675130e+02 1.0000000000000000e+00 1.2099927593042263e+01 1.5884523706439122e+01 1.1932522360182654e+01 
137 1 2 1.0284457626893519e+00 -4.6119744763572260e+02 1.0000000000000000e+00 1.2059287865839584e+01 1.5805661875745153e+01 1.2002487502524486e+01 
164 1 2 1.0280243406147866e+00 -3.3853629750883317e+02 1.0000000000000000e+00 1.1367822914057134e+01 1.5195033344238258e+01 1.2731378087118198e+01 
58 1 2 1.0247756231236789e+00 -3.9741460665506804e+02 1.0000000000000000e+00 8.1823861661744086e+00 1.9944357040298311e+01 1.2115220213103516e+01 
65 1 2 1.0247756231291130e+00 -4.1349960577797685e+02 1.0000000000000000e+00 8.1823861658119696e+00 1.9944357039999474e+01 1.2115220212799978e+01 
107 1 2 1.0247750954763728e+00 -3.3052461945420697e+02 1.0000000000000000e+00 8.1824214943208631e+00 1.9944386044650589e+01 1.2115249777721200e+01 
180 1 2 1.0301367307048575e+00 -4.1202825952604468e+02 1.0000000000000000e+00 8.4799627854606587e+00 1.9757681262953028e+01 1.1260964122048330e+01 
102 1 2 1.0294743130871098e+00 -3.7828595566639837e+02 1.0000000000000000e+00 8.6262048722198958e+00 1.9759695752404337e+01 1.1244800535860540e+01 
43 1 2 1.0294796370750070e+00 -3.8589543777306545e+02 1.0000000000000000e+00 8.6280144519380766e+00 1.9763144531638488e+01 1.1243788966126328e+01 
153 1 2 1.0289219582025833e+00 -3.8537314599062438e+02 1.0000000000000000e+00 1.1893144167891990e+01 1.6931816641924392e+01 1.1174230891650630e+01 
14 1 2 1.0331002432087670e+00 -3.8844367052238539e+02 1.0000000000000000e+00 1.0562557620049651e+01 1.8560734021249587e+01 1.2605529978248828e+01 
68 1 2 1.0252010527397355e+00 -3.0359201778549294e+02 1.0000000000000000e+00 1.0970841762137518e+01 1.8301697902868916e+01 1.2796106373935427e+01 
79 1 2 1.0254867792707809e+00 -3.5960353560431560e+02 1.0000000000000000e+00 1.0646337775706220e+01 1.9347789673726847e+01 1.2122367735725936e+01 
98 1 2 1.0247909723622086e+00 -3.9307698637919418e+02 1.0000000000000000e+00 1.0469587677705119e+01 1.8768455484907150e+01 1.2591091883449741e+01 
97 1 2 1.0252470629900126e+00 -3.8816905670624129e+02 1.0000000000000000e+00 1.0444086531149134e+01 1.8737053455373097e+01 1.2595028153215740e+01 
9 1 2 1.0240352387607785e+00 -4.5075983641449193e+02 1.0000000000000000e+00 1.0463709041496536e+01 1.8327597363490270e+01 1.2687618392222850e+01 
33 1 2 1.0284588356321474e+00 -3.4349587612355435e+02 1.0000000000000000e+00 1.3165987505789523e+01 1.9430305315128702e+01 1.1668995892559101e+01 
166 1 2 1.0241606536745018e+00 -5.2839212747734234e+02 1.0000000000000000e+00 1.0582700308447839e+01 1.8777344971510001e+01 1.2589859605368527e+01 
24 1 2 1.0277665359732797e+00 -3.8543748658999357e+02 1.0000000000000000e+00 1.0154576839099789e+01 1.1853531710151184e+01 1.4472383462222746e+01 
23 1 2 1.0277665359733197e+00 -4.9893985464243747e+02 1.0000000000000000e+00 1.0154576838938773e+01 1.1853531710192096e+01 1.4472383462176030e+01 
29 1 2 1.0277665359806794e+00 -3.6562014152551279e+02 1.0000000000000000e+00 1.0154576820472965e+01 1.1853531714633391e+01 1.4472383463019534e+01 
35 1 2 1.0277665359733159e+00 -3.8102625791787250e+02 1.0000000000000000e+00 1.0154576838950835e+01 1.1853531710189300e+01 1.4472383462173347e+01 
6 1 2 1.0277665359759167e+00 -3.2712060858613148e+02 1.0000000000000000e+00 1.0154576832698769e+01 1.1853531711683548e+01 1.4472383462694369e+01 
66 1 2 1.0277665359781116e+00 -3.5737293361551667e+02 1.0000000000000000e+00 1.0154576826963300e+01 1.1853531713074057e+01 1.4472383462688894e+01 
71 1 2 1.0277665359732717e+00 -4.3540271540449493e+02 1.0000000000000000e+00 1.0154576839095567e+01 1.1853531710152339e+01 1.4472383462217906e+01 
5 1 2 1.0277665359732018e+00 -3.1432454915618735e+02 1.0000000000000000e+00 1.0154576839232954e+01 1.1853531710118984e+01 1.4472383462215600e+01 
30 1 2 1.0277665359780790e+00 -4.2488644004132306e+02 1.0000000000000000e+00 1.0154576827079358e+01 1.1853531713045193e+01 1.4472383462707738e+01 
72 1 2 1.0277665359767252e+00 -4.3479193542121124e+02 1.0000000000000000e+00 1.0154576830606276e+01 1.1853531712187708e+01 1.4472383462764848e+01 
60 1 2 1.0277665359772110e+00 -4.1500971458612827e+02 1.0000000000000000e+00 1.0154576829369336e+01 1.1853531712490666e+01 1.4472383462696778e+01 
59 1 2 1.0277665359752188e+00 -3.5966174894799349e+02 1.0000000000000000e+00 1.0154576834463185e+01 1.1853531711258499e+01 1.4472383462630198e+01 
36 1 2 1.0277665359732828e+00 -4.1439474517090866e+02 1.0000000000000000e+00 1.0154576839081654e+01 1.1853531710155536e+01 1.4472383462223009e+01 
127 1 2 1.0280418455427596e+00 -3.2818359756246718e+02 1.0000000000000000e+00 1.0887266959854172e+01 1.5577855927717724e+01 1.4596617853012402e+01 
141 1 2 1.0280418449040591e+00 -2.5813870832675883e+02 1.0000000000000000e+00 1.0887266603806438e+01 1.5577856243447341e+01 1.4596617673114149e+01 
133 1 2 1.0280418446788575e+00 -4.3713294760560308e+02 1.0000000000000000e+00 1.0887266474775409e+01 1.5577856354765226e+01 1.4596617608908959e+01 
15 1 2 1.0280418467767372e+00 -4.6049510261659799e+02 1.0000000000000000e+00 1.0887267631570870e+01 1.5577855318151533e+01 1.4596618196840037e+01 
81 1 2 1.0280418637372952e+00 -3.6503820095118868e+02 1.0000000000000000e+00 1.0887271511088091e+01 1.5577847049608378e+01 1.4596621696090940e+01 
108 1 2 1.0280415401417204e+00 -4.4542577108216443e+02 1.0000000000000000e+00 1.0886701298044693e+01 1.5578012708203111e+01 1.4596441633254798e+01 
82 1 2 1.0280415083131766e+00 -3.7113118103374683e+02 1.0000000000000000e+00 1.0886659059471954e+01 1.5578028571304310e+01 1.4596427122427659e+01 
126 1 2 1.0280396593254266e+00 -3.3917399664967769e+02 1.0000000000000000e+00 1.0884652292407454e+01 1.5578916422193814e+01 1.4595690330580751e+01 
157 1 2 1.0289346180948111e+00 -4.1019146751720643e+02 1.0000000000000000e+00 1.0678218342655267e+01 1.4143226868869649e+01 1.4899000130378734e+01 
163 1 2 1.0273949309310908e+00 -3.6820259292850233e+02 1.0000000000000000e+00 1.1313515148399018e+01 1.4735964207906385e+01 1.4512354176628568e+01 
134 1 2 1.0280418683477379e+00 -4.1277713822668977e+02 1.0000000000000000e+00 1.0887261802015578e+01 1.5577845022953024e+01 1.4596620180993591e+01 
132 1 2 1.0280418470530754e+00 -3.4975479166759203e+02 1.0000000000000000e+00 1.0887267778350736e+01 1.5577855181722601e+01 1.4596618273000743e+01 
165 1 2 1.0275829266909140e+00 -3.5297360250442279e+02 1.0000000000000000e+00 1.7854603380744056e+01 4.0374523447842448e-01 9.8337709380855856e+00 
77 1 2 1.0275952203197738e+00 -3.2415690442263616e+02 1.0000000000000000e+00 1.7852682153888185e+01 4.0443944293943296e-01 9.8331172522479555e+00 
42 1 2 1.0275951800358121e+00 -3.7819640464926914e+02 1.0000000000000000e+00 1.7852686494532271e+01 4.0444026094232205e-01 9.8331165630471755e+00 
78 1 2 1.0275952108218844e+00 -3.8900926714001298e+02 1.0000000000000000e+00 1.7852683177630563e+01 4.0443964356531820e-01 9.8331170830586991e+00 
41 1 2 1.0275952064227853e+00 -3.3611026924422902e+02 1.0000000000000000e+00 1.7852683651711960e+01 4.0443973468917110e-01 9.8331170062472300e+00 
48 1 2 1.0275952914894682e+00 -3.7294672222494518e+02 1.0000000000000000e+00 1.7852674128511044e+01 4.0443170918840765e-01 9.8331238849384679e+00 
37 1 2 1.0275941664668433e+00 -5.8102730032970146e+02 1.0000000000000000e+00 1.7852795578776519e+01 4.0445808011533829e-01 9.8331016110971454e+00 
51 1 2 1.0275946386731882e+00 -3.3686184586192633e+02 1.0000000000000000e+00 1.7852744539456307e+01 4.0444439410338190e-01 9.8331132175714622e+00 
168 1 2 1.0275946871853503e+00 -4.0994091316217697e+02 1.0000000000000000e+00 1.7852739391783526e+01 4.0444568035532441e-01 9.8331120877932090e+00 
174 1 2 1.0275943588591085e+00 -4.9823588185284461e+02 1.0000000000000000e+00 1.7852774859900286e+01 4.0445481044780962e-01 9.8331043495726291e+00 
128 1 2 1.0270882448933574e+00 -3.1243851893731573e+02 1.0000000000000000e+00 1.7861746125301611e+01 4.3121333033524856e-01 9.8084302881733976e+00 
131 1 2 1.0288453564605291e+00 -3.8312529715250179e+02 1.0000000000000000e+00 1.8871479031607635e+01 2.7815438196706124e+00 1.1667984934615346e+01 
12 1 2 1.0289450430866047e+00 -4.7845622014596228e+02 1.0000000000000000e+00 1.8907609160202920e+01 2.7678588061741709e+00 1.1685064208341931e+01 
11 1 2 1.0289446924544858e+00 -4.3620379971241312e+02 1.0000000000000000e+00 1.8907521769074975e+01 2.7677437063238051e+00 1.1685207766759595e+01 
10 1 2 1.0289407694141559e+00 -3.8458511356870554e+02 1.0000000000000000e+00 1.8906171011105830e+01 2.7669948631762766e+00 1.1686168072710169e+01 
54 1 2 1.0289407748592536e+00 -3.5521577644432080e+02 1.0000000000000000e+00 1.8906179939595042e+01 2.7669876085549978e+00 1.1686176548624779e+01 
52 1 2 1.0289405618594694e+00 -2.8731154727709765e+02 1.0000000000000000e+00 1.8906117015309420e+01 2.7669375889511509e+00 1.1686239462975422e+01 
46 1 2 1.0289405554338724e+00 -3.1793191691005489e+02 1.0000000000000000e+00 1.8906110758600175e+01 2.7669411378570228e+00 1.1686235385163389e+01 
16 1 2 1.0289404874391470e+00 -3.5010995394208555e+02 1.0000000000000000e+00 1.8906090840605348e+01 2.7669250442211157e+00 1.1686255611014525e+01 
47 1 2 1.0289401088649861e+00 -3.3299542977288269e+02 1.0000000000000000e+00 1.8905976478212761e+01 2.7668400665492960e+00 1.1686362695437987e+01 
53 1 2 1.0289400293155126e+00 -2.7611660950765770e+02 1.0000000000000000e+00 1.8905958762023150e+01 2.7668151168166575e+00 1.1686393557276642e+01 
17 1 2 1.0289398487947756e+00 -3.4849378551132730e+02 1.0000000000000000e+00 1.8905906315186467e+01 2.7667727065075729e+00 1.1686446800629763e+01 
140 1 2 1.0289527730440722e+00 -3.6251463955636484e+02 1.0000000000000000e+00 1.8910631740338172e+01 2.7692158672683878e+00 1.1683279577663443e+01 
129 1 2 1.0149978952983585e+00 -2.7759149534876320e+02 1.0000000000000000e+00 1.7647308518298388e+01 1.6219480101031908e-01 1.0061358710556821e+01 
26 1 2 1.0293486446977087e+00 -3.1738189627575372e+02 1.0000000000000000e+00 1.4423245714220565e+01 1.9639250373161101e+01 1.0987870459225350e+01 
105 1 2 1.0298180924988807e+00 -2.9830255221419395e+02 1.0000000000000000e+00 1.4382632542283224e+01 1.9461345038948778e+01 1.0831937840567790e+01 
63 1 2 1.0298030245792549e+00 -3.7440891368578667e+02 1.0000000000000000e+00 1.4382981926277500e+01 1.9459723012595973e+01 1.0831500780819441e+01 
104 1 2 1.0297094769888253e+00 -2.8662685413062707e+02 1.0000000000000000e+00 1.4392842497475844e+01 1.9445181376597937e+01 1.0830893153264658e+01 
69 1 2 1.0295485479146436e+00 -4.3902199971954417e+02 1.0000000000000000e+00 1.4400459498315106e+01 1.9429893309294975e+01 1.0829718052705623e+01 
18 1 2 1.0298379013033385e+00 -3.0651028200167463e+02 1.0000000000000000e+00 1.4415312384229665e+01 1.9447908086357995e+01 1.0841528498640724e+01 
34 1 2 1.0300582962495279e+00 -4.8833667212125323e+02 1.0000000000000000e+00 1.4405457646257270e+01 1.9376028423896731e+01 1.0837527250769236e+01 
139 1 2 1.0301761247646564e+00 -3.6391247736826466e+02 1.0000000000000000e+00 1.4451467312563045e+01 1.9386669033979228e+01 1.0863820086849470e+01 
99 1 2 1.0244873912429768e+00 -2.9011604618229745e+02 1.0000000000000000e+00 1.4078175752831845e+01 1.9673463243370534e+01 1.1377726954823224e+01 
136 1 2 1.0244930041445601e+00 -3.1380149261768440e+02 1.0000000000000000e+00 1.4078127349949987e+01 1.9673461846474080e+01 1.1377665768234747e+01 
158 1 2 1.0233657139099688e+00 -4.7219073801407154e+02 1.0000000000000000e+00 1.4101942780615278e+01 1.9674819209980743e+01 1.1383508132015042e+01 
116 1 2 1.0240975096347276e+00 -4.7221986274044292e+02 1.0000000000000000e+00 1.3973964247617751e+01 1.9613272549906803e+01 1.1493437838504821e+01 
130 1 2 1.0240089359667830e+00 -3.9896859390286386e+02 1.0000000000000000e+00 1.3346732406159836e+01 1.8991902247926163e+01 1.2000226816045133e+01 

Velocities

86 -1.0620222503749270e-02 -5.4406607556084015e-02 -9.4132747694119154e-02
73 3.5823601636400998e-02 -6.5231588471555760e-02 -1.2459755535581219e-02
109 3.5823598456131561e-02 -6.5231581604649549e-02 -1.2459755486062886e-02
110 3.5823607431148569e-02 -6.5231602755856127e-02 -1.2459756253025088e-02
111 3.5823595566468094e-02 -6.5231573798506887e-02 -1.2459754886222703e-02
74 3.5823598778379914e-02 -6.5231582232363458e-02 -1.2459755467307834e-02
56 -4.6524070620090271e-03 4.8895108903823599e-02 -5.2952892194527805e-02
85 -2.9399867390208573e-02 5.5288735514164168e-02 -3.7386929044305607e-02
112 3.7336946932779821e-02 -3.8072347732495827e-02 -4.5391254669148182e-03
142 3.7336947056122533e-02 -3.8072347713829474e-02 -4.5391254242624470e-03
178 3.7336946994477344e-02 -3.8072347723248759e-02 -4.5391254455584718e-03
147 3.7336946979659932e-02 -3.8072347725427974e-02 -4.5391254506652740e-03
148 3.7336946984344983e-02 -3.8072347724674320e-02 -4.5391254490867840e-03
146 3.7336946988743222e-02 -3.8072347723996633e-02 -4.5391254475585299e-03
62 3.8009758548804992e-02 -3.7002400138127278e-02 -7.5584312694332760e-03
124 3.9394385939765908e-02 -2.3809527061160782e-02 -5.0430976558426543e-03
103 -1.3386621840837354e-02 -2.7370631407205550e-02 -1.8009658864388767e-02
162 6.4044051869267246e-02 -7.6268910332226653e-03 5.0437892875706332e-02
50 -3.2445326738180576e-02 -4.6525716538220512e-02 -2.1822296217084449e-02
145 -6.3659109071552977e-02 -3.9318341779475366e-02 -2.9488498702179029e-02
113 -6.3627864403901835e-02 -3.9322410507807562e-02 -2.9442998382685746e-02
149 -6.3636989809729441e-02 -3.9320760236345287e-02 -2.9454962594632296e-02
156 -6.3644821600283327e-02 -3.9319630516064220e-02 -2.9465948151669766e-02
114 -6.3646057641463721e-02 -3.9319477414965644e-02 -2.9467753534252534e-02
150 -6.3657231226891597e-02 -3.9318450064168425e-02 -2.9485295068547031e-02
155 -6.3837173019249321e-02 -3.9020156408241136e-02 -2.9940461001603323e-02
161 -6.7860225603010263e-02 -3.7008732357556168e-02 -3.2945538625466786e-02
94 8.5168112542423347e-03 -2.9097613791026492e-02 4.9902978275791592e-02
32 7.1653013275594143e-03 -3.2001388267005305e-02 4.8198886032356433e-02
25 7.1653013275086641e-03 -3.2001388267226732e-02 4.8198886032238396e-02
31 7.1652989493864892e-03 -3.2001398108483028e-02 4.8198878426227366e-02
106 6.1654399860185533e-03 -3.5261623652756667e-02 4.7934560995588467e-02
28 5.1838049429137499e-03 -3.5232192063906126e-02 4.8715245622272155e-02
20 -2.0302339341764408e-01 -3.1520328842655071e-02 -7.5972996338821056e-02
115 -1.0952146119475424e-01 -2.9439619939285466e-02 2.0328080262179353e-02
49 -8.1833948277355240e-02 1.6455077094989770e-03 1.6810971695333085e-01
27 -1.2534903072271000e-01 1.9454702706418629e-02 1.7618376715340861e-01
70 -1.2528131508486362e-01 1.9374114881696349e-02 1.7613140392488555e-01
172 -1.2651324558021099e-01 2.0012203648959365e-02 1.7682119928857853e-01
167 -1.2221988546929079e-01 2.2221321780352136e-02 1.8135948100709717e-01
93 -1.2132519495186807e-01 5.1049535355449137e-04 1.7208175553058058e-01
160 -1.1624678183795113e-01 -3.5099214801177117e-03 1.7882744034345471e-01