LAMMPS data file via write_data, version 30 Jul 2016, timestep = 50400000

4620 atoms
8 atom types

0.0000000000000000e+00 1.0000000000000000e+02 xlo xhi
0.0000000000000000e+00 4.0000000000000000e+01 ylo yhi
0.0000000000000000e+00 4.0000000000000000e+01 zlo zhi

Masses

1 3.896
2 5.36
3 20.064
4 8.378
5 8.378
6 8.378
7 8.378
8 8.378

Atoms # meso-molecular

1 2 2 1.4430888310667962e+00 -7.7281722784906721e-08 1.0000000000000000e+00 6.1836603433066086e+00 9.1836637885246439e+00 2.1836606565040446e+00 
2 3 2 1.4430888310667962e+00 -1.0304229666600146e-07 1.0000000000000000e+00 8.1920017261741727e+00 9.1836637885246439e+00 2.1836606565040446e+00 
3 4 2 1.4430888310667962e+00 -1.0304229627680417e-07 1.0000000000000000e+00 1.0193007479811328e+01 9.1836637885246439e+00 2.1836606565040446e+00 
4 5 2 1.4430888310667962e+00 -1.0304229634043973e-07 1.0000000000000000e+00 1.2193311151728171e+01 9.1836637885246439e+00 2.1836606565040446e+00 
5 6 2 1.4430888310667962e+00 -1.0304229616022214e-07 1.0000000000000000e+00 1.4193572955201047e+01 9.1836637885246439e+00 2.1836606565040446e+00 
6 7 2 1.4430888310667962e+00 -1.0304229602088149e-07 1.0000000000000000e+00 1.6194211364705417e+01 9.1836637885246439e+00 2.1836606565040446e+00 
7 8 2 1.4430888310667962e+00 -1.0304229620407490e-07 1.0000000000000000e+00 1.8195655075774031e+01 9.1836637885246439e+00 2.1836606565040446e+00 
8 9 2 1.4430888310667962e+00 -1.0304229618090333e-07 1.0000000000000000e+00 2.0198476807475870e+01 9.1836637885246439e+00 2.1836606565040446e+00 
9 10 2 1.4430888310667962e+00 -1.0304229623870089e-07 1.0000000000000000e+00 2.2203460148487043e+01 9.1836637885246439e+00 2.1836606565040446e+00 
10 11 2 1.4430888310667962e+00 -1.0304229639178011e-07 1.0000000000000000e+00 2.4211626059208506e+01 9.1836637885246439e+00 2.1836606565040446e+00 
11 12 2 1.4430888310667962e+00 -1.0304229630291239e-07 1.0000000000000000e+00 2.6224249013286812e+01 9.1836637885246439e+00 2.1836606565040446e+00 
12 13 2 1.4430888310667962e+00 -1.0304229631703770e-07 1.0000000000000000e+00 2.8242856877099072e+01 9.1836637885246439e+00 2.1836606565040446e+00 
13 14 2 1.4430888310667962e+00 -1.0304229578769081e-07 1.0000000000000000e+00 3.0269208800362133e+01 9.1836637885246439e+00 2.1836606565040446e+00 
14 15 2 1.4430888310667962e+00 -1.0304229556241078e-07 1.0000000000000000e+00 3.2305234499916587e+01 9.1836637885246439e+00 2.1836606565040446e+00 
463 464 2 1.4430888310667962e+00 -1.0304229670681444e-07 1.0000000000000000e+00 6.1836603433066086e+00 1.1199656775398154e+01 2.1836606565040446e+00 
464 465 2 1.4430888310667962e+00 -1.2880287058791559e-07 1.0000000000000000e+00 8.1920017261741727e+00 1.1199656775398154e+01 2.1836606565040446e+00 
465 466 2 1.4430888310667962e+00 -1.2880287019870792e-07 1.0000000000000000e+00 1.0193007479811328e+01 1.1199656775398154e+01 2.1836606565040446e+00 
466 467 2 1.4430888310667962e+00 -1.2880287026234198e-07 1.0000000000000000e+00 1.2193311151728171e+01 1.1199656775398154e+01 2.1836606565040446e+00 
467 468 2 1.4430888310667962e+00 -1.2880287008211211e-07 1.0000000000000000e+00 1.4193572955201047e+01 1.1199656775398154e+01 2.1836606565040446e+00 
468 469 2 1.4430888310667962e+00 -1.2880286994279279e-07 1.0000000000000000e+00 1.6194211364705417e+01 1.1199656775398154e+01 2.1836606565040446e+00 
469 470 2 1.4430888310667962e+00 -1.2880287012599504e-07 1.0000000000000000e+00 1.8195655075774031e+01 1.1199656775398154e+01 2.1836606565040446e+00 
470 471 2 1.4430888310667962e+00 -1.2880287010280068e-07 1.0000000000000000e+00 2.0198476807475870e+01 1.1199656775398154e+01 2.1836606565040446e+00 
471 472 2 1.4430888310667962e+00 -1.2880287016060385e-07 1.0000000000000000e+00 2.2203460148487043e+01 1.1199656775398154e+01 2.1836606565040446e+00 
472 473 2 1.4430888310667962e+00 -1.2880287031369166e-07 1.0000000000000000e+00 2.4211626059208506e+01 1.1199656775398154e+01 2.1836606565040446e+00 
473 474 2 1.4430888310667962e+00 -1.2880287022481686e-07 1.0000000000000000e+00 2.6224249013286812e+01 1.1199656775398154e+01 2.1836606565040446e+00 
474 475 2 1.4430888310667962e+00 -1.2880287023894712e-07 1.0000000000000000e+00 2.8242856877099072e+01 1.1199656775398154e+01 2.1836606565040446e+00 
475 476 2 1.4430888310667962e+00 -1.2880286970959975e-07 1.0000000000000000e+00 3.0269208800362133e+01 1.1199656775398154e+01 2.1836606565040446e+00 
476 477 2 1.4430888310667962e+00 -1.2880286948431570e-07 1.0000000000000000e+00 3.2305234499916587e+01 1.1199656775398154e+01 2.1836606565040446e+00 
925 926 2 1.4430888310667962e+00 -1.0304229636111589e-07 1.0000000000000000e+00 6.1836603433066086e+00 1.3263773598940501e+01 2.1836606565040446e+00 
926 927 2 1.4430888310667962e+00 -1.2880287024221881e-07 1.0000000000000000e+00 8.1920017261741727e+00 1.3263773598940501e+01 2.1836606565040446e+00 
927 928 2 1.4430888310667962e+00 -1.2880286985300791e-07 1.0000000000000000e+00 1.0193007479811328e+01 1.3263773598940501e+01 2.1836606565040446e+00 
928 929 2 1.4430888310667962e+00 -1.2880286991664386e-07 1.0000000000000000e+00 1.2193311151728171e+01 1.3263773598940501e+01 2.1836606565040446e+00 
929 930 2 1.4430888310667962e+00 -1.2880286973641613e-07 1.0000000000000000e+00 1.4193572955201047e+01 1.3263773598940501e+01 2.1836606565040446e+00 
930 931 2 1.4430888310667962e+00 -1.2880286959709477e-07 1.0000000000000000e+00 1.6194211364705417e+01 1.3263773598940501e+01 2.1836606565040446e+00 
931 932 2 1.4430888310667962e+00 -1.2880286978029545e-07 1.0000000000000000e+00 1.8195655075774031e+01 1.3263773598940501e+01 2.1836606565040446e+00 
932 933 2 1.4430888310667962e+00 -1.2880286975710070e-07 1.0000000000000000e+00 2.0198476807475870e+01 1.3263773598940501e+01 2.1836606565040446e+00 
933 934 2 1.4430888310667962e+00 -1.2880286981490368e-07 1.0000000000000000e+00 2.2203460148487043e+01 1.3263773598940501e+01 2.1836606565040446e+00 
934 935 2 1.4430888310667962e+00 -1.2880286996799412e-07 1.0000000000000000e+00 2.4211626059208506e+01 1.3263773598940501e+01 2.1836606565040446e+00 
935 936 2 1.4430888310667962e+00 -1.2880286987911688e-07 1.0000000000000000e+00 2.6224249013286812e+01 1.3263773598940501e+01 2.1836606565040446e+00 
936 937 2 1.4430888310667962e+00 -1.2880286989324933e-07 1.0000000000000000e+00 2.8242856877099072e+01 1.3263773598940501e+01 2.1836606565040446e+00 
937 938 2 1.4430888310667962e+00 -1.2880286936390160e-07 1.0000000000000000e+00 3.0269208800362133e+01 1.3263773598940501e+01 2.1836606565040446e+00 
938 939 2 1.4430888310667962e+00 -1.2880286913861760e-07 1.0000000000000000e+00 3.2305234499916587e+01 1.3263773598940501e+01 2.1836606565040446e+00 
1387 1388 2 1.4430888310667962e+00 -1.0304229594192426e-07 1.0000000000000000e+00 6.1836603433066086e+00 1.5449026589954119e+01 2.1836606565040446e+00 
1388 1389 2 1.4430888310667962e+00 -1.2880286982302313e-07 1.0000000000000000e+00 8.1920017261741727e+00 1.5449026589954119e+01 2.1836606565040446e+00 
1389 1390 2 1.4430888310667962e+00 -1.2880286943381427e-07 1.0000000000000000e+00 1.0193007479811328e+01 1.5449026589954119e+01 2.1836606565040446e+00 
1390 1391 2 1.4430888310667962e+00 -1.2880286949745223e-07 1.0000000000000000e+00 1.2193311151728171e+01 1.5449026589954119e+01 2.1836606565040446e+00 
1391 1392 2 1.4430888310667962e+00 -1.2880286931722191e-07 1.0000000000000000e+00 1.4193572955201047e+01 1.5449026589954119e+01 2.1836606565040446e+00 
1392 1393 2 1.4430888310667962e+00 -1.2880286917790280e-07 1.0000000000000000e+00 1.6194211364705417e+01 1.5449026589954119e+01 2.1836606565040446e+00 
1393 1394 2 1.4430888310667962e+00 -1.2880286936110075e-07 1.0000000000000000e+00 1.8195655075774031e+01 1.5449026589954119e+01 2.1836606565040446e+00 
1394 1395 2 1.4430888310667962e+00 -1.2880286933791066e-07 1.0000000000000000e+00 2.0198476807475870e+01 1.5449026589954119e+01 2.1836606565040446e+00 
1395 1396 2 1.4430888310667962e+00 -1.2880286939571139e-07 1.0000000000000000e+00 2.2203460148487043e+01 1.5449026589954119e+01 2.1836606565040446e+00 
1396 1397 2 1.4430888310667962e+00 -1.2880286954879944e-07 1.0000000000000000e+00 2.4211626059208506e+01 1.5449026589954119e+01 2.1836606565040446e+00 
1397 1398 2 1.4430888310667962e+00 -1.2880286945992419e-07 1.0000000000000000e+00 2.6224249013286812e+01 1.5449026589954119e+01 2.1836606565040446e+00 
1398 1399 2 1.4430888310667962e+00 -1.2880286947405559e-07 1.0000000000000000e+00 2.8242856877099072e+01 1.5449026589954119e+01 2.1836606565040446e+00 
1399 1400 2 1.4430888310667962e+00 -1.2880286894470743e-07 1.0000000000000000e+00 3.0269208800362133e+01 1.5449026589954119e+01 2.1836606565040446e+00 
1400 1401 2 1.4430888310667962e+00 -1.2880286871942176e-07 1.0000000000000000e+00 3.2305234499916587e+01 1.5449026589954119e+01 2.1836606565040446e+00 
1849 1850 2 1.4430888310667962e+00 -1.0304229634975899e-07 1.0000000000000000e+00 6.1836603433066086e+00 1.7790158066277023e+01 2.1836606565040446e+00 
1850 1851 2 1.4430888310667962e+00 -1.2880287023086190e-07 1.0000000000000000e+00 8.1920017261741727e+00 1.7790158066277023e+01 2.1836606565040446e+00 
1851 1852 2 1.4430888310667962e+00 -1.2880286984165579e-07 1.0000000000000000e+00 1.0193007479811328e+01 1.7790158066277023e+01 2.1836606565040446e+00 
1852 1853 2 1.4430888310667962e+00 -1.2880286990529007e-07 1.0000000000000000e+00 1.2193311151728171e+01 1.7790158066277023e+01 2.1836606565040446e+00 
1853 1854 2 1.4430888310667962e+00 -1.2880286972506337e-07 1.0000000000000000e+00 1.4193572955201047e+01 1.7790158066277023e+01 2.1836606565040446e+00 
1854 1855 2 1.4430888310667962e+00 -1.2880286958574149e-07 1.0000000000000000e+00 1.6194211364705417e+01 1.7790158066277023e+01 2.1836606565040446e+00 
1855 1856 2 1.4430888310667962e+00 -1.2880286976893965e-07 1.0000000000000000e+00 1.8195655075774031e+01 1.7790158066277023e+01 2.1836606565040446e+00 
1856 1857 2 1.4430888310667962e+00 -1.2880286974574863e-07 1.0000000000000000e+00 2.0198476807475870e+01 1.7790158066277023e+01 2.1836606565040446e+00 
1857 1858 2 1.4430888310667962e+00 -1.2880286980355111e-07 1.0000000000000000e+00 2.2203460148487043e+01 1.7790158066277023e+01 2.1836606565040446e+00 
1858 1859 2 1.4430888310667962e+00 -1.2880286995663935e-07 1.0000000000000000e+00 2.4211626059208506e+01 1.7790158066277023e+01 2.1836606565040446e+00 
1859 1860 2 1.4430888310667962e+00 -1.2880286986776320e-07 1.0000000000000000e+00 2.6224249013286812e+01 1.7790158066277023e+01 2.1836606565040446e+00 
1860 1861 2 1.4430888310667962e+00 -1.2880286988189528e-07 1.0000000000000000e+00 2.8242856877099072e+01 1.7790158066277023e+01 2.1836606565040446e+00 
1861 1862 2 1.4430888310667962e+00 -1.2880286935254667e-07 1.0000000000000000e+00 3.0269208800362133e+01 1.7790158066277023e+01 2.1836606565040446e+00 
1862 1863 2 1.4430888310667962e+00 -1.2880286912725907e-07 1.0000000000000000e+00 3.2305234499916587e+01 1.7790158066277023e+01 2.1836606565040446e+00 
43 44 2 1.4430888310667962e+00 -1.0304229661676065e-07 1.0000000000000000e+00 6.1836603433066086e+00 9.1836637885246439e+00 4.1958719014502099e+00 
44 45 2 1.4430888310667962e+00 -1.2880287049785640e-07 1.0000000000000000e+00 8.1920017261741727e+00 9.1836637885246439e+00 4.1958719014502099e+00 
45 46 2 1.4430888310667962e+00 -1.2880287010864878e-07 1.0000000000000000e+00 1.0193007479811328e+01 9.1836637885246439e+00 4.1958719014502099e+00 
46 47 2 1.4430888310667962e+00 -1.2880287017228539e-07 1.0000000000000000e+00 1.2193311151728171e+01 9.1836637885246439e+00 4.1958719014502099e+00 
47 48 2 1.4430888310667962e+00 -1.2880286999206256e-07 1.0000000000000000e+00 1.4193572955201047e+01 9.1836637885246439e+00 4.1958719014502099e+00 
48 49 2 1.4430888310667962e+00 -1.2880286985274268e-07 1.0000000000000000e+00 1.6194211364705417e+01 9.1836637885246439e+00 4.1958719014502099e+00 
49 50 2 1.4430888310667962e+00 -1.2880287003593775e-07 1.0000000000000000e+00 1.8195655075774031e+01 9.1836637885246439e+00 4.1958719014502099e+00 
50 51 2 1.4430888310667962e+00 -1.2880287001274641e-07 1.0000000000000000e+00 2.0198476807475870e+01 9.1836637885246439e+00 4.1958719014502099e+00 
51 52 2 1.4430888310667962e+00 -1.2880287007054596e-07 1.0000000000000000e+00 2.2203460148487043e+01 9.1836637885246439e+00 4.1958719014502099e+00 
52 53 2 1.4430888310667962e+00 -1.2880287022363716e-07 1.0000000000000000e+00 2.4211626059208506e+01 9.1836637885246439e+00 4.1958719014502099e+00 
53 54 2 1.4430888310667962e+00 -1.2880287013475931e-07 1.0000000000000000e+00 2.6224249013286812e+01 9.1836637885246439e+00 4.1958719014502099e+00 
54 55 2 1.4430888310667962e+00 -1.2880287014889121e-07 1.0000000000000000e+00 2.8242856877099072e+01 9.1836637885246439e+00 4.1958719014502099e+00 
55 56 2 1.4430888310667962e+00 -1.2880286961954453e-07 1.0000000000000000e+00 3.0269208800362133e+01 9.1836637885246439e+00 4.1958719014502099e+00 
56 57 2 1.4430888310667962e+00 -1.2880286939425894e-07 1.0000000000000000e+00 3.2305234499916587e+01 9.1836637885246439e+00 4.1958719014502099e+00 
505 506 2 1.4430888310667962e+00 -1.2880287053866533e-07 1.0000000000000000e+00 6.1836603433066086e+00 1.1199656775398154e+01 4.1958719014502099e+00 
506 507 2 1.4430888310667962e+00 -1.5456344441977039e-07 1.0000000000000000e+00 8.1920017261741727e+00 1.1199656775398154e+01 4.1958719014502099e+00 
507 508 2 1.4430888310667962e+00 -1.5456344403055076e-07 1.0000000000000000e+00 1.0193007479811328e+01 1.1199656775398154e+01 4.1958719014502099e+00 
508 509 2 1.4430888310667962e+00 -1.5456344409418914e-07 1.0000000000000000e+00 1.2193311151728171e+01 1.1199656775398154e+01 4.1958719014502099e+00 
509 510 2 1.4430888310667962e+00 -1.5456344391396663e-07 1.0000000000000000e+00 1.4193572955201047e+01 1.1199656775398154e+01 4.1958719014502099e+00 
510 511 2 1.4430888310667962e+00 -1.5456344377464477e-07 1.0000000000000000e+00 1.6194211364705417e+01 1.1199656775398154e+01 4.1958719014502099e+00 
511 512 2 1.4430888310667962e+00 -1.5456344395784262e-07 1.0000000000000000e+00 1.8195655075774031e+01 1.1199656775398154e+01 4.1958719014502099e+00 
512 513 2 1.4430888310667962e+00 -1.5456344393465107e-07 1.0000000000000000e+00 2.0198476807475870e+01 1.1199656775398154e+01 4.1958719014502099e+00 
513 514 2 1.4430888310667962e+00 -1.5456344399245463e-07 1.0000000000000000e+00 2.2203460148487043e+01 1.1199656775398154e+01 4.1958719014502099e+00 
514 515 2 1.4430888310667962e+00 -1.5456344414553778e-07 1.0000000000000000e+00 2.4211626059208506e+01 1.1199656775398154e+01 4.1958719014502099e+00 
515 516 2 1.4430888310667962e+00 -1.5456344405666669e-07 1.0000000000000000e+00 2.6224249013286812e+01 1.1199656775398154e+01 4.1958719014502099e+00 
516 517 2 1.4430888310667962e+00 -1.5456344407080105e-07 1.0000000000000000e+00 2.8242856877099072e+01 1.1199656775398154e+01 4.1958719014502099e+00 
517 518 2 1.4430888310667962e+00 -1.5456344354145244e-07 1.0000000000000000e+00 3.0269208800362133e+01 1.1199656775398154e+01 4.1958719014502099e+00 
518 519 2 1.4430888310667962e+00 -1.5456344331616405e-07 1.0000000000000000e+00 3.2305234499916587e+01 1.1199656775398154e+01 4.1958719014502099e+00 
967 968 2 1.4430888310667962e+00 -1.2880287019296421e-07 1.0000000000000000e+00 6.1836603433066086e+00 1.3263773598940501e+01 4.1958719014502099e+00 
968 969 2 1.4430888310667962e+00 -1.5456344407407298e-07 1.0000000000000000e+00 8.1920017261741727e+00 1.3263773598940501e+01 4.1958719014502099e+00 
969 970 2 1.4430888310667962e+00 -1.5456344368485708e-07 1.0000000000000000e+00 1.0193007479811328e+01 1.3263773598940501e+01 4.1958719014502099e+00 
970 971 2 1.4430888310667962e+00 -1.5456344374849019e-07 1.0000000000000000e+00 1.2193311151728171e+01 1.3263773598940501e+01 4.1958719014502099e+00 
971 972 2 1.4430888310667962e+00 -1.5456344356826948e-07 1.0000000000000000e+00 1.4193572955201047e+01 1.3263773598940501e+01 4.1958719014502099e+00 
972 973 2 1.4430888310667962e+00 -1.5456344342895059e-07 1.0000000000000000e+00 1.6194211364705417e+01 1.3263773598940501e+01 4.1958719014502099e+00 
973 974 2 1.4430888310667962e+00 -1.5456344361214766e-07 1.0000000000000000e+00 1.8195655075774031e+01 1.3263773598940501e+01 4.1958719014502099e+00 
974 975 2 1.4430888310667962e+00 -1.5456344358895371e-07 1.0000000000000000e+00 2.0198476807475870e+01 1.3263773598940501e+01 4.1958719014502099e+00 
975 976 2 1.4430888310667962e+00 -1.5456344364675815e-07 1.0000000000000000e+00 2.2203460148487043e+01 1.3263773598940501e+01 4.1958719014502099e+00 
976 977 2 1.4430888310667962e+00 -1.5456344379984151e-07 1.0000000000000000e+00 2.4211626059208506e+01 1.3263773598940501e+01 4.1958719014502099e+00 
977 978 2 1.4430888310667962e+00 -1.5456344371096907e-07 1.0000000000000000e+00 2.6224249013286812e+01 1.3263773598940501e+01 4.1958719014502099e+00 
978 979 2 1.4430888310667962e+00 -1.5456344372509911e-07 1.0000000000000000e+00 2.8242856877099072e+01 1.3263773598940501e+01 4.1958719014502099e+00 
979 980 2 1.4430888310667962e+00 -1.5456344319575622e-07 1.0000000000000000e+00 3.0269208800362133e+01 1.3263773598940501e+01 4.1958719014502099e+00 
980 981 2 1.4430888310667962e+00 -1.5456344297046708e-07 1.0000000000000000e+00 3.2305234499916587e+01 1.3263773598940501e+01 4.1958719014502099e+00 
1429 1430 2 1.4430888310667962e+00 -1.2880286977377404e-07 1.0000000000000000e+00 6.1836603433066086e+00 1.5449026589954119e+01 4.1958719014502099e+00 
1430 1431 2 1.4430888310667962e+00 -1.5456344365487579e-07 1.0000000000000000e+00 8.1920017261741727e+00 1.5449026589954119e+01 4.1958719014502099e+00 
1431 1432 2 1.4430888310667962e+00 -1.5456344326566590e-07 1.0000000000000000e+00 1.0193007479811328e+01 1.5449026589954119e+01 4.1958719014502099e+00 
1432 1433 2 1.4430888310667962e+00 -1.5456344332929936e-07 1.0000000000000000e+00 1.2193311151728171e+01 1.5449026589954119e+01 4.1958719014502099e+00 
1433 1434 2 1.4430888310667962e+00 -1.5456344314907536e-07 1.0000000000000000e+00 1.4193572955201047e+01 1.5449026589954119e+01 4.1958719014502099e+00 
1434 1435 2 1.4430888310667962e+00 -1.5456344300975774e-07 1.0000000000000000e+00 1.6194211364705417e+01 1.5449026589954119e+01 4.1958719014502099e+00 
1435 1436 2 1.4430888310667962e+00 -1.5456344319295326e-07 1.0000000000000000e+00 1.8195655075774031e+01 1.5449026589954119e+01 4.1958719014502099e+00 
1436 1437 2 1.4430888310667962e+00 -1.5456344316975858e-07 1.0000000000000000e+00 2.0198476807475870e+01 1.5449026589954119e+01 4.1958719014502099e+00 
1437 1438 2 1.4430888310667962e+00 -1.5456344322756294e-07 1.0000000000000000e+00 2.2203460148487043e+01 1.5449026589954119e+01 4.1958719014502099e+00 
1438 1439 2 1.4430888310667962e+00 -1.5456344338064445e-07 1.0000000000000000e+00 2.4211626059208506e+01 1.5449026589954119e+01 4.1958719014502099e+00 
1439 1440 2 1.4430888310667962e+00 -1.5456344329177167e-07 1.0000000000000000e+00 2.6224249013286812e+01 1.5449026589954119e+01 4.1958719014502099e+00 
1440 1441 2 1.4430888310667962e+00 -1.5456344330590896e-07 1.0000000000000000e+00 2.8242856877099072e+01 1.5449026589954119e+01 4.1958719014502099e+00 
1441 1442 2 1.4430888310667962e+00 -1.5456344277656171e-07 1.0000000000000000e+00 3.0269208800362133e+01 1.5449026589954119e+01 4.1958719014502099e+00 
1442 1443 2 1.4430888310667962e+00 -1.5456344255127273e-07 1.0000000000000000e+00 3.2305234499916587e+01 1.5449026589954119e+01 4.1958719014502099e+00 
1891 1892 2 1.4430888310667962e+00 -1.2880287018161482e-07 1.0000000000000000e+00 6.1836603433066086e+00 1.7790158066277023e+01 4.1958719014502099e+00 
1892 1893 2 1.4430888310667962e+00 -1.5456344406271043e-07 1.0000000000000000e+00 8.1920017261741727e+00 1.7790158066277023e+01 4.1958719014502099e+00 
1893 1894 2 1.4430888310667962e+00 -1.5456344367350062e-07 1.0000000000000000e+00 1.0193007479811328e+01 1.7790158066277023e+01 4.1958719014502099e+00 
1894 1895 2 1.4430888310667962e+00 -1.5456344373714003e-07 1.0000000000000000e+00 1.2193311151728171e+01 1.7790158066277023e+01 4.1958719014502099e+00 
1895 1896 2 1.4430888310667962e+00 -1.5456344355691709e-07 1.0000000000000000e+00 1.4193572955201047e+01 1.7790158066277023e+01 4.1958719014502099e+00 
1896 1897 2 1.4430888310667962e+00 -1.5456344341759632e-07 1.0000000000000000e+00 1.6194211364705417e+01 1.7790158066277023e+01 4.1958719014502099e+00 
1897 1898 2 1.4430888310667962e+00 -1.5456344360079200e-07 1.0000000000000000e+00 1.8195655075774031e+01 1.7790158066277023e+01 4.1958719014502099e+00 
1898 1899 2 1.4430888310667962e+00 -1.5456344357759664e-07 1.0000000000000000e+00 2.0198476807475870e+01 1.7790158066277023e+01 4.1958719014502099e+00 
1899 1900 2 1.4430888310667962e+00 -1.5456344363540184e-07 1.0000000000000000e+00 2.2203460148487043e+01 1.7790158066277023e+01 4.1958719014502099e+00 
1900 1901 2 1.4430888310667962e+00 -1.5456344378848320e-07 1.0000000000000000e+00 2.4211626059208506e+01 1.7790158066277023e+01 4.1958719014502099e+00 
1901 1902 2 1.4430888310667962e+00 -1.5456344369961253e-07 1.0000000000000000e+00 2.6224249013286812e+01 1.7790158066277023e+01 4.1958719014502099e+00 
1902 1903 2 1.4430888310667962e+00 -1.5456344371374583e-07 1.0000000000000000e+00 2.8242856877099072e+01 1.7790158066277023e+01 4.1958719014502099e+00 
1903 1904 2 1.4430888310667962e+00 -1.5456344318439915e-07 1.0000000000000000e+00 3.0269208800362133e+01 1.7790158066277023e+01 4.1958719014502099e+00 
1904 1905 2 1.4430888310667962e+00 -1.5456344295911110e-07 1.0000000000000000e+00 3.2305234499916587e+01 1.7790158066277023e+01 4.1958719014502099e+00 
85 86 2 1.4430888310667962e+00 -1.0304229614992920e-07 1.0000000000000000e+00 6.1836603433066086e+00 9.1836637885246439e+00 6.2365896765192135e+00 
86 87 2 1.4430888310667962e+00 -1.2880287003103049e-07 1.0000000000000000e+00 8.1920017261741727e+00 9.1836637885246439e+00 6.2365896765192135e+00 
87 88 2 1.4430888310667962e+00 -1.2880286964181936e-07 1.0000000000000000e+00 1.0193007479811328e+01 9.1836637885246439e+00 6.2365896765192135e+00 
88 89 2 1.4430888310667962e+00 -1.2880286970545964e-07 1.0000000000000000e+00 1.2193311151728171e+01 9.1836637885246439e+00 6.2365896765192135e+00 
89 90 2 1.4430888310667962e+00 -1.2880286952522797e-07 1.0000000000000000e+00 1.4193572955201047e+01 9.1836637885246439e+00 6.2365896765192135e+00 
90 91 2 1.4430888310667962e+00 -1.2880286938591257e-07 1.0000000000000000e+00 1.6194211364705417e+01 9.1836637885246439e+00 6.2365896765192135e+00 
91 92 2 1.4430888310667962e+00 -1.2880286956911002e-07 1.0000000000000000e+00 1.8195655075774031e+01 9.1836637885246439e+00 6.2365896765192135e+00 
92 93 2 1.4430888310667962e+00 -1.2880286954591646e-07 1.0000000000000000e+00 2.0198476807475870e+01 9.1836637885246439e+00 6.2365896765192135e+00 
93 94 2 1.4430888310667962e+00 -1.2880286960371844e-07 1.0000000000000000e+00 2.2203460148487043e+01 9.1836637885246439e+00 6.2365896765192135e+00 
94 95 2 1.4430888310667962e+00 -1.2880286975680440e-07 1.0000000000000000e+00 2.4211626059208506e+01 9.1836637885246439e+00 6.2365896765192135e+00 
95 96 2 1.4430888310667962e+00 -1.2880286966793081e-07 1.0000000000000000e+00 2.6224249013286812e+01 9.1836637885246439e+00 6.2365896765192135e+00 
96 97 2 1.4430888310667962e+00 -1.2880286968206192e-07 1.0000000000000000e+00 2.8242856877099072e+01 9.1836637885246439e+00 6.2365896765192135e+00 
97 98 2 1.4430888310667962e+00 -1.2880286915271556e-07 1.0000000000000000e+00 3.0269208800362133e+01 9.1836637885246439e+00 6.2365896765192135e+00 
98 99 2 1.4430888310667962e+00 -1.2880286892742952e-07 1.0000000000000000e+00 3.2305234499916587e+01 9.1836637885246439e+00 6.2365896765192135e+00 
547 548 2 1.4430888310667962e+00 -1.2880287007183366e-07 1.0000000000000000e+00 6.1836603433066086e+00 1.1199656775398154e+01 6.2365896765192135e+00 
548 549 2 1.4430888310667962e+00 -1.5456344395293816e-07 1.0000000000000000e+00 8.1920017261741727e+00 1.1199656775398154e+01 6.2365896765192135e+00 
549 550 2 1.4430888310667962e+00 -1.5456344356372629e-07 1.0000000000000000e+00 1.0193007479811328e+01 1.1199656775398154e+01 6.2365896765192135e+00 
550 551 2 1.4430888310667962e+00 -1.5456344362736376e-07 1.0000000000000000e+00 1.2193311151728171e+01 1.1199656775398154e+01 6.2365896765192135e+00 
551 552 2 1.4430888310667962e+00 -1.5456344344713458e-07 1.0000000000000000e+00 1.4193572955201047e+01 1.1199656775398154e+01 6.2365896765192135e+00 
552 553 2 1.4430888310667962e+00 -1.5456344330781542e-07 1.0000000000000000e+00 1.6194211364705417e+01 1.1199656775398154e+01 6.2365896765192135e+00 
553 554 2 1.4430888310667962e+00 -1.5456344349101478e-07 1.0000000000000000e+00 1.8195655075774031e+01 1.1199656775398154e+01 6.2365896765192135e+00 
554 555 2 1.4430888310667962e+00 -1.5456344346782214e-07 1.0000000000000000e+00 2.0198476807475870e+01 1.1199656775398154e+01 6.2365896765192135e+00 
555 556 2 1.4430888310667962e+00 -1.5456344352562216e-07 1.0000000000000000e+00 2.2203460148487043e+01 1.1199656775398154e+01 6.2365896765192135e+00 
556 557 2 1.4430888310667962e+00 -1.5456344367870667e-07 1.0000000000000000e+00 2.4211626059208506e+01 1.1199656775398154e+01 6.2365896765192135e+00 
557 558 2 1.4430888310667962e+00 -1.5456344358983343e-07 1.0000000000000000e+00 2.6224249013286812e+01 1.1199656775398154e+01 6.2365896765192135e+00 
558 559 2 1.4430888310667962e+00 -1.5456344360396662e-07 1.0000000000000000e+00 2.8242856877099072e+01 1.1199656775398154e+01 6.2365896765192135e+00 
559 560 2 1.4430888310667962e+00 -1.5456344307462106e-07 1.0000000000000000e+00 3.0269208800362133e+01 1.1199656775398154e+01 6.2365896765192135e+00 
560 561 2 1.4430888310667962e+00 -1.5456344284933285e-07 1.0000000000000000e+00 3.2305234499916587e+01 1.1199656775398154e+01 6.2365896765192135e+00 
1009 1010 2 1.4430888310667962e+00 -1.2880286972613773e-07 1.0000000000000000e+00 6.1836603433066086e+00 1.3263773598940501e+01 6.2365896765192135e+00 
1010 1011 2 1.4430888310667962e+00 -1.5456344360723869e-07 1.0000000000000000e+00 8.1920017261741727e+00 1.3263773598940501e+01 6.2365896765192135e+00 
1011 1012 2 1.4430888310667962e+00 -1.5456344321803223e-07 1.0000000000000000e+00 1.0193007479811328e+01 1.3263773598940501e+01 6.2365896765192135e+00 
1012 1013 2 1.4430888310667962e+00 -1.5456344328166561e-07 1.0000000000000000e+00 1.2193311151728171e+01 1.3263773598940501e+01 6.2365896765192135e+00 
1013 1014 2 1.4430888310667962e+00 -1.5456344310143841e-07 1.0000000000000000e+00 1.4193572955201047e+01 1.3263773598940501e+01 6.2365896765192135e+00 
1014 1015 2 1.4430888310667962e+00 -1.5456344296212193e-07 1.0000000000000000e+00 1.6194211364705417e+01 1.3263773598940501e+01 6.2365896765192135e+00 
1015 1016 2 1.4430888310667962e+00 -1.5456344314531594e-07 1.0000000000000000e+00 1.8195655075774031e+01 1.3263773598940501e+01 6.2365896765192135e+00 
1016 1017 2 1.4430888310667962e+00 -1.5456344312212227e-07 1.0000000000000000e+00 2.0198476807475870e+01 1.3263773598940501e+01 6.2365896765192135e+00 
1017 1018 2 1.4430888310667962e+00 -1.5456344317992507e-07 1.0000000000000000e+00 2.2203460148487043e+01 1.3263773598940501e+01 6.2365896765192135e+00 
1018 1019 2 1.4430888310667962e+00 -1.5456344333300767e-07 1.0000000000000000e+00 2.4211626059208506e+01 1.3263773598940501e+01 6.2365896765192135e+00 
1019 1020 2 1.4430888310667962e+00 -1.5456344324413922e-07 1.0000000000000000e+00 2.6224249013286812e+01 1.3263773598940501e+01 6.2365896765192135e+00 
1020 1021 2 1.4430888310667962e+00 -1.5456344325827067e-07 1.0000000000000000e+00 2.8242856877099072e+01 1.3263773598940501e+01 6.2365896765192135e+00 
1021 1022 2 1.4430888310667962e+00 -1.5456344272892592e-07 1.0000000000000000e+00 3.0269208800362133e+01 1.3263773598940501e+01 6.2365896765192135e+00 
1022 1023 2 1.4430888310667962e+00 -1.5456344250363692e-07 1.0000000000000000e+00 3.2305234499916587e+01 1.3263773598940501e+01 6.2365896765192135e+00 
1471 1472 2 1.4430888310667962e+00 -1.2880286930694361e-07 1.0000000000000000e+00 6.1836603433066086e+00 1.5449026589954119e+01 6.2365896765192135e+00 
1472 1473 2 1.4430888310667962e+00 -1.5456344318804547e-07 1.0000000000000000e+00 8.1920017261741727e+00 1.5449026589954119e+01 6.2365896765192135e+00 
1473 1474 2 1.4430888310667962e+00 -1.5456344279883674e-07 1.0000000000000000e+00 1.0193007479811328e+01 1.5449026589954119e+01 6.2365896765192135e+00 
1474 1475 2 1.4430888310667962e+00 -1.5456344286247361e-07 1.0000000000000000e+00 1.2193311151728171e+01 1.5449026589954119e+01 6.2365896765192135e+00 
1475 1476 2 1.4430888310667962e+00 -1.5456344268223961e-07 1.0000000000000000e+00 1.4193572955201047e+01 1.5449026589954119e+01 6.2365896765192135e+00 
1476 1477 2 1.4430888310667962e+00 -1.5456344254292662e-07 1.0000000000000000e+00 1.6194211364705417e+01 1.5449026589954119e+01 6.2365896765192135e+00 
1477 1478 2 1.4430888310667962e+00 -1.5456344272611962e-07 1.0000000000000000e+00 1.8195655075774031e+01 1.5449026589954119e+01 6.2365896765192135e+00 
1478 1479 2 1.4430888310667962e+00 -1.5456344270292945e-07 1.0000000000000000e+00 2.0198476807475870e+01 1.5449026589954119e+01 6.2365896765192135e+00 
1479 1480 2 1.4430888310667962e+00 -1.5456344276073460e-07 1.0000000000000000e+00 2.2203460148487043e+01 1.5449026589954119e+01 6.2365896765192135e+00 
1480 1481 2 1.4430888310667962e+00 -1.5456344291381395e-07 1.0000000000000000e+00 2.4211626059208506e+01 1.5449026589954119e+01 6.2365896765192135e+00 
1481 1482 2 1.4430888310667962e+00 -1.5456344282494330e-07 1.0000000000000000e+00 2.6224249013286812e+01 1.5449026589954119e+01 6.2365896765192135e+00 
1482 1483 2 1.4430888310667962e+00 -1.5456344283907697e-07 1.0000000000000000e+00 2.8242856877099072e+01 1.5449026589954119e+01 6.2365896765192135e+00 
1483 1484 2 1.4430888310667962e+00 -1.5456344230972993e-07 1.0000000000000000e+00 3.0269208800362133e+01 1.5449026589954119e+01 6.2365896765192135e+00 
1484 1485 2 1.4430888310667962e+00 -1.5456344208444293e-07 1.0000000000000000e+00 3.2305234499916587e+01 1.5449026589954119e+01 6.2365896765192135e+00 
1933 1934 2 1.4430888310667962e+00 -1.2880286971478322e-07 1.0000000000000000e+00 6.1836603433066086e+00 1.7790158066277023e+01 6.2365896765192135e+00 